Title
82299
    1SAPS     N    1   2.780   6.756  11.282 -0.6835 -0.5804  0.3850
    1SAPS   HN1    2   2.692   6.808  11.303  0.1168 -0.0064  2.6151
    1SAPS   HN2    3   2.816   6.719  11.372  0.4558 -0.8925 -0.1830
    1SAPS   HN3    4   2.857   6.822  11.259 -0.5048 -0.9373 -0.0397
    1SAPS   C12    5   2.785   6.654  11.172 -0.0251 -0.0449 -0.3649
    1SAPS  H12A    6   2.889   6.632  11.155  0.3066  1.0762  0.1469
    1SAPS   C13    7   2.717   6.514  11.209 -0.0149  0.4320 -0.0521
    1SAPS  O13A    8   2.678   6.500  11.328 -0.1685  0.1693 -0.7681
    1SAPS  O13B    9   2.723   6.422  11.123 -0.1120 -0.3105  0.5702
    1SAPS   C11   10   2.727   6.706  11.043 -0.1683 -0.3518  0.4165
    1SAPS  H11A   11   2.617   6.718  11.051 -0.1044 -0.1512  1.0526
    1SAPS  H11B   12   2.748   6.645  10.953 -3.0726  0.7026 -1.1225
    1SAPS     P   13   2.726   6.948  10.919  0.0382 -0.0677  0.3434
    1SAPS   O13   14   2.592   6.998  10.958  0.2713 -0.1567 -0.6189
    1SAPS   O14   15   2.827   7.051  10.897 -0.0488  0.5074 -0.2625
    1SAPS   O12   16   2.783   6.841  11.021 -0.0500  0.4491  0.2560
    1SAPS   O11   17   2.706   6.863  10.786  0.6030 -0.2856 -0.5262
    1SAPS    C1   18   2.799   6.772  10.726  0.5164 -0.3188 -0.0045
    1SAPS    HA   19   2.870   6.729  10.799  1.5506 -0.9138 -1.3125
    1SAPS    HB   20   2.728   6.691  10.697 -0.9820  0.6538  0.8179
    1SAPS    C2   21   2.880   6.840  10.610  0.6280 -0.0377  0.2101
    1SAPS    HS   22   2.900   6.938  10.659 -0.7634  0.1053  0.5425
    1SAPS   O21   23   2.793   6.863  10.496  0.5207  0.2363 -0.1294
    1SAPS   C21   24   2.766   6.981  10.454  0.1360  0.2488  0.2814
    1SAPS   O22   25   2.819   7.084  10.502 -0.1357  0.8039 -0.7776
    1SAPS   C22   26   2.687   6.988  10.331 -0.1712 -0.7497 -0.1617
    1SAPS   H2R   27   2.610   6.909  10.330 -0.3386 -0.5911  0.2622
    1SAPS   H2S   28   2.645   7.091  10.326  0.0373 -0.6234  0.5685
    1SAPS    C3   29   3.014   6.772  10.574  0.2385  0.1777 -0.3059
    1SAPS    HX   30   3.063   6.771  10.674 -0.4245 -2.4209  0.0696
    1SAPS    HY   31   3.073   6.835  10.505  1.8578  0.7574  1.5019
    1SAPS   O31   32   2.996   6.632  10.530  0.6866  0.1118  0.6575
    1SAPS   C31   33   3.104   6.585  10.467 -0.3137 -0.3219  0.0493
    1SAPS   O32   34   3.209   6.647  10.456  0.5200 -0.1653 -0.5100
    1SAPS   C32   35   3.076   6.452  10.400 -0.2440  0.1823 -0.6305
    1SAPS   H2X   36   2.988   6.402  10.446 -1.5281  3.4818  0.8590
    1SAPS   H2Y   37   3.168   6.394  10.421 -0.2913 -0.2541 -1.5855
    1SAPS   C23   38   2.793   6.988  10.212 -0.1414 -0.0126  0.3465
    1SAPS   H3R   39   2.873   7.065  10.215 -0.0436  0.2393 -3.6412
    1SAPS   H3S   40   2.720   7.012  10.132 -0.8395 -0.6821  0.7709
    1SAPS   C24   41   2.873   6.861  10.185  0.0257  0.1275 -0.7180
    1SAPS   H4R   42   2.933   6.842  10.277 -0.4173  3.5102  0.3898
    1SAPS   H4S   43   2.948   6.869  10.103  0.8123  0.6964  0.0380
    1SAPS   C25   44   2.785   6.746  10.153 -0.0053  0.4182 -1.0735
    1SAPS   H5R   45   2.758   6.665  10.223  0.4374  1.3938  0.2576
    1SAPS   C26   46   2.740   6.720  10.030 -0.5496 -0.3570 -0.0447
    1SAPS   H6R   47   2.687   6.624  10.026 -0.1661 -0.6265  0.9393
    1SAPS   C27   48   2.762   6.796   9.904  0.2464 -0.1062  0.5157
    1SAPS   H7R   49   2.821   6.735   9.833  0.5658  0.1589  0.5485
    1SAPS   H7S   50   2.832   6.881   9.922 -0.4153  0.5231  0.1804
    1SAPS   C28   51   2.640   6.860   9.848 -0.0068 -0.4182  0.9822
    1SAPS   H8R   52   2.579   6.913   9.922 -0.1329  1.0366 -0.0962
    1SAPS   C29   53   2.606   6.886   9.720  0.1224 -0.0109 -0.2603
    1SAPS   H9R   54   2.518   6.951   9.707  0.4339  1.1278  2.7032
    1SAPS  C210   55   2.673   6.821   9.605 -0.1314  0.4992  0.0604
    1SAPS  H10R   56   2.717   6.725   9.639  0.9133  1.0233  0.2247
    1SAPS  H10S   57   2.758   6.888   9.582  1.0856 -0.9101  0.2736
    1SAPS  C211   58   2.580   6.797   9.494  0.3144  0.0600 -0.0960
    1SAPS  H11R   59   2.490   6.742   9.525  1.7957 -2.6389 -0.3319
    1SAPS  C212   60   2.581   6.835   9.362 -0.1256 -0.2365 -0.0700
    1SAPS  H12R   61   2.501   6.807   9.292  0.6645 -0.6408 -0.8403
    1SAPS  C213   62   2.699   6.904   9.300  0.2077 -0.4473 -0.4710
    1SAPS  H13R   63   2.725   6.851   9.206 -0.8223 -0.0000 -1.0271
    1SAPS  H13S   64   2.787   6.899   9.368 -0.4230  1.1019  0.5147
    1SAPS  C214   65   2.693   7.055   9.279  0.3691 -0.4047 -0.5462
    1SAPS  H14R   66   2.724   7.113   9.367 -0.5124 -0.5957 -0.0993
    1SAPS  C215   67   2.671   7.127   9.171  0.0829 -0.0154 -0.6726
    1SAPS  H15R   68   2.651   7.234   9.188  0.8013  0.0485 -0.1905
    1SAPS  C216   69   2.643   7.071   9.037  0.2610  0.0245  0.1326
    1SAPS  H16R   70   2.547   7.117   9.005  1.0848  1.3751 -0.4711
    1SAPS  H16S   71   2.623   6.962   9.040  1.5535 -0.2681 -0.6717
    1SAPS  C217   72   2.766   7.095   8.936  0.2499 -0.1474  0.0643
    1SAPS  H17R   73   2.864   7.077   8.985  1.4027  1.2507 -1.6196
    1SAPS  H17S   74   2.772   7.202   8.910  1.0997 -0.3188 -0.4591
    1SAPS  C218   75   2.763   7.021   8.795  0.1286 -0.4121 -0.2896
    1SAPS  H18R   76   2.672   7.032   8.731  0.3760 -0.6856 -0.6918
    1SAPS  H18S   77   2.765   6.914   8.825 -0.1148  0.1828  2.0055
    1SAPS  C219   78   2.873   7.062   8.699  0.1065  0.4614  0.4536
    1SAPS  H19R   79   2.977   7.055   8.738  1.0635 -1.8159 -2.1688
    1SAPS  H19S   80   2.859   7.170   8.678  1.2198  0.2481 -1.7150
    1SAPS  C220   81   2.863   6.995   8.558  0.6884  0.0617 -0.2218
    1SAPS  H20R   82   2.930   7.040   8.481 -0.7559  0.9023 -1.0516
    1SAPS  H20S   83   2.759   7.009   8.521  0.7663 -0.8445 -0.8267
    1SAPS  H20T   84   2.886   6.887   8.564 -1.2491 -0.3094  1.4443
    1SAPS   C33   85   3.085   6.476  10.248 -0.6584  0.3594 -0.0941
    1SAPS   H3X   86   3.190   6.497  10.218 -0.4813 -0.2381  0.0912
    1SAPS   H3Y   87   3.024   6.567  10.233  0.6125  1.1379 -0.7387
    1SAPS   C34   88   3.038   6.355  10.161 -0.2568 -0.8040  0.2670
    1SAPS   H4X   89   2.936   6.327  10.198 -0.8230  0.2439 -0.4765
    1SAPS   H4Y   90   3.109   6.270  10.173  0.8346  0.3444  2.4550
    1SAPS   C35   91   3.013   6.389  10.014  0.0837  0.8522 -0.1470
    1SAPS   H5X   92   3.106   6.424   9.966  0.8048 -0.7267  0.0244
    1SAPS   H5Y   93   2.944   6.475  10.009  1.6216  2.4029  2.6972
    1SAPS   C36   94   2.970   6.266   9.937 -0.4779  0.4203 -0.0116
    1SAPS   H6X   95   2.877   6.233   9.988 -0.7556  2.1515  0.6621
    1SAPS   H6Y   96   3.050   6.190   9.947 -0.1625  0.9193  1.5178
    1SAPS   C37   97   2.954   6.293   9.781  0.1438 -0.0395  0.4303
    1SAPS   H7X   98   3.041   6.352   9.742  0.2701 -0.3929  0.1759
    1SAPS   H7Y   99   2.868   6.363   9.781 -0.0782 -0.2794 -0.9091
    1SAPS   C38  100   2.930   6.172   9.690 -0.2898 -0.1043 -0.1523
    1SAPS   H8X  101   2.824   6.143   9.708 -0.1136 -0.5741  0.1401
    1SAPS   H8Y  102   2.984   6.080   9.722 -1.5634  0.5108  4.5158
    1SAPS   C39  103   2.943   6.224   9.547  0.2464  0.3427  0.3798
    1SAPS   H9X  104   2.877   6.157   9.489 -1.0398 -0.3508  2.5125
    1SAPS   H9Y  105   3.047   6.229   9.508 -0.9524  2.6983 -2.9134
    1SAPS  C310  106   2.892   6.365   9.506  0.5760  0.8268  0.5063
    1SAPS  H10X  107   2.964   6.437   9.550  0.3425  1.0565  0.5112
    1SAPS  H10Y  108   2.798   6.388   9.560  0.8743  0.6078  1.1250
    1SAPS  C311  109   2.868   6.403   9.359  0.1001 -0.8369 -0.1527
    1SAPS  H11X  110   2.833   6.509   9.366  1.2753 -0.4867  0.7826
    1SAPS  H11Y  111   2.786   6.347   9.311  0.5756  0.0579 -2.1252
    1SAPS  C312  112   2.998   6.407   9.274  0.3688 -0.2313 -0.6513
    1SAPS  H12X  113   3.086   6.428   9.339 -1.1611 -0.2616  1.5586
    1SAPS  H12Y  114   2.977   6.482   9.195 -0.1505  1.7194  1.2682
    1SAPS  C313  115   3.035   6.272   9.206 -0.1221 -0.7692 -0.1875
    1SAPS  H13X  116   2.939   6.220   9.182 -2.2072  1.6119  2.3222
    1SAPS  H13Y  117   3.073   6.212   9.292  1.2291 -0.7198 -0.7352
    1SAPS  C314  118   3.126   6.279   9.083  0.4819 -0.0807 -0.0531
    1SAPS  H14X  119   3.205   6.356   9.092 -0.2980  1.0999 -2.3658
    1SAPS  H14Y  120   3.071   6.319   8.995  0.2829  0.8383  0.4760
    1SAPS  C315  121   3.191   6.142   9.064 -0.9003  0.0727  0.0346
    1SAPS  H15X  122   3.106   6.074   9.040 -2.4129  1.9870 -0.3101
    1SAPS  H15Y  123   3.243   6.111   9.157 -1.1614  3.0337  1.3143
    1SAPS  C316  124   3.291   6.144   8.945  0.2362 -0.4049  0.6913
    1SAPS  H16X  125   3.369   6.214   8.980 -1.8013  2.5417 -0.2409
    1SAPS  H16Y  126   3.241   6.193   8.858 -2.0514  1.9383  3.1207
    1SAPS  C317  127   3.358   6.012   8.918  0.3216 -0.2612 -0.5129
    1SAPS  H17X  128   3.288   5.943   8.865  1.5714 -1.8627 -0.1679
    1SAPS  H17Y  129   3.390   5.966   9.014 -1.9143  0.6286  0.7642
    1SAPS  C318  130   3.485   6.025   8.828  0.0015 -0.0463 -0.4992
    1SAPS  H18X  131   3.522   5.923   8.804 -1.5758 -0.4513 -1.3504
    1SAPS  H18Y  132   3.561   6.095   8.869  0.3358 -1.6429  1.8016
    1SAPS  H18Z  133   3.453   6.057   8.727 -1.2944  1.3976  0.3286
    2SAPS     N  134   2.941   1.776  10.890  0.1674 -0.7798  0.3946
    2SAPS   HN1  135   2.908   1.819  10.801 -0.6610 -1.8906  0.1367
    2SAPS   HN2  136   2.971   1.679  10.866 -0.1148 -0.4866 -1.3022
    2SAPS   HN3  137   2.860   1.772  10.955  0.8512  1.3148  1.4545
    2SAPS   C12  138   3.058   1.857  10.945 -0.0724 -0.5461 -0.2941
    2SAPS  H12A  139   3.014   1.937  11.002 -1.4868 -1.4201 -0.1109
    2SAPS   C13  140   3.161   1.787  11.040 -1.0588 -0.4889 -0.0521
    2SAPS  O13A  141   3.148   1.668  11.083  0.0304  0.0312 -0.2827
    2SAPS  O13B  142   3.254   1.866  11.078  0.4490  0.1890 -0.1804
    2SAPS   C11  143   3.133   1.922  10.822 -1.6235  0.5647  0.1849
    2SAPS  H11A  144   3.161   1.835  10.759 -1.1558 -0.6391  1.9881
    2SAPS  H11B  145   3.221   1.973  10.867  0.1143 -1.5167 -0.7115
    2SAPS     P  146   3.114   2.094  10.623  0.3319  0.4977  0.4630
    2SAPS   O13  147   2.998   2.120  10.535  0.6974 -0.4266 -0.0343
    2SAPS   O14  148   3.199   2.211  10.653  0.0227  0.1769 -0.9255
    2SAPS   O12  149   3.059   2.018  10.754 -0.2543 -0.1621 -0.2988
    2SAPS   O11  150   3.203   1.984  10.564  0.4128 -0.2048 -0.2203
    2SAPS    C1  151   3.164   1.895  10.458 -0.1827  0.3767 -0.8397
    2SAPS    HA  152   3.162   1.790  10.494  2.3181  0.2520 -0.9082
    2SAPS    HB  153   3.064   1.916  10.415 -1.6795 -1.3792  1.5547
    2SAPS    C2  154   3.269   1.903  10.345  0.1516  0.8799 -0.4517
    2SAPS    HS  155   3.364   1.893  10.402  0.4645  1.3788 -0.8804
    2SAPS   O21  156   3.271   2.030  10.280 -0.4965 -0.3852 -0.0246
    2SAPS   C21  157   3.391   2.068  10.232 -0.5405  0.9216 -1.0600
    2SAPS   O22  158   3.498   2.006  10.252 -0.3059 -0.1800 -0.0094
    2SAPS   C22  159   3.385   2.201  10.175  0.3974 -0.3117  0.8309
    2SAPS   H2R  160   3.280   2.222  10.145  0.9356 -0.6581 -1.5365
    2SAPS   H2S  161   3.407   2.270  10.259  1.2940  0.4339  0.0264
    2SAPS    C3  162   3.256   1.779  10.257  1.4539 -0.8754  0.4513
    2SAPS    HX  163   3.159   1.791  10.204  1.5875 -0.9803  0.1840
    2SAPS    HY  164   3.236   1.684  10.311 -2.0495 -0.8534 -0.5957
    2SAPS   O31  165   3.364   1.754  10.162 -0.0397 -0.3322 -0.3685
    2SAPS   C31  166   3.474   1.697  10.212  0.0780 -0.4666 -0.0227
    2SAPS   O32  167   3.491   1.646  10.323 -0.4792  0.1278 -0.2987
    2SAPS   C32  168   3.585   1.687  10.107 -0.3381 -0.1458  0.3182
    2SAPS   H2X  169   3.627   1.585  10.089  0.3529  0.1534  0.2233
    2SAPS   H2Y  170   3.670   1.736  10.158 -0.3034 -0.5565  0.6595
    2SAPS   C23  171   3.480   2.235  10.063  0.3426 -0.1897  0.1410
    2SAPS   H3R  172   3.449   2.164   9.983 -1.1676 -0.4354  0.9095
    2SAPS   H3S  173   3.582   2.207  10.097  0.9010 -0.2705 -1.4979
    2SAPS   C24  174   3.475   2.376  10.010 -0.6050  1.2739  0.6856
    2SAPS   H4R  175   3.510   2.431  10.099  1.9405 -1.0396  1.2319
    2SAPS   H4S  176   3.369   2.410  10.000 -1.3038 -0.3669  2.1265
    2SAPS   C25  177   3.552   2.401   9.878 -0.3964 -0.1794  0.1629
    2SAPS   H5R  178   3.518   2.338   9.795  0.1520 -1.0376  0.5813
    2SAPS   C26  179   3.654   2.491   9.860  1.0304 -0.2250  0.1892
    2SAPS   H6R  180   3.682   2.517   9.756 -1.5175 -1.1650 -0.7957
    2SAPS   C27  181   3.719   2.577   9.966 -0.5443  0.2847 -0.3834
    2SAPS   H7R  182   3.670   2.577  10.066  1.1790 -0.2161  0.5161
    2SAPS   H7S  183   3.721   2.686   9.943  1.4203  0.2909 -0.3751
    2SAPS   C28  184   3.859   2.530   9.998 -0.3965  0.0811 -0.2793
    2SAPS   H8R  185   3.874   2.514  10.106  1.0199 -0.4574 -0.5276
    2SAPS   C29  186   3.975   2.512   9.925 -1.3551  0.0105 -0.0399
    2SAPS   H9R  187   4.062   2.479   9.983 -1.5480 -0.6699 -0.1388
    2SAPS  C210  188   3.996   2.541   9.773 -0.2764 -0.0346 -0.5421
    2SAPS  H10R  189   3.927   2.480   9.710 -0.4065 -1.6784  1.1341
    2SAPS  H10S  190   4.098   2.505   9.749 -0.9242 -2.5125  0.0953
    2SAPS  C211  191   3.970   2.676   9.723  0.0937 -0.4708  0.4013
    2SAPS  H11R  192   3.890   2.735   9.771 -0.6083  0.4135 -1.7684
    2SAPS  C212  193   4.053   2.738   9.628  0.3786  0.9286 -0.2234
    2SAPS  H12R  194   4.021   2.837   9.594  2.5580  2.2519  1.3167
    2SAPS  C213  195   4.188   2.692   9.565  0.9940 -0.2804 -0.1562
    2SAPS  H13R  196   4.163   2.605   9.501 -2.2691 -1.5223  2.4752
    2SAPS  H13S  197   4.264   2.655   9.638  1.4636  2.2751  0.7578
    2SAPS  C214  198   4.254   2.802   9.493  0.1765  0.3398 -0.2601
    2SAPS  H14R  199   4.342   2.846   9.542  0.2180  3.6110 -2.8764
    2SAPS  C215  200   4.218   2.853   9.371  0.4363  0.6875  0.3382
    2SAPS  H15R  201   4.278   2.935   9.328  1.2482 -0.4949 -0.8769
    2SAPS  C216  202   4.099   2.809   9.293  0.5576  0.7324  0.1610
    2SAPS  H16R  203   4.015   2.882   9.308  0.0136  1.2980 -4.2285
    2SAPS  H16S  204   4.055   2.711   9.321 -0.6327  0.8170 -1.2408
    2SAPS  C217  205   4.119   2.820   9.141  0.4274  0.2781  0.3025
    2SAPS  H17R  206   4.188   2.742   9.105 -0.1911  0.8745 -2.3557
    2SAPS  H17S  207   4.144   2.921   9.103 -0.1820 -0.6830 -2.8956
    2SAPS  C218  208   3.989   2.782   9.064 -0.0640 -0.0220 -0.6209
    2SAPS  H18R  209   3.923   2.870   9.076 -0.2153 -0.3337  1.1696
    2SAPS  H18S  210   3.939   2.701   9.123  0.4615 -0.5175 -0.8498
    2SAPS  C219  211   4.003   2.763   8.921 -0.3672 -0.0951 -0.0390
    2SAPS  H19R  212   4.069   2.680   8.888 -0.7490 -0.4449  0.0767
    2SAPS  H19S  213   4.052   2.854   8.878 -0.9875  0.7485  0.9855
    2SAPS  C220  214   3.872   2.744   8.842 -0.5445 -0.9170  0.6556
    2SAPS  H20R  215   3.795   2.821   8.864  0.0547 -0.5780  1.6591
    2SAPS  H20S  216   3.827   2.646   8.868  0.1846 -1.3663  0.2440
    2SAPS  H20T  217   3.891   2.747   8.733  2.6969 -2.3328  1.0572
    2SAPS   C33  218   3.549   1.749   9.969  0.3343  0.0228  0.0361
    2SAPS   H3X  219   3.641   1.763   9.908 -0.5883 -2.1023 -1.9851
    2SAPS   H3Y  220   3.499   1.847   9.978 -0.4928 -0.4217  0.4078
    2SAPS   C34  221   3.472   1.650   9.888 -0.4089  0.0948 -0.2929
    2SAPS   H4X  222   3.419   1.576   9.951 -0.9612  0.4362 -0.3470
    2SAPS   H4Y  223   3.548   1.588   9.836 -0.3779 -1.7088  1.7598
    2SAPS   C35  224   3.383   1.709   9.785  0.1732 -0.3847  0.1168
    2SAPS   H5X  225   3.443   1.780   9.725  1.4247 -1.1145  0.4751
    2SAPS   H5Y  226   3.296   1.761   9.831 -0.7057 -2.6028  1.1136
    2SAPS   C36  227   3.327   1.611   9.685 -0.3000  0.0883 -0.4211
    2SAPS   H6X  228   3.266   1.548   9.753 -0.8341  2.4129  1.3505
    2SAPS   H6Y  229   3.408   1.553   9.635  0.1134 -0.2468  0.6033
    2SAPS   C37  230   3.224   1.674   9.589 -0.1861 -0.3289  0.5612
    2SAPS   H7X  231   3.232   1.784   9.602  0.9429  0.0138 -2.4009
    2SAPS   H7Y  232   3.124   1.650   9.631  0.1406 -2.8019  0.0809
    2SAPS   C38  233   3.250   1.621   9.449  0.2298 -0.3902  0.7775
    2SAPS   H8X  234   3.167   1.660   9.386  1.4631  1.6731  0.3310
    2SAPS   H8Y  235   3.254   1.510   9.446 -0.4827 -0.4045  0.0061
    2SAPS   C39  236   3.374   1.685   9.389 -0.0037  0.2547  0.3075
    2SAPS   H9X  237   3.462   1.629   9.430 -0.1638  0.2085  0.5934
    2SAPS   H9Y  238   3.363   1.794   9.406  0.1172 -0.0135  2.3521
    2SAPS  C310  239   3.394   1.653   9.236 -0.4780  0.1681  0.0102
    2SAPS  H10X  240   3.292   1.646   9.193 -1.1626  1.5711  1.3065
    2SAPS  H10Y  241   3.448   1.557   9.222 -1.5975 -0.5574  0.5578
    2SAPS  C311  242   3.488   1.758   9.169  0.1045 -0.1040 -0.8249
    2SAPS  H11X  243   3.594   1.754   9.203 -0.2028  0.1862  0.2035
    2SAPS  H11Y  244   3.461   1.863   9.193  2.6294  0.3306  0.4823
    2SAPS  C312  245   3.480   1.750   9.022  0.0442  0.3361 -0.9011
    2SAPS  H12X  246   3.486   1.639   9.008  2.2537  0.3484 -0.2990
    2SAPS  H12Y  247   3.566   1.795   8.969 -0.2897 -0.1244 -1.8647
    2SAPS  C313  248   3.349   1.807   8.945  0.2806 -0.1652  1.0145
    2SAPS  H13X  249   3.362   1.917   8.952  2.1151 -0.3428  0.8601
    2SAPS  H13Y  250   3.261   1.763   8.997 -0.7488 -0.9657 -1.2927
    2SAPS  C314  251   3.341   1.763   8.802 -0.4043 -0.2458  0.6033
    2SAPS  H14X  252   3.246   1.805   8.762 -0.4887  0.0982  1.1543
    2SAPS  H14Y  253   3.341   1.653   8.788 -1.5171 -0.1212 -0.5165
    2SAPS  C315  254   3.460   1.813   8.713  0.2542  0.2276 -0.5900
    2SAPS  H15X  255   3.551   1.784   8.770 -1.2172 -3.1616  0.2746
    2SAPS  H15Y  256   3.451   1.924   8.711  0.1048  0.2829  1.2199
    2SAPS  C316  257   3.461   1.764   8.566 -0.0198  0.2570  0.4864
    2SAPS  H16X  258   3.445   1.656   8.585 -1.8721  0.6451  1.3490
    2SAPS  H16Y  259   3.563   1.775   8.523  0.0691 -0.3481  0.5392
    2SAPS  C317  260   3.354   1.809   8.466 -0.3346 -0.5494 -0.7703
    2SAPS  H17X  261   3.369   1.918   8.454 -1.4413 -0.0686  1.5942
    2SAPS  H17Y  262   3.253   1.800   8.513  0.2306  0.9082  0.8184
    2SAPS  C318  263   3.347   1.721   8.345 -0.0266 -0.2402 -0.3499
    2SAPS  H18X  264   3.437   1.722   8.278 -1.2993 -0.9198 -2.1542
    2SAPS  H18Y  265   3.261   1.751   8.282 -0.6868 -0.6401  0.3541
    2SAPS  H18Z  266   3.326   1.617   8.378 -0.9135 -0.0910 -0.4181
    3SAPS     N  267   2.826   4.023  10.728 -0.1226 -0.3542 -0.3618
    3SAPS   HN1  268   2.887   3.940  10.715 -0.2762 -0.3652 -1.0473
    3SAPS   HN2  269   2.732   4.007  10.686 -0.8828 -1.0786  1.5429
    3SAPS   HN3  270   2.869   4.105  10.681  0.7719  0.1106  1.2121
    3SAPS   C12  271   2.814   4.066  10.878 -0.3147  0.0300  0.0691
    3SAPS  H12A  272   2.772   4.165  10.880 -0.6326 -0.0879 -0.3994
    3SAPS   C13  273   2.722   3.970  10.955 -0.1262 -0.2606 -0.1805
    3SAPS  O13A  274   2.704   3.851  10.917  0.9737  0.8413  0.0040
    3SAPS  O13B  275   2.703   3.995  11.081  0.2303 -0.0468  0.1859
    3SAPS   C11  276   2.953   4.074  10.942  0.4116  0.0256  0.0093
    3SAPS  H11A  277   2.988   3.969  10.945 -1.2712 -0.5529  0.5600
    3SAPS  H11B  278   2.939   4.111  11.045  0.4630 -0.6562  0.2663
    3SAPS     P  279   3.191   4.172  10.890 -0.2840 -0.1038  0.3217
    3SAPS   O13  280   3.219   4.314  10.940 -0.1892  0.2280  0.1634
    3SAPS   O14  281   3.235   4.064  10.979  0.3600  0.4769 -0.0484
    3SAPS   O12  282   3.032   4.169  10.873 -0.3704  0.7309 -0.1219
    3SAPS   O11  283   3.250   4.154  10.747 -0.7173 -0.2404  0.5978
    3SAPS    C1  284   3.207   4.052  10.657 -0.0468 -0.2181 -0.3899
    3SAPS    HA  285   3.167   3.962  10.709 -1.0073 -0.2577 -1.1641
    3SAPS    HB  286   3.120   4.097  10.603 -0.7401 -1.3979 -0.2956
    3SAPS    C2  287   3.309   4.020  10.532  0.3525  0.9827 -0.6181
    3SAPS    HS  288   3.399   3.983  10.587  0.3985  0.6621 -0.9066
    3SAPS   O21  289   3.330   4.140  10.451  0.3027  0.0705 -0.6673
    3SAPS   C21  290   3.442   4.143  10.383 -0.3636 -0.4642 -0.1170
    3SAPS   O22  291   3.527   4.060  10.394 -0.1863  0.0137  0.0337
    3SAPS   C22  292   3.436   4.258  10.286  0.0520  0.0241 -0.0920
    3SAPS   H2R  293   3.364   4.232  10.206 -0.0311  3.5862 -1.3763
    3SAPS   H2S  294   3.385   4.342  10.338  0.1604 -0.5860  1.0258
    3SAPS    C3  295   3.238   3.907  10.461 -0.0772 -0.1269  0.1660
    3SAPS    HX  296   3.213   3.829  10.537 -1.2974  0.2891  0.2094
    3SAPS    HY  297   3.300   3.853  10.386 -1.9888 -1.2014 -0.7322
    3SAPS   O31  298   3.112   3.954  10.402 -0.1498 -0.0249  0.2248
    3SAPS   C31  299   3.110   3.993  10.278  0.6394  0.0243 -0.5650
    3SAPS   O32  300   3.207   3.999  10.204  0.1728  0.2965  0.6446
    3SAPS   C32  301   2.965   4.014  10.239 -0.1474 -0.0788  0.1273
    3SAPS   H2X  302   2.928   4.093  10.308  3.1891  2.2358 -0.4614
    3SAPS   H2Y  303   2.896   3.927  10.248 -0.8214  0.4603  0.2340
    3SAPS   C23  304   3.571   4.293  10.219 -0.2536 -0.0766 -0.1887
    3SAPS   H3R  305   3.643   4.336  10.292 -0.8893  0.0892  0.3600
    3SAPS   H3S  306   3.549   4.370  10.143 -0.3792  0.0081 -0.0691
    3SAPS   C24  307   3.641   4.178  10.141  0.6293  0.2092  0.1720
    3SAPS   H4R  308   3.682   4.108  10.216  0.6194  0.8292  0.7660
    3SAPS   H4S  309   3.735   4.207  10.089  0.1247  1.8168  0.1012
    3SAPS   C25  310   3.558   4.100  10.042 -0.5916 -0.6977 -0.1199
    3SAPS   H5R  311   3.471   4.043  10.077 -0.1165 -0.4757  1.5197
    3SAPS   C26  312   3.572   4.094   9.909  0.3120  0.0073  0.7714
    3SAPS   H6R  313   3.485   4.043   9.863  1.1944 -1.8268  1.0322
    3SAPS   C27  314   3.670   4.170   9.825  0.0479 -0.6237  0.0699
    3SAPS   H7R  315   3.759   4.110   9.796  0.4434 -1.0837  2.0942
    3SAPS   H7S  316   3.716   4.253   9.882  0.6240 -2.1261  1.9068
    3SAPS   C28  317   3.589   4.222   9.705 -0.3793 -1.1421 -0.6228
    3SAPS   H8R  318   3.516   4.301   9.727  0.2863 -0.5571 -0.4768
    3SAPS   C29  319   3.601   4.192   9.576 -0.8824 -0.1243 -0.6330
    3SAPS   H9R  320   3.522   4.225   9.507 -2.2445 -0.6828  0.6000
    3SAPS  C210  321   3.707   4.094   9.527  1.0649 -0.1568 -0.3386
    3SAPS  H10R  322   3.783   4.062   9.600  0.2297 -1.4396 -0.0020
    3SAPS  H10S  323   3.760   4.131   9.436 -0.8272 -0.9255 -1.8376
    3SAPS  C211  324   3.635   3.962   9.494 -0.5912  0.1068  0.3772
    3SAPS  H11R  325   3.616   3.903   9.585  0.9173 -0.5645  0.2979
    3SAPS  C212  326   3.585   3.922   9.380  0.4407  0.3537 -0.0958
    3SAPS  H12R  327   3.568   3.813   9.378  2.7134 -0.1026  1.2266
    3SAPS  C213  328   3.588   4.005   9.256 -0.4116  0.1686  0.3513
    3SAPS  H13R  329   3.583   4.115   9.271  0.6897  0.5356 -1.6135
    3SAPS  H13S  330   3.502   3.988   9.188  0.1452 -1.4388  0.0059
    3SAPS  C214  331   3.708   3.972   9.181 -0.0458  0.4343 -0.4894
    3SAPS  H14R  332   3.796   3.951   9.245  0.1424 -0.8380 -1.1209
    3SAPS  C215  333   3.730   3.961   9.049  0.5462  0.7122 -0.7065
    3SAPS  H15R  334   3.824   3.918   9.011 -0.5364  0.1341 -2.8605
    3SAPS  C216  335   3.630   3.986   8.937  0.2195  0.2164  0.5164
    3SAPS  H16R  336   3.535   4.037   8.962 -3.0809 -3.5575 -2.8296
    3SAPS  H16S  337   3.585   3.888   8.910 -0.4987  0.9365 -1.0624
    3SAPS  C217  338   3.695   4.048   8.809  0.5961  0.3883 -0.1628
    3SAPS  H17R  339   3.766   3.973   8.767  0.8604  0.4044  0.2405
    3SAPS  H17S  340   3.753   4.136   8.845  0.9927  0.0809 -0.0319
    3SAPS  C218  341   3.592   4.065   8.694 -0.0206 -0.1515  0.5644
    3SAPS  H18R  342   3.624   4.132   8.611  1.0424 -0.5199  0.6632
    3SAPS  H18S  343   3.511   4.125   8.740  0.2640  1.0867 -0.4935
    3SAPS  C219  344   3.541   3.935   8.620 -0.3264 -0.4022  0.1424
    3SAPS  H19R  345   3.503   3.860   8.692 -1.6384 -0.8248 -0.9375
    3SAPS  H19S  346   3.640   3.901   8.583 -0.5925  1.1230 -2.2364
    3SAPS  C220  347   3.440   3.957   8.508  0.1817 -0.1434  1.3302
    3SAPS  H20R  348   3.478   4.041   8.446 -0.5221 -1.1230 -0.5047
    3SAPS  H20S  349   3.338   3.988   8.540  0.1193  0.7450  0.3234
    3SAPS  H20T  350   3.435   3.870   8.438  0.8846  0.6126  0.3090
    3SAPS   C33  351   2.955   4.080  10.098 -0.3083 -0.6147 -0.0803
    3SAPS   H3X  352   2.990   4.015  10.015  0.6963  1.6828 -1.5570
    3SAPS   H3Y  353   3.012   4.176  10.096  0.0956 -0.8606 -1.0092
    3SAPS   C34  354   2.812   4.122  10.066 -0.2126  0.0408  0.2523
    3SAPS   H4X  355   2.778   4.184  10.151  3.4154  0.2497  1.7362
    3SAPS   H4Y  356   2.751   4.030  10.058  0.0772 -0.0792 -0.7961
    3SAPS   C35  357   2.813   4.210   9.945  0.3128  0.1565 -0.0686
    3SAPS   H5X  358   2.879   4.300   9.944  1.3660 -0.5986  0.1534
    3SAPS   H5Y  359   2.710   4.251   9.948 -1.1771 -3.3403  1.9698
    3SAPS   C36  360   2.829   4.129   9.820  0.3953  0.1152  0.9421
    3SAPS   H6X  361   2.762   4.040   9.818  0.4784  0.0540 -0.9327
    3SAPS   H6Y  362   2.930   4.087   9.800  1.1009  1.3929  1.7366
    3SAPS   C37  363   2.772   4.203   9.695  0.3555 -0.2947 -0.2754
    3SAPS   H7X  364   2.828   4.297   9.678  1.6735 -0.9217  0.4490
    3SAPS   H7Y  365   2.669   4.240   9.713  0.1289 -1.0172 -0.0178
    3SAPS   C38  366   2.789   4.113   9.573 -0.5706 -0.0432 -0.0991
    3SAPS   H8X  367   2.735   4.019   9.595 -1.5205  0.9336  2.0382
    3SAPS   H8Y  368   2.892   4.081   9.548 -1.5443 -3.8127  0.2289
    3SAPS   C39  369   2.727   4.179   9.458  0.4068  0.1865 -0.4606
    3SAPS   H9X  370   2.703   4.286   9.476  3.9862  1.1382 -0.7036
    3SAPS   H9Y  371   2.630   4.132   9.431  1.5242 -2.1118 -0.6895
    3SAPS  C310  372   2.812   4.171   9.331  0.2101 -0.1510  0.0520
    3SAPS  H10X  373   2.784   4.075   9.282 -0.6137  0.5963 -0.9986
    3SAPS  H10Y  374   2.922   4.176   9.343  0.5108 -0.4797 -2.1101
    3SAPS  C311  375   2.770   4.285   9.232  0.6793  0.2812 -0.4675
    3SAPS  H11X  376   2.790   4.386   9.275  0.7893  0.4199 -0.8403
    3SAPS  H11Y  377   2.659   4.287   9.221  0.4526 -0.0923  1.3825
    3SAPS  C312  378   2.844   4.265   9.101  0.0560  0.1238 -0.1521
    3SAPS  H12X  379   2.833   4.160   9.066 -2.7830  1.0282 -2.4308
    3SAPS  H12Y  380   2.955   4.275   9.108  0.2447  0.3768 -2.4328
    3SAPS  C313  381   2.792   4.357   8.988 -0.2515 -0.1497  0.1764
    3SAPS  H13X  382   2.838   4.315   8.897 -0.7135 -0.5259  0.1128
    3SAPS  H13Y  383   2.814   4.465   9.004 -3.3372  0.4430  1.2518
    3SAPS  C314  384   2.639   4.343   8.977  0.2365 -0.5726  0.4022
    3SAPS  H14X  385   2.585   4.376   9.068  0.4063  0.7387  0.0418
    3SAPS  H14Y  386   2.609   4.239   8.953 -0.3495  0.0074 -1.6330
    3SAPS  C315  387   2.580   4.408   8.845 -0.1552  0.4159  0.3803
    3SAPS  H15X  388   2.660   4.408   8.769  0.4461  0.6536  1.0018
    3SAPS  H15Y  389   2.578   4.518   8.860 -0.4382  0.3211  1.0949
    3SAPS  C316  390   2.443   4.355   8.804  0.2590 -0.6901  0.0380
    3SAPS  H16X  391   2.368   4.384   8.881  1.2915 -0.0808  0.8473
    3SAPS  H16Y  392   2.463   4.246   8.810  2.4611 -0.4039 -1.2506
    3SAPS  C317  393   2.398   4.405   8.667 -0.3696 -0.1387  0.5196
    3SAPS  H17X  394   2.467   4.381   8.583  0.3083  1.3327  0.6167
    3SAPS  H17Y  395   2.393   4.516   8.669  0.3729  0.1418 -3.8935
    3SAPS  C318  396   2.255   4.363   8.643 -0.3296  0.0573  0.4418
    3SAPS  H18X  397   2.235   4.258   8.612 -3.2863  0.4463  0.7200
    3SAPS  H18Y  398   2.199   4.430   8.573  0.8381 -0.0514 -0.6287
    3SAPS  H18Z  399   2.190   4.389   8.729 -0.0773 -0.4780  0.8020
    4SAPS     N  400   5.268   2.067  10.510  0.5390 -0.1122 -0.2530
    4SAPS   HN1  401   5.204   2.111  10.442 -0.2299  0.5821  0.8771
    4SAPS   HN2  402   5.355   2.035  10.463  1.3801 -1.6750  2.1313
    4SAPS   HN3  403   5.224   1.976  10.533 -1.1217  0.0635 -2.4442
    4SAPS   C12  404   5.295   2.159  10.634  0.5458  0.4280 -0.5716
    4SAPS  H12A  405   5.212   2.158  10.702  0.6807  2.6975 -0.3158
    4SAPS   C13  406   5.424   2.107  10.701 -0.1997 -0.0310 -1.4669
    4SAPS  O13A  407   5.469   1.994  10.669  0.8429 -0.0293  0.7150
    4SAPS  O13B  408   5.476   2.179  10.792  0.0971  0.2399 -0.7806
    4SAPS   C11  409   5.308   2.309  10.593  0.7001 -0.3534 -0.2870
    4SAPS  H11A  410   5.335   2.368  10.683 -1.7896 -2.1654  1.7685
    4SAPS  H11B  411   5.209   2.349  10.561  2.2646  0.5560 -4.7019
    4SAPS     P  412   5.446   2.488  10.454  0.0276  0.0416 -0.1041
    4SAPS   O13  413   5.482   2.547  10.589  0.1354 -0.1283  0.2669
    4SAPS   O14  414   5.550   2.488  10.352  0.3360  0.4722 -0.3482
    4SAPS   O12  415   5.394   2.329  10.479  0.0991 -0.2685 -1.0237
    4SAPS   O11  416   5.306   2.540  10.399  0.4058 -0.3751 -0.4262
    4SAPS    C1  417   5.229   2.473  10.291 -0.4411 -0.1964  0.5687
    4SAPS    HA  418   5.265   2.369  10.274  0.4414  0.3849 -1.3682
    4SAPS    HB  419   5.122   2.454  10.317 -0.5404 -0.0584  0.2662
    4SAPS    C2  420   5.237   2.561  10.156 -0.0050 -0.0474  1.0309
    4SAPS    HS  421   5.187   2.513  10.069 -0.0859  3.3731 -0.9637
    4SAPS   O21  422   5.375   2.592  10.120 -0.1050  0.0489 -0.3742
    4SAPS   C21  423   5.443   2.489  10.076  0.3835  0.4336 -0.8219
    4SAPS   O22  424   5.391   2.379  10.052 -0.3578  0.0158 -0.1185
    4SAPS   C22  425   5.582   2.534  10.053 -1.2548 -0.2769  0.2125
    4SAPS   H2R  426   5.568   2.619   9.982  0.7915 -0.6204 -0.6644
    4SAPS   H2S  427   5.627   2.588  10.139  2.6110 -2.0472 -0.5123
    4SAPS    C3  428   5.165   2.700  10.180  0.0751  0.2102  0.4837
    4SAPS    HX  429   5.227   2.751  10.256  0.8938  0.0654 -0.0666
    4SAPS    HY  430   5.064   2.675  10.217 -0.1833  1.5196  0.7083
    4SAPS   O31  431   5.160   2.782  10.060  0.2048 -0.3614  0.4269
    4SAPS   C31  432   5.093   2.894  10.081  0.3225 -0.4580 -0.0385
    4SAPS   O32  433   5.065   2.939  10.189 -0.4344 -0.2610  0.3315
    4SAPS   C32  434   5.058   2.955   9.950  0.4638 -0.3060  0.7776
    4SAPS   H2X  435   4.968   2.900   9.916  0.0280  0.9717 -0.2217
    4SAPS   H2Y  436   5.140   2.936   9.878  1.5531 -1.4135  2.2349
    4SAPS   C23  437   5.694   2.453  10.003 -0.4763  0.8533 -0.5027
    4SAPS   H3R  438   5.692   2.349  10.042  2.5682 -0.3794 -3.1539
    4SAPS   H3S  439   5.790   2.492  10.044 -1.1809 -0.1404  2.3180
    4SAPS   C24  440   5.711   2.458   9.851  0.2831  0.7550  0.8594
    4SAPS   H4R  441   5.803   2.404   9.820 -0.2158  1.2449 -1.7157
    4SAPS   H4S  442   5.732   2.561   9.815  0.8893  1.0447  2.0188
    4SAPS   C25  443   5.590   2.402   9.776  1.1694 -0.2787 -0.2762
    4SAPS   H5R  444   5.580   2.293   9.770 -0.6152 -0.1101 -1.2530
    4SAPS   C26  445   5.501   2.473   9.704  0.6445 -0.0870 -0.1149
    4SAPS   H6R  446   5.422   2.421   9.647  1.2111  0.0568 -1.0470
    4SAPS   C27  447   5.503   2.629   9.687 -0.0951  0.1000  0.0530
    4SAPS   H7R  448   5.531   2.648   9.581 -2.6692  0.3719 -0.6322
    4SAPS   H7S  449   5.581   2.671   9.754  0.2202 -0.4004  0.0048
    4SAPS   C28  450   5.370   2.679   9.739 -0.5908  0.4364  0.5454
    4SAPS   H8R  451   5.369   2.688   9.849  1.0841  1.2957  0.5120
    4SAPS   C29  452   5.261   2.721   9.668  0.3574  0.6258  0.3337
    4SAPS   H9R  453   5.177   2.755   9.730  0.4801  1.5480  0.0079
    4SAPS  C210  454   5.245   2.727   9.515 -0.7126  0.1938 -0.3387
    4SAPS  H10R  455   5.141   2.700   9.488 -0.1993 -0.1858 -2.0036
    4SAPS  H10S  456   5.306   2.644   9.474  0.4906  0.8369  0.0800
    4SAPS  C211  457   5.289   2.856   9.453 -0.2980 -0.2529 -0.1529
    4SAPS  H11R  458   5.353   2.927   9.509 -2.0268  1.6505 -0.4415
    4SAPS  C212  459   5.265   2.882   9.328 -0.2193 -0.1107  0.6264
    4SAPS  H12R  460   5.304   2.980   9.296 -1.2098  0.1187  0.0817
    4SAPS  C213  461   5.191   2.809   9.219 -0.0344  0.0713  0.2166
    4SAPS  H13R  462   5.111   2.878   9.184  0.0568  1.1873  2.0716
    4SAPS  H13S  463   5.121   2.740   9.270 -1.5623  0.3265 -1.4140
    4SAPS  C214  464   5.276   2.742   9.118  0.1065  0.5525 -0.0293
    4SAPS  H14R  465   5.349   2.677   9.167 -0.0736  1.1974  1.1155
    4SAPS  C215  466   5.267   2.742   8.987 -0.0406 -0.4019  1.0729
    4SAPS  H15R  467   5.341   2.677   8.938 -0.0945  1.5305 -1.8608
    4SAPS  C216  468   5.173   2.802   8.880 -0.7544  0.6136  0.5281
    4SAPS  H16R  469   5.102   2.875   8.924 -0.4155  0.8046  0.7591
    4SAPS  H16S  470   5.106   2.722   8.841 -1.3463  0.5413  1.6339
    4SAPS  C217  471   5.245   2.872   8.764  0.2157 -0.0610  0.8253
    4SAPS  H17R  472   5.319   2.945   8.802 -0.6352  0.1708  2.0658
    4SAPS  H17S  473   5.175   2.935   8.706  1.4458 -0.7715 -1.5842
    4SAPS  C218  474   5.309   2.778   8.668 -0.1438  0.5621 -0.2495
    4SAPS  H18R  475   5.399   2.732   8.712  0.7612  1.7339 -0.8100
    4SAPS  H18S  476   5.339   2.843   8.583 -2.4477 -0.5274 -2.0161
    4SAPS  C219  477   5.221   2.660   8.614 -0.1630  0.0059 -0.1715
    4SAPS  H19R  478   5.127   2.711   8.585  1.3690  2.6702 -0.8705
    4SAPS  H19S  479   5.221   2.598   8.706  1.4580  1.3586  0.8108
    4SAPS  C220  480   5.279   2.582   8.492  0.5737 -0.8304  0.0272
    4SAPS  H20R  481   5.365   2.519   8.523  0.6377 -0.9337 -0.3546
    4SAPS  H20S  482   5.312   2.652   8.412 -0.6663 -2.1508 -1.6708
    4SAPS  H20T  483   5.206   2.515   8.443  1.6885 -1.2092 -1.1664
    4SAPS   C33  484   5.027   3.106   9.958 -0.2948 -0.6211 -0.2686
    4SAPS   H3X  485   5.120   3.164   9.979 -0.5566 -0.2881 -0.0275
    4SAPS   H3Y  486   4.970   3.129  10.050  0.5212  1.4126 -0.2164
    4SAPS   C34  487   4.955   3.171   9.838 -0.2457 -0.2668  0.2972
    4SAPS   H4X  488   4.951   3.281   9.851  0.4852 -0.1792 -0.1599
    4SAPS   H4Y  489   4.856   3.121   9.825 -0.3654  0.2487 -0.9309
    4SAPS   C35  490   5.027   3.148   9.697 -1.0689 -0.0715 -0.9142
    4SAPS   H5X  491   5.040   3.039   9.678  0.2032 -0.2600  0.8065
    4SAPS   H5Y  492   5.131   3.187   9.702 -1.1537  0.2133 -1.3131
    4SAPS   C36  493   4.956   3.207   9.569 -0.2778 -0.4238  0.1524
    4SAPS   H6X  494   4.969   3.317   9.576  1.0816 -0.6053  0.9425
    4SAPS   H6Y  495   4.851   3.173   9.572 -0.5521  0.2185 -1.3271
    4SAPS   C37  496   5.033   3.171   9.439  0.2085  0.2392 -0.8215
    4SAPS   H7X  497   5.034   3.061   9.422 -0.5797 -0.2310  1.7813
    4SAPS   H7Y  498   5.132   3.221   9.444 -0.1413  0.9657 -0.9760
    4SAPS   C38  499   4.970   3.235   9.312  0.2104 -0.1154 -0.2453
    4SAPS   H8X  500   4.968   3.345   9.321  1.9730 -0.0101 -0.7759
    4SAPS   H8Y  501   4.865   3.203   9.294 -0.8266  1.9061  1.7317
    4SAPS   C39  502   5.034   3.193   9.180 -0.1849  0.1699  0.5703
    4SAPS   H9X  503   5.035   3.082   9.172 -0.2899  0.1794  0.4113
    4SAPS   H9Y  504   5.143   3.210   9.177 -0.0910 -0.5076 -1.7145
    4SAPS  C310  505   4.968   3.267   9.060 -0.3251 -0.2670 -0.2098
    4SAPS  H10X  506   4.965   3.373   9.094 -1.4428 -0.3437 -0.0428
    4SAPS  H10Y  507   4.866   3.231   9.033 -0.1449 -0.5167 -0.5670
    4SAPS  C311  508   5.055   3.264   8.936 -0.2932 -0.7313  0.2985
    4SAPS  H11X  509   5.090   3.159   8.949 -0.8059 -1.0763 -1.0226
    4SAPS  H11Y  510   5.145   3.329   8.932  1.0634 -2.5752 -1.0286
    4SAPS  C312  511   4.973   3.297   8.809  1.0041  0.5033 -0.7922
    4SAPS  H12X  512   5.034   3.295   8.717  0.6534 -4.2679 -1.2065
    4SAPS  H12Y  513   4.917   3.390   8.830  1.8372  0.9732 -0.6117
    4SAPS  C313  514   4.883   3.178   8.776 -0.1123 -0.4112 -0.2378
    4SAPS  H13X  515   4.797   3.167   8.845 -0.9703 -1.7176 -1.4531
    4SAPS  H13Y  516   4.939   3.085   8.800  0.6017  0.3807  1.3043
    4SAPS  C314  517   4.828   3.183   8.634  0.4356 -0.1495  0.5434
    4SAPS  H14X  518   4.913   3.184   8.562  0.5302  1.3182  0.6439
    4SAPS  H14Y  519   4.751   3.259   8.611  1.0546 -0.6177 -3.8906
    4SAPS  C315  520   4.740   3.059   8.599 -0.3633 -0.2811  0.1193
    4SAPS  H15X  521   4.713   3.069   8.491  1.2635  0.6727 -0.2282
    4SAPS  H15Y  522   4.649   3.062   8.662  0.9841 -0.4934  2.1747
    4SAPS  C316  523   4.822   2.931   8.613  0.3809 -0.4369 -0.0597
    4SAPS  H16X  524   4.873   2.916   8.710 -0.1784  0.8654  0.4575
    4SAPS  H16Y  525   4.907   2.940   8.541  1.3968  1.3584  1.2528
    4SAPS  C317  526   4.742   2.808   8.578 -0.1023 -0.0813  0.1128
    4SAPS  H17X  527   4.716   2.824   8.471  2.7640 -0.6776 -0.7577
    4SAPS  H17Y  528   4.649   2.800   8.639  0.3009 -0.6886  0.6579
    4SAPS  C318  529   4.827   2.688   8.591  0.0119  0.0141  0.0713
    4SAPS  H18X  530   4.917   2.702   8.528 -0.3830  1.7098 -0.1763
    4SAPS  H18Y  531   4.770   2.595   8.570  0.8445 -0.1016 -1.8946
    4SAPS  H18Z  532   4.871   2.683   8.693  0.2045 -1.0481 -0.0582
    5SAPS     N  533   2.772   3.638  11.077  0.0295 -0.1456 -0.3716
    5SAPS   HN1  534   2.755   3.696  10.992 -2.8908  0.6208  0.6077
    5SAPS   HN2  535   2.742   3.542  11.051 -0.7809 -0.0441  0.1741
    5SAPS   HN3  536   2.713   3.687  11.148  0.3692  0.1243 -0.2709
    5SAPS   C12  537   2.909   3.634  11.121  0.6868 -0.0656  0.7237
    5SAPS  H12A  538   2.922   3.733  11.162 -0.9983  0.1470  0.8211
    5SAPS   C13  539   2.922   3.538  11.240  0.1113 -1.4100  0.1586
    5SAPS  O13A  540   2.825   3.468  11.282 -0.3146 -0.8703  0.5294
    5SAPS  O13B  541   3.035   3.532  11.290 -0.8315 -0.4465  0.3956
    5SAPS   C11  542   2.999   3.596  10.996  0.2860 -0.6386 -0.5991
    5SAPS  H11A  543   2.960   3.502  10.950 -0.9123 -0.6052  0.2985
    5SAPS  H11B  544   3.102   3.586  11.036  0.2449  0.8292 -0.0734
    5SAPS     P  545   3.046   3.695  10.764 -0.1997 -0.4369  0.3833
    5SAPS   O13  546   3.001   3.816  10.692 -0.6376 -0.0983  0.1274
    5SAPS   O14  547   3.192   3.670  10.770 -0.2948  0.0349  0.4377
    5SAPS   O12  548   2.991   3.708  10.906  0.3802  0.5268 -0.5578
    5SAPS   O11  549   2.974   3.570  10.704  0.5681 -0.4957  0.0673
    5SAPS    C1  550   2.837   3.587  10.682 -0.1913  0.1306  0.5614
    5SAPS    HA  551   2.779   3.523  10.752  1.0510  0.6139  2.1083
    5SAPS    HB  552   2.791   3.689  10.682 -1.1514 -0.2533 -1.6877
    5SAPS    C2  553   2.797   3.530  10.548 -0.3382  0.1211  0.1000
    5SAPS    HS  554   2.816   3.421  10.541  2.4390  0.4298  1.3987
    5SAPS   O21  555   2.854   3.609  10.439  0.0784  0.2545 -0.1096
    5SAPS   C21  556   2.916   3.543  10.347  0.3074  0.3408 -0.5625
    5SAPS   O22  557   2.926   3.418  10.341  0.5140  0.0976  0.3410
    5SAPS   C22  558   2.963   3.643  10.246 -1.0546  0.1749  0.1019
    5SAPS   H2R  559   2.876   3.698  10.205 -0.2665 -0.9411 -3.3665
    5SAPS   H2S  560   3.022   3.718  10.304  0.7186  0.2940 -1.7385
    5SAPS    C3  561   2.643   3.534  10.532  0.4973 -0.1048  0.0157
    5SAPS    HX  562   2.611   3.636  10.564  0.9911  0.0472  0.0375
    5SAPS    HY  563   2.609   3.463  10.610  0.7230  0.1598  0.3577
    5SAPS   O31  564   2.593   3.505  10.399 -0.6112  0.4861 -0.0430
    5SAPS   C31  565   2.576   3.602  10.312 -0.4507  0.5855  0.3441
    5SAPS   O32  566   2.621   3.718  10.321  0.1766  0.0878  0.4555
    5SAPS   C32  567   2.514   3.546  10.185  0.0837 -0.6005 -0.8124
    5SAPS   H2X  568   2.404   3.544  10.199 -0.1512 -0.3316 -2.3997
    5SAPS   H2Y  569   2.549   3.442  10.171  0.4707 -1.0284  2.6036
    5SAPS   C23  570   3.048   3.588  10.119 -0.1665 -0.1001  0.0414
    5SAPS   H3R  571   2.992   3.505  10.072  0.6510 -0.4553 -0.3182
    5SAPS   H3S  572   3.142   3.544  10.157 -0.2598 -0.4647 -0.1491
    5SAPS   C24  573   3.069   3.700  10.019  0.2749  0.1828  0.9163
    5SAPS   H4R  574   3.123   3.775  10.080  0.0109 -0.8091  2.4224
    5SAPS   H4S  575   2.975   3.753   9.991 -0.2728 -0.6516  1.1396
    5SAPS   C25  576   3.146   3.641   9.899 -0.0209 -0.6142  0.2976
    5SAPS   H5R  577   3.214   3.557   9.915  0.9261 -0.0957 -0.8807
    5SAPS   C26  578   3.146   3.680   9.770  0.3928  0.0552  0.0684
    5SAPS   H6R  579   3.218   3.632   9.702  1.5407 -1.2479  2.1080
    5SAPS   C27  580   3.064   3.790   9.704  0.3638 -0.4592  0.4258
    5SAPS   H7R  581   2.997   3.831   9.782  0.8020 -0.3312  0.7396
    5SAPS   H7S  582   2.999   3.758   9.620  2.9558 -1.1491 -1.4579
    5SAPS   C28  583   3.161   3.881   9.653  0.2955 -0.4634  0.7094
    5SAPS   H8R  584   3.211   3.944   9.727  0.5854  0.0810  0.0604
    5SAPS   C29  585   3.164   3.918   9.522  0.1062 -0.5518 -0.4286
    5SAPS   H9R  586   3.234   3.999   9.498 -1.7163  2.2800  2.8636
    5SAPS  C210  587   3.082   3.873   9.403 -0.3585  0.3690  0.7153
    5SAPS  H10R  588   3.102   3.928   9.309  0.5045 -1.6958 -0.3694
    5SAPS  H10S  589   2.973   3.881   9.424 -0.4578 -0.8284  0.7528
    5SAPS  C211  590   3.092   3.730   9.365  0.0615 -0.3058  0.4428
    5SAPS  H11R  591   3.078   3.660   9.449 -0.0028 -1.1695 -0.2664
    5SAPS  C212  592   3.100   3.676   9.236  0.2704  0.2380 -0.0593
    5SAPS  H12R  593   3.110   3.568   9.217  0.4975  0.3043 -0.3259
    5SAPS  C213  594   3.101   3.754   9.106  0.3554 -0.7111 -0.4505
    5SAPS  H13R  595   3.033   3.841   9.112  2.0119  0.6492 -0.7691
    5SAPS  H13S  596   3.039   3.700   9.031 -3.4856  2.0792  0.4338
    5SAPS  C214  597   3.237   3.787   9.049  0.5705 -0.2142 -0.0427
    5SAPS  H14R  598   3.293   3.863   9.106  0.2516  1.7261 -2.1507
    5SAPS  C215  599   3.301   3.714   8.953 -0.3686 -0.7771  0.0847
    5SAPS  H15R  600   3.404   3.739   8.923 -1.0765  1.0575 -0.9520
    5SAPS  C216  601   3.248   3.591   8.879 -0.3606  0.4753 -0.0721
    5SAPS  H16R  602   3.157   3.556   8.932  0.2028  0.0576  0.6344
    5SAPS  H16S  603   3.318   3.505   8.873 -0.1044  0.4756  2.0957
    5SAPS  C217  604   3.213   3.598   8.720  0.2690  0.2245  0.5332
    5SAPS  H17R  605   3.312   3.606   8.669 -0.1358  1.1693 -0.1396
    5SAPS  H17S  606   3.160   3.695   8.707 -2.6511 -1.2832  0.3798
    5SAPS  C218  607   3.129   3.484   8.658  0.1609  0.2794 -0.1573
    5SAPS  H18R  608   3.145   3.492   8.548  1.7222  1.3821  0.1295
    5SAPS  H18S  609   3.172   3.386   8.690 -0.5733  0.2740  0.8685
    5SAPS  C219  610   2.976   3.495   8.682  0.8826 -0.8635 -0.7374
    5SAPS  H19R  611   2.932   3.583   8.631 -1.1374 -1.7526 -0.6085
    5SAPS  H19S  612   2.964   3.499   8.792  0.3139  0.8324 -0.8357
    5SAPS  C220  613   2.897   3.372   8.632 -0.3839 -0.6523  0.0775
    5SAPS  H20R  614   2.809   3.352   8.697 -0.7995  0.3500 -0.1677
    5SAPS  H20S  615   2.963   3.282   8.639  0.6185 -0.1448 -2.0631
    5SAPS  H20T  616   2.874   3.375   8.523 -3.8441  3.9270  0.6557
    5SAPS   C33  617   2.538   3.629  10.057  0.6907  0.1087 -0.3380
    5SAPS   H3X  618   2.522   3.738  10.067  0.8015 -0.0926  2.8422
    5SAPS   H3Y  619   2.459   3.592   9.987 -1.2499 -1.6289  2.5714
    5SAPS   C34  620   2.676   3.609   9.999 -0.3133  0.5558  0.1803
    5SAPS   H4X  621   2.708   3.510   9.962  1.8116  1.1405  0.3027
    5SAPS   H4Y  622   2.747   3.620  10.084  2.0599 -0.1759 -1.5927
    5SAPS   C35  623   2.717   3.689   9.877 -0.2418 -0.4331 -0.9182
    5SAPS   H5X  624   2.820   3.655   9.855  0.9355  1.9334  0.5291
    5SAPS   H5Y  625   2.715   3.799   9.892 -0.4475 -0.3447 -1.5546
    5SAPS   C36  626   2.637   3.667   9.749  0.1549  0.6113  0.4497
    5SAPS   H6X  627   2.530   3.682   9.775  0.3135 -0.5883  1.9451
    5SAPS   H6Y  628   2.667   3.563   9.724  0.2001  0.0384  2.6204
    5SAPS   C37  629   2.686   3.770   9.651 -0.4759  0.2892  0.3188
    5SAPS   H7X  630   2.795   3.750   9.638 -0.5017  1.5856 -3.2065
    5SAPS   H7Y  631   2.667   3.871   9.694  0.9863  0.1890  1.2629
    5SAPS   C38  632   2.634   3.754   9.509  0.0123  0.3985  0.2366
    5SAPS   H8X  633   2.643   3.852   9.459  3.8118  0.3420  0.5313
    5SAPS   H8Y  634   2.531   3.723   9.537  0.9459  0.3567  4.3180
    5SAPS   C39  635   2.706   3.648   9.427  0.1593  0.5257  0.0750
    5SAPS   H9X  636   2.709   3.555   9.487  1.2176  0.8095  0.4903
    5SAPS   H9Y  637   2.814   3.668   9.411  0.9677 -0.8282  3.1386
    5SAPS  C310  638   2.637   3.613   9.287 -0.2006  0.2025  0.1992
    5SAPS  H10X  639   2.527   3.622   9.284 -0.5235 -2.7430 -1.5377
    5SAPS  H10Y  640   2.665   3.506   9.269 -0.3232 -0.2021  2.1875
    5SAPS  C311  641   2.699   3.704   9.172  0.1787  0.1984  0.1982
    5SAPS  H11X  642   2.801   3.673   9.141 -0.7054 -1.0480 -1.6138
    5SAPS  H11Y  643   2.711   3.813   9.188  0.6348  0.4147 -1.4315
    5SAPS  C312  644   2.612   3.701   9.043 -0.1521 -0.2697  0.2196
    5SAPS  H12X  645   2.515   3.752   9.055 -0.8837 -1.1944 -1.4032
    5SAPS  H12Y  646   2.600   3.592   9.024  1.0125 -0.0240 -2.4045
    5SAPS  C313  647   2.682   3.775   8.921 -0.1891  0.0886 -0.3635
    5SAPS  H13X  648   2.623   3.736   8.835 -1.0658  0.7543 -0.0834
    5SAPS  H13Y  649   2.786   3.738   8.905 -0.6982 -1.9773  0.7942
    5SAPS  C314  650   2.678   3.926   8.925  0.5439  1.3350  0.3860
    5SAPS  H14X  651   2.696   3.979   9.021  0.5970  1.5442  0.2613
    5SAPS  H14Y  652   2.575   3.949   8.891  0.7322  1.0939 -0.3725
    5SAPS  C315  653   2.762   3.995   8.813  0.2940  0.0256  0.0192
    5SAPS  H15X  654   2.739   4.102   8.833  0.3599 -0.1970  1.3090
    5SAPS  H15Y  655   2.731   3.977   8.708  0.0166  2.8156 -0.4569
    5SAPS  C316  656   2.913   3.961   8.820 -1.3241 -0.4110 -0.2265
    5SAPS  H16X  657   2.913   3.857   8.779 -0.0447 -0.9632  1.1098
    5SAPS  H16Y  658   2.941   3.946   8.926  2.0633  1.5601 -0.7112
    5SAPS  C317  659   3.019   4.055   8.766  0.5001  0.2163 -0.2402
    5SAPS  H17X  660   3.028   4.145   8.830  0.7186 -1.5312  2.3097
    5SAPS  H17Y  661   2.996   4.093   8.664  1.6897  0.7768 -0.3155
    5SAPS  C318  662   3.158   3.982   8.759  0.1764 -0.7572  0.3220
    5SAPS  H18X  663   3.181   3.924   8.850 -1.4070 -1.7580  0.1282
    5SAPS  H18Y  664   3.239   4.056   8.742  2.1306 -2.6425  0.9320
    5SAPS  H18Z  665   3.149   3.907   8.678 -0.3395 -0.2428 -0.1045
    6SAPS     N  666   0.106   1.067  10.716 -0.0363 -0.2839  0.1095
    6SAPS   HN1  667   0.185   1.132  10.700 -0.2313 -0.4785 -1.9171
    6SAPS   HN2  668   0.144   0.980  10.758  1.6716  0.2322 -0.2730
    6SAPS   HN3  669   0.057   1.047  10.626 -1.3721 -2.9902  1.3190
    6SAPS   C12  670   0.013   1.142  10.807 -0.1534  0.4255 -0.5869
    6SAPS  H12A  671  -0.088   1.109  10.786 -0.3734  1.3503 -1.0081
    6SAPS   C13  672   0.042   1.131  10.960 -0.6043 -0.0597 -0.1899
    6SAPS  O13A  673   0.155   1.085  10.997 -0.0389  0.5697  0.2450
    6SAPS  O13B  674  -0.034   1.178  11.049 -0.7224 -0.3765  0.4925
    6SAPS   C11  675   0.041   1.287  10.777  0.3587 -0.6987 -0.3947
    6SAPS  H11A  676   0.146   1.307  10.810  0.4842 -0.7804 -0.7380
    6SAPS  H11B  677  -0.032   1.342  10.841  1.0152  0.2488 -0.4402
    6SAPS     P  678   0.019   1.467  10.598  0.1358  0.1528 -0.5488
    6SAPS   O13  679  -0.103   1.527  10.652 -0.3343 -0.7820  0.1678
    6SAPS   O14  680   0.151   1.523  10.643  0.4925 -0.4176 -0.2282
    6SAPS   O12  681   0.015   1.309  10.635 -0.6025 -0.7070  0.3010
    6SAPS   O11  682   0.008   1.457  10.450  0.1020 -0.3137 -0.1701
    6SAPS    C1  683   0.090   1.377  10.366  0.6783  0.7185  0.3493
    6SAPS    HA  684   0.120   1.282  10.416  2.1556  0.0936 -1.6121
    6SAPS    HB  685   0.034   1.356  10.272  1.9983 -0.9004 -0.1096
    6SAPS    C2  686   0.213   1.453  10.304  0.2669  0.1321 -0.4567
    6SAPS    HS  687   0.281   1.468  10.390 -2.9050 -0.3142  2.3228
    6SAPS   O21  688   0.153   1.575  10.256 -0.1070  0.4903  0.0919
    6SAPS   C21  689   0.247   1.655  10.208 -0.2464 -0.1857 -0.0626
    6SAPS   O22  690   0.367   1.645  10.223  0.0819 -0.3016  0.0419
    6SAPS   C22  691   0.174   1.762  10.121  0.2084  0.2927  0.2274
    6SAPS   H2R  692   0.103   1.710  10.053  0.5939 -0.9262  0.7188
    6SAPS   H2S  693   0.126   1.829  10.196  0.9635 -1.1187  2.0515
    6SAPS    C3  694   0.268   1.370  10.182  0.1400 -0.1028 -0.6005
    6SAPS    HX  695   0.309   1.282  10.236  1.4761  0.4170 -0.7437
    6SAPS    HY  696   0.357   1.418  10.136  0.6374 -0.9557 -0.5571
    6SAPS   O31  697   0.170   1.327  10.085  0.1955  0.2326  0.0076
    6SAPS   C31  698   0.177   1.397   9.972 -0.6013 -0.2526  0.8072
    6SAPS   O32  699   0.251   1.491   9.950 -0.1869 -0.0491 -0.1659
    6SAPS   C32  700   0.096   1.310   9.869  0.1805 -0.1338 -0.2725
    6SAPS   H2X  701  -0.007   1.298   9.909  0.7805  0.9062  1.7401
    6SAPS   H2Y  702   0.152   1.215   9.858  0.2907 -0.1192  0.1225
    6SAPS   C23  703   0.279   1.836  10.047  0.0951 -0.5737 -0.4494
    6SAPS   H3R  704   0.309   1.773   9.961 -0.6969 -0.7034 -0.6378
    6SAPS   H3S  705   0.368   1.862  10.109 -0.6026  1.0531 -0.0627
    6SAPS   C24  706   0.222   1.959   9.984  0.4194 -0.8095 -1.0287
    6SAPS   H4R  707   0.188   2.027  10.066 -0.4521 -0.6836 -1.4763
    6SAPS   H4S  708   0.129   1.936   9.928 -1.2084  0.6272  0.9254
    6SAPS   C25  709   0.318   2.047   9.898  1.2168  0.0578 -0.2851
    6SAPS   H5R  710   0.372   2.108   9.972 -1.6382 -0.7573  2.6952
    6SAPS   C26  711   0.313   2.063   9.760  0.5869  0.4125  0.0335
    6SAPS   H6R  712   0.387   2.130   9.714  0.2256  1.0509  0.3756
    6SAPS   C27  713   0.228   2.000   9.654 -0.5317  0.1230 -0.7915
    6SAPS   H7R  714   0.216   2.064   9.564  0.0235  2.8839  0.9947
    6SAPS   H7S  715   0.133   1.999   9.713  0.3417 -1.7479  0.7028
    6SAPS   C28  716   0.258   1.859   9.614  0.1439 -0.3759  0.9277
    6SAPS   H8R  717   0.309   1.806   9.696 -1.0889 -1.9569  0.7116
    6SAPS   C29  718   0.237   1.800   9.496 -0.5433 -0.0433 -0.0305
    6SAPS   H9R  719   0.282   1.701   9.480  0.3176 -0.3322  3.4339
    6SAPS  C210  720   0.179   1.869   9.373  0.3498  0.2645  0.4004
    6SAPS  H10R  721   0.095   1.934   9.407  0.4813  1.4358 -1.4023
    6SAPS  H10S  722   0.142   1.794   9.300 -0.7134  0.6586  0.5069
    6SAPS  C211  723   0.276   1.956   9.296  0.2134  0.0003  0.2933
    6SAPS  H11R  724   0.355   1.998   9.360  0.3892 -1.7826  1.3149
    6SAPS  C212  725   0.268   1.986   9.162 -0.1550  0.5982 -0.1740
    6SAPS  H12R  726   0.344   2.054   9.120  0.9547 -1.1147 -1.1155
    6SAPS  C213  727   0.165   1.934   9.071 -0.0229 -0.1589  0.1958
    6SAPS  H13R  728   0.130   2.021   9.010  0.5862  0.6802  1.0246
    6SAPS  H13S  729   0.080   1.888   9.125 -0.6086 -1.8503 -2.0143
    6SAPS  C214  730   0.232   1.829   8.984  0.8118 -0.5407  0.8050
    6SAPS  H14R  731   0.297   1.761   9.042  0.9201 -0.2413  1.0322
    6SAPS  C215  732   0.227   1.817   8.852  0.0878 -0.3492 -0.5952
    6SAPS  H15R  733   0.275   1.729   8.805 -2.3928 -0.3370 -3.4017
    6SAPS  C216  734   0.151   1.915   8.759  0.6376  0.4732  0.3970
    6SAPS  H16R  735   0.100   2.000   8.810  0.2615  0.1017  0.6517
    6SAPS  H16S  736   0.064   1.863   8.713 -0.1093  2.4585 -0.5403
    6SAPS  C217  737   0.246   1.987   8.653 -0.2855  1.4261 -0.1773
    6SAPS  H17R  738   0.189   2.049   8.581  0.7316  1.3680 -1.0626
    6SAPS  H17S  739   0.291   1.906   8.593 -3.0338 -1.0331  0.8342
    6SAPS  C218  740   0.361   2.062   8.720  0.5782 -0.2007 -0.4843
    6SAPS  H18R  741   0.440   1.986   8.737  1.4068  0.7450  0.0272
    6SAPS  H18S  742   0.321   2.102   8.816  0.6068  1.9767 -1.3246
    6SAPS  C219  743   0.416   2.187   8.654  0.2822 -0.4011  0.1841
    6SAPS  H19R  744   0.477   2.239   8.730  0.9544 -0.5627 -0.2405
    6SAPS  H19S  745   0.331   2.254   8.630 -0.9368 -1.8784  0.1929
    6SAPS  C220  746   0.502   2.159   8.523 -0.2041 -0.3412  0.5584
    6SAPS  H20R  747   0.539   2.253   8.477 -2.0514 -0.0016 -0.3159
    6SAPS  H20S  748   0.432   2.116   8.448 -0.9326 -0.0245  1.0470
    6SAPS  H20T  749   0.589   2.092   8.541 -0.1077 -0.1752  0.7184
    6SAPS   C33  750   0.092   1.373   9.727  0.2022  0.1934  0.3478
    6SAPS   H3X  751   0.200   1.389   9.702 -0.0015  0.5885 -0.3120
    6SAPS   H3Y  752   0.040   1.471   9.730  1.3964  0.9434 -1.5665
    6SAPS   C34  753   0.020   1.282   9.621  0.7360  0.0830  1.1770
    6SAPS   H4X  754  -0.088   1.264   9.641  0.6536 -1.1452 -0.2211
    6SAPS   H4Y  755   0.067   1.182   9.619 -1.6338 -1.0847  0.4209
    6SAPS   C35  756   0.028   1.339   9.477 -0.0268 -0.3485  0.4425
    6SAPS   H5X  757  -0.010   1.443   9.488  1.8546  0.1434  3.2265
    6SAPS   H5Y  758  -0.036   1.286   9.402 -2.3106  1.2140  1.1657
    6SAPS   C36  759   0.172   1.344   9.427 -0.0436 -0.0888 -0.2405
    6SAPS   H6X  760   0.217   1.243   9.437 -1.1187 -0.4443  1.5237
    6SAPS   H6Y  761   0.230   1.403   9.502 -0.4707 -0.7211  0.6102
    6SAPS   C37  762   0.196   1.410   9.291 -0.6183  0.4859 -0.3345
    6SAPS   H7X  763   0.307   1.411   9.288 -0.4973  0.8464  2.2124
    6SAPS   H7Y  764   0.174   1.519   9.294  1.6621  0.9914 -0.1302
    6SAPS   C38  765   0.145   1.333   9.168 -0.0458  0.0484 -0.6412
    6SAPS   H8X  766   0.034   1.323   9.172  0.1235 -2.3625  0.1547
    6SAPS   H8Y  767   0.194   1.236   9.193 -0.2623  0.2470  0.6417
    6SAPS   C39  768   0.188   1.381   9.032 -0.5465 -0.2073  0.3383
    6SAPS   H9X  769   0.296   1.410   9.036 -0.3951  0.0896 -2.9842
    6SAPS   H9Y  770   0.137   1.475   9.004  0.3255 -0.0883 -0.9563
    6SAPS  C310  771   0.179   1.270   8.926  0.3341 -0.2397 -0.4224
    6SAPS  H10X  772   0.074   1.237   8.935 -0.7265  3.2074  2.4742
    6SAPS  H10Y  773   0.250   1.189   8.954  3.1471  2.8766  2.4930
    6SAPS  C311  774   0.208   1.333   8.791  0.1150 -0.2385  0.1953
    6SAPS  H11X  775   0.309   1.377   8.807 -0.2050 -0.1008  2.1768
    6SAPS  H11Y  776   0.143   1.419   8.764 -1.4185 -1.1139  0.9882
    6SAPS  C312  777   0.210   1.228   8.676  0.4633 -0.3216  0.2832
    6SAPS  H12X  778   0.260   1.130   8.689 -2.2903 -1.7703  0.7427
    6SAPS  H12Y  779   0.271   1.276   8.596 -0.4133 -0.7796 -0.6914
    6SAPS  C313  780   0.068   1.187   8.624  0.2849 -0.8133 -0.4331
    6SAPS  H13X  781   0.031   1.285   8.587  1.2583 -0.6927 -1.1396
    6SAPS  H13Y  782   0.012   1.152   8.713 -1.7754 -1.3757 -1.9011
    6SAPS  C314  783   0.073   1.081   8.514 -0.4459  0.3767 -0.0870
    6SAPS  H14X  784  -0.029   1.042   8.495 -0.9730  1.1000  1.1388
    6SAPS  H14Y  785   0.141   0.997   8.539 -1.8579 -0.5345  0.7906
    6SAPS  C315  786   0.110   1.141   8.374 -0.3391  0.2715  0.1165
    6SAPS  H15X  787   0.211   1.187   8.378 -0.2577  0.0838  0.2475
    6SAPS  H15Y  788   0.040   1.225   8.355 -0.7685 -0.2920 -0.9025
    6SAPS  C316  789   0.106   1.044   8.258 -0.6739 -0.5950  0.4139
    6SAPS  H16X  790   0.011   0.987   8.258 -0.3428 -1.1911 -1.4056
    6SAPS  H16Y  791   0.191   0.972   8.266  0.7492  0.6053 -2.3435
    6SAPS  C317  792   0.123   1.114   8.120  0.4228 -0.3422 -0.1348
    6SAPS  H17X  793   0.136   1.028   8.050  0.6398 -0.8950  0.5690
    6SAPS  H17Y  794   0.217   1.173   8.121 -1.6567  3.2710  0.3966
    6SAPS  C318  795   0.008   1.204   8.061 -0.1338 -0.1251 -0.1516
    6SAPS  H18X  796  -0.000   1.292   8.127  0.8579  0.7684 -1.1898
    6SAPS  H18Y  797  -0.090   1.151   8.071  0.2891 -0.4610  4.2803
    6SAPS  H18Z  798   0.050   1.230   7.961  0.6527  0.4143  0.3121
    7SAPS     N  799   6.665   5.299  10.692 -0.1459  0.4680 -0.2957
    7SAPS   HN1  800   6.744   5.236  10.668  0.8410  1.5731 -0.0089
    7SAPS   HN2  801   6.573   5.251  10.703  0.0886  0.0070 -0.3400
    7SAPS   HN3  802   6.644   5.365  10.615 -0.5372 -0.8285 -1.3470
    7SAPS   C12  803   6.701   5.380  10.814 -0.3754 -0.6804  0.3278
    7SAPS  H12A  804   6.654   5.476  10.804 -0.0720 -0.0558  3.5913
    7SAPS   C13  805   6.645   5.334  10.959 -0.2532  0.4370  0.0512
    7SAPS  O13A  806   6.588   5.221  10.965 -0.0287  0.2688  0.0898
    7SAPS  O13B  807   6.656   5.406  11.057 -0.0825  0.1519 -0.7275
    7SAPS   C11  808   6.865   5.399  10.813  0.3131 -0.0009 -0.5388
    7SAPS  H11A  809   6.913   5.312  10.864  1.7588  1.9901  1.6575
    7SAPS  H11B  810   6.889   5.489  10.872  0.7143 -0.5370  0.1259
    7SAPS     P  811   7.025   5.520  10.638 -0.0125  0.0805  0.1909
    7SAPS   O13  812   7.153   5.467  10.682  0.1420 -0.0146  0.7175
    7SAPS   O14  813   7.004   5.546  10.497 -0.1770 -0.4352 -0.2674
    7SAPS   O12  814   6.912   5.416  10.684 -0.4480 -0.0678  0.8461
    7SAPS   O11  815   6.996   5.647  10.725  0.4491  0.4597 -0.2154
    7SAPS    C1  816   6.874   5.722  10.715  0.1684 -0.4921  0.1962
    7SAPS    HA  817   6.793   5.666  10.663 -1.5976  2.9216 -1.0228
    7SAPS    HB  818   6.837   5.745  10.817 -2.4902 -0.6567 -0.6624
    7SAPS    C2  819   6.893   5.856  10.639 -0.8155  0.6501 -0.2744
    7SAPS    HS  820   6.798   5.911  10.652 -1.0777 -0.0630  0.8371
    7SAPS   O21  821   6.895   5.827  10.499  0.3843 -0.1924 -0.1927
    7SAPS   C21  822   6.791   5.784  10.430 -0.1925  0.0599 -0.6626
    7SAPS   O22  823   6.675   5.769  10.470 -0.0922  0.4992 -0.1069
    7SAPS   C22  824   6.838   5.772  10.282 -0.1421  0.3068 -0.3394
    7SAPS   H2R  825   6.926   5.839  10.268 -2.1238  2.9761 -0.7628
    7SAPS   H2S  826   6.865   5.666  10.265  0.2917  0.2261  0.8009
    7SAPS    C3  827   7.015   5.945  10.681  0.4160 -0.6996 -0.1404
    7SAPS    HX  828   7.107   5.885  10.697  0.3949 -0.3687  1.3573
    7SAPS    HY  829   6.991   5.993  10.778 -0.9511 -2.3528  0.3860
    7SAPS   O31  830   7.027   6.066  10.598 -0.3720  0.2553  0.2962
    7SAPS   C31  831   7.117   6.051  10.496 -0.1678  0.5100 -0.0443
    7SAPS   O32  832   7.171   5.949  10.465 -0.0927 -0.2068 -0.0795
    7SAPS   C32  833   7.171   6.185  10.447  0.0714 -1.4939 -0.4786
    7SAPS   H2X  834   7.253   6.171  10.374 -1.7369 -0.6473 -2.8287
    7SAPS   H2Y  835   7.211   6.228  10.541 -0.1806 -1.0177 -0.5883
    7SAPS   C23  836   6.730   5.797  10.178  0.2781 -0.2469  0.4871
    7SAPS   H3R  837   6.742   5.903  10.149  1.2404  0.2444  2.4648
    7SAPS   H3S  838   6.628   5.785  10.221  0.1438 -0.3138  0.1483
    7SAPS   C24  839   6.730   5.699  10.054 -0.2777  0.1463  0.4576
    7SAPS   H4R  840   6.699   5.597  10.087  0.1404 -0.3634 -0.6594
    7SAPS   H4S  841   6.832   5.682  10.013  0.0173  0.6335  0.9857
    7SAPS   C25  842   6.639   5.750   9.946  0.0465 -0.1183 -0.1955
    7SAPS   H5R  843   6.664   5.852   9.912  0.6243 -0.8742 -2.1737
    7SAPS   C26  844   6.541   5.680   9.879 -0.3405  0.3258  0.2295
    7SAPS   H6R  845   6.477   5.728   9.804 -1.6767 -0.7210  0.6628
    7SAPS   C27  846   6.502   5.528   9.902  0.0892 -0.3585 -0.5972
    7SAPS   H7R  847   6.591   5.462   9.893 -1.6013 -2.7146 -0.8645
    7SAPS   H7S  848   6.436   5.505   9.816 -1.4638 -0.5669  0.5912
    7SAPS   C28  849   6.431   5.503  10.037  0.5665  0.3914  0.0201
    7SAPS   H8R  850   6.452   5.566  10.125 -1.5032  2.3225 -0.7755
    7SAPS   C29  851   6.350   5.398  10.066  0.1226  1.1911  0.2408
    7SAPS   H9R  852   6.309   5.397  10.169 -0.5678 -0.5107 -0.0236
    7SAPS  C210  853   6.313   5.290   9.965  0.1405  0.2341  0.3894
    7SAPS  H10R  854   6.375   5.200   9.987 -2.1697 -1.2481  1.1788
    7SAPS  H10S  855   6.332   5.317   9.859 -3.1828  0.2903 -0.2842
    7SAPS  C211  856   6.167   5.251   9.965  0.2119  0.0775  0.1093
    7SAPS  H11R  857   6.106   5.299  10.043  0.8280  2.3998 -0.7690
    7SAPS  C212  858   6.121   5.162   9.877  0.3750 -0.3906 -1.0864
    7SAPS  H12R  859   6.016   5.131   9.876  0.5891 -1.4183  1.0582
    7SAPS  C213  860   6.196   5.090   9.771  0.6956  0.3917  0.3487
    7SAPS  H13R  861   6.286   5.045   9.819 -0.1214  1.1045  2.7021
    7SAPS  H13S  862   6.236   5.163   9.697  2.6466 -0.2277  0.7432
    7SAPS  C214  863   6.110   4.981   9.709  0.1763  0.0233 -0.2286
    7SAPS  H14R  864   6.091   4.886   9.760  1.0543 -0.1220 -0.1585
    7SAPS  C215  865   6.052   4.987   9.586  0.3530  0.7560 -0.9769
    7SAPS  H15R  866   5.989   4.904   9.550 -0.4959  1.5447 -1.3642
    7SAPS  C216  867   6.047   5.109   9.495 -1.0053  0.3629  0.0541
    7SAPS  H16R  868   6.064   5.196   9.562  1.5251 -0.4058  0.5228
    7SAPS  H16S  869   5.961   5.123   9.426  1.1091 -0.9179 -3.1250
    7SAPS  C217  870   6.176   5.117   9.405  0.2011  0.3707 -0.6090
    7SAPS  H17R  871   6.259   5.085   9.471  0.1537  1.4373 -0.0178
    7SAPS  H17S  872   6.193   5.223   9.378 -2.2302  0.6031 -1.5211
    7SAPS  C218  873   6.183   5.034   9.275 -0.6525 -0.1368 -0.0571
    7SAPS  H18R  874   6.139   4.934   9.295 -1.7538  0.3557  0.0701
    7SAPS  H18S  875   6.288   5.031   9.241 -0.5998 -0.2738  0.1136
    7SAPS  C219  876   6.093   5.084   9.163 -0.3816 -0.0149  0.3719
    7SAPS  H19R  877   6.136   5.183   9.136 -2.1102  0.9474  1.0368
    7SAPS  H19S  878   5.984   5.084   9.181 -0.4198  0.5997  0.1715
    7SAPS  C220  879   6.112   5.006   9.044  0.5276 -0.3025  0.2929
    7SAPS  H20R  880   6.220   4.989   9.023  0.1669 -0.1865 -1.8529
    7SAPS  H20S  881   6.079   5.064   8.955  0.6342  0.8639  0.9991
    7SAPS  H20T  882   6.054   4.911   9.049  1.3981 -0.8317  0.6267
    7SAPS   C33  883   7.052   6.279  10.411 -0.1615  0.4195  0.2569
    7SAPS   H3X  884   7.099   6.379  10.399  1.0175 -0.0828  0.5577
    7SAPS   H3Y  885   6.983   6.278  10.498  0.5875  1.0993  0.8767
    7SAPS   C34  886   6.974   6.251  10.284  0.1345 -0.0999 -0.0322
    7SAPS   H4X  887   6.883   6.314  10.290 -1.1579 -1.7731 -1.0966
    7SAPS   H4Y  888   6.942   6.144  10.283  1.1032 -0.4350  1.6232
    7SAPS   C35  889   7.039   6.278  10.141 -0.8317  0.1194  1.0205
    7SAPS   H5X  890   7.095   6.372  10.159  0.2055 -0.8074  3.0542
    7SAPS   H5Y  891   6.970   6.275  10.055 -0.6267 -0.6228  0.8782
    7SAPS   C36  892   7.150   6.182  10.106 -0.4940 -0.1101  0.2444
    7SAPS   H6X  893   7.109   6.086  10.144 -0.9176 -0.0708 -0.1014
    7SAPS   H6Y  894   7.242   6.207  10.163  0.1176 -1.5334 -0.0793
    7SAPS   C37  895   7.180   6.178   9.958  0.2738 -0.7287 -0.0692
    7SAPS   H7X  896   7.209   6.283   9.937 -1.1175 -0.4358 -0.6135
    7SAPS   H7Y  897   7.086   6.158   9.902  0.8575 -0.3855 -1.2018
    7SAPS   C38  898   7.281   6.075   9.906 -0.1506 -0.1288  0.0310
    7SAPS   H8X  899   7.260   5.970   9.933  1.4159 -0.5916 -0.4597
    7SAPS   H8Y  900   7.381   6.106   9.943  0.0333 -0.0582 -0.5146
    7SAPS   C39  901   7.299   6.097   9.748  0.2459 -0.5036 -0.4749
    7SAPS   H9X  902   7.318   6.206   9.745 -2.5611  0.1094  0.8763
    7SAPS   H9Y  903   7.201   6.064   9.708 -0.1631 -0.2137  0.2815
    7SAPS  C310  904   7.415   6.018   9.691 -0.0697 -0.5613 -0.8268
    7SAPS  H10X  905   7.387   5.912   9.705  0.5900 -0.8541 -1.7090
    7SAPS  H10Y  906   7.510   6.039   9.743 -0.5278  0.6354 -0.4246
    7SAPS  C311  907   7.427   6.035   9.538 -0.4504 -0.2185 -0.6309
    7SAPS  H11X  908   7.460   6.136   9.507  0.9343 -0.1159  1.0499
    7SAPS  H11Y  909   7.324   6.033   9.496 -0.4793 -0.7532 -0.5489
    7SAPS  C312  910   7.517   5.922   9.485 -0.2006 -0.1177  0.4042
    7SAPS  H12X  911   7.499   5.827   9.541 -0.3443  0.4901  1.4180
    7SAPS  H12Y  912   7.619   5.960   9.507  0.9292 -2.4756 -0.3902
    7SAPS  C313  913   7.508   5.892   9.331 -0.4263  0.6702 -0.2494
    7SAPS  H13X  914   7.521   5.986   9.274  1.6356 -0.2017 -1.3386
    7SAPS  H13Y  915   7.421   5.828   9.305  0.2404 -0.9309  1.1861
    7SAPS  C314  916   7.618   5.795   9.283 -0.2647 -1.2370  0.3203
    7SAPS  H14X  917   7.604   5.698   9.335  1.3793 -2.0336 -0.6311
    7SAPS  H14Y  918   7.714   5.832   9.326 -0.8968  0.9632 -0.0384
    7SAPS  C315  919   7.625   5.753   9.134 -0.0169 -0.0770  0.7471
    7SAPS  H15X  920   7.607   5.841   9.068 -1.3347 -0.5121  0.4823
    7SAPS  H15Y  921   7.544   5.681   9.108  1.9559 -1.2561 -2.9388
    7SAPS  C316  922   7.748   5.671   9.091 -0.1105  0.5173  0.1223
    7SAPS  H16X  923   7.775   5.599   9.172  1.4926  0.0402 -0.8009
    7SAPS  H16Y  924   7.829   5.747   9.084  0.1773  0.2491  0.4641
    7SAPS  C317  925   7.732   5.608   8.953 -0.1502  0.2317  0.2940
    7SAPS  H17X  926   7.735   5.693   8.881  1.7227 -0.9327 -1.1128
    7SAPS  H17Y  927   7.629   5.569   8.936  1.1321 -2.5522 -1.9704
    7SAPS  C318  928   7.836   5.510   8.895  0.0915  1.1318 -1.0105
    7SAPS  H18X  929   7.816   5.471   8.794  0.8544 -3.7805  0.4723
    7SAPS  H18Y  930   7.831   5.421   8.961  1.9415  0.9762 -1.0179
    7SAPS  H18Z  931   7.940   5.546   8.912  0.3493 -0.0820  0.1165
    8SAPS     N  932   1.719   6.231  10.985 -0.2562  0.5105  0.2500
    8SAPS   HN1  933   1.660   6.193  10.908  0.4467  0.7428 -0.4121
    8SAPS   HN2  934   1.694   6.326  11.020  2.1243  1.0232  0.7268
    8SAPS   HN3  935   1.814   6.243  10.944 -1.7467 -0.0263 -3.7232
    8SAPS   C12  936   1.729   6.131  11.095  0.5046 -0.3919 -0.3299
    8SAPS  H12A  937   1.793   6.055  11.055  1.2795  0.0150  0.1196
    8SAPS   C13  938   1.800   6.171  11.230 -0.6294 -0.4715 -0.0756
    8SAPS  O13A  939   1.823   6.294  11.245  0.5004  0.3782 -0.0391
    8SAPS  O13B  940   1.799   6.096  11.330  0.2079 -0.0333 -0.2653
    8SAPS   C11  941   1.593   6.071  11.123  0.9387 -0.6293  0.0041
    8SAPS  H11A  942   1.519   6.148  11.154 -1.7367 -2.6623 -0.9425
    8SAPS  H11B  943   1.601   5.997  11.207  1.3556 -1.2117 -0.5378
    8SAPS     P  944   1.400   6.002  10.953 -0.3588 -0.0072 -0.1924
    8SAPS   O13  945   1.380   5.880  10.872  0.1470 -0.3970 -0.6023
    8SAPS   O14  946   1.312   6.024  11.069  0.3991  0.6046  0.0296
    8SAPS   O12  947   1.555   6.004  11.007 -0.5745 -0.0411  0.2303
    8SAPS   O11  948   1.400   6.137  10.867  0.6955 -0.0633  0.0745
    8SAPS    C1  949   1.274   6.210  10.854  0.0568 -1.1663 -0.2256
    8SAPS    HA  950   1.184   6.144  10.855  0.2931 -1.4931 -0.3960
    8SAPS    HB  951   1.257   6.280  10.939  1.4283  1.3027 -1.8792
    8SAPS    C2  952   1.267   6.293  10.714  0.5930 -0.1234 -0.0080
    8SAPS    HS  953   1.163   6.332  10.710  0.5299 -0.0681  1.5862
    8SAPS   O21  954   1.273   6.202  10.610  1.3563 -0.1797  0.7017
    8SAPS   C21  955   1.162   6.133  10.579  0.1297  0.6515 -0.0256
    8SAPS   O22  956   1.053   6.142  10.637 -0.9461  0.0459 -0.5074
    8SAPS   C22  957   1.192   6.051  10.454 -0.1252 -0.1451  0.1843
    8SAPS   H2R  958   1.207   6.118  10.366  0.2750 -1.4922 -0.8109
    8SAPS   H2S  959   1.281   5.986  10.467  0.8768  1.0244 -0.6039
    8SAPS    C3  960   1.380   6.402  10.704  0.4257  0.0560 -0.9663
    8SAPS    HX  961   1.471   6.347  10.736 -1.0110 -2.0404 -0.2864
    8SAPS    HY  962   1.362   6.473  10.788  2.0173 -0.4970 -0.1092
    8SAPS   O31  963   1.398   6.463  10.575  0.1769 -0.1141 -0.1333
    8SAPS   C31  964   1.484   6.402  10.488  0.0346 -0.1051 -0.0888
    8SAPS   O32  965   1.532   6.293  10.501  0.1866  0.6838 -0.2685
    8SAPS   C32  966   1.521   6.496  10.369  0.0142  0.2396  0.1244
    8SAPS   H2X  967   1.573   6.581  10.418  0.9867 -0.0835 -0.3230
    8SAPS   H2Y  968   1.429   6.531  10.317  2.1118  1.7516 -2.8524
    8SAPS   C23  969   1.076   5.964  10.396  0.3727 -0.3987 -0.6802
    8SAPS   H3R  970   0.992   6.030  10.366  0.7920 -0.0706 -1.1778
    8SAPS   H3S  971   1.041   5.900  10.479  1.7439 -1.4486 -0.8746
    8SAPS   C24  972   1.116   5.896  10.263 -0.6648 -0.2510 -0.3210
    8SAPS   H4R  973   1.142   5.986  10.203 -0.5780 -0.2086 -0.2208
    8SAPS   H4S  974   1.024   5.850  10.223 -0.6343  0.0012 -0.6956
    8SAPS   C25  975   1.230   5.799  10.271 -0.7343  0.2661 -0.0827
    8SAPS   H5R  976   1.214   5.719  10.345  0.2877 -1.2399 -1.4382
    8SAPS   C26  977   1.343   5.801  10.207 -0.2362 -0.2010  0.2533
    8SAPS   H6R  978   1.417   5.722  10.230 -1.1480 -0.2432  3.3470
    8SAPS   C27  979   1.385   5.899  10.096 -0.1312 -0.0157  0.5575
    8SAPS   H7R  980   1.315   5.985  10.102 -1.0111 -0.6601 -0.0718
    8SAPS   H7S  981   1.359   5.861   9.995  1.1840 -1.9967  0.9062
    8SAPS   C28  982   1.530   5.941  10.109 -0.3605  0.6143  0.3515
    8SAPS   H8R  983   1.563   5.966  10.211 -0.0868  0.8940  0.1944
    8SAPS   C29  984   1.610   5.959  10.007 -0.0803  0.6672  0.1709
    8SAPS   H9R  985   1.697   6.015  10.043 -0.6421  1.4367  0.3652
    8SAPS  C210  986   1.586   5.934   9.862  0.1879  0.3391  0.2065
    8SAPS  H10R  987   1.489   5.983   9.840 -0.6204 -0.5158  1.7579
    8SAPS  H10S  988   1.579   5.826   9.835  3.1421  0.2323 -0.4776
    8SAPS  C211  989   1.695   6.007   9.792 -0.5913  0.0235 -0.7302
    8SAPS  H11R  990   1.773   6.050   9.855 -0.7047 -1.2511  0.3273
    8SAPS  C212  991   1.711   6.013   9.661  0.5990 -0.2609  0.4216
    8SAPS  H12R  992   1.793   6.076   9.623  1.4401 -1.2263  0.5850
    8SAPS  C213  993   1.616   5.957   9.554 -0.1036 -0.0032 -0.3716
    8SAPS  H13R  994   1.531   6.027   9.538 -0.9819 -0.7118  1.0244
    8SAPS  H13S  995   1.576   5.858   9.583 -1.4416  0.5433 -0.2981
    8SAPS  C214  996   1.691   5.939   9.427 -0.1931 -0.4561  0.3748
    8SAPS  H14R  997   1.778   5.874   9.440  1.3072  1.4535  0.2989
    8SAPS  C215  998   1.671   5.988   9.304  0.6502 -0.1797 -0.1249
    8SAPS  H15R  999   1.745   5.961   9.227  0.7341  1.2903 -0.5973
    8SAPS  C216 1000   1.566   6.085   9.258  0.2586 -0.5863  0.8702
    8SAPS  H16R 1001   1.472   6.078   9.318  1.0819  0.3926  2.3489
    8SAPS  H16S 1002   1.531   6.064   9.155 -0.1117  0.3364  0.7987
    8SAPS  C217 1003   1.613   6.232   9.258  0.5926  0.2880  0.2853
    8SAPS  H17R 1004   1.547   6.293   9.193  0.3948  1.8964  1.9083
    8SAPS  H17S 1005   1.722   6.236   9.236  1.0175  3.1336  2.3470
    8SAPS  C218 1006   1.586   6.303   9.396  0.4993  1.0382  0.5244
    8SAPS  H18R 1007   1.672   6.276   9.461 -0.2057 -0.2495  0.9560
    8SAPS  H18S 1008   1.488   6.272   9.439  0.9841 -0.7988  0.3537
    8SAPS  C219 1009   1.605   6.450   9.384  1.0421 -0.4289 -0.1719
    8SAPS  H19R 1010   1.525   6.491   9.319  2.2575  1.8291 -0.3388
    8SAPS  H19S 1011   1.705   6.469   9.338  0.1240  1.4011 -1.5248
    8SAPS  C220 1012   1.584   6.504   9.522  0.0597 -0.5392  0.0743
    8SAPS  H20R 1013   1.589   6.615   9.525  0.8039 -0.5923  1.3983
    8SAPS  H20S 1014   1.675   6.472   9.576 -0.1601 -0.9932  0.1816
    8SAPS  H20T 1015   1.489   6.463   9.563 -0.5628 -2.1778 -2.7469
    8SAPS   C33 1016   1.614   6.419  10.274  0.4608 -0.1592 -0.3054
    8SAPS   H3X 1017   1.687   6.345  10.313 -1.9624 -2.2913  0.3968
    8SAPS   H3Y 1018   1.671   6.492  10.211 -0.3764 -0.2481 -1.1938
    8SAPS   C34 1019   1.540   6.350  10.155  1.0433 -0.1042 -0.2495
    8SAPS   H4X 1020   1.463   6.277  10.189  0.0975  0.9118 -0.1266
    8SAPS   H4Y 1021   1.620   6.296  10.101 -0.1770 -1.5909 -0.6529
    8SAPS   C35 1022   1.464   6.446  10.067  0.0740  0.3833  0.0718
    8SAPS   H5X 1023   1.533   6.529  10.040 -0.1467 -0.0872 -2.1505
    8SAPS   H5Y 1024   1.378   6.496  10.118 -1.4482 -1.4733 -0.5741
    8SAPS   C36 1025   1.426   6.381   9.928  0.1881 -0.5193 -0.2779
    8SAPS   H6X 1026   1.514   6.368   9.861  2.0821  2.2730  1.4678
    8SAPS   H6Y 1027   1.374   6.460   9.870 -0.1204  0.7876  1.7159
    8SAPS   C37 1028   1.333   6.260   9.939 -0.8803  0.3631  0.2392
    8SAPS   H7X 1029   1.242   6.289   9.996 -2.1708  1.3064 -2.1555
    8SAPS   H7Y 1030   1.376   6.182  10.005 -0.3681 -1.4055 -2.0408
    8SAPS   C38 1031   1.279   6.210   9.808 -0.5882 -0.5207 -0.2944
    8SAPS   H8X 1032   1.356   6.135   9.779 -0.1280 -0.8728  1.7033
    8SAPS   H8Y 1033   1.273   6.285   9.727 -2.2255 -0.0948  0.1806
    8SAPS   C39 1034   1.144   6.133   9.806 -0.0628 -0.1180  0.4487
    8SAPS   H9X 1035   1.067   6.208   9.835 -0.8218 -0.6983 -0.0302
    8SAPS   H9Y 1036   1.151   6.063   9.893 -0.6501 -0.0846  0.5249
    8SAPS  C310 1037   1.115   6.052   9.682 -0.6788  0.0256  0.5912
    8SAPS  H10X 1038   1.010   6.019   9.700 -0.4836  0.3793  2.6076
    8SAPS  H10Y 1039   1.165   5.952   9.681 -0.8740 -0.0855  1.2384
    8SAPS  C311 1040   1.142   6.138   9.558 -0.0426  0.6871 -0.1398
    8SAPS  H11X 1041   1.251   6.160   9.550  0.3871 -1.1366  0.0856
    8SAPS  H11Y 1042   1.096   6.239   9.561 -1.2905  0.1135  0.6937
    8SAPS  C312 1043   1.084   6.068   9.435 -0.3656  0.1138 -0.1568
    8SAPS  H12X 1044   0.976   6.041   9.446 -0.6159  1.5612  1.2005
    8SAPS  H12Y 1045   1.132   5.968   9.437  1.4955  0.9086 -1.7997
    8SAPS  C313 1046   1.119   6.131   9.299 -0.2694 -0.0182 -0.5731
    8SAPS  H13X 1047   1.230   6.137   9.291 -0.3819 -0.6349 -3.3231
    8SAPS  H13Y 1048   1.075   6.233   9.290 -2.6907 -0.8799  0.6292
    8SAPS  C314 1049   1.092   6.046   9.172  0.3043 -0.0040  0.0598
    8SAPS  H14X 1050   0.987   6.009   9.183  0.2742 -0.2609 -0.9541
    8SAPS  H14Y 1051   1.161   5.960   9.173  0.5841  0.2224  1.4711
    8SAPS  C315 1052   1.085   6.139   9.045 -0.3000  0.0683 -0.4309
    8SAPS  H15X 1053   1.183   6.189   9.030 -0.6966  0.7348 -0.8798
    8SAPS  H15Y 1054   1.004   6.215   9.050  0.8152  1.3396 -0.9522
    8SAPS  C316 1055   1.053   6.060   8.914 -0.3961  0.4377 -0.6707
    8SAPS  H16X 1056   1.031   6.126   8.827  0.7741  1.2013 -0.4219
    8SAPS  H16Y 1057   0.963   5.997   8.931  1.1294 -1.0773  2.8824
    8SAPS  C317 1058   1.169   5.963   8.876 -0.7146 -0.7087 -0.0566
    8SAPS  H17X 1059   1.218   5.908   8.959  2.3932  1.0662 -0.5687
    8SAPS  H17Y 1060   1.248   6.029   8.835 -1.2539  0.2552  0.4084
    8SAPS  C318 1061   1.136   5.875   8.745  0.5896  0.1210  0.6779
    8SAPS  H18X 1062   1.113   5.942   8.661  1.8626  1.8485  1.6351
    8SAPS  H18Y 1063   1.044   5.817   8.766  1.4541 -2.3467 -1.7977
    8SAPS  H18Z 1064   1.225   5.811   8.725  1.0693  1.1429 -0.5482
    9SAPS     N 1065   5.274   6.797   6.182  0.1565  0.0383  0.0640
    9SAPS   HN1 1066   5.319   6.886   6.154 -3.7883  2.3946  0.3193
    9SAPS   HN2 1067   5.174   6.817   6.159 -0.2985  0.0512  1.8597
    9SAPS   HN3 1068   5.273   6.778   6.284  1.1994  2.6900  0.6485
    9SAPS   C12 1069   5.320   6.683   6.097  0.3518  0.4123 -0.4037
    9SAPS  H12A 1070   5.246   6.605   6.102 -0.4136  1.1277 -0.2919
    9SAPS   C13 1071   5.359   6.726   5.956  0.9198 -0.2848 -0.3332
    9SAPS  O13A 1072   5.359   6.854   5.934 -0.4031 -0.4235  0.3568
    9SAPS  O13B 1073   5.393   6.644   5.872 -0.0505 -1.1043 -0.5719
    9SAPS   C11 1074   5.450   6.627   6.167 -0.6619  0.0114  0.7970
    9SAPS  H11A 1075   5.532   6.702   6.164 -0.9946  0.4118  1.6565
    9SAPS  H11B 1076   5.488   6.549   6.098  0.5390  1.4488 -0.2278
    9SAPS     P 1077   5.539   6.564   6.403 -0.2222 -0.3348  0.0775
    9SAPS   O13 1078   5.632   6.457   6.364  0.6804  0.3285  0.1075
    9SAPS   O14 1079   5.594   6.699   6.424 -0.5086 -0.5167 -0.4616
    9SAPS   O12 1080   5.425   6.577   6.297  0.5013  0.1145  0.2975
    9SAPS   O11 1081   5.454   6.514   6.528  0.3954  0.2657 -0.0400
    9SAPS    C1 1082   5.389   6.384   6.527 -0.1910 -0.8588 -0.5652
    9SAPS    HA 1083   5.437   6.313   6.456 -0.8718 -0.1601 -1.7436
    9SAPS    HB 1084   5.392   6.346   6.632 -2.2981  2.3965  0.8113
    9SAPS    C2 1085   5.241   6.399   6.488 -0.0481 -0.0677  0.7324
    9SAPS    HS 1086   5.245   6.440   6.385 -1.3766  2.2477  1.5211
    9SAPS   O21 1087   5.178   6.490   6.582 -1.0237 -0.1283 -0.6714
    9SAPS   C21 1088   5.061   6.543   6.538  0.1037  1.3728 -0.7833
    9SAPS   O22 1089   5.025   6.521   6.429  0.5026  0.9026  0.4840
    9SAPS   C22 1090   4.993   6.622   6.647 -0.5415 -0.0203  1.2860
    9SAPS   H2R 1091   4.909   6.556   6.679 -0.6274 -2.7475 -3.6579
    9SAPS   H2S 1092   5.072   6.622   6.725 -0.5625  0.2460  1.3099
    9SAPS    C3 1093   5.179   6.258   6.483 -0.0033 -0.4247 -0.3209
    9SAPS    HX 1094   5.221   6.208   6.394  0.3453  0.4043 -0.6317
    9SAPS    HY 1095   5.069   6.270   6.475 -0.0550  0.4309  1.3188
    9SAPS   O31 1096   5.201   6.177   6.603  0.0981  0.1898 -0.1500
    9SAPS   C31 1097   5.121   6.210   6.706  0.0348 -0.1714 -0.2153
    9SAPS   O32 1098   5.023   6.279   6.704  0.7607  0.5656 -0.0123
    9SAPS   C32 1099   5.191   6.154   6.831 -0.6416  0.3197 -0.7036
    9SAPS   H2X 1100   5.298   6.183   6.827  0.3386 -2.6527  1.0970
    9SAPS   H2Y 1101   5.180   6.044   6.837  1.3415  0.1362  0.3701
    9SAPS   C23 1102   4.934   6.760   6.596 -0.0846  0.8373 -0.1773
    9SAPS   H3R 1103   4.877   6.757   6.501 -0.8617  1.9800  0.2291
    9SAPS   H3S 1104   5.016   6.833   6.577  0.5338  0.2228  0.0949
    9SAPS   C24 1105   4.855   6.837   6.711  0.5304 -0.5665  0.1328
    9SAPS   H4R 1106   4.816   6.930   6.664  0.0372  1.0661  3.5305
    9SAPS   H4S 1107   4.931   6.872   6.784  0.9101 -0.0572 -0.4886
    9SAPS   C25 1108   4.740   6.750   6.767  0.3835 -0.5523 -0.4163
    9SAPS   H5R 1109   4.669   6.713   6.691 -0.5283 -0.3137  0.3037
    9SAPS   C26 1110   4.732   6.699   6.891 -0.0924 -0.9550 -0.3715
    9SAPS   H6R 1111   4.633   6.655   6.911 -0.1563 -1.4039 -1.6210
    9SAPS   C27 1112   4.829   6.712   7.011  0.1043  0.5885  0.6675
    9SAPS   H7R 1113   4.780   6.733   7.109 -1.8396 -3.6033  0.7911
    9SAPS   H7S 1114   4.882   6.809   6.998  1.2857  0.2732  2.7367
    9SAPS   C28 1115   4.936   6.608   7.027  0.7348 -0.1903  0.3486
    9SAPS   H8R 1116   4.959   6.547   6.938 -1.4461  1.5671 -1.5522
    9SAPS   C29 1117   5.002   6.583   7.138 -0.3860  0.3979 -0.4501
    9SAPS   H9R 1118   5.083   6.513   7.114 -3.0083 -2.5251 -1.4773
    9SAPS  C210 1119   4.987   6.644   7.266  0.7163  0.1950  0.8622
    9SAPS  H10R 1120   4.916   6.583   7.325 -2.1900  0.1864 -2.3449
    9SAPS  H10S 1121   4.930   6.739   7.273  1.7776  0.7713  2.0285
    9SAPS  C211 1122   5.111   6.678   7.332 -0.0602 -0.6071  0.2144
    9SAPS  H11R 1123   5.173   6.758   7.290 -1.8571  1.3876  1.1904
    9SAPS  C212 1124   5.152   6.618   7.442  0.4224  0.1089 -0.2488
    9SAPS  H12R 1125   5.252   6.653   7.472  0.6637  0.2099 -1.1379
    9SAPS  C213 1126   5.090   6.502   7.515  0.5654  0.4554  0.5328
    9SAPS  H13R 1127   5.019   6.453   7.445  1.5859  0.4306 -0.5239
    9SAPS  H13S 1128   5.030   6.536   7.602 -0.3559 -1.7637  0.8230
    9SAPS  C214 1129   5.197   6.408   7.556 -0.1771 -0.1933 -0.8401
    9SAPS  H14R 1130   5.250   6.357   7.474 -0.6813 -1.3853 -0.4374
    9SAPS  C215 1131   5.245   6.400   7.683  0.2398 -0.1510  0.2159
    9SAPS  H15R 1132   5.319   6.319   7.700 -0.5050 -0.6247  1.3127
    9SAPS  C216 1133   5.206   6.466   7.816 -0.2130 -0.4692  0.4089
    9SAPS  H16R 1134   5.112   6.524   7.804 -0.3638 -1.0687 -1.7848
    9SAPS  H16S 1135   5.289   6.539   7.830  0.4984 -0.5336 -2.7489
    9SAPS  C217 1136   5.183   6.373   7.935 -0.2086 -0.0836 -0.2213
    9SAPS  H17R 1137   5.147   6.275   7.897  1.5820 -0.7101 -0.3946
    9SAPS  H17S 1138   5.119   6.416   8.015 -0.8114 -1.4468  0.0605
    9SAPS  C218 1139   5.321   6.341   8.005  0.3063  0.9934  0.1834
    9SAPS  H18R 1140   5.345   6.446   8.031  1.6672  0.5568  0.7372
    9SAPS  H18S 1141   5.398   6.313   7.930  0.3265  1.3673  0.0593
    9SAPS  C219 1142   5.321   6.238   8.120  0.6148 -0.1261 -0.3053
    9SAPS  H19R 1143   5.302   6.136   8.079  0.5196 -0.7834  1.3346
    9SAPS  H19S 1144   5.238   6.262   8.190 -0.1018 -1.8417 -0.5154
    9SAPS  C220 1145   5.448   6.234   8.200 -0.4107 -0.2759  0.0312
    9SAPS  H20R 1146   5.441   6.157   8.281 -2.1155 -1.9144 -1.5717
    9SAPS  H20S 1147   5.469   6.334   8.242 -0.4097 -0.5995  0.8346
    9SAPS  H20T 1148   5.530   6.188   8.142 -0.1400  1.6051 -1.1368
    9SAPS   C33 1149   5.136   6.209   6.967  0.1044 -0.4110  0.9173
    9SAPS   H3X 1150   5.026   6.195   6.956  0.2028  0.6242 -1.9650
    9SAPS   H3Y 1151   5.161   6.314   6.992  1.9473 -0.7339  0.5649
    9SAPS   C34 1152   5.182   6.119   7.083 -0.3561 -0.0816 -0.1684
    9SAPS   H4X 1153   5.293   6.124   7.087 -0.3877  3.6551 -0.3306
    9SAPS   H4Y 1154   5.150   6.014   7.068  1.3152 -0.4955 -1.0011
    9SAPS   C35 1155   5.134   6.164   7.217  0.4816  0.3768 -0.6194
    9SAPS   H5X 1156   5.024   6.168   7.205  0.2583  1.4950  1.3353
    9SAPS   H5Y 1157   5.159   6.269   7.242  0.3760 -0.2133  2.2875
    9SAPS   C36 1158   5.171   6.079   7.338  0.1115 -0.5767  0.5376
    9SAPS   H6X 1159   5.109   5.987   7.329  0.9974 -1.2105  0.7669
    9SAPS   H6Y 1160   5.150   6.131   7.434  1.8073 -1.1289  1.2341
    9SAPS   C37 1161   5.321   6.045   7.343 -0.1336  0.4319  0.5494
    9SAPS   H7X 1162   5.383   6.135   7.319  0.9572  0.0487  1.8143
    9SAPS   H7Y 1163   5.339   5.963   7.270 -2.0205 -1.3577  1.9921
    9SAPS   C38 1164   5.369   5.980   7.471  0.0778  0.7931 -0.2221
    9SAPS   H8X 1165   5.310   5.889   7.496  0.2799  0.5603 -0.5813
    9SAPS   H8Y 1166   5.351   6.053   7.552  0.8391 -0.4109  1.0634
    9SAPS   C39 1167   5.523   5.946   7.480  0.3039  0.6494  0.0881
    9SAPS   H9X 1168   5.584   6.025   7.430  1.6797 -0.2234  0.3342
    9SAPS   H9Y 1169   5.538   5.849   7.428 -0.9161 -0.1658  1.2007
    9SAPS  C310 1170   5.578   5.945   7.629 -0.6146  0.8663  0.0932
    9SAPS  H10X 1171   5.562   6.042   7.679 -2.0244 -0.1913  1.8173
    9SAPS  H10Y 1172   5.684   5.912   7.629 -0.8582 -0.0549  2.1082
    9SAPS  C311 1173   5.511   5.833   7.705  0.4918  0.4860  0.5853
    9SAPS  H11X 1174   5.501   5.741   7.644 -0.5781 -1.7007  3.8071
    9SAPS  H11Y 1175   5.409   5.862   7.740  0.5280  0.1534  0.9704
    9SAPS  C312 1176   5.588   5.797   7.833  0.0087  0.5428 -0.0324
    9SAPS  H12X 1177   5.677   5.743   7.796 -1.4819  0.6192 -4.2080
    9SAPS  H12Y 1178   5.526   5.729   7.897 -0.2510  1.5355  0.7982
    9SAPS  C313 1179   5.620   5.917   7.925 -0.0416 -0.3533  0.0844
    9SAPS  H13X 1180   5.522   5.970   7.927 -0.5270 -1.2152 -0.4146
    9SAPS  H13Y 1181   5.685   5.996   7.881 -0.1497  1.4883  2.9749
    9SAPS  C314 1182   5.669   5.880   8.066  0.4845 -0.4986 -0.5856
    9SAPS  H14X 1183   5.687   5.975   8.121 -1.4625 -1.4063  1.8211
    9SAPS  H14Y 1184   5.769   5.833   8.060  0.8093 -0.1922  1.5342
    9SAPS  C315 1185   5.577   5.785   8.147  0.0399  0.3812  0.0661
    9SAPS  H15X 1186   5.586   5.686   8.098 -2.5806 -1.0039  2.1113
    9SAPS  H15Y 1187   5.470   5.817   8.136  1.0761  4.2784 -0.2876
    9SAPS  C316 1188   5.620   5.799   8.296  0.0109  0.6893  0.2317
    9SAPS  H16X 1189   5.645   5.904   8.321  1.9868  0.4411 -0.4779
    9SAPS  H16Y 1190   5.706   5.732   8.317 -1.0565 -0.9363 -0.3619
    9SAPS  C317 1191   5.508   5.756   8.395  0.5689  0.0183 -0.1718
    9SAPS  H17X 1192   5.413   5.812   8.380 -0.0785 -1.1457 -0.5557
    9SAPS  H17Y 1193   5.536   5.770   8.501 -0.1499 -0.3703  0.0800
    9SAPS  C318 1194   5.473   5.608   8.380  0.5451 -0.2099  0.2802
    9SAPS  H18X 1195   5.404   5.588   8.294  0.5591 -0.5867  0.3557
    9SAPS  H18Y 1196   5.420   5.564   8.467  0.7018 -0.7808  0.0942
    9SAPS  H18Z 1197   5.560   5.540   8.375  0.7975 -0.2428  3.5537
   10SAPS     N 1198   3.861   4.546   6.423 -0.0187 -0.0524 -0.6880
   10SAPS   HN1 1199   3.830   4.602   6.505 -0.1096 -0.1926 -0.6261
   10SAPS   HN2 1200   3.783   4.485   6.391 -2.3136  0.6965  2.8832
   10SAPS   HN3 1201   3.933   4.482   6.462 -1.3732 -0.4759  1.3273
   10SAPS   C12 1202   3.916   4.631   6.321  0.1272 -0.3196 -0.1031
   10SAPS  H12A 1203   4.001   4.685   6.362  0.7394 -1.8889  0.7759
   10SAPS   C13 1204   3.978   4.563   6.198  1.0875  0.4705 -0.6419
   10SAPS  O13A 1205   4.001   4.436   6.203  0.2040  0.3075  0.3206
   10SAPS  O13B 1206   4.015   4.632   6.097 -0.0705 -0.7688  0.0452
   10SAPS   C11 1207   3.813   4.738   6.272  0.1243  0.3414 -0.3107
   10SAPS  H11A 1208   3.730   4.692   6.214 -0.5431 -0.0661  0.9380
   10SAPS  H11B 1209   3.852   4.820   6.209  0.6842 -1.1267 -1.9372
   10SAPS     P 1210   3.683   4.927   6.397 -0.3494  0.3530  0.5729
   10SAPS   O13 1211   3.599   4.941   6.276  0.3195  0.4775 -0.0257
   10SAPS   O14 1212   3.614   4.934   6.524  0.4461  0.1077 -0.0876
   10SAPS   O12 1213   3.768   4.793   6.397  0.1979  0.1083  0.5371
   10SAPS   O11 1214   3.801   5.037   6.376 -0.0688  0.2710  0.0774
   10SAPS    C1 1215   3.917   5.032   6.460 -0.0358 -0.7297 -0.2499
   10SAPS    HA 1216   3.969   4.934   6.454  0.5016 -0.4243 -0.8042
   10SAPS    HB 1217   3.992   5.097   6.408  0.9172 -1.0879  0.6555
   10SAPS    C2 1218   3.896   5.081   6.601 -0.3143  0.1097  0.1538
   10SAPS    HS 1219   3.822   5.009   6.641 -2.5439  1.6686 -0.9740
   10SAPS   O21 1220   3.860   5.224   6.597 -0.4347 -0.5847 -0.5119
   10SAPS   C21 1221   3.769   5.264   6.679 -0.0811 -0.7540 -0.7197
   10SAPS   O22 1222   3.726   5.202   6.777  0.3543  0.3617 -0.0962
   10SAPS   C22 1223   3.729   5.410   6.650  0.0660  0.0824 -0.1215
   10SAPS   H2R 1224   3.803   5.461   6.584  0.4346  1.1745  1.0730
   10SAPS   H2S 1225   3.628   5.396   6.607  0.0552  2.3565 -0.9850
   10SAPS    C3 1226   4.021   5.066   6.687 -0.1215 -0.0266 -0.7971
   10SAPS    HX 1227   4.101   5.138   6.662  0.9030 -1.5149 -1.9810
   10SAPS    HY 1228   4.080   4.971   6.682 -0.1622 -0.1778  0.9540
   10SAPS   O31 1229   3.990   5.093   6.824 -0.2924  0.1918 -0.1632
   10SAPS   C31 1230   3.932   4.991   6.879  0.6726 -0.1705 -0.2972
   10SAPS   O32 1231   3.924   4.878   6.836 -0.9417 -0.3163  0.1360
   10SAPS   C32 1232   3.876   5.034   7.014  0.9288 -0.7813 -0.8275
   10SAPS   H2X 1233   3.770   5.063   7.000 -1.0313 -5.7542  1.2218
   10SAPS   H2Y 1234   3.927   5.127   7.047 -1.5215  0.3673 -0.0299
   10SAPS   C23 1235   3.717   5.484   6.776  0.1049 -0.2728 -0.7968
   10SAPS   H3R 1236   3.658   5.419   6.845  0.0309  0.0149 -0.5884
   10SAPS   H3S 1237   3.661   5.580   6.767 -0.3684 -0.6788 -2.4473
   10SAPS   C24 1238   3.851   5.514   6.847 -0.2751 -0.1339 -0.3496
   10SAPS   H4R 1239   3.887   5.426   6.905 -0.3928  0.6684  0.9969
   10SAPS   H4S 1240   3.815   5.583   6.927  0.3738 -0.6447  0.4075
   10SAPS   C25 1241   3.975   5.560   6.763  0.2847  0.1828 -0.1396
   10SAPS   H5R 1242   3.971   5.526   6.658 -1.2517 -0.9924  0.2588
   10SAPS   C26 1243   4.071   5.646   6.806 -0.9618 -0.3225  0.1180
   10SAPS   H6R 1244   4.136   5.676   6.722  1.3579 -0.7931  1.6611
   10SAPS   C27 1245   4.078   5.710   6.943  0.1177 -0.1111  0.5568
   10SAPS   H7R 1246   4.034   5.635   7.012  0.2636 -0.4207  0.3169
   10SAPS   H7S 1247   4.007   5.795   6.944  0.9707  0.6995 -1.6434
   10SAPS   C28 1248   4.211   5.773   6.984  0.1848  1.1941  0.8590
   10SAPS   H8R 1249   4.268   5.834   6.912 -0.3179  1.7998  0.9669
   10SAPS   C29 1250   4.253   5.765   7.111  0.6416  0.7538 -0.4540
   10SAPS   H9R 1251   4.353   5.805   7.133  0.6760 -0.9482  3.2190
   10SAPS  C210 1252   4.181   5.699   7.236  0.2064 -0.3510 -0.3657
   10SAPS  H10R 1253   4.230   5.601   7.257 -2.3895 -1.9805 -1.3684
   10SAPS  H10S 1254   4.075   5.672   7.217  0.2197 -0.1991 -0.6609
   10SAPS  C211 1255   4.187   5.787   7.356 -0.0254  0.0821 -0.5834
   10SAPS  H11R 1256   4.180   5.895   7.336  0.2963  0.2979  0.3770
   10SAPS  C212 1257   4.207   5.762   7.484 -0.4041  0.1329 -0.6081
   10SAPS  H12R 1258   4.220   5.848   7.551  1.8563  0.1703 -1.0088
   10SAPS  C213 1259   4.220   5.621   7.540  0.0966  0.4647  0.1980
   10SAPS  H13R 1260   4.331   5.612   7.534  0.0828  0.6594 -0.4294
   10SAPS  H13S 1261   4.166   5.542   7.483 -1.1372  1.0578  0.5211
   10SAPS  C214 1262   4.172   5.594   7.683  0.2376  0.2973  0.1497
   10SAPS  H14R 1263   4.076   5.549   7.708  0.0590  1.5004  1.7543
   10SAPS  C215 1264   4.229   5.631   7.798 -0.1926 -0.5207 -0.3309
   10SAPS  H15R 1265   4.175   5.618   7.893 -0.6664  0.0593 -0.5122
   10SAPS  C216 1266   4.361   5.703   7.824 -0.1000  0.0042  0.1749
   10SAPS  H16R 1267   4.417   5.716   7.729 -0.8261 -0.0828 -0.2740
   10SAPS  H16S 1268   4.415   5.640   7.898 -0.8113 -1.6346 -0.6375
   10SAPS  C217 1269   4.333   5.852   7.866 -0.1653 -0.5167 -0.3463
   10SAPS  H17R 1270   4.285   5.845   7.967  1.5469  1.2691  0.6464
   10SAPS  H17S 1271   4.266   5.890   7.786 -1.1335  0.5486  0.9181
   10SAPS  C218 1272   4.460   5.931   7.882 -0.4181 -0.6192 -0.2160
   10SAPS  H18R 1273   4.433   6.038   7.864 -0.2387 -0.6026 -0.3928
   10SAPS  H18S 1274   4.532   5.905   7.802  0.4963  1.5195 -0.1698
   10SAPS  C219 1275   4.530   5.905   8.016  0.1758  1.1352  0.0212
   10SAPS  H19R 1276   4.524   5.796   8.034  1.1148  1.3661  1.9062
   10SAPS  H19S 1277   4.456   5.949   8.086 -3.4527 -2.4224 -1.1418
   10SAPS  C220 1278   4.662   5.972   8.040  1.0013  0.4485  0.2364
   10SAPS  H20R 1279   4.699   5.961   8.145 -2.4337 -1.9660  1.3741
   10SAPS  H20S 1280   4.669   6.081   8.021  2.7916  0.4155  0.5445
   10SAPS  H20T 1281   4.727   5.921   7.967  0.0705  2.7457 -2.3674
   10SAPS   C33 1282   3.899   4.918   7.114 -0.6172 -1.1440  0.3721
   10SAPS   H3X 1283   4.006   4.890   7.113  0.0880  1.2494 -1.2134
   10SAPS   H3Y 1284   3.844   4.824   7.091  0.6151 -1.5736 -0.9718
   10SAPS   C34 1285   3.864   4.962   7.255 -0.5045  0.7530 -0.0656
   10SAPS   H4X 1286   3.754   4.969   7.266 -0.4905  0.7705  0.0583
   10SAPS   H4Y 1287   3.912   5.061   7.269  2.2260 -0.4281 -0.3407
   10SAPS   C35 1288   3.920   4.878   7.370  0.4076  0.0739 -0.0654
   10SAPS   H5X 1289   4.028   4.857   7.362  0.0828 -1.8774  0.0912
   10SAPS   H5Y 1290   3.857   4.786   7.365  0.2998  0.2135 -1.4960
   10SAPS   C36 1291   3.897   4.952   7.506  0.4970  0.9783 -0.7792
   10SAPS   H6X 1292   3.790   4.978   7.522  0.0925 -1.2025  0.3940
   10SAPS   H6Y 1293   3.943   5.053   7.517  1.8759  0.3449 -0.4944
   10SAPS   C37 1294   3.956   4.863   7.621 -0.0123  0.1768  0.1681
   10SAPS   H7X 1295   4.067   4.863   7.618  0.0646  0.9310  2.0883
   10SAPS   H7Y 1296   3.922   4.762   7.589  2.1736  0.2402 -2.8132
   10SAPS   C38 1297   3.902   4.887   7.759  0.2209  0.3110  0.0665
   10SAPS   H8X 1298   3.809   4.828   7.771 -1.2324  2.0010 -2.1009
   10SAPS   H8Y 1299   3.874   4.994   7.770 -1.2537 -0.2539  2.4567
   10SAPS   C39 1300   4.004   4.850   7.874 -0.0964  0.0063 -0.2114
   10SAPS   H9X 1301   4.080   4.931   7.879  0.6707 -0.4772 -2.4930
   10SAPS   H9Y 1302   4.051   4.750   7.864  0.4824  0.2558  0.0013
   10SAPS  C310 1303   3.942   4.845   8.017  0.3302 -0.1129  0.0941
   10SAPS  H10X 1304   4.021   4.839   8.095 -0.1118  0.6566  0.6252
   10SAPS  H10Y 1305   3.884   4.752   8.034 -0.3575  0.6440  2.3243
   10SAPS  C311 1306   3.878   4.978   8.054 -1.0677 -0.5509 -0.4174
   10SAPS  H11X 1307   3.814   5.030   7.980 -0.8332  1.4994  0.7341
   10SAPS  H11Y 1308   3.961   5.049   8.075 -1.6272  0.5395 -1.8068
   10SAPS  C312 1309   3.799   4.974   8.188 -0.0737  0.2599 -0.0743
   10SAPS  H12X 1310   3.722   4.893   8.187  1.1181 -0.9413 -2.4358
   10SAPS  H12Y 1311   3.756   5.073   8.215  2.1005  1.0314  0.7711
   10SAPS  C313 1312   3.879   4.937   8.315 -1.0805 -0.1125  0.4111
   10SAPS  H13X 1313   3.973   4.996   8.318 -1.1076 -0.0180 -0.4921
   10SAPS  H13Y 1314   3.908   4.830   8.309  0.6193  0.2078  1.9423
   10SAPS  C314 1315   3.798   4.947   8.445 -0.3498 -0.1096 -0.1111
   10SAPS  H14X 1316   3.865   4.923   8.530  1.1749 -0.4221 -1.3474
   10SAPS  H14Y 1317   3.711   4.879   8.433 -0.3792 -0.0449 -0.2808
   10SAPS  C315 1318   3.742   5.089   8.475  0.0179  0.0350 -0.1265
   10SAPS  H15X 1319   3.671   5.123   8.396  0.7027 -1.8025 -1.6219
   10SAPS  H15Y 1320   3.832   5.151   8.495 -1.5493  1.2190  4.6772
   10SAPS  C316 1321   3.671   5.081   8.614 -0.6655 -0.1407 -0.8301
   10SAPS  H16X 1322   3.756   5.044   8.675 -0.4238  1.7996  0.0754
   10SAPS  H16Y 1323   3.578   5.022   8.632 -0.1408 -0.6150  0.4957
   10SAPS  C317 1324   3.634   5.221   8.655 -0.2702  0.2330 -0.2859
   10SAPS  H17X 1325   3.556   5.256   8.584 -1.8623  0.8275  1.6946
   10SAPS  H17Y 1326   3.721   5.290   8.642 -0.7897  1.2836  1.5693
   10SAPS  C318 1327   3.573   5.244   8.794  0.0571 -1.0013  0.2314
   10SAPS  H18X 1328   3.591   5.347   8.833 -0.7781 -0.9313  0.4470
   10SAPS  H18Y 1329   3.630   5.182   8.866  0.4511  0.9667  1.7084
   10SAPS  H18Z 1330   3.465   5.217   8.792  0.4169 -2.6283  0.9692
   11SAPS     N 1331   4.930   5.451   6.173 -0.2626  0.7109  0.3177
   11SAPS   HN1 1332   4.915   5.541   6.222  1.5341  2.8612 -2.6993
   11SAPS   HN2 1333   4.885   5.463   6.079 -2.6450  1.0229  1.4183
   11SAPS   HN3 1334   4.888   5.371   6.224 -0.2531  1.4123  1.4665
   11SAPS   C12 1335   5.082   5.454   6.165  0.7460  0.6249  0.3804
   11SAPS  H12A 1336   5.107   5.414   6.067 -0.6006 -0.1089  0.3153
   11SAPS   C13 1337   5.138   5.596   6.181  0.4014  0.3592 -0.0428
   11SAPS  O13A 1338   5.059   5.686   6.181 -0.4832  0.1063  0.6662
   11SAPS  O13B 1339   5.258   5.616   6.150  0.0186  0.2192  0.4131
   11SAPS   C11 1340   5.137   5.355   6.275 -0.3399 -0.3051 -0.6670
   11SAPS  H11A 1341   5.080   5.377   6.368 -1.8195  1.3728 -1.8894
   11SAPS  H11B 1342   5.244   5.384   6.285 -0.1556 -0.5894 -1.7400
   11SAPS     P 1343   5.205   5.127   6.155  0.1468  0.0519  0.3424
   11SAPS   O13 1344   5.110   5.035   6.084  0.2359  0.6458  0.0065
   11SAPS   O14 1345   5.290   5.201   6.062  0.4851  1.1420 -0.2720
   11SAPS   O12 1346   5.118   5.223   6.241  0.0263 -0.7322  0.2064
   11SAPS   O11 1347   5.300   5.054   6.261  0.7099 -0.2840 -0.3530
   11SAPS    C1 1348   5.252   4.974   6.367 -0.1792  0.0543 -0.1532
   11SAPS    HA 1349   5.176   4.898   6.339 -0.2007 -0.6723  1.6920
   11SAPS    HB 1350   5.334   4.914   6.413  0.1925  1.0200  0.4622
   11SAPS    C2 1351   5.211   5.045   6.498 -0.0672 -0.5244 -0.1081
   11SAPS    HS 1352   5.145   5.125   6.459  0.0710 -1.0152 -1.4072
   11SAPS   O21 1353   5.327   5.094   6.562  0.9002 -0.6583 -0.2625
   11SAPS   C21 1354   5.325   5.200   6.638 -0.3896  0.2475  0.5191
   11SAPS   O22 1355   5.234   5.276   6.651  0.0825  0.2021 -0.2962
   11SAPS   C22 1356   5.468   5.228   6.676  0.7104  0.1407 -0.0784
   11SAPS   H2R 1357   5.534   5.145   6.644  0.4493  0.1432 -0.6462
   11SAPS   H2S 1358   5.492   5.328   6.633 -1.2015  1.1271  1.0457
   11SAPS    C3 1359   5.123   4.962   6.588  0.3798 -0.0331 -0.1826
   11SAPS    HX 1360   5.172   4.864   6.609  0.3106  0.0009  0.1448
   11SAPS    HY 1361   5.037   4.931   6.525  1.0140 -0.8218 -0.6857
   11SAPS   O31 1362   5.075   5.022   6.710 -0.3636 -0.0605 -0.4168
   11SAPS   C31 1363   4.982   5.112   6.686  0.5779  0.3577  0.2971
   11SAPS   O32 1364   4.932   5.131   6.579 -0.0143 -0.1694  0.4187
   11SAPS   C32 1365   4.945   5.185   6.814  0.1040 -0.0158  0.1322
   11SAPS   H2X 1366   5.032   5.242   6.854  0.0595 -0.3592  0.7262
   11SAPS   H2Y 1367   4.905   5.120   6.895  0.8007  0.5312  0.9326
   11SAPS   C23 1368   5.472   5.246   6.824  0.0781  0.7522 -0.3207
   11SAPS   H3R 1369   5.387   5.298   6.874 -0.6397  2.4024 -3.0481
   11SAPS   H3S 1370   5.553   5.318   6.849  1.2949  0.4137 -2.9591
   11SAPS   C24 1371   5.503   5.109   6.893  0.1872 -0.1130  0.4765
   11SAPS   H4R 1372   5.559   5.134   6.986  0.5052  1.6991 -0.1686
   11SAPS   H4S 1373   5.566   5.043   6.830 -0.8603 -0.1619 -0.5565
   11SAPS   C25 1374   5.375   5.034   6.915  0.5398 -0.3526 -0.0180
   11SAPS   H5R 1375   5.345   4.964   6.835 -2.7964 -1.8174  2.2791
   11SAPS   C26 1376   5.286   5.059   7.009  0.0850  0.7427 -0.0223
   11SAPS   H6R 1377   5.200   4.990   7.018  1.5187 -1.1068  0.1801
   11SAPS   C27 1378   5.292   5.154   7.121  0.0922  0.5840  0.0541
   11SAPS   H7R 1379   5.244   5.248   7.084  2.0289  1.8996  0.7087
   11SAPS   H7S 1380   5.394   5.196   7.132  0.1748  0.6223 -0.7990
   11SAPS   C28 1381   5.226   5.113   7.249  0.0906 -0.2578  0.3396
   11SAPS   H8R 1382   5.119   5.140   7.241  0.5090  1.3308 -0.3337
   11SAPS   C29 1383   5.286   5.045   7.346  0.2812 -0.0112 -0.1586
   11SAPS   H9R 1384   5.230   5.017   7.437  0.6005 -0.3694 -0.0702
   11SAPS  C210 1385   5.438   5.013   7.354 -0.4014 -0.1271 -0.3330
   11SAPS  H10R 1386   5.461   5.005   7.462  0.4648 -2.2992 -0.6210
   11SAPS  H10S 1387   5.488   5.098   7.302 -0.6469 -2.0969 -4.1252
   11SAPS  C211 1388   5.470   4.879   7.292  0.2003  0.5354 -0.0098
   11SAPS  H11R 1389   5.386   4.809   7.278 -2.6446  3.9177 -1.4337
   11SAPS  C212 1390   5.595   4.853   7.251 -0.5023  0.3523 -1.2498
   11SAPS  H12R 1391   5.617   4.754   7.209  1.1690 -1.0963  2.5982
   11SAPS  C213 1392   5.712   4.956   7.262  0.0089 -0.2314  0.2464
   11SAPS  H13R 1393   5.716   4.998   7.364 -2.4531  3.1036 -0.8534
   11SAPS  H13S 1394   5.692   5.045   7.199 -0.6557 -0.1505  0.5554
   11SAPS  C214 1395   5.846   4.919   7.216 -0.2325 -0.2449 -0.1643
   11SAPS  H14R 1396   5.922   4.934   7.294  2.1811  0.1948 -2.4586
   11SAPS  C215 1397   5.877   4.886   7.086  0.5729  0.4971 -0.0018
   11SAPS  H15R 1398   5.982   4.859   7.064  0.3320 -0.8934  0.4500
   11SAPS  C216 1399   5.792   4.878   6.960  0.6021 -0.0788  0.1145
   11SAPS  H16R 1400   5.816   4.978   6.918  0.7954  0.3004  1.0978
   11SAPS  H16S 1401   5.684   4.878   6.987  0.9177 -0.8130  1.4740
   11SAPS  C217 1402   5.839   4.771   6.861  0.4933 -0.6801  0.5077
   11SAPS  H17R 1403   5.814   4.665   6.881  0.4116 -1.3234 -2.5893
   11SAPS  H17S 1404   5.950   4.773   6.857  0.5835 -1.2700  2.0908
   11SAPS  C218 1405   5.784   4.809   6.722 -0.4085 -0.4908  0.5440
   11SAPS  H18R 1406   5.837   4.901   6.692 -1.8936  0.1209 -0.3484
   11SAPS  H18S 1407   5.677   4.841   6.724 -1.3768 -3.0157 -2.1439
   11SAPS  C219 1408   5.788   4.702   6.617  0.1676 -0.6715  0.2547
   11SAPS  H19R 1409   5.700   4.695   6.549  0.4999  0.6662 -0.3643
   11SAPS  H19S 1410   5.784   4.616   6.687  2.7708  1.3056  3.0699
   11SAPS  C220 1411   5.914   4.700   6.542 -0.1399 -0.5029  0.7918
   11SAPS  H20R 1412   5.945   4.613   6.480  3.2997  1.9732 -1.3234
   11SAPS  H20S 1413   5.995   4.718   6.616 -0.6185  1.0824  0.9654
   11SAPS  H20T 1414   5.921   4.784   6.469 -1.7043 -0.7179  0.3542
   11SAPS   C33 1415   4.813   5.272   6.782  0.1878 -0.5668 -0.7059
   11SAPS   H3X 1416   4.740   5.203   6.735 -0.6424 -1.4362  1.6957
   11SAPS   H3Y 1417   4.830   5.359   6.715 -1.4361  1.3336  1.2161
   11SAPS   C34 1418   4.740   5.323   6.907 -0.5180  0.2100  0.0136
   11SAPS   H4X 1419   4.711   5.227   6.954 -2.3486  0.1254 -1.1981
   11SAPS   H4Y 1420   4.651   5.382   6.877  0.2320  1.5767  0.3951
   11SAPS   C35 1421   4.822   5.398   7.010 -0.3723  0.3804 -0.2927
   11SAPS   H5X 1422   4.890   5.472   6.962  1.1411 -0.1875  0.8800
   11SAPS   H5Y 1423   4.889   5.321   7.054  2.6122  2.0434 -1.6426
   11SAPS   C36 1424   4.736   5.448   7.126 -0.0422 -0.4562  0.0149
   11SAPS   H6X 1425   4.794   5.474   7.217 -3.1982 -0.0337  2.0667
   11SAPS   H6Y 1426   4.678   5.365   7.172  2.2768 -1.1483  1.8915
   11SAPS   C37 1427   4.645   5.564   7.082  0.0188 -0.3523 -0.0273
   11SAPS   H7X 1428   4.569   5.525   7.010 -0.6762  0.0063  0.4995
   11SAPS   H7Y 1429   4.709   5.643   7.038  0.6376 -1.4327 -1.1308
   11SAPS   C38 1430   4.576   5.623   7.208 -0.1644  0.1486 -0.4647
   11SAPS   H8X 1431   4.507   5.552   7.259  0.7899  1.4629  2.9194
   11SAPS   H8Y 1432   4.508   5.694   7.156  1.3515  2.2995  0.3593
   11SAPS   C39 1433   4.673   5.705   7.301  0.1779  0.7181  0.4006
   11SAPS   H9X 1434   4.707   5.793   7.243 -0.4960  0.6070 -0.1784
   11SAPS   H9Y 1435   4.757   5.642   7.337  0.5514 -0.0728 -1.7418
   11SAPS  C310 1436   4.604   5.755   7.434 -0.0764 -0.1138  0.2681
   11SAPS  H10X 1437   4.495   5.734   7.446 -0.5063  1.7289 -0.0419
   11SAPS  H10Y 1438   4.606   5.866   7.428 -0.8866 -0.0614  0.7179
   11SAPS  C311 1439   4.674   5.709   7.563  0.6767 -0.2184 -0.3561
   11SAPS  H11X 1440   4.620   5.773   7.636  1.1729 -0.7026  0.4397
   11SAPS  H11Y 1441   4.781   5.731   7.545  1.3312 -1.9298  1.1812
   11SAPS  C312 1442   4.656   5.558   7.588 -0.1546 -0.0998 -0.0924
   11SAPS  H12X 1443   4.724   5.499   7.524 -0.5571 -1.4067  0.6245
   11SAPS  H12Y 1444   4.558   5.507   7.574 -0.9507  0.7587  1.9136
   11SAPS  C313 1445   4.698   5.537   7.730 -0.0713 -0.0910 -0.2716
   11SAPS  H13X 1446   4.612   5.562   7.795 -0.5307 -2.3898  0.1108
   11SAPS  H13Y 1447   4.781   5.606   7.756 -0.7699  1.0689 -1.0525
   11SAPS  C314 1448   4.738   5.394   7.749  0.0584 -0.1307 -0.4757
   11SAPS  H14X 1449   4.822   5.357   7.687  0.4731  1.3124 -0.8030
   11SAPS  H14Y 1450   4.656   5.331   7.708  0.7694 -0.5221 -1.3264
   11SAPS  C315 1451   4.749   5.368   7.903  0.5509  0.0023  0.6186
   11SAPS  H15X 1452   4.738   5.258   7.913  0.2172 -0.0944 -0.7230
   11SAPS  H15Y 1453   4.668   5.426   7.951  0.3561 -1.0325  1.5838
   11SAPS  C316 1454   4.891   5.405   7.957  0.6165 -0.5729  0.2177
   11SAPS  H16X 1455   4.912   5.512   7.936 -2.2970  0.0910  0.3590
   11SAPS  H16Y 1456   4.965   5.345   7.899  0.8912  0.6280 -0.7048
   11SAPS  C317 1457   4.906   5.389   8.106  1.0454 -0.4745  0.0479
   11SAPS  H17X 1458   5.008   5.424   8.133  0.6950  1.3252 -0.7684
   11SAPS  H17Y 1459   4.890   5.286   8.142 -1.9112  0.5804  2.1300
   11SAPS  C318 1460   4.806   5.480   8.182 -0.7012 -0.2264  0.0983
   11SAPS  H18X 1461   4.811   5.451   8.289 -1.3880 -1.8326 -0.2825
   11SAPS  H18Y 1462   4.702   5.457   8.150 -1.5352  2.9761  0.1246
   11SAPS  H18Z 1463   4.816   5.591   8.181 -1.7139 -0.1107  0.9462
   12SAPS     N 1464   0.154   4.413   5.966  0.2101  0.0444 -0.4379
   12SAPS   HN1 1465   0.053   4.389   5.966  0.3018 -0.3423 -0.6389
   12SAPS   HN2 1466   0.203   4.349   5.900 -1.0481 -0.8555 -0.5310
   12SAPS   HN3 1467   0.197   4.400   6.059 -0.2334 -0.7525 -0.3385
   12SAPS   C12 1468   0.156   4.554   5.909  0.6891 -1.1584  0.4876
   12SAPS  H12A 1469   0.232   4.613   5.958 -0.0786 -0.5797  1.0071
   12SAPS   C13 1470   0.181   4.554   5.758 -0.1101  0.6135 -0.3750
   12SAPS  O13A 1471   0.213   4.443   5.702 -0.4127  0.4714 -0.3117
   12SAPS  O13B 1472   0.214   4.667   5.707  0.6291 -0.6071  0.6196
   12SAPS   C11 1473   0.026   4.642   5.935 -0.1367  0.2289 -0.2983
   12SAPS  H11A 1474  -0.057   4.578   5.898  0.2422 -0.7609  0.4953
   12SAPS  H11B 1475   0.042   4.737   5.881  2.5699  0.5855  0.9230
   12SAPS     P 1476  -0.137   4.745   6.111 -0.2195 -0.3472  0.0049
   12SAPS   O13 1477  -0.125   4.892   6.093 -0.5044 -0.0997  0.8701
   12SAPS   O14 1478  -0.254   4.685   6.045 -0.6284 -0.2501 -0.0960
   12SAPS   O12 1479  -0.006   4.671   6.074 -1.0781 -1.0716 -0.2026
   12SAPS   O11 1480  -0.141   4.713   6.261 -0.1332 -0.0335 -0.2110
   12SAPS    C1 1481  -0.137   4.587   6.335  0.4215 -0.6303 -0.0223
   12SAPS    HA 1482  -0.142   4.495   6.273 -0.0016  0.0077 -0.9518
   12SAPS    HB 1483  -0.037   4.589   6.383  0.3675 -2.1460  0.1997
   12SAPS    C2 1484  -0.261   4.585   6.448  0.0626 -0.1819  0.5148
   12SAPS    HS 1485  -0.347   4.577   6.378 -0.1702  0.6903  0.6931
   12SAPS   O21 1486  -0.257   4.706   6.524  0.0442  0.1937 -0.1707
   12SAPS   C21 1487  -0.318   4.812   6.471  0.4257  0.0660  0.7582
   12SAPS   O22 1488  -0.404   4.802   6.377 -0.3610 -0.5406 -0.0846
   12SAPS   C22 1489  -0.270   4.944   6.528  0.0912  0.7629  0.8047
   12SAPS   H2R 1490  -0.245   5.008   6.441 -2.6083  1.0135  0.1143
   12SAPS   H2S 1491  -0.363   4.985   6.574 -1.1695 -1.2614  0.1890
   12SAPS    C3 1492  -0.248   4.461   6.539  0.1369  0.1935  0.1063
   12SAPS    HX 1493  -0.242   4.379   6.465 -0.8851  0.1323  0.0756
   12SAPS    HY 1494  -0.346   4.443   6.588 -0.7576 -0.2773 -1.7859
   12SAPS   O31 1495  -0.129   4.461   6.628  0.1034  0.1408 -0.5590
   12SAPS   C31 1496  -0.159   4.499   6.749 -0.2578 -0.1001  0.1508
   12SAPS   O32 1497  -0.272   4.499   6.798  0.0391  0.0171 -0.5069
   12SAPS   C32 1498  -0.033   4.528   6.827  0.2507  0.5456  0.2023
   12SAPS   H2X 1499   0.040   4.565   6.753  0.3340  0.0523  0.0313
   12SAPS   H2Y 1500  -0.000   4.429   6.867  2.2596  1.2871  0.5099
   12SAPS   C23 1501  -0.150   4.934   6.627  0.4445 -0.0100 -0.3654
   12SAPS   H3R 1502  -0.067   4.905   6.558 -0.8584 -1.7006 -1.3082
   12SAPS   H3S 1503  -0.173   4.856   6.702 -0.3516  0.6256  0.0561
   12SAPS   C24 1504  -0.142   5.067   6.705 -0.1564  0.1691 -0.5300
   12SAPS   H4R 1505  -0.241   5.089   6.751  0.6996  1.5211  0.7392
   12SAPS   H4S 1506  -0.113   5.147   6.633  0.9813 -0.9822 -1.3849
   12SAPS   C25 1507  -0.030   5.063   6.808 -0.2798  0.3238  0.1854
   12SAPS   H5R 1508   0.052   5.010   6.758 -1.0118 -0.9759  0.3121
   12SAPS   C26 1509  -0.025   5.095   6.935  0.1558  0.1184 -0.7604
   12SAPS   H6R 1510   0.070   5.073   6.986 -1.2927 -1.4714  1.4341
   12SAPS   C27 1511  -0.136   5.153   7.023  0.8367 -0.2549 -0.0642
   12SAPS   H7R 1512  -0.219   5.173   6.953  0.8380 -1.9487 -0.6007
   12SAPS   H7S 1513  -0.101   5.250   7.063  0.8017 -0.2317 -0.0905
   12SAPS   C28 1514  -0.188   5.073   7.135 -0.1561 -0.3310 -0.7268
   12SAPS   H8R 1515  -0.127   4.982   7.142 -0.6295 -0.6854 -1.1664
   12SAPS   C29 1516  -0.301   5.099   7.213 -0.8984 -0.6675 -0.1149
   12SAPS   H9R 1517  -0.336   5.037   7.297 -0.3508  0.7283  1.1876
   12SAPS  C210 1518  -0.384   5.221   7.194 -0.1356 -0.1606 -0.6010
   12SAPS  H10R 1519  -0.379   5.268   7.093 -0.3561 -0.9808 -1.0049
   12SAPS  H10S 1520  -0.348   5.302   7.261 -0.2196 -0.6853  0.0902
   12SAPS  C211 1521  -0.527   5.183   7.214  1.2418  0.0421 -0.7466
   12SAPS  H11R 1522  -0.593   5.187   7.125 -0.5177 -0.1235  0.4907
   12SAPS  C212 1523  -0.588   5.166   7.336 -0.2172  0.0824  0.2516
   12SAPS  H12R 1524  -0.695   5.142   7.327 -0.1155 -0.6889  0.9162
   12SAPS  C213 1525  -0.535   5.162   7.477  0.1122  0.4703  0.7416
   12SAPS  H13R 1526  -0.425   5.174   7.471  0.2498 -1.3520 -2.1751
   12SAPS  H13S 1527  -0.542   5.058   7.517 -0.5641 -2.2155 -5.3107
   12SAPS  C214 1528  -0.601   5.274   7.548  0.3750 -0.2166  0.5230
   12SAPS  H14R 1529  -0.605   5.369   7.494 -1.6983 -0.1844  0.6519
   12SAPS  C215 1530  -0.676   5.250   7.660  0.2905  0.4306  0.1426
   12SAPS  H15R 1531  -0.719   5.338   7.709 -0.4263  0.6780 -0.8946
   12SAPS  C216 1532  -0.694   5.119   7.731  0.0629 -0.3995  0.2823
   12SAPS  H16R 1533  -0.732   5.139   7.833  0.0162  0.1447  0.1632
   12SAPS  H16S 1534  -0.596   5.067   7.743 -0.3022 -0.9499  0.8723
   12SAPS  C217 1535  -0.801   5.031   7.667  0.5272 -0.0044 -0.3370
   12SAPS  H17R 1536  -0.806   4.940   7.732  0.4996 -1.0259 -1.7205
   12SAPS  H17S 1537  -0.798   5.013   7.558 -0.1968 -0.0238 -0.3621
   12SAPS  C218 1538  -0.939   5.097   7.682 -0.6607  0.0278 -0.1996
   12SAPS  H18R 1539  -0.925   5.185   7.614  0.8824 -0.6085 -0.7585
   12SAPS  H18S 1540  -0.960   5.131   7.785  2.3803  0.6093  0.3075
   12SAPS  C219 1541  -1.056   5.024   7.625  0.3927  0.5787 -0.1474
   12SAPS  H19R 1542  -1.016   4.960   7.543 -0.9264  0.9023 -1.0792
   12SAPS  H19S 1543  -1.132   5.098   7.591 -1.5623 -2.0743 -1.8729
   12SAPS  C220 1544  -1.124   4.935   7.733 -0.0313  0.4650 -0.2933
   12SAPS  H20R 1545  -1.047   4.866   7.773  0.2799 -0.2955 -2.1063
   12SAPS  H20S 1546  -1.203   4.867   7.694  0.0559  1.2399 -1.9007
   12SAPS  H20T 1547  -1.165   4.994   7.818  1.2084 -0.3066  0.8802
   12SAPS   C33 1548  -0.044   4.626   6.956 -0.6579 -0.1884  0.0740
   12SAPS   H3X 1549  -0.149   4.633   6.991 -0.2847  1.2421  0.9753
   12SAPS   H3Y 1550  -0.018   4.726   6.915 -1.5222  0.6954  1.6270
   12SAPS   C34 1551   0.058   4.589   7.075 -0.2645 -0.4017  0.4352
   12SAPS   H4X 1552   0.162   4.606   7.041 -0.8672  0.9154 -0.9008
   12SAPS   H4Y 1553   0.027   4.488   7.109 -1.2033 -0.0863  0.5537
   12SAPS   C35 1554   0.042   4.670   7.204 -0.5527  0.4708 -0.4566
   12SAPS   H5X 1555  -0.063   4.648   7.233 -0.1856  1.5789  2.0166
   12SAPS   H5Y 1556   0.047   4.778   7.183 -1.7675  0.3250 -1.5913
   12SAPS   C36 1557   0.117   4.622   7.338  0.4919  0.7419  0.6329
   12SAPS   H6X 1558   0.227   4.634   7.321  0.3231  1.2792 -0.1292
   12SAPS   H6Y 1559   0.092   4.515   7.353 -1.6461  1.2179  0.7886
   12SAPS   C37 1560   0.080   4.705   7.459 -1.0594 -0.0758 -0.4252
   12SAPS   H7X 1561  -0.019   4.661   7.483  0.5646 -1.4571  5.2200
   12SAPS   H7Y 1562   0.084   4.812   7.429  0.7558 -0.2323 -0.8867
   12SAPS   C38 1563   0.174   4.677   7.571  0.0107  0.0051 -0.1970
   12SAPS   H8X 1564   0.280   4.680   7.536  0.2676  0.6151  0.6063
   12SAPS   H8Y 1565   0.155   4.574   7.608 -2.0762  1.3254  2.8379
   12SAPS   C39 1566   0.150   4.767   7.695 -0.5082  0.4703 -0.5613
   12SAPS   H9X 1567   0.043   4.762   7.725 -0.7704 -0.4700 -1.5753
   12SAPS   H9Y 1568   0.177   4.869   7.659  2.3004 -0.2706 -0.8051
   12SAPS  C310 1569   0.213   4.730   7.832 -0.0720  0.1165  0.4051
   12SAPS  H10X 1570   0.323   4.745   7.829  0.1235 -1.0876  0.8046
   12SAPS  H10Y 1571   0.200   4.620   7.837 -0.5315  0.0904 -0.8822
   12SAPS  C311 1572   0.153   4.796   7.954  0.2586  0.4100 -0.2168
   12SAPS  H11X 1573   0.058   4.751   7.991 -0.1897  2.4664  1.3364
   12SAPS  H11Y 1574   0.140   4.906   7.946  3.1080  0.7550 -1.6122
   12SAPS  C312 1575   0.247   4.776   8.075 -0.1926  0.2086  0.4221
   12SAPS  H12X 1576   0.351   4.801   8.045 -1.1179  0.6620 -2.7887
   12SAPS  H12Y 1577   0.242   4.669   8.103 -0.9643  0.4836  1.3934
   12SAPS  C313 1578   0.198   4.868   8.195  0.8741 -0.1092 -0.5980
   12SAPS  H13X 1579   0.195   4.968   8.146 -1.2704 -0.5889 -1.5384
   12SAPS  H13Y 1580   0.275   4.869   8.276  2.0314 -1.1420 -1.6521
   12SAPS  C314 1581   0.054   4.825   8.232 -0.3827 -0.7780  0.4598
   12SAPS  H14X 1582   0.048   4.719   8.265 -1.1553 -0.2934  1.9714
   12SAPS  H14Y 1583  -0.013   4.839   8.144 -1.1664  0.2106  1.1930
   12SAPS  C315 1584   0.001   4.908   8.351  0.1389 -0.5559  0.0516
   12SAPS  H15X 1585   0.089   4.916   8.418  2.7800  1.7059 -3.3485
   12SAPS  H15Y 1586  -0.080   4.855   8.405 -0.3086  2.0425  2.0780
   12SAPS  C316 1587  -0.049   5.048   8.303 -0.4610  0.1859  0.2539
   12SAPS  H16X 1588  -0.139   5.036   8.240 -0.4457 -2.2556  0.5986
   12SAPS  H16Y 1589   0.031   5.103   8.249  0.6975 -0.9749  0.7181
   12SAPS  C317 1590  -0.086   5.150   8.419  0.1991  0.6841 -0.0117
   12SAPS  H17X 1591  -0.097   5.247   8.368 -0.1329  0.9199  0.5029
   12SAPS  H17Y 1592  -0.004   5.167   8.493 -0.1626 -1.1204  0.8601
   12SAPS  C318 1593  -0.219   5.104   8.489 -0.5087 -0.2160  0.6811
   12SAPS  H18X 1594  -0.245   5.172   8.574 -3.7535  0.6601 -0.8551
   12SAPS  H18Y 1595  -0.202   5.002   8.529 -1.6519 -0.9093 -0.5213
   12SAPS  H18Z 1596  -0.307   5.110   8.421 -0.7245  0.7157  1.0214
   13SAPS     N 1597   5.776   1.203   5.941 -0.1126  0.3071 -0.0673
   13SAPS   HN1 1598   5.880   1.192   5.937 -0.2503 -1.6409  0.4932
   13SAPS   HN2 1599   5.734   1.189   5.847  0.3533  0.2459 -0.2720
   13SAPS   HN3 1600   5.738   1.284   5.994 -0.7795  0.9363 -1.4710
   13SAPS   C12 1601   5.725   1.085   6.014 -0.1894  0.4943  0.2819
   13SAPS  H12A 1602   5.702   1.104   6.118 -0.3989  1.4892  0.0673
   13SAPS   C13 1603   5.596   1.008   5.959 -0.4352  0.4950 -0.2212
   13SAPS  O13A 1604   5.557   1.038   5.844  0.2285  0.0248  0.5593
   13SAPS  O13B 1605   5.547   0.910   6.018 -0.0867  0.0141  0.1932
   13SAPS   C11 1606   5.842   0.969   6.015  0.0478 -0.4779 -0.0371
   13SAPS  H11A 1607   5.843   0.949   5.906 -2.3389 -1.4394  0.0610
   13SAPS  H11B 1608   5.801   0.873   6.053 -1.3140 -0.5600 -1.6182
   13SAPS     P 1609   6.084   1.048   5.992  0.2448 -0.3203 -0.2555
   13SAPS   O13 1610   6.161   0.925   5.960  0.2655 -0.5722  0.2936
   13SAPS   O14 1611   6.038   1.137   5.881 -0.2401 -0.4678 -0.6168
   13SAPS   O12 1612   5.960   1.007   6.086 -0.2502 -0.3534  0.4106
   13SAPS   O11 1613   6.176   1.139   6.081  0.5180  0.2851  0.3012
   13SAPS    C1 1614   6.146   1.171   6.215 -0.2076 -1.0454  0.0698
   13SAPS    HA 1615   6.046   1.220   6.224  0.8277  1.4064 -0.8971
   13SAPS    HB 1616   6.145   1.085   6.285  2.6421 -0.3615  1.0822
   13SAPS    C2 1617   6.241   1.280   6.275 -0.2110 -0.3683  0.2551
   13SAPS    HS 1618   6.319   1.298   6.198 -1.6808 -1.0942 -1.4956
   13SAPS   O21 1619   6.289   1.231   6.397 -0.1638  0.2690  0.4002
   13SAPS   C21 1620   6.408   1.282   6.431 -0.0437  0.2844 -0.1260
   13SAPS   O22 1621   6.479   1.353   6.359 -0.5591  0.0263  0.3862
   13SAPS   C22 1622   6.462   1.195   6.553 -0.4805 -0.9116  0.1688
   13SAPS   H2R 1623   6.512   1.108   6.504  1.5879  0.0820  0.4166
   13SAPS   H2S 1624   6.540   1.246   6.613 -0.4970 -1.5873  0.7794
   13SAPS    C3 1625   6.182   1.421   6.292 -0.3279 -0.2204 -0.2997
   13SAPS    HX 1626   6.142   1.460   6.196  0.3573  2.3787  0.3942
   13SAPS    HY 1627   6.266   1.484   6.328 -2.3170  1.4064  1.6952
   13SAPS   O31 1628   6.070   1.430   6.386  0.3372  0.0344  0.5774
   13SAPS   C31 1629   6.043   1.554   6.428  0.1022  0.3048 -0.2160
   13SAPS   O32 1630   6.116   1.651   6.406  0.7727  0.0083  0.1671
   13SAPS   C32 1631   5.902   1.554   6.489 -0.5981 -0.2311  0.3596
   13SAPS   H2X 1632   5.888   1.452   6.532  2.5787 -2.2851 -2.8824
   13SAPS   H2Y 1633   5.827   1.555   6.407 -1.1905 -4.3340  0.6581
   13SAPS   C23 1634   6.351   1.131   6.648  0.0393  0.5645  0.2977
   13SAPS   H3R 1635   6.264   1.084   6.597 -0.4035 -0.3317  1.8503
   13SAPS   H3S 1636   6.308   1.206   6.718 -0.1202  1.7425 -1.0043
   13SAPS   C24 1637   6.400   1.014   6.743 -0.3786 -0.0449  0.3774
   13SAPS   H4R 1638   6.471   1.056   6.818 -1.4532  0.7463  0.9703
   13SAPS   H4S 1639   6.458   0.940   6.682  0.2515  1.7408 -1.3102
   13SAPS   C25 1640   6.308   0.938   6.825  0.9701 -0.0651 -0.3021
   13SAPS   H5R 1641   6.225   0.885   6.777  0.6135 -0.1899  0.4377
   13SAPS   C26 1642   6.306   0.921   6.960 -0.7273  0.2952 -0.1288
   13SAPS   H6R 1643   6.235   0.851   7.007  0.5025 -1.4893 -0.8322
   13SAPS   C27 1644   6.397   0.985   7.065  0.5463  0.7293 -0.0644
   13SAPS   H7R 1645   6.498   0.989   7.018  0.6012 -2.1188 -0.4086
   13SAPS   H7S 1646   6.410   0.911   7.147 -0.8321  1.0665  0.4740
   13SAPS   C28 1647   6.363   1.121   7.110  0.6947 -0.5479  0.7460
   13SAPS   H8R 1648   6.407   1.192   7.038 -1.2324 -0.5896 -0.5758
   13SAPS   C29 1649   6.290   1.160   7.217  0.3609  0.1397  0.0013
   13SAPS   H9R 1650   6.277   1.268   7.232  1.4578  0.0821  1.5863
   13SAPS  C210 1651   6.228   1.066   7.323  1.0201 -0.4756 -0.0074
   13SAPS  H10R 1652   6.282   0.968   7.316  3.9426  1.1121 -1.5943
   13SAPS  H10S 1653   6.121   1.058   7.298  1.1787  0.5992 -1.0979
   13SAPS  C211 1654   6.252   1.104   7.462  0.4544 -0.4290  0.0502
   13SAPS  H11R 1655   6.350   1.149   7.482  0.0552  0.0206  1.0695
   13SAPS  C212 1656   6.171   1.109   7.569 -0.1415 -0.6095  0.0759
   13SAPS  H12R 1657   6.220   1.153   7.658 -2.3561  0.4495  0.8527
   13SAPS  C213 1658   6.024   1.071   7.578 -0.1731 -0.8207 -0.5484
   13SAPS  H13R 1659   6.012   0.971   7.624  1.1277 -0.6728  0.1566
   13SAPS  H13S 1660   5.986   1.082   7.474 -1.4414 -1.8366 -0.2073
   13SAPS  C214 1661   5.947   1.175   7.657 -0.4029 -0.2731 -0.3316
   13SAPS  H14R 1662   5.905   1.262   7.605 -1.4337 -0.4601  0.1621
   13SAPS  C215 1663   5.926   1.171   7.794 -0.0372 -0.3247 -0.5721
   13SAPS  H15R 1664   5.850   1.243   7.826  0.3726 -0.5038  0.8778
   13SAPS  C216 1665   5.972   1.080   7.908  0.1821 -0.4174 -0.8451
   13SAPS  H16R 1666   6.081   1.059   7.899  0.2383 -0.8124  0.5342
   13SAPS  H16S 1667   5.920   0.982   7.907  1.4333 -1.2507  2.3790
   13SAPS  C217 1668   5.938   1.132   8.055  0.1481  0.3021 -0.1242
   13SAPS  H17R 1669   5.830   1.159   8.056  0.6201  2.3621  1.6369
   13SAPS  H17S 1670   5.988   1.227   8.082 -2.6486  2.2688 -1.3772
   13SAPS  C218 1671   5.964   1.024   8.166  0.3424 -0.5601  0.0476
   13SAPS  H18R 1672   5.896   0.939   8.145 -2.6360  1.5113  0.6550
   13SAPS  H18S 1673   5.927   1.059   8.265 -2.3943 -1.5870 -0.5226
   13SAPS  C219 1674   6.105   0.964   8.165  0.8132 -0.7094 -0.0876
   13SAPS  H19R 1675   6.194   1.030   8.176 -0.0176  0.8348 -2.0620
   13SAPS  H19S 1676   6.117   0.925   8.062  1.3885 -0.4166 -0.1345
   13SAPS  C220 1677   6.115   0.842   8.260  0.2458 -0.4939 -0.3035
   13SAPS  H20R 1678   6.207   0.784   8.238  0.3437 -1.2716  1.8373
   13SAPS  H20S 1679   6.027   0.774   8.263  1.0143 -1.4903  0.7734
   13SAPS  H20T 1680   6.116   0.885   8.363 -1.7621 -2.7009  0.7432
   13SAPS   C33 1681   5.881   1.676   6.586 -0.1585  0.6580 -0.5951
   13SAPS   H3X 1682   5.776   1.671   6.623  0.3686 -2.3920  0.7445
   13SAPS   H3Y 1683   5.881   1.772   6.529  1.9582  1.2794  0.3360
   13SAPS   C34 1684   5.969   1.694   6.713 -0.6729 -0.0889  1.1722
   13SAPS   H4X 1685   6.078   1.704   6.692 -1.0444  1.0489 -0.4985
   13SAPS   H4Y 1686   5.949   1.598   6.763 -0.9165 -1.2505 -1.0141
   13SAPS   C35 1687   5.922   1.808   6.804  0.2308 -0.4402 -0.4629
   13SAPS   H5X 1688   5.813   1.794   6.823  0.4880 -2.0540  0.0225
   13SAPS   H5Y 1689   5.926   1.902   6.745 -1.0414  1.9325  2.9287
   13SAPS   C36 1690   6.013   1.832   6.928  0.5155 -0.3351  0.1101
   13SAPS   H6X 1691   6.119   1.855   6.906 -0.4422  1.3638 -3.4777
   13SAPS   H6Y 1692   6.013   1.731   6.976 -0.5107 -0.7221 -0.6630
   13SAPS   C37 1693   5.950   1.939   7.026  0.1872 -0.2480 -0.5398
   13SAPS   H7X 1694   5.861   1.888   7.070  1.4010 -0.3825  1.9091
   13SAPS   H7Y 1695   5.912   2.035   6.985  2.3629  0.6463 -0.5582
   13SAPS   C38 1696   6.045   1.963   7.147  0.2985  0.3451  0.1398
   13SAPS   H8X 1697   6.112   2.045   7.114  1.0471  0.0465  0.8796
   13SAPS   H8Y 1698   6.116   1.878   7.152  0.0233  0.1144  0.1586
   13SAPS   C39 1699   5.966   1.993   7.271 -0.0415 -0.2912 -1.1428
   13SAPS   H9X 1700   5.932   1.899   7.320 -0.0167 -0.5571 -1.6261
   13SAPS   H9Y 1701   5.879   2.058   7.249 -0.6081 -0.9844 -0.9958
   13SAPS  C310 1702   6.047   2.062   7.382 -0.0606 -0.1678 -0.4342
   13SAPS  H10X 1703   6.089   2.156   7.343  0.6908 -0.6299 -0.7609
   13SAPS  H10Y 1704   6.133   1.993   7.392  0.7022  0.6202 -1.3835
   13SAPS  C311 1705   5.959   2.081   7.503  0.7403 -0.8744 -0.2747
   13SAPS  H11X 1706   5.911   1.986   7.534 -3.1237  0.2911 -2.0957
   13SAPS  H11Y 1707   5.881   2.153   7.471  1.0070 -1.1617 -1.6227
   13SAPS  C312 1708   6.036   2.140   7.628  0.1878  0.2156 -0.5092
   13SAPS  H12X 1709   6.076   2.236   7.590  0.1197 -0.0688 -1.3197
   13SAPS  H12Y 1710   6.125   2.080   7.658 -0.8466 -1.5744 -0.8349
   13SAPS  C313 1711   5.944   2.181   7.739  0.7550 -0.8804 -0.0223
   13SAPS  H13X 1712   5.865   2.105   7.758 -1.5561  1.0992 -1.0979
   13SAPS  H13Y 1713   5.871   2.263   7.718  0.2223 -1.3226  0.0910
   13SAPS  C314 1714   6.012   2.217   7.872 -0.5297  0.0691  0.3743
   13SAPS  H14X 1715   6.072   2.310   7.863  1.9421 -1.6026 -2.9218
   13SAPS  H14Y 1716   6.089   2.139   7.889 -1.1642 -0.5640  0.3729
   13SAPS  C315 1717   5.927   2.209   8.002  0.0927 -0.6492 -0.7302
   13SAPS  H15X 1718   5.989   2.213   8.094 -3.0375 -0.9145  1.5897
   13SAPS  H15Y 1719   5.877   2.110   7.992  3.9234 -2.5825 -3.0794
   13SAPS  C316 1720   5.824   2.318   8.010 -0.1986 -0.1399  0.7337
   13SAPS  H16X 1721   5.773   2.333   7.913 -1.6301 -0.4640  1.4163
   13SAPS  H16Y 1722   5.872   2.416   8.033  0.2713 -0.3039  0.4706
   13SAPS  C317 1723   5.721   2.304   8.118  0.1776 -0.2726  0.1823
   13SAPS  H17X 1724   5.668   2.209   8.094  1.2381 -1.2464  1.5642
   13SAPS  H17Y 1725   5.654   2.392   8.102  0.5008 -0.1503 -0.5029
   13SAPS  C318 1726   5.781   2.296   8.255 -0.3067  0.1382 -1.0497
   13SAPS  H18X 1727   5.710   2.330   8.333  0.0086  1.8728 -1.4606
   13SAPS  H18Y 1728   5.864   2.369   8.271 -0.7632  0.9064 -2.0446
   13SAPS  H18Z 1729   5.800   2.188   8.273 -1.0281 -0.4219 -3.2928
   14SAPS     N 1730   5.741   2.808   5.804  0.0830  0.3571  0.9090
   14SAPS   HN1 1731   5.724   2.762   5.713 -1.5070  1.5484  0.5639
   14SAPS   HN2 1732   5.841   2.833   5.809 -0.1923  1.2972  2.3386
   14SAPS   HN3 1733   5.710   2.743   5.880 -0.7725 -0.2093  0.0932
   14SAPS   C12 1734   5.666   2.930   5.798 -0.2368 -0.2071 -0.1923
   14SAPS  H12A 1735   5.694   2.985   5.886  1.1677  0.3245 -0.9469
   14SAPS   C13 1736   5.691   3.028   5.684 -0.6734  0.9511  0.3821
   14SAPS  O13A 1737   5.752   2.986   5.581 -0.2170 -0.1698  0.3334
   14SAPS  O13B 1738   5.666   3.151   5.704 -0.0168 -0.7342  0.5037
   14SAPS   C11 1739   5.515   2.890   5.784  0.2593 -0.1421  1.2110
   14SAPS  H11A 1740   5.500   2.851   5.681 -0.2043  0.2215  1.1334
   14SAPS  H11B 1741   5.439   2.971   5.791  0.1141 -0.1822  0.2265
   14SAPS     P 1742   5.409   2.797   6.008 -0.1175 -0.3936  0.4099
   14SAPS   O13 1743   5.265   2.813   5.999  0.2752 -0.4915 -0.0283
   14SAPS   O14 1744   5.453   2.684   6.091  0.5718 -0.0920 -0.5688
   14SAPS   O12 1745   5.472   2.781   5.867  0.5427 -0.2249 -0.1494
   14SAPS   O11 1746   5.476   2.935   6.058  0.2377 -0.1092  0.1521
   14SAPS    C1 1747   5.576   2.945   6.162  0.3140  0.3988 -0.7891
   14SAPS    HA 1748   5.649   2.863   6.147 -1.3562 -1.5290  1.1098
   14SAPS    HB 1749   5.632   3.042   6.159 -0.9194  1.1552 -0.1125
   14SAPS    C2 1750   5.509   2.923   6.299 -0.2499 -0.5557  0.1530
   14SAPS    HS 1751   5.468   2.820   6.295 -0.3376 -0.6092  1.7434
   14SAPS   O21 1752   5.398   3.022   6.303 -0.2970  0.8002 -0.5286
   14SAPS   C21 1753   5.296   2.994   6.389  0.3313  0.5538  0.0210
   14SAPS   O22 1754   5.284   2.891   6.446 -0.0554 -0.2408  0.0812
   14SAPS   C22 1755   5.183   3.097   6.389 -0.0306 -0.9843 -0.1428
   14SAPS   H2R 1756   5.173   3.151   6.293 -1.2539  0.9989  1.0509
   14SAPS   H2S 1757   5.087   3.042   6.399 -1.4305  0.6103 -3.4243
   14SAPS    C3 1758   5.615   2.930   6.416 -0.4168  0.3697 -0.0898
   14SAPS    HX 1759   5.696   3.003   6.394 -0.5275  0.1381 -1.3494
   14SAPS    HY 1760   5.673   2.835   6.419  1.7425  1.6619  1.3806
   14SAPS   O31 1761   5.548   2.944   6.541  0.2340 -0.1828  0.8213
   14SAPS   C31 1762   5.617   2.918   6.643 -1.0561  0.4096  0.3581
   14SAPS   O32 1763   5.732   2.870   6.644  0.1219  0.6096  0.2043
   14SAPS   C32 1764   5.542   2.950   6.770 -0.8042  0.2161 -0.1195
   14SAPS   H2X 1765   5.462   2.873   6.779  1.1730 -2.0973 -1.1199
   14SAPS   H2Y 1766   5.491   3.048   6.759 -1.0064  0.1670  0.3961
   14SAPS   C23 1767   5.184   3.203   6.506 -0.2421  0.3776  0.2826
   14SAPS   H3R 1768   5.081   3.243   6.515  0.0390  1.1928 -0.0691
   14SAPS   H3S 1769   5.255   3.287   6.495 -1.5641  1.2785 -1.8973
   14SAPS   C24 1770   5.214   3.132   6.644 -0.1112 -0.5938 -0.1290
   14SAPS   H4R 1771   5.189   3.209   6.720 -3.0330 -1.6374  0.0934
   14SAPS   H4S 1772   5.323   3.108   6.653  0.1240  0.6167  0.4462
   14SAPS   C25 1773   5.147   3.003   6.684 -0.4620 -0.0811 -0.3652
   14SAPS   H5R 1774   5.143   2.935   6.598  0.4356 -0.2005 -0.3226
   14SAPS   C26 1775   5.085   2.964   6.800 -1.2358  0.2557  0.8213
   14SAPS   H6R 1776   5.035   2.866   6.801  1.5207 -1.2771  1.1373
   14SAPS   C27 1777   5.080   3.042   6.922  0.0136  0.3517 -0.2531
   14SAPS   H7R 1778   4.991   3.022   6.985 -0.4174  1.3037 -0.5402
   14SAPS   H7S 1779   5.058   3.151   6.913 -0.8126  0.2163  0.0475
   14SAPS   C28 1780   5.197   3.014   7.006 -0.4355 -0.1866 -0.1286
   14SAPS   H8R 1781   5.283   2.975   6.951 -1.6269  1.2566 -3.2646
   14SAPS   C29 1782   5.213   3.057   7.128  0.2455 -0.3111 -0.8124
   14SAPS   H9R 1783   5.309   3.048   7.181 -0.8645 -4.2979  0.8876
   14SAPS  C210 1784   5.116   3.141   7.202 -0.6617 -0.1006  0.2765
   14SAPS  H10R 1785   5.049   3.197   7.134 -0.0766 -0.3062 -0.4729
   14SAPS  H10S 1786   5.174   3.214   7.263 -2.5176  1.5479  0.1925
   14SAPS  C211 1787   5.027   3.072   7.300  0.3371 -0.1951 -0.1333
   14SAPS  H11R 1788   4.930   3.036   7.262 -0.8255  1.5349  1.0114
   14SAPS  C212 1789   5.056   3.044   7.430 -0.0214  0.2940 -0.4492
   14SAPS  H12R 1790   4.979   3.001   7.496 -0.1792  0.9470 -0.1965
   14SAPS  C213 1791   5.180   3.081   7.506 -0.8182  0.3031 -0.1063
   14SAPS  H13R 1792   5.150   3.157   7.581 -0.8603  1.7730 -1.5599
   14SAPS  H13S 1793   5.263   3.121   7.444  0.3884 -1.2990  0.3908
   14SAPS  C214 1794   5.258   2.971   7.564 -0.3229  0.1786 -0.1983
   14SAPS  H14R 1795   5.302   2.902   7.491  2.1925  0.6589  0.7478
   14SAPS  C215 1796   5.290   2.945   7.692 -0.0515 -0.0570  0.7289
   14SAPS  H15R 1797   5.347   2.853   7.713 -0.3895 -0.8163 -1.4485
   14SAPS  C216 1798   5.232   3.020   7.806  0.6057  1.1705  0.0821
   14SAPS  H16R 1799   5.200   3.124   7.782 -2.7207 -0.1566 -2.0412
   14SAPS  H16S 1800   5.308   3.027   7.886  0.9611 -0.3112 -0.0905
   14SAPS  C217 1801   5.102   2.967   7.873 -0.6143 -0.2102 -0.4017
   14SAPS  H17R 1802   5.136   2.872   7.918  1.1483 -0.3993 -2.0116
   14SAPS  H17S 1803   5.021   2.947   7.799 -1.1508  0.6683 -0.0678
   14SAPS  C218 1804   5.051   3.063   7.989  0.3793  0.1618 -0.8706
   14SAPS  H18R 1805   5.111   3.051   8.081 -0.1333 -4.5193 -0.8651
   14SAPS  H18S 1806   4.955   3.021   8.028  0.1442  1.6675  0.2746
   14SAPS  C219 1807   5.019   3.203   7.952  0.5843 -1.4089 -0.1558
   14SAPS  H19R 1808   4.964   3.217   7.856  0.7707  2.2942  0.1577
   14SAPS  H19S 1809   5.110   3.266   7.951 -0.8781  0.9704  2.7153
   14SAPS  C220 1810   4.930   3.284   8.053 -0.4265 -0.4379 -0.1788
   14SAPS  H20R 1811   4.841   3.233   8.094  0.1300  0.8780  3.0008
   14SAPS  H20S 1812   4.915   3.388   8.016  1.7960 -0.6706 -1.9936
   14SAPS  H20T 1813   4.987   3.294   8.148 -1.5426  2.5272  0.2904
   14SAPS   C33 1814   5.633   2.933   6.896  0.3024 -0.1442  0.0850
   14SAPS   H3X 1815   5.708   3.014   6.888 -0.5623  0.6864  0.0724
   14SAPS   H3Y 1816   5.678   2.832   6.893  0.2606 -0.1392 -0.9769
   14SAPS   C34 1817   5.551   2.956   7.024  0.2022 -0.4364  0.2476
   14SAPS   H4X 1818   5.483   2.868   7.029 -2.1095  0.9032 -3.4932
   14SAPS   H4Y 1819   5.489   3.045   6.999  1.2419  0.4588  0.7934
   14SAPS   C35 1820   5.632   2.960   7.149 -0.0302 -0.6874 -0.0672
   14SAPS   H5X 1821   5.734   2.999   7.126  0.4926 -1.5207  0.7697
   14SAPS   H5Y 1822   5.647   2.852   7.173  1.2483 -0.4611  0.2183
   14SAPS   C36 1823   5.567   3.023   7.282 -0.6311 -0.0518  0.2829
   14SAPS   H6X 1824   5.481   2.960   7.316  0.6553 -1.2418  1.4571
   14SAPS   H6Y 1825   5.517   3.117   7.251 -2.1975 -0.5500  1.1571
   14SAPS   C37 1826   5.666   3.045   7.398  0.4022 -0.3944 -0.1119
   14SAPS   H7X 1827   5.759   3.091   7.357  0.5813 -1.6966 -1.2392
   14SAPS   H7Y 1828   5.689   2.944   7.439 -2.1773 -0.4381  1.4108
   14SAPS   C38 1829   5.618   3.132   7.512  0.0368 -0.0973  0.1836
   14SAPS   H8X 1830   5.514   3.107   7.541  0.0801  1.0847  1.4700
   14SAPS   H8Y 1831   5.622   3.239   7.483 -0.1363 -0.0306  0.4017
   14SAPS   C39 1832   5.702   3.128   7.640  0.0163 -0.0474  0.5312
   14SAPS   H9X 1833   5.801   3.172   7.612 -0.4984 -0.0015 -1.3206
   14SAPS   H9Y 1834   5.716   3.021   7.665  1.1053  0.2744  1.4034
   14SAPS  C310 1835   5.637   3.183   7.764 -0.3968  0.0119  0.3207
   14SAPS  H10X 1836   5.537   3.137   7.780  0.8722 -3.4733 -0.8352
   14SAPS  H10Y 1837   5.626   3.291   7.744  0.6930  0.2482  0.9324
   14SAPS  C311 1838   5.733   3.153   7.885  0.0954 -1.1250  0.3502
   14SAPS  H11X 1839   5.825   3.211   7.865 -0.9381  0.3277 -0.4096
   14SAPS  H11Y 1840   5.752   3.043   7.880  0.3970 -1.0586  0.0472
   14SAPS  C312 1841   5.669   3.205   8.017  0.1570  0.4720  0.0315
   14SAPS  H12X 1842   5.646   3.313   8.024 -1.7119  0.0216  1.5068
   14SAPS  H12Y 1843   5.744   3.187   8.097 -0.2818  3.0949  1.1080
   14SAPS  C313 1844   5.540   3.127   8.061  0.5979 -0.6705  0.5978
   14SAPS  H13X 1845   5.549   3.023   8.023  0.6957 -0.5306  0.2426
   14SAPS  H13Y 1846   5.452   3.175   8.012  1.3755 -0.7122 -0.8769
   14SAPS  C314 1847   5.512   3.123   8.206 -0.2635  0.0854 -0.1635
   14SAPS  H14X 1848   5.505   3.227   8.244  0.2992  0.6791 -1.6363
   14SAPS  H14Y 1849   5.603   3.073   8.245  0.1574  1.5543  0.8004
   14SAPS  C315 1850   5.394   3.047   8.257 -0.3592  0.4015 -0.5216
   14SAPS  H15X 1851   5.415   2.939   8.244 -2.8497 -0.1760 -0.2838
   14SAPS  H15Y 1852   5.299   3.077   8.206 -0.0152 -0.8558 -1.9687
   14SAPS  C316 1853   5.367   3.075   8.410  0.5318 -0.0862  0.1343
   14SAPS  H16X 1854   5.452   3.050   8.476  0.5713 -1.7531 -0.5069
   14SAPS  H16Y 1855   5.288   3.004   8.440 -0.3815  0.4320 -0.9577
   14SAPS  C317 1856   5.308   3.217   8.440 -0.4382  0.1039  0.0569
   14SAPS  H17X 1857   5.202   3.219   8.406 -0.8999 -2.4929  1.1143
   14SAPS  H17Y 1858   5.371   3.298   8.396  0.9373 -1.5416 -1.1200
   14SAPS  C318 1859   5.313   3.244   8.586  0.4885 -0.3916  0.3555
   14SAPS  H18X 1860   5.415   3.224   8.625  1.1228 -0.0669 -1.0970
   14SAPS  H18Y 1861   5.251   3.173   8.646  1.6826 -1.4358  0.3990
   14SAPS  H18Z 1862   5.297   3.348   8.621  0.5169 -0.7997  1.6514
   15SAPS     N 1863   6.473   2.948   6.223  0.3164  0.1201 -0.7527
   15SAPS   HN1 1864   6.530   2.870   6.185 -0.1463 -1.4602  1.6089
   15SAPS   HN2 1865   6.503   3.045   6.198 -2.5419  1.5326  0.8487
   15SAPS   HN3 1866   6.488   2.933   6.324 -1.7043 -0.1301 -0.4586
   15SAPS   C12 1867   6.326   2.940   6.196  0.2073 -0.6680  0.0542
   15SAPS  H12A 1868   6.285   3.018   6.259  0.6137 -0.7757  0.4553
   15SAPS   C13 1869   6.264   2.972   6.059  0.4528 -0.0229 -0.7084
   15SAPS  O13A 1870   6.331   2.995   5.954 -0.1454  0.2378 -0.1197
   15SAPS  O13B 1871   6.141   2.988   6.062  0.4645  0.0286  0.2929
   15SAPS   C11 1872   6.277   2.803   6.245 -0.2435  0.5104  0.5164
   15SAPS  H11A 1873   6.167   2.810   6.238 -0.5735 -2.3594  1.5986
   15SAPS  H11B 1874   6.303   2.792   6.353 -2.5206  0.8012  1.1504
   15SAPS     P 1875   6.296   2.550   6.184  0.1303 -0.0380 -0.3895
   15SAPS   O13 1876   6.160   2.523   6.134 -0.0623 -0.1904 -0.1547
   15SAPS   O14 1877   6.402   2.469   6.125 -0.0968 -0.2216 -0.9669
   15SAPS   O12 1878   6.331   2.695   6.165 -0.0085 -0.3029 -0.2860
   15SAPS   O11 1879   6.305   2.536   6.338  0.5886  0.3216 -0.2617
   15SAPS    C1 1880   6.186   2.505   6.415  0.0984  0.0995 -0.5841
   15SAPS    HA 1881   6.126   2.597   6.429 -0.0139  0.5583 -3.4433
   15SAPS    HB 1882   6.122   2.422   6.378 -3.0585  1.2950  1.7705
   15SAPS    C2 1883   6.224   2.447   6.555 -0.4018 -0.0056 -0.6285
   15SAPS    HS 1884   6.136   2.449   6.622 -1.4341  0.0573 -1.9636
   15SAPS   O21 1885   6.333   2.524   6.617 -0.2431 -0.0995  0.1110
   15SAPS   C21 1886   6.303   2.654   6.655  0.4696  0.4332 -0.0261
   15SAPS   O22 1887   6.190   2.702   6.642  0.9464 -0.7307 -0.4134
   15SAPS   C22 1888   6.407   2.710   6.748 -0.1908  0.2301  0.1884
   15SAPS   H2R 1889   6.462   2.625   6.796  0.9396  0.1649 -1.1519
   15SAPS   H2S 1890   6.479   2.770   6.688 -1.1779  0.6569 -0.5813
   15SAPS    C3 1891   6.262   2.301   6.541 -0.2265 -0.3343 -0.0116
   15SAPS    HX 1892   6.350   2.287   6.475  1.1132 -2.0738  2.0088
   15SAPS    HY 1893   6.182   2.237   6.499  1.2036 -0.1146 -3.4049
   15SAPS   O31 1894   6.296   2.252   6.670  0.1085  0.4033 -0.1605
   15SAPS   C31 1895   6.208   2.204   6.748 -0.3427 -0.1316  0.5642
   15SAPS   O32 1896   6.086   2.205   6.734  0.4855 -0.0413 -0.0784
   15SAPS   C32 1897   6.282   2.136   6.862  0.5302 -0.2342  0.0240
   15SAPS   H2X 1898   6.365   2.072   6.825  0.8241 -0.4049  0.9566
   15SAPS   H2Y 1899   6.204   2.073   6.909  0.1248  0.1207 -0.1629
   15SAPS   C23 1900   6.341   2.804   6.856  0.2119 -0.1867 -0.5398
   15SAPS   H3R 1901   6.275   2.763   6.935  0.9807  0.7054  0.6024
   15SAPS   H3S 1902   6.281   2.882   6.804 -1.8608 -1.1870  0.2661
   15SAPS   C24 1903   6.452   2.873   6.946 -0.6323 -0.0355  0.4791
   15SAPS   H4R 1904   6.420   2.967   6.997  0.0130  0.6577 -0.3610
   15SAPS   H4S 1905   6.533   2.906   6.877 -0.3664 -3.3446 -0.9913
   15SAPS   C25 1906   6.517   2.783   7.055 -0.4611  0.5389 -0.1258
   15SAPS   H5R 1907   6.590   2.714   7.010 -0.1959  0.4479  0.4342
   15SAPS   C26 1908   6.484   2.783   7.187 -0.6798  0.0220  0.5683
   15SAPS   H6R 1909   6.544   2.721   7.255  1.4094  1.7035  0.3746
   15SAPS   C27 1910   6.379   2.868   7.250 -0.5616 -0.2811  1.2964
   15SAPS   H7R 1911   6.329   2.804   7.326 -0.2870  0.5070  2.1595
   15SAPS   H7S 1912   6.301   2.890   7.174  1.7648  0.8628 -0.8760
   15SAPS   C28 1913   6.438   2.987   7.322 -0.2835  0.1693  0.0384
   15SAPS   H8R 1914   6.448   3.078   7.261 -1.2005  0.1125 -0.2128
   15SAPS   C29 1915   6.487   2.988   7.449  0.8198 -0.3540 -0.1678
   15SAPS   H9R 1916   6.512   3.089   7.484 -1.9889 -0.0432  1.2718
   15SAPS  C210 1917   6.485   2.871   7.553 -0.2843 -0.7498 -0.2910
   15SAPS  H10R 1918   6.573   2.898   7.615 -0.0199  0.7848 -1.2730
   15SAPS  H10S 1919   6.516   2.773   7.511 -1.6317 -1.7256  0.8843
   15SAPS  C211 1920   6.354   2.861   7.627  0.2469  0.1770  0.1725
   15SAPS  H11R 1921   6.287   2.791   7.574 -0.9772  1.3094  0.1698
   15SAPS  C212 1922   6.318   2.922   7.737  0.2713 -0.3112  0.9783
   15SAPS  H12R 1923   6.210   2.915   7.761  0.1093  1.1048  0.7471
   15SAPS  C213 1924   6.414   3.002   7.822 -0.3163  0.3496  0.2500
   15SAPS  H13R 1925   6.385   3.106   7.847 -0.7225 -0.0133  1.3254
   15SAPS  H13S 1926   6.503   3.026   7.759 -1.4201 -0.7958 -1.8579
   15SAPS  C214 1927   6.461   2.921   7.941 -0.5392 -0.8773 -0.8534
   15SAPS  H14R 1928   6.545   2.855   7.916  0.8383  0.1023  0.9923
   15SAPS  C215 1929   6.395   2.912   8.058  0.2756  0.4515  0.6316
   15SAPS  H15R 1930   6.439   2.848   8.136  0.0980  0.5189  0.7881
   15SAPS  C216 1931   6.261   2.976   8.084 -0.1182 -0.1127 -0.4640
   15SAPS  H16R 1932   6.188   2.899   8.116  0.0585 -0.2079 -0.2883
   15SAPS  H16S 1933   6.216   3.014   7.990 -0.1129 -2.1921 -1.3692
   15SAPS  C217 1934   6.265   3.076   8.190 -0.3073 -0.0158  0.2090
   15SAPS  H17R 1935   6.164   3.122   8.205 -1.1419 -2.0472  1.1998
   15SAPS  H17S 1936   6.340   3.153   8.161 -1.2916  0.1505 -2.1527
   15SAPS  C218 1937   6.318   3.016   8.317  0.9168  0.8759 -0.3020
   15SAPS  H18R 1938   6.408   2.951   8.317  0.2851 -0.1421  2.2960
   15SAPS  H18S 1939   6.232   2.954   8.350  1.8187 -0.6837 -0.7951
   15SAPS  C219 1940   6.330   3.113   8.433 -0.3742 -1.0247  0.1980
   15SAPS  H19R 1941   6.353   3.053   8.523 -0.3385 -0.0161  0.8770
   15SAPS  H19S 1942   6.239   3.174   8.447  0.8781  1.1330 -0.5706
   15SAPS  C220 1943   6.449   3.211   8.411 -0.2636 -0.9603  0.5576
   15SAPS  H20R 1944   6.544   3.161   8.382 -1.8338 -2.8426 -1.7507
   15SAPS  H20S 1945   6.468   3.271   8.503 -2.9060  0.0436  0.5526
   15SAPS  H20T 1946   6.433   3.289   8.333  0.2730  1.0835  2.3853
   15SAPS   C33 1947   6.347   2.238   6.955  1.0600 -0.1812 -0.1004
   15SAPS   H3X 1948   6.442   2.277   6.912  0.1235  1.3966 -0.8312
   15SAPS   H3Y 1949   6.392   2.168   7.028 -0.1531  0.3324  1.1844
   15SAPS   C34 1950   6.252   2.335   7.017 -0.1082 -0.4043  0.5690
   15SAPS   H4X 1951   6.174   2.274   7.068 -0.6605 -1.4144 -1.3862
   15SAPS   H4Y 1952   6.207   2.412   6.951  0.1616 -0.5732  0.1871
   15SAPS   C35 1953   6.326   2.426   7.117 -0.4208  0.0640  0.4838
   15SAPS   H5X 1954   6.278   2.526   7.117  0.4537  0.5755 -2.3086
   15SAPS   H5Y 1955   6.429   2.444   7.079 -0.1875  0.2094  1.1656
   15SAPS   C36 1956   6.343   2.362   7.258 -0.1266 -0.1916  0.2848
   15SAPS   H6X 1957   6.438   2.306   7.252  0.0799 -0.1264  2.3978
   15SAPS   H6Y 1958   6.252   2.306   7.288  0.2813 -1.4432 -0.7093
   15SAPS   C37 1959   6.368   2.468   7.381  0.2652  0.7615  0.7288
   15SAPS   H7X 1960   6.270   2.511   7.408 -1.9163 -3.6270  0.7456
   15SAPS   H7Y 1961   6.431   2.546   7.334 -0.4553  1.5149  1.0028
   15SAPS   C38 1962   6.458   2.409   7.495  0.1227 -0.5571  0.4308
   15SAPS   H8X 1963   6.552   2.368   7.451 -0.2249  0.9904 -1.9612
   15SAPS   H8Y 1964   6.403   2.316   7.520 -0.6536  0.4338  2.6761
   15SAPS   C39 1965   6.472   2.484   7.623  0.0190 -0.7606 -0.0291
   15SAPS   H9X 1966   6.498   2.589   7.599 -0.0960 -1.1795 -2.1069
   15SAPS   H9Y 1967   6.565   2.440   7.666  0.7071  0.2350 -0.4503
   15SAPS  C310 1968   6.349   2.471   7.715 -0.0839 -0.0187  0.1999
   15SAPS  H10X 1969   6.333   2.361   7.729  0.0193  0.0468  0.8741
   15SAPS  H10Y 1970   6.262   2.495   7.651  0.9545  4.6928  0.1960
   15SAPS  C311 1971   6.333   2.559   7.838  0.2451  0.2344 -0.4804
   15SAPS  H11X 1972   6.222   2.564   7.847 -0.5125 -3.9652 -4.0369
   15SAPS  H11Y 1973   6.382   2.658   7.824 -1.1636  0.7507 -2.0009
   15SAPS  C312 1974   6.396   2.486   7.959  0.3115  0.8158  0.6567
   15SAPS  H12X 1975   6.504   2.467   7.942 -0.0048 -1.5625  0.9849
   15SAPS  H12Y 1976   6.336   2.392   7.959  1.4488  0.0581 -0.5785
   15SAPS  C313 1977   6.397   2.563   8.095 -0.0650 -1.2944 -0.0985
   15SAPS  H13X 1978   6.301   2.618   8.103 -0.0010 -1.1768 -0.1486
   15SAPS  H13Y 1979   6.488   2.626   8.099 -0.9492  0.0914 -0.8927
   15SAPS  C314 1980   6.402   2.481   8.214  0.4674 -0.2901 -0.2832
   15SAPS  H14X 1981   6.437   2.551   8.294  0.0999 -0.8220  0.3528
   15SAPS  H14Y 1982   6.476   2.400   8.199 -0.2583 -1.1969  0.8947
   15SAPS  C315 1983   6.269   2.411   8.247  0.2933 -0.0557  0.1717
   15SAPS  H15X 1984   6.216   2.378   8.155 -0.2630  1.4187 -0.0702
   15SAPS  H15Y 1985   6.215   2.491   8.302  2.9943  0.4168  2.3188
   15SAPS  C316 1986   6.297   2.302   8.354  0.2888  0.0158  1.0594
   15SAPS  H16X 1987   6.198   2.277   8.398 -0.4935 -0.2464 -0.7584
   15SAPS  H16Y 1988   6.365   2.353   8.425 -0.7044  1.2521  1.1364
   15SAPS  C317 1989   6.358   2.171   8.293  0.1565  0.0898 -0.0774
   15SAPS  H17X 1990   6.361   2.109   8.385 -0.2469 -1.8813 -1.3512
   15SAPS  H17Y 1991   6.456   2.199   8.250 -0.0674  0.1477 -0.5507
   15SAPS  C318 1992   6.280   2.100   8.174  0.1012 -0.0731  0.0224
   15SAPS  H18X 1993   6.286   2.162   8.082 -1.2278 -0.4491 -0.3377
   15SAPS  H18Y 1994   6.174   2.083   8.203  0.6099 -3.0000  0.5081
   15SAPS  H18Z 1995   6.338   2.007   8.154  1.3458  0.7721 -0.4321
   16SAPS     N 1996   1.701   0.326   6.410  0.0447  0.2555  0.0442
   16SAPS   HN1 1997   1.630   0.255   6.437 -1.5696  2.5998  2.5672
   16SAPS   HN2 1998   1.772   0.286   6.346  0.0178 -1.4951  1.0281
   16SAPS   HN3 1999   1.745   0.340   6.504  0.0462  2.4353 -0.2342
   16SAPS   C12 2000   1.644   0.462   6.366  0.3694  0.3500  0.3825
   16SAPS  H12A 2001   1.691   0.543   6.419 -0.1471  1.1709 -0.3903
   16SAPS   C13 2002   1.645   0.491   6.214 -0.4112  0.1039  0.2414
   16SAPS  O13A 2003   1.676   0.400   6.130 -0.2442 -0.2320  0.2085
   16SAPS  O13B 2004   1.611   0.603   6.168 -0.1657 -0.1157 -0.2808
   16SAPS   C11 2005   1.490   0.451   6.412 -0.3441  0.3948 -0.4557
   16SAPS  H11A 2006   1.453   0.550   6.376  0.8390  0.5335 -1.3397
   16SAPS  H11B 2007   1.511   0.454   6.521 -0.0065  0.9878 -0.5327
   16SAPS     P 2008   1.260   0.318   6.386 -0.3377 -0.1697  0.1737
   16SAPS   O13 2009   1.202   0.436   6.319  0.4248  0.0234  0.4151
   16SAPS   O14 2010   1.205   0.187   6.352  0.2011 -0.1562 -0.0402
   16SAPS   O12 2011   1.416   0.336   6.380  0.1499  0.2786 -0.1757
   16SAPS   O11 2012   1.228   0.336   6.540 -0.0764  0.0222 -0.4581
   16SAPS    C1 2013   1.291   0.245   6.636 -0.1036 -0.0718  0.1904
   16SAPS    HA 2014   1.233   0.150   6.639 -3.2613  1.6976 -0.7396
   16SAPS    HB 2015   1.400   0.236   6.613 -0.8853 -3.5794 -3.2998
   16SAPS    C2 2016   1.278   0.314   6.779  0.5259 -0.5317 -0.1802
   16SAPS    HS 2017   1.170   0.305   6.804 -0.2953 -3.2367 -3.7447
   16SAPS   O21 2018   1.316   0.452   6.755  0.0455  0.0858  0.4147
   16SAPS   C21 2019   1.242   0.544   6.810 -0.6581 -0.1679  0.5341
   16SAPS   O22 2020   1.142   0.533   6.877 -0.0455  0.2155  0.0583
   16SAPS   C22 2021   1.310   0.682   6.767  0.1441  0.7472 -0.2053
   16SAPS   H2R 2022   1.418   0.657   6.763  0.0729  0.2999  0.4879
   16SAPS   H2S 2023   1.262   0.705   6.669  0.3503 -1.3769 -0.8725
   16SAPS    C3 2024   1.353   0.254   6.896  0.4532  1.5302 -0.7121
   16SAPS    HX 2025   1.460   0.239   6.869 -0.1264 -0.7429 -1.9846
   16SAPS    HY 2026   1.321   0.148   6.905  2.4991  1.0094  1.2460
   16SAPS   O31 2027   1.341   0.325   7.020 -0.1307 -0.5493  0.1939
   16SAPS   C31 2028   1.237   0.291   7.097 -0.5881  0.2369  0.0368
   16SAPS   O32 2029   1.159   0.200   7.076 -0.2809  0.0117  0.0505
   16SAPS   C32 2030   1.213   0.408   7.197 -0.0568  0.1340  0.6531
   16SAPS   H2X 2031   1.130   0.460   7.147  0.6014  1.3139  0.7647
   16SAPS   H2Y 2032   1.302   0.474   7.198  0.5209 -0.5207 -1.5943
   16SAPS   C23 2033   1.283   0.793   6.870  0.2038  0.6081  0.4196
   16SAPS   H3R 2034   1.325   0.768   6.970 -0.2948  1.6200  0.8952
   16SAPS   H3S 2035   1.176   0.818   6.888 -0.2938  1.0993 -2.6719
   16SAPS   C24 2036   1.332   0.936   6.818  0.9982 -0.9506  0.1622
   16SAPS   H4R 2037   1.313   1.002   6.905 -3.1307 -0.7808 -0.6431
   16SAPS   H4S 2038   1.256   0.960   6.740  2.0335 -0.8289 -0.8292
   16SAPS   C25 2039   1.478   0.938   6.770  0.2700  0.2771 -0.5956
   16SAPS   H5R 2040   1.504   0.946   6.664  3.1169 -0.1355 -0.0160
   16SAPS   C26 2041   1.583   0.954   6.849 -0.6141  0.1548  0.6864
   16SAPS   H6R 2042   1.679   0.975   6.800  0.1404 -1.7845  1.2757
   16SAPS   C27 2043   1.589   0.969   6.996  0.3536  0.1093  0.0110
   16SAPS   H7R 2044   1.491   0.961   7.048  0.1123  0.6448 -0.3488
   16SAPS   H7S 2045   1.620   1.075   7.011 -0.0972  0.4461 -1.2486
   16SAPS   C28 2046   1.703   0.895   7.065  0.4162 -0.1693 -0.0420
   16SAPS   H8R 2047   1.751   0.814   7.008 -1.2600  0.0080 -1.7885
   16SAPS   C29 2048   1.729   0.913   7.197 -0.0532 -0.1959  1.0171
   16SAPS   H9R 2049   1.810   0.859   7.249  2.3930 -1.6680 -3.7474
   16SAPS  C210 2050   1.658   1.018   7.280 -0.0924  0.0341  0.2846
   16SAPS  H10R 2051   1.547   1.018   7.269 -0.5617  2.7454  3.4727
   16SAPS  H10S 2052   1.685   1.118   7.242  1.1693 -1.1446 -2.1323
   16SAPS  C211 2053   1.698   0.999   7.421 -0.1563  0.2352 -1.0495
   16SAPS  H11R 2054   1.805   0.987   7.440 -0.6322 -1.1978  1.1178
   16SAPS  C212 2055   1.615   1.001   7.527  0.1723 -0.5741 -0.4098
   16SAPS  H12R 2056   1.659   1.002   7.628 -0.5891  0.7490 -0.0679
   16SAPS  C213 2057   1.465   1.020   7.517 -0.1863  0.1882 -0.1441
   16SAPS  H13R 2058   1.420   0.967   7.604  1.6261 -0.0296  0.7131
   16SAPS  H13S 2059   1.434   0.973   7.421  0.1367  0.2860 -0.2958
   16SAPS  C214 2060   1.422   1.161   7.534 -0.0794 -0.0850  0.3491
   16SAPS  H14R 2061   1.439   1.221   7.444  2.8528 -0.7319  0.3709
   16SAPS  C215 2062   1.368   1.214   7.645  0.0688  0.5222 -0.0244
   16SAPS  H15R 2063   1.353   1.323   7.649 -0.1789  0.4668  1.2576
   16SAPS  C216 2064   1.337   1.143   7.775 -0.2079 -0.1235 -0.6241
   16SAPS  H16R 2065   1.294   1.041   7.764  0.9642 -0.7676  0.4001
   16SAPS  H16S 2066   1.252   1.202   7.816  1.1856  1.4106  0.1998
   16SAPS  C217 2067   1.449   1.132   7.881  0.7351 -0.4775 -0.3278
   16SAPS  H17R 2068   1.542   1.170   7.834 -0.2170 -1.4454 -3.1634
   16SAPS  H17S 2069   1.464   1.023   7.895  0.9184 -0.4923 -0.6536
   16SAPS  C218 2070   1.412   1.206   8.011 -0.1373 -0.7085 -0.1386
   16SAPS  H18R 2071   1.327   1.153   8.058 -2.0378  1.9286 -0.3374
   16SAPS  H18S 2072   1.383   1.307   7.975  2.5058  0.8603  1.7659
   16SAPS  C219 2073   1.526   1.218   8.116 -0.4057  0.0976  0.1852
   16SAPS  H19R 2074   1.481   1.287   8.191 -2.2281 -0.1892 -0.5738
   16SAPS  H19S 2075   1.623   1.262   8.085 -0.9776 -0.1520 -2.1600
   16SAPS  C220 2076   1.546   1.079   8.179  0.2988 -0.1508  0.2162
   16SAPS  H20R 2077   1.458   1.041   8.234  1.0185 -3.1111 -0.5199
   16SAPS  H20S 2078   1.630   1.078   8.252 -0.1767 -1.3008  0.7591
   16SAPS  H20T 2079   1.562   1.003   8.099  1.8443  0.4331 -0.0850
   16SAPS   C33 2080   1.162   0.356   7.333  0.4174  0.4205  0.0355
   16SAPS   H3X 2081   1.107   0.261   7.314  1.6833 -0.3975  0.3636
   16SAPS   H3Y 2082   1.091   0.423   7.386  0.5924  1.4000 -0.9385
   16SAPS   C34 2083   1.269   0.306   7.425 -0.0696 -0.4281  0.0209
   16SAPS   H4X 2084   1.331   0.395   7.448 -0.0691 -0.0438 -1.3700
   16SAPS   H4Y 2085   1.345   0.237   7.383 -1.0945 -1.3694 -0.3566
   16SAPS   C35 2086   1.223   0.232   7.555 -0.0895  0.4591 -0.0488
   16SAPS   H5X 2087   1.309   0.222   7.623 -0.2637 -0.6353  0.0169
   16SAPS   H5Y 2088   1.195   0.127   7.531 -1.0502  0.2774  1.7391
   16SAPS   C36 2089   1.105   0.285   7.628  0.4615 -0.6963  0.2442
   16SAPS   H6X 2090   1.018   0.289   7.560  0.8481 -0.3713 -0.2376
   16SAPS   H6Y 2091   1.126   0.387   7.665  2.5782 -0.5139 -1.2499
   16SAPS   C37 2092   1.048   0.201   7.750  0.2341 -0.4030  0.0698
   16SAPS   H7X 2093   1.034   0.097   7.713  1.5500 -1.2133  1.6947
   16SAPS   H7Y 2094   0.946   0.238   7.772  0.5424 -0.8228  2.4660
   16SAPS   C38 2095   1.138   0.213   7.869  0.1020 -0.7839 -0.2304
   16SAPS   H8X 2096   1.242   0.195   7.836  0.1711 -0.7606 -0.0284
   16SAPS   H8Y 2097   1.103   0.135   7.940 -1.5973  0.6367  0.5739
   16SAPS   C39 2098   1.119   0.350   7.947  0.5791 -0.2087 -0.7856
   16SAPS   H9X 2099   1.011   0.358   7.972  1.3506  0.9880  2.9653
   16SAPS   H9Y 2100   1.141   0.440   7.887 -0.2937  3.1308  3.3659
   16SAPS  C310 2101   1.181   0.363   8.087 -0.0843  0.4492 -0.1292
   16SAPS  H10X 2102   1.173   0.470   8.116  3.0792  0.7031  0.1679
   16SAPS  H10Y 2103   1.288   0.336   8.075 -0.7902 -2.4239 -0.5783
   16SAPS  C311 2104   1.119   0.273   8.198 -0.1586 -0.6615 -0.9906
   16SAPS  H11X 2105   1.190   0.246   8.279  0.8068  3.4021 -0.2809
   16SAPS  H11Y 2106   1.083   0.179   8.151  1.1191 -0.4106 -2.5740
   16SAPS  C312 2107   0.999   0.343   8.276  0.4482 -0.1194  0.0350
   16SAPS  H12X 2108   0.914   0.346   8.205  0.6006  2.7177 -0.1392
   16SAPS  H12Y 2109   1.017   0.451   8.294 -0.8205  0.3082 -1.1224
   16SAPS  C313 2110   0.956   0.275   8.408 -0.5486 -0.2251  1.1365
   16SAPS  H13X 2111   1.039   0.298   8.479  0.9719  0.1334 -0.6874
   16SAPS  H13Y 2112   0.969   0.165   8.402  5.1439  0.2448 -0.2607
   16SAPS  C314 2113   0.813   0.303   8.449 -0.0483 -0.5762  1.0394
   16SAPS  H14X 2114   0.787   0.236   8.534 -0.4929 -3.0715 -0.9657
   16SAPS  H14Y 2115   0.743   0.281   8.367 -1.4250 -0.5209  2.1631
   16SAPS  C315 2116   0.783   0.444   8.491  0.3050  0.1404 -0.3430
   16SAPS  H15X 2117   0.761   0.504   8.400  0.1136 -3.4208 -2.8289
   16SAPS  H15Y 2118   0.871   0.488   8.541 -1.3690  2.9861  0.3484
   16SAPS  C316 2119   0.664   0.460   8.592  0.3215 -0.3202  0.0464
   16SAPS  H16X 2120   0.687   0.392   8.677  1.6477 -0.7606 -0.6318
   16SAPS  H16Y 2121   0.565   0.435   8.549 -0.0640  2.7862 -1.0770
   16SAPS  C317 2122   0.653   0.606   8.644  0.0571  0.1834 -0.3295
   16SAPS  H17X 2123   0.555   0.621   8.693  0.7832  0.1151  1.2062
   16SAPS  H17Y 2124   0.656   0.672   8.555  0.9577 -0.5026 -0.8377
   16SAPS  C318 2125   0.760   0.632   8.751  0.7608 -0.5028 -1.1331
   16SAPS  H18X 2126   0.867   0.613   8.729  0.8185 -2.4971  0.5366
   16SAPS  H18Y 2127   0.736   0.582   8.848  0.2409 -1.5555 -1.7935
   16SAPS  H18Z 2128   0.749   0.741   8.773 -2.9127 -0.8014 -0.9253
   17SAPC     N 2129   5.431   1.575  10.652 -0.7897 -0.2808  0.3047
   17SAPC   C12 2130   5.447   1.587  10.500 -0.1168 -0.4770 -1.0235
   17SAPC  H12A 2131   5.352   1.591  10.451 -0.1424  0.7078 -0.8983
   17SAPC  H12B 2132   5.491   1.493  10.468  0.3227 -0.0079 -1.8311
   17SAPC   C13 2133   5.407   1.708  10.712 -0.6619 -0.5264  0.2922
   17SAPC  H13A 2134   5.488   1.774  10.685  0.3747 -1.8729  0.0034
   17SAPC  H13B 2135   5.317   1.761  10.685 -0.0972  1.0231  1.3031
   17SAPC  H13C 2136   5.405   1.703  10.820 -0.4251  2.1621  0.4765
   17SAPC   C14 2137   5.311   1.491  10.685  0.3133 -0.3233  0.1885
   17SAPC  H14A 2138   5.290   1.501  10.791 -0.0377  0.5350  0.0442
   17SAPC  H14B 2139   5.226   1.533  10.634  1.1627  0.2671 -0.7786
   17SAPC  H14C 2140   5.335   1.388  10.664  1.8854  0.0068  0.2880
   17SAPC   C15 2141   5.556   1.526  10.720 -0.3021 -0.4550 -0.0266
   17SAPC  H15A 2142   5.546   1.535  10.827 -0.6293 -0.0402 -0.0901
   17SAPC  H15B 2143   5.583   1.433  10.673  2.4800  0.0587  0.4291
   17SAPC  H15C 2144   5.630   1.601  10.697 -1.2394  0.9771  1.3733
   17SAPC   C11 2145   5.538   1.699  10.443  0.1189  0.1890 -0.2245
   17SAPC  H11A 2146   5.496   1.794  10.482 -0.0834 -0.5597  1.4662
   17SAPC  H11B 2147   5.525   1.690  10.333 -2.5673  0.0525  0.0135
   17SAPC     P 2148   5.785   1.749  10.393  0.1313  0.0919  0.0259
   17SAPC   O13 2149   5.725   1.863  10.325 -0.2877  0.1984 -0.9760
   17SAPC   O14 2150   5.902   1.768  10.483  0.3834  0.1646  0.0651
   17SAPC   O12 2151   5.672   1.677  10.481 -0.3774 -0.7098  0.3154
   17SAPC   O11 2152   5.829   1.640  10.286  0.6156 -0.3501 -0.3700
   17SAPC    C1 2153   5.862   1.513  10.329  0.2080  0.5665 -0.1280
   17SAPC    HA 2154   5.939   1.518  10.410 -2.3863  0.6971  2.5141
   17SAPC    HB 2155   5.775   1.456  10.370  0.7287  0.3102  0.6565
   17SAPC    C2 2156   5.926   1.424  10.218  0.8891  0.1166 -0.2122
   17SAPC    HS 2157   6.030   1.462  10.220  0.2238  2.1103 -0.5816
   17SAPC   O21 2158   5.859   1.434  10.088  0.0138  0.1209  0.5069
   17SAPC   C21 2159   5.947   1.419   9.985 -0.0694 -0.0689 -0.2141
   17SAPC   O22 2160   6.066   1.383  10.005 -0.1323  0.0388 -0.4465
   17SAPC   C22 2161   5.867   1.449   9.859  0.7172  0.0213 -0.0431
   17SAPC   H2R 2162   5.805   1.358   9.842 -0.6249  0.6697  1.1913
   17SAPC   H2S 2163   5.796   1.532   9.878  1.5292  0.6660  0.2378
   17SAPC    C3 2164   5.932   1.274  10.270 -0.0633  0.2176  0.2397
   17SAPC    HX 2165   5.827   1.239  10.282  0.3205 -0.4847  1.8381
   17SAPC    HY 2166   5.997   1.268  10.360  0.6203  1.1254 -0.1805
   17SAPC   O31 2167   5.997   1.189  10.175  0.1334 -0.1466  0.0875
   17SAPC   C31 2168   5.932   1.089  10.117  0.1619  0.3189 -0.0912
   17SAPC   O32 2169   5.809   1.080  10.117  0.0047  0.4248  0.2273
   17SAPC   C32 2170   6.036   1.007  10.046  0.1498 -0.2671  0.5071
   17SAPC   H2X 2171   5.998   0.905  10.064  0.8634 -0.4806  0.8129
   17SAPC   H2Y 2172   6.138   1.019  10.089  1.1883 -0.4754 -1.7050
   17SAPC   C23 2173   5.963   1.474   9.741  0.1743  0.4464  0.1638
   17SAPC   H3R 2174   6.035   1.389   9.740  4.5248  3.7613  1.4008
   17SAPC   H3S 2175   6.016   1.568   9.768 -2.6412  1.9279  0.9306
   17SAPC   C24 2176   5.897   1.498   9.605  0.1493 -0.8702 -0.4935
   17SAPC   H4R 2177   5.974   1.567   9.564  2.0572 -2.4571  0.2461
   17SAPC   H4S 2178   5.802   1.553   9.619  0.6931 -0.5245  2.6728
   17SAPC   C25 2179   5.891   1.379   9.513 -0.2166  0.1574 -0.0252
   17SAPC   H5R 2180   5.809   1.310   9.539  0.1257  0.2604  1.4087
   17SAPC   C26 2181   5.953   1.357   9.398  0.0020  0.3169 -0.1676
   17SAPC   H6R 2182   5.928   1.276   9.329 -0.5890  1.2486 -1.0815
   17SAPC   C27 2183   6.059   1.447   9.345  0.0123  0.5183 -0.3926
   17SAPC   H7R 2184   6.125   1.486   9.425 -0.7331  0.8342  0.0780
   17SAPC   H7S 2185   6.004   1.536   9.307  1.2691  0.7720 -1.7317
   17SAPC   C28 2186   6.148   1.391   9.240  0.0883  0.5712 -0.6615
   17SAPC   H8R 2187   6.192   1.295   9.272  0.5545  0.7599 -0.7254
   17SAPC   C29 2188   6.174   1.436   9.115  0.0542  0.2825 -0.4343
   17SAPC   H9R 2189   6.254   1.389   9.057  0.8914  1.2344 -0.0833
   17SAPC  C210 2190   6.115   1.548   9.040 -0.4997 -0.4140  0.2616
   17SAPC  H10R 2191   6.170   1.643   9.057 -0.6059 -0.2537 -0.2768
   17SAPC  H10S 2192   6.007   1.565   9.059 -1.3566 -3.4213 -1.2504
   17SAPC  C211 2193   6.134   1.522   8.887 -0.0434  0.3734  0.1973
   17SAPC  H11R 2194   6.196   1.438   8.854  1.2843  0.6154  1.8894
   17SAPC  C212 2195   6.063   1.579   8.789 -0.0586  0.0953  0.2244
   17SAPC  H12R 2196   6.089   1.570   8.682  2.4122  0.4761  0.7306
   17SAPC  C213 2197   5.955   1.684   8.821  0.4071  0.0980 -0.7116
   17SAPC  H13R 2198   5.980   1.753   8.904 -1.2689 -0.1952  0.0965
   17SAPC  H13S 2199   5.863   1.629   8.851  0.6325 -0.9461 -1.8281
   17SAPC  C214 2200   5.916   1.771   8.701 -0.0173  0.8388 -0.0794
   17SAPC  H14R 2201   5.823   1.736   8.652  0.8246  0.5304 -1.5238
   17SAPC  C215 2202   5.980   1.874   8.647  0.1968 -1.2444  0.2964
   17SAPC  H15R 2203   5.939   1.924   8.558 -0.2116 -1.0644  0.5841
   17SAPC  C216 2204   6.101   1.937   8.708 -0.0192  0.0482  0.2914
   17SAPC  H16R 2205   6.200   1.898   8.675  0.3775  1.6806 -0.5441
   17SAPC  H16S 2206   6.109   1.929   8.818  1.5611  1.2829  0.3077
   17SAPC  C217 2207   6.110   2.095   8.682  0.7639  0.2446 -0.0430
   17SAPC  H17R 2208   6.029   2.153   8.730  0.1790 -1.3927  1.0293
   17SAPC  H17S 2209   6.104   2.122   8.575  1.9043  0.5497 -0.0418
   17SAPC  C218 2210   6.244   2.150   8.726  0.2898  0.3304  0.0489
   17SAPC  H18R 2211   6.255   2.251   8.681  2.6679  0.9276  1.7829
   17SAPC  H18S 2212   6.339   2.102   8.693 -1.1159 -0.6201 -3.0248
   17SAPC  C219 2213   6.245   2.174   8.878 -0.4044 -0.0250  0.0350
   17SAPC  H19R 2214   6.229   2.079   8.934 -0.5263  0.3273  0.6044
   17SAPC  H19S 2215   6.160   2.238   8.910  0.8676  1.4490  0.6104
   17SAPC  C220 2216   6.361   2.259   8.916  0.9005 -0.5281  0.8286
   17SAPC  H20R 2217   6.353   2.346   8.848 -2.3144  0.3873  2.1625
   17SAPC  H20S 2218   6.454   2.205   8.889 -0.3049 -1.8350 -0.9784
   17SAPC  H20T 2219   6.361   2.278   9.025  1.9306 -0.7805  0.8836
   17SAPC   C33 2220   6.036   1.046   9.888 -0.1984  0.6451 -0.3038
   17SAPC   H3X 2221   6.117   0.985   9.845  0.7120 -1.6216  4.0436
   17SAPC   H3Y 2222   6.064   1.153   9.876 -0.4051  0.5809 -1.4420
   17SAPC   C34 2223   5.900   1.014   9.821 -0.4158 -0.2624 -0.1508
   17SAPC   H4X 2224   5.828   1.090   9.858 -1.8234 -1.5539 -0.1415
   17SAPC   H4Y 2225   5.867   0.911   9.849  1.1268 -0.4534  1.1660
   17SAPC   C35 2226   5.907   1.024   9.677 -0.3420  0.2027  0.0680
   17SAPC   H5X 2227   5.939   1.127   9.651  0.9824  0.5652  2.7974
   17SAPC   H5Y 2228   5.808   1.010   9.628 -0.9875 -0.1209  1.4263
   17SAPC   C36 2229   6.005   0.934   9.600 -0.4003  0.0140 -1.0717
   17SAPC   H6X 2230   6.020   0.831   9.636 -1.8516  0.2075  0.1697
   17SAPC   H6Y 2231   6.104   0.985   9.605  0.9823 -2.6138 -0.2754
   17SAPC   C37 2232   5.975   0.913   9.454 -0.0496  0.3199 -0.4692
   17SAPC   H7X 2233   5.937   1.013   9.424  1.6673  1.8207  1.9706
   17SAPC   H7Y 2234   5.904   0.830   9.432 -1.1658  1.5102 -1.4937
   17SAPC   C38 2235   6.109   0.878   9.378  0.3420 -0.2114 -0.1011
   17SAPC   H8X 2236   6.157   0.785   9.417  0.7756  0.0631  0.0243
   17SAPC   H8Y 2237   6.180   0.961   9.393  0.8042 -0.7395  0.7001
   17SAPC   C39 2238   6.093   0.869   9.227  0.8319 -0.5666 -0.0665
   17SAPC   H9X 2239   6.019   0.788   9.210  1.4810 -0.7946 -2.0189
   17SAPC   H9Y 2240   6.191   0.840   9.182 -0.3114 -0.3251 -2.9127
   17SAPC  C310 2241   6.035   0.990   9.170  0.5420 -0.8340 -0.4956
   17SAPC  H10X 2242   6.108   1.071   9.193  1.5750 -1.8048 -0.2847
   17SAPC  H10Y 2243   5.941   1.016   9.223 -0.3635 -1.9787 -1.4882
   17SAPC  C311 2244   6.024   1.002   9.014 -0.1372  0.2486  0.0375
   17SAPC  H11X 2245   5.964   0.918   8.973 -2.0378  1.2091  0.7273
   17SAPC  H11Y 2246   6.131   0.991   8.987  0.3455  1.4199  1.3635
   17SAPC  C312 2247   5.973   1.139   8.961  0.2073  0.1248 -0.0623
   17SAPC  H12X 2248   6.045   1.211   9.006  1.6705 -1.0179 -0.4613
   17SAPC  H12Y 2249   5.872   1.165   8.997  0.3003  0.1419  0.1887
   17SAPC  C313 2250   5.978   1.164   8.804 -0.4384 -0.4142 -0.1121
   17SAPC  H13X 2251   6.081   1.150   8.765  0.9692  3.7744  1.5648
   17SAPC  H13Y 2252   5.955   1.272   8.796  1.3426 -0.1163 -2.1495
   17SAPC  C314 2253   5.887   1.084   8.722 -0.2485 -0.0851 -0.2281
   17SAPC  H14X 2254   5.780   1.099   8.746 -0.5358 -1.0927 -0.8519
   17SAPC  H14Y 2255   5.912   0.979   8.744  0.6740  0.4720  1.5806
   17SAPC  C315 2256   5.925   1.090   8.573 -0.0854  0.2902  0.4664
   17SAPC  H15X 2257   5.878   1.009   8.514  0.7991  0.0461  0.0814
   17SAPC  H15Y 2258   6.033   1.063   8.577  0.2935  1.7297  0.5932
   17SAPC  C316 2259   5.907   1.222   8.509 -0.2167  0.0790 -0.2715
   17SAPC  H16X 2260   5.950   1.216   8.407  0.4602  0.8629 -0.0496
   17SAPC  H16Y 2261   5.970   1.295   8.565  0.2335 -0.8163  0.4163
   17SAPC  C317 2262   5.762   1.282   8.511 -0.2978  0.2841 -0.7290
   17SAPC  H17X 2263   5.732   1.299   8.616  0.4573 -0.0042 -0.4652
   17SAPC  H17Y 2264   5.701   1.198   8.470 -0.4534 -0.1322  0.3388
   17SAPC  C318 2265   5.739   1.412   8.435  0.1007  0.1790 -0.6477
   17SAPC  H18X 2266   5.779   1.406   8.332 -0.3364 -2.3733 -0.7528
   17SAPC  H18Y 2267   5.631   1.436   8.441 -0.2718 -1.3380 -0.8616
   17SAPC  H18Z 2268   5.796   1.488   8.492 -3.4558  2.7580 -0.2011
   18SAPC     N 2269   5.321   0.970  10.946 -0.1213 -0.1250  0.2683
   18SAPC   C12 2270   5.300   0.917  10.803 -0.2464 -0.4060  0.2621
   18SAPC  H12A 2271   5.250   0.821  10.811 -0.5851 -0.6375 -3.3033
   18SAPC  H12B 2272   5.393   0.899  10.750 -0.6364 -0.3789 -0.4384
   18SAPC   C13 2273   5.198   1.026  10.998 -0.6168  0.1479  0.2589
   18SAPC  H13A 2274   5.209   1.069  11.097 -2.1806 -1.4535  1.2073
   18SAPC  H13B 2275   5.170   1.110  10.936 -2.4102 -1.7695 -1.6834
   18SAPC  H13C 2276   5.116   0.956  11.004 -1.3542  0.8184 -1.5497
   18SAPC   C14 2277   5.389   0.874  11.041 -0.1135  0.4378 -0.4358
   18SAPC  H14A 2278   5.311   0.806  11.071 -1.0971  1.5550 -0.4079
   18SAPC  H14B 2279   5.463   0.824  10.980  0.6966 -0.1838  1.0087
   18SAPC  H14C 2280   5.441   0.919  11.124  1.1057  0.1155 -0.9973
   18SAPC   C15 2281   5.420   1.083  10.927 -0.7414  0.0082 -0.5841
   18SAPC  H15A 2282   5.517   1.049  10.893  0.6672  0.5044  2.5382
   18SAPC  H15B 2283   5.388   1.153  10.852 -1.9875 -0.5598 -0.6073
   18SAPC  H15C 2284   5.439   1.137  11.019 -0.8548 -1.4151  0.3104
   18SAPC   C11 2285   5.211   1.010  10.709 -0.3449  0.8087 -0.3214
   18SAPC  H11A 2286   5.116   1.041  10.758 -1.1082 -0.2801 -1.0572
   18SAPC  H11B 2287   5.180   0.940  10.628  2.6881 -0.7227 -0.3054
   18SAPC     P 2288   5.378   1.137  10.536  0.2551  0.1268  0.1300
   18SAPC   O13 2289   5.359   1.268  10.463  0.0441  0.2489 -0.4593
   18SAPC   O14 2290   5.514   1.107  10.593  0.0219 -0.8887  0.0064
   18SAPC   O12 2291   5.283   1.130  10.662  0.0019  0.0385 -0.2250
   18SAPC   O11 2292   5.329   1.019  10.450 -0.3808  0.7697 -0.4375
   18SAPC    C1 2293   5.353   0.996  10.315  0.2465 -0.8225  1.0742
   18SAPC    HA 2294   5.296   0.910  10.273  2.7766 -1.5253 -1.2271
   18SAPC    HB 2295   5.312   1.082  10.259  1.2532  0.6822  2.5555
   18SAPC    C2 2296   5.501   0.970  10.261  0.5593 -0.1649  0.0610
   18SAPC    HS 2297   5.558   1.062  10.286  0.0668 -0.4595  2.5100
   18SAPC   O21 2298   5.502   0.943  10.119  0.0908 -0.1172 -0.3878
   18SAPC   C21 2299   5.490   1.050  10.048  0.0714 -0.2113 -0.5952
   18SAPC   O22 2300   5.459   1.165  10.082 -0.1752 -0.0432 -0.4269
   18SAPC   C22 2301   5.498   1.008   9.903  0.1370  0.3220  0.1768
   18SAPC   H2R 2302   5.601   0.971   9.884 -0.8340 -1.6910 -1.4908
   18SAPC   H2S 2303   5.432   0.920   9.885 -1.2076  1.6666 -1.9136
   18SAPC    C3 2304   5.574   0.863  10.339  0.5712  0.0107 -0.5290
   18SAPC    HX 2305   5.567   0.878  10.449  0.5385  2.7098 -0.8417
   18SAPC    HY 2306   5.682   0.863  10.314  0.9169  0.2192  0.8911
   18SAPC   O31 2307   5.506   0.738  10.315 -0.3210 -0.3836  0.3556
   18SAPC   C31 2308   5.578   0.647  10.244 -0.4281 -0.4637 -0.3546
   18SAPC   O32 2309   5.702   0.650  10.235 -0.1956 -0.2156  0.1312
   18SAPC   C32 2310   5.481   0.545  10.186 -0.2577 -0.0656  0.1213
   18SAPC   H2X 2311   5.406   0.512  10.262 -0.4782  1.6484  0.6976
   18SAPC   H2Y 2312   5.556   0.465  10.168  1.5742  1.7581 -0.7076
   18SAPC   C23 2313   5.453   1.111   9.793  0.7634 -0.4764 -0.2664
   18SAPC   H3R 2314   5.500   1.207   9.821 -2.3810  1.4183 -0.9659
   18SAPC   H3S 2315   5.345   1.140   9.795  1.3688  2.0028 -0.6040
   18SAPC   C24 2316   5.495   1.070   9.648 -0.3633 -0.3378  0.5344
   18SAPC   H4R 2317   5.416   1.003   9.609 -0.2000 -1.2989  1.8023
   18SAPC   H4S 2318   5.587   1.011   9.664  2.0557  3.0792  0.2802
   18SAPC   C25 2319   5.536   1.179   9.552 -0.0824 -0.2621 -0.3910
   18SAPC   H5R 2320   5.580   1.267   9.600  1.0121 -1.2256  0.4408
   18SAPC   C26 2321   5.533   1.185   9.418 -0.4602  0.1258  0.1477
   18SAPC   H6R 2322   5.579   1.269   9.364  0.2292 -1.7236 -2.3799
   18SAPC   C27 2323   5.492   1.076   9.322 -0.4613 -0.0536 -0.1666
   18SAPC   H7R 2324   5.387   1.097   9.293 -0.4911 -0.0626 -0.0640
   18SAPC   H7S 2325   5.495   0.977   9.372 -0.9005  0.1615  0.2907
   18SAPC   C28 2326   5.579   1.065   9.198 -0.3372  0.0735 -0.0479
   18SAPC   H8R 2327   5.665   0.998   9.218 -1.4576 -1.4098 -0.0281
   18SAPC   C29 2328   5.574   1.134   9.086 -0.1775  0.1903  0.4109
   18SAPC   H9R 2329   5.648   1.113   9.008 -0.6470  2.9454 -0.9192
   18SAPC  C210 2330   5.477   1.240   9.048  0.2776  0.0865 -0.1068
   18SAPC  H10R 2331   5.451   1.295   9.141 -0.5460 -0.9983  0.3297
   18SAPC  H10S 2332   5.382   1.191   9.016  0.2169 -0.6540  1.1491
   18SAPC  C211 2333   5.529   1.317   8.930  0.4346 -0.0435 -0.6267
   18SAPC  H11R 2334   5.601   1.393   8.964 -1.0062  0.8819  0.5000
   18SAPC  C212 2335   5.500   1.304   8.802 -0.2219 -0.0423 -0.4383
   18SAPC  H12R 2336   5.546   1.378   8.734 -2.5663  1.1063 -0.8651
   18SAPC  C213 2337   5.403   1.203   8.742  0.4512  0.3943 -0.1748
   18SAPC  H13R 2338   5.339   1.268   8.678 -0.3610  0.0035  0.2244
   18SAPC  H13S 2339   5.340   1.150   8.817  1.1935 -0.8847 -0.4287
   18SAPC  C214 2340   5.474   1.110   8.648 -0.4101  0.1342  0.5832
   18SAPC  H14R 2341   5.560   1.056   8.690 -0.5515 -0.2550  0.3725
   18SAPC  C215 2342   5.447   1.086   8.516  0.2177 -1.0063 -0.0793
   18SAPC  H15R 2343   5.509   1.009   8.468  1.4807  0.7691 -1.4592
   18SAPC  C216 2344   5.337   1.146   8.427 -0.0251 -0.2324  0.2508
   18SAPC  H16R 2345   5.299   1.241   8.469  1.5534  0.3830  0.3504
   18SAPC  H16S 2346   5.264   1.064   8.408 -0.8504  0.7209 -0.8207
   18SAPC  C217 2347   5.379   1.185   8.281 -1.1022 -0.1008 -0.0210
   18SAPC  H17R 2348   5.395   1.092   8.221 -0.1547 -0.8740  1.3809
   18SAPC  H17S 2349   5.479   1.232   8.291 -1.2188  0.0770  0.2988
   18SAPC  C218 2350   5.289   1.286   8.214 -0.4613  0.7466 -0.6686
   18SAPC  H18R 2351   5.269   1.370   8.284  0.9172  0.3326  0.2792
   18SAPC  H18S 2352   5.191   1.238   8.196 -0.1400 -0.8899  1.5468
   18SAPC  C219 2353   5.349   1.349   8.081  0.5263  0.8747  0.4309
   18SAPC  H19R 2354   5.355   1.265   8.008  1.5580  0.0430  1.4219
   18SAPC  H19S 2355   5.455   1.369   8.107  0.8145 -2.0641  1.9752
   18SAPC  C220 2356   5.272   1.466   8.029 -0.3158 -0.2095  0.3632
   18SAPC  H20R 2357   5.164   1.444   8.038 -0.4161  0.0622 -0.1801
   18SAPC  H20S 2358   5.283   1.488   7.921 -0.9414  2.3482  0.7696
   18SAPC  H20T 2359   5.301   1.554   8.091 -2.3257  1.3661 -0.8294
   18SAPC   C33 2360   5.424   0.581  10.044  0.0194  0.4038 -0.4067
   18SAPC   H3X 2361   5.330   0.639  10.060 -0.9916 -1.3980  0.4674
   18SAPC   H3Y 2362   5.391   0.485   9.999  1.0572 -0.0467 -0.2443
   18SAPC   C34 2363   5.522   0.654   9.951 -0.4148  0.0709 -0.4186
   18SAPC   H4X 2364   5.628   0.625   9.966  0.3089  2.5250 -0.4166
   18SAPC   H4Y 2365   5.519   0.759   9.987 -1.2081  0.0770 -0.4962
   18SAPC   C35 2366   5.468   0.628   9.819 -0.8282  0.4760  0.2607
   18SAPC   H5X 2367   5.361   0.656   9.808 -0.7016  0.0902 -3.1696
   18SAPC   H5Y 2368   5.475   0.518   9.804 -1.0618  0.6082 -0.9029
   18SAPC   C36 2369   5.556   0.694   9.713 -0.3245  0.1829  0.2390
   18SAPC   H6X 2370   5.663   0.676   9.733  0.5497  0.4709 -3.6043
   18SAPC   H6Y 2371   5.550   0.804   9.727 -1.5513  0.2411 -0.5796
   18SAPC   C37 2372   5.529   0.635   9.572 -0.1938 -0.0434  0.3574
   18SAPC   H7X 2373   5.424   0.656   9.540  0.3722  1.0024 -0.8919
   18SAPC   H7Y 2374   5.537   0.524   9.564  0.0282 -0.0613  0.8189
   18SAPC   C38 2375   5.618   0.705   9.465 -0.2647  0.4611  0.1723
   18SAPC   H8X 2376   5.723   0.675   9.487 -0.2572 -0.9842 -1.5846
   18SAPC   H8Y 2377   5.615   0.814   9.484  1.4366  0.4125  0.8814
   18SAPC   C39 2378   5.596   0.653   9.321  0.2106 -0.7524  0.5062
   18SAPC   H9X 2379   5.506   0.701   9.277  1.9181  1.5938 -0.6746
   18SAPC   H9Y 2380   5.608   0.542   9.327 -0.5647 -0.8190  0.9294
   18SAPC  C310 2381   5.714   0.700   9.238 -0.1517 -0.1028  0.0844
   18SAPC  H10X 2382   5.810   0.672   9.287 -0.3284  1.1532  1.2247
   18SAPC  H10Y 2383   5.706   0.810   9.225  2.6484  0.3714  1.5076
   18SAPC  C311 2384   5.718   0.647   9.098 -0.2951  0.3080  0.4936
   18SAPC  H11X 2385   5.728   0.536   9.098  1.2460  0.4242  0.2238
   18SAPC  H11Y 2386   5.809   0.687   9.049  0.1584  1.6749  2.3464
   18SAPC  C312 2387   5.598   0.694   9.012 -0.1721 -0.5153 -0.1803
   18SAPC  H12X 2388   5.598   0.805   9.008  0.2086 -0.4314  1.5541
   18SAPC  H12Y 2389   5.508   0.652   9.061 -0.1490  0.6896  0.9248
   18SAPC  C313 2390   5.605   0.650   8.872 -0.3353 -0.3328 -0.5718
   18SAPC  H13X 2391   5.608   0.539   8.863  0.0513 -0.4930  1.2219
   18SAPC  H13Y 2392   5.700   0.687   8.827  0.2564 -0.7293  0.3147
   18SAPC  C314 2393   5.492   0.691   8.782  0.5220  0.3446 -0.0290
   18SAPC  H14X 2394   5.450   0.789   8.812  2.7496  1.1089  0.8247
   18SAPC  H14Y 2395   5.402   0.628   8.795  0.3322  0.5770 -0.2299
   18SAPC  C315 2396   5.523   0.700   8.638 -0.0140 -0.0097 -0.1159
   18SAPC  H15X 2397   5.568   0.611   8.589  2.0803 -0.1325  1.8412
   18SAPC  H15Y 2398   5.594   0.786   8.630  3.9165 -2.9729 -0.0024
   18SAPC  C316 2399   5.381   0.727   8.565 -0.6916 -0.3681  0.3848
   18SAPC  H16X 2400   5.403   0.757   8.461 -1.9481 -1.1154 -0.1170
   18SAPC  H16Y 2401   5.331   0.815   8.611 -2.5500 -1.4829  0.6247
   18SAPC  C317 2402   5.287   0.603   8.555 -0.1910 -0.0024 -0.4602
   18SAPC  H17X 2403   5.316   0.526   8.630 -1.3035  0.8877  0.9425
   18SAPC  H17Y 2404   5.297   0.569   8.450  1.1148 -1.9644  0.2430
   18SAPC  C318 2405   5.138   0.641   8.576  0.2583 -0.0029 -0.3290
   18SAPC  H18X 2406   5.100   0.719   8.506 -1.8950 -1.6051 -1.0445
   18SAPC  H18Y 2407   5.116   0.665   8.682  0.6948 -3.5618  0.6996
   18SAPC  H18Z 2408   5.073   0.553   8.558  1.7778 -1.0270 -1.0185
   19SAPC     N 2409   5.790   2.912  10.920  0.4380  0.4596  0.2407
   19SAPC   C12 2410   5.881   2.870  10.809  0.5349 -0.0722 -0.5253
   19SAPC  H12A 2411   5.821   2.793  10.762  0.3352 -2.2828  2.9313
   19SAPC  H12B 2412   5.969   2.822  10.850 -0.9443 -0.3595  2.6051
   19SAPC   C13 2413   5.651   2.933  10.877 -0.0813 -0.3509 -0.2707
   19SAPC  H13A 2414   5.641   2.998  10.792 -1.3892 -0.7678 -0.4674
   19SAPC  H13B 2415   5.613   2.833  10.862  0.1419 -0.5543  0.4617
   19SAPC  H13C 2416   5.595   2.981  10.957  0.1949 -1.2222  0.4654
   19SAPC   C14 2417   5.787   2.805  11.028 -0.2230 -0.2733 -0.1150
   19SAPC  H14A 2418   5.884   2.790  11.074 -0.7250 -1.7379  0.5681
   19SAPC  H14B 2419   5.732   2.831  11.117  0.8953  2.2831 -0.0876
   19SAPC  H14C 2420   5.751   2.705  11.006  0.0493 -0.3740 -0.1127
   19SAPC   C15 2421   5.836   3.038  10.986 -0.2672 -0.4291  0.4270
   19SAPC  H15A 2422   5.911   3.022  11.062 -0.4576 -0.4052  0.6174
   19SAPC  H15B 2423   5.869   3.103  10.906 -2.4218  1.0507  0.6595
   19SAPC  H15C 2424   5.756   3.092  11.033 -0.7155  0.7772 -1.5783
   19SAPC   C11 2425   5.920   2.970  10.697 -0.5077  0.4010 -0.0057
   19SAPC  H11A 2426   5.972   2.920  10.613  0.2462  2.6166 -0.9338
   19SAPC  H11B 2427   5.993   3.031  10.754 -0.2713  0.1144  0.0052
   19SAPC     P 2428   5.807   3.185  10.607 -0.0174  0.0500 -0.1785
   19SAPC   O13 2429   5.712   3.254  10.694 -0.1314 -0.1281 -0.2492
   19SAPC   O14 2430   5.941   3.233  10.608  0.0685 -0.2413  0.4315
   19SAPC   O12 2431   5.802   3.037  10.643 -0.4972 -0.0353  0.7819
   19SAPC   O11 2432   5.750   3.191  10.455  0.1236 -0.7814 -0.0648
   19SAPC    C1 2433   5.791   3.100  10.353  0.4196  0.0658  0.4060
   19SAPC    HA 2434   5.829   3.007  10.400  0.3011  0.6927  1.8025
   19SAPC    HB 2435   5.700   3.068  10.298  1.1596 -0.2979 -0.6463
   19SAPC    C2 2436   5.889   3.176  10.263  0.0655  0.3182 -0.2784
   19SAPC    HS 2437   5.976   3.227  10.310  0.4648 -1.2527  0.7442
   19SAPC   O21 2438   5.809   3.271  10.190  0.0200 -0.2583 -0.2142
   19SAPC   C21 2439   5.872   3.354  10.102  0.5806  0.1938  0.1667
   19SAPC   O22 2440   5.989   3.382  10.108  0.1192  0.2597 -0.5271
   19SAPC   C22 2441   5.769   3.434  10.023 -0.2234  0.3707 -0.2912
   19SAPC   H2R 2442   5.706   3.364   9.966  1.4325 -1.7332  0.3536
   19SAPC   H2S 2443   5.702   3.484  10.097 -2.6460  0.1602 -2.2338
   19SAPC    C3 2444   5.958   3.074  10.164  0.1459 -0.2559 -0.3004
   19SAPC    HX 2445   6.024   3.026  10.239 -2.1128 -0.7232  1.4991
   19SAPC    HY 2446   6.016   3.131  10.089 -1.5699  3.9764  1.2752
   19SAPC   O31 2447   5.862   2.981  10.106  0.8231  0.1000 -0.1550
   19SAPC   C31 2448   5.813   3.019   9.984 -0.3184  0.3839 -0.6882
   19SAPC   O32 2449   5.844   3.122   9.930  0.3971  0.2391 -0.0894
   19SAPC   C32 2450   5.704   2.928   9.938 -0.1596  0.2589 -0.9387
   19SAPC   H2X 2451   5.639   2.915  10.027  1.4221  1.3980  0.4355
   19SAPC   H2Y 2452   5.743   2.826   9.916 -0.8310 -0.6229  1.5985
   19SAPC   C23 2453   5.838   3.538   9.935 -0.4619  0.4019 -0.3227
   19SAPC   H3R 2454   5.913   3.489   9.869 -0.1165 -1.4427  1.3470
   19SAPC   H3S 2455   5.901   3.603  10.000 -0.7556 -0.7411  1.1431
   19SAPC   C24 2456   5.741   3.624   9.849  0.3056 -0.4384 -0.0819
   19SAPC   H4R 2457   5.794   3.718   9.822 -1.4677  0.4569 -0.6414
   19SAPC   H4S 2458   5.662   3.650   9.923  1.2887  1.2360  0.4280
   19SAPC   C25 2459   5.685   3.544   9.732  0.1483  0.0355 -0.7810
   19SAPC   H5R 2460   5.621   3.459   9.761 -0.3691  1.5040  3.0601
   19SAPC   C26 2461   5.692   3.579   9.607 -0.0559 -0.3343  0.2372
   19SAPC   H6R 2462   5.645   3.512   9.533 -0.8348 -1.5249  1.7548
   19SAPC   C27 2463   5.756   3.704   9.555 -0.0691 -0.5062 -0.2799
   19SAPC   H7R 2464   5.771   3.698   9.445 -0.1955 -3.7405 -0.2180
   19SAPC   H7S 2465   5.857   3.730   9.593  0.4222  0.7746 -2.2891
   19SAPC   C28 2466   5.683   3.829   9.586 -0.4122  0.0557 -0.6143
   19SAPC   H8R 2467   5.595   3.829   9.651 -0.8106  3.4443 -0.9555
   19SAPC   C29 2468   5.719   3.942   9.529  0.1335 -0.2572 -0.5286
   19SAPC   H9R 2469   5.650   4.025   9.554  0.5427  0.3158 -1.2493
   19SAPC  C210 2470   5.833   3.972   9.431 -1.4413 -0.3625  0.6253
   19SAPC  H10R 2471   5.794   3.959   9.327 -3.8169  1.0787  1.2596
   19SAPC  H10S 2472   5.918   3.902   9.445 -1.0736 -0.5062 -1.7839
   19SAPC  C211 2473   5.896   4.106   9.465  0.0908 -0.4961 -0.0723
   19SAPC  H11R 2474   5.857   4.158   9.554  0.0702 -1.7781  0.7014
   19SAPC  C212 2475   5.997   4.154   9.388 -0.1650 -0.1020  0.1500
   19SAPC  H12R 2476   6.037   4.251   9.421 -1.5142  0.5343 -0.0450
   19SAPC  C213 2477   6.056   4.089   9.262 -0.6915  0.0802  0.3935
   19SAPC  H13R 2478   5.981   4.023   9.214  0.3123 -0.8823  0.0959
   19SAPC  H13S 2479   6.139   4.021   9.291  0.0501 -0.0537 -1.8666
   19SAPC  C214 2480   6.119   4.191   9.165 -0.0617  0.0734 -0.6383
   19SAPC  H14R 2481   6.228   4.205   9.166 -0.0257 -0.1856 -0.7753
   19SAPC  C215 2482   6.058   4.276   9.078  0.3319  0.4907 -0.5417
   19SAPC  H15R 2483   6.120   4.341   9.015  1.2848 -0.8854 -1.0564
   19SAPC  C216 2484   5.906   4.286   9.070 -0.8370  1.0729  0.4954
   19SAPC  H16R 2485   5.870   4.391   9.063 -1.5771  0.7450 -0.9632
   19SAPC  H16S 2486   5.869   4.253   9.169 -0.2445 -1.1899  0.0213
   19SAPC  C217 2487   5.853   4.173   8.973 -0.1303 -0.4420 -0.4868
   19SAPC  H17R 2488   5.749   4.157   9.009 -0.6439  2.2372 -0.5389
   19SAPC  H17S 2489   5.911   4.079   8.972  2.4500  1.0403 -0.9081
   19SAPC  C218 2490   5.852   4.230   8.835  0.1165  0.2683  0.4069
   19SAPC  H18R 2491   5.953   4.231   8.788 -0.1070 -2.5594 -0.3656
   19SAPC  H18S 2492   5.807   4.331   8.840  0.2365  0.2689  2.0032
   19SAPC  C219 2493   5.761   4.139   8.737 -0.8467 -0.0009 -0.7343
   19SAPC  H19R 2494   5.744   4.203   8.647 -1.7876 -0.3765 -0.8327
   19SAPC  H19S 2495   5.662   4.121   8.783 -0.1875  2.0181  1.6446
   19SAPC  C220 2496   5.816   4.004   8.692 -0.2333  0.2722  0.0243
   19SAPC  H20R 2497   5.920   4.025   8.661  0.0058 -0.8327  0.0486
   19SAPC  H20S 2498   5.758   3.954   8.611 -0.1667 -2.4402  1.5373
   19SAPC  H20T 2499   5.824   3.937   8.780 -1.2033 -0.9145 -0.7537
   19SAPC   C33 2500   5.623   2.981   9.817  0.0214 -0.8821 -0.6052
   19SAPC   H3X 2501   5.562   2.906   9.762 -1.1005  0.9600 -1.9895
   19SAPC   H3Y 2502   5.680   3.024   9.731 -1.9152 -0.2848 -1.6355
   19SAPC   C34 2503   5.512   3.092   9.855 -0.1105  0.8015 -0.2305
   19SAPC   H4X 2504   5.556   3.189   9.887  0.8177 -0.6849  3.5306
   19SAPC   H4Y 2505   5.448   3.049   9.934  0.8623 -0.5184 -0.1328
   19SAPC   C35 2506   5.427   3.125   9.732 -0.7671 -0.2776  0.5304
   19SAPC   H5X 2507   5.362   3.214   9.743 -1.4178 -0.5750 -0.7131
   19SAPC   H5Y 2508   5.367   3.037   9.701  0.4574 -0.2412 -2.3622
   19SAPC   C36 2509   5.509   3.161   9.606  0.0290 -0.5044 -0.1361
   19SAPC   H6X 2510   5.566   3.072   9.572  0.7937 -0.0861  0.0238
   19SAPC   H6Y 2511   5.582   3.242   9.629  2.2391 -2.2639 -0.5877
   19SAPC   C37 2512   5.426   3.213   9.487  0.7227  0.5250  0.7065
   19SAPC   H7X 2513   5.369   3.304   9.519  0.5434  0.1073  1.6014
   19SAPC   H7Y 2514   5.350   3.134   9.467  0.8422  0.2591  1.3028
   19SAPC   C38 2515   5.506   3.258   9.362  0.3542  0.3544 -0.6841
   19SAPC   H8X 2516   5.576   3.176   9.335  1.0675  0.1859  1.5034
   19SAPC   H8Y 2517   5.562   3.349   9.392  0.0791  1.0210 -2.1152
   19SAPC   C39 2518   5.424   3.291   9.238  0.2185  0.8916  0.3647
   19SAPC   H9X 2519   5.340   3.352   9.277 -0.0164  0.6314  0.2732
   19SAPC   H9Y 2520   5.386   3.194   9.199 -0.4175 -0.4183  3.9063
   19SAPC  C310 2521   5.497   3.362   9.125  0.5348 -0.3219  0.8945
   19SAPC  H10X 2522   5.578   3.302   9.077  1.5235  0.8857  0.9867
   19SAPC  H10Y 2523   5.550   3.452   9.161 -0.7495  0.2950  1.2718
   19SAPC  C311 2524   5.405   3.410   9.006 -0.0674 -0.1619  0.0154
   19SAPC  H11X 2525   5.340   3.496   9.032  1.2390  1.5448 -1.9861
   19SAPC  H11Y 2526   5.340   3.323   8.982 -0.6284 -0.1191  1.2742
   19SAPC  C312 2527   5.488   3.436   8.879 -0.4636 -0.2544 -0.0697
   19SAPC  H12X 2528   5.488   3.344   8.817  1.4348 -0.6265  0.3946
   19SAPC  H12Y 2529   5.593   3.461   8.907 -1.1244  2.1048  0.5366
   19SAPC  C313 2530   5.428   3.543   8.791 -0.1228  0.5115 -0.4053
   19SAPC  H13X 2531   5.398   3.627   8.858 -0.9967 -0.2668  0.1925
   19SAPC  H13Y 2532   5.326   3.509   8.763  0.3106 -1.0755 -0.1354
   19SAPC  C314 2533   5.504   3.569   8.661 -0.4260  0.6560 -0.8827
   19SAPC  H14X 2534   5.487   3.480   8.596  2.5920  0.9751 -2.2737
   19SAPC  H14Y 2535   5.612   3.578   8.686 -0.6132  0.7655 -0.0628
   19SAPC  C315 2536   5.469   3.697   8.597 -0.3360  0.0461  0.0104
   19SAPC  H15X 2537   5.473   3.783   8.668 -2.8040  2.4710 -2.4990
   19SAPC  H15Y 2538   5.362   3.690   8.569 -1.2067  0.2708  2.9900
   19SAPC  C316 2539   5.559   3.713   8.470 -0.4205  0.0479 -0.5813
   19SAPC  H16X 2540   5.535   3.636   8.393 -1.2650  0.1576 -0.4406
   19SAPC  H16Y 2541   5.664   3.693   8.502 -1.1143 -1.1609  1.0963
   19SAPC  C317 2542   5.538   3.851   8.405  0.3469 -0.2508  0.8763
   19SAPC  H17X 2543   5.551   3.936   8.475 -2.2876  0.9270  0.0283
   19SAPC  H17Y 2544   5.429   3.843   8.387  0.2581 -0.3854  1.4834
   19SAPC  C318 2545   5.613   3.873   8.269 -0.0277  0.2289 -0.4810
   19SAPC  H18X 2546   5.721   3.882   8.291  0.6661 -1.1028 -3.0278
   19SAPC  H18Y 2547   5.579   3.966   8.219 -0.3572  1.1241  1.3184
   19SAPC  H18Z 2548   5.603   3.784   8.204 -1.6292 -0.1697  0.2610
   20SAPC     N 2549   0.008   6.660  11.204 -1.0434 -0.2095 -0.2127
   20SAPC   C12 2550  -0.050   6.710  11.068 -0.0215 -0.5591 -0.1838
   20SAPC  H12A 2551  -0.058   6.817  11.083  1.9924 -0.4237  0.1050
   20SAPC  H12B 2552  -0.153   6.675  11.064 -0.1693 -0.0187 -1.3160
   20SAPC   C13 2553   0.148   6.721  11.222  0.0989 -0.2654  0.1890
   20SAPC  H13A 2554   0.204   6.688  11.136 -0.6909  0.6648 -0.7111
   20SAPC  H13B 2555   0.138   6.828  11.234  0.5229 -0.3416  1.3777
   20SAPC  H13C 2556   0.195   6.672  11.307  1.1860  1.5081  0.6510
   20SAPC   C14 2557  -0.078   6.698  11.316  0.1781 -0.6641  0.1152
   20SAPC  H14A 2558  -0.014   6.675  11.400  1.2161  0.7928 -0.2299
   20SAPC  H14B 2559  -0.108   6.802  11.313 -1.3450 -1.0863 -0.0091
   20SAPC  H14C 2560  -0.167   6.638  11.325 -0.5449  0.3093 -0.3906
   20SAPC   C15 2561   0.042   6.519  11.202  0.5891 -0.5182 -0.3573
   20SAPC  H15A 2562  -0.037   6.459  11.159 -0.2354 -0.0149  0.4389
   20SAPC  H15B 2563   0.123   6.501  11.133  1.1385  1.4126 -0.2565
   20SAPC  H15C 2564   0.066   6.485  11.302  0.2320  0.0775 -0.0661
   20SAPC   C11 2565   0.024   6.682  10.938  0.6170  0.3816 -0.0541
   20SAPC  H11A 2566  -0.040   6.715  10.854 -0.0155  1.1948  0.7386
   20SAPC  H11B 2567   0.038   6.572  10.934  2.4739  0.5764 -0.0304
   20SAPC     P 2568   0.151   6.889  10.882  0.3296 -0.2093 -0.1616
   20SAPC   O13 2569   0.052   6.969  10.957 -0.1044  0.6394 -0.4407
   20SAPC   O14 2570   0.293   6.931  10.904  0.9689  0.2906 -0.2363
   20SAPC   O12 2571   0.147   6.745  10.934  0.1125 -0.3235 -0.2895
   20SAPC   O11 2572   0.113   6.887  10.729 -0.8715  0.3191  0.4743
   20SAPC    C1 2573   0.208   6.818  10.637  0.4981 -0.0466  0.0839
   20SAPC    HA 2574   0.315   6.848  10.636  0.5054  0.0917  1.6338
   20SAPC    HB 2575   0.197   6.709  10.655 -0.8446 -0.3839 -2.3408
   20SAPC    C2 2576   0.151   6.822  10.493  0.0317 -1.2058 -0.3948
   20SAPC    HS 2577   0.195   6.741  10.431 -1.7335 -1.9497 -0.7417
   20SAPC   O21 2578   0.167   6.957  10.436 -0.3428 -0.2285  0.0104
   20SAPC   C21 2579   0.289   6.990  10.411 -0.6601  0.0363  0.0274
   20SAPC   O22 2580   0.390   6.928  10.425 -0.0028 -0.2796 -0.1061
   20SAPC   C22 2581   0.280   7.130  10.339 -0.8126 -0.1595 -0.4956
   20SAPC   H2R 2582   0.195   7.135  10.268 -2.1695 -0.7031  1.0360
   20SAPC   H2S 2583   0.257   7.202  10.420  2.2689 -0.5341  0.8329
   20SAPC    C3 2584  -0.003   6.794  10.489  0.2090  0.2550  0.1699
   20SAPC    HX 2585  -0.052   6.881  10.537  1.0303  1.0239 -0.3722
   20SAPC    HY 2586  -0.016   6.703  10.552 -0.0406  0.4591  0.4148
   20SAPC   O31 2587  -0.059   6.785  10.351 -0.1107 -0.4939 -0.0722
   20SAPC   C31 2588  -0.026   6.682  10.279  0.3038  0.5352  0.6471
   20SAPC   O32 2589   0.048   6.588  10.321 -0.0548 -1.1558 -0.0902
   20SAPC   C32 2590  -0.115   6.675  10.154 -0.8637  0.6980 -0.4166
   20SAPC   H2X 2591  -0.091   6.769  10.099  3.1185 -0.6108 -1.2974
   20SAPC   H2Y 2592  -0.221   6.668  10.185 -1.6482  1.5910 -2.6984
   20SAPC   C23 2593   0.405   7.171  10.255  0.1237 -0.7763  0.3250
   20SAPC   H3R 2594   0.439   7.098  10.179 -0.5951 -0.0033 -0.7765
   20SAPC   H3S 2595   0.494   7.178  10.321  0.4321 -2.4975  0.1209
   20SAPC   C24 2596   0.369   7.302  10.173 -0.0518  0.9004  0.0295
   20SAPC   H4R 2597   0.351   7.377  10.253  1.0271  0.8607  0.3311
   20SAPC   H4S 2598   0.272   7.281  10.123  0.4113 -0.1498 -0.4519
   20SAPC   C25 2599   0.469   7.356  10.077  0.9127 -0.7943 -0.6210
   20SAPC   H5R 2600   0.550   7.417  10.118  0.9677 -0.5045 -1.1471
   20SAPC   C26 2601   0.465   7.331   9.947 -0.4616  0.5166 -0.5166
   20SAPC   H6R 2602   0.543   7.370   9.879 -1.0407  0.1063 -1.4249
   20SAPC   C27 2603   0.369   7.233   9.879  1.0103 -0.0869 -0.3677
   20SAPC   H7R 2604   0.264   7.268   9.865  0.3508 -1.8597 -0.1082
   20SAPC   H7S 2605   0.371   7.137   9.934 -1.3543  0.3146  0.5487
   20SAPC   C28 2606   0.417   7.188   9.748 -0.8898  0.1417  0.6405
   20SAPC   H8R 2607   0.514   7.136   9.747 -0.2988  1.1968 -0.0154
   20SAPC   C29 2608   0.382   7.239   9.629 -0.6165  0.9153  0.0266
   20SAPC   H9R 2609   0.430   7.195   9.540 -2.4522 -2.7774  0.6762
   20SAPC  C210 2610   0.274   7.337   9.595  0.0702 -0.2365  0.0950
   20SAPC  H10R 2611   0.263   7.414   9.674 -0.6412 -0.3210  0.0834
   20SAPC  H10S 2612   0.179   7.281   9.597 -0.6825  0.8789 -1.7193
   20SAPC  C211 2613   0.298   7.393   9.458 -0.1855 -0.3867 -0.3018
   20SAPC  H11R 2614   0.373   7.473   9.466 -1.0122  0.6158 -2.0523
   20SAPC  C212 2615   0.258   7.353   9.337 -0.2398  0.3377 -1.2719
   20SAPC  H12R 2616   0.286   7.409   9.246 -0.6716  2.0524 -0.3798
   20SAPC  C213 2617   0.167   7.243   9.309  0.6230 -0.0638 -0.0108
   20SAPC  H13R 2618   0.117   7.212   9.404 -1.7601  2.4370 -0.3502
   20SAPC  H13S 2619   0.228   7.156   9.278 -2.4210 -1.4086 -2.8116
   20SAPC  C214 2620   0.051   7.260   9.216 -0.9566  0.1509 -0.0386
   20SAPC  H14R 2621  -0.029   7.330   9.246  0.6768  0.4242  4.3605
   20SAPC  C215 2622   0.027   7.186   9.110  0.1613 -0.1768  0.1272
   20SAPC  H15R 2623  -0.059   7.215   9.047  1.3324  0.1740 -1.3636
   20SAPC  C216 2624   0.111   7.074   9.056  0.1345 -0.2599 -0.0898
   20SAPC  H16R 2625   0.071   6.975   9.088  1.0104  0.4327  3.5025
   20SAPC  H16S 2626   0.213   7.072   9.099  0.1693  0.3976 -0.1373
   20SAPC  C217 2627   0.126   7.091   8.902  0.2465  0.2035  0.3404
   20SAPC  H17R 2628   0.180   7.185   8.877  1.9489 -1.0021 -0.7791
   20SAPC  H17S 2629   0.029   7.096   8.849  1.3689 -3.2564 -2.5041
   20SAPC  C218 2630   0.208   6.985   8.822  0.1865 -0.1627 -0.3655
   20SAPC  H18R 2631   0.142   6.899   8.800 -0.1482 -0.3172  1.1031
   20SAPC  H18S 2632   0.289   6.949   8.890 -1.0532  0.1402  1.3393
   20SAPC  C219 2633   0.252   7.035   8.683  0.3163 -0.1768 -0.6471
   20SAPC  H19R 2634   0.345   6.983   8.654  0.6654  0.3641 -0.5206
   20SAPC  H19S 2635   0.285   7.139   8.702 -1.2248  0.2283  0.0013
   20SAPC  C220 2636   0.147   7.005   8.576  0.2891  0.0235  0.0043
   20SAPC  H20R 2637   0.187   7.017   8.473 -1.1841 -2.2028 -0.8869
   20SAPC  H20S 2638   0.054   7.060   8.600  0.0552 -0.1898 -0.4194
   20SAPC  H20T 2639   0.119   6.898   8.586  2.9764 -0.8701 -1.0859
   20SAPC   C33 2640  -0.084   6.555  10.064  0.2448  0.6382 -0.1388
   20SAPC   H3X 2641  -0.089   6.460  10.122  1.8838 -1.4184 -3.0732
   20SAPC   H3Y 2642   0.024   6.566  10.039  0.1042  1.4658 -0.4309
   20SAPC   C34 2643  -0.174   6.548   9.937  0.7632  0.6633  0.2768
   20SAPC   H4X 2644  -0.280   6.546   9.971  1.5171  2.2072  3.0375
   20SAPC   H4Y 2645  -0.136   6.472   9.866 -0.9409  0.6418 -0.6689
   20SAPC   C35 2646  -0.179   6.678   9.855 -0.0088 -1.2415 -0.7783
   20SAPC   H5X 2647  -0.088   6.714   9.803  0.8451 -1.9406  0.1954
   20SAPC   H5Y 2648  -0.196   6.755   9.933  1.5230 -0.7302 -0.9188
   20SAPC   C36 2649  -0.302   6.693   9.751 -0.1415 -0.2916 -0.2183
   20SAPC   H6X 2650  -0.318   6.801   9.728 -2.1893 -0.9520 -2.1631
   20SAPC   H6Y 2651  -0.395   6.650   9.793 -0.7277  0.0856 -1.0995
   20SAPC   C37 2652  -0.286   6.620   9.618 -0.0544  0.3599 -0.0934
   20SAPC   H7X 2653  -0.280   6.512   9.645 -1.3629  0.0503 -0.9329
   20SAPC   H7Y 2654  -0.193   6.655   9.569 -0.1309  0.2873 -0.2916
   20SAPC   C38 2655  -0.426   6.631   9.552 -0.5175 -0.2868 -0.4884
   20SAPC   H8X 2656  -0.453   6.739   9.560  1.7742  0.5942 -3.0139
   20SAPC   H8Y 2657  -0.507   6.576   9.605 -0.8959  0.4544 -0.2832
   20SAPC   C39 2658  -0.440   6.600   9.400 -0.0715 -0.2731  0.6782
   20SAPC   H9X 2659  -0.430   6.494   9.367 -1.3423 -0.2172  0.0574
   20SAPC   H9Y 2660  -0.364   6.660   9.345 -1.2618 -0.9266 -1.8308
   20SAPC  C310 2661  -0.584   6.635   9.355 -0.1485 -0.4737 -0.1953
   20SAPC  H10X 2662  -0.603   6.742   9.376 -2.9914 -0.7286 -1.0518
   20SAPC  H10Y 2663  -0.655   6.571   9.412 -0.5012  0.5346  0.5200
   20SAPC  C311 2664  -0.605   6.622   9.205  0.1472  0.2860  0.1685
   20SAPC  H11X 2665  -0.581   6.518   9.172 -0.4273  0.5208 -1.0283
   20SAPC  H11Y 2666  -0.533   6.680   9.143 -0.4838  1.4022  0.4548
   20SAPC  C312 2667  -0.749   6.647   9.153  0.2636  0.5418 -0.1592
   20SAPC  H12X 2668  -0.779   6.752   9.169  0.4977  0.5334  0.3655
   20SAPC  H12Y 2669  -0.820   6.586   9.214  0.0379  2.5029  1.6740
   20SAPC  C313 2670  -0.766   6.601   9.009  0.1095  0.2904  0.1169
   20SAPC  H13X 2671  -0.754   6.491   9.003 -0.9664  0.1138  0.8885
   20SAPC  H13Y 2672  -0.689   6.647   8.944 -2.0307  2.5489 -0.9699
   20SAPC  C314 2673  -0.903   6.646   8.961  0.1648 -0.0532  0.5945
   20SAPC  H14X 2674  -0.900   6.756   8.953  0.0828 -0.2036 -2.9295
   20SAPC  H14Y 2675  -0.988   6.606   9.021 -0.9754  0.0318 -0.9151
   20SAPC  C315 2676  -0.922   6.599   8.812 -0.8617  0.8601  0.4659
   20SAPC  H15X 2677  -0.922   6.488   8.818  2.2316  0.6390 -1.1873
   20SAPC  H15Y 2678  -0.837   6.624   8.744  2.7778 -3.8200  2.7190
   20SAPC  C316 2679  -1.052   6.638   8.744  0.0548 -0.1267  0.8217
   20SAPC  H16X 2680  -1.038   6.744   8.716 -0.7787  0.3216  1.9808
   20SAPC  H16Y 2681  -1.137   6.628   8.816 -1.8334 -0.9338 -1.3868
   20SAPC  C317 2682  -1.089   6.556   8.628  0.4376 -0.2570 -0.3471
   20SAPC  H17X 2683  -1.101   6.451   8.664 -1.2883 -0.4421 -1.3624
   20SAPC  H17Y 2684  -1.008   6.563   8.552  1.9436  0.6195  1.2662
   20SAPC  C318 2685  -1.222   6.600   8.577 -0.2373  0.4525  0.5576
   20SAPC  H18X 2686  -1.299   6.634   8.650  1.3458  0.0380  2.4955
   20SAPC  H18Y 2687  -1.263   6.518   8.515 -1.2439 -0.2084  2.0538
   20SAPC  H18Z 2688  -1.206   6.685   8.507 -1.6875  0.8132  0.6327
   21SAPC     N 2689   6.193   0.329  10.884  0.5116 -0.3817 -0.1773
   21SAPC   C12 2690   6.152   0.394  10.755  0.9301 -0.0544  0.5623
   21SAPC  H12A 2691   6.240   0.435  10.709  0.0707  1.0877 -0.1272
   21SAPC  H12B 2692   6.091   0.482  10.766  0.0870 -0.4715 -0.5922
   21SAPC   C13 2693   6.079   0.283  10.961  0.0053  0.2691 -0.1285
   21SAPC  H13A 2694   6.012   0.363  10.989 -0.0584  0.3582 -0.5222
   21SAPC  H13B 2695   6.025   0.209  10.904  1.7550  0.4602 -2.1720
   21SAPC  H13C 2696   6.114   0.250  11.057 -1.1582 -0.7368 -0.0281
   21SAPC   C14 2697   6.293   0.215  10.871  0.3727 -0.5790  0.1525
   21SAPC  H14A 2698   6.333   0.187  10.968  0.2429 -0.1326  0.3379
   21SAPC  H14B 2699   6.248   0.133  10.817  1.3943 -0.0227 -1.6221
   21SAPC  H14C 2700   6.382   0.249  10.820  1.1139 -0.3863  1.5047
   21SAPC   C15 2701   6.249   0.443  10.964  0.2092 -0.0296  0.2170
   21SAPC  H15A 2702   6.316   0.496  10.898  0.0395 -0.6951 -0.5096
   21SAPC  H15B 2703   6.165   0.498  11.002  0.3472 -0.2146  0.8013
   21SAPC  H15C 2704   6.308   0.421  11.052 -0.0430  0.3137  0.4748
   21SAPC   C11 2705   6.090   0.307  10.644 -0.2230  0.0217  0.5093
   21SAPC  H11A 2706   6.170   0.231  10.628  1.9840  2.3189  0.0075
   21SAPC  H11B 2707   6.081   0.373  10.555 -0.5167  0.6512  1.0005
   21SAPC     P 2708   5.931   0.105  10.669  0.5324  0.3749 -0.0892
   21SAPC   O13 2709   6.023   0.028  10.755 -0.4299  0.4363 -0.8276
   21SAPC   O14 2710   5.784   0.087  10.704 -0.3189  0.8920  0.0204
   21SAPC   O12 2711   5.965   0.258  10.687  0.0236 -0.5075  0.4241
   21SAPC   O11 2712   5.956   0.069  10.523 -0.5110  0.1569 -0.2207
   21SAPC    C1 2713   5.901   0.157  10.426  0.0728  0.1207  0.2292
   21SAPC    HA 2714   5.914   0.263  10.457  3.4837 -0.1730  0.1703
   21SAPC    HB 2715   5.951   0.152  10.326  1.0208 -0.8928  0.7299
   21SAPC    C2 2716   5.755   0.107  10.400  0.5546 -0.2573  0.4232
   21SAPC    HS 2717   5.714   0.057  10.490 -1.7973  1.1612  0.2368
   21SAPC   O21 2718   5.771   0.008  10.299 -0.3306  0.1723 -0.2805
   21SAPC   C21 2719   5.669  -0.070  10.261 -0.3273 -0.4593 -0.9365
   21SAPC   O22 2720   5.571  -0.080  10.327  0.2191  0.5221 -0.6273
   21SAPC   C22 2721   5.701  -0.158  10.144  0.2244 -0.1922  0.1470
   21SAPC   H2R 2722   5.701  -0.090  10.056 -0.3906 -2.3514 -1.6249
   21SAPC   H2S 2723   5.810  -0.179  10.142  1.0513  3.2433 -2.6363
   21SAPC    C3 2724   5.657   0.222  10.355 -0.1241  0.0991  0.1213
   21SAPC    HX 2725   5.640   0.280  10.447 -1.7747 -0.4547  0.1890
   21SAPC    HY 2726   5.557   0.178  10.337 -0.4504  1.2078 -0.9269
   21SAPC   O31 2727   5.721   0.309  10.256  1.0880 -0.0115  0.1708
   21SAPC   C31 2728   5.703   0.268  10.128 -0.1332  1.0109 -0.1933
   21SAPC   O32 2729   5.635   0.172  10.088 -0.0985  0.5961  0.0090
   21SAPC   C32 2730   5.808   0.342  10.042  0.1164  0.1031 -0.4435
   21SAPC   H2X 2731   5.904   0.322  10.094  0.4544  2.0501 -0.2294
   21SAPC   H2Y 2732   5.788   0.451  10.058  1.3469  0.1514  0.9645
   21SAPC   C23 2733   5.601  -0.271  10.122 -0.3158 -0.0560  0.0902
   21SAPC   H3R 2734   5.498  -0.233  10.138  0.0641  0.2049  2.3111
   21SAPC   H3S 2735   5.612  -0.346  10.203 -0.5029 -0.5122 -0.3082
   21SAPC   C24 2736   5.621  -0.328   9.981 -0.1776  0.8216 -0.1407
   21SAPC   H4R 2737   5.644  -0.258   9.898  1.4882 -0.6772 -1.0088
   21SAPC   H4S 2738   5.523  -0.371   9.949 -0.1172  0.2138  0.4851
   21SAPC   C25 2739   5.730  -0.438   9.984 -0.3317 -0.1709 -0.2470
   21SAPC   H5R 2740   5.756  -0.463  10.088 -0.9025 -1.8100 -0.4669
   21SAPC   C26 2741   5.782  -0.510   9.887  0.1602  0.8302 -0.6874
   21SAPC   H6R 2742   5.870  -0.572   9.908  1.1250  2.7659  1.4218
   21SAPC   C27 2743   5.752  -0.497   9.740  0.1848  0.1556 -0.0505
   21SAPC   H7R 2744   5.833  -0.544   9.680 -0.5099  1.0489 -1.7645
   21SAPC   H7S 2745   5.771  -0.392   9.709  2.1452 -0.8787 -2.6939
   21SAPC   C28 2746   5.618  -0.552   9.689 -0.9942  0.5683 -0.3161
   21SAPC   H8R 2747   5.533  -0.552   9.758 -0.7390 -0.1366  0.0055
   21SAPC   C29 2748   5.590  -0.600   9.569  0.0227  0.5739  0.1436
   21SAPC   H9R 2749   5.489  -0.640   9.548 -0.0067  0.4370  0.5503
   21SAPC  C210 2750   5.694  -0.601   9.461  0.3999 -0.1939  1.1177
   21SAPC  H10R 2751   5.652  -0.660   9.376 -1.8809  0.0676  1.9974
   21SAPC  H10S 2752   5.788  -0.652   9.492  0.2896 -1.1502 -0.0497
   21SAPC  C211 2753   5.737  -0.458   9.414 -0.2709 -0.3561  0.5533
   21SAPC  H11R 2754   5.716  -0.385   9.493 -0.0323  0.1696  0.1377
   21SAPC  C212 2755   5.781  -0.411   9.293 -0.2999 -0.6466 -0.5362
   21SAPC  H12R 2756   5.801  -0.303   9.290 -0.5667 -0.4102  2.6114
   21SAPC  C213 2757   5.790  -0.494   9.169 -0.2921  0.0869  0.3448
   21SAPC  H13R 2758   5.833  -0.592   9.198 -0.4437  0.3038  1.3554
   21SAPC  H13S 2759   5.876  -0.455   9.111  1.9143 -1.1312  2.5598
   21SAPC  C214 2760   5.668  -0.507   9.087 -0.1936 -0.4543 -0.1158
   21SAPC  H14R 2761   5.575  -0.468   9.132  0.7230  1.2064  0.3996
   21SAPC  C215 2762   5.657  -0.569   8.970  0.1353 -0.2943  0.2755
   21SAPC  H15R 2763   5.558  -0.582   8.923  0.0515 -0.7156  0.5713
   21SAPC  C216 2764   5.771  -0.640   8.904  0.9537 -0.1939 -0.0809
   21SAPC  H16R 2765   5.821  -0.709   8.975  1.1657 -0.9477 -0.9387
   21SAPC  H16S 2766   5.852  -0.574   8.867  0.2991  0.5031 -0.2999
   21SAPC  C217 2767   5.712  -0.711   8.785  0.4283  0.7094  0.4949
   21SAPC  H17R 2768   5.674  -0.656   8.696  0.8982  1.0848  0.5258
   21SAPC  H17S 2769   5.629  -0.777   8.819 -0.3342  1.0914 -0.5572
   21SAPC  C218 2770   5.833  -0.783   8.730 -0.6666  0.4667 -0.0818
   21SAPC  H18R 2771   5.889  -0.832   8.812 -2.0471  1.2642  1.3791
   21SAPC  H18S 2772   5.905  -0.705   8.696 -0.1816 -1.1006 -3.0191
   21SAPC  C219 2773   5.809  -0.875   8.613 -0.0163  0.1902 -0.2887
   21SAPC  H19R 2774   5.857  -0.830   8.523 -1.2134 -0.8122 -1.4700
   21SAPC  H19S 2775   5.701  -0.871   8.586 -0.6740  0.6458  2.1539
   21SAPC  C220 2776   5.857  -1.019   8.635  0.6227  0.4842  0.0564
   21SAPC  H20R 2777   5.952  -1.047   8.684  0.5738  0.0898 -0.0654
   21SAPC  H20S 2778   5.840  -1.085   8.546  1.0906  0.5194 -0.0587
   21SAPC  H20T 2779   5.788  -1.055   8.714 -1.4328  0.4321 -1.6458
   21SAPC   C33 2780   5.797   0.304   9.890  0.3183  0.0509 -0.5410
   21SAPC   H3X 2781   5.691   0.302   9.859  0.5079 -0.3676 -1.1741
   21SAPC   H3Y 2782   5.839   0.203   9.870  1.5035  0.2120  0.9371
   21SAPC   C34 2783   5.867   0.414   9.810 -0.6795  0.3206  0.6249
   21SAPC   H4X 2784   5.975   0.428   9.829 -0.3844  1.3956 -1.5940
   21SAPC   H4Y 2785   5.820   0.511   9.835  0.0535  1.0792 -0.7998
   21SAPC   C35 2786   5.852   0.401   9.654  0.5176  0.6114  0.0066
   21SAPC   H5X 2787   5.754   0.437   9.618 -0.5253 -0.6190  1.5170
   21SAPC   H5Y 2788   5.855   0.293   9.628  2.2103 -0.1348  2.8282
   21SAPC   C36 2789   5.967   0.471   9.575  0.7020  0.1211 -0.2466
   21SAPC   H6X 2790   6.065   0.440   9.617 -0.3757 -1.3646  1.3056
   21SAPC   H6Y 2791   5.959   0.581   9.589 -0.2869  0.4441 -2.7668
   21SAPC   C37 2792   5.962   0.434   9.422 -0.2267 -0.7106  1.2325
   21SAPC   H7X 2793   5.863   0.469   9.387 -1.0367 -0.8609  3.2547
   21SAPC   H7Y 2794   5.965   0.323   9.415 -1.0062 -0.6806  0.2723
   21SAPC   C38 2795   6.079   0.500   9.341  0.0733  1.0348 -0.1460
   21SAPC   H8X 2796   6.181   0.497   9.386  0.3053  1.4917 -0.6336
   21SAPC   H8Y 2797   6.063   0.606   9.311 -0.5670  0.2605 -2.7574
   21SAPC   C39 2798   6.097   0.435   9.200  0.2428  0.0006 -0.1533
   21SAPC   H9X 2799   6.034   0.478   9.119  1.5383  0.5884 -0.8716
   21SAPC   H9Y 2800   6.063   0.330   9.213 -0.6941  0.4055  0.8332
   21SAPC  C310 2801   6.243   0.447   9.142 -0.5052  0.5604  0.4471
   21SAPC  H10X 2802   6.252   0.391   9.047  0.8963  0.6466  0.5155
   21SAPC  H10Y 2803   6.309   0.395   9.215 -0.6765  0.6427  0.6622
   21SAPC  C311 2804   6.302   0.579   9.110 -0.2377 -0.1418  0.1487
   21SAPC  H11X 2805   6.310   0.633   9.207  0.8067 -0.7261  0.4102
   21SAPC  H11Y 2806   6.250   0.635   9.030  2.5493 -0.7696 -2.2972
   21SAPC  C312 2807   6.451   0.568   9.054  0.3463 -0.2028  0.2605
   21SAPC  H12X 2808   6.453   0.526   8.951 -0.3139  2.3426 -0.8618
   21SAPC  H12Y 2809   6.517   0.509   9.122  1.6643  0.9436  0.0209
   21SAPC  C313 2810   6.512   0.708   9.049 -0.5877 -0.5536 -0.1286
   21SAPC  H13X 2811   6.619   0.699   9.020 -0.8698 -0.6119 -1.1757
   21SAPC  H13Y 2812   6.506   0.759   9.148  0.3128  1.3075 -0.9744
   21SAPC  C314 2813   6.456   0.811   8.948  0.2002 -0.2926 -0.1389
   21SAPC  H14X 2814   6.518   0.903   8.939 -1.7876  1.1918  0.5508
   21SAPC  H14Y 2815   6.353   0.844   8.977  0.5279  0.8382 -0.2000
   21SAPC  C315 2816   6.445   0.741   8.811 -0.1838  0.7839  0.7531
   21SAPC  H15X 2817   6.367   0.661   8.816  0.1146  0.5473  4.0646
   21SAPC  H15Y 2818   6.539   0.687   8.789 -1.0273  0.5137 -2.6597
   21SAPC  C316 2819   6.413   0.841   8.702  0.2256  0.2043 -0.2632
   21SAPC  H16X 2820   6.506   0.901   8.693  2.0021 -2.5807 -1.9675
   21SAPC  H16Y 2821   6.332   0.908   8.734 -1.7555 -0.2758 -3.7979
   21SAPC  C317 2822   6.372   0.772   8.574  0.7840  0.2869  0.1548
   21SAPC  H17X 2823   6.363   0.859   8.504  0.8440  0.1171 -0.0664
   21SAPC  H17Y 2824   6.267   0.735   8.578  0.0101  2.2065 -0.8963
   21SAPC  C318 2825   6.462   0.668   8.518 -0.8375  0.1296 -0.3557
   21SAPC  H18X 2826   6.533   0.725   8.454  0.6542 -0.6649  0.5111
   21SAPC  H18Y 2827   6.410   0.591   8.458  2.7842 -1.0796 -2.2640
   21SAPC  H18Z 2828   6.518   0.610   8.595 -0.4880  0.7624 -0.1270
   22SAPC     N 2829   5.267   2.971  10.492  0.5519  0.4667 -0.3948
   22SAPC   C12 2830   5.115   2.988  10.501 -1.0976 -0.6545 -0.0763
   22SAPC  H12A 2831   5.070   2.906  10.447 -0.9058  0.6499 -2.3265
   22SAPC  H12B 2832   5.090   3.084  10.458 -1.3047  0.2480  1.9440
   22SAPC   C13 2833   5.317   3.000  10.357 -0.8589  0.0449 -0.5060
   22SAPC  H13A 2834   5.267   2.951  10.274 -0.6884 -0.2433 -0.4389
   22SAPC  H13B 2835   5.297   3.105  10.343  1.2209  0.5242 -0.2179
   22SAPC  H13C 2836   5.423   2.992  10.341 -0.6605 -0.0113  0.7853
   22SAPC   C14 2837   5.332   3.085  10.576  0.0320  0.2551 -0.3174
   22SAPC  H14A 2838   5.440   3.086  10.569  0.3557  1.8281  3.1003
   22SAPC  H14B 2839   5.289   3.175  10.534  0.0044 -0.6384 -2.3077
   22SAPC  H14C 2840   5.296   3.076  10.678 -3.2035 -0.2427 -1.3691
   22SAPC   C15 2841   5.307   2.832  10.538  0.4239 -0.4858 -0.3470
   22SAPC  H15A 2842   5.258   2.822  10.634 -1.3837  0.2251 -1.1420
   22SAPC  H15B 2843   5.267   2.751  10.479  1.1958 -1.6977  0.7309
   22SAPC  H15C 2844   5.413   2.822  10.555 -0.0572 -1.2610  2.8210
   22SAPC   C11 2845   5.041   2.983  10.642 -0.3794  0.7014  0.2720
   22SAPC  H11A 2846   4.935   3.014  10.635 -0.3266  1.1776  1.3607
   22SAPC  H11B 2847   5.083   3.062  10.707  0.4589  1.0805 -0.7057
   22SAPC     P 2848   4.958   2.736  10.651  0.2996  0.5701 -0.2197
   22SAPC   O13 2849   5.024   2.606  10.688 -0.1131 -0.1294 -0.0623
   22SAPC   O14 2850   4.825   2.758  10.709 -0.5411 -0.2218  0.4169
   22SAPC   O12 2851   5.055   2.852  10.700  0.5090  0.1460  0.1535
   22SAPC   O11 2852   4.949   2.752  10.491 -0.0899  0.5069 -1.0192
   22SAPC    C1 2853   4.845   2.811  10.419  0.1985  0.2441  0.2497
   22SAPC    HA 2854   4.787   2.885  10.478  0.0146 -0.4334  0.9424
   22SAPC    HB 2855   4.886   2.874  10.338  0.9559  0.8207  1.0634
   22SAPC    C2 2856   4.764   2.696  10.353 -0.3168  0.0523  0.9295
   22SAPC    HS 2857   4.746   2.624  10.436  0.4626  1.4418  2.3636
   22SAPC   O21 2858   4.842   2.646  10.239  0.6138  0.4808 -0.0240
   22SAPC   C21 2859   4.817   2.521  10.208 -0.0126  0.3136  0.3235
   22SAPC   O22 2860   4.752   2.438  10.265 -0.2443  0.0104 -0.2464
   22SAPC   C22 2861   4.875   2.493  10.067 -0.0748 -0.2050 -0.0471
   22SAPC   H2R 2862   4.804   2.534   9.992  1.8535  0.6482 -1.5124
   22SAPC   H2S 2863   4.970   2.547  10.046  0.0177  0.8448  2.7290
   22SAPC    C3 2864   4.622   2.748  10.308  0.2740 -0.3851 -0.9195
   22SAPC    HX 2865   4.639   2.845  10.256  1.1429 -0.4016 -0.6762
   22SAPC    HY 2866   4.563   2.773  10.399  1.3017  0.5820 -0.4948
   22SAPC   O31 2867   4.556   2.653  10.225 -0.1405 -0.5574  0.1977
   22SAPC   C31 2868   4.425   2.670  10.211  0.3431 -0.2401 -0.2629
   22SAPC   O32 2869   4.349   2.741  10.275  0.3371 -0.3372  0.3984
   22SAPC   C32 2870   4.367   2.571  10.111  0.9391 -0.3118  0.7076
   22SAPC   H2X 2871   4.256   2.562  10.124  1.0520 -0.3576  1.7731
   22SAPC   H2Y 2872   4.409   2.470  10.131 -2.0658 -1.7942  0.1832
   22SAPC   C23 2873   4.893   2.345  10.048 -0.0519  0.6567 -0.6223
   22SAPC   H3R 2874   4.797   2.288  10.055  0.7041 -0.4281  1.3970
   22SAPC   H3S 2875   4.957   2.294  10.123  1.7767  1.7239 -1.4021
   22SAPC   C24 2876   4.948   2.305   9.907  0.1678  0.3617 -0.3649
   22SAPC   H4R 2877   4.866   2.325   9.834 -0.6757 -0.3468  0.3643
   22SAPC   H4S 2878   4.960   2.198   9.932  1.3335  0.6150  0.2206
   22SAPC   C25 2879   5.084   2.352   9.867 -0.2763  1.3845 -0.2444
   22SAPC   H5R 2880   5.159   2.335   9.946 -0.7026  0.7281  0.0279
   22SAPC   C26 2881   5.120   2.408   9.753  0.8687 -0.3683 -0.1571
   22SAPC   H6R 2882   5.224   2.441   9.740  1.2363 -0.9820  1.1165
   22SAPC   C27 2883   5.024   2.444   9.645  0.2552 -0.1079 -0.8907
   22SAPC   H7R 2884   5.071   2.523   9.583  0.4736  0.0954 -0.4673
   22SAPC   H7S 2885   4.941   2.500   9.693  1.8461  1.2232  0.3860
   22SAPC   C28 2886   4.974   2.324   9.571 -0.1424  0.1998  0.3769
   22SAPC   H8R 2887   4.953   2.232   9.628  1.9626 -0.5642 -0.0081
   22SAPC   C29 2888   4.962   2.319   9.433 -0.1112  0.2214 -0.5634
   22SAPC   H9R 2889   4.951   2.219   9.390  0.0420  0.2223 -0.6056
   22SAPC  C210 2890   5.013   2.425   9.337  0.1625  0.3391 -0.8882
   22SAPC  H10R 2891   5.124   2.423   9.337  0.3249  1.0968  3.0128
   22SAPC  H10S 2892   4.982   2.526   9.369 -2.0947  0.0192 -1.9028
   22SAPC  C211 2893   4.960   2.394   9.200 -0.0700  0.4178  0.3025
   22SAPC  H11R 2894   4.851   2.403   9.198 -0.4632 -1.2745  4.3485
   22SAPC  C212 2895   5.035   2.336   9.101  0.2356  0.2070 -0.0142
   22SAPC  H12R 2896   4.984   2.310   9.007  0.9473  0.4674 -0.4795
   22SAPC  C213 2897   5.178   2.297   9.112  0.0953  0.0837  0.6917
   22SAPC  H13R 2898   5.191   2.200   9.059 -1.0091  1.3516 -2.1134
   22SAPC  H13S 2899   5.221   2.289   9.214  0.9368  0.9451  0.4145
   22SAPC  C214 2900   5.270   2.390   9.034 -0.0277  0.2062 -0.3520
   22SAPC  H14R 2901   5.317   2.464   9.101  1.8063 -0.7889 -0.4776
   22SAPC  C215 2902   5.289   2.400   8.896  0.3184 -0.0946  0.0929
   22SAPC  H15R 2903   5.361   2.474   8.856 -0.5772 -0.2228 -1.8792
   22SAPC  C216 2904   5.228   2.310   8.788 -0.5553  0.7574 -0.2303
   22SAPC  H16R 2905   5.158   2.374   8.730 -1.6084  2.8545  3.0957
   22SAPC  H16S 2906   5.190   2.217   8.837  1.6052  0.9385  2.0129
   22SAPC  C217 2907   5.329   2.259   8.680 -0.6530  0.6724  0.5806
   22SAPC  H17R 2908   5.388   2.350   8.654  1.4728 -1.3784 -2.5863
   22SAPC  H17S 2909   5.288   2.220   8.585  0.5202 -2.1701  1.1354
   22SAPC  C218 2910   5.429   2.157   8.731 -0.3285  0.0341  0.8054
   22SAPC  H18R 2911   5.386   2.060   8.763 -1.5492 -0.7508 -2.7756
   22SAPC  H18S 2912   5.486   2.208   8.812  2.7481 -0.9395 -0.6244
   22SAPC  C219 2913   5.538   2.136   8.623 -0.1786 -0.1105  1.0141
   22SAPC  H19R 2914   5.572   2.234   8.585 -2.6264  0.5762  0.4245
   22SAPC  H19S 2915   5.474   2.092   8.543 -0.4756  0.2283  1.0645
   22SAPC  C220 2916   5.662   2.059   8.663 -0.6138 -0.2193 -0.0991
   22SAPC  H20R 2917   5.641   1.950   8.666  1.0367 -0.6412 -2.0025
   22SAPC  H20S 2918   5.703   2.082   8.764 -1.2058 -4.1486  1.2013
   22SAPC  H20T 2919   5.735   2.068   8.579 -1.1236  0.9495 -0.4258
   22SAPC   C33 2920   4.383   2.612   9.964  0.1889  0.5570  0.0500
   22SAPC   H3X 2921   4.329   2.706   9.939  0.7759  1.1781  1.0533
   22SAPC   H3Y 2922   4.340   2.533   9.898 -2.3782 -1.5427  3.8431
   22SAPC   C34 2923   4.529   2.618   9.907  0.1578  0.0059  0.0279
   22SAPC   H4X 2924   4.564   2.513   9.918 -2.5257 -0.9981 -0.3621
   22SAPC   H4Y 2925   4.592   2.692   9.962  0.8687 -0.7524  0.2499
   22SAPC   C35 2926   4.538   2.656   9.764 -0.3010  0.5754  0.9800
   22SAPC   H5X 2927   4.525   2.766   9.757 -0.3327  0.4940 -0.5210
   22SAPC   H5Y 2928   4.454   2.607   9.711  0.3592 -0.2745  0.6886
   22SAPC   C36 2929   4.672   2.598   9.700  0.0575  0.2367 -0.2315
   22SAPC   H6X 2930   4.656   2.488   9.699 -3.1453  0.5893 -1.4754
   22SAPC   H6Y 2931   4.756   2.613   9.770 -1.4909  2.1310  1.3335
   22SAPC   C37 2932   4.685   2.658   9.564 -0.2517  0.2608  0.4729
   22SAPC   H7X 2933   4.590   2.667   9.507 -0.1080  0.8035  0.3114
   22SAPC   H7Y 2934   4.748   2.584   9.511 -0.9033  0.2460 -0.2880
   22SAPC   C38 2935   4.756   2.791   9.568 -0.1247  0.5868 -0.0417
   22SAPC   H8X 2936   4.848   2.772   9.627  1.5938  1.4418 -2.2855
   22SAPC   H8Y 2937   4.688   2.864   9.615  0.2181  0.2383  1.0285
   22SAPC   C39 2938   4.800   2.834   9.427  0.8469 -0.3678  0.4225
   22SAPC   H9X 2939   4.878   2.768   9.383  0.3791 -0.7093  0.0897
   22SAPC   H9Y 2940   4.861   2.926   9.426  0.3512 -0.0329  0.1151
   22SAPC  C310 2941   4.681   2.866   9.335  0.3890  0.5955  0.3408
   22SAPC  H10X 2942   4.605   2.941   9.368 -0.0015  0.1003  0.5746
   22SAPC  H10Y 2943   4.629   2.770   9.315  0.3165  1.0141 -1.7317
   22SAPC  C311 2944   4.731   2.918   9.202 -0.2823  0.2636  0.4246
   22SAPC  H11X 2945   4.803   2.841   9.166 -0.4196  0.1571  0.3749
   22SAPC  H11Y 2946   4.790   3.008   9.227 -0.1625 -0.0500  1.3258
   22SAPC  C312 2947   4.627   2.970   9.099 -0.0476  0.0248 -0.4918
   22SAPC  H12X 2948   4.679   3.012   9.010 -0.4984 -1.3087 -1.4034
   22SAPC  H12Y 2949   4.565   3.052   9.141  0.0292  0.3595 -1.0238
   22SAPC  C313 2950   4.537   2.851   9.057  0.8030  0.0183 -0.2100
   22SAPC  H13X 2951   4.437   2.857   9.105 -0.3140 -1.2123 -2.2313
   22SAPC  H13Y 2952   4.584   2.758   9.093 -0.1514 -0.3778  0.0493
   22SAPC  C314 2953   4.502   2.855   8.908 -0.1964 -0.5028 -0.2648
   22SAPC  H14X 2954   4.427   2.773   8.902  0.0301 -0.6808 -0.6408
   22SAPC  H14Y 2955   4.587   2.837   8.839 -1.3040 -2.3556 -1.2219
   22SAPC  C315 2956   4.423   2.978   8.873 -0.0729 -0.3331 -0.9953
   22SAPC  H15X 2957   4.497   3.061   8.883  0.9126 -1.1657 -1.2396
   22SAPC  H15Y 2958   4.343   2.997   8.948  0.5727  1.3697 -0.6757
   22SAPC  C316 2959   4.380   2.978   8.728 -0.6377 -0.1050  0.0485
   22SAPC  H16X 2960   4.282   2.925   8.721  1.2763 -3.9681 -0.0631
   22SAPC  H16Y 2961   4.450   2.929   8.658 -0.0922 -0.2885  0.7160
   22SAPC  C317 2962   4.363   3.121   8.677  0.9386  0.4093 -0.5089
   22SAPC  H17X 2963   4.448   3.184   8.713 -0.2578  1.1090  1.2298
   22SAPC  H17Y 2964   4.271   3.160   8.726  0.3140 -1.5942  0.0028
   22SAPC  C318 2965   4.362   3.144   8.528 -0.7696  0.4763 -0.5194
   22SAPC  H18X 2966   4.341   3.253   8.516 -2.1099  0.2133 -0.7145
   22SAPC  H18Y 2967   4.281   3.091   8.474  0.3458  0.0210 -1.8264
   22SAPC  H18Z 2968   4.453   3.123   8.468 -0.6370  1.0912 -0.5433
   23SAPC     N 2969   5.988   4.528  11.013 -0.3231  0.2258 -0.2378
   23SAPC   C12 2970   6.010   4.401  10.945 -0.6372 -0.2198 -0.3594
   23SAPC  H12A 2971   5.975   4.319  11.006  0.8645 -0.5688  0.0872
   23SAPC  H12B 2972   6.117   4.384  10.937 -0.3921  1.3418 -0.6107
   23SAPC   C13 2973   5.851   4.545  11.076 -0.7129 -0.0293  0.7091
   23SAPC  H13A 2974   5.844   4.634  11.138  0.9382  0.0330  0.8271
   23SAPC  H13B 2975   5.769   4.542  11.006 -0.9814 -2.4915  1.0528
   23SAPC  H13C 2976   5.825   4.466  11.145 -2.4097  0.2858  0.4837
   23SAPC   C14 2977   6.092   4.549  11.118  0.2391  0.2070 -0.4416
   23SAPC  H14A 2978   6.072   4.485  11.202  1.1300  1.8357  1.0707
   23SAPC  H14B 2979   6.193   4.539  11.080  0.3583  3.9411 -1.4837
   23SAPC  H14C 2980   6.084   4.650  11.155 -1.0563  0.2386 -0.7478
   23SAPC   C15 2981   6.012   4.636  10.911  0.0158  0.3549 -0.4188
   23SAPC  H15A 2982   6.011   4.736  10.952 -0.0454 -0.1315  0.8098
   23SAPC  H15B 2983   6.111   4.613  10.875 -0.3277 -1.0291 -0.5030
   23SAPC  H15C 2984   5.942   4.618  10.831  0.5095  1.2744 -1.0756
   23SAPC   C11 2985   5.941   4.377  10.810  0.5095 -0.5408  0.0030
   23SAPC  H11A 2986   5.964   4.279  10.765 -0.2037 -0.8044  0.2091
   23SAPC  H11B 2987   5.980   4.453  10.738  1.2666  0.1143  1.0695
   23SAPC     P 2988   5.706   4.272  10.835 -0.3389  0.0769 -0.1418
   23SAPC   O13 2989   5.774   4.168  10.924 -0.1818 -0.1560 -0.0742
   23SAPC   O14 2990   5.575   4.317  10.882  0.5339 -0.2609  0.3512
   23SAPC   O12 2991   5.799   4.392  10.820  0.2857  0.0735  0.1018
   23SAPC   O11 2992   5.686   4.228  10.686 -0.5070  0.2217  0.1941
   23SAPC    C1 2993   5.772   4.116  10.639 -0.7054 -0.1577 -0.3051
   23SAPC    HA 2994   5.878   4.129  10.669 -1.0527  0.3664  0.7395
   23SAPC    HB 2995   5.739   4.017  10.677 -0.4152 -0.9364 -1.9856
   23SAPC    C2 2996   5.777   4.094  10.480  0.4053  0.6868  0.4331
   23SAPC    HS 2997   5.874   4.041  10.464  1.2463  1.9766  1.1207
   23SAPC   O21 2998   5.771   4.222  10.419  0.0823 -0.1079 -0.0132
   23SAPC   C21 2999   5.880   4.290  10.402 -0.4555  0.0701 -0.5561
   23SAPC   O22 3000   5.990   4.258  10.446  0.2342  0.8305 -0.0639
   23SAPC   C22 3001   5.851   4.422  10.327  0.8893  0.1648  0.3405
   23SAPC   H2R 3002   5.883   4.413  10.221  0.1624 -1.3137  0.2178
   23SAPC   H2S 3003   5.743   4.444  10.317  0.2504 -2.7472 -0.1665
   23SAPC    C3 3004   5.665   3.993  10.440  0.5985 -0.0932  0.1124
   23SAPC    HX 3005   5.567   4.031  10.476  0.7986 -0.7550  1.4384
   23SAPC    HY 3006   5.691   3.908  10.506  1.9107  0.6595  0.6109
   23SAPC   O31 3007   5.668   3.960  10.302 -0.2639  0.8723 -0.0829
   23SAPC   C31 3008   5.549   3.981  10.236 -1.1107 -0.9031  0.3957
   23SAPC   O32 3009   5.446   4.010  10.285  0.2730  0.3080 -0.0675
   23SAPC   C32 3010   5.579   3.960  10.085  0.1882  0.2869  0.2706
   23SAPC   H2X 3011   5.481   3.942  10.036  0.6891  0.9572 -1.0290
   23SAPC   H2Y 3012   5.639   3.869  10.063  3.5551  2.5657 -0.7907
   23SAPC   C23 3013   5.923   4.544  10.388 -0.3271  0.1011  0.4943
   23SAPC   H3R 3014   6.032   4.529  10.393 -0.3371 -0.7818 -1.1786
   23SAPC   H3S 3015   5.898   4.556  10.495 -1.5402  1.4960  0.1008
   23SAPC   C24 3016   5.882   4.674  10.314  0.3533  0.8891 -0.4687
   23SAPC   H4R 3017   5.905   4.763  10.375  0.9578  1.2164 -1.1517
   23SAPC   H4S 3018   5.774   4.663  10.288 -0.1738  1.5027  1.3318
   23SAPC   C25 3019   5.970   4.687  10.194 -0.0546 -0.7799  0.3409
   23SAPC   H5R 3020   6.078   4.687  10.216 -0.1795 -2.4184  1.1291
   23SAPC   C26 3021   5.928   4.702  10.064  0.4927  0.0833  0.2783
   23SAPC   H6R 3022   5.999   4.711   9.980 -0.5414 -1.1873 -0.7735
   23SAPC   C27 3023   5.781   4.693  10.019  0.8426  0.2506 -0.2631
   23SAPC   H7R 3024   5.727   4.618  10.080  1.3632 -0.3222 -0.4924
   23SAPC   H7S 3025   5.768   4.644   9.920 -0.6642 -0.5398  0.2947
   23SAPC   C28 3026   5.715   4.825  10.033  0.1105  0.2100  0.6833
   23SAPC   H8R 3027   5.687   4.855  10.135 -2.2960  0.5547 -0.0163
   23SAPC   C29 3028   5.696   4.902   9.927  0.1671  0.2400 -0.3340
   23SAPC   H9R 3029   5.663   5.005   9.946 -0.6379  0.3031 -1.9539
   23SAPC  C210 3030   5.739   4.879   9.782 -0.2848  0.3680  0.0273
   23SAPC  H10R 3031   5.817   4.799   9.773 -0.1496  0.6238 -1.2946
   23SAPC  H10S 3032   5.796   4.967   9.745  1.9819 -1.7191 -1.8355
   23SAPC  C211 3033   5.627   4.835   9.689  0.0223 -0.6472 -0.4696
   23SAPC  H11R 3034   5.572   4.748   9.728 -1.1454 -0.6605 -2.0535
   23SAPC  C212 3035   5.572   4.901   9.589 -0.3374  0.0300 -0.4345
   23SAPC  H12R 3036   5.497   4.852   9.524  0.1484  1.3354 -2.0589
   23SAPC  C213 3037   5.624   5.028   9.530 -0.7986  0.3254  0.4094
   23SAPC  H13R 3038   5.621   5.003   9.422  0.9788 -2.5147  0.9167
   23SAPC  H13S 3039   5.733   5.047   9.544 -0.3544  0.9745 -3.0224
   23SAPC  C214 3040   5.546   5.155   9.552  0.1010 -0.4051 -0.3740
   23SAPC  H14R 3041   5.462   5.164   9.622  0.6414  1.7876  0.0477
   23SAPC  C215 3042   5.569   5.268   9.487 -0.3041  0.4486  0.9805
   23SAPC  H15R 3043   5.512   5.359   9.513  2.1446  2.2143  0.5129
   23SAPC  C216 3044   5.684   5.282   9.384  0.9077 -0.4111  0.5809
   23SAPC  H16R 3045   5.741   5.190   9.359  0.6467  0.0953 -2.1961
   23SAPC  H16S 3046   5.755   5.355   9.427 -1.4147  1.9718  0.6433
   23SAPC  C217 3047   5.631   5.342   9.250  0.4562  0.9409  0.0494
   23SAPC  H17R 3048   5.567   5.429   9.274 -0.5458  0.5157 -0.9991
   23SAPC  H17S 3049   5.567   5.265   9.202 -0.4256  1.9996 -0.5027
   23SAPC  C218 3050   5.743   5.388   9.156  0.3405 -0.2777 -0.4172
   23SAPC  H18R 3051   5.751   5.323   9.066 -1.3194  0.9050 -1.4715
   23SAPC  H18S 3052   5.842   5.381   9.208 -0.3770 -1.8057  0.8198
   23SAPC  C219 3053   5.722   5.535   9.110  0.1990  0.5558  0.0628
   23SAPC  H19R 3054   5.733   5.593   9.204  0.8823 -0.1793  0.4487
   23SAPC  H19S 3055   5.620   5.545   9.068 -0.5576 -3.2712  0.6382
   23SAPC  C220 3056   5.828   5.587   9.005  0.6177 -0.7042  0.2719
   23SAPC  H20R 3057   5.822   5.527   8.911 -1.4632  0.7034 -0.5772
   23SAPC  H20S 3058   5.934   5.575   9.036  0.7045 -2.1778 -0.4678
   23SAPC  H20T 3059   5.799   5.689   8.973  2.1192 -0.7016 -1.2343
   23SAPC   C33 3060   5.622   4.081  10.010 -0.4356  0.1319  0.9235
   23SAPC   H3X 3061   5.560   4.165  10.047 -1.8081  0.2166 -1.3663
   23SAPC   H3Y 3062   5.593   4.073   9.903 -2.2012  0.3286  1.3483
   23SAPC   C34 3063   5.771   4.114  10.027  0.0392  0.5853  0.0060
   23SAPC   H4X 3064   5.820   4.014  10.026 -2.0694 -0.5881 -3.5395
   23SAPC   H4Y 3065   5.783   4.162  10.126 -0.4720  2.2767 -0.7217
   23SAPC   C35 3066   5.836   4.187   9.902  0.2310  0.2311 -0.3010
   23SAPC   H5X 3067   5.758   4.263   9.879 -0.6605 -0.3931  0.5824
   23SAPC   H5Y 3068   5.821   4.109   9.825  0.4456 -1.0408  0.9047
   23SAPC   C36 3069   5.980   4.241   9.922 -0.1455 -0.0857  0.1969
   23SAPC   H6X 3070   6.058   4.189   9.863  0.7852  0.1591  1.1908
   23SAPC   H6Y 3071   6.005   4.227  10.030 -0.0975 -2.9607 -0.1125
   23SAPC   C37 3072   5.992   4.388   9.886  0.1341 -0.7267  1.2820
   23SAPC   H7X 3073   6.079   4.431   9.940 -1.4614  1.8316  2.0099
   23SAPC   H7Y 3074   5.901   4.446   9.915  1.4780  1.0214  2.2027
   23SAPC   C38 3075   6.017   4.402   9.732 -0.3292  0.2059  0.2476
   23SAPC   H8X 3076   5.936   4.336   9.695 -0.1662  1.0924 -1.8135
   23SAPC   H8Y 3077   6.117   4.366   9.700  0.3498 -0.5573  2.9697
   23SAPC   C39 3078   5.990   4.543   9.679 -0.2979  0.4663  0.3588
   23SAPC   H9X 3079   6.066   4.606   9.730  1.3859 -0.7915 -0.4849
   23SAPC   H9Y 3080   5.885   4.565   9.705 -0.7502 -2.1493  1.0263
   23SAPC  C310 3081   6.007   4.552   9.535 -0.4474  0.0233 -0.5033
   23SAPC  H10X 3082   5.957   4.645   9.501 -0.6745 -0.4859 -1.5926
   23SAPC  H10Y 3083   5.958   4.464   9.489  1.7014 -0.2209 -2.4766
   23SAPC  C311 3084   6.149   4.561   9.485  0.0354  0.4306  0.9941
   23SAPC  H11X 3085   6.191   4.461   9.504  1.2257  0.7897  0.3206
   23SAPC  H11Y 3086   6.199   4.647   9.535 -2.2166  2.4082  0.0809
   23SAPC  C312 3087   6.151   4.575   9.329 -0.2360 -0.3861  0.7974
   23SAPC  H12X 3088   6.094   4.669   9.314  1.1655  0.7599  2.2258
   23SAPC  H12Y 3089   6.104   4.491   9.273  0.3679  0.1497 -0.5529
   23SAPC  C313 3090   6.299   4.594   9.270 -0.5582  0.1421 -0.8377
   23SAPC  H13X 3091   6.341   4.492   9.266  0.9567  0.4579  2.8989
   23SAPC  H13Y 3092   6.360   4.637   9.352 -0.5085  0.3220 -0.9671
   23SAPC  C314 3093   6.306   4.684   9.150 -0.4434  0.0177  0.5424
   23SAPC  H14X 3094   6.271   4.786   9.175 -0.6744 -0.3934  2.0385
   23SAPC  H14Y 3095   6.239   4.647   9.070  1.1121 -0.3533 -0.6248
   23SAPC  C315 3096   6.453   4.692   9.099 -0.3874  0.1652 -0.1079
   23SAPC  H15X 3097   6.490   4.587   9.100  1.6478  0.8310  0.8943
   23SAPC  H15Y 3098   6.515   4.755   9.167 -0.3648 -1.6367  1.6632
   23SAPC  C316 3099   6.479   4.741   8.952  0.6419 -0.1730 -0.1915
   23SAPC  H16X 3100   6.392   4.724   8.884  2.1717  1.1985 -2.6229
   23SAPC  H16Y 3101   6.572   4.694   8.914  0.4234 -0.9021  0.1447
   23SAPC  C317 3102   6.517   4.887   8.955  0.2854 -0.3208 -0.2215
   23SAPC  H17X 3103   6.610   4.901   9.014  0.6041 -0.3245 -0.7168
   23SAPC  H17Y 3104   6.443   4.939   9.020  0.4509 -1.7341  1.1428
   23SAPC  C318 3105   6.531   4.956   8.815 -0.1637  0.1294  0.5181
   23SAPC  H18X 3106   6.600   4.894   8.755  0.2036  0.9968  0.0204
   23SAPC  H18Y 3107   6.573   5.059   8.817 -0.4866  0.3239 -1.1101
   23SAPC  H18Z 3108   6.435   4.951   8.759  0.1805 -0.4567 -0.0302
   24SAPC     N 3109   1.527   4.405  11.090 -0.1280 -0.0982  0.6747
   24SAPC   C12 3110   1.570   4.263  11.134  0.1895 -0.0012  0.2209
   24SAPC  H12A 3111   1.587   4.265  11.241  1.3654 -2.4562  0.1393
   24SAPC  H12B 3112   1.664   4.237  11.089 -0.7038 -0.6472 -1.3731
   24SAPC   C13 3113   1.384   4.430  11.108 -0.2414  0.2832 -0.2862
   24SAPC  H13A 3114   1.361   4.447  11.212  0.8971  0.7132 -0.0965
   24SAPC  H13B 3115   1.341   4.512  11.053  1.0042 -0.3277 -2.3012
   24SAPC  H13C 3116   1.330   4.346  11.066  2.2947  0.2642 -3.9876
   24SAPC   C14 3117   1.610   4.515  11.139  0.3694  0.2753 -0.4477
   24SAPC  H14A 3118   1.595   4.540  11.243 -1.0549  1.3150 -0.8668
   24SAPC  H14B 3119   1.715   4.490  11.139  0.7134  1.5422  0.9539
   24SAPC  H14C 3120   1.597   4.611  11.090 -2.0044  0.7305  0.9285
   24SAPC   C15 3121   1.542   4.414  10.945  0.0883 -0.0490 -0.4287
   24SAPC  H15A 3122   1.634   4.366  10.915  0.6264 -0.4549  1.6911
   24SAPC  H15B 3123   1.455   4.368  10.900 -0.2572 -0.4579  0.6301
   24SAPC  H15C 3124   1.550   4.514  10.906  2.4883  0.0792  0.2493
   24SAPC   C11 3125   1.477   4.142  11.105  0.9772  0.3106 -0.2730
   24SAPC  H11A 3126   1.388   4.162  11.170  0.4421  2.2287 -1.4930
   24SAPC  H11B 3127   1.525   4.045  11.126 -0.9910 -0.9435 -1.2039
   24SAPC     P 3128   1.290   4.084  10.926 -0.0207  0.2156  0.3122
   24SAPC   O13 3129   1.301   3.941  10.894 -0.2415  0.9568 -0.1095
   24SAPC   O14 3130   1.187   4.132  11.029 -0.0671  0.5960 -1.1036
   24SAPC   O12 3131   1.436   4.143  10.964  0.2144 -0.0433 -0.3474
   24SAPC   O11 3132   1.274   4.163  10.791 -0.4657  0.0897 -0.4261
   24SAPC    C1 3133   1.384   4.149  10.697  0.1893  0.2368  0.2163
   24SAPC    HA 3134   1.473   4.206  10.730  1.2568 -0.6968 -0.9497
   24SAPC    HB 3135   1.425   4.045  10.695 -0.9757 -0.2381  0.1931
   24SAPC    C2 3136   1.332   4.186  10.556 -0.1358 -0.3624 -0.4493
   24SAPC    HS 3137   1.415   4.154  10.490  1.2574  0.6851  0.7388
   24SAPC   O21 3138   1.320   4.328  10.561 -0.6398  0.1935  0.0224
   24SAPC   C21 3139   1.438   4.396  10.568  0.0525 -0.8884  0.0944
   24SAPC   O22 3140   1.549   4.352  10.550  0.2552  0.0814 -0.5830
   24SAPC   C22 3141   1.408   4.548  10.587 -0.3401  0.6562 -0.7335
   24SAPC   H2R 3142   1.311   4.558  10.640  0.3191 -0.2591  0.7229
   24SAPC   H2S 3143   1.490   4.589  10.649  0.4574  0.7732 -1.8363
   24SAPC    C3 3144   1.202   4.113  10.523  0.1416  0.1774  0.1914
   24SAPC    HX 3145   1.128   4.119  10.606  0.0570 -0.2896  0.1528
   24SAPC    HY 3146   1.222   4.004  10.510 -2.0110 -0.1465 -0.7458
   24SAPC   O31 3147   1.153   4.153  10.391 -0.1246 -0.3532 -0.4448
   24SAPC   C31 3148   1.064   4.250  10.408 -0.2312 -0.1775  0.5785
   24SAPC   O32 3149   1.025   4.298  10.511  0.4195  0.6855  0.6034
   24SAPC   C32 3150   1.015   4.299  10.282  0.8336  0.1447  0.0384
   24SAPC   H2X 3151   1.088   4.373  10.244  0.3174 -0.7994 -3.0729
   24SAPC   H2Y 3152   0.915   4.342  10.305 -0.0393 -1.6897 -0.1858
   24SAPC   C23 3153   1.394   4.636  10.452  0.3467  0.4734 -0.7417
   24SAPC   H3R 3154   1.491   4.657  10.402  0.8388  1.1317  0.4599
   24SAPC   H3S 3155   1.357   4.740  10.471 -0.3213  0.3665 -1.3869
   24SAPC   C24 3156   1.294   4.579  10.350 -0.5463  0.3749  0.0426
   24SAPC   H4R 3157   1.198   4.559  10.403  0.0391  1.8933  1.7991
   24SAPC   H4S 3158   1.323   4.477  10.317  1.9652  1.1395 -0.3689
   24SAPC   C25 3159   1.268   4.671  10.230  0.3260 -0.1277 -0.4953
   24SAPC   H5R 3160   1.218   4.765  10.255  2.3053  0.7355  0.5229
   24SAPC   C26 3161   1.291   4.636  10.100 -0.1788 -0.4332  0.1828
   24SAPC   H6R 3162   1.268   4.713  10.025 -0.7375 -1.1599 -0.4038
   24SAPC   C27 3163   1.365   4.513  10.051  0.2500 -0.1792  0.2224
   24SAPC   H7R 3164   1.406   4.462  10.140 -0.5048  1.7814  1.7547
   24SAPC   H7S 3165   1.455   4.537   9.990 -0.1837  0.0750 -0.3327
   24SAPC   C28 3166   1.271   4.425   9.967  0.0984  1.0251 -0.7569
   24SAPC   H8R 3167   1.208   4.357  10.027  3.2719  0.0420  1.7627
   24SAPC   C29 3168   1.257   4.410   9.836  1.2934 -0.0313  0.3910
   24SAPC   H9R 3169   1.180   4.343   9.795  0.1286  0.9405  0.9159
   24SAPC  C210 3170   1.340   4.488   9.729 -0.3596 -0.2185 -0.7894
   24SAPC  H10R 3171   1.338   4.436   9.630 -1.0264  0.6455 -1.2427
   24SAPC  H10S 3172   1.447   4.474   9.754 -0.4113  0.7092 -0.0218
   24SAPC  C211 3173   1.320   4.636   9.718 -1.0850  0.0367 -0.0027
   24SAPC  H11R 3174   1.264   4.695   9.793  0.4813  2.1231 -0.3705
   24SAPC  C212 3175   1.349   4.703   9.606 -0.0878  0.0214  0.7172
   24SAPC  H12R 3176   1.348   4.813   9.594  1.3269  0.0198  0.4311
   24SAPC  C213 3177   1.409   4.642   9.483 -0.2563  0.4397  0.6369
   24SAPC  H13R 3178   1.487   4.570   9.516  0.3654  2.1595  3.2028
   24SAPC  H13S 3179   1.470   4.724   9.440  1.5702 -1.4472 -0.5439
   24SAPC  C214 3180   1.307   4.604   9.377  0.1940 -0.2588  0.2902
   24SAPC  H14R 3181   1.252   4.510   9.393  1.5454 -1.1407 -0.0380
   24SAPC  C215 3182   1.290   4.680   9.265 -0.6920  0.4026  1.0036
   24SAPC  H15R 3183   1.238   4.636   9.179  1.0300  0.7157 -0.2306
   24SAPC  C216 3184   1.353   4.810   9.228  0.3910 -0.0015 -0.2683
   24SAPC  H16R 3185   1.388   4.872   9.314  0.0554  1.8302 -1.3889
   24SAPC  H16S 3186   1.274   4.865   9.172 -1.0298 -1.8265 -0.1407
   24SAPC  C217 3187   1.462   4.800   9.123  0.6949  0.1178  0.8932
   24SAPC  H17R 3188   1.531   4.719   9.151  0.0368 -0.6957  0.2241
   24SAPC  H17S 3189   1.511   4.899   9.107  0.0698  0.2093 -0.7258
   24SAPC  C218 3190   1.417   4.759   8.970  0.0097 -0.1893  0.0977
   24SAPC  H18R 3191   1.341   4.679   8.984 -0.9086  0.5891 -0.3035
   24SAPC  H18S 3192   1.507   4.733   8.910 -1.4770 -2.2911 -1.3610
   24SAPC  C219 3193   1.339   4.866   8.892  0.2474 -0.0716 -0.5605
   24SAPC  H19R 3194   1.414   4.947   8.885  0.3491  0.0767  1.5620
   24SAPC  H19S 3195   1.257   4.902   8.959  0.7599  1.0021 -0.4914
   24SAPC  C220 3196   1.293   4.829   8.752 -0.4130  0.8292  0.4975
   24SAPC  H20R 3197   1.241   4.732   8.740  1.4373 -0.3722  1.6788
   24SAPC  H20S 3198   1.388   4.827   8.693 -0.3748 -0.0116  0.5813
   24SAPC  H20T 3199   1.239   4.918   8.714  0.9165  0.2910 -3.0516
   24SAPC   C33 3200   0.975   4.188  10.179 -0.6810 -0.3167 -0.1259
   24SAPC   H3X 3201   0.901   4.115  10.218 -0.2578 -0.9451 -0.4917
   24SAPC   H3Y 3202   1.076   4.141  10.169  1.7705  4.1571  0.8949
   24SAPC   C34 3203   0.937   4.243  10.039  0.0802  0.8053  0.1422
   24SAPC   H4X 3204   0.987   4.340  10.015  1.8847 -0.2181 -0.5028
   24SAPC   H4Y 3205   0.831   4.274  10.047  0.3256  2.1195 -1.1801
   24SAPC   C35 3206   0.961   4.137   9.933 -0.1570 -0.2926 -0.6337
   24SAPC   H5X 3207   0.898   4.046   9.948  0.9564 -1.1020 -0.7743
   24SAPC   H5Y 3208   1.067   4.106   9.942 -0.6483 -1.8093  0.4294
   24SAPC   C36 3209   0.936   4.195   9.790 -0.0631 -0.2428  0.5973
   24SAPC   H6X 3210   0.969   4.301   9.777 -0.4890 -0.1820  0.0075
   24SAPC   H6Y 3211   0.826   4.203   9.776  0.0842 -1.0473 -1.1537
   24SAPC   C37 3212   1.015   4.113   9.695 -0.0073 -0.2361  1.1595
   24SAPC   H7X 3213   0.986   4.007   9.678  0.4964 -0.2105  0.0508
   24SAPC   H7Y 3214   1.120   4.105   9.732  0.4226 -0.3010 -0.0384
   24SAPC   C38 3215   1.019   4.164   9.548  0.3563 -0.0820  0.7567
   24SAPC   H8X 3216   0.918   4.183   9.504  1.4561  1.4965 -1.2960
   24SAPC   H8Y 3217   1.064   4.087   9.481 -3.6221  0.1043 -2.5675
   24SAPC   C39 3218   1.075   4.312   9.530  0.2661  0.4561  0.3601
   24SAPC   H9X 3219   1.186   4.307   9.523  0.2034 -0.5889 -0.0681
   24SAPC   H9Y 3220   1.055   4.369   9.624  0.2398 -0.7720  1.1242
   24SAPC  C310 3221   1.011   4.386   9.408 -0.5860 -0.0791  0.6420
   24SAPC  H10X 3222   1.060   4.486   9.404  0.3744 -0.5414  0.7543
   24SAPC  H10Y 3223   0.901   4.382   9.425 -0.3604 -0.8265  2.0979
   24SAPC  C311 3224   1.065   4.322   9.276  0.4982 -0.2452 -0.6838
   24SAPC  H11X 3225   1.005   4.232   9.248  0.0249  0.3552 -1.6545
   24SAPC  H11Y 3226   1.162   4.285   9.313 -0.1691 -1.6869 -0.2851
   24SAPC  C312 3227   1.062   4.414   9.154  0.2599 -0.0135 -0.6152
   24SAPC  H12X 3228   1.092   4.519   9.175  1.4643 -0.5762  0.6822
   24SAPC  H12Y 3229   0.953   4.413   9.132  0.3425  0.1402 -1.0371
   24SAPC  C313 3230   1.134   4.361   9.030  0.0697  0.4304  0.1582
   24SAPC  H13X 3231   1.098   4.258   9.008 -0.2825  0.2352  1.5353
   24SAPC  H13Y 3232   1.243   4.357   9.048  0.6551  0.8567 -2.8151
   24SAPC  C314 3233   1.118   4.445   8.909 -0.6781  0.9016  0.1854
   24SAPC  H14X 3234   1.183   4.409   8.826  0.6421  3.6197 -0.0881
   24SAPC  H14Y 3235   1.152   4.547   8.938 -1.0409  0.6959  1.3992
   24SAPC  C315 3236   0.978   4.440   8.849  0.2683 -0.0614 -0.0203
   24SAPC  H15X 3237   0.916   4.368   8.906 -0.6330  0.4647 -0.3241
   24SAPC  H15Y 3238   0.983   4.396   8.748  0.6880  0.3441 -0.1811
   24SAPC  C316 3239   0.909   4.579   8.842  0.0702  0.5556  0.0244
   24SAPC  H16X 3240   0.990   4.651   8.819  0.7874  0.5269  2.2102
   24SAPC  H16Y 3241   0.871   4.602   8.944  1.3080  0.7613  0.4555
   24SAPC  C317 3242   0.805   4.572   8.726 -0.3683 -0.2998  0.4355
   24SAPC  H17X 3243   0.856   4.551   8.630 -0.2374  1.5679  0.0560
   24SAPC  H17Y 3244   0.760   4.673   8.716 -0.7720 -0.4376  0.8192
   24SAPC  C318 3245   0.690   4.476   8.746  0.5563  0.0102 -0.1029
   24SAPC  H18X 3246   0.602   4.513   8.690  1.0001  1.8476  0.3625
   24SAPC  H18Y 3247   0.672   4.441   8.850 -1.1038 -0.0215 -0.3808
   24SAPC  H18Z 3248   0.711   4.384   8.687 -0.1701  0.8950 -1.8147
   25SAPC     N 3249   4.715   3.672   5.675 -0.3546 -0.2233  0.0771
   25SAPC   C12 3250   4.607   3.597   5.766  0.2152 -0.5837  0.3704
   25SAPC  H12A 3251   4.512   3.581   5.716  0.3275 -0.1684  0.0187
   25SAPC  H12B 3252   4.591   3.673   5.841  1.5943  1.2571 -1.0825
   25SAPC   C13 3253   4.651   3.791   5.614  0.2004 -0.9458  0.1877
   25SAPC  H13A 3254   4.709   3.881   5.601 -2.2853  0.9103  1.0660
   25SAPC  H13B 3255   4.615   3.767   5.516  0.5441  0.1655 -0.2260
   25SAPC  H13C 3256   4.585   3.828   5.692  2.0252  0.8281  0.9805
   25SAPC   C14 3257   4.828   3.723   5.766  0.1525 -0.5057  0.2168
   25SAPC  H14A 3258   4.879   3.646   5.821  2.2989  1.1755  0.7036
   25SAPC  H14B 3259   4.913   3.771   5.721  0.4240 -1.4319 -0.2855
   25SAPC  H14C 3260   4.792   3.798   5.835 -0.1122  0.9374 -1.4365
   25SAPC   C15 3261   4.766   3.583   5.580  0.3333 -0.6748  0.2569
   25SAPC  H15A 3262   4.838   3.628   5.513  0.2642  1.5381  1.5654
   25SAPC  H15B 3263   4.828   3.512   5.632  0.5796 -0.6695 -0.0284
   25SAPC  H15C 3264   4.685   3.538   5.524  0.6400 -2.2117  1.0251
   25SAPC   C11 3265   4.651   3.472   5.837 -0.0616  0.5047 -0.2659
   25SAPC  H11A 3266   4.638   3.391   5.762 -0.6009  0.0751  0.2778
   25SAPC  H11B 3267   4.584   3.464   5.925 -1.0829  2.9602 -0.7557
   25SAPC     P 3268   4.861   3.328   5.918  0.2095 -0.1996 -0.4342
   25SAPC   O13 3269   4.868   3.235   5.800  0.0347  0.0374 -0.0902
   25SAPC   O14 3270   4.996   3.375   5.957  0.0850 -0.1455 -0.3517
   25SAPC   O12 3271   4.780   3.466   5.888 -0.9357  0.5255  0.9153
   25SAPC   O11 3272   4.791   3.265   6.043 -0.5327 -0.1580 -0.5869
   25SAPC    C1 3273   4.665   3.207   6.045  0.3056  0.9049  0.5597
   25SAPC    HA 3274   4.587   3.277   6.007 -0.8485 -0.0556  1.1096
   25SAPC    HB 3275   4.670   3.119   5.978  0.3487  1.4199 -0.1263
   25SAPC    C2 3276   4.643   3.166   6.197  0.1207 -0.3357 -0.6345
   25SAPC    HS 3277   4.573   3.080   6.192 -0.7838  0.4382 -3.8646
   25SAPC   O21 3278   4.587   3.273   6.284 -0.2840  0.1789  0.2994
   25SAPC   C21 3279   4.464   3.313   6.256 -0.6566  0.6083  0.6316
   25SAPC   O22 3280   4.390   3.258   6.174 -0.0323 -0.3315 -0.0645
   25SAPC   C22 3281   4.423   3.445   6.323 -0.2584  0.5331  0.3660
   25SAPC   H2R 3282   4.516   3.506   6.326  0.4577 -0.5655  1.6610
   25SAPC   H2S 3283   4.350   3.489   6.252 -0.4018 -1.8061 -1.0564
   25SAPC    C3 3284   4.775   3.128   6.276  0.2123 -0.0725  0.6104
   25SAPC    HX 3285   4.839   3.218   6.285  1.3972 -0.6906 -1.0990
   25SAPC    HY 3286   4.834   3.057   6.215 -1.5265  0.4073 -1.8221
   25SAPC   O31 3287   4.738   3.066   6.399  0.4122  0.1359  0.3982
   25SAPC   C31 3288   4.758   3.143   6.513  0.5178 -0.1203  0.3518
   25SAPC   O32 3289   4.810   3.248   6.514  0.3108 -0.3176  0.6275
   25SAPC   C32 3290   4.726   3.062   6.636  0.8906 -0.3335  0.1016
   25SAPC   H2X 3291   4.760   2.957   6.618  1.0833 -0.5460  1.6243
   25SAPC   H2Y 3292   4.616   3.056   6.619  1.0530 -1.1275 -0.8161
   25SAPC   C23 3293   4.374   3.421   6.462  0.2281  0.0418  0.1713
   25SAPC   H3R 3294   4.278   3.364   6.453 -0.8596  1.3697  2.4482
   25SAPC   H3S 3295   4.333   3.517   6.498  0.5085  0.4564 -0.5916
   25SAPC   C24 3296   4.469   3.370   6.570 -0.1597 -0.0536  0.1608
   25SAPC   H4R 3297   4.547   3.297   6.540 -0.5669 -1.3395  2.0430
   25SAPC   H4S 3298   4.418   3.311   6.649  1.0839  1.7523  2.4054
   25SAPC   C25 3299   4.549   3.478   6.636  0.3820 -0.5507 -0.1105
   25SAPC   H5R 3300   4.580   3.555   6.565 -1.6306 -0.7211 -1.2509
   25SAPC   C26 3301   4.562   3.508   6.765  0.2387 -0.6441 -0.7906
   25SAPC   H6R 3302   4.611   3.600   6.800 -3.1265  0.6334  1.0406
   25SAPC   C27 3303   4.516   3.430   6.885 -0.3899 -0.6391  0.0700
   25SAPC   H7R 3304   4.617   3.409   6.927 -0.7841  0.1164  1.4535
   25SAPC   H7S 3305   4.483   3.330   6.849 -1.4105  0.2507 -1.5689
   25SAPC   C28 3306   4.424   3.504   6.984 -0.0529  0.3748  0.3133
   25SAPC   H8R 3307   4.321   3.523   6.951 -0.7306 -1.6462  1.1251
   25SAPC   C29 3308   4.442   3.513   7.117  0.8520  0.4009  0.2459
   25SAPC   H9R 3309   4.371   3.572   7.177  1.6795  2.0461 -0.3276
   25SAPC  C210 3310   4.557   3.452   7.198  0.8676  1.0812 -0.0053
   25SAPC  H10R 3311   4.637   3.401   7.141 -0.0535  0.7110 -0.9970
   25SAPC  H10S 3312   4.507   3.370   7.254  0.6670  0.6124 -0.8699
   25SAPC  C211 3313   4.617   3.555   7.287  0.3967  0.0253  1.1017
   25SAPC  H11R 3314   4.698   3.611   7.239 -1.0169 -0.2910 -1.8723
   25SAPC  C212 3315   4.589   3.582   7.415  0.1322  0.0585 -0.3444
   25SAPC  H12R 3316   4.648   3.658   7.469 -0.5327 -0.7793  1.6501
   25SAPC  C213 3317   4.488   3.508   7.501 -0.2713  0.4007  0.1793
   25SAPC  H13R 3318   4.533   3.413   7.535 -0.5634  0.4477  0.7030
   25SAPC  H13S 3319   4.391   3.490   7.450 -0.5412 -0.6006  1.0077
   25SAPC  C214 3320   4.467   3.578   7.633 -0.2227  0.5567 -0.6286
   25SAPC  H14R 3321   4.463   3.688   7.635  2.4934  0.7290  2.1731
   25SAPC  C215 3322   4.433   3.509   7.740 -0.5869  0.1107  0.1537
   25SAPC  H15R 3323   4.419   3.560   7.837  2.2646 -0.1426  0.7781
   25SAPC  C216 3324   4.425   3.362   7.757 -0.2720  0.3215 -0.1879
   25SAPC  H16R 3325   4.524   3.323   7.788 -1.0217 -1.0090  0.6507
   25SAPC  H16S 3326   4.401   3.310   7.661  0.1093 -0.1631 -0.0250
   25SAPC  C217 3327   4.315   3.308   7.852 -0.5233 -1.1582  0.5608
   25SAPC  H17R 3328   4.335   3.198   7.848 -0.7285 -1.2749  2.0678
   25SAPC  H17S 3329   4.213   3.333   7.817 -0.7965  0.1177  2.1550
   25SAPC  C218 3330   4.331   3.361   7.998  0.0997  0.1676  0.3316
   25SAPC  H18R 3331   4.300   3.467   8.011 -1.4455 -0.1525 -0.4668
   25SAPC  H18S 3332   4.437   3.358   8.031  0.2034  2.4843  0.3309
   25SAPC  C219 3333   4.244   3.281   8.088  0.2836 -0.5596 -0.0875
   25SAPC  H19R 3334   4.152   3.245   8.038  0.2120  0.2678 -0.5621
   25SAPC  H19S 3335   4.209   3.344   8.172  3.3634 -0.4536  1.2792
   25SAPC  C220 3336   4.321   3.163   8.155 -0.5723  0.4075  0.1013
   25SAPC  H20R 3337   4.257   3.118   8.235 -0.0157 -0.3698  0.1115
   25SAPC  H20S 3338   4.417   3.200   8.196  0.8536 -2.2411 -0.6230
   25SAPC  H20T 3339   4.335   3.083   8.080 -0.1394 -1.2836  1.8906
   25SAPC   C33 3340   4.742   3.126   6.766  0.0603 -0.2665 -0.4717
   25SAPC   H3X 3341   4.695   3.227   6.761 -1.1112 -0.7431  0.6120
   25SAPC   H3Y 3342   4.852   3.143   6.776 -0.3274  1.8666  0.9018
   25SAPC   C34 3343   4.696   3.036   6.883 -0.5136 -0.5634 -0.8331
   25SAPC   H4X 3344   4.758   2.945   6.886 -1.4536 -1.2056  1.6683
   25SAPC   H4Y 3345   4.591   3.001   6.872 -0.5578 -0.7553  0.1217
   25SAPC   C35 3346   4.716   3.106   7.020  0.9689 -0.9013  1.6454
   25SAPC   H5X 3347   4.647   3.193   7.016  1.8575 -0.2121  0.9691
   25SAPC   H5Y 3348   4.822   3.136   7.030  1.2995 -2.0584  1.6723
   25SAPC   C36 3349   4.686   3.019   7.136 -0.2089 -0.1960  0.8893
   25SAPC   H6X 3350   4.771   2.948   7.139 -0.7609 -1.1800 -2.5140
   25SAPC   H6Y 3351   4.592   2.961   7.131 -1.1813  1.4160 -1.1475
   25SAPC   C37 3352   4.672   3.106   7.269 -0.7456  1.0909 -0.1237
   25SAPC   H7X 3353   4.585   3.176   7.264 -1.9293 -0.3790 -1.2062
   25SAPC   H7Y 3354   4.763   3.167   7.282  0.5905 -0.3042 -2.2617
   25SAPC   C38 3355   4.642   3.029   7.400 -0.3769  0.6765 -0.0049
   25SAPC   H8X 3356   4.724   2.959   7.425  0.0490  0.2675 -2.3018
   25SAPC   H8Y 3357   4.551   2.969   7.380 -1.3363  1.4144  1.8527
   25SAPC   C39 3358   4.607   3.125   7.514 -0.1906  0.2118 -0.3230
   25SAPC   H9X 3359   4.509   3.166   7.482 -0.9818 -2.3224 -1.4133
   25SAPC   H9Y 3360   4.692   3.196   7.523 -0.1922  0.0037  1.8955
   25SAPC  C310 3361   4.577   3.053   7.648 -0.1935  0.7057 -0.5195
   25SAPC  H10X 3362   4.521   2.960   7.622  0.4990 -0.5094  1.9408
   25SAPC  H10Y 3363   4.516   3.118   7.715  0.1376  0.4144  0.0754
   25SAPC  C311 3364   4.703   3.002   7.718  0.1181 -0.6687 -0.2636
   25SAPC  H11X 3365   4.792   3.066   7.695  1.5422 -2.4843 -0.0558
   25SAPC  H11Y 3366   4.718   2.899   7.680 -1.0809 -0.8139 -0.3745
   25SAPC  C312 3367   4.697   3.000   7.873  0.9133  0.4575 -0.3928
   25SAPC  H12X 3368   4.702   3.104   7.910 -0.8921 -0.2051  1.9156
   25SAPC  H12Y 3369   4.782   2.936   7.906  0.0669 -0.5057 -0.0358
   25SAPC  C313 3370   4.578   2.938   7.930 -0.2196 -0.5123  0.7654
   25SAPC  H13X 3371   4.556   2.843   7.876 -1.3424 -0.3720  0.9498
   25SAPC  H13Y 3372   4.481   2.991   7.915 -0.0178 -0.3860 -0.1214
   25SAPC  C314 3373   4.592   2.907   8.084  0.4607  0.0602 -0.2241
   25SAPC  H14X 3374   4.601   3.001   8.142  0.1751 -0.1496  0.1632
   25SAPC  H14Y 3375   4.686   2.847   8.086  0.8976  0.7455  0.5481
   25SAPC  C315 3376   4.478   2.834   8.149 -0.1661  0.1335 -0.3842
   25SAPC  H15X 3377   4.442   2.739   8.104 -1.0109 -0.1065  0.7626
   25SAPC  H15Y 3378   4.387   2.899   8.155  0.0917  0.3362  2.5159
   25SAPC  C316 3379   4.501   2.797   8.296 -0.6496  0.2521  0.3189
   25SAPC  H16X 3380   4.516   2.885   8.362  2.0855 -0.5661  0.9164
   25SAPC  H16Y 3381   4.599   2.747   8.310  0.1798  1.4108 -1.1334
   25SAPC  C317 3382   4.386   2.709   8.349 -0.1469  0.5132  0.0949
   25SAPC  H17X 3383   4.386   2.635   8.266  1.8249  0.0386  0.4582
   25SAPC  H17Y 3384   4.281   2.745   8.349 -0.4266 -0.2409 -1.1795
   25SAPC  C318 3385   4.415   2.625   8.480 -0.0848 -0.3773 -0.2208
   25SAPC  H18X 3386   4.396   2.687   8.569  0.7619 -0.0370 -0.2682
   25SAPC  H18Y 3387   4.519   2.585   8.491 -0.4905 -1.0595  1.4708
   25SAPC  H18Z 3388   4.352   2.533   8.477 -0.2790 -0.2670  0.5063
   26SAPC     N 3389   1.493   3.791   6.393 -0.6463  0.2032  0.4498
   26SAPC   C12 3390   1.533   3.864   6.263  0.2945  0.3374 -0.4765
   26SAPC  H12A 3391   1.451   3.926   6.231  1.0688  0.8601 -1.5528
   26SAPC  H12B 3392   1.528   3.793   6.181 -4.0536 -1.8861  1.4260
   26SAPC   C13 3393   1.349   3.758   6.389  1.0852  0.2763  0.8874
   26SAPC  H13A 3394   1.315   3.727   6.487 -1.1787  2.0515  0.7647
   26SAPC  H13B 3395   1.290   3.841   6.351 -0.7176 -1.6779 -0.9243
   26SAPC  H13C 3396   1.336   3.681   6.315  2.9561  1.3949 -0.7140
   26SAPC   C14 3397   1.581   3.675   6.406 -0.1948  0.4735  0.8434
   26SAPC  H14A 3398   1.683   3.712   6.404 -0.1613  0.3686  0.1576
   26SAPC  H14B 3399   1.566   3.615   6.494 -0.1955 -1.0406 -0.1424
   26SAPC  H14C 3400   1.574   3.604   6.325  1.8587 -0.4483  1.3965
   26SAPC   C15 3401   1.513   3.877   6.513  0.2764 -0.1604  0.4543
   26SAPC  H15A 3402   1.617   3.903   6.527 -0.0248 -0.1349  3.4130
   26SAPC  H15B 3403   1.450   3.964   6.526  0.2034 -0.2821  0.9391
   26SAPC  H15C 3404   1.496   3.820   6.604  0.3540 -0.3322  0.3605
   26SAPC   C11 3405   1.668   3.945   6.250  0.8140  0.0012 -0.3389
   26SAPC  H11A 3406   1.661   4.019   6.332  0.5338  0.2614 -0.5961
   26SAPC  H11B 3407   1.669   4.005   6.156 -3.3571  0.8096 -0.0246
   26SAPC     P 3408   1.879   3.822   6.189  0.1908 -0.1145  0.1412
   26SAPC   O13 3409   1.817   3.718   6.111 -0.3580 -0.2386 -0.1652
   26SAPC   O14 3410   1.933   3.940   6.114  0.0973  0.2918 -0.0200
   26SAPC   O12 3411   1.780   3.875   6.295 -0.0827 -0.7017 -0.2121
   26SAPC   O11 3412   2.004   3.747   6.267 -0.2754 -0.0130 -0.1670
   26SAPC    C1 3413   2.001   3.718   6.405 -0.3744  0.0481 -0.3499
   26SAPC    HA 3414   1.894   3.711   6.432 -0.3985  2.4232  0.4279
   26SAPC    HB 3415   2.049   3.620   6.427  2.4262  1.1643 -1.0002
   26SAPC    C2 3416   2.078   3.820   6.486 -0.3432  1.1833  0.2797
   26SAPC    HS 3417   2.060   3.795   6.592  1.0645  0.2912  0.3330
   26SAPC   O21 3418   2.054   3.957   6.448  0.3349 -0.1735 -0.2082
   26SAPC   C21 3419   1.959   4.014   6.520  0.3107 -0.5155  0.1626
   26SAPC   O22 3420   1.893   3.958   6.607 -0.0264 -0.2661  0.4795
   26SAPC   C22 3421   1.952   4.168   6.493  0.4167  0.3576  0.8376
   26SAPC   H2R 3422   2.038   4.209   6.551  0.7649 -0.6656  1.0607
   26SAPC   H2S 3423   1.970   4.184   6.384 -0.2798 -2.5435  0.2165
   26SAPC    C3 3424   2.228   3.789   6.455  0.0883  0.5085  1.0931
   26SAPC    HX 3425   2.245   3.853   6.366 -2.4266  3.0532  2.2914
   26SAPC    HY 3426   2.246   3.686   6.419 -2.6166 -0.2863  1.7478
   26SAPC   O31 3427   2.321   3.838   6.557  0.3430 -0.1785 -0.1449
   26SAPC   C31 3428   2.338   3.755   6.663  0.5155  0.1396 -0.0435
   26SAPC   O32 3429   2.287   3.644   6.677  0.1234  0.2767  0.6488
   26SAPC   C32 3430   2.442   3.809   6.763 -0.6212 -0.2545 -0.6582
   26SAPC   H2X 3431   2.431   3.919   6.761  0.9888  0.0027  1.6242
   26SAPC   H2Y 3432   2.539   3.778   6.720 -1.1481  1.7272 -3.5612
   26SAPC   C23 3433   1.821   4.238   6.531 -0.1261  0.8584 -0.4554
   26SAPC   H3R 3434   1.822   4.257   6.640  0.2324 -3.4852  0.4661
   26SAPC   H3S 3435   1.736   4.169   6.513 -1.2234  2.1344 -0.3719
   26SAPC   C24 3436   1.797   4.366   6.446 -0.3847 -0.3927 -0.6647
   26SAPC   H4R 3437   1.687   4.382   6.454 -0.1649  0.9433 -0.0168
   26SAPC   H4S 3438   1.804   4.335   6.339  0.0639  0.0508 -0.7688
   26SAPC   C25 3439   1.886   4.480   6.468  0.1296  0.2469  0.4184
   26SAPC   H5R 3440   1.985   4.471   6.420 -0.3906  2.3240 -1.1765
   26SAPC   C26 3441   1.847   4.592   6.531 -0.5995  0.3387 -0.2806
   26SAPC   H6R 3442   1.927   4.668   6.537 -0.7742  0.6189 -1.3643
   26SAPC   C27 3443   1.716   4.619   6.607  0.5034  0.2407 -0.4257
   26SAPC   H7R 3444   1.727   4.556   6.698  0.6945  0.0239 -0.5984
   26SAPC   H7S 3445   1.643   4.566   6.543  0.1127 -2.7095  2.1935
   26SAPC   C28 3446   1.672   4.761   6.640  0.0013  0.4919 -0.1539
   26SAPC   H8R 3447   1.623   4.806   6.552  0.7735  1.2496 -0.2034
   26SAPC   C29 3448   1.681   4.840   6.749  0.0950 -0.0689 -0.4957
   26SAPC   H9R 3449   1.627   4.936   6.746 -0.1918 -0.1720  0.9317
   26SAPC  C210 3450   1.746   4.800   6.884  0.8106  0.5847  0.4811
   26SAPC  H10R 3451   1.830   4.728   6.872 -1.1940 -1.9919  0.9858
   26SAPC  H10S 3452   1.671   4.750   6.949  1.2981 -0.3131  0.3714
   26SAPC  C211 3453   1.804   4.919   6.946 -0.3271  0.1267 -0.7811
   26SAPC  H11R 3454   1.848   4.998   6.884 -1.1183  0.9485 -0.3246
   26SAPC  C212 3455   1.822   4.922   7.080 -0.1063 -0.3942 -0.2379
   26SAPC  H12R 3456   1.887   5.004   7.115 -0.1383  0.4269 -1.9908
   26SAPC  C213 3457   1.777   4.824   7.189 -0.0788 -0.7026  0.0774
   26SAPC  H13R 3458   1.863   4.807   7.257  0.6139 -1.9336 -1.0501
   26SAPC  H13S 3459   1.758   4.721   7.153  1.0743 -0.6589 -0.6942
   26SAPC  C214 3460   1.649   4.879   7.247  0.2672  0.5920 -0.1593
   26SAPC  H14R 3461   1.585   4.910   7.163  1.3780 -1.5741 -1.9310
   26SAPC  C215 3462   1.617   4.898   7.377 -0.3185  0.3045 -0.7680
   26SAPC  H15R 3463   1.520   4.946   7.394 -1.3091 -0.9632 -2.6166
   26SAPC  C216 3464   1.700   4.868   7.497 -0.5265  0.2643  0.4942
   26SAPC  H16R 3465   1.802   4.833   7.467 -0.1412  1.7595 -0.0073
   26SAPC  H16S 3466   1.652   4.791   7.560  0.5965  0.0580  1.1244
   26SAPC  C217 3467   1.726   4.992   7.590 -0.7496  0.5048  0.1118
   26SAPC  H17R 3468   1.742   5.075   7.518 -0.0460 -0.6145 -1.0616
   26SAPC  H17S 3469   1.812   4.982   7.659 -1.1410 -0.0432  0.5295
   26SAPC  C218 3470   1.602   5.040   7.669  0.2900 -0.1786  0.2492
   26SAPC  H18R 3471   1.546   4.954   7.710  1.3444 -0.4015  1.2614
   26SAPC  H18S 3472   1.538   5.089   7.592 -1.1806 -0.5386  1.2192
   26SAPC  C219 3473   1.618   5.135   7.784  0.4121 -0.2187 -0.0847
   26SAPC  H19R 3474   1.676   5.227   7.757  1.0728 -0.8800 -0.9866
   26SAPC  H19S 3475   1.688   5.082   7.852  0.8429  1.7836  1.1243
   26SAPC  C220 3476   1.495   5.168   7.869 -0.2866 -0.4549 -0.1149
   26SAPC  H20R 3477   1.418   5.089   7.876  0.4391 -1.1969 -0.3992
   26SAPC  H20S 3478   1.445   5.246   7.807 -0.0149 -1.1630 -1.2546
   26SAPC  H20T 3479   1.529   5.205   7.968  0.4601  1.4037 -1.0171
   26SAPC   C33 3480   2.420   3.760   6.905 -0.6351 -0.0267  0.4707
   26SAPC   H3X 3481   2.454   3.655   6.908 -3.8852 -1.2580 -1.0350
   26SAPC   H3Y 3482   2.309   3.757   6.907 -0.6456 -0.3686 -0.2546
   26SAPC   C34 3483   2.477   3.853   7.013  0.7308  0.4979  0.1616
   26SAPC   H4X 3484   2.431   3.954   7.005  0.1885  0.2815  0.5414
   26SAPC   H4Y 3485   2.587   3.863   7.004  1.0222 -0.3703  2.1849
   26SAPC   C35 3486   2.451   3.794   7.151  0.6771 -0.2851 -0.2517
   26SAPC   H5X 3487   2.501   3.695   7.154  0.0943 -0.5696  1.2427
   26SAPC   H5Y 3488   2.341   3.789   7.163  0.6652 -0.9760 -0.6272
   26SAPC   C36 3489   2.510   3.880   7.269  0.0725 -0.6708 -0.2059
   26SAPC   H6X 3490   2.467   3.983   7.270 -0.3833 -0.7709 -2.6219
   26SAPC   H6Y 3491   2.617   3.896   7.243  0.4513 -1.1600  0.9837
   26SAPC   C37 3492   2.476   3.806   7.403 -0.0701  0.8132  0.2220
   26SAPC   H7X 3493   2.528   3.709   7.393 -2.1249 -0.2705 -0.6028
   26SAPC   H7Y 3494   2.369   3.776   7.397  0.0212  0.4614  0.3501
   26SAPC   C38 3495   2.501   3.885   7.527  0.5772 -0.5184  0.3456
   26SAPC   H8X 3496   2.432   3.971   7.516  2.3715  0.8105 -1.0680
   26SAPC   H8Y 3497   2.605   3.919   7.548  0.8736 -1.3133  0.2092
   26SAPC   C39 3498   2.454   3.811   7.659 -0.5107 -0.5064  0.3751
   26SAPC   H9X 3499   2.444   3.893   7.733  0.3127 -1.0385  1.0844
   26SAPC   H9Y 3500   2.536   3.756   7.708 -1.5730 -1.6315  0.9546
   26SAPC  C310 3501   2.329   3.728   7.651 -0.1572 -0.0259  0.0304
   26SAPC  H10X 3502   2.338   3.646   7.577 -2.1733 -0.9683  0.7750
   26SAPC  H10Y 3503   2.250   3.796   7.612 -0.6405 -0.3712  0.4090
   26SAPC  C311 3504   2.288   3.665   7.789  0.2470  0.2147 -0.3604
   26SAPC  H11X 3505   2.385   3.660   7.844  0.6134  1.1120 -0.8963
   26SAPC  H11Y 3506   2.254   3.561   7.767 -1.4242 -0.3649  4.0724
   26SAPC  C312 3507   2.185   3.736   7.870  0.8504  0.1918  0.0013
   26SAPC  H12X 3508   2.096   3.739   7.805  1.2112  2.6116 -0.4604
   26SAPC  H12Y 3509   2.215   3.840   7.894 -1.9393  0.8254  1.0397
   26SAPC  C313 3510   2.158   3.652   7.998  0.1171 -0.7180 -0.0766
   26SAPC  H13X 3511   2.242   3.647   8.071 -0.2049  0.5915  0.4187
   26SAPC  H13Y 3512   2.139   3.549   7.963  1.2619 -1.4316  1.2821
   26SAPC  C314 3513   2.024   3.702   8.070 -0.2706  0.6019 -0.1336
   26SAPC  H14X 3514   2.025   3.813   8.063  4.2398  0.7191 -0.1203
   26SAPC  H14Y 3515   2.045   3.689   8.178  1.2779 -0.5062 -0.5307
   26SAPC  C315 3516   1.909   3.637   7.998  0.4517 -0.2782  0.0630
   26SAPC  H15X 3517   1.952   3.598   7.903 -0.5491  0.2829 -0.6357
   26SAPC  H15Y 3518   1.833   3.713   7.969  0.5255 -0.4441 -0.5986
   26SAPC  C316 3519   1.848   3.518   8.071 -0.3110  0.7031 -0.1374
   26SAPC  H16X 3520   1.850   3.528   8.182 -0.3936 -2.1229  0.1905
   26SAPC  H16Y 3521   1.920   3.435   8.052 -0.4825  0.4683  0.2439
   26SAPC  C317 3522   1.707   3.464   8.018  0.1278 -0.0338 -0.8929
   26SAPC  H17X 3523   1.691   3.360   8.052 -0.2554  0.4853  0.5803
   26SAPC  H17Y 3524   1.699   3.446   7.909 -0.5240 -2.7278 -0.4617
   26SAPC  C318 3525   1.584   3.543   8.076  0.2048  0.5282 -0.2517
   26SAPC  H18X 3526   1.603   3.652   8.072  2.8262  0.2172  1.1145
   26SAPC  H18Y 3527   1.569   3.525   8.185 -2.9697 -0.4995 -0.7621
   26SAPC  H18Z 3528   1.494   3.518   8.015 -0.8991 -1.6088  2.0770
   27SAPC     N 3529   3.048   0.169   6.425  0.5355  0.3366  0.4478
   27SAPC   C12 3530   2.925   0.213   6.512  0.2706  0.1712 -0.1369
   27SAPC  H12A 3531   2.843   0.169   6.458  1.1069 -1.9516  0.2069
   27SAPC  H12B 3532   2.916   0.320   6.501 -1.8753  0.0057 -0.3526
   27SAPC   C13 3533   3.023   0.201   6.279  0.0037 -0.9386 -0.3731
   27SAPC  H13A 3534   2.924   0.168   6.253 -0.6177 -1.6912  2.5535
   27SAPC  H13B 3535   3.024   0.309   6.267 -1.1834 -0.7555  0.9127
   27SAPC  H13C 3536   3.107   0.166   6.221  1.7624 -0.6296  1.8235
   27SAPC   C14 3537   3.177   0.234   6.474  0.7397  0.0991  0.4258
   27SAPC  H14A 3538   3.179   0.339   6.450 -0.6680  0.4057  1.4879
   27SAPC  H14B 3539   3.187   0.226   6.581 -1.8725 -1.6324  0.6529
   27SAPC  H14C 3540   3.257   0.192   6.415  0.9764 -2.3912  2.3485
   27SAPC   C15 3541   3.054   0.023   6.439  0.1259 -0.0460 -0.2338
   27SAPC  H15A 3542   3.125  -0.030   6.378 -1.0652 -1.0130 -0.8172
   27SAPC  H15B 3543   3.104   0.002   6.533  1.4267  1.4678 -0.5396
   27SAPC  H15C 3544   2.960  -0.030   6.437 -0.3813  0.8362 -1.8289
   27SAPC   C11 3545   2.917   0.166   6.657 -0.2955 -0.1014  0.4110
   27SAPC  H11A 3546   2.833   0.223   6.703  0.3841  0.9659  0.3601
   27SAPC  H11B 3547   3.005   0.208   6.710 -0.8642  0.6505  0.7701
   27SAPC     P 3548   2.774  -0.057   6.639  0.0972 -0.2459 -0.1082
   27SAPC   O13 3549   2.742  -0.047   6.494 -0.8348  0.4046 -0.3679
   27SAPC   O14 3550   2.797  -0.188   6.704  0.4399 -0.0613 -0.3343
   27SAPC   O12 3551   2.899   0.030   6.673 -0.0605  0.2625 -0.2064
   27SAPC   O11 3552   2.662   0.031   6.716 -0.1223 -0.1255 -0.2465
   27SAPC    C1 3553   2.675   0.065   6.858 -0.9590 -0.2487 -0.2071
   27SAPC    HA 3554   2.778   0.071   6.899 -0.6146  2.3576 -1.1976
   27SAPC    HB 3555   2.642   0.170   6.876  0.4737  0.1838 -0.0284
   27SAPC    C2 3556   2.601  -0.028   6.948 -0.5959  0.4763 -0.9238
   27SAPC    HS 3557   2.626  -0.132   6.917 -0.5724  0.8255 -2.1052
   27SAPC   O21 3558   2.462   0.011   6.944  0.0148  0.0421 -0.1350
   27SAPC   C21 3559   2.393  -0.079   6.879 -1.1795  0.2054  0.7286
   27SAPC   O22 3560   2.434  -0.182   6.824 -0.5680 -0.3663 -0.5313
   27SAPC   C22 3561   2.245  -0.053   6.897  0.6259 -0.3063  0.5977
   27SAPC   H2R 3562   2.234   0.058   6.892 -0.6962 -0.4467 -0.3365
   27SAPC   H2S 3563   2.183  -0.086   6.810  0.6397 -2.1099  1.2415
   27SAPC    C3 3564   2.650  -0.004   7.098 -0.2048 -0.4136  0.6705
   27SAPC    HX 3565   2.587  -0.056   7.173 -0.9231  1.7823  1.6834
   27SAPC    HY 3566   2.637   0.105   7.115 -0.1481 -0.6805  2.5993
   27SAPC   O31 3567   2.786  -0.041   7.114  0.1849  0.7282 -0.3923
   27SAPC   C31 3568   2.815  -0.172   7.105 -0.0641 -0.5767 -0.1895
   27SAPC   O32 3569   2.732  -0.264   7.098  0.0823  0.4324  0.2102
   27SAPC   C32 3570   2.969  -0.194   7.098  0.7832 -0.5686  0.1425
   27SAPC   H2X 3571   3.007  -0.115   7.031 -1.7591  0.5718 -0.0946
   27SAPC   H2Y 3572   2.994  -0.292   7.052  4.4092 -0.2286  1.0670
   27SAPC   C23 3573   2.171  -0.117   7.023 -0.1089 -0.4483  0.4207
   27SAPC   H3R 3574   2.237  -0.091   7.108 -0.1590 -2.1339  1.0153
   27SAPC   H3S 3575   2.175  -0.228   7.015  0.2037 -0.4797  0.9689
   27SAPC   C24 3576   2.026  -0.071   7.056 -0.4137  0.0613 -0.0824
   27SAPC   H4R 3577   1.983  -0.159   7.109 -0.4175 -0.3925 -0.8215
   27SAPC   H4S 3578   1.969  -0.058   6.961 -1.0960  0.6458  0.4035
   27SAPC   C25 3579   2.023   0.056   7.138  0.6141 -0.3403 -1.1947
   27SAPC   H5R 3580   2.052   0.149   7.087 -1.5352  0.3153 -1.3302
   27SAPC   C26 3581   2.010   0.062   7.271  0.1138  0.3012  0.3875
   27SAPC   H6R 3582   1.997   0.165   7.307  3.8822  0.0394  3.0790
   27SAPC   C27 3583   1.973  -0.048   7.362  0.7850  0.5362  0.2757
   27SAPC   H7R 3584   1.998  -0.147   7.319 -1.7563  0.6001 -1.5846
   27SAPC   H7S 3585   1.862  -0.048   7.359  0.7646  0.0775  1.0141
   27SAPC   C28 3586   2.020  -0.021   7.501 -0.0936  0.2609 -0.8426
   27SAPC   H8R 3587   2.126  -0.043   7.520 -0.1887  0.3287 -0.2110
   27SAPC   C29 3588   1.944   0.009   7.614  0.6712 -0.1901  0.7372
   27SAPC   H9R 3589   2.000   0.026   7.707 -0.5961 -0.3283  1.5450
   27SAPC  C210 3590   1.789   0.022   7.624  0.2834 -0.2167  0.7007
   27SAPC  H10R 3591   1.755  -0.030   7.716 -0.2568 -0.8491  0.1550
   27SAPC  H10S 3592   1.739  -0.039   7.546  0.9623 -0.6606  0.6088
   27SAPC  C211 3593   1.745   0.169   7.616 -0.0191  0.8043  0.6111
   27SAPC  H11R 3594   1.768   0.221   7.522 -1.9724  1.1367  0.2669
   27SAPC  C212 3595   1.695   0.237   7.717 -0.1887  0.0066 -0.2914
   27SAPC  H12R 3596   1.658   0.340   7.704  2.4447  0.7600 -3.0808
   27SAPC  C213 3597   1.669   0.188   7.858  0.1500  0.1530  0.1094
   27SAPC  H13R 3598   1.683   0.267   7.935  0.9255 -1.1346  1.3435
   27SAPC  H13S 3599   1.747   0.111   7.879  1.9370  1.1878 -2.2431
   27SAPC  C214 3600   1.533   0.130   7.891 -0.9335 -0.1419 -0.0919
   27SAPC  H14R 3601   1.459   0.147   7.812 -0.8945 -0.5204 -0.2151
   27SAPC  C215 3602   1.494   0.071   8.004  0.4080 -0.2447  0.2110
   27SAPC  H15R 3603   1.391   0.035   8.014  0.1872  0.4362  0.4067
   27SAPC  C216 3604   1.584   0.050   8.126  0.2829 -0.1413 -0.9756
   27SAPC  H16R 3605   1.683   0.099   8.120  0.7391 -0.9500 -0.3007
   27SAPC  H16S 3606   1.591  -0.059   8.149 -5.2849 -0.3888  1.0873
   27SAPC  C217 3607   1.506   0.128   8.232  0.4327 -0.2541 -0.5861
   27SAPC  H17R 3608   1.396   0.117   8.243  0.5299 -0.0770  0.6759
   27SAPC  H17S 3609   1.524   0.236   8.214  0.0152  0.2351  1.6275
   27SAPC  C218 3610   1.563   0.089   8.372  0.2108  0.4459  0.7916
   27SAPC  H18R 3611   1.674   0.089   8.372  0.3088 -0.9923 -2.0296
   27SAPC  H18S 3612   1.533  -0.014   8.403 -1.4646  0.1323 -1.5682
   27SAPC  C219 3613   1.522   0.183   8.484 -0.1455 -0.5643  0.2848
   27SAPC  H19R 3614   1.515   0.289   8.453 -1.6319 -0.6013  0.4252
   27SAPC  H19S 3615   1.603   0.169   8.559 -1.1473  0.8996  1.6965
   27SAPC  C220 3616   1.394   0.149   8.551  0.2647 -0.0130  0.2561
   27SAPC  H20R 3617   1.377   0.039   8.549  0.3876 -0.0198 -1.0483
   27SAPC  H20S 3618   1.313   0.178   8.481  1.2878 -0.8535 -1.3177
   27SAPC  H20T 3619   1.368   0.196   8.649  0.2074  0.6001 -0.0530
   27SAPC   C33 3620   3.033  -0.191   7.236  0.4933  0.0387 -0.7544
   27SAPC   H3X 3621   3.012  -0.284   7.294  3.2472 -0.5292 -0.5540
   27SAPC   H3Y 3622   2.993  -0.105   7.294  0.6838 -0.9298  0.9051
   27SAPC   C34 3623   3.182  -0.165   7.227 -0.1736 -0.2684  0.2368
   27SAPC   H4X 3624   3.194  -0.055   7.215  1.7818 -0.6367 -1.7551
   27SAPC   H4Y 3625   3.228  -0.212   7.137  1.9922  0.8549  0.6988
   27SAPC   C35 3626   3.261  -0.203   7.351 -0.7205  0.1924 -0.0835
   27SAPC   H5X 3627   3.369  -0.177   7.341 -0.8477  1.4084  1.3563
   27SAPC   H5Y 3628   3.243  -0.311   7.369 -0.4305  0.0179 -0.8099
   27SAPC   C36 3629   3.205  -0.131   7.480 -0.4069  0.1108  0.6599
   27SAPC   H6X 3630   3.115  -0.182   7.521  0.4784 -0.2839  2.1920
   27SAPC   H6Y 3631   3.166  -0.028   7.461 -1.3817 -0.5839 -1.4937
   27SAPC   C37 3632   3.312  -0.139   7.595  0.1769  0.0552  0.3903
   27SAPC   H7X 3633   3.396  -0.068   7.575  1.2038 -0.7640  1.5997
   27SAPC   H7Y 3634   3.336  -0.247   7.604 -2.4880 -0.5072  1.7600
   27SAPC   C38 3635   3.257  -0.106   7.730 -0.1999  0.0413  0.5333
   27SAPC   H8X 3636   3.159  -0.149   7.762 -0.4544  1.4944  1.8049
   27SAPC   H8Y 3637   3.244   0.004   7.715  1.0288  0.1676  0.3016
   27SAPC   C39 3638   3.363  -0.131   7.841  0.0631 -0.2820  0.1027
   27SAPC   H9X 3639   3.466  -0.117   7.801  1.8279 -1.4019  3.8081
   27SAPC   H9Y 3640   3.362  -0.241   7.855 -0.4631 -0.2430  0.3911
   27SAPC  C310 3641   3.320  -0.052   7.967 -0.3125  0.1228 -0.3089
   27SAPC  H10X 3642   3.213  -0.076   7.982 -0.1244 -0.5663 -0.0259
   27SAPC  H10Y 3643   3.338   0.057   7.960 -1.3015  0.3351  0.4079
   27SAPC  C311 3644   3.404  -0.091   8.092 -0.1534  0.4817  0.3775
   27SAPC  H11X 3645   3.375  -0.010   8.162  2.4874  1.4482  0.4490
   27SAPC  H11Y 3646   3.510  -0.074   8.064  0.2877 -1.4384  0.7276
   27SAPC  C312 3647   3.358  -0.232   8.146  0.0408  0.1667 -0.1870
   27SAPC  H12X 3648   3.400  -0.311   8.080 -2.5432 -1.4816  0.0075
   27SAPC  H12Y 3649   3.249  -0.241   8.131  0.0553 -0.9176  0.2793
   27SAPC  C313 3650   3.386  -0.244   8.296 -0.0150 -0.4885 -0.2807
   27SAPC  H13X 3651   3.311  -0.195   8.362  0.5690 -0.0263  0.0431
   27SAPC  H13Y 3652   3.479  -0.191   8.323  1.2266 -1.6541 -2.0697
   27SAPC  C314 3653   3.397  -0.390   8.357  0.4284  0.5466 -0.1671
   27SAPC  H14X 3654   3.491  -0.423   8.309 -0.0346  2.0449 -2.2293
   27SAPC  H14Y 3655   3.314  -0.454   8.320  0.3820  0.6280 -0.2036
   27SAPC  C315 3656   3.408  -0.384   8.499 -0.4468 -0.2059 -0.0272
   27SAPC  H15X 3657   3.314  -0.338   8.537  1.2587  1.8029  2.0400
   27SAPC  H15Y 3658   3.488  -0.313   8.528  0.0594 -1.4163  1.7265
   27SAPC  C316 3659   3.449  -0.523   8.564  0.3951  0.0388  0.3368
   27SAPC  H16X 3660   3.376  -0.603   8.539 -1.3043  1.2414  1.1631
   27SAPC  H16Y 3661   3.445  -0.513   8.675  0.0049 -1.3738  0.4582
   27SAPC  C317 3662   3.594  -0.561   8.544  0.1456  0.2780  0.7894
   27SAPC  H17X 3663   3.620  -0.553   8.436  1.4422  0.0174  1.0672
   27SAPC  H17Y 3664   3.595  -0.671   8.560  0.4012  0.5424  2.8185
   27SAPC  C318 3665   3.684  -0.463   8.619 -0.4817 -0.0357  0.8882
   27SAPC  H18X 3666   3.673  -0.360   8.580 -1.0113 -1.0170 -1.8131
   27SAPC  H18Y 3667   3.792  -0.488   8.613 -0.3700  0.7645 -0.8558
   27SAPC  H18Z 3668   3.668  -0.473   8.729 -0.6974  1.3951  1.0024
   28SAPC     N 3669   2.705   1.890   5.994 -0.5770  0.0793  0.3257
   28SAPC   C12 3670   2.791   1.820   6.095 -0.1671  0.3438 -0.2872
   28SAPC  H12A 3671   2.870   1.889   6.121 -0.8115  0.3214  1.9089
   28SAPC  H12B 3672   2.844   1.736   6.051  0.0373 -0.2327  1.0181
   28SAPC   C13 3673   2.789   1.910   5.866  0.2338  0.2112  0.4732
   28SAPC  H13A 3674   2.730   1.967   5.796  1.0378 -0.3461 -0.6908
   28SAPC  H13B 3675   2.868   1.974   5.900  1.4034 -0.2572 -1.2566
   28SAPC  H13C 3676   2.819   1.820   5.815  2.1287  0.6794  0.6855
   28SAPC   C14 3677   2.584   1.819   5.955  0.6656  0.1129  0.5903
   28SAPC  H14A 3678   2.610   1.741   5.886  1.9279  1.0519 -0.0524
   28SAPC  H14B 3679   2.529   1.779   6.039 -0.4549 -0.3775 -0.3620
   28SAPC  H14C 3680   2.508   1.875   5.902  1.2104 -0.1020 -0.4489
   28SAPC   C15 3681   2.669   2.027   6.047 -0.1089  0.0794  0.2978
   28SAPC  H15A 3682   2.605   2.069   5.971  0.1126 -1.6185 -0.8980
   28SAPC  H15B 3683   2.604   2.021   6.132  3.0310  0.8074  2.9267
   28SAPC  H15C 3684   2.752   2.094   6.063  1.3745 -1.3302 -1.0652
   28SAPC   C11 3685   2.719   1.783   6.227  0.1850  0.8375 -0.2038
   28SAPC  H11A 3686   2.687   1.873   6.284  1.8114  0.1544  1.8892
   28SAPC  H11B 3687   2.803   1.745   6.288  0.0864 -1.9229 -1.6367
   28SAPC     P 3688   2.629   1.532   6.228  0.0399  0.0826  0.1531
   28SAPC   O13 3689   2.508   1.461   6.190  0.2153 -0.4398 -0.2086
   28SAPC   O14 3690   2.758   1.490   6.161  0.8142  0.0554  0.2391
   28SAPC   O12 3691   2.613   1.687   6.210 -0.5420 -0.1289 -0.3998
   28SAPC   O11 3692   2.650   1.502   6.386  0.3129 -0.0134  0.5637
   28SAPC    C1 3693   2.537   1.460   6.460  0.7806 -0.1421  0.0273
   28SAPC    HA 3694   2.447   1.513   6.424  0.2392 -1.9999 -1.5416
   28SAPC    HB 3695   2.527   1.351   6.437  1.9850 -0.1238 -0.6621
   28SAPC    C2 3696   2.548   1.470   6.611 -0.7304 -0.3911  0.3278
   28SAPC    HS 3697   2.518   1.572   6.645 -1.7562 -0.9366  1.0983
   28SAPC   O21 3698   2.680   1.426   6.651  0.6152  0.3116  0.1406
   28SAPC   C21 3699   2.733   1.506   6.744 -1.2159  0.9679 -0.1338
   28SAPC   O22 3700   2.677   1.605   6.789 -0.0191  0.1062 -0.6112
   28SAPC   C22 3701   2.862   1.443   6.807  0.1431 -0.0865  0.3394
   28SAPC   H2R 3702   2.854   1.332   6.808  1.3196 -0.1918  1.6466
   28SAPC   H2S 3703   2.940   1.478   6.736 -1.6399 -0.9208 -2.1598
   28SAPC    C3 3704   2.442   1.385   6.680 -0.6143  0.3302  0.4661
   28SAPC    HX 3705   2.474   1.279   6.674 -0.7302  0.1600  2.3124
   28SAPC    HY 3706   2.343   1.403   6.633 -0.6745 -2.9061 -0.9005
   28SAPC   O31 3707   2.425   1.426   6.812 -0.7061 -0.0417 -0.5430
   28SAPC   C31 3708   2.475   1.348   6.902 -0.0221  0.2659  0.3515
   28SAPC   O32 3709   2.510   1.232   6.887  0.1131  0.1266  0.0640
   28SAPC   C32 3710   2.481   1.421   7.036 -0.3944 -0.6626 -0.5089
   28SAPC   H2X 3711   2.385   1.472   7.059 -1.4239 -2.4280 -0.6807
   28SAPC   H2Y 3712   2.550   1.507   7.022 -1.3495  0.2275  0.1387
   28SAPC   C23 3713   2.894   1.491   6.952  0.2981  0.9130  0.1756
   28SAPC   H3R 3714   2.795   1.490   7.003 -1.6251  1.4334 -3.2613
   28SAPC   H3S 3715   2.926   1.597   6.945  0.3874  0.8753  0.0123
   28SAPC   C24 3716   3.003   1.402   7.018  0.2858  0.3375 -0.0889
   28SAPC   H4R 3717   2.973   1.295   7.023 -0.1955  0.5003  0.6439
   28SAPC   H4S 3718   3.092   1.394   6.951  0.3132  1.6576 -0.2268
   28SAPC   C25 3719   3.070   1.461   7.139  0.5670 -0.6362  0.4111
   28SAPC   H5R 3720   3.083   1.570   7.132  1.6057 -0.7452  0.4204
   28SAPC   C26 3721   3.070   1.406   7.261 -0.1561 -0.5976 -0.6683
   28SAPC   H6R 3722   3.122   1.463   7.339 -0.6444  1.0764 -1.5129
   28SAPC   C27 3723   3.017   1.275   7.315  0.1745 -0.0892 -0.8002
   28SAPC   H7R 3724   2.948   1.243   7.234 -0.0014  0.5389 -0.9074
   28SAPC   H7S 3725   2.961   1.304   7.406 -0.3082 -1.0676 -0.7808
   28SAPC   C28 3726   3.126   1.181   7.354 -0.3954 -0.1011  0.1757
   28SAPC   H8R 3727   3.218   1.191   7.295 -0.4547  0.8029  0.2203
   28SAPC   C29 3728   3.116   1.094   7.458  0.3762 -0.3652 -0.2864
   28SAPC   H9R 3729   3.205   1.032   7.479  0.4379 -0.0374  0.4753
   28SAPC  C210 3730   3.002   1.062   7.552  0.3092  0.1544  0.1839
   28SAPC  H10R 3731   2.909   1.054   7.492 -0.1323  0.5807  0.8011
   28SAPC  H10S 3732   2.991   1.145   7.624 -0.2438  1.3434 -1.2065
   28SAPC  C211 3733   3.022   0.929   7.625  0.4693 -0.0223  0.6199
   28SAPC  H11R 3734   2.962   0.845   7.588  0.2487  0.4965 -0.2348
   28SAPC  C212 3735   3.092   0.901   7.736  0.3313  0.1907 -0.3740
   28SAPC  H12R 3736   3.074   0.803   7.782 -3.6203  1.5881  1.4989
   28SAPC  C213 3737   3.167   1.004   7.815 -0.5510 -0.6928 -0.1728
   28SAPC  H13R 3738   3.095   1.059   7.879 -3.6021 -0.3161 -3.5514
   28SAPC  H13S 3739   3.217   1.084   7.755  1.0847 -1.5914 -0.0603
   28SAPC  C214 3740   3.273   0.953   7.900  0.1164 -0.1774  0.2200
   28SAPC  H14R 3741   3.375   0.973   7.866  0.1408  3.9589  2.1787
   28SAPC  C215 3742   3.262   0.889   8.014 -0.7214 -0.2604  0.3596
   28SAPC  H15R 3743   3.353   0.842   8.055  0.5828  0.1344 -1.9264
   28SAPC  C216 3744   3.143   0.848   8.086 -0.6756 -0.8298  0.2361
   28SAPC  H16R 3745   3.151   0.746   8.129 -1.5486 -0.8301  0.4223
   28SAPC  H16S 3746   3.058   0.850   8.015 -0.6345 -0.6889  0.1898
   28SAPC  C217 3747   3.119   0.942   8.206 -0.1288 -0.5156  0.1686
   28SAPC  H17R 3748   3.033   0.910   8.270  0.9758  1.3197  2.7545
   28SAPC  H17S 3749   3.105   1.048   8.174 -1.0155 -0.6686  0.0292
   28SAPC  C218 3750   3.239   0.943   8.311 -0.7234  0.2751 -0.1710
   28SAPC  H18R 3751   3.321   1.008   8.275 -1.4721  1.5922  0.4116
   28SAPC  H18S 3752   3.268   0.836   8.313  1.0191  0.6354 -2.4465
   28SAPC  C219 3753   3.201   0.989   8.450  0.2816 -0.6625  0.1087
   28SAPC  H19R 3754   3.099   0.951   8.474  0.0581 -0.1737 -0.0620
   28SAPC  H19S 3755   3.200   1.100   8.454  1.4033 -0.6154 -0.3339
   28SAPC  C220 3756   3.318   0.948   8.546  0.1472  0.4257 -0.8252
   28SAPC  H20R 3757   3.409   1.011   8.537  0.8869 -0.0656  2.1055
   28SAPC  H20S 3758   3.337   0.840   8.524 -1.3782  0.0176 -0.2636
   28SAPC  H20T 3759   3.280   0.952   8.650 -0.3939 -0.1869 -0.9914
   28SAPC   C33 3760   2.524   1.317   7.146 -0.9777  0.7692 -0.3181
   28SAPC   H3X 3761   2.598   1.248   7.101 -2.1397  0.5981 -2.0667
   28SAPC   H3Y 3762   2.435   1.255   7.172 -0.6456  1.1847  2.0828
   28SAPC   C34 3763   2.565   1.378   7.281 -0.8354 -0.1400 -0.2092
   28SAPC   H4X 3764   2.484   1.451   7.303 -0.8517 -1.3797  5.2688
   28SAPC   H4Y 3765   2.661   1.432   7.264 -0.4670 -0.9613 -0.7769
   28SAPC   C35 3766   2.556   1.278   7.403  0.2570 -0.5561  0.3445
   28SAPC   H5X 3767   2.618   1.190   7.376  1.1132  0.3668 -0.7629
   28SAPC   H5Y 3768   2.450   1.244   7.409  0.2374 -0.8039 -1.0398
   28SAPC   C36 3769   2.606   1.332   7.540  0.1155  0.0989 -1.1840
   28SAPC   H6X 3770   2.540   1.410   7.582 -0.3920 -0.3141 -1.2052
   28SAPC   H6Y 3771   2.711   1.370   7.543  0.3190 -0.4083  2.4233
   28SAPC   C37 3772   2.617   1.213   7.642  0.5465  0.1725 -0.2707
   28SAPC   H7X 3773   2.676   1.248   7.729  0.3104 -2.6284  1.1308
   28SAPC   H7Y 3774   2.673   1.136   7.586  1.8688  0.2367  0.9155
   28SAPC   C38 3775   2.481   1.168   7.691 -0.6211 -0.3591  0.6226
   28SAPC   H8X 3776   2.410   1.157   7.606  0.5769 -0.3779 -0.3993
   28SAPC   H8Y 3777   2.436   1.253   7.747 -0.2230  0.6891 -0.6050
   28SAPC   C39 3778   2.492   1.032   7.758  0.1351 -0.1421 -0.3036
   28SAPC   H9X 3779   2.583   1.032   7.822 -0.8473  2.0099  1.1759
   28SAPC   H9Y 3780   2.495   0.950   7.683  0.6656 -0.1010 -0.3298
   28SAPC  C310 3781   2.361   1.007   7.840  0.3720  0.0269  0.5117
   28SAPC  H10X 3782   2.272   1.012   7.774 -0.2717  2.2286  1.4466
   28SAPC  H10Y 3783   2.346   1.089   7.913  1.1450  0.5577  0.0811
   28SAPC  C311 3784   2.355   0.870   7.911  0.1605 -0.0445 -0.2679
   28SAPC  H11X 3785   2.444   0.860   7.977 -1.0153 -0.0315  1.3868
   28SAPC  H11Y 3786   2.363   0.784   7.841  3.2889 -1.4067  1.5416
   28SAPC  C312 3787   2.227   0.859   7.999  0.0239  0.1900  0.5122
   28SAPC  H12X 3788   2.144   0.876   7.929  0.8318  2.6194  0.0649
   28SAPC  H12Y 3789   2.239   0.941   8.073  1.5525 -0.1825  0.7220
   28SAPC  C313 3790   2.220   0.735   8.087 -0.0878 -0.1590  0.7992
   28SAPC  H13X 3791   2.321   0.692   8.098 -0.0791  0.0820  1.7238
   28SAPC  H13Y 3792   2.160   0.670   8.020 -1.1335  1.5149  0.0187
   28SAPC  C314 3793   2.154   0.753   8.222 -1.3291  0.5104 -0.5185
   28SAPC  H14X 3794   2.078   0.834   8.227  0.0878  2.0538 -2.1612
   28SAPC  H14Y 3795   2.236   0.785   8.290  0.9470  0.9846 -3.2524
   28SAPC  C315 3796   2.086   0.619   8.270  0.0922 -0.6974  0.1408
   28SAPC  H15X 3797   2.169   0.547   8.257  2.4910  2.0998 -1.2165
   28SAPC  H15Y 3798   1.999   0.594   8.206 -0.3476 -1.2019  0.9153
   28SAPC  C316 3799   2.040   0.630   8.414 -0.5698  0.0987  0.2898
   28SAPC  H16X 3800   2.119   0.681   8.475  0.3212 -1.5949  0.6256
   28SAPC  H16Y 3801   2.015   0.531   8.457  1.3161 -0.9465 -0.8669
   28SAPC  C317 3802   1.911   0.721   8.421  0.3208 -0.2252  0.4836
   28SAPC  H17X 3803   1.839   0.685   8.344 -1.1039  0.0131  1.6535
   28SAPC  H17Y 3804   1.941   0.821   8.385 -1.1144 -0.6939 -2.2981
   28SAPC  C318 3805   1.848   0.731   8.555  0.2428 -0.1008 -0.1141
   28SAPC  H18X 3806   1.814   0.632   8.593 -1.2650  0.3298 -0.2822
   28SAPC  H18Y 3807   1.757   0.792   8.535  0.4162 -0.1697 -1.1621
   28SAPC  H18Z 3808   1.910   0.789   8.628 -0.9010 -0.0667  0.8570
   29SAPC     N 3809   6.591   5.931   6.102  0.3290 -0.4788  0.0800
   29SAPC   C12 3810   6.675   5.863   6.208 -0.1435  0.4411  0.0223
   29SAPC  H12A 3811   6.777   5.853   6.172 -0.6266 -1.1898 -0.9930
   29SAPC  H12B 3812   6.637   5.761   6.211  0.3526  0.2567  0.2482
   29SAPC   C13 3813   6.600   5.845   5.974  0.1173  0.6167 -0.1012
   29SAPC  H13A 3814   6.549   5.895   5.893  1.0714 -0.7894 -1.6231
   29SAPC  H13B 3815   6.701   5.826   5.940  1.5844  2.5163  2.7940
   29SAPC  H13C 3816   6.554   5.749   5.988  0.3032  0.4632 -0.5258
   29SAPC   C14 3817   6.449   5.945   6.139  0.0829  0.4555  0.2037
   29SAPC  H14A 3818   6.406   6.026   6.081 -1.3376  0.9542  1.8654
   29SAPC  H14B 3819   6.390   5.855   6.129 -2.1227  1.7409  0.9031
   29SAPC  H14C 3820   6.433   5.971   6.243 -1.0998  0.5419  0.0236
   29SAPC   C15 3821   6.648   6.062   6.076 -0.5880 -0.4802 -0.3003
   29SAPC  H15A 3822   6.613   6.113   5.988 -0.3113  0.5078  0.1449
   29SAPC  H15B 3823   6.638   6.130   6.159 -0.4208 -1.3789  0.4844
   29SAPC  H15C 3824   6.752   6.059   6.046 -0.3540  1.0659  0.2840
   29SAPC   C11 3825   6.683   5.918   6.354 -0.0774 -0.3587 -0.0739
   29SAPC  H11A 3826   6.730   5.838   6.416  1.9944 -0.4583 -1.6572
   29SAPC  H11B 3827   6.582   5.942   6.394 -0.2125  1.3076 -1.3044
   29SAPC     P 3828   6.914   6.029   6.342 -0.1722 -0.1090 -0.0887
   29SAPC   O13 3829   6.957   5.901   6.292 -0.3021  0.5763  0.0425
   29SAPC   O14 3830   6.956   6.155   6.265  0.4298 -0.5493  0.4034
   29SAPC   O12 3831   6.760   6.036   6.361  0.0714  0.6897  0.5732
   29SAPC   O11 3832   6.971   6.034   6.492 -0.2736 -0.7959 -0.2037
   29SAPC    C1 3833   6.982   6.162   6.559 -0.2652 -0.9032  0.0940
   29SAPC    HA 3834   7.075   6.169   6.619  0.1461 -0.3806 -0.5874
   29SAPC    HB 3835   6.987   6.251   6.492  3.5316 -0.0683  1.2464
   29SAPC    C2 3836   6.854   6.193   6.648  0.0728 -0.3153 -0.1627
   29SAPC    HS 3837   6.766   6.166   6.586 -0.6539  2.7805 -0.6455
   29SAPC   O21 3838   6.863   6.334   6.682  0.2018 -0.1276  0.0684
   29SAPC   C21 3839   6.740   6.378   6.721  0.7537  0.1025 -0.4273
   29SAPC   O22 3840   6.634   6.324   6.699 -0.6781 -0.1611  0.1595
   29SAPC   C22 3841   6.749   6.510   6.802 -0.0400 -1.0078  0.3338
   29SAPC   H2R 3842   6.856   6.536   6.808 -0.0231 -1.2568  1.2651
   29SAPC   H2S 3843   6.699   6.581   6.733 -2.4845 -1.4762  1.5082
   29SAPC    C3 3844   6.864   6.102   6.774 -0.0575 -0.3337  0.9103
   29SAPC    HX 3845   6.958   6.132   6.826  0.9064  0.0118 -0.9416
   29SAPC    HY 3846   6.865   5.996   6.742 -2.9783 -0.1881  0.1482
   29SAPC   O31 3847   6.754   6.124   6.864 -0.1894  0.1791 -0.3003
   29SAPC   C31 3848   6.653   6.049   6.835  0.2964 -0.5699  0.3152
   29SAPC   O32 3849   6.642   5.982   6.732 -0.0161  0.6333 -0.2568
   29SAPC   C32 3850   6.543   6.065   6.937 -0.5445 -0.1947 -0.3615
   29SAPC   H2X 3851   6.478   5.976   6.925  1.5524 -1.8294 -0.0924
   29SAPC   H2Y 3852   6.482   6.156   6.918  0.5633  0.5385 -0.5070
   29SAPC   C23 3853   6.681   6.510   6.935  0.4929  0.4996  0.5965
   29SAPC   H3R 3854   6.581   6.462   6.922  1.4978 -1.0667 -2.5604
   29SAPC   H3S 3855   6.678   6.611   6.981 -1.1899  1.5665 -1.6486
   29SAPC   C24 3856   6.748   6.423   7.038  0.5315 -0.2419  0.9763
   29SAPC   H4R 3857   6.792   6.333   6.990  1.0806 -0.1586  1.3103
   29SAPC   H4S 3858   6.665   6.384   7.101 -2.7345  0.6834 -2.3522
   29SAPC   C25 3859   6.868   6.477   7.106  0.4480 -0.2256  0.6106
   29SAPC   H5R 3860   6.950   6.491   7.035 -1.0825 -0.1903 -1.2255
   29SAPC   C26 3861   6.870   6.513   7.237 -0.0994 -0.4255  0.2327
   29SAPC   H6R 3862   6.960   6.557   7.281 -1.5467  0.6206  2.2980
   29SAPC   C27 3863   6.752   6.509   7.331 -0.0046  0.4168 -1.1562
   29SAPC   H7R 3864   6.700   6.414   7.310  1.0321 -0.5557  0.4906
   29SAPC   H7S 3865   6.690   6.600   7.320  0.4647  1.0413  0.9069
   29SAPC   C28 3866   6.780   6.499   7.486  0.1763  0.3017  0.6860
   29SAPC   H8R 3867   6.730   6.407   7.520  0.5281 -0.7966 -1.5525
   29SAPC   C29 3868   6.849   6.573   7.573 -1.1751  0.0043  0.7608
   29SAPC   H9R 3869   6.868   6.530   7.673 -3.1814 -1.8764  0.4177
   29SAPC  C210 3870   6.916   6.707   7.536  0.4949 -0.4296  0.4034
   29SAPC  H10R 3871   6.837   6.785   7.533  0.5723 -0.3854 -1.6072
   29SAPC  H10S 3872   6.955   6.709   7.432  1.4436  2.1931  0.7086
   29SAPC  C211 3873   7.025   6.759   7.631  0.0819  0.0047 -0.4740
   29SAPC  H11R 3874   7.129   6.725   7.617  0.6557  1.3861  0.2721
   29SAPC  C212 3875   7.015   6.809   7.753 -0.1657  0.2381 -0.2914
   29SAPC  H12R 3876   7.105   6.841   7.807 -1.8120 -1.4004  3.8483
   29SAPC  C213 3877   6.885   6.819   7.825  0.4780 -0.1433 -0.1057
   29SAPC  H13R 3878   6.887   6.776   7.928  0.1491  1.4810  0.6163
   29SAPC  H13S 3879   6.804   6.772   7.766 -0.3954  0.6729  0.4088
   29SAPC  C214 3880   6.838   6.965   7.823 -0.4380 -0.2797 -0.4477
   29SAPC  H14R 3881   6.780   6.996   7.736 -2.0695  0.2732  0.7838
   29SAPC  C215 3882   6.870   7.054   7.923  0.9589  0.4791 -0.5742
   29SAPC  H15R 3883   6.836   7.153   7.891  3.3915  1.1423 -1.2854
   29SAPC  C216 3884   6.949   7.028   8.051 -0.4940  0.5219  0.4997
   29SAPC  H16R 3885   6.990   6.925   8.059 -0.9068  0.4195  1.4799
   29SAPC  H16S 3886   6.904   7.048   8.150  0.3444 -2.7090  1.6442
   29SAPC  C217 3887   7.068   7.119   8.044 -0.8122 -0.1207  0.0109
   29SAPC  H17R 3888   7.032   7.214   7.999 -0.9254  0.4460  1.2672
   29SAPC  H17S 3889   7.144   7.078   7.974  0.0488  1.0407  0.2321
   29SAPC  C218 3890   7.135   7.156   8.180  0.2993  0.4545 -0.4634
   29SAPC  H18R 3891   7.172   7.063   8.227 -1.3371 -0.4301 -0.8331
   29SAPC  H18S 3892   7.061   7.192   8.256 -1.1983 -2.1201 -0.6009
   29SAPC  C219 3893   7.250   7.252   8.156  0.3006 -0.2705 -0.1040
   29SAPC  H19R 3894   7.195   7.338   8.111 -1.6067 -0.3788  1.8401
   29SAPC  H19S 3895   7.325   7.215   8.083  0.8454  0.4693  0.0720
   29SAPC  C220 3896   7.323   7.298   8.282 -0.8404 -0.0424  0.0055
   29SAPC  H20R 3897   7.265   7.341   8.366  2.0883  2.0621  1.1206
   29SAPC  H20S 3898   7.398   7.373   8.249 -0.0915 -0.0677  1.5463
   29SAPC  H20T 3899   7.387   7.214   8.318 -1.8158 -0.9471 -0.3322
   29SAPC   C33 3900   6.600   6.057   7.084  0.3205 -0.2128 -0.1730
   29SAPC   H3X 3901   6.668   6.143   7.099 -0.8699  0.5579  1.0686
   29SAPC   H3Y 3902   6.656   5.961   7.086 -1.3323 -1.3742 -2.8671
   29SAPC   C34 3903   6.489   6.042   7.191 -0.3427  0.7150 -0.8992
   29SAPC   H4X 3904   6.412   5.965   7.169 -2.4297  2.3889  0.1473
   29SAPC   H4Y 3905   6.430   6.136   7.196  2.5421  2.5668  0.3322
   29SAPC   C35 3906   6.557   6.033   7.335 -0.5204  0.6868 -0.4680
   29SAPC   H5X 3907   6.623   6.123   7.341  0.7314 -0.0534 -2.1083
   29SAPC   H5Y 3908   6.619   5.941   7.340 -1.3034  0.1347 -0.7567
   29SAPC   C36 3909   6.459   6.026   7.451 -0.7282 -0.4915  0.2296
   29SAPC   H6X 3910   6.395   5.935   7.449 -4.0603  1.6806  0.6349
   29SAPC   H6Y 3911   6.388   6.111   7.445  2.3869  2.3014 -0.3364
   29SAPC   C37 3912   6.535   6.019   7.586  0.5082 -0.3275 -0.5580
   29SAPC   H7X 3913   6.602   5.931   7.591  1.2916  0.2488 -0.7216
   29SAPC   H7Y 3914   6.457   6.003   7.664  1.7168  1.1472  1.0340
   29SAPC   C38 3915   6.613   6.145   7.623 -0.0468  0.7648 -0.2801
   29SAPC   H8X 3916   6.557   6.231   7.580  1.3684  1.3406 -1.0686
   29SAPC   H8Y 3917   6.712   6.136   7.573  0.3029 -1.5583  0.7495
   29SAPC   C39 3918   6.641   6.149   7.775  0.6215  0.7229 -0.2481
   29SAPC   H9X 3919   6.658   6.046   7.813 -0.5879 -0.4449 -2.6259
   29SAPC   H9Y 3920   6.544   6.183   7.818  0.0979 -0.6156 -0.3240
   29SAPC  C310 3921   6.753   6.241   7.812  0.5217 -0.4366 -0.3344
   29SAPC  H10X 3922   6.730   6.334   7.756  0.4967 -0.1148  0.2025
   29SAPC  H10Y 3923   6.847   6.191   7.780 -0.0615 -3.3782  2.0404
   29SAPC  C311 3924   6.765   6.265   7.962  0.2329  0.0415  0.1176
   29SAPC  H11X 3925   6.762   6.167   8.013  0.1194 -0.2276 -0.3948
   29SAPC  H11Y 3926   6.684   6.326   8.008  0.3743 -0.6557  1.3239
   29SAPC  C312 3927   6.890   6.333   7.999 -0.1801 -0.0140 -0.1120
   29SAPC  H12X 3928   6.905   6.427   7.942 -0.8412  0.8768  1.1577
   29SAPC  H12Y 3929   6.976   6.264   7.986 -1.4844 -1.5425 -1.1012
   29SAPC  C313 3930   6.892   6.380   8.150  0.6326 -0.4978 -0.4576
   29SAPC  H13X 3931   6.851   6.298   8.212 -0.3140 -0.1085 -0.5483
   29SAPC  H13Y 3932   6.816   6.459   8.167  1.7290  0.3802  0.5339
   29SAPC  C314 3933   7.028   6.434   8.197  0.1203  0.4184  0.0643
   29SAPC  H14X 3934   7.053   6.529   8.144  1.5148 -0.3710 -0.7442
   29SAPC  H14Y 3935   7.114   6.369   8.173 -0.3135 -0.3612  0.5856
   29SAPC  C315 3936   7.044   6.464   8.344 -0.1754 -0.4638 -0.1813
   29SAPC  H15X 3937   6.991   6.392   8.410  0.4237  0.4113  1.2884
   29SAPC  H15Y 3938   6.986   6.558   8.360  0.5575  0.0099 -0.2870
   29SAPC  C316 3939   7.191   6.470   8.379  0.6193  0.3234  0.7587
   29SAPC  H16X 3940   7.251   6.408   8.310  0.5696  0.9719  0.1252
   29SAPC  H16Y 3941   7.219   6.437   8.482 -0.0434 -1.1437  0.5022
   29SAPC  C317 3942   7.251   6.606   8.367 -0.1468 -0.0032 -0.5872
   29SAPC  H17X 3943   7.250   6.646   8.263  0.6314 -2.0297 -1.4344
   29SAPC  H17Y 3944   7.359   6.592   8.390 -0.6981 -0.4374  2.0687
   29SAPC  C318 3945   7.205   6.690   8.480  0.4563  0.2777 -0.7680
   29SAPC  H18X 3946   7.095   6.701   8.474  0.5400  1.6149 -0.1561
   29SAPC  H18Y 3947   7.260   6.785   8.501  0.8547 -0.3272  1.1360
   29SAPC  H18Z 3948   7.220   6.625   8.568 -4.0858 -1.3526 -0.9561
   30SAPC     N 3949   6.094   4.219   5.865  0.4241 -0.1352 -0.2363
   30SAPC   C12 3950   5.951   4.253   5.894  0.6392 -0.2206 -0.3691
   30SAPC  H12A 3951   5.902   4.166   5.933 -2.6445  1.4622 -0.4034
   30SAPC  H12B 3952   5.902   4.259   5.798  1.3745 -1.4086 -0.8475
   30SAPC   C13 3953   6.105   4.135   5.748  0.0928 -0.0245  0.0499
   30SAPC  H13A 3954   6.199   4.083   5.755 -0.7930 -1.6890  0.3048
   30SAPC  H13B 3955   6.028   4.061   5.728  0.0388  0.2355 -0.7052
   30SAPC  H13C 3956   6.103   4.193   5.657  2.5057  0.3908  0.2052
   30SAPC   C14 3957   6.173   4.344   5.845  0.5802 -0.0033 -0.4723
   30SAPC  H14A 3958   6.182   4.422   5.918  2.1680  0.6655 -1.3479
   30SAPC  H14B 3959   6.274   4.312   5.823  0.7231  1.5273 -2.3114
   30SAPC  H14C 3960   6.139   4.406   5.763 -1.1100  1.1325  0.9938
   30SAPC   C15 3961   6.158   4.160   5.985 -0.4596 -0.9063 -0.0132
   30SAPC  H15A 3962   6.156   4.239   6.059 -1.2751  0.9321 -1.8750
   30SAPC  H15B 3963   6.096   4.083   6.028  1.4079 -1.2946  2.1607
   30SAPC  H15C 3964   6.260   4.127   5.979 -0.1482  0.1255 -0.7132
   30SAPC   C11 3965   5.919   4.371   5.981 -0.8108  0.7705 -0.0706
   30SAPC  H11A 3966   5.811   4.378   6.003 -0.3906  0.7142  2.3171
   30SAPC  H11B 3967   5.952   4.466   5.933  3.0933 -0.4688 -0.2426
   30SAPC     P 3968   6.029   4.482   6.193  0.0096 -0.2191 -0.0455
   30SAPC   O13 3969   6.146   4.542   6.124 -0.1113  0.6961 -0.0686
   30SAPC   O14 3970   5.913   4.562   6.227 -0.7818 -0.4544 -0.2533
   30SAPC   O12 3971   5.984   4.357   6.106  0.0369  0.1624 -0.7502
   30SAPC   O11 3972   6.085   4.414   6.322 -0.0865  0.1995 -0.3770
   30SAPC    C1 3973   6.021   4.314   6.393 -0.1515 -0.4205  0.2557
   30SAPC    HA 3974   5.918   4.353   6.401  0.6380  2.2463 -1.3508
   30SAPC    HB 3975   6.032   4.220   6.335  1.4174 -0.6953  0.9385
   30SAPC    C2 3976   6.084   4.295   6.534  0.8772  0.0900 -0.0038
   30SAPC    HS 3977   6.149   4.206   6.522 -0.7670 -0.9557 -1.6066
   30SAPC   O21 3978   5.977   4.284   6.633  0.3484  0.2380 -0.2424
   30SAPC   C21 3979   5.916   4.168   6.631 -0.1599  0.1693  0.1969
   30SAPC   O22 3980   5.950   4.066   6.575 -0.1628  0.1183  0.2388
   30SAPC   C22 3981   5.789   4.185   6.712  0.1300  0.1821 -0.6735
   30SAPC   H2R 3982   5.706   4.147   6.649 -1.4034 -0.3950  1.5887
   30SAPC   H2S 3983   5.798   4.127   6.806 -2.4307  1.6802  0.5949
   30SAPC    C3 3984   6.165   4.418   6.573  0.2137 -0.3227 -0.3455
   30SAPC    HX 3985   6.103   4.504   6.539 -0.8944 -1.8803 -2.4410
   30SAPC    HY 3986   6.255   4.421   6.508  0.5486 -3.3229 -0.1319
   30SAPC   O31 3987   6.200   4.430   6.711 -0.2518 -0.0296 -0.2095
   30SAPC   C31 3988   6.292   4.337   6.757  0.6851  0.8048  0.6536
   30SAPC   O32 3989   6.353   4.263   6.682  0.5657 -0.2486 -0.0097
   30SAPC   C32 3990   6.280   4.349   6.906 -0.1178 -0.0257  0.3885
   30SAPC   H2X 3991   6.182   4.388   6.940 -0.2792 -0.1567  0.0711
   30SAPC   H2Y 3992   6.361   4.413   6.947  0.6154 -0.1835 -0.7688
   30SAPC   C23 3993   5.734   4.328   6.755  0.0357 -0.1036 -0.2944
   30SAPC   H3R 3994   5.724   4.374   6.655  0.9186 -1.6942 -1.1456
   30SAPC   H3S 3995   5.804   4.390   6.814 -0.3068 -1.1184  1.2410
   30SAPC   C24 3996   5.601   4.313   6.824  0.7615 -0.8559 -0.5968
   30SAPC   H4R 3997   5.526   4.273   6.752 -0.4224  1.0370 -0.4861
   30SAPC   H4S 3998   5.557   4.414   6.843 -0.0926 -1.3528  0.1387
   30SAPC   C25 3999   5.598   4.236   6.954 -0.1933  0.0582  0.5997
   30SAPC   H5R 4000   5.557   4.136   6.934 -0.0750  0.4870 -2.1293
   30SAPC   C26 4001   5.643   4.279   7.069  0.5109  0.0849 -0.7052
   30SAPC   H6R 4002   5.635   4.218   7.160  0.5919  1.7046  0.4316
   30SAPC   C27 4003   5.699   4.414   7.112  0.3455  0.5106  0.0436
   30SAPC   H7R 4004   5.648   4.450   7.203  1.5628  0.6813  0.6723
   30SAPC   H7S 4005   5.673   4.483   7.028 -1.9772 -1.2211 -0.7571
   30SAPC   C28 4006   5.852   4.412   7.118  0.2240  0.1088 -0.3655
   30SAPC   H8R 4007   5.896   4.382   7.022 -1.6556 -0.6892 -1.0188
   30SAPC   C29 4008   5.926   4.423   7.224 -0.2617 -0.1649 -0.1576
   30SAPC   H9R 4009   6.035   4.413   7.215 -0.3012 -1.6032  0.5604
   30SAPC  C210 4010   5.884   4.445   7.364  0.6844  0.0627 -0.4904
   30SAPC  H10R 4011   5.916   4.357   7.424 -3.0786 -0.8464  0.4095
   30SAPC  H10S 4012   5.774   4.450   7.366  0.7167  4.8710 -0.3627
   30SAPC  C211 4013   5.918   4.572   7.424 -0.3838 -0.3379  0.0179
   30SAPC  H11R 4014   5.872   4.661   7.378  0.6584 -0.0791 -0.5676
   30SAPC  C212 4015   5.994   4.588   7.540 -0.5750 -0.6457  0.2032
   30SAPC  H12R 4016   5.992   4.687   7.588  0.1361 -0.5825  0.1176
   30SAPC  C213 4017   6.063   4.477   7.620 -0.0723 -0.2890  0.3297
   30SAPC  H13R 4018   6.109   4.398   7.558 -0.6846 -0.9702  0.7317
   30SAPC  H13S 4019   5.987   4.448   7.695  0.5658  2.3271  2.1490
   30SAPC  C214 4020   6.188   4.537   7.692 -0.4375  0.4538 -0.2169
   30SAPC  H14R 4021   6.264   4.558   7.615 -0.8578 -1.8678 -1.3655
   30SAPC  C215 4022   6.209   4.559   7.819 -0.0825 -0.2808 -0.4383
   30SAPC  H15R 4023   6.297   4.625   7.828  0.3125 -0.9764  1.1670
   30SAPC  C216 4024   6.113   4.527   7.933 -0.0225 -0.1919  0.1259
   30SAPC  H16R 4025   6.031   4.468   7.889  0.0539  0.9723 -1.6767
   30SAPC  H16S 4026   6.071   4.626   7.964  0.7582  0.7066 -1.5577
   30SAPC  C217 4027   6.169   4.443   8.054  0.6031  0.7215 -0.1025
   30SAPC  H17R 4028   6.261   4.488   8.097  0.3839 -1.5274  3.0371
   30SAPC  H17S 4029   6.194   4.341   8.018 -1.2851  0.1373  0.1384
   30SAPC  C218 4030   6.062   4.423   8.164 -0.4912  0.7557  0.3777
   30SAPC  H18R 4031   5.984   4.355   8.124  1.1725 -0.2968 -1.2608
   30SAPC  H18S 4032   6.019   4.521   8.193  2.7000  2.0672  1.1198
   30SAPC  C219 4033   6.130   4.369   8.291  0.7495  0.9296  0.1779
   30SAPC  H19R 4034   6.184   4.453   8.340  0.7935  0.3132  1.2168
   30SAPC  H19S 4035   6.208   4.295   8.263  0.8537  0.8588  0.6388
   30SAPC  C220 4036   6.025   4.297   8.387 -0.4535  0.1381  0.2742
   30SAPC  H20R 4037   5.943   4.366   8.417  0.5120  1.0946  0.7684
   30SAPC  H20S 4038   6.081   4.265   8.477  0.4692  0.0418 -0.3254
   30SAPC  H20T 4039   5.964   4.218   8.336 -1.4746  1.0792 -0.0109
   30SAPC   C33 4040   6.309   4.209   6.971 -0.1975  0.5008 -0.0929
   30SAPC   H3X 4041   6.418   4.191   6.963 -0.0776  0.0783  1.9954
   30SAPC   H3Y 4042   6.262   4.129   6.910 -0.2749 -1.0446  1.9244
   30SAPC   C34 4043   6.262   4.198   7.120  0.0397 -0.1143 -0.0228
   30SAPC   H4X 4044   6.294   4.099   7.157  1.9963 -0.4051 -2.2201
   30SAPC   H4Y 4045   6.151   4.204   7.120 -0.2723 -3.2929  2.6858
   30SAPC   C35 4046   6.304   4.315   7.215 -0.9618 -0.2820  0.9341
   30SAPC   H5X 4047   6.266   4.417   7.194  1.2265  0.0444 -1.9907
   30SAPC   H5Y 4048   6.414   4.325   7.207 -0.9570 -0.3523  0.9118
   30SAPC   C36 4049   6.264   4.298   7.365  0.7397  0.6103 -0.0153
   30SAPC   H6X 4050   6.154   4.296   7.377  0.6374  2.3350 -0.3980
   30SAPC   H6Y 4051   6.302   4.379   7.431  1.4055  0.6438 -0.4256
   30SAPC   C37 4052   6.313   4.172   7.433  0.9149 -0.6348  0.7892
   30SAPC   H7X 4053   6.423   4.168   7.420  0.8165  1.5456 -1.4556
   30SAPC   H7Y 4054   6.275   4.077   7.389 -1.3124 -0.4452  2.1699
   30SAPC   C38 4055   6.280   4.184   7.583 -0.3286 -0.2485 -0.1813
   30SAPC   H8X 4056   6.169   4.189   7.591 -0.6471 -4.1626 -0.0450
   30SAPC   H8Y 4057   6.330   4.279   7.613 -0.8752 -0.2068  0.6518
   30SAPC   C39 4058   6.352   4.091   7.678  0.2488 -0.3273 -0.2752
   30SAPC   H9X 4059   6.460   4.110   7.662  0.5205 -2.4315 -1.3138
   30SAPC   H9Y 4060   6.327   3.984   7.659  0.2648 -0.4937  0.5903
   30SAPC  C310 4061   6.329   4.131   7.830  0.3928 -0.8033  0.8401
   30SAPC  H10X 4062   6.221   4.112   7.848 -0.2921  0.7477 -1.2637
   30SAPC  H10Y 4063   6.347   4.240   7.843 -0.1781 -0.5531 -0.3540
   30SAPC  C311 4064   6.408   4.057   7.935 -0.7474  0.1085  0.1642
   30SAPC  H11X 4065   6.515   4.072   7.907 -0.7934  0.7858  0.3314
   30SAPC  H11Y 4066   6.387   3.948   7.926  2.2579 -0.5899  0.3125
   30SAPC  C312 4067   6.370   4.106   8.074 -0.4731  0.6175  0.1159
   30SAPC  H12X 4068   6.263   4.133   8.083 -0.4503  0.7942 -0.1533
   30SAPC  H12Y 4069   6.422   4.203   8.089  1.3137 -0.0618 -1.2851
   30SAPC  C313 4070   6.438   4.022   8.188  0.0434 -0.7883 -0.6188
   30SAPC  H13X 4071   6.547   4.024   8.169 -0.2325  0.8942 -2.3079
   30SAPC  H13Y 4072   6.416   3.917   8.163  3.5759 -1.7245 -0.2678
   30SAPC  C314 4073   6.398   4.057   8.329 -0.5360 -0.1957  0.0250
   30SAPC  H14X 4074   6.298   4.106   8.332 -0.7852 -0.6693 -0.4352
   30SAPC  H14Y 4075   6.486   4.111   8.371 -0.8530  0.9191 -0.6962
   30SAPC  C315 4076   6.373   3.931   8.420  0.2092 -0.8177 -0.2240
   30SAPC  H15X 4077   6.468   3.874   8.428  1.5047  1.4630  1.4485
   30SAPC  H15Y 4078   6.301   3.863   8.369 -0.4616 -0.3553  0.0930
   30SAPC  C316 4079   6.327   3.979   8.557  0.4136  1.2437 -0.2911
   30SAPC  H16X 4080   6.228   4.029   8.555 -1.2239 -1.6361  1.4568
   30SAPC  H16Y 4081   6.401   4.057   8.586  1.5132  0.1953 -0.1852
   30SAPC  C317 4082   6.337   3.879   8.675  0.8511 -0.1057 -0.0280
   30SAPC  H17X 4083   6.270   3.898   8.762  2.0317 -2.6839  1.5748
   30SAPC  H17Y 4084   6.442   3.860   8.705  0.9210  0.6745  0.2193
   30SAPC  C318 4085   6.275   3.750   8.629  0.1765  0.3431 -0.0651
   30SAPC  H18X 4086   6.281   3.676   8.712  0.0012  0.8854  0.4409
   30SAPC  H18Y 4087   6.332   3.691   8.555  1.3497 -2.2739  2.7174
   30SAPC  H18Z 4088   6.165   3.757   8.611 -0.0055 -0.9405  0.4534
   31SAPC     N 4089   0.599   1.184   6.228 -0.2586  0.1906  0.3611
   31SAPC   C12 4090   0.726   1.155   6.303  0.0458  0.2076 -0.3291
   31SAPC  H12A 4091   0.801   1.232   6.300 -0.2642  0.5991  1.2706
   31SAPC  H12B 4092   0.778   1.067   6.266 -0.9290 -0.6141  0.2051
   31SAPC   C13 4093   0.514   1.061   6.201  0.0255  0.4552  0.3038
   31SAPC  H13A 4094   0.416   1.095   6.170  0.3131  1.1745  0.1580
   31SAPC  H13B 4095   0.571   1.004   6.129  1.1400 -0.1528  1.6254
   31SAPC  H13C 4096   0.501   1.011   6.295  0.9538  2.4866  1.5892
   31SAPC   C14 4097   0.514   1.285   6.297  0.6001 -0.2504 -0.1099
   31SAPC  H14A 4098   0.563   1.378   6.322  1.6485 -0.6219 -0.7435
   31SAPC  H14B 4099   0.429   1.306   6.233  1.5942 -0.7799 -1.6547
   31SAPC  H14C 4100   0.469   1.241   6.385  0.7656 -0.4084 -0.1055
   31SAPC   C15 4101   0.617   1.249   6.091  1.2481 -0.6465  0.4692
   31SAPC  H15A 4102   0.678   1.338   6.090  0.0986  0.1878  1.6071
   31SAPC  H15B 4103   0.647   1.179   6.015  0.7661  1.0628 -1.3867
   31SAPC  H15C 4104   0.525   1.288   6.049  2.4527  0.3933 -1.3285
   31SAPC   C11 4105   0.711   1.119   6.454  0.0123  0.4204  0.0245
   31SAPC  H11A 4106   0.612   1.069   6.460 -1.3199  2.3079 -3.5987
   31SAPC  H11B 4107   0.712   1.215   6.510  1.7903 -0.6638  1.9828
   31SAPC     P 4108   0.803   0.873   6.487 -0.2994  0.0634 -0.4425
   31SAPC   O13 4109   0.663   0.823   6.472  0.0414 -0.0277  0.6661
   31SAPC   O14 4110   0.901   0.833   6.389 -0.1106  0.6094  0.7448
   31SAPC   O12 4111   0.812   1.030   6.495 -0.1935 -0.0077 -0.4512
   31SAPC   O11 4112   0.845   0.821   6.633  0.3656 -0.1795  0.2817
   31SAPC    C1 4113   0.835   0.894   6.752  0.0479 -0.4127  0.1314
   31SAPC    HA 4114   0.935   0.942   6.764  0.4520 -0.9285 -1.0410
   31SAPC    HB 4115   0.744   0.957   6.753  0.2640  0.0569 -2.5584
   31SAPC    C2 4116   0.817   0.798   6.867  0.0251  0.0046 -0.2284
   31SAPC    HS 4117   0.897   0.721   6.858 -0.9128 -1.0139 -0.1070
   31SAPC   O21 4118   0.683   0.733   6.863 -0.3511 -0.6641  0.4521
   31SAPC   C21 4119   0.667   0.611   6.816  0.6159  0.0251  0.2064
   31SAPC   O22 4120   0.750   0.531   6.785 -0.4137  0.2500 -0.1458
   31SAPC   C22 4121   0.516   0.570   6.809 -0.4025  0.2425 -0.1205
   31SAPC   H2R 4122   0.460   0.632   6.883  0.9191 -1.7140  2.7248
   31SAPC   H2S 4123   0.481   0.592   6.706 -0.5922 -1.8196 -0.5433
   31SAPC    C3 4124   0.831   0.881   6.999  0.5580 -0.1363 -0.2023
   31SAPC    HX 4125   0.811   0.808   7.080  1.6225 -0.3059 -0.0716
   31SAPC    HY 4126   0.757   0.963   6.987  0.5904 -0.2188 -1.0326
   31SAPC   O31 4127   0.965   0.933   7.019  0.0785 -0.1159 -0.6239
   31SAPC   C31 4128   0.974   1.029   7.111 -0.5575 -0.2698  0.2610
   31SAPC   O32 4129   0.882   1.074   7.176 -0.4655 -0.5109 -0.1512
   31SAPC   C32 4130   1.119   1.070   7.130 -0.4164 -0.3643 -0.0173
   31SAPC   H2X 4131   1.113   1.162   7.192 -0.7219 -1.8334  2.2890
   31SAPC   H2Y 4132   1.162   1.099   7.032  2.6931 -0.9885  1.0511
   31SAPC   C23 4133   0.490   0.430   6.849  0.2424  0.1733  0.3558
   31SAPC   H3R 4134   0.543   0.364   6.777  1.1497 -0.7798  1.8375
   31SAPC   H3S 4135   0.385   0.396   6.856 -0.2712  1.3550 -1.0626
   31SAPC   C24 4136   0.545   0.387   6.984  0.1941  1.1661  0.0132
   31SAPC   H4R 4137   0.656   0.391   6.982  0.2157  1.0960  0.7071
   31SAPC   H4S 4138   0.533   0.277   6.991  0.9077  1.0862  0.0691
   31SAPC   C25 4139   0.486   0.459   7.103  0.5568 -0.3734  0.5738
   31SAPC   H5R 4140   0.388   0.509   7.093 -0.4145 -1.7661  2.4025
   31SAPC   C26 4141   0.561   0.487   7.212 -0.2256  0.3294  1.0159
   31SAPC   H6R 4142   0.512   0.558   7.280 -3.4913  1.6937 -2.4086
   31SAPC   C27 4143   0.704   0.449   7.236 -0.8022 -0.2215  0.2629
   31SAPC   H7R 4144   0.761   0.462   7.141  0.0487  1.1192  0.9365
   31SAPC   H7S 4145   0.709   0.338   7.249  1.1187 -0.2712 -0.6317
   31SAPC   C28 4146   0.775   0.534   7.331 -0.8141  0.5985  0.1627
   31SAPC   H8R 4147   0.832   0.616   7.284 -0.2155 -0.6616 -1.3881
   31SAPC   C29 4148   0.782   0.517   7.463 -0.3633 -0.2831 -0.0120
   31SAPC   H9R 4149   0.815   0.602   7.524 -1.4451  0.4354 -0.4044
   31SAPC  C210 4150   0.722   0.404   7.544 -0.2397  0.5665  0.0065
   31SAPC  H10R 4151   0.806   0.356   7.598  0.9057  1.8804 -0.5281
   31SAPC  H10S 4152   0.678   0.325   7.481 -1.5853  0.0734  1.5046
   31SAPC  C211 4153   0.619   0.442   7.650  0.3778  0.1867  0.6008
   31SAPC  H11R 4154   0.522   0.415   7.607  0.9788  0.5914 -1.0859
   31SAPC  C212 4155   0.632   0.511   7.765 -0.1612 -0.1443 -0.6197
   31SAPC  H12R 4156   0.548   0.519   7.835 -0.4872  1.9372 -1.1624
   31SAPC  C213 4157   0.767   0.558   7.820  0.2343 -0.3344 -1.0118
   31SAPC  H13R 4158   0.785   0.662   7.784 -1.0472  0.2529 -0.0569
   31SAPC  H13S 4159   0.852   0.499   7.779  1.7897 -0.2020  1.7152
   31SAPC  C214 4160   0.758   0.573   7.970  0.3972  0.4037  0.4895
   31SAPC  H14R 4161   0.809   0.492   8.024 -1.9339 -0.8403  0.9696
   31SAPC  C215 4162   0.684   0.659   8.040 -0.6843  0.4634  0.4141
   31SAPC  H15R 4163   0.705   0.656   8.148 -0.4133 -1.3654  0.3472
   31SAPC  C216 4164   0.594   0.775   7.988  0.6365  0.3896  0.4600
   31SAPC  H16R 4165   0.601   0.796   7.879  0.0193  2.5894  0.7921
   31SAPC  H16S 4166   0.634   0.874   8.020  0.2397  1.2443 -1.4911
   31SAPC  C217 4167   0.444   0.755   8.024 -0.4787  0.6170 -0.7076
   31SAPC  H17R 4168   0.447   0.750   8.135  1.9597  1.1098 -0.6917
   31SAPC  H17S 4169   0.409   0.658   7.982  1.5109 -0.6365  0.3442
   31SAPC  C218 4170   0.353   0.862   7.977 -1.0363  0.1967 -0.0700
   31SAPC  H18R 4171   0.407   0.955   8.005  1.3512 -1.1764  0.1854
   31SAPC  H18S 4172   0.248   0.855   8.012 -0.9083  1.2155  0.5516
   31SAPC  C219 4173   0.330   0.869   7.820 -0.5665  0.5460 -0.1196
   31SAPC  H19R 4174   0.272   0.779   7.791 -2.5854  2.0746 -1.0996
   31SAPC  H19S 4175   0.427   0.878   7.765 -0.6991  1.0768 -0.2768
   31SAPC  C220 4176   0.232   0.984   7.777 -0.3389 -0.3268  0.2831
   31SAPC  H20R 4177   0.280   1.083   7.794  1.7104 -1.5364  2.0027
   31SAPC  H20S 4178   0.140   0.965   7.836 -0.6170  1.2185  0.3873
   31SAPC  H20T 4179   0.208   0.970   7.670  0.9089 -0.6328  0.0232
   31SAPC   C33 4180   1.194   0.957   7.204 -0.0761  0.1047  0.1303
   31SAPC   H3X 4181   1.304   0.972   7.208  0.2845 -2.1135  0.0370
   31SAPC   H3Y 4182   1.196   0.860   7.150  0.8939  0.5260 -0.6285
   31SAPC   C34 4183   1.144   0.928   7.341 -0.4633 -0.1755 -0.5136
   31SAPC   H4X 4184   1.043   0.970   7.361 -1.3204 -2.8111  1.3511
   31SAPC   H4Y 4185   1.207   0.967   7.424  0.6698  1.4224 -2.0598
   31SAPC   C35 4186   1.132   0.780   7.370 -0.1004  0.4533 -0.3315
   31SAPC   H5X 4187   1.231   0.736   7.343  1.1051  1.4575  2.1555
   31SAPC   H5Y 4188   1.041   0.744   7.318 -1.5144  2.2190  0.8333
   31SAPC   C36 4189   1.114   0.736   7.521 -0.1085  0.2802  0.6006
   31SAPC   H6X 4190   1.112   0.625   7.528 -2.8953  0.1892 -0.3319
   31SAPC   H6Y 4191   1.015   0.768   7.560 -0.2926  0.1659  0.2256
   31SAPC   C37 4192   1.229   0.790   7.614 -0.6364  0.7935  0.6277
   31SAPC   H7X 4193   1.209   0.899   7.609  1.1358  1.1009 -1.0327
   31SAPC   H7Y 4194   1.330   0.771   7.572 -0.6859  0.4246  0.6721
   31SAPC   C38 4195   1.233   0.756   7.760 -0.0276  0.0225  0.1372
   31SAPC   H8X 4196   1.327   0.799   7.801  1.0581  0.6009 -2.6676
   31SAPC   H8Y 4197   1.217   0.648   7.783  1.3620  0.2273  2.3678
   31SAPC   C39 4198   1.118   0.824   7.846 -1.3424 -0.3036  0.1951
   31SAPC   H9X 4199   1.020   0.794   7.805 -1.5990  0.7194  0.0384
   31SAPC   H9Y 4200   1.136   0.933   7.834 -1.4937 -0.2717  0.2595
   31SAPC  C310 4201   1.131   0.790   7.995  0.4728  0.5027 -0.6853
   31SAPC  H10X 4202   1.238   0.785   8.022 -0.0795 -1.4555  1.3602
   31SAPC  H10Y 4203   1.102   0.691   8.035 -0.0473  1.3477  1.1085
   31SAPC  C311 4204   1.064   0.905   8.085  0.0421  0.5974  0.0733
   31SAPC  H11X 4205   0.962   0.928   8.046  0.5616  2.5095 -0.2751
   31SAPC  H11Y 4206   1.136   0.988   8.072  0.3465  0.5668  1.4293
   31SAPC  C312 4207   1.031   0.870   8.230  0.8178  0.9073 -0.1303
   31SAPC  H12X 4208   1.125   0.835   8.279  0.9986  0.3890 -0.8393
   31SAPC  H12Y 4209   0.959   0.785   8.228  0.2683  1.3467  0.2969
   31SAPC  C313 4210   0.989   0.995   8.308  0.5340 -0.2788 -0.2055
   31SAPC  H13X 4211   0.903   1.050   8.263 -0.5292 -1.7349 -0.0442
   31SAPC  H13Y 4212   1.075   1.064   8.300 -0.3008  0.7223 -0.8604
   31SAPC  C314 4213   0.962   0.963   8.460 -0.3638  0.2145  0.1186
   31SAPC  H14X 4214   0.980   1.057   8.516  1.4969  0.2349 -0.4489
   31SAPC  H14Y 4215   1.041   0.892   8.492 -1.5931 -0.7406  1.1319
   31SAPC  C315 4216   0.832   0.901   8.488  0.0137  0.3591  0.1630
   31SAPC  H15X 4217   0.824   0.874   8.596  0.3542  3.8090  1.1619
   31SAPC  H15Y 4218   0.807   0.809   8.430  1.5515  1.6604 -2.7858
   31SAPC  C316 4219   0.705   0.992   8.460 -0.8398  0.4243  0.0193
   31SAPC  H16X 4220   0.707   1.020   8.353 -0.4374  0.1421 -0.0488
   31SAPC  H16Y 4221   0.714   1.090   8.511 -1.0251 -0.9791  2.9541
   31SAPC  C317 4222   0.561   0.936   8.499  0.1078  0.0315 -0.1475
   31SAPC  H17X 4223   0.573   0.907   8.606  1.0172  1.4199  0.1602
   31SAPC  H17Y 4224   0.550   0.841   8.443  0.4119  0.6047 -1.1956
   31SAPC  C318 4225   0.439   1.021   8.473  0.1519 -0.0381  0.4395
   31SAPC  H18X 4226   0.436   1.052   8.366  0.4200  2.6071  1.1182
   31SAPC  H18Y 4227   0.461   1.107   8.541 -0.3470 -1.5291  2.5638
   31SAPC  H18Z 4228   0.347   0.966   8.500 -0.9004  0.8241 -1.1881
   32SAPC     N 4229   1.423   1.018   6.301  0.5062 -0.4060 -0.3503
   32SAPC   C12 4230   1.317   1.021   6.196  1.1490 -0.0502 -0.2453
   32SAPC  H12A 4231   1.279   0.920   6.189 -0.7374  0.5504  0.6810
   32SAPC  H12B 4232   1.367   1.037   6.102  1.9988 -1.9194 -0.1445
   32SAPC   C13 4233   1.531   1.117   6.274  0.3428 -0.7231  0.8764
   32SAPC  H13A 4234   1.592   1.090   6.190 -0.1464 -2.1238  0.9462
   32SAPC  H13B 4235   1.491   1.217   6.263  2.5036  0.0254 -0.9977
   32SAPC  H13C 4236   1.601   1.140   6.352 -0.7675  1.3971  1.3257
   32SAPC   C14 4237   1.362   1.033   6.443  0.0659  0.6796  0.0427
   32SAPC  H14A 4238   1.309   1.125   6.461 -2.4538 -0.6351 -0.1471
   32SAPC  H14B 4239   1.277   0.967   6.448  2.4711 -2.6945 -0.3246
   32SAPC  H14C 4240   1.427   0.989   6.518 -0.4077  2.2325  1.4385
   32SAPC   C15 4241   1.488   0.883   6.304 -0.5936  0.4453  0.5116
   32SAPC  H15A 4242   1.528   0.855   6.208  1.1788  0.0141  1.3385
   32SAPC  H15B 4243   1.571   0.883   6.373 -1.1237 -0.4372  1.1803
   32SAPC  H15C 4244   1.418   0.810   6.341 -0.4131  1.5920  3.3912
   32SAPC   C11 4245   1.200   1.121   6.223 -0.0695 -0.5026 -0.5242
   32SAPC  H11A 4246   1.238   1.201   6.289  1.4477  0.0176 -1.9520
   32SAPC  H11B 4247   1.120   1.065   6.274 -0.3803 -0.9747 -1.5029
   32SAPC     P 4248   1.007   1.200   6.058  0.3793  0.0432  0.0843
   32SAPC   O13 4249   1.008   1.281   5.931 -0.4118 -0.3356 -0.3240
   32SAPC   O14 4250   0.933   1.072   6.058 -0.1278 -0.3793  0.4437
   32SAPC   O12 4251   1.157   1.181   6.099 -0.5153  0.7111  0.3813
   32SAPC   O11 4252   0.939   1.282   6.173 -0.1259 -0.2164 -0.1908
   32SAPC    C1 4253   0.989   1.412   6.197 -0.4294 -0.1436  0.8118
   32SAPC    HA 4254   1.099   1.417   6.215  0.4346  2.6594 -3.7637
   32SAPC    HB 4255   0.961   1.485   6.118  0.4564 -1.0420 -0.3776
   32SAPC    C2 4256   0.921   1.470   6.323 -0.3501 -0.0723 -0.7585
   32SAPC    HS 4257   0.986   1.555   6.350 -2.3321  0.9334  1.1466
   32SAPC   O21 4258   0.903   1.372   6.431 -0.5284  0.1542 -0.1161
   32SAPC   C21 4259   1.023   1.350   6.495 -0.8264 -0.0773  0.4813
   32SAPC   O22 4260   1.134   1.385   6.457  0.4505 -0.1433  0.1938
   32SAPC   C22 4261   1.000   1.256   6.616  0.4060  0.5484 -0.5518
   32SAPC   H2R 4262   0.895   1.223   6.623  0.2690  0.5647 -2.2003
   32SAPC   H2S 4263   1.046   1.157   6.595 -2.8103 -1.4603  1.1094
   32SAPC    C3 4264   0.781   1.533   6.289  0.2391  0.9889 -0.1092
   32SAPC    HX 4265   0.740   1.478   6.202 -0.0757 -2.6673  2.1112
   32SAPC    HY 4266   0.790   1.640   6.259  0.9234  1.5124  1.8163
   32SAPC   O31 4267   0.679   1.517   6.395 -0.5808 -0.2899 -0.1545
   32SAPC   C31 4268   0.707   1.582   6.503  0.0714 -0.7522 -0.2719
   32SAPC   O32 4269   0.803   1.652   6.533  0.0410  0.7373 -0.2875
   32SAPC   C32 4270   0.594   1.555   6.601 -0.0175  0.1612 -1.2382
   32SAPC   H2X 4271   0.600   1.445   6.615 -0.7009 -0.3527 -4.3066
   32SAPC   H2Y 4272   0.494   1.581   6.560 -1.2538  0.4277  1.6696
   32SAPC   C23 4273   1.059   1.320   6.746  0.0088  0.2912  0.0842
   32SAPC   H3R 4274   1.163   1.353   6.727 -0.5206  1.3634 -1.1094
   32SAPC   H3S 4275   1.080   1.251   6.831 -1.2803  1.5488  1.4923
   32SAPC   C24 4276   0.976   1.436   6.796 -0.7266  0.1644  0.0458
   32SAPC   H4R 4277   0.947   1.484   6.700  0.5684  1.4426  0.2533
   32SAPC   H4S 4278   1.030   1.519   6.846 -2.5528  0.5503  1.5086
   32SAPC   C25 4279   0.854   1.392   6.882  0.5061  0.2364 -0.1820
   32SAPC   H5R 4280   0.792   1.311   6.842  0.7152 -0.4089  0.7741
   32SAPC   C26 4281   0.807   1.463   6.991  0.2547  0.3721 -0.9290
   32SAPC   H6R 4282   0.719   1.440   7.053  0.9542 -0.2976 -0.1578
   32SAPC   C27 4283   0.879   1.585   7.047  0.4047 -0.3305 -0.4031
   32SAPC   H7R 4284   0.901   1.649   6.959  1.7551 -0.7548 -0.3883
   32SAPC   H7S 4285   0.979   1.554   7.082 -0.5459 -2.9671  0.1959
   32SAPC   C28 4286   0.810   1.655   7.160  0.0492  0.5883 -0.0035
   32SAPC   H8R 4287   0.770   1.756   7.143  2.7274  2.1244  1.9308
   32SAPC   C29 4288   0.802   1.614   7.290 -0.3146 -0.2082  0.0768
   32SAPC   H9R 4289   0.765   1.685   7.365  1.8532 -1.6001  2.6010
   32SAPC  C210 4290   0.856   1.491   7.347 -0.6691  0.1955  0.0137
   32SAPC  H10R 4291   0.905   1.439   7.262 -2.6411  2.0484 -2.3947
   32SAPC  H10S 4292   0.777   1.414   7.363  0.8649 -1.6382 -0.7959
   32SAPC  C211 4293   0.941   1.527   7.465  0.2278 -0.0047 -0.1043
   32SAPC  H11R 4294   0.896   1.564   7.559 -0.1650 -0.9594  0.0928
   32SAPC  C212 4295   1.073   1.518   7.473  0.0082  0.2989 -0.5658
   32SAPC  H12R 4296   1.125   1.554   7.563 -0.6588 -1.6213  0.6699
   32SAPC  C213 4297   1.169   1.461   7.372 -0.6761  0.0157 -0.3620
   32SAPC  H13R 4298   1.114   1.386   7.312  0.9247 -0.6681 -1.0285
   32SAPC  H13S 4299   1.260   1.423   7.425 -1.5168  0.5570  1.5760
   32SAPC  C214 4300   1.215   1.578   7.293  0.2816  0.2806 -0.4576
   32SAPC  H14R 4301   1.181   1.679   7.321 -0.1725  0.1985 -0.6981
   32SAPC  C215 4302   1.284   1.577   7.181 -0.1372 -0.5526  0.2579
   32SAPC  H15R 4303   1.319   1.671   7.136  2.9795 -1.3583  0.7789
   32SAPC  C216 4304   1.322   1.450   7.103  0.2430 -0.0071 -0.4041
   32SAPC  H16R 4305   1.270   1.456   7.005 -0.9002 -0.8756  0.1183
   32SAPC  H16S 4306   1.278   1.359   7.150 -2.5616  0.9390 -0.9691
   32SAPC  C217 4307   1.470   1.437   7.083 -0.0203 -1.1617 -0.0582
   32SAPC  H17R 4308   1.494   1.338   7.039 -1.9153 -1.0302 -1.4657
   32SAPC  H17S 4309   1.540   1.449   7.169  2.7857 -2.7430 -1.9428
   32SAPC  C218 4310   1.507   1.544   6.982 -0.8930 -0.2479  0.3594
   32SAPC  H18R 4311   1.483   1.644   7.024  1.0672  0.4335 -0.0430
   32SAPC  H18S 4312   1.451   1.534   6.887 -2.2345  1.3496  0.9391
   32SAPC  C219 4313   1.663   1.542   6.957  0.3293  0.7855  0.2802
   32SAPC  H19R 4314   1.680   1.458   6.886 -1.0150  0.5428  0.2249
   32SAPC  H19S 4315   1.712   1.513   7.052 -0.1906  0.9864  0.6166
   32SAPC  C220 4316   1.725   1.663   6.903 -0.4317 -0.7510 -0.2655
   32SAPC  H20R 4317   1.682   1.757   6.945 -1.1187 -0.5223 -1.4175
   32SAPC  H20S 4318   1.711   1.677   6.793 -1.7849  1.6930  0.1386
   32SAPC  H20T 4319   1.835   1.659   6.914 -0.1643  0.0154 -2.1064
   32SAPC   C33 4320   0.618   1.619   6.741  0.2152 -0.1729 -0.1706
   32SAPC   H3X 4321   0.709   1.680   6.756 -1.3441  2.4477 -0.7006
   32SAPC   H3Y 4322   0.601   1.533   6.809 -2.2145  1.2296  1.1529
   32SAPC   C34 4323   0.509   1.725   6.762 -1.4149  0.2067  0.2396
   32SAPC   H4X 4324   0.403   1.692   6.761 -1.3949  0.1216  0.6153
   32SAPC   H4Y 4325   0.529   1.800   6.682  1.5702 -0.7705 -0.0508
   32SAPC   C35 4326   0.534   1.802   6.888  0.8406  0.4834 -0.1418
   32SAPC   H5X 4327   0.639   1.838   6.898  1.1507 -0.1473 -0.9702
   32SAPC   H5Y 4328   0.525   1.744   6.982 -0.5251  0.7161 -0.1119
   32SAPC   C36 4329   0.436   1.921   6.904 -0.0689 -1.2297 -0.2714
   32SAPC   H6X 4330   0.402   1.947   6.801  1.6954  2.8694 -0.0092
   32SAPC   H6Y 4331   0.498   2.003   6.945 -0.4276 -0.4368 -1.2715
   32SAPC   C37 4332   0.313   1.894   6.994  0.7183  0.7873  0.2517
   32SAPC   H7X 4333   0.280   1.789   6.981 -1.2663  0.9348  3.2133
   32SAPC   H7Y 4334   0.225   1.957   6.972  0.8158  0.5698 -0.8087
   32SAPC   C38 4335   0.351   1.910   7.143  0.0684 -0.4601 -0.0067
   32SAPC   H8X 4336   0.369   2.016   7.171 -1.0943 -0.6599  1.6074
   32SAPC   H8Y 4337   0.449   1.861   7.160  0.1259  0.0619  1.2629
   32SAPC   C39 4338   0.241   1.865   7.239  1.2249  0.1930 -0.1657
   32SAPC   H9X 4339   0.222   1.759   7.211  3.2154 -0.8084  2.0079
   32SAPC   H9Y 4340   0.159   1.938   7.225  1.6056  0.2345 -2.6450
   32SAPC  C310 4341   0.279   1.856   7.383  0.1370  0.2772  0.0595
   32SAPC  H10X 4342   0.351   1.775   7.410  0.7325  0.2350 -1.5638
   32SAPC  H10Y 4343   0.191   1.834   7.447 -0.2510 -0.3620 -0.6804
   32SAPC  C311 4344   0.330   1.991   7.441 -0.2655 -0.0499  0.1242
   32SAPC  H11X 4345   0.253   2.063   7.408  0.3864  0.6615  0.1428
   32SAPC  H11Y 4346   0.434   2.019   7.415 -1.0791  1.2168 -1.9798
   32SAPC  C312 4347   0.312   1.993   7.589 -0.1808  0.5659 -0.6587
   32SAPC  H12X 4348   0.372   1.914   7.639 -0.4448  0.1151 -1.0507
   32SAPC  H12Y 4349   0.205   1.983   7.615  0.3582 -2.1800  0.8970
   32SAPC  C313 4350   0.345   2.130   7.649 -0.0811 -0.0118  0.1915
   32SAPC  H13X 4351   0.309   2.218   7.592  0.3149 -0.6951 -1.1438
   32SAPC  H13Y 4352   0.456   2.139   7.647 -0.1573  1.8992  1.6467
   32SAPC  C314 4353   0.294   2.152   7.801  0.1809 -0.4052 -0.9389
   32SAPC  H14X 4354   0.192   2.109   7.795  0.9413 -2.8236  1.6493
   32SAPC  H14Y 4355   0.288   2.261   7.823 -0.2480 -0.5726 -0.1954
   32SAPC  C315 4356   0.382   2.078   7.909  0.3292 -0.3653  0.1088
   32SAPC  H15X 4357   0.484   2.123   7.909  0.2906 -0.2657 -0.4206
   32SAPC  H15Y 4358   0.403   1.970   7.892 -3.9798 -1.1917 -1.1428
   32SAPC  C316 4359   0.315   2.083   8.048 -0.4092  0.2577 -0.4809
   32SAPC  H16X 4360   0.235   2.006   8.056  0.2100 -0.2662  1.1060
   32SAPC  H16Y 4361   0.266   2.180   8.071  1.4038  0.7474  1.6219
   32SAPC  C317 4362   0.418   2.038   8.157  0.1709  1.0897  0.7651
   32SAPC  H17X 4363   0.424   2.130   8.219 -1.5216  2.0696 -0.4474
   32SAPC  H17Y 4364   0.517   2.020   8.111 -0.8876 -0.7634 -0.9514
   32SAPC  C318 4365   0.373   1.916   8.237  0.1720 -0.8348  0.4493
   32SAPC  H18X 4366   0.434   1.912   8.330  0.0509 -0.7686  0.5311
   32SAPC  H18Y 4367   0.389   1.823   8.179  1.7856  0.2228 -0.8826
   32SAPC  H18Z 4368   0.266   1.932   8.263  0.1238  3.2777 -1.5578
   33POPC     N 4369   3.173   3.270  10.677 -0.2946 -0.6963  0.4547
   33POPC   C12 4370   3.262   3.159  10.635 -0.2143 -0.1997 -0.3774
   33POPC  H12A 4371   3.218   3.103  10.554 -0.9810  1.0073 -0.8273
   33POPC  H12B 4372   3.275   3.088  10.715  0.3385 -0.7724 -0.9603
   33POPC   C13 4373   3.105   3.339  10.566  0.2100  0.4653  0.0882
   33POPC  H13A 4374   3.045   3.279  10.499 -1.1201  1.6872  0.1305
   33POPC  H13B 4375   3.036   3.412  10.605 -0.2166 -0.3290  0.8320
   33POPC  H13C 4376   3.180   3.390  10.506 -1.7427  0.5854 -2.4399
   33POPC   C14 4377   3.059   3.218  10.758 -0.7624  0.0747 -0.5004
   33POPC  H14A 4378   3.006   3.151  10.693 -1.0360 -0.7045  0.5068
   33POPC  H14B 4379   3.097   3.170  10.847 -0.2803  0.0154 -0.7321
   33POPC  H14C 4380   2.997   3.297  10.798  0.2464  0.5117  0.2820
   33POPC   C15 4381   3.246   3.370  10.760  0.8809 -0.3039  0.5260
   33POPC  H15A 4382   3.305   3.328  10.840  1.1427 -0.4329  0.2679
   33POPC  H15B 4383   3.174   3.429  10.814 -1.1437 -1.9063 -0.2775
   33POPC  H15C 4384   3.315   3.428  10.700  1.2333  1.5023  2.5613
   33POPC   C11 4385   3.406   3.190  10.602 -0.0628 -0.5932  0.1161
   33POPC  H11A 4386   3.411   3.289  10.553  1.1183 -0.1141  1.1271
   33POPC  H11B 4387   3.442   3.125  10.519 -1.4602  0.6933 -1.5620
   33POPC     P 4388   3.611   3.280  10.724 -0.1007  0.0447 -0.7095
   33POPC   O13 4389   3.710   3.239  10.825  0.1966  0.0934 -0.0358
   33POPC   O14 4390   3.559   3.418  10.740 -0.6251 -0.6334  0.0720
   33POPC   O12 4391   3.486   3.184  10.723 -0.0871  0.0886 -0.2026
   33POPC   O11 4392   3.676   3.268  10.587  0.3293 -0.2854  0.1225
   33POPC    C1 4393   3.784   3.348  10.538 -0.3701 -0.4736  0.0200
   33POPC    HA 4394   3.785   3.446  10.591 -0.8994 -0.1528 -0.5583
   33POPC    HB 4395   3.883   3.306  10.565 -0.6367 -1.0213  0.1759
   33POPC    C2 4396   3.775   3.358  10.385 -0.2466 -0.1022  0.1459
   33POPC    HS 4397   3.870   3.409  10.357 -0.5479  0.7797  0.6911
   33POPC   O21 4398   3.655   3.418  10.335  0.0588  0.4202 -0.4113
   33POPC   C21 4399   3.660   3.543  10.337 -0.4220 -0.5469 -0.2018
   33POPC   O22 4400   3.751   3.613  10.383 -0.0083 -0.1477 -0.6051
   33POPC   C22 4401   3.531   3.599  10.270  0.0832 -0.3211 -0.3974
   33POPC   H2R 4402   3.486   3.660  10.350  0.2947  0.1032 -0.6008
   33POPC   H2S 4403   3.461   3.518  10.241 -0.8840  0.7715 -1.2118
   33POPC    C3 4404   3.789   3.221  10.315  0.3839 -0.5825  0.3491
   33POPC    HX 4405   3.692   3.167  10.323  0.6821 -1.0713  0.6648
   33POPC    HY 4406   3.859   3.158  10.374  0.5052 -0.5825  0.2045
   33POPC   O31 4407   3.828   3.241  10.176 -0.5169  0.4424 -0.0983
   33POPC   C31 4408   3.964   3.247  10.162  0.3315 -0.0387  0.7327
   33POPC   O32 4409   4.048   3.232  10.244  0.4062  0.0244 -0.9002
   33POPC   C32 4410   3.994   3.238  10.011 -0.8701 -0.3839  0.4485
   33POPC   H2X 4411   4.005   3.132   9.980 -2.3068 -0.3511 -0.2365
   33POPC   H2Y 4412   4.095   3.284  10.010 -0.4661 -1.2518  0.2748
   33POPC   C23 4413   3.579   3.671  10.146 -0.0745 -0.7064  0.4697
   33POPC   H3R 4414   3.672   3.728  10.165  0.8046 -1.6469 -0.8239
   33POPC   H3S 4415   3.502   3.748  10.122  1.0374  0.7163  1.3284
   33POPC   C24 4416   3.599   3.571  10.031 -0.7864  0.2785 -0.9990
   33POPC   H4R 4417   3.537   3.479  10.043  0.8831 -0.5537  2.4011
   33POPC   H4S 4418   3.707   3.546  10.031 -0.6293  0.9352 -1.6452
   33POPC   C25 4419   3.558   3.642   9.906 -0.1130 -0.6514  0.3793
   33POPC   H5R 4420   3.623   3.728   9.880 -0.9262 -0.0172  0.4325
   33POPC   H5S 4421   3.454   3.679   9.913 -0.5648 -2.1754  3.1551
   33POPC   C26 4422   3.567   3.549   9.784 -0.4241 -0.4672  0.5693
   33POPC   H6R 4423   3.505   3.457   9.796 -0.9139 -0.4142 -1.1885
   33POPC   H6S 4424   3.673   3.520   9.773 -0.0491  0.7231  0.8983
   33POPC   C27 4425   3.528   3.613   9.649 -0.3022 -0.2935 -0.5554
   33POPC   H7R 4426   3.597   3.690   9.607 -1.4551  1.0986  0.0259
   33POPC   H7S 4427   3.438   3.676   9.666  0.9315  1.4946 -0.3370
   33POPC   C28 4428   3.496   3.500   9.538  0.3661  0.4373  0.2421
   33POPC   H8R 4429   3.429   3.431   9.591 -0.0050  0.2064 -0.5118
   33POPC   H8S 4430   3.587   3.441   9.512  0.9505  2.0037 -1.5992
   33POPC   C29 4431   3.431   3.562   9.415  0.1297  0.6547 -0.2022
   33POPC   H91 4432   3.331   3.609   9.427  0.2684  0.6917  0.8690
   33POPC  C210 4433   3.482   3.556   9.293  0.4716 -1.1900 -0.9089
   33POPC  H101 4434   3.419   3.593   9.211 -1.7456  1.9116  1.9216
   33POPC  C211 4435   3.610   3.484   9.269 -0.1633 -0.3003  0.5254
   33POPC  H11R 4436   3.614   3.380   9.307 -0.0654 -0.8802 -0.9673
   33POPC  H11S 4437   3.693   3.538   9.319  0.4999 -2.1741  1.5390
   33POPC  C212 4438   3.640   3.476   9.116  0.2096  0.0800 -0.8873
   33POPC  H12R 4439   3.551   3.442   9.060  0.4887 -2.6281  0.1308
   33POPC  H12S 4440   3.716   3.396   9.098 -2.1304 -2.0361 -1.8652
   33POPC  C213 4441   3.689   3.612   9.057  0.5390 -0.3323  0.4404
   33POPC  H13R 4442   3.778   3.634   9.119  0.9148  0.7578 -0.4529
   33POPC  H13S 4443   3.609   3.687   9.079  0.1045 -1.0503  1.4268
   33POPC  C214 4444   3.718   3.612   8.904  0.0681  0.0390 -0.7377
   33POPC  H14R 4445   3.825   3.584   8.890  0.3675 -0.2387  1.6605
   33POPC  H14S 4446   3.714   3.720   8.879  1.0909  0.3773  0.4418
   33POPC  C215 4447   3.617   3.540   8.822  0.3758 -0.4238 -0.0554
   33POPC  H15R 4448   3.512   3.569   8.843 -0.2901 -1.0512 -2.2202
   33POPC  H15S 4449   3.620   3.433   8.851  0.0726  0.2297  2.6456
   33POPC  C216 4450   3.644   3.561   8.667  0.5472 -0.1131  0.1191
   33POPC  H16R 4451   3.754   3.552   8.656  0.4906 -0.1187 -0.4923
   33POPC  H16S 4452   3.625   3.664   8.628  2.8024  0.3275  0.0894
   33POPC  C217 4453   3.559   3.457   8.589 -0.1686 -0.4708 -0.5062
   33POPC  H17R 4454   3.456   3.460   8.632 -0.5576  1.0339 -1.4460
   33POPC  H17S 4455   3.590   3.351   8.602 -1.1579 -0.4913  2.2345
   33POPC  C218 4456   3.542   3.504   8.446  1.0986  0.0926  0.3098
   33POPC  H18R 4457   3.477   3.435   8.389  0.4498  0.7291  0.2759
   33POPC  H18S 4458   3.644   3.515   8.401  0.5064  0.3118 -1.0239
   33POPC  H18T 4459   3.491   3.601   8.431  0.5832 -0.1521  0.4734
   33POPC   C33 4460   3.895   3.305   9.912 -0.1130 -0.2268 -0.1836
   33POPC   H3X 4461   3.888   3.416   9.913 -0.2011 -0.2203 -0.7293
   33POPC   H3Y 4462   3.793   3.263   9.924  0.6869 -2.1600  0.2840
   33POPC   C34 4463   3.944   3.268   9.770 -0.0087 -0.2693 -0.1692
   33POPC   H4X 4464   3.950   3.158   9.757 -1.2381 -0.3916  0.2049
   33POPC   H4Y 4465   4.042   3.320   9.766  0.5563 -0.8604  3.2937
   33POPC   C35 4466   3.875   3.330   9.653 -0.2881  0.5361  0.5102
   33POPC   H5X 4467   3.883   3.440   9.640  0.1842  0.3845 -0.5753
   33POPC   H5Y 4468   3.769   3.302   9.669 -0.1493 -1.7084 -1.8396
   33POPC   C36 4469   3.907   3.264   9.514  0.0583  0.1622 -0.2456
   33POPC   H6X 4470   3.836   3.310   9.442 -0.0092 -0.3024 -0.4821
   33POPC   H6Y 4471   3.889   3.155   9.528 -0.3268  0.2003 -0.4242
   33POPC   C37 4472   4.050   3.285   9.467 -0.0338  0.2913  0.5029
   33POPC   H7X 4473   4.112   3.254   9.554  2.1058  2.6083 -0.1059
   33POPC   H7Y 4474   4.073   3.393   9.454 -1.4340  0.9838  2.9870
   33POPC   C38 4475   4.080   3.208   9.344  0.0165 -0.2437  0.1689
   33POPC   H8X 4476   4.019   3.115   9.349 -0.5822  0.1752  1.0027
   33POPC   H8Y 4477   4.190   3.198   9.336  0.1580  1.1881 -0.0061
   33POPC   C39 4478   4.028   3.277   9.219  0.0208 -0.3422  0.6694
   33POPC   H9X 4479   4.083   3.373   9.216  1.4113 -1.1465 -0.4279
   33POPC   H9Y 4480   3.924   3.309   9.241  0.2015 -1.4258  3.6712
   33POPC  C310 4481   4.046   3.186   9.093  0.4976 -0.1757 -0.8250
   33POPC  H10X 4482   3.989   3.092   9.108  0.2541  0.3393  2.0700
   33POPC  H10Y 4483   4.153   3.156   9.089  0.4668 -0.2103 -1.6651
   33POPC  C311 4484   3.987   3.256   8.969 -0.3147  0.2909  0.1044
   33POPC  H11X 4485   4.069   3.328   8.946  0.3525 -0.1852  0.9214
   33POPC  H11Y 4486   3.896   3.317   8.989 -0.9582 -0.3687 -0.7382
   33POPC  C312 4487   3.981   3.156   8.854 -0.3583 -0.4678 -0.1992
   33POPC  H12X 4488   3.919   3.073   8.895  1.5528 -1.4974  0.7512
   33POPC  H12Y 4489   4.073   3.103   8.821 -0.7130 -0.8567 -0.5786
   33POPC  C313 4490   3.923   3.213   8.724 -0.1213 -0.4503 -0.3194
   33POPC  H13X 4491   4.004   3.281   8.689 -0.7936  1.4797  1.6329
   33POPC  H13Y 4492   3.841   3.285   8.747  0.3706  0.1638 -0.4386
   33POPC  C314 4493   3.884   3.115   8.608  0.7786 -0.4092 -0.9584
   33POPC  H14X 4494   3.780   3.090   8.638  0.7665  1.3203  0.6145
   33POPC  H14Y 4495   3.939   3.019   8.608  1.6853  0.0947 -1.6658
   33POPC  C315 4496   3.881   3.178   8.470 -0.0222 -0.1014  0.0249
   33POPC  H15X 4497   3.860   3.287   8.475 -1.0150 -0.0603 -2.7657
   33POPC  H15Y 4498   3.798   3.132   8.412 -2.2117 -0.4123  3.1957
   33POPC  C316 4499   4.013   3.183   8.400 -0.8384  0.5354  0.0297
   33POPC  H16X 4500   3.999   3.206   8.292 -5.1968 -3.2046 -0.5298
   33POPC  H16Y 4501   4.061   3.084   8.416 -0.5788  0.7559  0.6211
   33POPC  H16Z 4502   4.078   3.257   8.450 -0.4460  1.9684 -2.4226
   34POPC     N 4503   4.684   0.437  10.861 -0.9563  0.0352  0.6172
   34POPC   C12 4504   4.756   0.543  10.780 -0.3627 -0.2621 -0.0163
   34POPC  H12A 4505   4.858   0.510  10.770 -0.3969 -0.5231  0.4903
   34POPC  H12B 4506   4.758   0.637  10.833  0.3955  0.4511 -1.2639
   34POPC   C13 4507   4.725   0.304  10.812 -0.3664  0.4458  0.1878
   34POPC  H13A 4508   4.826   0.268  10.828 -1.4042 -2.2349  1.3374
   34POPC  H13B 4509   4.655   0.226  10.838 -0.5131  0.2433 -0.7942
   34POPC  H13C 4510   4.722   0.295  10.705 -0.3667  1.6104  0.0853
   34POPC   C14 4511   4.717   0.455  10.999 -0.6510 -0.2144  0.8674
   34POPC  H14A 4512   4.680   0.547  11.042  0.6493  0.7861 -0.0626
   34POPC  H14B 4513   4.693   0.365  11.053 -0.3146 -1.6824 -1.3056
   34POPC  H14C 4514   4.824   0.460  11.017 -0.7641 -0.0724  1.5495
   34POPC   C15 4515   4.532   0.448  10.847  0.2725 -0.0381  0.4191
   34POPC  H15A 4516   4.505   0.415  10.748 -2.1676  1.3092  0.5635
   34POPC  H15B 4517   4.497   0.548  10.866 -0.7556 -0.4712  0.8761
   34POPC  H15C 4518   4.489   0.384  10.923  0.3515  0.3087  0.7587
   34POPC   C11 4519   4.701   0.570  10.640  0.1745  0.6623 -0.5065
   34POPC  H11A 4520   4.710   0.480  10.575 -0.3979 -0.0251  0.3502
   34POPC  H11B 4521   4.776   0.641  10.600  0.3139  0.0773 -1.3165
   34POPC     P 4522   4.542   0.775  10.708 -0.0800  0.4724 -0.0348
   34POPC   O13 4523   4.668   0.846  10.734 -0.5919 -0.5069  0.2891
   34POPC   O14 4524   4.447   0.759  10.826  0.1692 -0.2501 -0.3426
   34POPC   O12 4525   4.566   0.628  10.643  0.6761 -0.4904  0.2870
   34POPC   O11 4526   4.464   0.859  10.592 -0.6911  0.2065  0.1504
   34POPC    C1 4527   4.547   0.889  10.477  0.2538 -0.4608  0.1188
   34POPC    HA 4528   4.656   0.896  10.500  0.8160 -0.6493 -2.1742
   34POPC    HB 4529   4.505   0.977  10.424 -3.5875 -0.9875  1.9838
   34POPC    C2 4530   4.525   0.783  10.366 -0.3655 -0.3257 -0.2880
   34POPC    HS 4531   4.600   0.703  10.384 -1.1285 -0.7943  0.8948
   34POPC   O21 4532   4.545   0.849  10.237  0.2459  0.0161  0.5951
   34POPC   C21 4533   4.582   0.756  10.141 -0.1762 -0.1920 -0.5168
   34POPC   O22 4534   4.615   0.643  10.168 -0.2561 -0.3018  0.5233
   34POPC   C22 4535   4.581   0.828  10.006 -0.2330 -0.1415  1.2650
   34POPC   H2R 4536   4.625   0.930  10.007  0.2664 -0.3259 -0.0171
   34POPC   H2S 4537   4.477   0.824   9.967 -0.3841 -0.5299  1.6949
   34POPC    C3 4538   4.372   0.738  10.366 -0.4756 -0.4988  0.5673
   34POPC    HX 4539   4.308   0.825  10.344  1.0298  0.8484  1.2910
   34POPC    HY 4540   4.351   0.696  10.467 -1.3575  1.2682  1.1406
   34POPC   O31 4541   4.346   0.632  10.274  0.5616  0.6228 -0.0193
   34POPC   C31 4542   4.218   0.588  10.269  0.5435  0.2533 -0.2886
   34POPC   O32 4543   4.126   0.627  10.339 -0.4564  0.5742  0.2155
   34POPC   C32 4544   4.211   0.466  10.177 -0.4648  0.2187  0.3811
   34POPC   H2X 4545   4.163   0.385  10.236 -0.7103  1.2099  1.5729
   34POPC   H2Y 4546   4.313   0.426  10.158 -0.2456  1.1494 -0.4988
   34POPC   C23 4547   4.676   0.745   9.906  0.1094 -0.3092  0.0038
   34POPC   H3R 4548   4.672   0.637   9.928 -1.0594 -0.4822 -0.9607
   34POPC   H3S 4549   4.782   0.774   9.927 -0.3281  1.9685 -0.6011
   34POPC   C24 4550   4.654   0.779   9.763 -0.3494 -0.3252  0.1180
   34POPC   H4R 4551   4.556   0.747   9.722 -1.4130  2.3188  0.4014
   34POPC   H4S 4552   4.730   0.718   9.709 -1.0680 -1.7606  0.6782
   34POPC   C25 4553   4.674   0.927   9.732  0.0853 -0.5118 -0.0479
   34POPC   H5R 4554   4.776   0.961   9.761 -0.0611 -0.7387  0.7546
   34POPC   H5S 4555   4.605   0.991   9.791  0.2252 -0.9307  0.5780
   34POPC   C26 4556   4.656   0.960   9.583 -0.1859  0.5995  0.1048
   34POPC   H6R 4557   4.557   0.934   9.539 -0.4000  0.2806  0.7622
   34POPC   H6S 4558   4.724   0.892   9.527  2.2932  2.2252  0.9470
   34POPC   C27 4559   4.698   1.099   9.541 -0.8137  0.0845 -0.1207
   34POPC   H7R 4560   4.808   1.109   9.543 -0.8287  0.2547 -0.1590
   34POPC   H7S 4561   4.645   1.163   9.616 -1.2348 -0.6070  0.1903
   34POPC   C28 4562   4.657   1.156   9.399 -0.0080  0.5760  0.0740
   34POPC   H8R 4563   4.699   1.258   9.386  1.6194 -0.1837 -0.9355
   34POPC   H8S 4564   4.546   1.160   9.400 -0.0794 -0.8734 -0.1648
   34POPC   C29 4565   4.705   1.057   9.296  0.5862 -0.6590  1.1271
   34POPC   H91 4566   4.751   0.966   9.337 -1.7985 -1.5099  2.1227
   34POPC  C210 4567   4.708   1.077   9.166 -1.4825 -0.8046  0.4194
   34POPC  H101 4568   4.746   0.987   9.115  0.6493 -0.2865  1.0115
   34POPC  C211 4569   4.669   1.198   9.093  0.2884 -0.2167 -1.4987
   34POPC  H11R 4570   4.737   1.215   9.007  0.5904  0.3224 -1.1615
   34POPC  H11S 4571   4.685   1.284   9.161  2.9331 -1.1460 -0.8036
   34POPC  C212 4572   4.523   1.195   9.045 -0.0468 -0.3533  0.1742
   34POPC  H12R 4573   4.450   1.217   9.126 -1.3382 -1.4614 -0.6409
   34POPC  H12S 4574   4.495   1.092   9.014  0.6018  0.3662 -3.1179
   34POPC  C213 4575   4.501   1.285   8.926 -0.8864  0.7865 -0.0927
   34POPC  H13R 4576   4.558   1.380   8.919 -2.5435  1.9405  1.0587
   34POPC  H13S 4577   4.395   1.318   8.924 -1.1375  0.1364  1.2568
   34POPC  C214 4578   4.499   1.205   8.792 -0.4652  0.0669  0.4563
   34POPC  H14R 4579   4.452   1.106   8.812  0.5297 -0.2111  1.4987
   34POPC  H14S 4580   4.604   1.181   8.765 -0.3393  1.6827 -0.6063
   34POPC  C215 4581   4.447   1.284   8.673 -0.5244 -0.3460 -0.0825
   34POPC  H15R 4582   4.493   1.250   8.578  0.1901  1.7701 -0.5603
   34POPC  H15S 4583   4.491   1.386   8.680  2.1125 -1.4850  1.0087
   34POPC  C216 4584   4.300   1.288   8.666  0.3108 -0.1790 -0.1581
   34POPC  H16R 4585   4.254   1.245   8.757  0.3150 -2.5439 -1.2190
   34POPC  H16S 4586   4.266   1.234   8.576 -0.9984  0.2822  0.0251
   34POPC  C217 4587   4.225   1.423   8.643  0.0290  0.5233 -0.3531
   34POPC  H17R 4588   4.286   1.493   8.583  0.4960 -1.1627 -1.9389
   34POPC  H17S 4589   4.210   1.464   8.746 -0.7791  1.7755 -0.9483
   34POPC  C218 4590   4.088   1.395   8.581 -0.0673 -0.5563 -0.2480
   34POPC  H18R 4591   4.018   1.475   8.614  1.2847 -0.1916  1.9404
   34POPC  H18S 4592   4.036   1.304   8.619  0.0337 -0.2002  0.7617
   34POPC  H18T 4593   4.093   1.392   8.470  0.2231 -1.0010 -0.2226
   34POPC   C33 4594   4.140   0.492  10.046  0.4900 -0.4085  0.3544
   34POPC   H3X 4595   4.042   0.539  10.069  0.0881 -0.3936 -1.2795
   34POPC   H3Y 4596   4.124   0.395   9.995  0.3969  0.0786 -0.5660
   34POPC   C34 4597   4.212   0.599   9.949  0.1473  0.0509 -0.1634
   34POPC   H4X 4598   4.323   0.594   9.953  0.2596  1.5133 -1.0222
   34POPC   H4Y 4599   4.189   0.703   9.978  0.9686  0.6275 -1.5195
   34POPC   C35 4600   4.169   0.583   9.809 -0.6004  0.6268  0.4620
   34POPC   H5X 4601   4.194   0.484   9.765  0.5943  0.8027  0.7146
   34POPC   H5Y 4602   4.225   0.656   9.747  0.2803  1.3426  2.0274
   34POPC   C36 4603   4.018   0.589   9.787 -0.3567  0.7048 -0.5774
   34POPC   H6X 4604   3.987   0.689   9.825  0.8139  0.4453  1.1865
   34POPC   H6Y 4605   3.973   0.518   9.861 -0.8304  1.1892 -0.3931
   34POPC   C37 4606   3.978   0.546   9.656  0.3639 -0.2203  0.0243
   34POPC   H7X 4607   3.867   0.542   9.660  0.2706  1.7776  0.7864
   34POPC   H7Y 4608   4.032   0.454   9.627  0.3690 -0.9569  2.1788
   34POPC   C38 4609   4.004   0.651   9.547 -0.2485 -0.5627  0.4959
   34POPC   H8X 4610   4.113   0.659   9.525 -0.0876 -1.6864  0.8335
   34POPC   H8Y 4611   3.968   0.753   9.573  0.3758 -0.0134 -0.6851
   34POPC   C39 4612   3.942   0.609   9.413 -0.0760  0.4803 -0.3469
   34POPC   H9X 4613   3.846   0.557   9.431 -0.0892  0.0274 -1.6567
   34POPC   H9Y 4614   4.009   0.537   9.360  1.5651 -0.2118  2.4445
   34POPC  C310 4615   3.897   0.730   9.328 -0.0978 -0.6645  0.0414
   34POPC  H10X 4616   3.975   0.809   9.323 -0.0254 -0.6654  0.9704
   34POPC  H10Y 4617   3.805   0.773   9.374  1.6225  2.5634  0.8085
   34POPC  C311 4618   3.859   0.689   9.183  0.1470 -0.0525 -0.2449
   34POPC  H11X 4619   3.810   0.590   9.190  1.3872 -0.6753 -0.0893
   34POPC  H11Y 4620   3.953   0.672   9.127 -1.5041 -3.1164 -2.3456
   34POPC  C312 4621   3.779   0.801   9.118  0.7621 -0.4110 -0.7527
   34POPC  H12X 4622   3.843   0.891   9.124  1.8389 -1.1227 -1.2310
   34POPC  H12Y 4623   3.692   0.811   9.188  0.1700 -2.2955 -1.1497
   34POPC  C313 4624   3.749   0.766   8.976 -0.1995  0.4740  0.0989
   34POPC  H13X 4625   3.694   0.670   8.971 -0.7891  0.5704  2.7917
   34POPC  H13Y 4626   3.850   0.746   8.935 -0.1278  1.9264 -0.4664
   34POPC  C314 4627   3.679   0.873   8.900  0.2125  0.3683  0.0862
   34POPC  H14X 4628   3.683   0.970   8.953 -1.1968  2.4367 -3.2914
   34POPC  H14Y 4629   3.574   0.841   8.885 -0.0888 -0.4885  3.3098
   34POPC  C315 4630   3.735   0.911   8.758  0.6106 -0.0685 -0.3177
   34POPC  H15X 4631   3.653   0.955   8.696 -0.0325 -1.7335 -0.7087
   34POPC  H15Y 4632   3.769   0.813   8.718  1.6818  0.2582 -0.2265
   34POPC  C316 4633   3.867   0.991   8.747 -0.0950  0.1994  0.5507
   34POPC  H16X 4634   3.863   1.098   8.777  1.2438  0.5433 -0.4156
   34POPC  H16Y 4635   3.894   0.981   8.639 -1.5221  0.7315  0.1161
   34POPC  H16Z 4636   3.951   0.944   8.801 -1.6161 -2.2270  0.9195
   35POPC     N 4637   4.655   5.868  11.005  0.1772 -0.5470 -0.2986
   35POPC   C12 4638   4.765   5.880  10.904 -0.1346 -0.2080 -0.4491
   35POPC  H12A 4639   4.797   5.782  10.873 -0.4842 -0.3724 -0.3021
   35POPC  H12B 4640   4.843   5.940  10.948 -1.0958 -0.4616  1.7147
   35POPC   C13 4641   4.695   5.763  11.110  0.1861 -0.6253 -0.1854
   35POPC  H13A 4642   4.762   5.807  11.183 -0.6447  1.0158 -0.3710
   35POPC  H13B 4643   4.604   5.746  11.166 -0.4545  0.3897 -0.8836
   35POPC  H13C 4644   4.735   5.673  11.066  3.0937 -0.2013  1.3691
   35POPC   C14 4645   4.619   5.997  11.076  0.0218 -0.2349  0.2754
   35POPC  H14A 4646   4.688   6.008  11.158  0.4010 -0.7269  0.0315
   35POPC  H14B 4647   4.634   6.074  11.001  1.5587  0.0724  0.8656
   35POPC  H14C 4648   4.516   5.996  11.109 -0.4176  0.6967 -0.9904
   35POPC   C15 4649   4.537   5.809  10.935 -0.3950  0.1182 -0.7893
   35POPC  H15A 4650   4.459   5.793  11.008 -0.5527  1.6141 -0.5993
   35POPC  H15B 4651   4.560   5.720  10.880 -0.7227 -1.5724  1.6372
   35POPC  H15C 4652   4.499   5.887  10.870  1.6588  0.8316 -1.2145
   35POPC   C11 4653   4.728   5.967  10.784  0.2999 -0.9265 -0.1511
   35POPC  H11A 4654   4.647   5.917  10.727  1.9352 -3.3997 -0.4658
   35POPC  H11B 4655   4.803   5.967  10.702  1.7609  0.1163  1.1338
   35POPC     P 4656   4.815   6.207  10.812  0.0114  0.4230  0.3042
   35POPC   O13 4657   4.910   6.193  10.927  0.2380  0.0361 -0.4542
   35POPC   O14 4658   4.747   6.334  10.800  0.3998  0.2101  0.0010
   35POPC   O12 4659   4.699   6.105  10.816 -0.4760  0.3519  0.3653
   35POPC   O11 4660   4.888   6.171  10.670  0.1342 -0.1173 -0.4365
   35POPC    C1 4661   4.897   6.286  10.581 -0.1322 -0.2027  0.9490
   35POPC    HA 4662   4.917   6.386  10.624  0.5800  0.1170 -0.1054
   35POPC    HB 4663   4.803   6.315  10.528  1.1158  1.8527 -0.2501
   35POPC    C2 4664   5.013   6.269  10.483 -0.1889 -0.4234 -0.6935
   35POPC    HS 4665   5.045   6.365  10.436  1.3422 -0.6971 -0.2435
   35POPC   O21 4666   4.996   6.172  10.388  0.5534 -0.2871 -0.3112
   35POPC   C21 4667   4.895   6.203  10.301  0.4404  0.3280  0.7380
   35POPC   O22 4668   4.842   6.310  10.300  0.1924  0.3068  0.6605
   35POPC   C22 4669   4.858   6.081  10.223 -0.2734 -0.0019  0.1511
   35POPC   H2R 4670   4.777   6.033  10.282  0.2518  0.0408  0.9191
   35POPC   H2S 4671   4.944   6.011  10.224  1.0451  1.5633 -0.1293
   35POPC    C3 4672   5.134   6.225  10.571 -0.5225  0.4319  0.1980
   35POPC    HX 4673   5.105   6.125  10.610 -1.8746  0.9476  0.5452
   35POPC    HY 4674   5.142   6.292  10.659  2.1611  1.4550 -0.7094
   35POPC   O31 4675   5.249   6.219  10.486  0.0455  0.2242 -0.4556
   35POPC   C31 4676   5.320   6.333  10.481  0.3846  0.6172 -0.0525
   35POPC   O32 4677   5.297   6.433  10.547  0.2162 -0.1858  0.4781
   35POPC   C32 4678   5.433   6.320  10.377 -0.1637  0.4237 -0.7633
   35POPC   H2X 4679   5.531   6.313  10.427 -0.1673  0.8757 -0.6900
   35POPC   H2Y 4680   5.429   6.424  10.338  2.2058  0.2089 -1.6984
   35POPC   C23 4681   4.827   6.115  10.074 -0.0618  0.4629  0.0347
   35POPC   H3R 4682   4.923   6.142  10.024  1.3232 -1.8371  1.2715
   35POPC   H3S 4683   4.752   6.197  10.069 -0.8925 -0.3139 -0.4922
   35POPC   C24 4684   4.760   5.984  10.011 -0.1981 -0.3628 -0.0186
   35POPC   H4R 4685   4.660   5.969  10.058  0.2797 -0.0820  1.1296
   35POPC   H4S 4686   4.813   5.892  10.044 -2.6509 -1.4972  1.0750
   35POPC   C25 4687   4.733   5.998   9.860 -0.5668 -0.7366  0.3663
   35POPC   H5R 4688   4.646   6.067   9.851  0.9711  1.3094  0.3376
   35POPC   H5S 4689   4.697   5.896   9.836 -0.8159 -0.8494  1.1716
   35POPC   C26 4690   4.847   6.049   9.776 -0.3723 -0.1069  0.3962
   35POPC   H6R 4691   4.942   5.994   9.792 -0.8217 -1.1367 -0.3854
   35POPC   H6S 4692   4.853   6.155   9.809 -3.7868  0.3894 -0.2078
   35POPC   C27 4693   4.811   6.055   9.629 -1.5232  0.4228 -0.1432
   35POPC   H7R 4694   4.720   6.119   9.627 -2.1528 -0.4734 -1.3877
   35POPC   H7S 4695   4.781   5.953   9.598 -1.8211  0.5755 -0.3687
   35POPC   C28 4696   4.921   6.106   9.547 -0.2628 -0.2547  0.2104
   35POPC   H8R 4697   5.015   6.047   9.560  0.9155  0.7558 -2.8498
   35POPC   H8S 4698   4.946   6.212   9.565 -3.7713  1.1207 -1.9920
   35POPC   C29 4699   4.891   6.081   9.401 -0.4081  0.4600 -0.0021
   35POPC   H91 4700   4.804   6.018   9.376  2.1007 -2.9070 -1.0250
   35POPC  C210 4701   4.985   6.117   9.309  0.1642  0.3365 -0.1935
   35POPC  H101 4702   4.967   6.081   9.207 -2.1641 -2.6042  1.0972
   35POPC  C211 4703   5.118   6.177   9.337  0.2251  0.2718 -0.5281
   35POPC  H11R 4704   5.199   6.111   9.298  2.7463  2.0366  1.3707
   35POPC  H11S 4705   5.125   6.184   9.448 -1.3748  1.8152 -0.4911
   35POPC  C212 4706   5.148   6.321   9.285 -0.7221  0.0027  0.4226
   35POPC  H12R 4707   5.253   6.349   9.309  0.4353 -1.4766 -2.3938
   35POPC  H12S 4708   5.081   6.386   9.345 -1.6816 -1.2368  0.7252
   35POPC  C213 4709   5.137   6.346   9.137  0.0335  0.0732  0.3629
   35POPC  H13R 4710   5.166   6.452   9.121 -0.3635  0.4051  1.6923
   35POPC  H13S 4711   5.029   6.335   9.112  0.3102 -0.5915 -0.5993
   35POPC  C214 4712   5.224   6.254   9.056 -0.3024 -0.4495 -0.4475
   35POPC  H14R 4713   5.163   6.160   9.060 -0.9913 -0.1111 -2.1810
   35POPC  H14S 4714   5.326   6.242   9.098 -0.8301 -2.9460  0.3390
   35POPC  C215 4715   5.238   6.300   8.914  0.1169  0.1289  0.3479
   35POPC  H15R 4716   5.336   6.354   8.912  0.8057 -0.9824  2.0128
   35POPC  H15S 4717   5.156   6.363   8.874  1.2211  2.8226  1.9858
   35POPC  C216 4718   5.243   6.177   8.821 -0.1439 -0.4565  0.2894
   35POPC  H16R 4719   5.140   6.156   8.785 -0.2385 -2.5259  1.6095
   35POPC  H16S 4720   5.279   6.093   8.884  0.9928 -0.9269 -0.9248
   35POPC  C217 4721   5.328   6.198   8.700  0.3275 -0.5015 -0.1625
   35POPC  H17R 4722   5.320   6.113   8.629  2.2030 -1.6607  0.9209
   35POPC  H17S 4723   5.433   6.188   8.736 -0.9729 -1.4139  3.9731
   35POPC  C218 4724   5.309   6.331   8.632 -0.8189  0.3971  0.4117
   35POPC  H18R 4725   5.198   6.341   8.634 -0.9690 -0.2503 -1.7876
   35POPC  H18S 4726   5.327   6.327   8.523 -0.5752  0.6800  0.4420
   35POPC  H18T 4727   5.354   6.414   8.689 -0.7673  2.1476 -2.0215
   35POPC   C33 4728   5.425   6.208  10.271  0.2453  0.3162  0.1535
   35POPC   H3X 4729   5.404   6.107  10.311  2.0321 -1.2421 -2.5222
   35POPC   H3Y 4730   5.525   6.194  10.224  0.4653  0.6731  0.5060
   35POPC   C34 4731   5.330   6.241  10.158  0.1988  0.3301  0.2965
   35POPC   H4X 4732   5.357   6.340  10.116 -0.5941 -0.3834 -2.1106
   35POPC   H4Y 4733   5.231   6.243  10.208  1.3090  0.5183  2.6078
   35POPC   C35 4734   5.335   6.129  10.055 -0.4766  0.5627 -0.2009
   35POPC   H5X 4735   5.281   6.036  10.082  1.5838 -0.2836  1.3006
   35POPC   H5Y 4736   5.441   6.097  10.050 -0.0283  0.7391  4.1767
   35POPC   C36 4737   5.305   6.181   9.912 -0.2333 -0.5518 -0.7129
   35POPC   H6X 4738   5.327   6.104   9.835 -0.0762  0.1342 -1.3702
   35POPC   H6Y 4739   5.366   6.272   9.894 -1.1993 -0.0606 -1.5603
   35POPC   C37 4740   5.157   6.220   9.885 -0.2718  0.0453 -0.8552
   35POPC   H7X 4741   5.132   6.279   9.976  2.5052  2.5349 -1.5598
   35POPC   H7Y 4742   5.098   6.127   9.868  1.2071 -1.1585  0.2199
   35POPC   C38 4743   5.137   6.311   9.763  0.2873 -0.6209  0.1338
   35POPC   H8X 4744   5.033   6.334   9.732  0.5815 -0.1394 -0.5182
   35POPC   H8Y 4745   5.201   6.282   9.677  1.5210  0.2071  0.7425
   35POPC   C39 4746   5.188   6.454   9.799  0.0451 -0.1567  0.0543
   35POPC   H9X 4747   5.293   6.464   9.831  0.2714  1.2040 -1.0283
   35POPC   H9Y 4748   5.123   6.501   9.876  0.8071  0.3541  0.3937
   35POPC  C310 4749   5.177   6.552   9.683 -0.6883 -0.6548  0.6352
   35POPC  H10X 4750   5.167   6.657   9.718 -0.9789 -0.4615 -0.0044
   35POPC  H10Y 4751   5.087   6.521   9.626 -1.3671  1.7471  0.2746
   35POPC  C311 4752   5.304   6.546   9.592  0.1149  0.4119 -0.6121
   35POPC  H11X 4753   5.332   6.445   9.557  0.4499  0.4708 -0.5136
   35POPC  H11Y 4754   5.392   6.589   9.644 -0.6569  1.0533  0.1990
   35POPC  C312 4755   5.278   6.623   9.456  0.6268  0.4684  0.3078
   35POPC  H12X 4756   5.225   6.720   9.471  0.2171  0.3257 -0.2260
   35POPC  H12Y 4757   5.212   6.555   9.399 -1.6242  0.4079  2.7991
   35POPC  C313 4758   5.407   6.635   9.373 -0.2610 -0.3721  0.1618
   35POPC  H13X 4759   5.481   6.556   9.398  0.8307  0.5156 -0.1993
   35POPC  H13Y 4760   5.461   6.726   9.406 -0.4985 -0.0586 -0.3012
   35POPC  C314 4761   5.373   6.637   9.223 -0.2436 -0.3422  0.3341
   35POPC  H14X 4762   5.269   6.674   9.210 -1.1358 -2.4134  1.0786
   35POPC  H14Y 4763   5.365   6.534   9.180 -0.5248 -1.4666  2.8788
   35POPC  C315 4764   5.458   6.702   9.118 -0.1464 -0.3423  0.4893
   35POPC  H15X 4765   5.549   6.641   9.103  0.8552  1.4653 -1.2964
   35POPC  H15Y 4766   5.493   6.799   9.159 -1.1201  0.5322 -0.6587
   35POPC  C316 4767   5.402   6.731   8.972 -0.5658  0.4398 -0.1790
   35POPC  H16X 4768   5.470   6.809   8.930 -1.0206  0.3510 -1.1011
   35POPC  H16Y 4769   5.297   6.768   8.976 -2.3150 -3.7773 -1.8852
   35POPC  H16Z 4770   5.408   6.645   8.903 -4.4611  0.2842 -0.5322
   36POPC     N 4771   2.464   5.932  11.259 -1.1388 -0.6818  0.6361
   36POPC   C12 4772   2.483   5.971  11.112 -0.7556  0.9321 -0.1301
   36POPC  H12A 4773   2.561   6.046  11.111  0.4714 -0.1824  2.3671
   36POPC  H12B 4774   2.393   6.015  11.073 -0.9857 -0.2963 -1.0567
   36POPC   C13 4775   2.347   5.842  11.276 -0.1065 -0.4746  0.2097
   36POPC  H13A 4776   2.360   5.748  11.225  1.8080  0.9681 -2.1474
   36POPC  H13B 4777   2.341   5.820  11.382  1.6318  2.2956  0.9744
   36POPC  H13C 4778   2.261   5.897  11.241  0.8197  1.4267  0.7875
   36POPC   C14 4779   2.582   5.861  11.306  0.3096  0.1294 -0.8163
   36POPC  H14A 4780   2.669   5.925  11.294  1.1108 -0.7074  0.2529
   36POPC  H14B 4781   2.564   5.845  11.411  0.3706  0.2552 -0.7864
   36POPC  H14C 4782   2.611   5.772  11.252  1.8654  0.9384 -1.3756
   36POPC   C15 4783   2.445   6.053  11.337  0.1609  0.0519 -0.3723
   36POPC  H15A 4784   2.533   6.115  11.343 -0.9761  1.6976  0.3555
   36POPC  H15B 4785   2.409   6.025  11.435 -1.3897 -0.0687 -0.9433
   36POPC  H15C 4786   2.365   6.112  11.294 -1.0939  0.5454  2.4487
   36POPC   C11 4787   2.521   5.867  11.006 -0.2690  0.3359 -0.6484
   36POPC  H11A 4788   2.504   5.919  10.909  1.3656  1.8211 -0.2068
   36POPC  H11B 4789   2.459   5.775  11.013 -1.2727  0.9401 -1.4193
   36POPC     P 4790   2.771   5.934  10.986 -0.2213 -0.0099 -0.4126
   36POPC   O13 4791   2.886   5.853  10.931  0.1475  1.1310 -0.1730
   36POPC   O14 4792   2.792   6.006  11.111  0.1500  0.5578 -0.0355
   36POPC   O12 4793   2.658   5.829  11.009  0.3997 -0.0069  0.3413
   36POPC   O11 4794   2.722   6.032  10.872  0.1772 -0.4352  0.5924
   36POPC    C1 4795   2.782   6.166  10.866  0.0724 -0.2890  0.6179
   36POPC    HA 4796   2.888   6.176  10.898  0.6387  0.3781 -1.3152
   36POPC    HB 4797   2.729   6.232  10.937  3.4577  1.0520  2.1150
   36POPC    C2 4798   2.778   6.218  10.718  0.4581 -0.9663 -0.0268
   36POPC    HS 4799   2.671   6.208  10.691  0.4360 -0.2280 -0.2201
   36POPC   O21 4800   2.866   6.138  10.632 -0.2498 -0.1199 -0.4601
   36POPC   C21 4801   2.839   6.134  10.507 -0.1861 -0.0330  0.0584
   36POPC   O22 4802   2.748   6.195  10.450  0.5882  0.1215  0.2473
   36POPC   C22 4803   2.929   6.034  10.436  0.4785 -0.1465  0.5197
   36POPC   H2R 4804   2.902   6.044  10.329  2.5785  1.3513  0.0634
   36POPC   H2S 4805   2.904   5.934  10.476  1.1222 -0.1897  0.8344
   36POPC    C3 4806   2.812   6.370  10.709  0.0655 -0.2980 -0.7288
   36POPC    HX 4807   2.920   6.381  10.731 -0.3978  1.3990  0.9816
   36POPC    HY 4808   2.762   6.427  10.791  1.1264  0.9315 -0.9172
   36POPC   O31 4809   2.772   6.430  10.586  0.2664  0.3042 -0.2550
   36POPC   C31 4810   2.640   6.448  10.567  1.0321 -0.9447  0.5624
   36POPC   O32 4811   2.552   6.416  10.641 -0.1174  0.2596  0.0092
   36POPC   C32 4812   2.633   6.531  10.440 -0.0367  0.1738 -1.0562
   36POPC   H2X 4813   2.671   6.465  10.359  0.1971 -1.2677  0.1728
   36POPC   H2Y 4814   2.701   6.618  10.451 -2.3055  2.1344 -1.7065
   36POPC   C23 4815   3.080   6.065  10.456 -0.2535 -0.1298 -0.3338
   36POPC   H3R 4816   3.099   6.055  10.565  1.1708  1.4766 -0.3829
   36POPC   H3S 4817   3.098   6.170  10.423  0.7525 -0.5238 -1.1149
   36POPC   C24 4818   3.178   5.987  10.369 -0.2042 -0.4352  0.5367
   36POPC   H4R 4819   3.270   6.050  10.374 -1.3005  1.5149 -1.8984
   36POPC   H4S 4820   3.141   5.989  10.265  2.8386 -1.4168 -0.6703
   36POPC   C25 4821   3.193   5.847  10.427 -0.3148  0.1239 -0.2859
   36POPC   H5R 4822   3.094   5.800  10.443 -0.2154  0.6889  2.5639
   36POPC   H5S 4823   3.234   5.855  10.530 -1.5658  0.4389  0.2135
   36POPC   C26 4824   3.274   5.743  10.351  0.8095 -0.1781  0.8865
   36POPC   H6R 4825   3.305   5.670  10.429  0.0570 -1.0273  0.4130
   36POPC   H6S 4826   3.365   5.792  10.309  0.1577  1.3872  1.2319
   36POPC   C27 4827   3.190   5.691  10.236 -0.3944  0.2237 -0.3944
   36POPC   H7R 4828   3.166   5.778  10.172 -0.7682 -0.4489 -1.1883
   36POPC   H7S 4829   3.099   5.651  10.286  0.1772  0.1096  0.5782
   36POPC   C28 4830   3.240   5.570  10.161  0.1010 -0.0336  0.4709
   36POPC   H8R 4831   3.161   5.531  10.093 -0.2123  1.0207  0.1987
   36POPC   H8S 4832   3.266   5.487  10.229  0.8505 -1.5392 -1.5682
   36POPC   C29 4833   3.364   5.597  10.082  0.5432 -0.6192 -0.5278
   36POPC   H91 4834   3.449   5.635  10.141 -0.3581  0.0362  0.3919
   36POPC  C210 4835   3.384   5.596   9.947  0.6038  0.3946 -1.3465
   36POPC  H101 4836   3.484   5.620   9.909  1.2843 -1.3962 -0.8247
   36POPC  C211 4837   3.288   5.566   9.832 -0.2167  0.7624 -0.0942
   36POPC  H11R 4838   3.276   5.663   9.778  1.3496  1.2189  0.3154
   36POPC  H11S 4839   3.190   5.536   9.874 -1.5438  1.4612 -2.4717
   36POPC  C212 4840   3.335   5.466   9.723  0.0996  1.2453 -0.2492
   36POPC  H12R 4841   3.357   5.367   9.768 -3.8858 -0.4250 -1.5301
   36POPC  H12S 4842   3.429   5.510   9.683 -0.1694  0.7383 -1.4769
   36POPC  C213 4843   3.233   5.446   9.614  0.4677  0.1035  0.0104
   36POPC  H13R 4844   3.189   5.544   9.584 -0.6721 -0.3389  0.1958
   36POPC  H13S 4845   3.138   5.399   9.645  0.0078  0.5917 -0.6264
   36POPC  C214 4846   3.281   5.359   9.500  0.0585 -0.1888 -0.3088
   36POPC  H14R 4847   3.338   5.273   9.541  0.1677  0.2098  0.3954
   36POPC  H14S 4848   3.355   5.424   9.449  1.0915 -0.9512  0.1668
   36POPC  C215 4849   3.182   5.323   9.383 -0.1923 -0.2895 -0.4629
   36POPC  H15R 4850   3.120   5.415   9.375  0.4583  0.2649  0.6323
   36POPC  H15S 4851   3.112   5.247   9.423  3.0253 -2.1693  2.1038
   36POPC  C216 4852   3.245   5.288   9.256  0.4923  0.4490  0.4868
   36POPC  H16R 4853   3.290   5.188   9.273 -0.9832 -0.3825 -0.2705
   36POPC  H16S 4854   3.315   5.363   9.214 -0.4923  2.1775  1.8190
   36POPC  C217 4855   3.132   5.275   9.147 -0.9253  0.2842 -0.3564
   36POPC  H17R 4856   3.078   5.372   9.143 -0.0236  0.8154  0.1042
   36POPC  H17S 4857   3.057   5.205   9.189 -1.0490  0.6211 -0.0120
   36POPC  C218 4858   3.191   5.247   9.004  0.2121  1.2038 -0.4588
   36POPC  H18R 4859   3.209   5.349   8.965  0.2974  2.2463  2.0854
   36POPC  H18S 4860   3.117   5.199   8.937  0.6314  0.0209 -0.0972
   36POPC  H18T 4861   3.288   5.194   9.001 -0.2816  0.3401 -1.9617
   36POPC   C33 4862   2.492   6.581  10.400  0.4800 -0.2935  0.7746
   36POPC   H3X 4863   2.495   6.655  10.318  0.1296  1.0800  1.9589
   36POPC   H3Y 4864   2.445   6.636  10.485  2.1026  0.8760  0.9660
   36POPC   C34 4865   2.400   6.464  10.361  0.5839  0.0496 -0.1532
   36POPC   H4X 4866   2.321   6.498  10.291  1.0866  0.6192 -0.4540
   36POPC   H4Y 4867   2.344   6.421  10.447  0.3972  0.1454 -0.2262
   36POPC   C35 4868   2.459   6.343  10.282 -0.2833  0.4778  0.2753
   36POPC   H5X 4869   2.381   6.266  10.264  1.5484 -1.2997 -0.3885
   36POPC   H5Y 4870   2.540   6.292  10.339 -0.4966 -0.7881 -0.5098
   36POPC   C36 4871   2.514   6.367  10.135  0.3786 -0.4789 -0.4835
   36POPC   H6X 4872   2.575   6.275  10.121  3.4297  1.4937 -1.1744
   36POPC   H6Y 4873   2.588   6.450  10.137  1.7721 -1.6211 -1.8173
   36POPC   C37 4874   2.414   6.397  10.026 -0.7165 -0.1852 -0.1310
   36POPC   H7X 4875   2.338   6.465  10.071 -1.6640 -1.1481 -0.2428
   36POPC   H7Y 4876   2.359   6.302  10.013 -2.8024  0.9014  0.3063
   36POPC   C38 4877   2.488   6.439   9.902 -0.6027  0.6244  0.9286
   36POPC   H8X 4878   2.557   6.354   9.883 -0.2174  1.2381 -0.6137
   36POPC   H8Y 4879   2.548   6.532   9.912 -1.4798  1.6889 -2.1950
   36POPC   C39 4880   2.405   6.452   9.772 -0.0786  0.7601 -0.7630
   36POPC   H9X 4881   2.342   6.543   9.764 -0.3184  0.8172  1.3341
   36POPC   H9Y 4882   2.332   6.368   9.771 -0.5047  1.1236 -0.8557
   36POPC  C310 4883   2.492   6.439   9.648  0.7370  0.2806 -0.7801
   36POPC  H10X 4884   2.546   6.342   9.639 -2.0041 -1.3065 -1.3727
   36POPC  H10Y 4885   2.570   6.518   9.650  0.3608  0.6327  0.4341
   36POPC  C311 4886   2.405   6.461   9.520 -0.1597  1.0831  0.1294
   36POPC  H11X 4887   2.337   6.547   9.509 -1.5087 -0.0930 -1.0831
   36POPC  H11Y 4888   2.333   6.378   9.505  0.6432  0.6800 -1.7528
   36POPC  C312 4889   2.499   6.446   9.403  0.2908 -0.5436  0.1378
   36POPC  H12X 4890   2.551   6.348   9.409  1.0072 -0.1569  0.3733
   36POPC  H12Y 4891   2.578   6.524   9.414 -0.4016  0.1113  0.5265
   36POPC  C313 4892   2.435   6.459   9.262  1.3065  0.7876  0.6809
   36POPC  H13X 4893   2.402   6.561   9.233  0.1989  0.3502  0.3429
   36POPC  H13Y 4894   2.345   6.394   9.269  1.1898  0.9268  0.4835
   36POPC  C314 4895   2.521   6.398   9.147  0.1587  0.5962  0.3336
   36POPC  H14X 4896   2.465   6.351   9.064  2.8084  3.8092 -3.7318
   36POPC  H14Y 4897   2.592   6.317   9.173  0.3928 -0.3307 -2.7676
   36POPC  C315 4898   2.605   6.504   9.071 -0.2386 -0.3611  0.5339
   36POPC  H15X 4899   2.648   6.560   9.157 -1.0095  0.1990  0.5748
   36POPC  H15Y 4900   2.545   6.585   9.023  3.4300  1.2913 -1.6360
   36POPC  C316 4901   2.711   6.460   8.972 -0.9800 -0.3903  0.6952
   36POPC  H16X 4902   2.663   6.425   8.878 -0.0902 -0.0833  0.1068
   36POPC  H16Y 4903   2.785   6.388   9.013 -0.0037  0.0771 -0.2014
   36POPC  H16Z 4904   2.776   6.545   8.943  3.2512 -3.5617 -0.0281
   37POPC     N 4905   3.550   0.398   6.191 -0.2241 -0.0013  0.6014
   37POPC   C12 4906   3.588   0.460   6.325 -0.1867  0.3987  0.0827
   37POPC  H12A 4907   3.570   0.566   6.329  0.7507  0.5826 -0.4203
   37POPC  H12B 4908   3.695   0.453   6.340 -0.5538 -1.8562  2.4262
   37POPC   C13 4909   3.401   0.423   6.178 -0.6655 -0.3510  0.1732
   37POPC  H13A 4910   3.335   0.382   6.252 -2.3150 -0.3997 -1.2637
   37POPC  H13B 4911   3.393   0.531   6.184  0.5514  0.0097 -2.7906
   37POPC  H13C 4912   3.364   0.390   6.082 -1.5690  3.0445 -0.7806
   37POPC   C14 4913   3.615   0.467   6.070  0.3334 -0.1654 -0.0979
   37POPC  H14A 4914   3.721   0.446   6.066  0.2491 -0.4939 -0.6413
   37POPC  H14B 4915   3.571   0.419   5.984 -0.3288 -2.2855  1.3263
   37POPC  H14C 4916   3.596   0.573   6.072 -0.6082 -0.2747 -1.6362
   37POPC   C15 4917   3.587   0.254   6.183  0.0855  0.0818 -0.3249
   37POPC  H15A 4918   3.694   0.245   6.192 -0.0814 -0.9571  0.9135
   37POPC  H15B 4919   3.554   0.199   6.096  0.6947 -0.0855 -0.4518
   37POPC  H15C 4920   3.550   0.197   6.267  0.1522 -0.9916 -0.9974
   37POPC   C11 4921   3.537   0.399   6.455  0.0323  0.2476 -0.6275
   37POPC  H11A 4922   3.429   0.373   6.467  0.2600 -0.0939  0.8874
   37POPC  H11B 4923   3.535   0.462   6.546  0.6024 -0.1723 -0.3213
   37POPC     P 4924   3.630   0.186   6.599  0.2012 -0.3181  0.1244
   37POPC   O13 4925   3.725   0.239   6.693 -0.6048 -0.0135 -0.0403
   37POPC   O14 4926   3.662   0.055   6.540  0.8887  0.6663  0.0509
   37POPC   O12 4927   3.626   0.286   6.476  0.0364  0.0005 -0.5819
   37POPC   O11 4928   3.484   0.174   6.658  0.2651 -0.5478  0.0869
   37POPC    C1 4929   3.421   0.241   6.760 -0.2155  0.5108 -0.5376
   37POPC    HA 4930   3.313   0.261   6.743 -0.6109 -1.9551 -1.3522
   37POPC    HB 4931   3.467   0.341   6.775  1.7329 -0.4987  0.6363
   37POPC    C2 4932   3.423   0.162   6.900  0.4122  0.1467  0.8847
   37POPC    HS 4933   3.518   0.179   6.954  1.5513 -1.4325 -0.5096
   37POPC   O21 4934   3.392   0.023   6.870 -0.5873  0.1741 -0.2282
   37POPC   C21 4935   3.441  -0.052   6.963 -0.4974 -0.9180 -0.0801
   37POPC   O22 4936   3.509  -0.014   7.060 -0.2119 -0.1268 -0.0883
   37POPC   C22 4937   3.401  -0.192   6.931  0.0793 -0.0512 -0.4452
   37POPC   H2R 4938   3.436  -0.222   6.829  2.4822 -0.7588  0.5085
   37POPC   H2S 4939   3.290  -0.192   6.936  0.0716  1.1547 -0.2490
   37POPC    C3 4940   3.313   0.224   6.986  0.3148  0.6506  0.0595
   37POPC    HX 4941   3.212   0.196   6.950  0.8574 -1.8072  0.2462
   37POPC    HY 4942   3.323   0.334   6.977 -1.7182  0.7470 -1.6199
   37POPC   O31 4943   3.319   0.177   7.127  0.1292 -0.3100 -0.0593
   37POPC   C31 4944   3.405   0.235   7.210  0.5253 -0.2078 -0.1449
   37POPC   O32 4945   3.488   0.319   7.172  0.5205 -0.1498  0.4616
   37POPC   C32 4946   3.388   0.188   7.349  0.1693 -1.0735 -0.1289
   37POPC   H2X 4947   3.370   0.079   7.361  0.2431 -0.9799  0.9447
   37POPC   H2Y 4948   3.308   0.254   7.391  0.0177  0.1530 -2.1993
   37POPC   C23 4949   3.447  -0.292   7.025 -0.0599 -0.2448  0.0707
   37POPC   H3R 4950   3.379  -0.381   7.027 -3.6376  2.2673  1.6160
   37POPC   H3S 4951   3.452  -0.263   7.132  2.9190 -0.9033  0.2049
   37POPC   C24 4952   3.578  -0.355   6.986  0.1618 -0.3086  0.0156
   37POPC   H4R 4953   3.650  -0.271   6.976 -0.4821 -0.0065 -2.6076
   37POPC   H4S 4954   3.565  -0.406   6.888  1.3248  0.6770 -0.6714
   37POPC   C25 4955   3.612  -0.463   7.093  0.2874 -0.1905  0.5182
   37POPC   H5R 4956   3.662  -0.544   7.035 -1.5463 -0.9547 -0.0805
   37POPC   H5S 4957   3.515  -0.509   7.122 -0.9756 -0.2143 -3.1606
   37POPC   C26 4958   3.698  -0.411   7.206  0.0177  0.4902 -0.0167
   37POPC   H6R 4959   3.672  -0.306   7.227  1.0526  0.7610 -0.0408
   37POPC   H6S 4960   3.804  -0.416   7.173  0.5585 -2.3157  1.7350
   37POPC   C27 4961   3.707  -0.498   7.330  0.2739  0.0677  0.2922
   37POPC   H7R 4962   3.789  -0.459   7.393  0.6986 -0.1822 -0.1005
   37POPC   H7S 4963   3.749  -0.597   7.301  1.9502  0.0601  2.5512
   37POPC   C28 4964   3.570  -0.512   7.393  0.0092 -0.3115  0.0150
   37POPC   H8R 4965   3.558  -0.623   7.390 -1.9987 -0.1278  0.2032
   37POPC   H8S 4966   3.476  -0.484   7.341 -0.0440 -1.4996 -0.5753
   37POPC   C29 4967   3.575  -0.443   7.525 -0.4941 -0.3361 -0.2126
   37POPC   H91 4968   3.536  -0.341   7.533 -1.2291 -0.4341 -1.9126
   37POPC  C210 4969   3.639  -0.487   7.633 -0.1737 -0.1512 -0.0282
   37POPC  H101 4970   3.631  -0.426   7.725 -0.4597 -0.3247  0.0609
   37POPC  C211 4971   3.730  -0.604   7.658  0.2295  0.1453 -0.0959
   37POPC  H11R 4972   3.836  -0.574   7.643 -0.6975  3.3432 -1.0385
   37POPC  H11S 4973   3.706  -0.684   7.585  0.1929 -0.4071  0.5172
   37POPC  C212 4974   3.726  -0.650   7.807  0.5802  0.4353 -0.1437
   37POPC  H12R 4975   3.785  -0.576   7.865  0.6863  0.7556 -0.6514
   37POPC  H12S 4976   3.788  -0.741   7.817  1.1144  0.5154 -2.1684
   37POPC  C213 4977   3.589  -0.667   7.882  0.3415  0.3200  0.3722
   37POPC  H13R 4978   3.535  -0.750   7.831  0.2131  0.6064  0.0385
   37POPC  H13S 4979   3.526  -0.579   7.858 -0.3929 -0.2250  0.2585
   37POPC  C214 4980   3.601  -0.700   8.031 -0.1437 -0.7972 -0.5064
   37POPC  H14R 4981   3.677  -0.634   8.077  0.3710 -0.3986 -1.8626
   37POPC  H14S 4982   3.647  -0.801   8.041  1.4448  0.0248  0.9192
   37POPC  C215 4983   3.458  -0.665   8.093  0.5697  0.4882 -0.2278
   37POPC  H15R 4984   3.369  -0.705   8.041  0.2781  0.2748  0.4268
   37POPC  H15S 4985   3.444  -0.555   8.093 -0.6872  0.3379 -0.6162
   37POPC  C216 4986   3.441  -0.715   8.241 -0.7671  0.6494  0.1585
   37POPC  H16R 4987   3.353  -0.666   8.289 -0.5353  1.5134 -0.2798
   37POPC  H16S 4988   3.529  -0.683   8.300  0.2945  0.3634 -1.2294
   37POPC  C217 4989   3.418  -0.867   8.252 -0.0975 -0.0672 -0.7796
   37POPC  H17R 4990   3.519  -0.899   8.217  1.1500  1.2933  1.3854
   37POPC  H17S 4991   3.346  -0.905   8.176 -1.5419  1.0260 -0.0023
   37POPC  C218 4992   3.365  -0.910   8.388 -0.1330  0.2663 -0.5772
   37POPC  H18R 4993   3.354  -1.020   8.402  1.6649  0.2341  1.1508
   37POPC  H18S 4994   3.270  -0.864   8.421  0.8925  0.7570  1.9828
   37POPC  H18T 4995   3.444  -0.886   8.462 -0.3528  1.7096 -0.7949
   37POPC   C33 4996   3.523   0.224   7.419 -0.7742  0.4172 -0.1475
   37POPC   H3X 4997   3.526   0.334   7.406 -2.6294  0.2112 -3.5167
   37POPC   H3Y 4998   3.609   0.181   7.364 -1.8671 -0.3632 -1.3070
   37POPC   C34 4999   3.529   0.187   7.567 -0.1313  0.5564 -0.0466
   37POPC   H4X 5000   3.539   0.076   7.573 -3.1366  0.2741  2.6996
   37POPC   H4Y 5001   3.438   0.208   7.628  0.3854  1.7634  0.3511
   37POPC   C35 5002   3.649   0.254   7.637  0.3826  0.0510 -0.1483
   37POPC   H5X 5003   3.631   0.364   7.631 -1.3276 -0.2524 -1.3051
   37POPC   H5Y 5004   3.746   0.231   7.588  0.2054  2.1765 -1.6339
   37POPC   C36 5005   3.658   0.247   7.798 -0.0734 -0.1628  1.0908
   37POPC   H6X 5006   3.766   0.246   7.826  0.8333 -0.5825 -1.9958
   37POPC   H6Y 5007   3.615   0.151   7.833 -0.0056 -0.0745  1.4206
   37POPC   C37 5008   3.607   0.366   7.881 -0.3237 -0.4170 -0.0142
   37POPC   H7X 5009   3.498   0.368   7.859  0.0643  1.4226 -2.1632
   37POPC   H7Y 5010   3.646   0.466   7.851 -1.9563  0.1354 -0.3895
   37POPC   C38 5011   3.644   0.346   8.030 -0.2942  0.0448 -0.6938
   37POPC   H8X 5012   3.612   0.436   8.087  2.4868  0.8017 -0.1363
   37POPC   H8Y 5013   3.755   0.346   8.044 -0.3031 -0.5008 -0.6121
   37POPC   C39 5014   3.592   0.223   8.110 -0.4081  0.3467  0.4435
   37POPC   H9X 5015   3.613   0.126   8.061 -0.2229  1.7260 -2.4150
   37POPC   H9Y 5016   3.481   0.223   8.119 -0.3664  0.2502  1.0022
   37POPC  C310 5017   3.651   0.216   8.256 -0.8441 -0.2998 -0.0274
   37POPC  H10X 5018   3.623   0.311   8.306 -1.4409  0.1453 -1.1597
   37POPC  H10Y 5019   3.760   0.194   8.253 -0.4932  1.2145 -3.3783
   37POPC  C311 5020   3.584   0.100   8.331  0.0462  0.3200  0.5229
   37POPC  H11X 5021   3.620   0.007   8.283  0.6253  1.3714 -1.1399
   37POPC  H11Y 5022   3.477   0.125   8.317  0.4545  0.7566 -2.2343
   37POPC  C312 5023   3.630   0.102   8.478  0.3712  0.2963 -0.8289
   37POPC  H12X 5024   3.604   0.197   8.528 -0.2642 -0.1506 -0.2858
   37POPC  H12Y 5025   3.740   0.096   8.498  0.3867  2.7474  0.1392
   37POPC  C313 5026   3.568  -0.016   8.554  0.3032  0.6457  0.2785
   37POPC  H13X 5027   3.618  -0.112   8.533 -2.7099 -0.5846 -2.0794
   37POPC  H13Y 5028   3.464  -0.038   8.521  1.2085 -1.4506 -1.3930
   37POPC  C314 5029   3.572  -0.002   8.707 -0.5575  0.0936 -0.0007
   37POPC  H14X 5030   3.656   0.064   8.735 -0.9790  0.7213 -0.2087
   37POPC  H14Y 5031   3.570  -0.108   8.741  1.9111  0.3115  1.0466
   37POPC  C315 5032   3.444   0.059   8.761  0.4954 -0.6905  0.6260
   37POPC  H15X 5033   3.366  -0.015   8.732 -0.1456 -0.5884  1.9947
   37POPC  H15Y 5034   3.427   0.157   8.711 -0.9850 -0.1915  2.0134
   37POPC  C316 5035   3.442   0.084   8.911 -0.3093  0.3323  0.6679
   37POPC  H16X 5036   3.457  -0.013   8.963 -2.9363  0.8793  2.6828
   37POPC  H16Y 5037   3.335   0.111   8.927 -0.4211 -0.9419  2.2675
   37POPC  H16Z 5038   3.511   0.164   8.945  3.0135 -0.9049 -2.5222
   38POPC     N 5039   4.677   4.627   5.866 -0.8496 -0.0623  0.1261
   38POPC   C12 5040   4.714   4.531   5.977  0.7229 -0.3022  0.1494
   38POPC  H12A 5041   4.806   4.483   5.946  0.4448  0.6481 -2.2996
   38POPC  H12B 5042   4.639   4.453   5.980 -1.5925  1.8064  0.0297
   38POPC   C13 5043   4.689   4.555   5.736 -0.1810 -0.1582  0.4152
   38POPC  H13A 5044   4.641   4.606   5.654  1.9970  0.0162 -0.8415
   38POPC  H13B 5045   4.792   4.560   5.706 -0.1943 -0.7469  0.2473
   38POPC  H13C 5046   4.640   4.459   5.731 -2.2571  0.8826 -0.3347
   38POPC   C14 5047   4.539   4.682   5.886 -0.9193 -0.3613  0.1960
   38POPC  H14A 5048   4.521   4.772   5.830 -0.2598  0.2838  0.9900
   38POPC  H14B 5049   4.465   4.610   5.853  0.3179 -1.5917  0.0210
   38POPC  H14C 5050   4.532   4.704   5.992 -1.8240 -1.2520  0.3388
   38POPC   C15 5051   4.776   4.748   5.855  0.0516 -0.1033 -0.7124
   38POPC  H15A 5052   4.747   4.814   5.936 -1.0084 -1.6883  0.2593
   38POPC  H15B 5053   4.765   4.801   5.762  0.8679  1.0222 -0.2044
   38POPC  H15C 5054   4.881   4.722   5.849 -0.3182 -1.5376 -1.2822
   38POPC   C11 5055   4.735   4.582   6.121  0.5348  0.4529 -0.6304
   38POPC  H11A 5056   4.821   4.651   6.118  0.8095  0.0924 -1.2070
   38POPC  H11B 5057   4.772   4.493   6.177  1.6742  1.1439 -0.2521
   38POPC     P 5058   4.495   4.584   6.246  0.2775 -0.0217  0.4137
   38POPC   O13 5059   4.399   4.529   6.150  0.0646  0.3415  0.1225
   38POPC   O14 5060   4.444   4.684   6.343  0.0456  0.4491  0.1057
   38POPC   O12 5061   4.619   4.651   6.177 -0.1822  0.5988 -0.2044
   38POPC   O11 5062   4.555   4.461   6.315 -0.4255 -0.1653 -0.1575
   38POPC    C1 5063   4.613   4.479   6.444  0.0022  0.3601  0.9237
   38POPC    HA 5064   4.545   4.534   6.513  0.0152 -0.2282  1.4066
   38POPC    HB 5065   4.704   4.542   6.435 -1.6286  2.6733 -1.0430
   38POPC    C2 5066   4.649   4.346   6.502  0.3732 -0.2243 -0.5419
   38POPC    HS 5067   4.556   4.287   6.517 -1.2165  2.5215  1.1271
   38POPC   O21 5068   4.711   4.363   6.632  0.2286 -0.3425 -0.1785
   38POPC   C21 5069   4.620   4.389   6.728  0.3975  0.4745 -0.7552
   38POPC   O22 5070   4.502   4.396   6.707  0.0811 -0.1430 -0.0406
   38POPC   C22 5071   4.683   4.400   6.873 -0.1067 -0.2718 -0.2939
   38POPC   H2R 5072   4.610   4.348   6.939  0.4047  1.0072  1.3582
   38POPC   H2S 5073   4.695   4.505   6.907  0.5492 -0.3100 -0.3855
   38POPC    C3 5074   4.755   4.257   6.416  0.6443 -0.0079  0.0166
   38POPC    HX 5075   4.842   4.325   6.405  2.0015 -1.3053  2.1325
   38POPC    HY 5076   4.710   4.242   6.315 -0.7290 -1.8569  0.8505
   38POPC   O31 5077   4.790   4.131   6.482 -0.3576  0.3978 -0.3693
   38POPC   C31 5078   4.701   4.036   6.461  0.4773 -0.2126 -0.3417
   38POPC   O32 5079   4.604   4.047   6.389 -0.4305 -0.5038 -0.0546
   38POPC   C32 5080   4.734   3.911   6.543  1.0628  0.1187  0.4092
   38POPC   H2X 5081   4.844   3.901   6.556  0.7421 -0.0963  3.8621
   38POPC   H2Y 5082   4.713   3.822   6.481  3.7164 -1.7730  2.0183
   38POPC   C23 5083   4.818   4.327   6.893  0.1337 -0.1994  0.5505
   38POPC   H3R 5084   4.890   4.390   6.838  0.5180 -1.0362  0.0729
   38POPC   H3S 5085   4.815   4.232   6.836  3.8393  1.1759 -2.2839
   38POPC   C24 5086   4.838   4.279   7.041 -0.4206 -0.0516 -0.4484
   38POPC   H4R 5087   4.935   4.224   7.042  0.4326  1.3930 -0.0544
   38POPC   H4S 5088   4.748   4.218   7.065  0.6929 -1.1634  1.1556
   38POPC   C25 5089   4.841   4.386   7.153 -0.2894 -0.3900 -0.4440
   38POPC   H5R 5090   4.742   4.435   7.151 -1.1845 -1.8888  2.1261
   38POPC   H5S 5091   4.928   4.454   7.140  0.7061 -0.8828  2.7413
   38POPC   C26 5092   4.857   4.330   7.295 -0.7938 -0.0060 -0.1624
   38POPC   H6R 5093   4.944   4.262   7.308 -0.6491  0.3730  0.9672
   38POPC   H6S 5094   4.768   4.271   7.324  1.2993 -4.3532 -1.6766
   38POPC   C27 5095   4.890   4.443   7.398 -0.2239 -0.6458  0.4885
   38POPC   H7R 5096   4.806   4.516   7.396 -0.3973 -0.8301  1.0223
   38POPC   H7S 5097   4.976   4.499   7.355 -0.7374 -0.6805 -0.6203
   38POPC   C28 5098   4.920   4.406   7.539  0.5927  0.1672 -0.0995
   38POPC   H8R 5099   5.025   4.370   7.534  0.0210 -1.6288  0.3683
   38POPC   H8S 5100   4.842   4.336   7.574 -0.6796  0.7921 -1.5801
   38POPC   C29 5101   4.917   4.534   7.617 -0.3372  0.0884  0.4018
   38POPC   H91 5102   4.867   4.616   7.564 -1.7359 -0.7196  0.4011
   38POPC  C210 5103   4.963   4.569   7.741  0.3407 -0.0710  0.0196
   38POPC  H101 5104   4.952   4.674   7.769  1.0028 -0.6026  2.5231
   38POPC  C211 5105   5.028   4.481   7.847  0.2893 -0.7292  0.7639
   38POPC  H11R 5106   5.131   4.518   7.864 -0.0349  0.6490 -0.1001
   38POPC  H11S 5107   5.032   4.374   7.818 -0.6876 -0.1457 -1.8099
   38POPC  C212 5108   4.944   4.489   7.980 -0.3685 -0.6931 -0.2723
   38POPC  H12R 5109   4.842   4.448   7.968 -1.0338  0.3194  1.5388
   38POPC  H12S 5110   4.931   4.592   8.021 -1.6909 -1.4565  1.3042
   38POPC  C213 5111   5.009   4.404   8.091 -0.0086  0.1127  0.1413
   38POPC  H13R 5112   5.038   4.304   8.054  0.0489  0.3148 -0.3700
   38POPC  H13S 5113   4.935   4.391   8.172 -1.3859  3.0844 -0.4842
   38POPC  C214 5114   5.141   4.460   8.140 -0.0888 -0.5489 -0.6268
   38POPC  H14R 5115   5.125   4.565   8.173  1.6155 -0.2797 -0.5603
   38POPC  H14S 5116   5.220   4.453   8.061  0.6612 -2.8023  0.2357
   38POPC  C215 5117   5.200   4.378   8.259 -0.7767 -0.2150 -0.2140
   38POPC  H15R 5118   5.234   4.280   8.219 -2.0740 -0.8756  0.2680
   38POPC  H15S 5119   5.128   4.364   8.342  0.6192 -1.0481  0.8916
   38POPC  C216 5120   5.329   4.449   8.328 -0.7173  0.4336 -0.4414
   38POPC  H16R 5121   5.299   4.548   8.367  1.2591  0.8788  0.1135
   38POPC  H16S 5122   5.398   4.459   8.241  1.8754 -1.4303  1.2352
   38POPC  C217 5123   5.396   4.359   8.440  0.3674  0.2276 -0.1401
   38POPC  H17R 5124   5.406   4.254   8.405  0.6801 -0.5366  2.1087
   38POPC  H17S 5125   5.333   4.365   8.531  0.3398 -2.2382  0.0702
   38POPC  C218 5126   5.534   4.406   8.486 -0.0358 -0.2599 -0.0176
   38POPC  H18R 5127   5.554   4.340   8.573  2.9030 -0.9710 -1.1111
   38POPC  H18S 5128   5.528   4.513   8.516  2.1693 -0.5046  1.5766
   38POPC  H18T 5129   5.608   4.391   8.405  0.1732  3.9049 -0.8490
   38POPC   C33 5130   4.659   3.907   6.677  0.5410 -0.3930 -0.2642
   38POPC   H3X 5131   4.613   3.806   6.675  2.5402 -1.3754  0.3946
   38POPC   H3Y 5132   4.576   3.980   6.682 -0.6954 -1.7808  0.5025
   38POPC   C34 5133   4.754   3.907   6.795  0.3662  0.2069 -0.9844
   38POPC   H4X 5134   4.799   4.008   6.799  1.9507 -0.3941 -2.4726
   38POPC   H4Y 5135   4.843   3.842   6.784 -0.6050 -1.2087 -0.8328
   38POPC   C35 5136   4.679   3.899   6.936  0.7797  0.1251  0.3288
   38POPC   H5X 5137   4.628   3.801   6.926 -0.4841  0.7081  0.7888
   38POPC   H5Y 5138   4.610   3.986   6.929  0.2881 -0.2108  0.8988
   38POPC   C36 5139   4.772   3.923   7.057  0.5821  0.1372  0.1296
   38POPC   H6X 5140   4.841   4.008   7.036  1.5365 -0.3291  1.2880
   38POPC   H6Y 5141   4.829   3.828   7.058  0.6520  0.1540 -1.0148
   38POPC   C37 5142   4.686   3.963   7.181  0.8398  0.0811  0.0744
   38POPC   H7X 5143   4.596   3.899   7.191  0.7135  0.3700  0.8381
   38POPC   H7Y 5144   4.663   4.071   7.185  1.8277  0.2842  0.7175
   38POPC   C38 5145   4.760   3.940   7.303 -0.6180  0.0767  0.0962
   38POPC   H8X 5146   4.856   3.995   7.299 -0.1742 -0.7615 -1.2704
   38POPC   H8Y 5147   4.795   3.835   7.318  0.8476  0.5332  0.0088
   38POPC   C39 5148   4.700   3.989   7.438  0.6658 -0.2459  0.5744
   38POPC   H9X 5149   4.610   3.926   7.454 -1.6312  2.0451 -2.2912
   38POPC   H9Y 5150   4.660   4.091   7.422  0.7963 -0.1909  0.6001
   38POPC  C310 5151   4.798   3.989   7.554  0.2397  0.3331  0.4306
   38POPC  H10X 5152   4.898   4.024   7.521  0.5876 -2.7522 -2.3236
   38POPC  H10Y 5153   4.801   3.881   7.581 -2.7592  0.0010 -0.2067
   38POPC  C311 5154   4.748   4.074   7.672 -0.3823 -0.2280  0.1759
   38POPC  H11X 5155   4.658   4.020   7.709 -0.2274  0.1995  1.2011
   38POPC  H11Y 5156   4.719   4.177   7.643 -0.1756 -0.1652  0.1928
   38POPC  C312 5157   4.853   4.095   7.778 -0.6764  0.1089  0.2827
   38POPC  H12X 5158   4.942   4.144   7.732  0.1597 -1.3854  0.2172
   38POPC  H12Y 5159   4.904   3.998   7.799  0.7735  0.8771  0.4982
   38POPC  C313 5160   4.803   4.163   7.901  1.1963 -1.0219 -1.2637
   38POPC  H13X 5161   4.757   4.259   7.869  0.0710 -1.4599 -1.0094
   38POPC  H13Y 5162   4.887   4.172   7.973 -0.8617 -0.1051  1.1546
   38POPC  C314 5163   4.687   4.089   7.979  0.0897 -0.2280 -0.3005
   38POPC  H14X 5164   4.707   3.981   7.963  0.2757 -0.5091  1.6823
   38POPC  H14Y 5165   4.595   4.136   7.937  0.1262  1.0534  1.0044
   38POPC  C315 5166   4.680   4.117   8.127 -0.3351 -0.0499  0.4016
   38POPC  H15X 5167   4.682   4.226   8.145 -2.8648  0.3137 -1.0457
   38POPC  H15Y 5168   4.763   4.071   8.184 -0.8785 -0.1538  1.1124
   38POPC  C316 5169   4.549   4.062   8.185 -0.2504  0.2409 -0.1399
   38POPC  H16X 5170   4.544   4.095   8.291 -0.9813  0.8475 -0.3473
   38POPC  H16Y 5171   4.514   3.957   8.174 -0.9986  0.5241 -0.5712
   38POPC  H16Z 5172   4.468   4.132   8.151 -0.9420 -1.0358 -1.2278
   39POPC     N 5173   1.824   2.344   5.946 -0.1422  0.2109  0.1363
   39POPC   C12 5174   1.891   2.308   6.075 -0.5340 -0.2912 -0.1236
   39POPC  H12A 5175   1.869   2.204   6.091 -0.0768 -0.4513 -0.4791
   39POPC  H12B 5176   1.839   2.366   6.149 -0.6258 -0.1168 -0.3233
   39POPC   C13 5177   1.682   2.371   5.970 -0.4163  0.0417  0.0310
   39POPC  H13A 5178   1.642   2.301   6.042 -0.5750 -0.3282 -0.4113
   39POPC  H13B 5179   1.669   2.476   5.995 -0.1507 -0.1592  1.0440
   39POPC  H13C 5180   1.628   2.361   5.877  0.2177 -0.3861 -0.2994
   39POPC   C14 5181   1.891   2.465   5.879  0.7163  0.4266 -0.2344
   39POPC  H14A 5182   1.830   2.512   5.804  1.3356  4.3074  1.4218
   39POPC  H14B 5183   1.919   2.534   5.958  0.4067  0.0882  0.1780
   39POPC  H14C 5184   1.982   2.428   5.836  0.3631  0.9164 -1.4436
   39POPC   C15 5185   1.835   2.227   5.847  0.6057 -0.1086  0.0011
   39POPC  H15A 5186   1.820   2.132   5.896 -0.6781  0.0526 -0.0576
   39POPC  H15B 5187   1.937   2.206   5.818  0.4611  0.8654 -1.3236
   39POPC  H15C 5188   1.775   2.228   5.757  1.5231 -0.2671 -0.6306
   39POPC   C11 5189   2.043   2.342   6.102 -0.3710  0.8792  0.3524
   39POPC  H11A 5190   2.106   2.299   6.021  0.1142  1.0165  0.6551
   39POPC  H11B 5191   2.083   2.284   6.187  1.9673 -0.2697 -1.4072
   39POPC     P 5192   1.994   2.577   6.208 -0.0915  0.0801  0.2007
   39POPC   O13 5193   1.852   2.573   6.177  0.4391  0.3953  0.5259
   39POPC   O14 5194   2.069   2.709   6.211  0.3693 -0.0361 -0.3811
   39POPC   O12 5195   2.064   2.485   6.107 -0.8411  0.1473  0.7015
   39POPC   O11 5196   2.027   2.498   6.336 -0.0066 -0.4398 -0.1393
   39POPC    C1 5197   1.978   2.538   6.464 -0.9023  0.1055  0.3873
   39POPC    HA 5198   1.948   2.644   6.480 -0.5727 -0.1388  3.1833
   39POPC    HB 5199   2.035   2.500   6.552 -0.9169  2.1594  1.3542
   39POPC    C2 5200   1.840   2.472   6.490 -0.3568  0.1766 -0.3669
   39POPC    HS 5201   1.767   2.524   6.424  1.0561  1.2934 -1.1042
   39POPC   O21 5202   1.815   2.507   6.628  0.3951  0.0751  0.3485
   39POPC   C21 5203   1.693   2.549   6.671 -0.1571  0.5207  1.0868
   39POPC   O22 5204   1.585   2.541   6.607 -0.3769 -0.5427 -0.0360
   39POPC   C22 5205   1.715   2.590   6.816 -0.0766 -0.2798  0.4841
   39POPC   H2R 5206   1.759   2.692   6.816  0.6912 -0.4766 -3.1835
   39POPC   H2S 5207   1.797   2.530   6.861 -1.2093 -1.1225  1.4925
   39POPC    C3 5208   1.848   2.317   6.476 -0.0039 -0.8667  0.4516
   39POPC    HX 5209   1.939   2.295   6.536  0.1073 -1.9713 -0.0886
   39POPC    HY 5210   1.872   2.283   6.373  0.6877  0.1930  0.2522
   39POPC   O31 5211   1.731   2.250   6.537  0.5248  0.1562  0.0392
   39POPC   C31 5212   1.628   2.256   6.450  0.0818  0.4715 -1.1982
   39POPC   O32 5213   1.633   2.298   6.335 -0.0727  0.1641 -0.0688
   39POPC   C32 5214   1.499   2.197   6.521 -0.1112  0.0057  0.4529
   39POPC   H2X 5215   1.433   2.278   6.558 -2.8908 -2.8731  2.3117
   39POPC   H2Y 5216   1.449   2.146   6.435  1.9935 -0.9007 -0.3011
   39POPC   C23 5217   1.594   2.581   6.906 -0.1465 -0.4844 -0.4842
   39POPC   H3R 5218   1.547   2.481   6.899  1.7719 -1.5495  0.9197
   39POPC   H3S 5219   1.525   2.664   6.879  1.2444  0.5212 -1.1033
   39POPC   C24 5220   1.637   2.610   7.048  0.1844 -0.0615  0.1094
   39POPC   H4R 5221   1.698   2.703   7.052  1.3542 -0.7873 -0.1082
   39POPC   H4S 5222   1.704   2.527   7.081 -0.7659 -0.0883  2.0733
   39POPC   C25 5223   1.507   2.616   7.135 -0.0852  0.3337  0.3330
   39POPC   H5R 5224   1.472   2.510   7.140  2.2800 -0.5021  1.0815
   39POPC   H5S 5225   1.434   2.676   7.078 -0.0636 -0.8647 -1.0158
   39POPC   C26 5226   1.539   2.686   7.264 -1.1011 -0.1005 -0.3356
   39POPC   H6R 5227   1.624   2.641   7.319 -0.1329 -0.5101 -2.0959
   39POPC   H6S 5228   1.447   2.668   7.324 -0.3120 -0.0591  0.9328
   39POPC   C27 5229   1.554   2.841   7.254  0.2720  0.1411  0.0777
   39POPC   H7R 5230   1.462   2.892   7.289 -0.4127  1.4376 -3.2597
   39POPC   H7S 5231   1.570   2.870   7.149  0.2875 -4.8299 -1.5501
   39POPC   C28 5232   1.672   2.879   7.344 -0.0752  0.6831 -0.8898
   39POPC   H8R 5233   1.766   2.839   7.302 -0.0529  0.2711 -0.4562
   39POPC   H8S 5234   1.641   2.826   7.436 -4.3204  2.7782 -0.8395
   39POPC   C29 5235   1.692   3.021   7.377  0.0342 -0.5237  0.0808
   39POPC   H91 5236   1.738   3.078   7.295 -0.8241  0.0317 -0.0237
   39POPC  C210 5237   1.661   3.074   7.495  1.3363 -0.5122  0.0122
   39POPC  H101 5238   1.694   3.178   7.511  1.1343 -0.6910  1.7871
   39POPC  C211 5239   1.592   2.998   7.611 -0.7036  0.9612 -0.2230
   39POPC  H11R 5240   1.521   2.920   7.578  1.1227 -1.0100  0.2648
   39POPC  H11S 5241   1.539   3.069   7.679  0.7457  2.2079 -0.3220
   39POPC  C212 5242   1.693   2.927   7.700 -0.1504  0.0002 -0.4301
   39POPC  H12R 5243   1.782   2.991   7.718 -0.0196 -0.4501  0.5757
   39POPC  H12S 5244   1.742   2.842   7.649  1.2235  0.1503  0.5986
   39POPC  C213 5245   1.633   2.873   7.827  0.1495  0.2347 -0.9026
   39POPC  H13R 5246   1.556   2.945   7.863  0.6633 -0.6257  2.2320
   39POPC  H13S 5247   1.703   2.857   7.912 -0.9590 -1.6763 -0.2848
   39POPC  C214 5248   1.563   2.731   7.812  0.2086  0.0868  0.2819
   39POPC  H14R 5249   1.617   2.660   7.746 -1.2395 -0.2401 -0.6041
   39POPC  H14S 5250   1.475   2.754   7.748 -0.6845 -2.0004  0.6970
   39POPC  C215 5251   1.511   2.663   7.940 -0.1135 -0.2430 -0.5016
   39POPC  H15R 5252   1.422   2.725   7.965  1.2155  1.3014  0.6487
   39POPC  H15S 5253   1.589   2.676   8.018  0.2555 -0.1101 -0.8911
   39POPC  C216 5254   1.475   2.515   7.922  0.0766  0.2803  0.2087
   39POPC  H16R 5255   1.573   2.463   7.921 -0.4382 -0.7238 -0.6874
   39POPC  H16S 5256   1.435   2.509   7.818  1.8420  2.0092 -0.6181
   39POPC  C217 5257   1.386   2.443   8.021  0.1795 -0.2122 -0.0437
   39POPC  H17R 5258   1.283   2.484   8.029  0.7698  1.2737  0.3177
   39POPC  H17S 5259   1.436   2.460   8.119  0.2609 -0.4669 -0.0415
   39POPC  C218 5260   1.372   2.295   7.999 -0.4943 -0.3720 -0.1367
   39POPC  H18R 5261   1.322   2.235   8.079 -0.6763 -0.5945 -0.4113
   39POPC  H18S 5262   1.472   2.248   7.992  0.6044  1.5075  1.8894
   39POPC  H18T 5263   1.322   2.282   7.901 -0.5654  0.9405 -0.2857
   39POPC   C33 5264   1.526   2.097   6.631 -0.8908 -0.4871 -0.0454
   39POPC   H3X 5265   1.614   2.033   6.610 -0.0483  0.4368  0.5883
   39POPC   H3Y 5266   1.442   2.025   6.642 -0.1121 -1.0427  3.2217
   39POPC   C34 5267   1.547   2.179   6.767  0.5617 -0.6244  0.2915
   39POPC   H4X 5268   1.454   2.220   6.812  1.4444  2.3126 -0.3645
   39POPC   H4Y 5269   1.603   2.271   6.742 -1.4392  0.6980  0.4381
   39POPC   C35 5270   1.623   2.104   6.870  0.1721  0.4168  0.0975
   39POPC   H5X 5271   1.730   2.117   6.840  0.3851  0.8484  0.9903
   39POPC   H5Y 5272   1.593   1.998   6.870  0.3246  0.3731  0.2158
   39POPC   C36 5273   1.611   2.161   7.018  0.2274 -0.0751 -0.2224
   39POPC   H6X 5274   1.514   2.135   7.065 -0.8906  3.5051 -0.2053
   39POPC   H6Y 5275   1.612   2.273   7.014  1.9276 -0.0848 -1.0878
   39POPC   C37 5276   1.728   2.103   7.100 -0.4670  0.6575 -0.2603
   39POPC   H7X 5277   1.826   2.138   7.062  0.5415 -1.9868 -0.3140
   39POPC   H7Y 5278   1.735   1.993   7.093 -0.7458  0.5873  0.4458
   39POPC   C38 5279   1.707   2.133   7.247 -0.6128 -0.0200 -0.2464
   39POPC   H8X 5280   1.604   2.098   7.265  0.5224 -3.1759  0.7587
   39POPC   H8Y 5281   1.715   2.243   7.260  1.5818 -0.2294  0.6401
   39POPC   C39 5282   1.807   2.072   7.344  0.2783 -0.2709  0.3589
   39POPC   H9X 5283   1.776   2.098   7.447 -0.7705 -0.6120  0.1384
   39POPC   H9Y 5284   1.909   2.115   7.329 -0.2436  1.2653  1.0235
   39POPC  C310 5285   1.814   1.913   7.349  0.4036  0.1683 -0.5163
   39POPC  H10X 5286   1.891   1.876   7.420 -1.2588  0.8435  1.7352
   39POPC  H10Y 5287   1.840   1.875   7.247  1.0354  0.4663 -0.4745
   39POPC  C311 5288   1.677   1.854   7.391 -0.3226  0.3167  0.0449
   39POPC  H11X 5289   1.593   1.892   7.330 -0.2946  1.2770  0.5829
   39POPC  H11Y 5290   1.648   1.872   7.497 -1.0018 -0.7969  0.0606
   39POPC  C312 5291   1.669   1.698   7.385  0.6509 -0.2681 -0.5651
   39POPC  H12X 5292   1.759   1.659   7.437  0.0110 -1.5036 -0.3359
   39POPC  H12Y 5293   1.682   1.666   7.279 -0.1534 -0.7945 -0.5158
   39POPC  C313 5294   1.537   1.630   7.442 -0.2708 -0.3566 -0.0617
   39POPC  H13X 5295   1.546   1.525   7.407 -0.6694 -0.3446 -0.2078
   39POPC  H13Y 5296   1.448   1.676   7.393 -1.0358 -0.9223  0.7599
   39POPC  C314 5297   1.520   1.635   7.594 -0.3364  0.6739 -1.1461
   39POPC  H14X 5298   1.569   1.727   7.633 -1.3454  0.9975 -0.6269
   39POPC  H14Y 5299   1.566   1.548   7.646 -0.1641  0.6926 -1.2643
   39POPC  C315 5300   1.371   1.629   7.628 -0.1941 -0.1114  0.5179
   39POPC  H15X 5301   1.329   1.529   7.603  2.1951 -1.3257  1.0555
   39POPC  H15Y 5302   1.300   1.703   7.585 -3.6609 -2.7774  1.2465
   39POPC  C316 5303   1.341   1.643   7.780 -0.2991 -1.1221  0.2245
   39POPC  H16X 5304   1.232   1.648   7.802 -0.1036 -2.2596  1.5439
   39POPC  H16Y 5305   1.386   1.734   7.826 -1.2369 -0.6001  0.1433
   39POPC  H16Z 5306   1.382   1.555   7.833  0.5104 -0.4639  0.7258
   40POPC     N 5307   6.835   0.837   6.131  0.4200 -0.0890 -0.5879
   40POPC   C12 5308   6.956   0.888   6.204  0.0511  0.2695  0.5268
   40POPC  H12A 5309   7.020   0.953   6.147  0.7824  0.3964  1.4598
   40POPC  H12B 5310   7.021   0.806   6.229 -2.4335 -2.7472 -2.0657
   40POPC   C13 5311   6.747   0.744   6.216 -0.4349 -0.5130 -0.4079
   40POPC  H13A 5312   6.814   0.665   6.248  1.7754  1.5127  0.3280
   40POPC  H13B 5313   6.707   0.797   6.302  0.3912  1.9409 -1.4459
   40POPC  H13C 5314   6.674   0.695   6.155 -1.2562  0.1957 -0.0104
   40POPC   C14 5315   6.742   0.945   6.096 -0.3698 -0.5638 -0.5768
   40POPC  H14A 5316   6.654   0.921   6.038 -0.1131 -0.8862 -0.8315
   40POPC  H14B 5317   6.711   1.002   6.183 -1.4731 -1.2612 -0.4806
   40POPC  H14C 5318   6.795   1.016   6.035 -1.4638  0.7252 -0.0846
   40POPC   C15 5319   6.873   0.756   6.008  0.0074 -0.5903  0.2580
   40POPC  H15A 5320   6.951   0.686   6.032  2.8270  2.0340 -0.5969
   40POPC  H15B 5321   6.910   0.825   5.934 -0.5223 -1.0676 -0.4567
   40POPC  H15C 5322   6.792   0.696   5.969  1.9603 -3.2203  0.0090
   40POPC   C11 5323   6.932   0.967   6.331 -0.1836 -0.5570 -0.2183
   40POPC  H11A 5324   7.035   0.991   6.367  0.4498 -2.2932 -0.7787
   40POPC  H11B 5325   6.883   0.909   6.412  1.0863 -1.1487  0.1512
   40POPC     P 5326   6.939   1.220   6.260 -0.1612 -0.3019 -0.1962
   40POPC   O13 5327   6.844   1.319   6.203 -0.2694 -0.7996 -0.2473
   40POPC   O14 5328   7.059   1.194   6.179 -0.3197  0.0630  0.0508
   40POPC   O12 5329   6.866   1.089   6.299 -0.1063  0.4597  0.1232
   40POPC   O11 5330   6.983   1.264   6.402  0.7260  0.5920 -0.2134
   40POPC    C1 5331   6.881   1.283   6.500 -0.1041  0.9759  0.4085
   40POPC    HA 5332   6.821   1.191   6.512  1.3241 -0.2844 -1.5521
   40POPC    HB 5333   6.819   1.373   6.481 -2.0935  0.6123  4.1602
   40POPC    C2 5334   6.954   1.313   6.634  0.4983 -0.4236 -0.2810
   40POPC    HS 5335   7.019   1.402   6.623 -0.4470  0.3107 -0.0075
   40POPC   O21 5336   7.027   1.193   6.668  0.2215 -0.7184 -0.4287
   40POPC   C21 5337   7.149   1.180   6.625 -0.6240  0.1343 -0.5325
   40POPC   O22 5338   7.212   1.278   6.588 -0.0997 -0.0820 -0.3362
   40POPC   C22 5339   7.197   1.036   6.628 -0.5178  0.0754  0.4792
   40POPC   H2R 5340   7.228   1.006   6.526 -3.0924 -0.3126 -0.2599
   40POPC   H2S 5341   7.110   0.969   6.645  0.3966 -1.7272 -1.5260
   40POPC    C3 5342   6.854   1.347   6.747  0.1987 -0.3039  0.0820
   40POPC    HX 5343   6.777   1.267   6.752 -1.6862  1.3116 -1.3916
   40POPC    HY 5344   6.800   1.440   6.720 -1.1460 -0.3950  2.2983
   40POPC   O31 5345   6.917   1.350   6.877 -0.3023 -0.3408  0.3109
   40POPC   C31 5346   7.002   1.456   6.899  0.0821 -0.4545 -0.9641
   40POPC   O32 5347   7.017   1.546   6.819 -0.1628  0.4493 -0.0966
   40POPC   C32 5348   7.065   1.454   7.038  0.6254  0.6808  0.2837
   40POPC   H2X 5349   6.992   1.401   7.102 -0.5266  0.9298 -0.7937
   40POPC   H2Y 5350   7.078   1.563   7.060  1.2113  0.7357 -0.3161
   40POPC   C23 5351   7.296   1.004   6.745  0.3212  0.3499  0.2370
   40POPC   H3R 5352   7.387   1.068   6.740  1.3396 -0.7642  2.7424
   40POPC   H3S 5353   7.331   0.899   6.735  4.2751  1.4256  1.0669
   40POPC   C24 5354   7.227   1.016   6.881  0.1444  0.1423  0.6360
   40POPC   H4R 5355   7.139   0.948   6.889  0.2196  0.0029  0.3096
   40POPC   H4S 5356   7.187   1.115   6.911  0.9313  0.8611 -0.6043
   40POPC   C25 5357   7.328   0.988   6.991 -0.3482  0.4599  0.2078
   40POPC   H5R 5358   7.408   1.064   6.979 -0.6824  0.8827  0.5967
   40POPC   H5S 5359   7.365   0.884   6.977 -0.7271  0.5961 -2.4358
   40POPC   C26 5360   7.264   1.002   7.135 -0.3565 -0.8117  0.0510
   40POPC   H6R 5361   7.153   0.990   7.135 -0.3664 -0.8038 -1.1482
   40POPC   H6S 5362   7.275   1.110   7.158  0.6474 -0.5402 -1.6048
   40POPC   C27 5363   7.338   0.908   7.240  0.5613  0.1073  0.4441
   40POPC   H7R 5364   7.448   0.924   7.235  0.6766 -1.0021 -1.5208
   40POPC   H7S 5365   7.329   0.801   7.212 -1.6333  0.2919  0.2761
   40POPC   C28 5366   7.282   0.911   7.385 -0.4895  0.7377  0.1042
   40POPC   H8R 5367   7.171   0.901   7.378 -0.2492 -0.9906 -2.2378
   40POPC   H8S 5368   7.295   1.015   7.422  0.7967  0.2053  1.1911
   40POPC   C29 5369   7.330   0.808   7.478 -0.0873  0.5243 -0.6884
   40POPC   H91 5370   7.261   0.724   7.494 -0.0853  0.0772 -2.7674
   40POPC  C210 5371   7.447   0.807   7.540 -0.1994 -0.3964 -0.1449
   40POPC  H101 5372   7.474   0.737   7.620 -0.1673 -0.0752  0.1309
   40POPC  C211 5373   7.548   0.916   7.524  0.5628  0.7162  0.2715
   40POPC  H11R 5374   7.546   0.979   7.433 -0.9675 -2.9333 -2.4317
   40POPC  H11S 5375   7.642   0.858   7.521  0.4606  0.4971  1.0436
   40POPC  C212 5376   7.555   1.007   7.652 -0.0106  0.4542  0.3659
   40POPC  H12R 5377   7.564   0.947   7.744 -1.1085 -1.7933 -0.9012
   40POPC  H12S 5378   7.454   1.054   7.662 -0.4587 -0.7975  2.2301
   40POPC  C213 5379   7.676   1.102   7.632 -0.3502  1.1857 -0.3891
   40POPC  H13R 5380   7.666   1.160   7.538 -0.2605 -0.0970 -1.2188
   40POPC  H13S 5381   7.772   1.050   7.612 -0.3116  0.9362  0.3861
   40POPC  C214 5382   7.679   1.184   7.765  0.0956 -0.3703 -0.8405
   40POPC  H14R 5383   7.690   1.106   7.843  1.2642  1.0258  0.4826
   40POPC  H14S 5384   7.580   1.230   7.786 -0.1705 -1.0790 -0.5057
   40POPC  C215 5385   7.800   1.271   7.774 -1.3682  0.4932 -0.5535
   40POPC  H15R 5386   7.806   1.347   7.694  1.3300  0.4013 -0.5343
   40POPC  H15S 5387   7.891   1.210   7.754 -1.2553  1.1400 -2.0946
   40POPC  C216 5388   7.811   1.355   7.910  0.0775  0.3972  0.0779
   40POPC  H16R 5389   7.712   1.405   7.922 -0.9359 -0.0725 -4.5306
   40POPC  H16S 5390   7.895   1.427   7.906  1.0794 -0.7177  0.5822
   40POPC  C217 5391   7.861   1.263   8.029  0.4333 -0.9823  0.4185
   40POPC  H17R 5392   7.949   1.208   7.989  1.0093 -0.4280  0.9135
   40POPC  H17S 5393   7.784   1.187   8.051 -0.8406  0.3596  0.7441
   40POPC  C218 5394   7.879   1.345   8.151  0.1862 -0.8946  0.4128
   40POPC  H18R 5395   7.788   1.399   8.183  1.3146  0.9800  0.6150
   40POPC  H18S 5396   7.958   1.422   8.137 -0.4822  0.3240  2.9032
   40POPC  H18T 5397   7.922   1.280   8.231 -0.1989 -0.0459  1.3176
   40POPC   C33 5398   7.204   1.403   7.041  0.4702  0.1216  0.3250
   40POPC   H3X 5399   7.271   1.454   6.968 -1.8433  0.5273 -1.6033
   40POPC   H3Y 5400   7.206   1.293   7.024  3.0779  0.1157  0.1520
   40POPC   C34 5401   7.272   1.429   7.180 -0.3886  0.6987  0.0514
   40POPC   H4X 5402   7.280   1.537   7.202  0.5487  1.0154 -1.7098
   40POPC   H4Y 5403   7.373   1.383   7.183 -0.4307  0.6581  1.5836
   40POPC   C35 5404   7.198   1.363   7.300  0.2214 -0.1750 -0.4799
   40POPC   H5X 5405   7.164   1.263   7.265 -1.3516 -0.3244  1.3187
   40POPC   H5Y 5406   7.115   1.435   7.318  0.3506 -0.3490  0.9686
   40POPC   C36 5407   7.279   1.337   7.430 -0.7391 -0.3563  0.2162
   40POPC   H6X 5408   7.387   1.362   7.421 -1.2872  2.0007 -0.5994
   40POPC   H6Y 5409   7.288   1.229   7.455  0.2786 -0.5489 -0.8816
   40POPC   C37 5410   7.222   1.411   7.550 -0.4661 -0.5720 -0.5977
   40POPC   H7X 5411   7.211   1.520   7.528  1.2652  0.3022  2.2469
   40POPC   H7Y 5412   7.292   1.399   7.636 -0.2493  0.7840 -0.5583
   40POPC   C38 5413   7.084   1.369   7.596  0.4208  0.0489 -0.0435
   40POPC   H8X 5414   7.084   1.258   7.585  2.9062  0.0877 -1.0458
   40POPC   H8Y 5415   7.013   1.401   7.517 -0.4603 -0.4443  0.5332
   40POPC   C39 5416   7.052   1.426   7.735  0.6883  0.0603  0.2692
   40POPC   H9X 5417   7.116   1.375   7.810  0.0766 -0.9664  0.1232
   40POPC   H9Y 5418   6.948   1.393   7.753  0.9046 -2.0638 -1.8421
   40POPC  C310 5419   7.042   1.576   7.752  0.0890 -0.6042  0.9239
   40POPC  H10X 5420   7.000   1.614   7.657  0.4350 -1.1615  0.5371
   40POPC  H10Y 5421   7.144   1.621   7.757  0.6073 -1.1065 -2.4550
   40POPC  C311 5422   6.951   1.623   7.863 -0.2750  0.7446 -0.1713
   40POPC  H11X 5423   6.848   1.585   7.846  0.6677 -1.9430 -0.2793
   40POPC  H11Y 5424   6.945   1.734   7.865  0.3440  0.7836  1.1848
   40POPC  C312 5425   6.994   1.571   8.001  0.0035 -0.8124 -0.0608
   40POPC  H12X 5426   7.102   1.596   8.009  0.3623 -0.5078 -4.0254
   40POPC  H12Y 5427   6.991   1.461   8.017  0.4935 -0.7608  0.4130
   40POPC  C313 5428   6.920   1.622   8.125 -0.7837 -0.3880 -0.2969
   40POPC  H13X 5429   6.815   1.586   8.125 -0.2771 -1.9874  0.6112
   40POPC  H13Y 5430   6.925   1.732   8.129  1.0008 -0.4430  0.0550
   40POPC  C314 5431   6.981   1.583   8.257 -0.5287 -0.3146 -0.9426
   40POPC  H14X 5432   7.090   1.604   8.247  0.0467 -2.5720 -0.0758
   40POPC  H14Y 5433   6.965   1.474   8.275  0.3727 -0.0304  2.0790
   40POPC  C315 5434   6.933   1.676   8.370 -0.8442  0.0260 -0.5045
   40POPC  H15X 5435   6.949   1.783   8.343 -0.0339  0.1577  0.4062
   40POPC  H15Y 5436   7.009   1.672   8.451 -1.0430  2.1485 -0.1582
   40POPC  C316 5437   6.792   1.645   8.414  0.4714  0.0624  0.1838
   40POPC  H16X 5438   6.790   1.534   8.421  1.9832  0.0083  0.0019
   40POPC  H16Y 5439   6.723   1.658   8.328  0.4237 -0.3146  0.1632
   40POPC  H16Z 5440   6.750   1.696   8.504 -1.4873  1.9757 -1.7109
   41CHL1    C3 5441   4.543   2.065  10.087  0.8830  0.0520 -0.0016
   41CHL1    H3 5442   4.522   2.172  10.109 -0.2168 -0.4628  1.5993
   41CHL1    O3 5443   4.552   1.991  10.212  0.7153  0.0543  0.0868
   41CHL1   H3' 5444   4.646   1.998  10.229  0.3730  1.4565  1.7703
   41CHL1    C4 5445   4.411   2.017  10.018 -0.4075 -0.6889 -0.9179
   41CHL1   H4A 5446   4.410   1.911   9.985 -4.4254 -0.2951 -2.6343
   41CHL1   H4B 5447   4.329   2.029  10.091 -1.1484 -1.0004 -1.6803
   41CHL1    C5 5448   4.385   2.088   9.884 -0.1392  0.2234  0.2070
   41CHL1    C6 5449   4.281   2.170   9.851  0.2345  0.1832 -0.8123
   41CHL1    H6 5450   4.221   2.186   9.941  1.3456 -0.9228  0.1579
   41CHL1    C7 5451   4.262   2.246   9.726  0.8742  0.8348 -0.4506
   41CHL1   H7A 5452   4.153   2.238   9.703  0.6367  2.4853 -0.0303
   41CHL1   H7B 5453   4.291   2.348   9.758 -0.9005  1.2257  0.0407
   41CHL1    C8 5454   4.351   2.195   9.613 -0.1473  0.1171 -0.8472
   41CHL1    H8 5455   4.311   2.095   9.586 -1.0987  0.3255 -0.2415
   41CHL1   C14 5456   4.343   2.291   9.495 -0.2270 -0.5082 -1.2103
   41CHL1   H14 5457   4.374   2.391   9.532  2.0479 -0.3326 -3.3649
   41CHL1   C15 5458   4.202   2.314   9.439 -0.5021 -0.4005 -0.0028
   41CHL1  H15A 5459   4.149   2.218   9.423  0.3470 -1.4010  2.6128
   41CHL1  H15B 5460   4.144   2.381   9.505  2.6207  0.8687  1.6472
   41CHL1   C16 5461   4.236   2.387   9.302 -0.3087  0.0194  0.0912
   41CHL1  H16A 5462   4.178   2.336   9.221  0.4361  2.3371 -2.0276
   41CHL1  H16B 5463   4.193   2.490   9.300  1.9085  0.9938 -0.7480
   41CHL1   C17 5464   4.392   2.389   9.285  0.6548 -0.3521 -1.2022
   41CHL1   H17 5465   4.426   2.484   9.333 -0.7545 -1.1500  1.5844
   41CHL1   C13 5466   4.442   2.277   9.377  0.1868 -0.5171  0.0812
   41CHL1   C18 5467   4.414   2.141   9.306  0.1865 -1.4178 -0.2835
   41CHL1  H18A 5468   4.320   2.140   9.248 -0.3638  0.1993  0.5123
   41CHL1  H18B 5469   4.492   2.106   9.236  1.4033 -1.5856  1.0970
   41CHL1  H18C 5470   4.401   2.058   9.379  1.7257  0.1180  1.8784
   41CHL1   C12 5471   4.587   2.287   9.444 -0.3928  0.5981  0.7305
   41CHL1  H12A 5472   4.666   2.262   9.371 -1.8613  1.7804 -1.3796
   41CHL1  H12B 5473   4.595   2.387   9.491 -1.1515 -0.5415  3.5020
   41CHL1   C11 5474   4.597   2.164   9.552 -0.2824 -0.1031 -0.0691
   41CHL1  H11A 5475   4.581   2.063   9.508  1.1386  0.2034 -1.3779
   41CHL1  H11B 5476   4.700   2.179   9.591  0.6718 -0.8475 -2.1839
   41CHL1    C9 5477   4.492   2.174   9.670  0.8012  0.7693 -0.0915
   41CHL1    H9 5478   4.509   2.271   9.722  1.5799  0.9686 -0.7038
   41CHL1   C10 5479   4.503   2.069   9.790 -0.0564  0.3977  0.3820
   41CHL1   C19 5480   4.509   1.931   9.716 -0.3630  0.7205 -0.0526
   41CHL1  H19A 5481   4.516   1.849   9.790 -1.2478  1.0349  0.3915
   41CHL1  H19B 5482   4.414   1.915   9.660  0.3832  0.4921 -1.3063
   41CHL1  H19C 5483   4.588   1.932   9.637 -0.7524 -0.3016 -0.4691
   41CHL1    C1 5484   4.634   2.107   9.864  0.3671 -0.9662  0.2867
   41CHL1   H1A 5485   4.729   2.107   9.807  0.1683 -0.7211 -0.0487
   41CHL1   H1B 5486   4.621   2.211   9.899  0.0617 -0.9596  0.1636
   41CHL1    C2 5487   4.650   2.032   9.991 -0.1663  0.3522 -0.2285
   41CHL1   H2A 5488   4.737   2.071  10.048 -0.0614 -1.5733  1.0069
   41CHL1   H2B 5489   4.666   1.923   9.977  3.0930  0.8872 -1.6962
   41CHL1   C20 5490   4.431   2.398   9.141 -0.0242  0.1395  0.5032
   41CHL1   H20 5491   4.402   2.298   9.100  1.3878 -0.1864  0.2534
   41CHL1   C21 5492   4.586   2.408   9.134  0.4098 -0.1930 -0.0439
   41CHL1  H21A 5493   4.625   2.500   9.182 -2.0082 -0.1565  2.1098
   41CHL1  H21B 5494   4.616   2.400   9.028 -0.8439 -0.1853 -0.4098
   41CHL1  H21C 5495   4.637   2.321   9.181  1.1151  1.0845  1.6539
   41CHL1   C22 5496   4.368   2.505   9.053  0.0769 -0.2568 -0.3986
   41CHL1  H22A 5497   4.257   2.505   9.052  0.0658 -0.9000  0.0672
   41CHL1  H22B 5498   4.406   2.601   9.094 -1.4169 -0.3537  1.3472
   41CHL1   C23 5499   4.407   2.496   8.903  0.1984 -0.3689 -0.0537
   41CHL1  H23A 5500   4.349   2.580   8.860  1.2955  0.5710  0.2616
   41CHL1  H23B 5501   4.511   2.530   8.884 -0.3389 -0.4859 -4.1149
   41CHL1   C24 5502   4.393   2.358   8.826 -0.1433 -0.0273  0.3085
   41CHL1  H24A 5503   4.440   2.379   8.728  1.3142 -1.8059  0.5839
   41CHL1  H24B 5504   4.449   2.284   8.888 -0.9064 -0.2383  0.7636
   41CHL1   C25 5505   4.249   2.306   8.810  0.0415 -0.3088 -0.5277
   41CHL1   H25 5506   4.213   2.313   8.915  0.3240  0.4482 -0.4780
   41CHL1   C26 5507   4.156   2.388   8.731 -0.1463  0.8968 -0.1953
   41CHL1  H26A 5508   4.188   2.403   8.626  1.8657 -0.6104  0.1499
   41CHL1  H26B 5509   4.057   2.337   8.724 -0.8083  1.5486  2.9750
   41CHL1  H26C 5510   4.139   2.482   8.788  0.8749 -0.8141  3.2099
   41CHL1   C27 5511   4.244   2.167   8.762 -0.0656 -0.3884  0.6682
   41CHL1  H27A 5512   4.280   2.158   8.657  0.2113 -0.4304  0.7670
   41CHL1  H27B 5513   4.309   2.109   8.830 -0.5368 -1.5239  0.1720
   41CHL1  H27C 5514   4.144   2.122   8.776 -0.1661 -0.0505  1.0603
   42CHL1    C3 5515   1.948   1.179  10.134  0.0186 -0.7565  0.0609
   42CHL1    H3 5516   1.845   1.200  10.095  0.5967  3.7008  0.3807
   42CHL1    O3 5517   1.954   1.250  10.260  0.1811  0.1030  0.7521
   42CHL1   H3' 5518   2.038   1.243  10.306 -0.8529 -1.1564  2.5778
   42CHL1    C4 5519   1.983   1.026  10.141 -0.1171  0.2820  0.0032
   42CHL1   H4A 5520   2.090   1.028  10.170  0.7085  1.0105 -2.7798
   42CHL1   H4B 5521   1.917   0.982  10.219 -0.0664 -0.9412 -0.6335
   42CHL1    C5 5522   1.977   0.954  10.007  0.1852  0.1039 -0.2536
   42CHL1    C6 5523   1.896   0.845   9.999  0.1350 -0.3278  0.0743
   42CHL1    H6 5524   1.840   0.816  10.089  0.8485 -3.1310 -0.2678
   42CHL1    C7 5525   1.879   0.773   9.863  0.6223  0.3569 -0.2238
   42CHL1   H7A 5526   1.892   0.663   9.871  2.5678  0.6357  0.9844
   42CHL1   H7B 5527   1.776   0.799   9.831  1.0079 -0.0458 -1.9029
   42CHL1    C8 5528   1.976   0.817   9.753 -0.2751 -0.9613 -0.7913
   42CHL1    H8 5529   2.071   0.764   9.772 -1.4150 -2.3737  1.4251
   42CHL1   C14 5530   1.935   0.774   9.612  0.3595  0.1783  0.2703
   42CHL1   H14 5531   1.845   0.834   9.588 -0.1750 -1.1563 -1.2530
   42CHL1   C15 5532   1.890   0.626   9.587  0.3185  0.3685  0.0069
   42CHL1  H15A 5533   1.976   0.567   9.625  1.6030  2.3118  0.2389
   42CHL1  H15B 5534   1.793   0.586   9.624 -0.4984  1.9924 -0.3105
   42CHL1   C16 5535   1.897   0.618   9.436  0.2513  0.1938 -0.4994
   42CHL1  H16A 5536   1.963   0.529   9.426 -1.2260 -1.2450  1.7655
   42CHL1  H16B 5537   1.801   0.599   9.384 -0.0117  1.9825 -0.7522
   42CHL1   C17 5538   1.955   0.747   9.376 -1.0094  0.2225 -0.3971
   42CHL1   H17 5539   1.863   0.805   9.355 -1.3326 -0.2646 -0.3512
   42CHL1   C13 5540   2.031   0.812   9.496 -0.4275  0.9118  0.5275
   42CHL1   C18 5541   2.167   0.737   9.509  0.3479 -0.5601  0.0301
   42CHL1  H18A 5542   2.215   0.750   9.609 -0.5642  0.4554  0.3587
   42CHL1  H18B 5543   2.156   0.630   9.481  1.8658 -0.2242 -2.1237
   42CHL1  H18C 5544   2.240   0.769   9.431  2.8484 -2.2226  1.5361
   42CHL1   C12 5545   2.048   0.966   9.493 -0.0950 -0.3602 -0.5062
   42CHL1  H12A 5546   2.127   0.990   9.418  0.2957  3.8818  1.0123
   42CHL1  H12B 5547   1.962   1.033   9.474  2.5357  3.6294  0.3386
   42CHL1   C11 5548   2.079   1.026   9.635 -0.3435 -0.2444  0.2191
   42CHL1  H11A 5549   2.179   0.979   9.650  0.3837  0.2297 -2.6097
   42CHL1  H11B 5550   2.081   1.137   9.626  2.5104 -0.0632  1.7295
   42CHL1    C9 5551   1.995   0.972   9.759  0.3955 -0.2113 -0.1439
   42CHL1    H9 5552   1.895   1.019   9.754 -0.0286 -1.1778 -1.5292
   42CHL1   C10 5553   2.053   1.031   9.893  0.5571  0.6082 -0.4364
   42CHL1   C19 5554   2.205   0.994   9.905 -0.4864  0.3146  0.5057
   42CHL1  H19A 5555   2.268   1.036   9.824 -2.3800 -0.6676 -1.5794
   42CHL1  H19B 5556   2.242   1.029  10.004  2.5028  0.1179 -0.4512
   42CHL1  H19C 5557   2.218   0.884   9.909  0.7328  0.3263 -1.8477
   42CHL1    C1 5558   2.037   1.183   9.895 -0.0324 -0.0840  1.2547
   42CHL1   H1A 5559   2.115   1.234   9.834 -1.3912  0.4294 -0.1094
   42CHL1   H1B 5560   1.944   1.207   9.840  2.0585  1.3571 -1.9531
   42CHL1    C2 5561   2.045   1.248  10.033 -0.9135  0.0675  0.1116
   42CHL1   H2A 5562   2.007   1.352  10.026 -0.6603  0.0615 -2.7407
   42CHL1   H2B 5563   2.150   1.249  10.070 -0.9927  3.2783  0.4804
   42CHL1   C20 5564   2.016   0.729   9.239 -0.4709  0.3784 -0.0942
   42CHL1   H20 5565   2.121   0.695   9.246 -0.6300 -0.1224 -0.0732
   42CHL1   C21 5566   2.009   0.863   9.173 -0.4211  0.3889  0.5428
   42CHL1  H21A 5567   2.077   0.930   9.228 -0.3142 -0.4399  1.4468
   42CHL1  H21B 5568   1.907   0.905   9.164 -1.4574 -2.1223 -0.5075
   42CHL1  H21C 5569   2.045   0.845   9.069 -0.2011 -0.6520  0.7878
   42CHL1   C22 5570   1.959   0.616   9.156  0.2844 -0.2187 -0.1295
   42CHL1  H22A 5571   1.986   0.514   9.191  2.6801  0.1593 -0.7531
   42CHL1  H22B 5572   1.848   0.629   9.163  0.4128 -0.0079  3.8057
   42CHL1   C23 5573   2.014   0.600   9.011 -0.3106 -0.5229 -0.3885
   42CHL1  H23A 5574   1.965   0.662   8.933 -2.3046 -0.4484  0.8507
   42CHL1  H23B 5575   2.119   0.637   9.019 -0.5635  0.0313  0.5669
   42CHL1   C24 5576   2.029   0.458   8.955 -0.1730 -0.0297 -0.7481
   42CHL1  H24A 5577   2.106   0.409   9.018 -0.6231 -0.6197 -0.6434
   42CHL1  H24B 5578   1.935   0.400   8.972  0.8952 -2.0805 -1.5487
   42CHL1   C25 5579   2.064   0.463   8.804  0.8773  0.4073 -0.0900
   42CHL1   H25 5580   1.974   0.512   8.761 -0.9709 -1.3754  1.5772
   42CHL1   C26 5581   2.188   0.544   8.769 -0.1514 -0.1662 -0.2648
   42CHL1  H26A 5582   2.182   0.647   8.810  1.1825  0.4486 -1.5118
   42CHL1  H26B 5583   2.284   0.500   8.803  0.9276  2.1808 -0.0264
   42CHL1  H26C 5584   2.204   0.556   8.659  0.7781 -2.4925 -0.4507
   42CHL1   C27 5585   2.068   0.316   8.761 -0.3353 -0.4737 -0.8635
   42CHL1  H27A 5586   2.160   0.277   8.807  1.5863  5.1058  0.7980
   42CHL1  H27B 5587   1.984   0.251   8.794  0.1502 -1.2893 -1.2218
   42CHL1  H27C 5588   2.061   0.299   8.651  0.3177 -0.5504 -0.8925
   43CHL1    C3 5589   5.992   1.782   9.993  0.1605  0.4023  0.0664
   43CHL1    H3 5590   5.931   1.706   9.939  1.3862  0.4212 -1.4179
   43CHL1    O3 5591   6.043   1.730  10.105 -0.3816  0.5639 -0.9113
   43CHL1   H3' 5592   5.969   1.704  10.159  1.4272  0.4118  1.6639
   43CHL1    C4 5593   6.108   1.795   9.895 -0.1269 -0.0602  0.5829
   43CHL1   H4A 5594   6.192   1.855   9.938  1.9037 -1.4919 -1.1577
   43CHL1   H4B 5595   6.151   1.693   9.888 -3.2964 -1.3751 -1.5818
   43CHL1    C5 5596   6.074   1.852   9.758  0.0057 -0.1733  0.0619
   43CHL1    C6 5597   6.118   1.793   9.640  0.2929 -0.1381 -0.4254
   43CHL1    H6 5598   6.183   1.705   9.651  0.4024 -0.0806 -0.6031
   43CHL1    C7 5599   6.074   1.847   9.507  0.4863 -0.0042  0.6256
   43CHL1   H7A 5600   6.156   1.843   9.431 -1.7596  1.5938 -2.0788
   43CHL1   H7B 5601   5.999   1.778   9.464 -0.0510  0.1349  1.3261
   43CHL1    C8 5602   6.021   1.990   9.505 -0.0559 -0.5479 -0.4384
   43CHL1    H8 5603   6.101   2.065   9.520 -1.4483  0.7095  0.9954
   43CHL1   C14 5604   5.948   2.025   9.377  0.0225 -0.5415  0.3945
   43CHL1   H14 5605   5.859   1.961   9.358  0.9703 -1.7550 -0.1167
   43CHL1   C15 5606   6.026   2.010   9.246  0.0986 -0.4800  0.4730
   43CHL1  H15A 5607   6.121   2.066   9.257 -0.3638  0.3383  0.3856
   43CHL1  H15B 5608   6.048   1.907   9.210 -2.4114 -0.7152 -0.5900
   43CHL1   C16 5609   5.930   2.087   9.147  0.3347  0.6580 -0.5551
   43CHL1  H16A 5610   5.989   2.133   9.065  2.0235 -1.0970 -0.4136
   43CHL1  H16B 5611   5.867   2.012   9.095  1.2860  0.8978 -2.1152
   43CHL1   C17 5612   5.832   2.172   9.227  0.1143  0.2242 -0.2198
   43CHL1   H17 5613   5.741   2.112   9.246 -1.3248  2.9036  2.1111
   43CHL1   C13 5614   5.887   2.166   9.372 -0.6329  0.1079 -0.1377
   43CHL1   C18 5615   5.998   2.274   9.380 -0.3506 -0.0321 -0.6088
   43CHL1  H18A 5616   6.064   2.262   9.469  0.3088 -3.6355 -1.4037
   43CHL1  H18B 5617   6.061   2.275   9.289  0.5295 -1.1878 -0.0419
   43CHL1  H18C 5618   5.950   2.373   9.394 -0.4006 -0.2990  1.4718
   43CHL1   C12 5619   5.781   2.177   9.488 -0.9739 -0.5024  0.1691
   43CHL1  H12A 5620   5.737   2.279   9.487 -0.7958 -0.3636 -2.4973
   43CHL1  H12B 5621   5.697   2.110   9.462 -1.2549 -0.3806  0.7548
   43CHL1   C11 5622   5.847   2.142   9.620 -0.2809 -0.3475 -0.1505
   43CHL1  H11A 5623   5.914   2.228   9.639 -0.7928  0.1454 -0.5527
   43CHL1  H11B 5624   5.772   2.155   9.700  0.0221  2.9385 -0.2902
   43CHL1    C9 5625   5.921   2.010   9.626 -0.1152  0.1540  0.3037
   43CHL1    H9 5626   5.839   1.936   9.619  0.9774 -1.0708  0.2805
   43CHL1   C10 5627   5.982   1.977   9.762  0.4650 -0.9309  0.0275
   43CHL1   C19 5628   6.070   2.099   9.804 -0.0033 -0.5282 -0.2259
   43CHL1  H19A 5629   6.136   2.071   9.889  2.3322  2.5866 -0.8524
   43CHL1  H19B 5630   6.138   2.125   9.720 -1.4026  0.1977 -1.1802
   43CHL1  H19C 5631   6.010   2.186   9.834  0.2091  0.0922 -1.5177
   43CHL1    C1 5632   5.871   1.963   9.872  0.3147  0.7989 -0.1461
   43CHL1   H1A 5633   5.815   2.059   9.875 -2.4277 -0.6272 -2.0735
   43CHL1   H1B 5634   5.789   1.893   9.847 -0.3655  2.3482 -2.5704
   43CHL1    C2 5635   5.923   1.917  10.009  0.2412 -0.0703  0.2612
   43CHL1   H2A 5636   5.838   1.913  10.080  1.1911  0.1729  1.4587
   43CHL1   H2B 5637   6.000   1.989  10.045  1.7699 -1.9398  0.8972
   43CHL1   C20 5638   5.797   2.308   9.158  0.6447 -0.6177 -0.4868
   43CHL1   H20 5639   5.878   2.376   9.191 -0.4355  0.6518 -0.3786
   43CHL1   C21 5640   5.661   2.358   9.214 -0.7438  0.2151  0.3068
   43CHL1  H21A 5641   5.663   2.366   9.325 -0.6135 -2.8849  0.6088
   43CHL1  H21B 5642   5.574   2.294   9.189  0.5967 -1.2054 -0.8983
   43CHL1  H21C 5643   5.630   2.454   9.168  0.8926 -0.6856 -2.9792
   43CHL1   C22 5644   5.785   2.309   8.997  0.6472 -0.4343 -0.3385
   43CHL1  H22A 5645   5.882   2.269   8.960  0.9113 -0.4409  0.3316
   43CHL1  H22B 5646   5.706   2.238   8.966 -0.3051 -0.4278  1.8381
   43CHL1   C23 5647   5.767   2.448   8.935 -0.1757  0.3461  0.2128
   43CHL1  H23A 5648   5.662   2.480   8.951 -0.1338  0.2362  0.7138
   43CHL1  H23B 5649   5.842   2.514   8.983 -2.2720  0.6726  3.3357
   43CHL1   C24 5650   5.798   2.438   8.784  0.3866 -0.0419  0.3414
   43CHL1  H24A 5651   5.908   2.419   8.782  0.1733 -1.4079 -0.0879
   43CHL1  H24B 5652   5.752   2.344   8.746 -0.9361  0.3067  1.0482
   43CHL1   C25 5653   5.756   2.548   8.685  0.2747  0.2916  0.4157
   43CHL1   H25 5654   5.808   2.640   8.719  1.3121  0.3279 -1.1689
   43CHL1   C26 5655   5.814   2.535   8.541  0.6574 -0.6236  0.0249
   43CHL1  H26A 5656   5.782   2.609   8.465 -1.4914 -2.3921 -0.9084
   43CHL1  H26B 5657   5.925   2.538   8.538  0.6492  1.2350  0.3504
   43CHL1  H26C 5658   5.784   2.434   8.504  0.2380  0.9230 -4.3944
   43CHL1   C27 5659   5.602   2.571   8.676  0.1712  0.3741  0.4231
   43CHL1  H27A 5660   5.564   2.471   8.647 -0.2237  0.7106 -0.2373
   43CHL1  H27B 5661   5.561   2.595   8.776  1.3771 -0.6115  1.1871
   43CHL1  H27C 5662   5.583   2.653   8.604  0.3349  0.8092  0.8677
   44CHL1    C3 5663   0.395   3.743  10.069  0.7202 -0.4860 -0.7057
   44CHL1    H3 5664   0.354   3.836  10.025  0.5474  0.1463  0.7220
   44CHL1    O3 5665   0.375   3.770  10.208 -0.3055 -0.6969 -0.0373
   44CHL1   H3' 5666   0.411   3.688  10.243 -0.0849  0.1514  1.8889
   44CHL1    C4 5667   0.314   3.616  10.033  0.0726 -0.3360 -0.8404
   44CHL1   H4A 5668   0.359   3.530  10.088 -0.9589 -1.2339 -1.3816
   44CHL1   H4B 5669   0.214   3.640  10.074  1.1225  1.5449  0.8055
   44CHL1    C5 5670   0.311   3.576   9.884  0.5840  0.1182 -0.8024
   44CHL1    C6 5671   0.201   3.583   9.809 -0.0774  0.7062  0.8204
   44CHL1    H6 5672   0.103   3.613   9.850 -1.8131 -0.3573 -2.2386
   44CHL1    C7 5673   0.200   3.554   9.663 -0.5145 -0.7478  0.2312
   44CHL1   H7A 5674   0.112   3.499   9.624  0.9190 -1.8689 -1.6705
   44CHL1   H7B 5675   0.199   3.652   9.611  0.9135 -0.7733  0.0906
   44CHL1    C8 5676   0.339   3.497   9.615 -0.1591  0.1469 -0.5280
   44CHL1    H8 5677   0.336   3.388   9.638  1.6281  0.3925  1.1816
   44CHL1   C14 5678   0.341   3.515   9.466  0.8148  0.5562  0.0230
   44CHL1   H14 5679   0.333   3.620   9.432 -1.3156  0.3412 -0.2758
   44CHL1   C15 5680   0.227   3.455   9.377  0.3545 -0.7467  1.1013
   44CHL1  H15A 5681   0.193   3.355   9.409  1.3745 -1.1242  1.0369
   44CHL1  H15B 5682   0.143   3.526   9.394  1.4248  0.2075  2.6681
   44CHL1   C16 5683   0.290   3.462   9.234  0.0417  0.2967 -0.0005
   44CHL1  H16A 5684   0.274   3.362   9.189  0.5837 -0.4883  1.4844
   44CHL1  H16B 5685   0.254   3.546   9.171  0.5374  1.9667  1.8697
   44CHL1   C17 5686   0.443   3.487   9.259 -0.3841  0.2809 -0.0937
   44CHL1   H17 5687   0.443   3.598   9.256 -4.1513  0.5141  2.1050
   44CHL1   C13 5688   0.466   3.453   9.404 -0.1982 -0.1374  1.0378
   44CHL1   C18 5689   0.480   3.305   9.430  0.8707 -0.8864  0.4662
   44CHL1  H18A 5690   0.470   3.272   9.536 -0.3009 -1.3721  0.2211
   44CHL1  H18B 5691   0.403   3.245   9.377  0.8041 -0.1441 -0.2908
   44CHL1  H18C 5692   0.576   3.268   9.389  0.5166 -0.2325 -0.9959
   44CHL1   C12 5693   0.592   3.523   9.466 -0.0904  0.5743 -1.2171
   44CHL1  H12A 5694   0.689   3.478   9.435 -0.0976 -0.3544  0.0172
   44CHL1  H12B 5695   0.595   3.631   9.439  0.5218  0.4298 -1.7500
   44CHL1   C11 5696   0.593   3.509   9.622  0.6736  0.1262  0.3990
   44CHL1  H11A 5697   0.580   3.400   9.638  0.7255 -0.2136 -1.7146
   44CHL1  H11B 5698   0.681   3.557   9.671 -1.2169  3.0345  1.2161
   44CHL1    C9 5699   0.459   3.564   9.676 -0.2232  0.7003 -0.8457
   44CHL1    H9 5700   0.449   3.669   9.640  1.9646  0.8359 -1.1938
   44CHL1   C10 5701   0.454   3.564   9.831 -0.2745  0.3254  0.1256
   44CHL1   C19 5702   0.512   3.425   9.882 -0.1892 -0.2758 -0.0408
   44CHL1  H19A 5703   0.619   3.413   9.854  0.6973  1.2093  2.4047
   44CHL1  H19B 5704   0.502   3.408   9.991  1.0339  1.1648  0.3220
   44CHL1  H19C 5705   0.452   3.341   9.841 -0.6427  0.0906 -0.1449
   44CHL1    C1 5706   0.545   3.683   9.880  0.4856 -0.0744 -0.1159
   44CHL1   H1A 5707   0.647   3.641   9.864  0.2818 -1.0563  0.9498
   44CHL1   H1B 5708   0.541   3.774   9.818 -0.0732  0.8361  1.2078
   44CHL1    C2 5709   0.538   3.730  10.026  0.3806 -0.4605 -0.3144
   44CHL1   H2A 5710   0.587   3.830  10.028 -1.6228  0.6067 -1.7827
   44CHL1   H2B 5711   0.602   3.666  10.091  0.9938  0.5593  0.1156
   44CHL1   C20 5712   0.535   3.427   9.145 -0.5711  0.4151  0.4627
   44CHL1   H20 5713   0.520   3.317   9.143  3.4997 -0.3349 -1.9349
   44CHL1   C21 5714   0.683   3.434   9.169 -0.3563 -0.2842 -0.3696
   44CHL1  H21A 5715   0.721   3.379   9.258  0.3040  0.9276  0.1226
   44CHL1  H21B 5716   0.706   3.542   9.182 -2.2526 -0.0636  1.7161
   44CHL1  H21C 5717   0.728   3.384   9.080 -1.1313 -1.2337 -0.2273
   44CHL1   C22 5718   0.494   3.481   9.006  0.6834 -0.3845 -0.3646
   44CHL1  H22A 5719   0.386   3.480   8.982  0.7900 -0.3606 -0.8387
   44CHL1  H22B 5720   0.530   3.586   8.999  1.6739 -0.6778  0.1121
   44CHL1   C23 5721   0.549   3.410   8.881 -0.2310  0.4747  0.3504
   44CHL1  H23A 5722   0.658   3.389   8.879 -0.2830  0.2724 -0.6718
   44CHL1  H23B 5723   0.502   3.310   8.879  1.4506 -0.5808  4.0978
   44CHL1   C24 5724   0.528   3.492   8.745  0.0408  0.5926  0.2084
   44CHL1  H24A 5725   0.606   3.570   8.746  0.7692 -0.1271  1.1201
   44CHL1  H24B 5726   0.559   3.421   8.666 -0.2501  0.5709  0.1104
   44CHL1   C25 5727   0.387   3.539   8.714  0.3065  0.0610  0.5742
   44CHL1   H25 5728   0.356   3.597   8.803 -2.8389  0.2240 -0.4982
   44CHL1   C26 5729   0.373   3.617   8.580 -0.3233  0.3072  0.3461
   44CHL1  H26A 5730   0.270   3.654   8.562  0.5806  2.0170 -1.7820
   44CHL1  H26B 5731   0.453   3.694   8.593 -1.6176  1.5191  1.4091
   44CHL1  H26C 5732   0.403   3.562   8.488  1.6089  0.5914  0.7632
   44CHL1   C27 5733   0.286   3.421   8.715  0.2702  0.4429 -0.8503
   44CHL1  H27A 5734   0.194   3.447   8.658  0.8561 -1.8601 -3.0270
   44CHL1  H27B 5735   0.339   3.330   8.679  1.0913 -0.0524  1.4215
   44CHL1  H27C 5736   0.255   3.411   8.821  4.2315 -2.2557  0.3002
   45CHL1    C3 5737   4.004   1.465  10.041 -0.2193 -0.2886 -1.2257
   45CHL1    H3 5738   4.115   1.454  10.042 -0.2919 -1.0356 -0.6281
   45CHL1    O3 5739   3.954   1.402  10.163 -0.4082  0.3053 -0.9649
   45CHL1   H3' 5740   3.860   1.415  10.172 -0.5137 -1.1310  0.5603
   45CHL1    C4 5741   3.954   1.615  10.011 -0.0548  0.4352  0.6986
   45CHL1   H4A 5742   3.843   1.614  10.014 -0.1422 -2.6949  0.1267
   45CHL1   H4B 5743   3.991   1.679  10.094  2.3600  1.2106 -0.8793
   45CHL1    C5 5744   4.005   1.660   9.879  0.2636  0.6003  0.5388
   45CHL1    C6 5745   4.080   1.768   9.866 -0.1105  0.1207 -0.0903
   45CHL1    H6 5746   4.093   1.832   9.955  1.8311  0.4082 -0.5218
   45CHL1    C7 5747   4.145   1.811   9.740  0.3599  0.6583 -0.2625
   45CHL1   H7A 5748   4.122   1.919   9.725 -2.0250  0.0032 -1.8628
   45CHL1   H7B 5749   4.255   1.804   9.753  0.2174 -1.4863  0.1791
   45CHL1    C8 5750   4.095   1.750   9.610  0.4949  0.2151  1.5204
   45CHL1    H8 5751   4.180   1.759   9.540 -1.6903 -1.2683 -1.5567
   45CHL1   C14 5752   3.974   1.824   9.550  0.5397  0.1013 -0.0058
   45CHL1   H14 5753   3.888   1.813   9.619  1.4263 -1.6641  0.8736
   45CHL1   C15 5754   4.000   1.969   9.517  0.1596  0.5227 -0.5921
   45CHL1  H15A 5755   3.902   2.016   9.494 -0.9836 -0.2121  2.3107
   45CHL1  H15B 5756   4.049   2.036   9.591  0.4883  0.6595 -0.9282
   45CHL1   C16 5757   4.086   1.962   9.386  0.6773  0.4590  0.0188
   45CHL1  H16A 5758   4.079   2.058   9.331 -0.2573  1.2918  1.5200
   45CHL1  H16B 5759   4.193   1.957   9.415  0.5923  0.3648  0.3162
   45CHL1   C17 5760   4.048   1.832   9.320 -0.1143  0.4428  0.3040
   45CHL1   H17 5761   4.143   1.774   9.327  1.3043  2.4967 -0.9835
   45CHL1   C13 5762   3.940   1.759   9.411  0.0500  0.1384 -0.4566
   45CHL1   C18 5763   3.799   1.807   9.368 -0.9609 -0.3640  0.1355
   45CHL1  H18A 5764   3.782   1.916   9.356 -1.2727 -0.1782  1.9885
   45CHL1  H18B 5765   3.779   1.755   9.271 -1.3989  0.9348 -0.4947
   45CHL1  H18C 5766   3.732   1.776   9.450  0.0731  2.6945  2.3086
   45CHL1   C12 5767   3.950   1.605   9.407  0.4403 -0.4623  0.2632
   45CHL1  H12A 5768   3.855   1.568   9.451  0.2049  1.0691  1.1092
   45CHL1  H12B 5769   3.954   1.564   9.304 -1.9825 -0.2573  0.0218
   45CHL1   C11 5770   4.049   1.537   9.496  0.0821  0.0404 -0.0315
   45CHL1  H11A 5771   4.024   1.429   9.498 -0.3938  0.1154 -1.1342
   45CHL1  H11B 5772   4.150   1.549   9.451 -0.6108 -0.1303 -1.7471
   45CHL1    C9 5773   4.071   1.606   9.632 -0.2977 -0.3105 -0.4759
   45CHL1    H9 5774   4.170   1.566   9.663  0.8671  2.7488  0.0303
   45CHL1   C10 5775   3.985   1.563   9.759  0.5021  0.4022  0.4377
   45CHL1   C19 5776   3.835   1.569   9.729  1.2563 -0.3714  0.0726
   45CHL1  H19A 5777   3.768   1.536   9.811 -1.3731 -0.8512 -2.0889
   45CHL1  H19B 5778   3.791   1.664   9.691 -1.2770 -1.3470  0.3516
   45CHL1  H19C 5779   3.813   1.500   9.645  3.7559  0.7307 -1.6270
   45CHL1    C1 5780   4.026   1.421   9.786  0.1524 -0.0051 -0.4773
   45CHL1   H1A 5781   4.003   1.350   9.704  0.0487  0.4987 -0.8865
   45CHL1   H1B 5782   4.135   1.418   9.804  0.1848  0.2046 -0.6361
   45CHL1    C2 5783   3.962   1.378   9.920  0.1097  0.4993  0.2198
   45CHL1   H2A 5784   3.988   1.272   9.940 -1.1649 -0.1372 -1.2294
   45CHL1   H2B 5785   3.851   1.374   9.915  0.1230  0.3299  0.0380
   45CHL1   C20 5786   4.022   1.838   9.170 -0.1533 -0.1253 -0.0535
   45CHL1   H20 5787   3.945   1.759   9.154 -0.3780  0.0729  0.0418
   45CHL1   C21 5788   4.157   1.805   9.108  0.4026 -0.6303 -0.0504
   45CHL1  H21A 5789   4.234   1.876   9.145  0.1054 -1.1408  1.6198
   45CHL1  H21B 5790   4.164   1.799   8.997  1.5079 -1.6921  0.0497
   45CHL1  H21C 5791   4.188   1.702   9.137  0.8484 -0.0280  1.7475
   45CHL1   C22 5792   3.960   1.967   9.121  0.4539 -0.3606  0.0703
   45CHL1  H22A 5793   3.885   2.010   9.191  0.5838  2.0576 -1.1504
   45CHL1  H22B 5794   4.034   2.046   9.100 -0.0197 -0.1291 -0.8014
   45CHL1   C23 5795   3.886   1.941   8.993 -0.7578 -0.0711  0.1837
   45CHL1  H23A 5796   3.956   1.892   8.922 -0.1982  0.7999  0.1181
   45CHL1  H23B 5797   3.798   1.875   9.011 -0.9714 -0.1860 -1.2145
   45CHL1   C24 5798   3.841   2.063   8.904  0.4642 -0.2451 -0.1056
   45CHL1  H24A 5799   3.925   2.130   8.873 -0.6774  0.6504 -1.4263
   45CHL1  H24B 5800   3.803   2.021   8.809  1.7487  2.2424 -1.8399
   45CHL1   C25 5801   3.724   2.154   8.944 -0.4485 -0.1336 -0.3340
   45CHL1   H25 5802   3.743   2.203   9.042  1.2403 -0.1300 -0.6336
   45CHL1   C26 5803   3.699   2.275   8.856 -0.1142  0.4460  0.1295
   45CHL1  H26A 5804   3.796   2.323   8.832  0.1582 -0.5645 -0.8967
   45CHL1  H26B 5805   3.658   2.237   8.760  0.2374  1.1882 -0.3194
   45CHL1  H26C 5806   3.628   2.349   8.900 -2.7473 -2.2060  0.6906
   45CHL1   C27 5807   3.592   2.083   8.967 -0.9487 -0.6952 -0.2723
   45CHL1  H27A 5808   3.549   2.036   8.876  0.1203 -2.3007  0.0099
   45CHL1  H27B 5809   3.589   2.007   9.048  1.2374  0.5334  1.0455
   45CHL1  H27C 5810   3.512   2.157   8.991 -2.9512 -3.1227  1.0279
   46CHL1    C3 5811   6.253   6.131   9.766 -0.3330 -1.1851  1.0080
   46CHL1    H3 5812   6.343   6.189   9.735 -1.4005 -1.0928 -2.3685
   46CHL1    O3 5813   6.214   6.154   9.902 -0.6073  0.2782  0.2089
   46CHL1   H3' 5814   6.138   6.098   9.917 -0.1057 -0.0763  1.7027
   46CHL1    C4 5815   6.128   6.168   9.685 -0.1450 -0.5752  0.0848
   46CHL1   H4A 5816   6.039   6.108   9.714 -2.8731  1.7506 -2.6999
   46CHL1   H4B 5817   6.097   6.270   9.718  1.8692  0.4286 -0.9262
   46CHL1    C5 5818   6.161   6.152   9.541  0.5016 -0.6813  0.4729
   46CHL1    C6 5819   6.149   6.259   9.455 -0.0735 -0.2500 -0.6397
   46CHL1    H6 5820   6.140   6.357   9.504 -0.8701 -0.1729 -0.9157
   46CHL1    C7 5821   6.168   6.249   9.308  0.1941 -0.9699  0.1912
   46CHL1   H7A 5822   6.089   6.302   9.251  2.3838  1.1112 -1.1048
   46CHL1   H7B 5823   6.264   6.288   9.268  0.4496 -2.8108 -1.1346
   46CHL1    C8 5824   6.168   6.101   9.257 -0.2735  0.3663 -1.0565
   46CHL1    H8 5825   6.062   6.069   9.264 -0.1517  0.4227  2.2296
   46CHL1   C14 5826   6.222   6.093   9.114  0.4167  0.5138 -0.1049
   46CHL1   H14 5827   6.329   6.124   9.114  0.7390 -0.4659  1.1342
   46CHL1   C15 5828   6.155   6.180   9.007  1.2925 -0.4843 -0.9507
   46CHL1  H15A 5829   6.046   6.164   9.021  1.7181 -2.0722  0.8908
   46CHL1  H15B 5830   6.173   6.290   9.013 -2.4453  0.1987  1.8500
   46CHL1   C16 5831   6.197   6.101   8.880 -0.3751 -0.1120 -0.5051
   46CHL1  H16A 5832   6.128   6.117   8.794  2.9979  0.5173 -3.2874
   46CHL1  H16B 5833   6.276   6.171   8.845  0.1442 -0.1184  0.6207
   46CHL1   C17 5834   6.260   5.966   8.918  0.2780  1.2657  0.7479
   46CHL1   H17 5835   6.371   5.972   8.927  0.4417 -0.4186  0.1627
   46CHL1   C13 5836   6.220   5.947   9.060  0.4433 -0.5002  0.5107
   46CHL1   C18 5837   6.086   5.885   9.057  0.1875 -0.0427 -0.4275
   46CHL1  H18A 5838   6.095   5.776   9.033  1.8120 -0.0375  0.0349
   46CHL1  H18B 5839   6.040   5.893   9.157  0.0396  0.7339 -0.5578
   46CHL1  H18C 5840   6.021   5.942   8.987  3.2548 -1.8396 -5.3044
   46CHL1   C12 5841   6.314   5.868   9.146  0.7787 -0.1266 -0.0347
   46CHL1  H12A 5842   6.316   5.764   9.109 -0.1677  0.2063 -1.0729
   46CHL1  H12B 5843   6.412   5.917   9.126 -0.1116  0.7374 -2.7301
   46CHL1   C11 5844   6.284   5.877   9.295 -0.5783 -0.1641 -0.1334
   46CHL1  H11A 5845   6.209   5.797   9.314  0.7397 -0.9880  1.9992
   46CHL1  H11B 5846   6.381   5.834   9.328  0.0390  1.2255 -0.0532
   46CHL1    C9 5847   6.257   6.021   9.352 -0.1640  0.2326  0.3575
   46CHL1    H9 5848   6.354   6.075   9.347  0.2222 -0.5426 -1.2155
   46CHL1   C10 5849   6.199   6.016   9.500  0.0373  0.4607  0.8293
   46CHL1   C19 5850   6.069   5.930   9.496 -0.7468  0.0298 -0.0830
   46CHL1  H19A 5851   6.002   5.973   9.419  1.2856  1.1397 -1.3050
   46CHL1  H19B 5852   6.075   5.821   9.476  2.8122  0.0510  0.2047
   46CHL1  H19C 5853   6.025   5.934   9.598 -1.2768  0.7444 -0.3346
   46CHL1    C1 5854   6.301   5.952   9.591  0.5384 -0.0529  0.3417
   46CHL1   H1A 5855   6.306   5.844   9.564  0.3467  0.3328 -1.3212
   46CHL1   H1B 5856   6.397   6.000   9.563 -0.0165  0.7098 -0.2846
   46CHL1    C2 5857   6.285   5.981   9.747 -0.2728 -1.1046  0.5003
   46CHL1   H2A 5858   6.367   5.951   9.815  0.0933  0.8732  1.0124
   46CHL1   H2B 5859   6.202   5.915   9.778  1.4160 -3.2314  0.7734
   46CHL1   C20 5860   6.239   5.852   8.815 -0.2839  0.4375  0.9810
   46CHL1   H20 5861   6.135   5.811   8.819  0.8766 -3.0585 -0.6841
   46CHL1   C21 5862   6.342   5.730   8.840  0.5101 -0.0965  0.2675
   46CHL1  H21A 5863   6.309   5.670   8.928 -0.1334  1.1255  0.8858
   46CHL1  H21B 5864   6.441   5.774   8.864  0.2351  0.2882  0.7134
   46CHL1  H21C 5865   6.342   5.680   8.741 -0.4271  1.3609 -0.4966
   46CHL1   C22 5866   6.248   5.889   8.663 -0.2724 -1.0090 -0.2835
   46CHL1  H22A 5867   6.246   5.788   8.617  0.3294 -2.1143  1.9350
   46CHL1  H22B 5868   6.155   5.950   8.654  0.7912  0.8062  0.4225
   46CHL1   C23 5869   6.367   5.973   8.626 -0.1185 -0.4465 -0.1587
   46CHL1  H23A 5870   6.391   6.049   8.703  1.2530 -0.1321 -0.8593
   46CHL1  H23B 5871   6.458   5.908   8.629  0.1718 -0.0345  0.0554
   46CHL1   C24 5872   6.358   6.044   8.487  0.4771  0.2396 -1.2900
   46CHL1  H24A 5873   6.319   5.964   8.420 -1.1986  1.0588 -1.3330
   46CHL1  H24B 5874   6.284   6.126   8.483 -0.1283  0.0193  2.1171
   46CHL1   C25 5875   6.486   6.087   8.412  0.3198 -0.1927 -0.5549
   46CHL1   H25 5876   6.524   6.176   8.466  0.4602  0.9458 -2.4375
   46CHL1   C26 5877   6.592   5.978   8.390  0.1904  0.7001 -1.0524
   46CHL1  H26A 5878   6.676   6.000   8.321  1.5700  2.1491  0.9664
   46CHL1  H26B 5879   6.641   5.968   8.489 -3.8208  1.9553  1.2892
   46CHL1  H26C 5880   6.547   5.880   8.363  0.4607  0.9976 -2.6579
   46CHL1   C27 5881   6.443   6.140   8.267  0.0433 -0.7348 -0.7008
   46CHL1  H27A 5882   6.508   6.221   8.228 -0.5988 -0.3267 -0.9299
   46CHL1  H27B 5883   6.444   6.052   8.200  1.7139 -0.3205 -1.2741
   46CHL1  H27C 5884   6.345   6.188   8.284  0.2222 -0.1063 -1.3848
   47CHL1    C3 5885   6.673   1.856   9.897 -0.3566  0.4887 -0.5896
   47CHL1    H3 5886   6.739   1.945   9.883  0.1825  0.6302  2.2430
   47CHL1    O3 5887   6.659   1.848  10.039 -0.2532 -0.2728  0.0673
   47CHL1   H3' 5888   6.674   1.757  10.065  2.6759  0.0295 -0.1773
   47CHL1    C4 5889   6.532   1.887   9.838  0.1845 -0.0759 -0.0337
   47CHL1   H4A 5890   6.471   1.808   9.887  1.0960 -2.1076 -2.0409
   47CHL1   H4B 5891   6.501   1.981   9.890 -0.6387 -0.3793  0.0351
   47CHL1    C5 5892   6.521   1.889   9.689 -0.0635  0.2480 -0.7373
   47CHL1    C6 5893   6.461   1.984   9.618 -0.1175  0.1231  0.0199
   47CHL1    H6 5894   6.409   2.061   9.677  0.2791  0.8834 -0.6113
   47CHL1    C7 5895   6.447   1.988   9.465  0.4681  0.5955 -0.5845
   47CHL1   H7A 5896   6.340   2.006   9.441  0.8484  0.8885 -2.1376
   47CHL1   H7B 5897   6.506   2.074   9.427  2.4950 -0.9235 -1.0334
   47CHL1    C8 5898   6.490   1.855   9.400 -0.6933  0.4900 -0.6088
   47CHL1    H8 5899   6.412   1.776   9.410 -1.8050  1.3799 -1.9003
   47CHL1   C14 5900   6.521   1.869   9.248  0.0574  0.0598  0.8994
   47CHL1   H14 5901   6.611   1.934   9.240  0.5287 -0.6864 -0.1385
   47CHL1   C15 5902   6.412   1.943   9.160 -1.4955 -0.0835  0.0105
   47CHL1  H15A 5903   6.315   1.917   9.208 -2.6904  3.1800 -0.3114
   47CHL1  H15B 5904   6.430   2.053   9.164  0.2687 -0.3137 -0.5432
   47CHL1   C16 5905   6.440   1.895   9.019  0.1715 -0.0256  0.4042
   47CHL1  H16A 5906   6.343   1.869   8.970 -0.7002  2.2621  0.7486
   47CHL1  H16B 5907   6.483   1.975   8.955  1.2334 -1.8473 -1.2715
   47CHL1   C17 5908   6.560   1.790   9.029  0.2355  0.0463  0.1401
   47CHL1   H17 5909   6.649   1.857   9.027 -0.0901  0.4941  0.3044
   47CHL1   C13 5910   6.566   1.742   9.176 -0.1616 -0.6214 -0.2002
   47CHL1   C18 5911   6.455   1.634   9.200  0.0162  0.1054  0.7297
   47CHL1  H18A 5912   6.476   1.591   9.301  2.7244 -0.3820  0.0397
   47CHL1  H18B 5913   6.355   1.683   9.201 -1.1373 -2.1029  1.0805
   47CHL1  H18C 5914   6.456   1.553   9.125  1.4604 -0.9447  1.8219
   47CHL1   C12 5915   6.702   1.706   9.232  0.7438  0.1314 -0.0586
   47CHL1  H12A 5916   6.737   1.610   9.188 -2.3239 -1.0131 -0.2093
   47CHL1  H12B 5917   6.773   1.789   9.209 -0.2944  0.8775 -0.6710
   47CHL1   C11 5918   6.699   1.694   9.383 -0.0915 -0.2033 -0.2810
   47CHL1  H11A 5919   6.656   1.595   9.409  1.5059 -0.6870  0.6370
   47CHL1  H11B 5920   6.804   1.712   9.414 -0.6465  0.0255  1.5598
   47CHL1    C9 5921   6.618   1.803   9.468 -0.4217  0.7310  0.2656
   47CHL1    H9 5922   6.687   1.890   9.460 -1.3031  1.5220  1.0127
   47CHL1   C10 5923   6.594   1.772   9.622 -1.2613 -0.5952  0.7154
   47CHL1   C19 5924   6.510   1.644   9.636 -0.0575 -0.3380  0.6104
   47CHL1  H19A 5925   6.559   1.559   9.583  0.5935  0.3826  0.0337
   47CHL1  H19B 5926   6.511   1.616   9.744  0.0510  1.7182  1.1890
   47CHL1  H19C 5927   6.403   1.655   9.609 -0.5985 -1.8338  1.9601
   47CHL1    C1 5928   6.744   1.759   9.681  0.3064  0.2141  0.2279
   47CHL1   H1A 5929   6.792   1.672   9.632 -1.6629  0.2483 -1.8993
   47CHL1   H1B 5930   6.794   1.856   9.661 -0.2021  0.2033 -1.1654
   47CHL1    C2 5931   6.742   1.737   9.828 -0.6131  0.1282  0.1472
   47CHL1   H2A 5932   6.849   1.748   9.854 -0.2979  1.4726 -1.5502
   47CHL1   H2B 5933   6.719   1.633   9.858  4.1397 -0.3873  2.9483
   47CHL1   C20 5934   6.567   1.687   8.913  0.2887  0.1740 -0.1024
   47CHL1   H20 5935   6.489   1.610   8.933 -0.2097 -0.0000 -2.4831
   47CHL1   C21 5936   6.702   1.619   8.910 -0.4039  0.2347 -0.0979
   47CHL1  H21A 5937   6.779   1.699   8.902  0.3329 -0.5661 -1.3019
   47CHL1  H21B 5938   6.716   1.559   8.817  2.5428  0.5985  0.0347
   47CHL1  H21C 5939   6.735   1.554   8.993  2.7927 -1.6966 -2.6256
   47CHL1   C22 5940   6.535   1.752   8.771  0.3348 -0.1028 -0.5322
   47CHL1  H22A 5941   6.434   1.791   8.791  0.5041  0.8290 -1.4013
   47CHL1  H22B 5942   6.598   1.840   8.745 -1.2295  1.0258 -0.5868
   47CHL1   C23 5943   6.515   1.657   8.656  0.1498  0.9463 -0.0411
   47CHL1  H23A 5944   6.613   1.616   8.623 -0.1604  0.6213 -0.5782
   47CHL1  H23B 5945   6.458   1.565   8.681 -0.5957  1.7575  1.3464
   47CHL1   C24 5946   6.456   1.729   8.531  0.9364 -0.3317  0.3444
   47CHL1  H24A 5947   6.365   1.786   8.558  1.6990  1.4404 -0.7122
   47CHL1  H24B 5948   6.520   1.812   8.496  1.3535 -0.8932 -0.2559
   47CHL1   C25 5949   6.415   1.638   8.411  0.1405  0.0856  0.4309
   47CHL1   H25 5950   6.501   1.569   8.395  0.4316  0.7510 -0.9877
   47CHL1   C26 5951   6.289   1.551   8.440  0.0535 -0.0896  0.0815
   47CHL1  H26A 5952   6.306   1.463   8.506 -0.9644 -1.0678 -0.9132
   47CHL1  H26B 5953   6.249   1.516   8.342 -0.3909 -0.2489  0.3135
   47CHL1  H26C 5954   6.199   1.597   8.487 -1.0403  0.2215 -2.1888
   47CHL1   C27 5955   6.389   1.725   8.291 -0.9583 -0.0289 -0.3421
   47CHL1  H27A 5956   6.329   1.810   8.329  1.3732  1.7476 -0.4057
   47CHL1  H27B 5957   6.478   1.768   8.240 -1.1217  0.7445  0.0113
   47CHL1  H27C 5958   6.337   1.652   8.225 -0.0863 -2.5907  1.6291
   48CHL1    C3 5959   1.628   3.992  10.206  0.0662 -0.1587  0.4862
   48CHL1    H3 5960   1.543   3.943  10.155  0.8122 -0.9389 -0.0469
   48CHL1    O3 5961   1.628   3.952  10.339  0.3890  0.0151  0.8233
   48CHL1   H3' 5962   1.666   4.023  10.391 -2.2004  3.1178 -1.1461
   48CHL1    C4 5963   1.753   3.936  10.137  0.3921  0.4524 -0.2538
   48CHL1   H4A 5964   1.837   3.969  10.202  0.9885 -0.5468 -0.5022
   48CHL1   H4B 5965   1.758   3.826  10.153 -2.1794  0.5160  1.7400
   48CHL1    C5 5966   1.768   3.970   9.994 -0.4848 -0.1918  0.3567
   48CHL1    C6 5967   1.787   3.880   9.890  0.5654  0.3609  0.5251
   48CHL1    H6 5968   1.797   3.773   9.915 -1.9604 -1.0448 -3.5021
   48CHL1    C7 5969   1.796   3.908   9.737 -0.4267  0.3111 -0.6285
   48CHL1   H7A 5970   1.884   3.852   9.698  1.2142  1.4425  1.2745
   48CHL1   H7B 5971   1.711   3.868   9.677 -2.7614  1.4844  1.6835
   48CHL1    C8 5972   1.813   4.057   9.710 -0.1601 -0.4618 -0.1166
   48CHL1    H8 5973   1.920   4.087   9.721  0.1642 -0.4891 -2.5949
   48CHL1   C14 5974   1.776   4.092   9.563 -0.0650  0.2670 -0.6915
   48CHL1   H14 5975   1.668   4.065   9.558  0.1861 -1.3153  1.1471
   48CHL1   C15 5976   1.838   4.013   9.449  0.2818 -0.4114  0.0402
   48CHL1  H15A 5977   1.946   3.989   9.463  0.2634 -0.9527 -0.6805
   48CHL1  H15B 5978   1.787   3.917   9.425  1.3697 -1.0282  0.0836
   48CHL1   C16 5979   1.810   4.099   9.326  0.5390 -0.1480  0.1816
   48CHL1  H16A 5980   1.900   4.121   9.264  0.6795 -1.0296  0.0582
   48CHL1  H16B 5981   1.738   4.042   9.264  1.6015 -1.1859 -0.1571
   48CHL1   C17 5982   1.738   4.223   9.372 -0.8857 -0.4046  0.3526
   48CHL1   H17 5983   1.631   4.199   9.357 -0.7763 -1.0893  0.6668
   48CHL1   C13 5984   1.780   4.233   9.521 -0.1465 -0.5607 -0.7695
   48CHL1   C18 5985   1.928   4.294   9.525  0.6405 -0.0935  0.2871
   48CHL1  H18A 5986   1.946   4.401   9.502  2.1339 -0.7322 -1.7340
   48CHL1  H18B 5987   1.982   4.271   9.620  2.3072  0.3979 -0.5247
   48CHL1  H18C 5988   1.987   4.248   9.443  0.9961 -0.6647  0.8511
   48CHL1   C12 5989   1.696   4.318   9.614 -0.1975  0.2610  0.5809
   48CHL1  H12A 5990   1.724   4.421   9.580  0.2295 -0.0906 -0.1537
   48CHL1  H12B 5991   1.589   4.308   9.586  0.2198  1.6005 -1.7651
   48CHL1   C11 5992   1.732   4.300   9.762 -0.0667  0.1342  0.5519
   48CHL1  H11A 5993   1.833   4.333   9.793  1.2095 -3.1732  0.3644
   48CHL1  H11B 5994   1.659   4.358   9.821 -1.4483 -1.5207  0.5597
   48CHL1    C9 5995   1.731   4.148   9.807 -0.0544  0.6117  0.4871
   48CHL1    H9 5996   1.623   4.129   9.790 -0.1078  1.8078 -0.6518
   48CHL1   C10 5997   1.751   4.123   9.961 -0.1912 -1.0084  0.0235
   48CHL1   C19 5998   1.885   4.203  10.006  0.2700 -0.3276 -0.1004
   48CHL1  H19A 5999   1.965   4.178   9.933  2.5505 -0.3950  2.2773
   48CHL1  H19B 6000   1.859   4.311  10.009  1.0368 -0.1614  1.2662
   48CHL1  H19C 6001   1.909   4.163  10.106 -0.1153 -0.7766 -0.1805
   48CHL1    C1 6002   1.621   4.188  10.037 -0.2118  1.0116 -0.1586
   48CHL1   H1A 6003   1.616   4.299  10.038  1.8065  1.1540  1.2674
   48CHL1   H1B 6004   1.527   4.147   9.992  0.0240  0.2646  0.0119
   48CHL1    C2 6005   1.617   4.143  10.191  0.0607 -0.8382 -0.2306
   48CHL1   H2A 6006   1.513   4.153  10.229  0.6427 -1.6632  1.7050
   48CHL1   H2B 6007   1.691   4.195  10.256 -0.2768 -0.3397 -0.2383
   48CHL1   C20 6008   1.754   4.354   9.292 -0.3356 -0.0843 -0.1944
   48CHL1   H20 6009   1.832   4.423   9.332 -0.0610  0.8311 -2.2002
   48CHL1   C21 6010   1.616   4.420   9.293  0.6041  0.1852 -0.6956
   48CHL1  H21A 6011   1.629   4.530   9.284 -2.3395  0.5810 -1.1768
   48CHL1  H21B 6012   1.554   4.410   9.384  1.4396 -0.8282 -0.2086
   48CHL1  H21C 6013   1.558   4.387   9.205  0.2263  0.5330 -0.5811
   48CHL1   C22 6014   1.792   4.335   9.144  0.4816  0.3089  0.0806
   48CHL1  H22A 6015   1.892   4.288   9.134  0.3309  0.0658 -0.2823
   48CHL1  H22B 6016   1.722   4.267   9.092 -2.3892  0.7950  2.9870
   48CHL1   C23 6017   1.779   4.465   9.065 -0.1597  0.5726  0.8569
   48CHL1  H23A 6018   1.673   4.501   9.061 -0.2275  0.5235  1.8412
   48CHL1  H23B 6019   1.845   4.542   9.110  0.0602  1.2361 -0.5759
   48CHL1   C24 6020   1.848   4.464   8.922 -0.3675  0.0786 -0.9094
   48CHL1  H24A 6021   1.864   4.564   8.878  0.1600  0.9643  1.1514
   48CHL1  H24B 6022   1.947   4.416   8.938 -0.1048  1.4006  2.3248
   48CHL1   C25 6023   1.765   4.367   8.830 -0.4460 -0.6820 -0.0539
   48CHL1   H25 6024   1.749   4.270   8.882  0.0844 -1.6778 -1.6858
   48CHL1   C26 6025   1.628   4.420   8.789 -0.1903 -0.3311  0.0640
   48CHL1  H26A 6026   1.632   4.502   8.714  3.5083  2.3686  2.8469
   48CHL1  H26B 6027   1.580   4.340   8.728  1.4759 -1.1137 -0.2660
   48CHL1  H26C 6028   1.559   4.449   8.871 -1.7344  0.6014 -1.4952
   48CHL1   C27 6029   1.838   4.346   8.703 -0.1325 -0.5633  0.6963
   48CHL1  H27A 6030   1.932   4.292   8.727 -0.6092 -1.8403 -0.1835
   48CHL1  H27B 6031   1.785   4.284   8.627 -2.5810  2.5964 -0.4198
   48CHL1  H27C 6032   1.867   4.443   8.656  0.5920  0.3358  2.8864
   49CHL1    C3 6033   4.604   3.114  10.032  0.3401 -0.6534  0.2264
   49CHL1    H3 6034   4.700   3.069   9.997  1.2122 -0.4608  2.2730
   49CHL1    O3 6035   4.589   3.086  10.168 -0.3100 -0.1294  0.3770
   49CHL1   H3' 6036   4.519   3.146  10.196  0.5885  0.6508  0.9758
   49CHL1    C4 6037   4.605   3.267  10.012 -0.2013  0.2873 -0.2741
   49CHL1   H4A 6038   4.522   3.329  10.051  0.9969  1.0850  1.1049
   49CHL1   H4B 6039   4.694   3.300  10.069  0.8090 -1.6314 -0.6612
   49CHL1    C5 6040   4.617   3.302   9.867 -0.0437  0.3405 -1.1110
   49CHL1    C6 6041   4.703   3.396   9.826  0.0734  0.7593 -0.4149
   49CHL1    H6 6042   4.763   3.451   9.900 -1.7743 -0.6152  2.2445
   49CHL1    C7 6043   4.704   3.453   9.687 -0.4766 -0.1421  0.3191
   49CHL1   H7A 6044   4.703   3.564   9.692  1.3296 -0.1312  0.9591
   49CHL1   H7B 6045   4.807   3.432   9.651 -0.5020 -1.1535  0.7813
   49CHL1    C8 6046   4.594   3.409   9.599 -0.9235  1.0468 -0.2703
   49CHL1    H8 6047   4.501   3.465   9.622  0.5224  3.0869  0.8903
   49CHL1   C14 6048   4.637   3.411   9.454 -0.0683  0.4307 -0.2535
   49CHL1   H14 6049   4.712   3.331   9.441  0.4103  0.7123  0.6368
   49CHL1   C15 6050   4.711   3.535   9.402  0.0039  0.6980  0.6768
   49CHL1  H15A 6051   4.653   3.627   9.427 -1.2306  0.0297  0.3508
   49CHL1  H15B 6052   4.821   3.541   9.419  0.1132  0.9635 -0.0602
   49CHL1   C16 6053   4.703   3.523   9.250 -0.7747 -0.2545  0.0807
   49CHL1  H16A 6054   4.652   3.613   9.211  0.2172 -0.4093 -1.6858
   49CHL1  H16B 6055   4.808   3.521   9.212 -0.6491  0.3279  0.3900
   49CHL1   C17 6056   4.608   3.403   9.216 -0.1502 -0.6731 -1.0145
   49CHL1   H17 6057   4.675   3.318   9.191  0.4570 -0.3180 -0.6238
   49CHL1   C13 6058   4.528   3.378   9.345 -0.3098 -0.1604  0.3459
   49CHL1   C18 6059   4.408   3.469   9.355  0.9215 -0.6015  0.3267
   49CHL1  H18A 6060   4.345   3.442   9.442  1.7903 -1.1777  0.7949
   49CHL1  H18B 6061   4.451   3.571   9.356  0.8194 -0.4891 -2.0840
   49CHL1  H18C 6062   4.342   3.452   9.268  1.0595 -0.0976  0.1223
   49CHL1   C12 6063   4.488   3.227   9.366  0.3503  0.3308  0.5594
   49CHL1  H12A 6064   4.407   3.194   9.297  0.6118 -0.6585  0.7069
   49CHL1  H12B 6065   4.584   3.175   9.344  0.9582  1.9801 -0.9119
   49CHL1   C11 6066   4.456   3.207   9.514 -0.3481  0.0649  0.0658
   49CHL1  H11A 6067   4.353   3.248   9.527  0.5448  2.2179  0.6252
   49CHL1  H11B 6068   4.438   3.097   9.519  0.9909 -0.4095 -3.2695
   49CHL1    C9 6069   4.551   3.262   9.624  0.0505 -0.2591 -0.0321
   49CHL1    H9 6070   4.650   3.216   9.602  1.8119  3.5230 -0.8498
   49CHL1   C10 6071   4.512   3.235   9.771 -0.3018 -0.9488 -1.0963
   49CHL1   C19 6072   4.380   3.306   9.806 -0.0009  0.1242 -0.0801
   49CHL1  H19A 6073   4.359   3.414   9.796 -1.0854  0.1560  1.9609
   49CHL1  H19B 6074   4.306   3.260   9.735  1.9355 -1.3032 -1.2780
   49CHL1  H19C 6075   4.352   3.283   9.911 -1.5368  3.6021  0.3966
   49CHL1    C1 6076   4.503   3.084   9.805 -0.2230  1.0173 -0.1055
   49CHL1   H1A 6077   4.423   3.032   9.748  0.3396 -1.8523  1.5380
   49CHL1   H1B 6078   4.601   3.050   9.764  0.5430  1.9000  0.9694
   49CHL1    C2 6079   4.491   3.048   9.953  0.2770 -0.0162 -0.1215
   49CHL1   H2A 6080   4.503   2.941   9.977 -1.3237 -0.1310  0.2890
   49CHL1   H2B 6081   4.389   3.079   9.986  0.9250  2.5114 -0.2326
   49CHL1   C20 6082   4.535   3.432   9.084  0.3105  0.3187  0.3655
   49CHL1   H20 6083   4.478   3.525   9.106 -2.2475 -0.6826 -1.5034
   49CHL1   C21 6084   4.429   3.319   9.048  0.2573  0.2024  0.3165
   49CHL1  H21A 6085   4.346   3.310   9.121  0.7589 -0.6037  0.8120
   49CHL1  H21B 6086   4.479   3.220   9.046 -2.8703 -1.4600 -0.7702
   49CHL1  H21C 6087   4.377   3.338   8.952 -0.1652 -0.6207  0.3781
   49CHL1   C22 6088   4.627   3.465   8.963  0.1007 -0.0696 -0.2035
   49CHL1  H22A 6089   4.733   3.482   8.990 -0.3467 -0.5029  1.9642
   49CHL1  H22B 6090   4.626   3.386   8.885  1.9285 -0.1535 -0.1865
   49CHL1   C23 6091   4.568   3.595   8.885  0.9356  0.7877 -0.5911
   49CHL1  H23A 6092   4.466   3.564   8.853  0.6976  1.7289 -0.7535
   49CHL1  H23B 6093   4.557   3.670   8.966  1.4057  0.1848  0.0364
   49CHL1   C24 6094   4.635   3.641   8.755  0.1349  0.0520 -0.3802
   49CHL1  H24A 6095   4.744   3.619   8.762  0.0147 -1.0380 -1.6158
   49CHL1  H24B 6096   4.596   3.567   8.682 -0.5170 -1.5771  1.5188
   49CHL1   C25 6097   4.596   3.782   8.721 -0.3498 -0.7966 -0.7303
   49CHL1   H25 6098   4.487   3.803   8.733 -0.5503 -1.3629 -1.4912
   49CHL1   C26 6099   4.665   3.885   8.815  0.8414  0.2318 -0.4453
   49CHL1  H26A 6100   4.617   3.984   8.798  0.5310  0.2245  0.3417
   49CHL1  H26B 6101   4.650   3.855   8.921  1.7449  0.3429 -0.2844
   49CHL1  H26C 6102   4.773   3.888   8.789  0.9872 -1.7043 -0.2013
   49CHL1   C27 6103   4.639   3.820   8.588 -0.5273 -0.3406  0.9231
   49CHL1  H27A 6104   4.636   3.931   8.580  0.4121 -0.0940  3.3501
   49CHL1  H27B 6105   4.745   3.793   8.569 -0.2627  0.2027  1.5870
   49CHL1  H27C 6106   4.575   3.778   8.507  0.5422 -0.4648  0.1088
   50CHL1    C3 6107   1.281   1.843  10.142 -0.5152  0.6759 -0.3213
   50CHL1    H3 6108   1.364   1.915  10.128 -0.4613  0.5338 -0.7422
   50CHL1    O3 6109   1.250   1.862  10.274  0.0051  0.0343 -0.8585
   50CHL1   H3' 6110   1.185   1.797  10.301  1.5266 -1.0248  0.4587
   50CHL1    C4 6111   1.158   1.885  10.063 -0.2405 -0.4628 -0.7407
   50CHL1   H4A 6112   1.072   1.821  10.091 -0.6394  0.2721 -0.2580
   50CHL1   H4B 6113   1.137   1.988  10.099 -0.9009 -0.2362 -1.7184
   50CHL1    C5 6114   1.182   1.879   9.910  0.3256 -0.2759 -0.5838
   50CHL1    C6 6115   1.169   1.978   9.829 -0.1358 -0.1288  0.2024
   50CHL1    H6 6116   1.148   2.076   9.875 -1.1564 -1.2782  2.3294
   50CHL1    C7 6117   1.178   1.965   9.679  0.0352  0.5410  0.1218
   50CHL1   H7A 6118   1.086   2.009   9.634 -1.1284 -0.7985  1.1004
   50CHL1   H7B 6119   1.267   2.017   9.638  1.9508 -1.4113  1.6321
   50CHL1    C8 6120   1.184   1.817   9.628 -0.5010 -0.0094 -0.0201
   50CHL1    H8 6121   1.079   1.782   9.620  0.0824 -2.0038  0.4950
   50CHL1   C14 6122   1.233   1.811   9.484 -0.7476  0.0058 -0.3808
   50CHL1   H14 6123   1.335   1.855   9.493  0.2380 -1.8405 -1.9160
   50CHL1   C15 6124   1.160   1.889   9.369 -0.1025  0.4413 -0.9390
   50CHL1  H15A 6125   1.053   1.862   9.363  0.5668 -2.4559 -1.1404
   50CHL1  H15B 6126   1.159   1.996   9.400  1.4561 -0.0718  1.1528
   50CHL1   C16 6127   1.230   1.848   9.236  0.5738 -0.0924  0.0410
   50CHL1  H16A 6128   1.147   1.820   9.167  0.8084 -0.5205 -0.0729
   50CHL1  H16B 6129   1.299   1.923   9.192  1.0100 -0.0964  0.7208
   50CHL1   C17 6130   1.310   1.719   9.285 -0.2827 -0.2573  0.4954
   50CHL1   H17 6131   1.411   1.764   9.295 -1.4543  2.6663  0.2541
   50CHL1   C13 6132   1.260   1.674   9.426  0.1421 -0.6129  0.7450
   50CHL1   C18 6133   1.132   1.593   9.400  0.2995  0.0278  0.4354
   50CHL1  H18A 6134   1.066   1.571   9.486  0.8568 -1.6022  0.4881
   50CHL1  H18B 6135   1.065   1.648   9.331 -0.5687 -1.7432 -0.1927
   50CHL1  H18C 6136   1.150   1.491   9.357 -0.6389  0.0788 -0.0914
   50CHL1   C12 6137   1.363   1.600   9.521 -0.2668 -0.0797  0.3064
   50CHL1  H12A 6138   1.376   1.497   9.483 -1.1751  0.7323 -2.3992
   50CHL1  H12B 6139   1.463   1.648   9.522 -1.0094  1.7655  3.8930
   50CHL1   C11 6140   1.299   1.594   9.663  0.0864  0.9067  0.5077
   50CHL1  H11A 6141   1.202   1.540   9.655  0.1118  1.1319 -2.2542
   50CHL1  H11B 6142   1.373   1.540   9.727  0.7940  0.6321 -0.5257
   50CHL1    C9 6143   1.267   1.729   9.724  0.4455 -0.3601 -0.7184
   50CHL1    H9 6144   1.357   1.795   9.728  0.6317 -0.6614  0.7124
   50CHL1   C10 6145   1.223   1.734   9.873  0.2218  0.1418  0.1050
   50CHL1   C19 6146   1.100   1.638   9.886 -0.2096 -0.6828  0.5813
   50CHL1  H19A 6147   1.038   1.652   9.795 -1.5120  0.8169  1.6423
   50CHL1  H19B 6148   1.147   1.538   9.877  0.3314 -0.5053  1.3602
   50CHL1  H19C 6149   1.035   1.654   9.975  0.9369  1.3069  1.1026
   50CHL1    C1 6150   1.344   1.682   9.964  0.3546  0.2920  0.0955
   50CHL1   H1A 6151   1.375   1.581   9.932 -0.3091 -0.1165  0.7125
   50CHL1   H1B 6152   1.429   1.749   9.938 -0.3872  1.7658  1.3098
   50CHL1    C2 6153   1.326   1.703  10.117  0.2353  0.5793  0.3226
   50CHL1   H2A 6154   1.420   1.678  10.172  2.8139  0.4472 -3.7124
   50CHL1   H2B 6155   1.244   1.638  10.153 -0.1501  0.4591 -0.7540
   50CHL1   C20 6156   1.311   1.615   9.162 -0.6428 -0.1419  1.1161
   50CHL1   H20 6157   1.206   1.579   9.155 -0.8600  0.4555  1.1902
   50CHL1   C21 6158   1.409   1.507   9.184 -0.2097 -0.4895  0.2303
   50CHL1  H21A 6159   1.417   1.420   9.115 -0.9055 -0.4307  0.0692
   50CHL1  H21B 6160   1.375   1.460   9.278  0.5169 -1.6180 -0.0572
   50CHL1  H21C 6161   1.516   1.537   9.188  0.4963 -2.6783 -0.4935
   50CHL1   C22 6162   1.347   1.695   9.027  0.0334 -0.2014 -0.2767
   50CHL1  H22A 6163   1.266   1.764   8.995  1.3647  0.9934 -1.1863
   50CHL1  H22B 6164   1.447   1.743   9.037  1.4363 -2.3080 -2.8532
   50CHL1   C23 6165   1.363   1.613   8.891 -0.1117  0.1195  0.4693
   50CHL1  H23A 6166   1.469   1.585   8.875 -0.4457 -0.2312 -1.3981
   50CHL1  H23B 6167   1.299   1.523   8.902  1.6835 -1.4261 -1.1856
   50CHL1   C24 6168   1.334   1.700   8.768  0.4611 -0.6361 -0.0429
   50CHL1  H24A 6169   1.227   1.730   8.775  0.0805 -1.1711 -2.7510
   50CHL1  H24B 6170   1.399   1.790   8.779  1.7483 -1.6005  0.3664
   50CHL1   C25 6171   1.352   1.624   8.635 -0.5762  0.5037  0.3609
   50CHL1   H25 6172   1.301   1.526   8.646 -0.3819  0.1936 -1.2283
   50CHL1   C26 6173   1.281   1.703   8.517  0.0698 -0.2990 -0.1909
   50CHL1  H26A 6174   1.269   1.639   8.427 -3.9184 -2.7881  1.8291
   50CHL1  H26B 6175   1.180   1.730   8.555  0.9032  1.5658  0.8415
   50CHL1  H26C 6176   1.330   1.800   8.492 -1.2837  1.0610  2.0920
   50CHL1   C27 6177   1.502   1.600   8.601 -0.2815 -0.6667  0.8081
   50CHL1  H27A 6178   1.548   1.696   8.570 -2.4240 -0.4254 -1.9934
   50CHL1  H27B 6179   1.559   1.567   8.690  1.2391  0.7927  0.4217
   50CHL1  H27C 6180   1.512   1.534   8.512 -1.1870  0.4277 -0.1377
   51CHL1    C3 6181   6.748   2.331  10.028  0.2413 -0.2310 -0.8142
   51CHL1    H3 6182   6.707   2.424  10.072 -1.7592 -0.3046 -2.3857
   51CHL1    O3 6183   6.804   2.259  10.141  0.0569  0.7355  0.2663
   51CHL1   H3' 6184   6.898   2.269  10.125 -0.2188  1.2217 -1.1728
   51CHL1    C4 6185   6.626   2.260   9.971  0.7476 -0.2216 -0.2495
   51CHL1   H4A 6186   6.673   2.161   9.951  1.3878 -0.2529  1.2767
   51CHL1   H4B 6187   6.549   2.256  10.051  0.8732 -0.9722 -0.1617
   51CHL1    C5 6188   6.569   2.318   9.849  0.0472 -0.2345 -0.1279
   51CHL1    C6 6189   6.441   2.342   9.829  0.3534 -0.0109 -0.1130
   51CHL1    H6 6190   6.362   2.317   9.901 -0.0495  2.4058  0.3864
   51CHL1    C7 6191   6.387   2.397   9.706  0.0195 -0.0547 -0.7631
   51CHL1   H7A 6192   6.296   2.339   9.680 -0.7970  0.7030  0.3270
   51CHL1   H7B 6193   6.348   2.498   9.729 -0.8524 -0.9293  1.8927
   51CHL1    C8 6194   6.476   2.394   9.584  0.2584 -0.0070 -0.4061
   51CHL1    H8 6195   6.464   2.295   9.536 -2.8470 -0.4161  0.9450
   51CHL1   C14 6196   6.429   2.488   9.476 -0.4823 -0.8617  0.2293
   51CHL1   H14 6197   6.438   2.590   9.519 -1.7922 -0.1453 -1.0706
   51CHL1   C15 6198   6.281   2.479   9.427  0.3604 -0.5001  0.0180
   51CHL1  H15A 6199   6.242   2.377   9.406 -0.7728  0.3277 -2.1749
   51CHL1  H15B 6200   6.221   2.534   9.503 -0.9780 -0.1888 -1.2212
   51CHL1   C16 6201   6.272   2.553   9.292  0.7354 -0.4553 -0.4560
   51CHL1  H16A 6202   6.246   2.486   9.207 -1.0217 -0.0649 -0.2460
   51CHL1  H16B 6203   6.199   2.635   9.273 -1.8086 -1.9973  2.0131
   51CHL1   C17 6204   6.420   2.594   9.261 -0.4879 -0.2714 -0.0541
   51CHL1   H17 6205   6.426   2.692   9.313  0.5883 -0.9121  1.0609
   51CHL1   C13 6206   6.510   2.496   9.344 -0.6023  0.1007  0.1443
   51CHL1   C18 6207   6.514   2.360   9.278 -0.0139 -0.7693  0.1402
   51CHL1  H18A 6208   6.587   2.351   9.195  0.6176 -1.3116  0.7342
   51CHL1  H18B 6209   6.553   2.280   9.346 -0.5469 -0.0842  1.2728
   51CHL1  H18C 6210   6.416   2.328   9.238  1.5480 -1.5898 -3.3748
   51CHL1   C12 6211   6.657   2.537   9.384  0.2688  0.4490  0.1678
   51CHL1  H12A 6212   6.718   2.533   9.291 -1.3804 -3.5102 -0.9509
   51CHL1  H12B 6213   6.651   2.644   9.415 -0.5201  0.1255  1.2105
   51CHL1   C11 6214   6.714   2.457   9.502 -0.2120 -0.2025  0.1043
   51CHL1  H11A 6215   6.755   2.363   9.458 -0.2472  0.2743 -0.9915
   51CHL1  H11B 6216   6.799   2.525   9.526  1.0762 -1.2314 -1.3516
   51CHL1    C9 6217   6.619   2.433   9.622 -0.3516  0.7576  0.2666
   51CHL1    H9 6218   6.603   2.536   9.662  2.4614  0.7069  1.7969
   51CHL1   C10 6219   6.674   2.358   9.741  0.1261  0.2152  0.2313
   51CHL1   C19 6220   6.718   2.222   9.670  0.6004  0.8879 -0.6263
   51CHL1  H19A 6221   6.818   2.240   9.626  1.0579  1.5851  0.6258
   51CHL1  H19B 6222   6.723   2.145   9.750  0.7573  1.2755 -0.2568
   51CHL1  H19C 6223   6.647   2.191   9.590  2.3784  0.1390 -1.9770
   51CHL1    C1 6224   6.795   2.434   9.802  0.4990 -0.2338 -0.5071
   51CHL1   H1A 6225   6.876   2.430   9.726  0.5968 -1.4662 -0.3543
   51CHL1   H1B 6226   6.768   2.539   9.827  0.5667 -0.4060  0.3274
   51CHL1    C2 6227   6.858   2.371   9.924 -0.4132 -0.1055 -0.7611
   51CHL1   H2A 6228   6.929   2.448   9.962 -1.1043  0.1581  0.0427
   51CHL1   H2B 6229   6.905   2.278   9.886 -0.4020 -0.8128  0.8741
   51CHL1   C20 6230   6.450   2.620   9.107 -0.5648  0.4868 -0.1567
   51CHL1   H20 6231   6.462   2.525   9.052  0.4390  1.7322 -2.2082
   51CHL1   C21 6232   6.593   2.687   9.096  0.1693 -0.5327 -0.4162
   51CHL1  H21A 6233   6.612   2.685   8.987  0.4660 -1.0248 -0.3596
   51CHL1  H21B 6234   6.682   2.643   9.146  2.3002  2.5937 -1.1730
   51CHL1  H21C 6235   6.595   2.794   9.125  1.6073 -0.5654 -0.3392
   51CHL1   C22 6236   6.338   2.690   9.032 -0.2423 -0.7610 -0.3805
   51CHL1  H22A 6237   6.243   2.641   9.060  0.1229  0.3420  3.4311
   51CHL1  H22B 6238   6.328   2.795   9.068 -1.4354 -1.1049  0.3356
   51CHL1   C23 6239   6.338   2.686   8.881  0.4355 -0.3358  0.7348
   51CHL1  H23A 6240   6.435   2.723   8.841 -0.7884  2.1896 -0.1268
   51CHL1  H23B 6241   6.335   2.576   8.864 -1.3437  0.0796 -2.4718
   51CHL1   C24 6242   6.226   2.753   8.803  0.0109 -0.7731  1.0165
   51CHL1  H24A 6243   6.123   2.717   8.825 -0.0739 -1.0991  0.1195
   51CHL1  H24B 6244   6.219   2.864   8.807 -2.3377 -0.8948  1.2584
   51CHL1   C25 6245   6.242   2.728   8.653 -0.3989  0.3709  0.2013
   51CHL1   H25 6246   6.335   2.783   8.631  0.2072 -0.3154  0.9673
   51CHL1   C26 6247   6.253   2.572   8.624  0.3750 -0.1052 -0.6801
   51CHL1  H26A 6248   6.159   2.524   8.656 -0.4382  2.3883  0.9672
   51CHL1  H26B 6249   6.248   2.561   8.513  2.2916  0.6024 -0.8828
   51CHL1  H26C 6250   6.347   2.528   8.663 -0.4501 -0.1929  1.3007
   51CHL1   C27 6251   6.134   2.786   8.574  0.0539 -0.3216  0.3015
   51CHL1  H27A 6252   6.137   2.895   8.593 -0.5044 -0.2956  0.2467
   51CHL1  H27B 6253   6.136   2.772   8.464 -0.9081  0.7247  0.1427
   51CHL1  H27C 6254   6.030   2.761   8.603 -0.5965  1.2485 -0.5846
   52CHL1    C3 6255   4.573   3.864  10.020  0.2227 -0.0517  0.5832
   52CHL1    H3 6256   4.477   3.920  10.010 -0.0822 -0.7792 -0.8440
   52CHL1    O3 6257   4.585   3.789  10.132  0.0553 -0.0509  0.0347
   52CHL1   H3' 6258   4.669   3.742  10.124  1.2579  1.8630  0.6310
   52CHL1    C4 6259   4.567   3.757   9.908  0.4060  0.0948  0.7015
   52CHL1   H4A 6260   4.663   3.702   9.912  0.8553  0.8482  0.5274
   52CHL1   H4B 6261   4.475   3.696   9.913  0.2688  0.1395 -0.7433
   52CHL1    C5 6262   4.568   3.833   9.773 -0.6406 -0.0297 -0.2930
   52CHL1    C6 6263   4.471   3.811   9.688 -0.2075 -0.1625  0.1254
   52CHL1    H6 6264   4.397   3.734   9.715 -0.8061  0.2124 -0.3862
   52CHL1    C7 6265   4.467   3.871   9.554 -0.2556 -0.0285  1.0387
   52CHL1   H7A 6266   4.451   3.791   9.478  0.2957 -0.5727  1.4834
   52CHL1   H7B 6267   4.381   3.939   9.538  1.0226  0.9994 -2.4468
   52CHL1    C8 6268   4.601   3.937   9.515 -0.8205  0.0732  0.2901
   52CHL1    H8 6269   4.673   3.855   9.491 -0.1533  1.0637 -1.2338
   52CHL1   C14 6270   4.588   4.024   9.395  0.5195  0.6761  0.3862
   52CHL1   H14 6271   4.523   4.107   9.428  1.0056  1.5005 -0.6841
   52CHL1   C15 6272   4.514   3.960   9.276 -0.7181 -0.5893  0.3473
   52CHL1  H15A 6273   4.554   3.859   9.252  1.0009  0.1616 -0.0556
   52CHL1  H15B 6274   4.406   3.951   9.302 -0.6414 -0.1104  0.8495
   52CHL1   C16 6275   4.536   4.053   9.157 -0.0929  0.5537 -0.3395
   52CHL1  H16A 6276   4.589   3.993   9.080  0.0948 -0.2639  0.4180
   52CHL1  H16B 6277   4.447   4.104   9.115 -0.8918 -0.9149 -0.4934
   52CHL1   C17 6278   4.645   4.156   9.220  0.1749 -0.1595 -0.1957
   52CHL1   H17 6279   4.577   4.232   9.266 -1.3233 -0.3233 -1.9790
   52CHL1   C13 6280   4.709   4.092   9.338  0.8321 -0.5821  0.1935
   52CHL1   C18 6281   4.813   3.987   9.291 -0.5639 -0.0776 -0.0268
   52CHL1  H18A 6282   4.766   3.906   9.231  1.8494 -1.8897  0.3942
   52CHL1  H18B 6283   4.882   4.026   9.213 -0.3631  0.0224  0.1996
   52CHL1  H18C 6284   4.881   3.951   9.371 -0.8433 -1.4251 -0.3765
   52CHL1   C12 6285   4.766   4.188   9.449 -0.4171  0.0486 -0.0814
   52CHL1  H12A 6286   4.857   4.237   9.409  0.3572 -1.3295 -0.0688
   52CHL1  H12B 6287   4.692   4.267   9.476 -1.8673 -0.9990 -0.8369
   52CHL1   C11 6288   4.789   4.107   9.581  0.2673 -0.7200 -0.8401
   52CHL1  H11A 6289   4.881   4.044   9.573  1.2514  0.1735  2.2207
   52CHL1  H11B 6290   4.809   4.171   9.670 -1.4734  0.3534 -1.1776
   52CHL1    C9 6291   4.664   4.023   9.627 -0.2108  0.5547 -0.1658
   52CHL1    H9 6292   4.583   4.089   9.662 -0.4203 -0.1892  0.7921
   52CHL1   C10 6293   4.677   3.944   9.756 -0.1091  0.2241 -0.2266
   52CHL1   C19 6294   4.813   3.870   9.744  0.2643  0.1219 -0.7879
   52CHL1  H19A 6295   4.898   3.938   9.722  0.2252  0.2745 -0.4745
   52CHL1  H19B 6296   4.823   3.818   9.842 -0.5247  0.0572 -0.7373
   52CHL1  H19C 6297   4.811   3.787   9.669  1.0274 -1.1195  0.5096
   52CHL1    C1 6298   4.690   4.035   9.882  0.3019 -0.2240 -0.3831
   52CHL1   H1A 6299   4.775   4.104   9.866  0.3030 -0.0246  0.4495
   52CHL1   H1B 6300   4.601   4.102   9.882 -0.2796 -0.9234  1.4982
   52CHL1    C2 6301   4.693   3.961  10.013 -0.2587  0.2749 -0.1288
   52CHL1   H2A 6302   4.678   4.032  10.097  0.6458 -0.3306  0.5688
   52CHL1   H2B 6303   4.790   3.907  10.012  0.6479  1.8545 -0.1345
   52CHL1   C20 6304   4.733   4.240   9.122 -0.7344  0.7036  0.0018
   52CHL1   H20 6305   4.837   4.228   9.159 -0.8768  1.7743  0.7992
   52CHL1   C21 6306   4.692   4.388   9.143  0.4078 -0.4911  0.4961
   52CHL1  H21A 6307   4.760   4.466   9.102  0.6439  0.5789  2.7996
   52CHL1  H21B 6308   4.700   4.416   9.250 -0.5125 -0.0755  0.4615
   52CHL1  H21C 6309   4.586   4.415   9.121  0.5598  0.5235  0.9551
   52CHL1   C22 6310   4.733   4.192   8.982  0.8746 -0.5507  0.0975
   52CHL1  H22A 6311   4.772   4.088   8.985  1.3132 -0.4430  4.4909
   52CHL1  H22B 6312   4.631   4.190   8.937  0.8424  0.3792  0.1000
   52CHL1   C23 6313   4.815   4.281   8.885  0.6296 -0.3975 -1.0503
   52CHL1  H23A 6314   4.783   4.387   8.890 -1.1494 -0.9407 -0.2718
   52CHL1  H23B 6315   4.916   4.273   8.930 -0.0363 -0.5860  0.4754
   52CHL1   C24 6316   4.796   4.229   8.742  0.1521 -0.2043 -0.5527
   52CHL1  H24A 6317   4.835   4.125   8.743  1.8419  0.3429 -2.2080
   52CHL1  H24B 6318   4.686   4.226   8.727 -0.1067 -1.4912  1.3588
   52CHL1   C25 6319   4.852   4.318   8.629 -0.5911 -0.1032  0.1304
   52CHL1   H25 6320   4.785   4.406   8.626 -1.4673 -0.7683 -0.2488
   52CHL1   C26 6321   4.994   4.366   8.661  0.4634  0.2481  0.1858
   52CHL1  H26A 6322   4.986   4.408   8.763  0.1249 -0.6861  0.5550
   52CHL1  H26B 6323   5.063   4.281   8.645 -0.3692 -0.0957 -1.8952
   52CHL1  H26C 6324   5.015   4.451   8.593 -0.3176 -1.5311 -2.4329
   52CHL1   C27 6325   4.842   4.247   8.486  0.4256 -0.6213  0.4384
   52CHL1  H27A 6326   4.889   4.146   8.479 -1.5504 -1.6476  0.9912
   52CHL1  H27B 6327   4.734   4.229   8.465  0.0874  2.8356 -1.2746
   52CHL1  H27C 6328   4.883   4.307   8.402  2.0491 -2.2413  0.0076
   53CHL1    C3 6329   0.741   1.768   9.845 -1.0622  0.8244  0.7331
   53CHL1    H3 6330   0.824   1.835   9.817 -1.0418  0.3484 -0.3949
   53CHL1    O3 6331   0.726   1.758   9.987  0.2416  0.1851 -0.2284
   53CHL1   H3' 6332   0.650   1.701   9.999  1.9526 -2.1327  0.1076
   53CHL1    C4 6333   0.618   1.834   9.778  0.4772  0.5446 -0.4388
   53CHL1   H4A 6334   0.525   1.778   9.803  0.4724  0.9357  0.4357
   53CHL1   H4B 6335   0.622   1.927   9.838 -0.0928 -0.7236  1.6604
   53CHL1    C5 6336   0.625   1.850   9.628  0.0906 -0.1696 -0.5637
   53CHL1    C6 6337   0.640   1.972   9.575  0.9581 -0.6746 -0.2028
   53CHL1    H6 6338   0.639   2.058   9.644  1.3529 -0.8023 -0.0344
   53CHL1    C7 6339   0.677   1.993   9.431  0.2883  0.1931  0.5001
   53CHL1   H7A 6340   0.622   2.071   9.374  2.6217  1.6484  0.1346
   53CHL1   H7B 6341   0.782   2.027   9.419  0.3115  0.3507  1.1149
   53CHL1    C8 6342   0.669   1.867   9.340 -0.5405 -0.8298 -0.2329
   53CHL1    H8 6343   0.562   1.840   9.324 -1.4797  0.7967  2.5239
   53CHL1   C14 6344   0.733   1.887   9.198 -0.3471  0.5648 -0.9730
   53CHL1   H14 6345   0.839   1.909   9.222  0.1149 -2.0781 -0.3299
   53CHL1   C15 6346   0.678   2.007   9.118 -0.3387  0.2878 -0.4592
   53CHL1  H15A 6347   0.568   2.009   9.131 -0.4855 -0.5061 -1.3993
   53CHL1  H15B 6348   0.730   2.098   9.156 -2.1912  0.6831  1.3006
   53CHL1   C16 6349   0.721   1.975   8.973 -0.0878 -0.7242  0.4511
   53CHL1  H16A 6350   0.634   1.978   8.905  0.2083 -0.9317  0.0571
   53CHL1  H16B 6351   0.803   2.042   8.940 -1.0246  0.3717  0.3073
   53CHL1   C17 6352   0.781   1.832   8.980 -0.1602 -0.1923 -1.5887
   53CHL1   H17 6353   0.888   1.842   9.006 -0.6929 -1.3918  1.4862
   53CHL1   C13 6354   0.720   1.771   9.108  0.2935 -0.6581 -0.2257
   53CHL1   C18 6355   0.575   1.728   9.084 -0.8512 -0.8154 -0.6217
   53CHL1  H18A 6356   0.524   1.791   9.008  0.1541 -0.1377 -0.7483
   53CHL1  H18B 6357   0.573   1.620   9.055 -0.3418 -1.2007  0.7022
   53CHL1  H18C 6358   0.501   1.732   9.167 -1.6489 -2.2161 -1.2302
   53CHL1   C12 6359   0.798   1.662   9.186 -0.1887  0.7882  0.6890
   53CHL1  H12A 6360   0.785   1.571   9.123 -3.5469  1.9429 -0.4899
   53CHL1  H12B 6361   0.904   1.689   9.203  0.0326  0.9590 -0.7766
   53CHL1   C11 6362   0.737   1.626   9.323 -0.2181 -0.6127 -0.0507
   53CHL1  H11A 6363   0.642   1.578   9.293  1.0579 -2.8669 -0.7274
   53CHL1  H11B 6364   0.801   1.551   9.373  1.2162  1.5955  1.6682
   53CHL1    C9 6365   0.728   1.754   9.411  0.2447 -0.1242 -0.9221
   53CHL1    H9 6366   0.831   1.789   9.433  0.8953 -2.5673  0.3784
   53CHL1   C10 6367   0.660   1.719   9.550  0.0474 -0.3651 -0.6387
   53CHL1   C19 6368   0.532   1.640   9.528  0.4923 -0.5589 -0.2078
   53CHL1  H19A 6369   0.476   1.701   9.454 -0.5311 -0.1881  0.8360
   53CHL1  H19B 6370   0.551   1.538   9.489  1.7830  0.4222 -2.2779
   53CHL1  H19C 6371   0.478   1.645   9.625  0.9644 -1.4048  0.1142
   53CHL1    C1 6372   0.768   1.633   9.627  0.3926 -0.0349  0.0006
   53CHL1   H1A 6373   0.754   1.528   9.593  1.0015  0.1626 -0.8987
   53CHL1   H1B 6374   0.870   1.663   9.594 -0.5789  1.7033 -1.6588
   53CHL1    C2 6375   0.753   1.630   9.778 -0.1337  0.6281 -0.3093
   53CHL1   H2A 6376   0.837   1.568   9.817 -2.0627 -1.1456  1.2543
   53CHL1   H2B 6377   0.662   1.572   9.806 -0.4910  1.1006 -0.4800
   53CHL1   C20 6378   0.790   1.744   8.853  0.4038  0.0120  0.1389
   53CHL1   H20 6379   0.819   1.642   8.887  2.1678 -0.6680 -2.9616
   53CHL1   C21 6380   0.902   1.790   8.758  0.2607 -0.5290  0.0242
   53CHL1  H21A 6381   1.000   1.807   8.807 -0.6907  2.0545  1.2350
   53CHL1  H21B 6382   0.869   1.884   8.709 -0.2780 -1.1742 -0.8708
   53CHL1  H21C 6383   0.929   1.719   8.677 -0.5431 -1.0188  0.1774
   53CHL1   C22 6384   0.660   1.723   8.764 -0.2045  0.1634  0.1643
   53CHL1  H22A 6385   0.576   1.671   8.814  0.6449 -1.4420 -0.0318
   53CHL1  H22B 6386   0.624   1.817   8.717  1.2614  0.4815 -0.3954
   53CHL1   C23 6387   0.688   1.629   8.642 -0.8227  0.3700 -0.5785
   53CHL1  H23A 6388   0.767   1.666   8.573  0.7700  0.8611  1.4054
   53CHL1  H23B 6389   0.725   1.532   8.680 -1.9269  0.9406  2.1655
   53CHL1   C24 6390   0.570   1.618   8.555  0.8165  0.4017  0.6424
   53CHL1  H24A 6391   0.487   1.592   8.624 -0.4558 -1.3321 -1.3964
   53CHL1  H24B 6392   0.552   1.713   8.501  0.2713 -0.9268 -1.6504
   53CHL1   C25 6393   0.580   1.498   8.454  0.1887 -0.1759  0.6525
   53CHL1   H25 6394   0.654   1.546   8.386  1.7100  1.1801  3.1261
   53CHL1   C26 6395   0.642   1.368   8.510 -0.2542 -0.1520  0.1161
   53CHL1  H26A 6396   0.624   1.274   8.454  1.4939 -0.2883 -0.2672
   53CHL1  H26B 6397   0.750   1.372   8.533 -0.3659  1.9906  0.4111
   53CHL1  H26C 6398   0.595   1.346   8.609  2.5846 -1.3668  1.2995
   53CHL1   C27 6399   0.453   1.471   8.370 -0.5089 -0.0445 -0.0404
   53CHL1  H27A 6400   0.434   1.558   8.304 -0.6083 -1.3020 -1.7745
   53CHL1  H27B 6401   0.464   1.382   8.303  3.4463 -1.3017  1.9367
   53CHL1  H27C 6402   0.364   1.454   8.434  0.8358 -1.8156  1.4981
   54CHL1    C3 6403   1.085   3.288  10.122 -0.0091  0.9965  0.3806
   54CHL1    H3 6404   1.145   3.379  10.145  1.7565 -0.0575  0.1154
   54CHL1    O3 6405   1.048   3.228  10.244 -0.1551 -0.0128  0.1006
   54CHL1   H3' 6406   1.000   3.146  10.232 -0.2816  0.1254 -0.3710
   54CHL1    C4 6407   0.950   3.333  10.049 -0.2959 -0.0483  0.6762
   54CHL1   H4A 6408   0.880   3.247  10.046 -0.1292 -0.1913  0.8863
   54CHL1   H4B 6409   0.912   3.422  10.103 -0.5313  1.2699 -1.5482
   54CHL1    C5 6410   0.980   3.382   9.910 -0.2976  0.2817 -0.7442
   54CHL1    C6 6411   0.943   3.505   9.876 -0.8147  0.4184 -0.5573
   54CHL1    H6 6412   0.886   3.567   9.947 -0.6044  1.6127 -1.3847
   54CHL1    C7 6413   0.965   3.573   9.745 -0.0233  0.4102  0.5549
   54CHL1   H7A 6414   0.881   3.634   9.705  1.0689  1.3679 -0.3424
   54CHL1   H7B 6415   1.038   3.655   9.760 -2.9403  3.2617  0.4371
   54CHL1    C8 6416   1.018   3.479   9.635  0.4723 -0.3160 -0.4469
   54CHL1    H8 6417   0.933   3.417   9.598  0.5376 -1.0005  0.5180
   54CHL1   C14 6418   1.084   3.554   9.523  0.2696  1.0746 -0.8519
   54CHL1   H14 6419   1.182   3.589   9.562 -0.1907  0.8993  0.4977
   54CHL1   C15 6420   0.990   3.662   9.474  0.1836 -0.5000 -0.2802
   54CHL1  H15A 6421   0.881   3.638   9.466 -0.0702  0.1626  0.9126
   54CHL1  H15B 6422   1.005   3.751   9.539  0.1932  0.8198 -1.9833
   54CHL1   C16 6423   1.037   3.689   9.328 -0.4533 -0.0217  0.2195
   54CHL1  H16A 6424   0.955   3.659   9.260  1.6237 -0.8150 -2.0804
   54CHL1  H16B 6425   1.073   3.791   9.303  0.6940 -0.0895  1.4441
   54CHL1   C17 6426   1.153   3.583   9.309  0.2320 -0.3028  0.3241
   54CHL1   H17 6427   1.236   3.640   9.356 -1.0430  0.9575  1.1227
   54CHL1   C13 6428   1.130   3.474   9.408  0.9625 -1.1045  0.0529
   54CHL1   C18 6429   1.020   3.376   9.360 -0.0597 -0.0197  0.4340
   54CHL1  H18A 6430   0.985   3.307   9.439 -1.7136 -2.2448 -2.0842
   54CHL1  H18B 6431   0.949   3.449   9.315  1.1546  1.8932  1.4967
   54CHL1  H18C 6432   1.049   3.307   9.278 -0.7052 -3.6243  2.9971
   54CHL1   C12 6433   1.254   3.397   9.455 -0.0486 -0.0120 -0.0380
   54CHL1  H12A 6434   1.290   3.328   9.375  1.5578  3.3963 -2.4681
   54CHL1  H12B 6435   1.343   3.460   9.474 -0.6194  1.3278 -1.6281
   54CHL1   C11 6436   1.218   3.314   9.579  0.4050 -0.3117 -0.5764
   54CHL1  H11A 6437   1.154   3.229   9.548 -2.2763  1.8789 -1.5421
   54CHL1  H11B 6438   1.304   3.264   9.629 -1.2893 -1.2025  1.6292
   54CHL1    C9 6439   1.130   3.389   9.694 -0.8154  0.6312  1.0179
   54CHL1    H9 6440   1.205   3.457   9.738  0.3814 -1.1183  1.8178
   54CHL1   C10 6441   1.074   3.308   9.822  0.4402  0.2725  0.6853
   54CHL1   C19 6442   0.987   3.189   9.764  0.8952 -0.4998  0.1079
   54CHL1  H19A 6443   0.960   3.131   9.855  1.4360  3.0432  2.7378
   54CHL1  H19B 6444   0.901   3.229   9.705  1.2745  0.9414  0.5037
   54CHL1  H19C 6445   1.041   3.118   9.698 -1.1247 -1.5905 -0.4834
   54CHL1    C1 6446   1.197   3.265   9.900 -0.5573  0.9134 -0.5934
   54CHL1   H1A 6447   1.262   3.197   9.841 -0.0700  0.1086  0.8206
   54CHL1   H1B 6448   1.262   3.353   9.920  0.9402 -0.7782  2.7872
   54CHL1    C2 6449   1.172   3.195  10.031  0.0486  0.3622  0.7002
   54CHL1   H2A 6450   1.267   3.166  10.082  0.6158  0.6814 -0.1532
   54CHL1   H2B 6451   1.110   3.107  10.004 -1.2679  1.3655  0.3299
   54CHL1   C20 6452   1.190   3.539   9.167  0.3244  0.0775  0.2192
   54CHL1   H20 6453   1.246   3.443   9.164 -1.5768 -1.0861  0.0239
   54CHL1   C21 6454   1.281   3.657   9.111 -0.1447 -0.1998 -0.2001
   54CHL1  H21A 6455   1.330   3.639   9.012 -1.0581 -0.1154 -0.6772
   54CHL1  H21B 6456   1.364   3.673   9.183 -0.8466  0.5501  0.4618
   54CHL1  H21C 6457   1.232   3.757   9.105 -2.5728 -1.3897 -1.8692
   54CHL1   C22 6458   1.065   3.524   9.069 -0.2116 -0.0881  0.1937
   54CHL1  H22A 6459   0.976   3.472   9.111 -1.2633  1.5196  0.0728
   54CHL1  H22B 6460   1.027   3.625   9.040  0.4358  1.1712  3.3112
   54CHL1   C23 6461   1.092   3.438   8.947 -0.4210  0.4062  0.5895
   54CHL1  H23A 6462   1.186   3.475   8.900  0.5338 -1.0557  1.2882
   54CHL1  H23B 6463   1.123   3.335   8.975 -3.4760 -0.4838  0.9949
   54CHL1   C24 6464   0.972   3.441   8.861 -0.4482 -0.1284 -0.3807
   54CHL1  H24A 6465   0.889   3.380   8.904 -0.2702 -0.0182  0.1279
   54CHL1  H24B 6466   0.934   3.544   8.843 -3.0110 -0.9310 -0.0185
   54CHL1   C25 6467   0.991   3.381   8.728  0.1920  0.3298  0.4131
   54CHL1   H25 6468   1.042   3.283   8.745 -0.0654  0.1354  0.0523
   54CHL1   C26 6469   0.859   3.345   8.660 -0.3181  0.0587 -0.1939
   54CHL1  H26A 6470   0.787   3.429   8.656 -1.3057 -0.5815  2.3197
   54CHL1  H26B 6471   0.864   3.292   8.563  0.9424 -0.4998  0.1459
   54CHL1  H26C 6472   0.804   3.278   8.730  0.8790  0.4070  1.1176
   54CHL1   C27 6473   1.075   3.466   8.633 -0.0890 -0.1451 -0.3298
   54CHL1  H27A 6474   1.185   3.467   8.648 -0.3464 -1.4725  2.2591
   54CHL1  H27B 6475   1.071   3.435   8.527  2.3019 -3.1528  0.3059
   54CHL1  H27C 6476   1.040   3.571   8.640  1.9643  0.6437 -1.1745
   55CHL1    C3 6477   1.709   2.024   9.936 -0.0315 -0.3435  0.1565
   55CHL1    H3 6478   1.796   1.958   9.960 -0.1251 -0.8908 -0.9621
   55CHL1    O3 6479   1.656   2.087  10.049 -0.1525 -0.0421  0.2126
   55CHL1   H3' 6480   1.696   2.038  10.122  1.2819  1.4865  0.5159
   55CHL1    C4 6481   1.758   2.136   9.841  0.0125 -0.2106  0.0402
   55CHL1   H4A 6482   1.677   2.212   9.830 -1.1947 -1.3815  0.4642
   55CHL1   H4B 6483   1.842   2.198   9.879 -1.4361  2.0350 -0.2641
   55CHL1    C5 6484   1.802   2.089   9.704 -0.5337 -0.7330 -0.2518
   55CHL1    C6 6485   1.926   2.119   9.656  0.7565 -0.3919  0.3178
   55CHL1    H6 6486   2.005   2.176   9.706  0.5958 -0.4708  0.6692
   55CHL1    C7 6487   1.971   2.084   9.519 -0.4120 -0.5319 -0.3860
   55CHL1   H7A 6488   2.036   2.162   9.474  0.5639 -1.3487 -0.4064
   55CHL1   H7B 6489   2.054   2.012   9.530  0.4940  0.5813  0.4130
   55CHL1    C8 6490   1.859   2.034   9.424  0.0505 -0.0950 -0.2401
   55CHL1    H8 6491   1.807   2.124   9.385  1.3280  0.2528 -1.2155
   55CHL1   C14 6492   1.920   1.973   9.301  0.3049 -0.1148 -0.0491
   55CHL1   H14 6493   1.972   1.883   9.339  0.4788  0.1766  0.4093
   55CHL1   C15 6494   2.026   2.051   9.221 -0.3316  0.8971 -0.6752
   55CHL1  H15A 6495   1.987   2.152   9.194  0.3746  0.8167 -2.0636
   55CHL1  H15B 6496   2.127   2.066   9.264 -1.2224  1.9866  1.1785
   55CHL1   C16 6497   2.044   1.967   9.097  0.2874 -0.2560  0.4775
   55CHL1  H16A 6498   2.043   2.035   9.010  1.1631 -2.1790 -1.1127
   55CHL1  H16B 6499   2.134   1.903   9.092 -0.1609 -1.1877  2.7323
   55CHL1   C17 6500   1.916   1.873   9.089  0.1775  0.2779 -0.1558
   55CHL1   H17 6501   1.951   1.771   9.118  0.5473  0.0511 -1.3401
   55CHL1   C13 6502   1.816   1.917   9.201 -0.3511  0.3026  1.0543
   55CHL1   C18 6503   1.731   2.037   9.146 -0.1222  0.7822  1.1522
   55CHL1  H18A 6504   1.799   2.122   9.123  0.4846 -0.0896 -0.4676
   55CHL1  H18B 6505   1.673   2.007   9.056  2.1183  1.5173 -0.6288
   55CHL1  H18C 6506   1.673   2.080   9.231 -0.6714  1.0961  0.6337
   55CHL1   C12 6507   1.728   1.816   9.275  0.2796 -0.0467 -0.4092
   55CHL1  H12A 6508   1.653   1.769   9.208  2.0526 -1.2890 -1.6014
   55CHL1  H12B 6509   1.792   1.734   9.313  0.0278  0.6113  1.5373
   55CHL1   C11 6510   1.658   1.877   9.401  0.0390 -0.2551 -0.3673
   55CHL1  H11A 6511   1.584   1.948   9.358  1.6038  0.7186 -1.6129
   55CHL1  H11B 6512   1.617   1.793   9.460 -0.4716 -2.2312 -3.2991
   55CHL1    C9 6513   1.761   1.942   9.498 -1.1237  0.1672 -0.2605
   55CHL1    H9 6514   1.823   1.857   9.533 -0.2697  1.0164  0.3535
   55CHL1   C10 6515   1.699   2.006   9.626  0.2174 -0.0351 -0.6346
   55CHL1   C19 6516   1.587   2.100   9.578 -0.3060 -0.7584 -0.0287
   55CHL1  H19A 6517   1.537   2.148   9.664  0.1430  0.5718 -0.4842
   55CHL1  H19B 6518   1.610   2.176   9.501 -0.2661  0.5181  1.2022
   55CHL1  H19C 6519   1.507   2.033   9.542  1.1829 -2.1612 -0.8622
   55CHL1    C1 6520   1.647   1.897   9.722 -0.5933  0.2988 -0.2340
   55CHL1   H1A 6521   1.569   1.836   9.673  0.4757 -2.5880  1.3868
   55CHL1   H1B 6522   1.730   1.824   9.732  0.7648  1.8143  0.0670
   55CHL1    C2 6523   1.601   1.943   9.863  0.2339  0.1025 -1.1295
   55CHL1   H2A 6524   1.582   1.858   9.932 -4.4294  2.1114  0.4344
   55CHL1   H2B 6525   1.504   1.995   9.851 -0.9843 -1.6290  0.6681
   55CHL1   C20 6526   1.860   1.850   8.945  0.9321  0.6606  0.0945
   55CHL1   H20 6527   1.815   1.947   8.914 -2.2867  0.0657  2.4164
   55CHL1   C21 6528   1.747   1.743   8.957 -0.2872  0.0275 -1.0138
   55CHL1  H21A 6529   1.719   1.712   8.854  0.3617 -2.5250 -0.4964
   55CHL1  H21B 6530   1.655   1.778   9.010  0.6458 -0.1341  0.7775
   55CHL1  H21C 6531   1.781   1.650   9.008  1.3789  1.8263  1.3721
   55CHL1   C22 6532   1.965   1.796   8.849 -0.6701 -1.3044 -0.0005
   55CHL1  H22A 6533   2.060   1.850   8.866 -0.9642 -1.3154  1.9681
   55CHL1  H22B 6534   1.999   1.691   8.858  2.9689 -0.0910  2.4720
   55CHL1   C23 6535   1.934   1.811   8.699 -0.0439 -0.8088 -0.2440
   55CHL1  H23A 6536   2.027   1.775   8.651 -0.9019  0.0299 -2.6853
   55CHL1  H23B 6537   1.855   1.734   8.683 -0.0235 -0.6707 -1.0076
   55CHL1   C24 6538   1.908   1.959   8.656 -0.0591 -0.4231  0.3991
   55CHL1  H24A 6539   1.808   1.998   8.682  0.2181  1.1801 -0.7310
   55CHL1  H24B 6540   1.977   2.024   8.714  0.8215 -0.3594 -0.6786
   55CHL1   C25 6541   1.936   1.980   8.503  0.0566  0.8127  0.3164
   55CHL1   H25 6542   2.039   1.940   8.495 -0.1714  0.2336  0.2220
   55CHL1   C26 6543   1.836   1.896   8.412  0.5507  0.1712 -0.8000
   55CHL1  H26A 6544   1.871   1.886   8.307 -1.3875 -1.4304 -1.3557
   55CHL1  H26B 6545   1.831   1.789   8.441 -0.5187  0.5365  0.4913
   55CHL1  H26C 6546   1.738   1.946   8.424 -0.6514 -2.4867  2.1572
   55CHL1   C27 6547   1.914   2.127   8.476  0.1727 -0.6771 -0.6925
   55CHL1  H27A 6548   1.939   2.154   8.371 -1.0429  0.6847 -0.6786
   55CHL1  H27B 6549   1.822   2.181   8.506  0.4567 -0.3846 -0.3337
   55CHL1  H27C 6550   2.002   2.179   8.520  0.1505 -1.3757  0.2059
   56CHL1    C3 6551   0.394   5.626  10.011  0.1598  0.0402 -0.3932
   56CHL1    H3 6552   0.464   5.700   9.967  0.7766 -1.0338 -1.2752
   56CHL1    O3 6553   0.439   5.592  10.145 -0.3969  0.3900  0.2533
   56CHL1   H3' 6554   0.400   5.662  10.197  1.2109 -0.4420  2.7812
   56CHL1    C4 6555   0.250   5.671  10.013  0.5777  0.1243  0.2368
   56CHL1   H4A 6556   0.191   5.586  10.053  0.5502 -0.6461 -1.3396
   56CHL1   H4B 6557   0.241   5.759  10.080  1.0439  0.8058 -0.5777
   56CHL1    C5 6558   0.197   5.710   9.869 -0.6642 -0.0309 -0.1650
   56CHL1    C6 6559   0.137   5.825   9.839  0.4333 -0.6479  0.3561
   56CHL1    H6 6560   0.112   5.894   9.922 -0.2029 -0.1707 -0.2243
   56CHL1    C7 6561   0.085   5.855   9.700 -0.6763 -0.4238 -0.1262
   56CHL1   H7A 6562  -0.013   5.908   9.694 -0.3171  0.0906 -3.0336
   56CHL1   H7B 6563   0.150   5.925   9.644 -0.5983  0.1639  0.6754
   56CHL1    C8 6564   0.071   5.727   9.605  0.2676  0.1016 -0.1929
   56CHL1    H8 6565  -0.024   5.677   9.633  1.2038 -1.3764  0.4179
   56CHL1   C14 6566   0.037   5.762   9.463  0.6152  0.0701  0.6113
   56CHL1   H14 6567   0.128   5.816   9.429  1.2959 -1.6287 -0.4060
   56CHL1   C15 6568  -0.088   5.848   9.443 -0.4189  0.7170 -0.5421
   56CHL1  H15A 6569  -0.172   5.796   9.494  0.8420 -1.4271 -0.5302
   56CHL1  H15B 6570  -0.065   5.954   9.466  0.2480  0.9332 -2.0407
   56CHL1   C16 6571  -0.106   5.839   9.295  0.9344 -0.0462 -0.4085
   56CHL1  H16A 6572  -0.213   5.815   9.281  1.2574 -3.4884  1.6862
   56CHL1  H16B 6573  -0.074   5.931   9.242 -0.8368  3.3432  3.8713
   56CHL1   C17 6574  -0.019   5.720   9.244 -0.3394 -0.7465  0.2010
   56CHL1   H17 6575   0.070   5.771   9.202 -1.2237  0.6217 -0.1052
   56CHL1   C13 6576   0.022   5.643   9.368  0.2128 -0.4394  1.0172
   56CHL1   C18 6577  -0.089   5.552   9.407  0.3498 -0.3519 -0.3600
   56CHL1  H18A 6578  -0.082   5.515   9.511  0.1881  0.3756 -0.0838
   56CHL1  H18B 6579  -0.189   5.596   9.387  1.2149  1.3427 -1.2251
   56CHL1  H18C 6580  -0.079   5.465   9.337 -0.5787  0.2013 -1.2043
   56CHL1   C12 6581   0.161   5.579   9.367 -0.8722 -0.3298  0.4601
   56CHL1  H12A 6582   0.167   5.489   9.302  2.7696 -0.8675  1.3518
   56CHL1  H12B 6583   0.234   5.657   9.337  0.6650 -2.4011 -1.5229
   56CHL1   C11 6584   0.197   5.531   9.511 -0.0483 -0.1425 -0.4262
   56CHL1  H11A 6585   0.135   5.440   9.523 -1.2467  0.5841 -0.8593
   56CHL1  H11B 6586   0.303   5.498   9.514 -0.4702 -1.5129  1.1203
   56CHL1    C9 6587   0.197   5.647   9.614 -0.6012  0.4483 -0.1537
   56CHL1    H9 6588   0.282   5.716   9.598 -1.0922  1.2459  0.5699
   56CHL1   C10 6589   0.223   5.597   9.763  0.2062 -0.0177  0.3042
   56CHL1   C19 6590   0.138   5.471   9.790 -0.1565  0.0431  0.0161
   56CHL1  H19A 6591   0.167   5.393   9.716  2.1345  1.5185 -0.7604
   56CHL1  H19B 6592   0.134   5.436   9.895  1.2706  2.4167  0.9443
   56CHL1  H19C 6593   0.031   5.490   9.765 -0.4189 -0.9053  0.3665
   56CHL1    C1 6594   0.368   5.543   9.776 -0.0145  0.7439 -0.1155
   56CHL1   H1A 6595   0.364   5.457   9.706 -2.6955  0.2650  0.4977
   56CHL1   H1B 6596   0.435   5.620   9.733  0.1196  1.8050  1.8716
   56CHL1    C2 6597   0.411   5.502   9.917  0.4215  0.3193 -0.2571
   56CHL1   H2A 6598   0.519   5.474   9.918  0.0781 -1.3836  2.9848
   56CHL1   H2B 6599   0.349   5.417   9.954  2.9018 -1.3143  0.4005
   56CHL1   C20 6600  -0.084   5.643   9.124  0.4822  0.0907  0.1837
   56CHL1   H20 6601  -0.166   5.578   9.160  0.2749 -0.3969 -1.0788
   56CHL1   C21 6602   0.027   5.570   9.049  0.3327  0.3747 -0.1848
   56CHL1  H21A 6603   0.113   5.635   9.022  1.7883 -1.3227  0.1337
   56CHL1  H21B 6604  -0.001   5.538   8.946  2.7658  0.3130 -0.8784
   56CHL1  H21C 6605   0.080   5.496   9.113  1.8667  2.2114  0.7813
   56CHL1   C22 6606  -0.150   5.742   9.021  0.0308 -0.1065 -0.5027
   56CHL1  H22A 6607  -0.206   5.679   8.948  2.1335 -0.4932 -1.8698
   56CHL1  H22B 6608  -0.226   5.799   9.078 -0.2659 -1.9289  1.0147
   56CHL1   C23 6609  -0.061   5.840   8.948 -0.7653 -0.3011 -0.5449
   56CHL1  H23A 6610  -0.022   5.905   9.029  0.1381 -1.5024  0.0130
   56CHL1  H23B 6611   0.025   5.789   8.900 -0.8414 -0.1644 -0.8281
   56CHL1   C24 6612  -0.140   5.920   8.842  0.0268  1.0053 -0.6241
   56CHL1  H24A 6613  -0.170   5.845   8.766  0.8650 -0.2883  0.2945
   56CHL1  H24B 6614  -0.231   5.958   8.895 -0.3694  0.7236 -1.0940
   56CHL1   C25 6615  -0.077   6.034   8.758 -0.3879 -0.4613 -0.6204
   56CHL1   H25 6616  -0.158   6.074   8.694 -2.0677 -0.8876  1.1300
   56CHL1   C26 6617  -0.042   6.141   8.861  0.0277  0.5989  0.3156
   56CHL1  H26A 6618   0.006   6.226   8.806  1.0786  0.8264  1.5367
   56CHL1  H26B 6619  -0.123   6.194   8.915 -0.4687  0.8067 -0.6036
   56CHL1  H26C 6620   0.030   6.096   8.933 -1.1393 -1.0355  0.5207
   56CHL1   C27 6621   0.058   5.999   8.684 -0.0608 -0.3689 -0.1244
   56CHL1  H27A 6622   0.067   6.067   8.597 -0.6508  0.4765  0.4631
   56CHL1  H27B 6623   0.143   6.008   8.754  0.5104  1.5433 -0.9996
   56CHL1  H27C 6624   0.050   5.896   8.641 -0.4893 -1.1040  1.6213
   57CHL1    C3 6625   1.862   2.928  10.261  0.2064 -0.3843 -0.1686
   57CHL1    H3 6626   1.853   2.820  10.235  1.4676 -0.2279 -1.3915
   57CHL1    O3 6627   1.851   2.958  10.402 -0.1055 -0.3313  0.3069
   57CHL1   H3' 6628   1.842   3.053  10.405  1.5627 -0.1327 -0.1812
   57CHL1    C4 6629   2.017   2.965  10.215  0.1542 -0.0445 -0.6123
   57CHL1   H4A 6630   2.036   3.071  10.242  2.1202 -0.1978 -1.2576
   57CHL1   H4B 6631   2.078   2.892  10.273  0.9331 -0.0149 -1.3708
   57CHL1    C5 6632   2.033   2.954  10.065 -0.3970 -0.2353  0.2166
   57CHL1    C6 6633   2.130   2.880  10.013 -0.3014 -0.1558  0.0545
   57CHL1    H6 6634   2.211   2.841  10.077  0.0427  0.8513  0.2471
   57CHL1    C7 6635   2.153   2.859   9.863 -0.4100  0.1148  0.2558
   57CHL1   H7A 6636   2.260   2.859   9.834  0.2489 -1.6429  2.3640
   57CHL1   H7B 6637   2.115   2.765   9.820 -0.9302  0.3206  0.2551
   57CHL1    C8 6638   2.081   2.965   9.766 -0.4628 -0.4239  0.0376
   57CHL1    H8 6639   2.139   3.057   9.790  0.6401 -1.2496  0.6094
   57CHL1   C14 6640   2.068   2.925   9.623  0.5761  0.1968 -0.4323
   57CHL1   H14 6641   1.999   2.840   9.637  2.0412 -0.8480  0.8628
   57CHL1   C15 6642   2.188   2.871   9.551  0.6600 -0.3148  0.8206
   57CHL1  H15A 6643   2.281   2.931   9.560  0.6475 -0.3484  1.1961
   57CHL1  H15B 6644   2.220   2.769   9.582  0.6100 -0.6534 -0.2261
   57CHL1   C16 6645   2.143   2.870   9.405  0.0049  0.8783  0.3139
   57CHL1  H16A 6646   2.218   2.932   9.351  2.2245 -0.4960  1.6091
   57CHL1  H16B 6647   2.136   2.771   9.355  1.5974  0.9286 -0.0859
   57CHL1   C17 6648   2.008   2.959   9.395 -1.4063 -0.2378 -0.6048
   57CHL1   H17 6649   1.925   2.885   9.388 -1.1054 -0.5025 -1.5214
   57CHL1   C13 6650   2.000   3.025   9.528  0.2030  0.2122 -0.1227
   57CHL1   C18 6651   2.085   3.154   9.529 -1.0952  0.1419  0.3122
   57CHL1  H18A 6652   2.096   3.199   9.630 -0.5626 -2.7416  1.6518
   57CHL1  H18B 6653   2.183   3.132   9.482 -0.7195 -2.0822  1.9660
   57CHL1  H18C 6654   2.029   3.232   9.473 -0.4678  0.0491 -0.4610
   57CHL1   C12 6655   1.860   3.054   9.580 -1.0112  0.4664  1.1550
   57CHL1  H12A 6656   1.804   3.129   9.519 -0.9919 -0.6562 -0.2947
   57CHL1  H12B 6657   1.806   2.959   9.564 -2.0782  1.5111 -2.1548
   57CHL1   C11 6658   1.855   3.090   9.726 -0.2576 -0.3552  0.3202
   57CHL1  H11A 6659   1.909   3.186   9.743 -1.7066  0.7341 -0.9244
   57CHL1  H11B 6660   1.752   3.105   9.765 -0.9684 -1.6762 -0.9431
   57CHL1    C9 6661   1.939   2.988   9.819  0.4147 -0.2372 -0.4016
   57CHL1    H9 6662   1.886   2.891   9.806 -1.3436  0.6765 -0.3621
   57CHL1   C10 6663   1.930   3.028   9.974  0.3917  0.3838  0.6760
   57CHL1   C19 6664   1.973   3.178   9.994 -0.4901 -0.3481 -0.0003
   57CHL1  H19A 6665   1.978   3.201  10.102  1.3750  0.3780 -0.1965
   57CHL1  H19B 6666   2.073   3.189   9.946 -0.5191 -0.7420 -0.1496
   57CHL1  H19C 6667   1.897   3.243   9.946  2.0645  1.5734 -1.7725
   57CHL1    C1 6668   1.782   3.006  10.031 -0.3700  0.1132  0.2344
   57CHL1   H1A 6669   1.714   3.073   9.974  0.5761  0.9878  0.0891
   57CHL1   H1B 6670   1.750   2.903  10.004 -1.2335  0.3543  0.3037
   57CHL1    C2 6671   1.768   3.022  10.179 -0.0305  0.1473  0.0274
   57CHL1   H2A 6672   1.662   3.001  10.205 -0.2933 -0.5514 -1.5006
   57CHL1   H2B 6673   1.786   3.130  10.202  2.0244 -0.0740 -0.3807
   57CHL1   C20 6674   1.989   3.038   9.269 -0.3792 -0.1252 -0.6738
   57CHL1   H20 6675   2.069   3.115   9.266  0.0599 -0.2598  3.0220
   57CHL1   C21 6676   1.852   3.106   9.255  0.4530  0.3401 -0.5046
   57CHL1  H21A 6677   1.844   3.179   9.338  0.1849  0.2163 -0.4171
   57CHL1  H21B 6678   1.768   3.035   9.272  2.1339 -1.5214  0.3577
   57CHL1  H21C 6679   1.844   3.165   9.161 -0.5553  1.0031 -0.0341
   57CHL1   C22 6680   2.010   2.951   9.140 -0.5514 -0.3230 -0.3361
   57CHL1  H22A 6681   2.119   2.935   9.129 -0.5883  0.5582 -2.3250
   57CHL1  H22B 6682   1.966   2.852   9.165 -0.2827  0.1034  2.1489
   57CHL1   C23 6683   1.965   3.016   9.004 -0.8005  0.9545  0.8173
   57CHL1  H23A 6684   1.867   3.067   8.992 -0.2595  2.8235  3.4633
   57CHL1  H23B 6685   2.027   3.108   9.009 -1.3079  1.4646 -1.4012
   57CHL1   C24 6686   2.007   2.927   8.883 -0.1495 -0.0654  0.1180
   57CHL1  H24A 6687   2.116   2.906   8.878 -0.7442 -4.2987  1.0919
   57CHL1  H24B 6688   1.961   2.826   8.882  0.2838 -0.3209  2.3355
   57CHL1   C25 6689   1.960   2.989   8.747  0.0470 -0.1914 -0.4811
   57CHL1   H25 6690   2.003   3.091   8.739  1.6604 -0.6035  1.9148
   57CHL1   C26 6691   2.013   2.918   8.622  0.0121 -0.1591  0.2947
   57CHL1  H26A 6692   2.118   2.887   8.638 -0.3821 -1.3680  0.6408
   57CHL1  H26B 6693   1.948   2.829   8.609 -1.6135  0.8227  1.3563
   57CHL1  H26C 6694   2.003   2.984   8.533 -0.2952 -0.2730  0.2444
   57CHL1   C27 6695   1.811   3.006   8.736 -0.6016 -0.5065  0.0042
   57CHL1  H27A 6696   1.750   2.923   8.777 -0.4272 -0.4401  0.4035
   57CHL1  H27B 6697   1.779   3.099   8.787 -0.3201 -0.4492  0.0769
   57CHL1  H27C 6698   1.779   3.019   8.630 -0.3532 -1.0070 -0.1326
   58CHL1    C3 6699   6.184   0.683  10.205  0.3090 -0.0632 -0.1414
   58CHL1    H3 6700   6.148   0.788  10.207  1.4616  0.3324  0.5887
   58CHL1    O3 6701   6.112   0.607  10.303 -0.1617 -0.4360 -0.6395
   58CHL1   H3' 6702   6.158   0.523  10.295  0.3238 -0.2579  0.2433
   58CHL1    C4 6703   6.161   0.610  10.067 -0.1872 -0.5713 -1.0483
   58CHL1   H4A 6704   6.165   0.501  10.086 -0.0342 -0.3595  0.1801
   58CHL1   H4B 6705   6.057   0.621  10.028 -0.8859 -1.8161  0.3642
   58CHL1    C5 6706   6.260   0.648   9.958 -0.0675  0.5469  0.2130
   58CHL1    C6 6707   6.227   0.675   9.835  0.6252 -1.1457  0.0887
   58CHL1    H6 6708   6.119   0.675   9.814  0.4978 -0.3860  0.7067
   58CHL1    C7 6709   6.311   0.707   9.716 -0.2217 -0.3390  0.1974
   58CHL1   H7A 6710   6.287   0.645   9.627  0.0995  0.8421 -0.7327
   58CHL1   H7B 6711   6.300   0.813   9.686  1.0807  0.0195  0.8716
   58CHL1    C8 6712   6.467   0.687   9.741 -0.6452  0.3433  0.4725
   58CHL1    H8 6713   6.487   0.579   9.721 -0.7076  0.2404  0.9444
   58CHL1   C14 6714   6.543   0.775   9.648  0.5727  0.7585 -0.2514
   58CHL1   H14 6715   6.511   0.880   9.664  0.7712  0.7311  0.3194
   58CHL1   C15 6716   6.520   0.759   9.501  0.3866 -0.1789 -0.5294
   58CHL1  H15A 6717   6.505   0.651   9.479  0.8314 -0.3225 -0.1464
   58CHL1  H15B 6718   6.431   0.811   9.460 -0.1741 -0.6294  0.0893
   58CHL1   C16 6719   6.638   0.827   9.434 -0.3328  0.2166 -0.3482
   58CHL1  H16A 6720   6.681   0.760   9.357 -0.2352 -0.0355 -0.0797
   58CHL1  H16B 6721   6.613   0.922   9.383 -3.3916  0.4958  1.3783
   58CHL1   C17 6722   6.743   0.845   9.547 -0.2610  0.0008  0.0054
   58CHL1   H17 6723   6.731   0.951   9.577  0.5063  0.9380 -2.7328
   58CHL1   C13 6724   6.695   0.756   9.663  0.6670 -0.4796  0.5735
   58CHL1   C18 6725   6.742   0.608   9.632 -0.6977 -0.0151 -0.1133
   58CHL1  H18A 6726   6.707   0.591   9.528 -4.1648  1.2343  0.7266
   58CHL1  H18B 6727   6.852   0.602   9.641 -0.3901  3.2910 -0.3913
   58CHL1  H18C 6728   6.697   0.541   9.708 -0.8175  2.7120  2.3991
   58CHL1   C12 6729   6.732   0.794   9.800  0.1105 -0.0485 -0.5840
   58CHL1  H12A 6730   6.839   0.765   9.810 -0.2756 -0.8475  1.9358
   58CHL1  H12B 6731   6.721   0.904   9.814  1.5030  0.1859 -1.1692
   58CHL1   C11 6732   6.655   0.722   9.914 -0.8822  0.4438 -0.0614
   58CHL1  H11A 6733   6.692   0.617   9.907  0.7280  0.9470  0.6440
   58CHL1  H11B 6734   6.675   0.758  10.017 -2.0825  0.9176  0.0258
   58CHL1    C9 6735   6.503   0.725   9.884  0.9198  0.0064 -0.8193
   58CHL1    H9 6736   6.471   0.830   9.902  0.7707 -0.0663 -0.6501
   58CHL1   C10 6737   6.411   0.655   9.994 -0.0275 -0.4375  0.4545
   58CHL1   C19 6738   6.464   0.515  10.000 -0.6976  0.1759  0.6854
   58CHL1  H19A 6739   6.403   0.460  10.075  1.6786  0.1555  2.7099
   58CHL1  H19B 6740   6.472   0.460   9.904  0.9346 -0.6693  1.2806
   58CHL1  H19C 6741   6.567   0.509  10.040 -0.4721  1.9557  0.4531
   58CHL1    C1 6742   6.420   0.737  10.126  0.0069  1.0013 -0.3990
   58CHL1   H1A 6743   6.528   0.729  10.151 -0.0454 -0.2963 -0.5135
   58CHL1   H1B 6744   6.406   0.847  10.116 -0.5545  0.8733 -1.1110
   58CHL1    C2 6745   6.336   0.678  10.237 -0.0144 -0.1140 -0.5709
   58CHL1   H2A 6746   6.350   0.740  10.328 -1.3437  0.9487 -1.0651
   58CHL1   H2B 6747   6.368   0.576  10.267  0.2011 -0.0095 -0.4418
   58CHL1   C20 6748   6.891   0.831   9.493  0.1508  0.5127 -1.2429
   58CHL1   H20 6749   6.909   0.725   9.466 -1.2832 -0.4022  1.0632
   58CHL1   C21 6750   6.988   0.862   9.601 -0.4546 -0.4945  0.1889
   58CHL1  H21A 6751   7.023   0.772   9.655  0.3884  0.5728  1.5093
   58CHL1  H21B 6752   6.927   0.930   9.665  0.2611  0.3388  0.0106
   58CHL1  H21C 6753   7.072   0.927   9.569 -0.6628  0.3887  1.3357
   58CHL1   C22 6754   6.934   0.915   9.365 -0.3462 -0.5596  0.0875
   58CHL1  H22A 6755   6.901   1.020   9.375  0.0291 -0.4985  0.8126
   58CHL1  H22B 6756   7.044   0.917   9.382 -0.3119 -1.9254  0.2060
   58CHL1   C23 6757   6.898   0.838   9.236 -0.0551  0.4632  0.0630
   58CHL1  H23A 6758   6.911   0.730   9.256  1.9408  1.0402  2.4033
   58CHL1  H23B 6759   6.791   0.847   9.210 -0.2852 -2.1699 -0.1940
   58CHL1   C24 6760   6.986   0.882   9.118 -0.2259  0.4124 -0.5212
   58CHL1  H24A 6761   6.968   0.992   9.115  1.9994  0.9108  1.7160
   58CHL1  H24B 6762   7.093   0.868   9.142 -0.1397  1.3143 -0.3307
   58CHL1   C25 6763   6.959   0.823   8.980  0.0273  0.2327  0.7700
   58CHL1   H25 6764   6.946   0.715   9.003 -1.5272  0.3222  0.4805
   58CHL1   C26 6765   6.837   0.882   8.910  0.0221  1.0127  0.3200
   58CHL1  H26A 6766   6.839   0.989   8.877  0.1481  1.0108  0.3211
   58CHL1  H26B 6767   6.814   0.822   8.819 -0.9750 -0.5724  1.5697
   58CHL1  H26C 6768   6.751   0.856   8.975  0.3455 -0.8767  0.0260
   58CHL1   C27 6769   7.089   0.828   8.899 -0.0954  0.0212  0.8307
   58CHL1  H27A 6770   7.174   0.807   8.967 -0.3105  0.2350  1.1708
   58CHL1  H27B 6771   7.076   0.761   8.811  1.0541  0.4618  0.3109
   58CHL1  H27C 6772   7.103   0.928   8.855 -1.1943  0.0287  0.4784
   59CHL1    C3 6773   4.186   6.779  10.283 -0.1904 -0.5402  0.5998
   59CHL1    H3 6774   4.295   6.782  10.260 -0.5379  0.8081 -1.1441
   59CHL1    O3 6775   4.144   6.816  10.411 -0.2627  0.0102 -0.1080
   59CHL1   H3' 6776   4.163   6.909  10.420  0.0835 -0.0724  0.0209
   59CHL1    C4 6777   4.112   6.870  10.189  0.1067 -0.0064 -0.6095
   59CHL1   H4A 6778   4.002   6.859  10.203 -0.2306  0.4318 -2.5795
   59CHL1   H4B 6779   4.131   6.975  10.222  0.2227 -0.8131  2.1137
   59CHL1    C5 6780   4.136   6.844  10.040  0.3660 -0.7046  0.1963
   59CHL1    C6 6781   4.183   6.945   9.962  0.5157  0.5645 -0.0233
   59CHL1    H6 6782   4.209   7.039  10.012  0.5188  0.5667 -0.0288
   59CHL1    C7 6783   4.214   6.929   9.818  1.1600 -0.5014  0.3030
   59CHL1   H7A 6784   4.175   7.014   9.757  0.8643 -1.8832 -1.5187
   59CHL1   H7B 6785   4.323   6.917   9.801  0.5709 -1.7216 -3.9474
   59CHL1    C8 6786   4.151   6.795   9.756 -0.1210 -0.1311  0.2902
   59CHL1    H8 6787   4.045   6.813   9.730 -0.0022  0.0766 -0.0672
   59CHL1   C14 6788   4.225   6.763   9.629 -0.6337 -0.8753 -0.4578
   59CHL1   H14 6789   4.329   6.744   9.665  0.4240  1.2450 -2.1469
   59CHL1   C15 6790   4.245   6.873   9.520  0.5883 -0.1883 -0.5232
   59CHL1  H15A 6791   4.156   6.936   9.501  0.0984 -1.1843 -1.6292
   59CHL1  H15B 6792   4.341   6.925   9.540  0.3217 -0.2480  1.0327
   59CHL1   C16 6793   4.272   6.794   9.390 -0.1736  0.2125  0.4930
   59CHL1  H16A 6794   4.181   6.798   9.326 -1.2267  0.3519  1.9362
   59CHL1  H16B 6795   4.361   6.830   9.334 -0.4838 -0.5816 -0.5392
   59CHL1   C17 6796   4.285   6.645   9.429 -0.0007 -0.5510 -0.2649
   59CHL1   H17 6797   4.388   6.628   9.466 -0.1932  1.4403  1.3464
   59CHL1   C13 6798   4.183   6.637   9.547 -0.3948  0.0696 -0.4957
   59CHL1   C18 6799   4.039   6.655   9.509  0.1352  0.1586 -0.8607
   59CHL1  H18A 6800   3.975   6.647   9.599 -1.3841  0.4974 -1.8657
   59CHL1  H18B 6801   4.021   6.750   9.453 -0.8295  0.5155  0.0164
   59CHL1  H18C 6802   4.010   6.571   9.441 -0.5150  0.7759 -1.3704
   59CHL1   C12 6803   4.195   6.517   9.645  0.5408  0.2105 -0.3696
   59CHL1  H12A 6804   4.170   6.417   9.605  2.1276  0.3261 -1.7695
   59CHL1  H12B 6805   4.303   6.505   9.667 -0.1365 -3.2914  1.7064
   59CHL1   C11 6806   4.121   6.544   9.784 -0.5021  0.6470 -0.2083
   59CHL1  H11A 6807   4.012   6.544   9.765 -0.5902  3.3801 -0.0103
   59CHL1  H11B 6808   4.153   6.465   9.856 -2.9140  0.9524  1.2946
   59CHL1    C9 6809   4.164   6.677   9.851  0.0456 -0.0040 -0.9107
   59CHL1    H9 6810   4.273   6.670   9.873  0.4845 -0.7683 -3.0941
   59CHL1   C10 6811   4.104   6.702   9.994 -0.0126 -0.4272 -0.4312
   59CHL1   C19 6812   3.951   6.672   9.988 -0.5783 -0.1627 -0.7371
   59CHL1  H19A 6813   3.912   6.672  10.093  0.8327  1.1458 -0.1860
   59CHL1  H19B 6814   3.901   6.746   9.923 -0.4503 -1.5291 -2.4725
   59CHL1  H19C 6815   3.930   6.569   9.951  1.0186 -0.1079 -1.8680
   59CHL1    C1 6816   4.163   6.605  10.102  0.2544  0.3825  0.4778
   59CHL1   H1A 6817   4.124   6.507  10.069  0.2180 -0.0800  1.8344
   59CHL1   H1B 6818   4.274   6.603  10.107  0.2122  0.5240  2.0161
   59CHL1    C2 6819   4.138   6.634  10.252  0.1453  0.0735  0.5002
   59CHL1   H2A 6820   4.184   6.563  10.324  0.2039 -0.7342 -0.3203
   59CHL1   H2B 6821   4.028   6.642  10.265 -0.0128 -1.3398  0.1119
   59CHL1   C20 6822   4.258   6.562   9.303  0.3123  0.1458  0.1379
   59CHL1   H20 6823   4.152   6.564   9.271  0.4601  1.0370 -0.3230
   59CHL1   C21 6824   4.300   6.411   9.334  0.2525  0.1413  0.0155
   59CHL1  H21A 6825   4.245   6.371   9.422 -0.3978  0.5371 -0.2004
   59CHL1  H21B 6826   4.410   6.406   9.348  0.1764  0.7305  0.8474
   59CHL1  H21C 6827   4.282   6.346   9.246  0.4895 -0.7946  0.6479
   59CHL1   C22 6828   4.322   6.614   9.172 -0.3163  0.6436  0.6025
   59CHL1  H22A 6829   4.285   6.716   9.148 -2.3450 -0.3998 -1.1274
   59CHL1  H22B 6830   4.430   6.616   9.196 -0.7675  0.3064  2.9034
   59CHL1   C23 6831   4.295   6.537   9.042  0.2475 -0.4643  0.5479
   59CHL1  H23A 6832   4.341   6.436   9.050  1.4579 -0.1174 -1.3953
   59CHL1  H23B 6833   4.187   6.522   9.025 -0.1625  0.9438  1.7156
   59CHL1   C24 6834   4.359   6.619   8.926 -0.1503  0.1069  0.8023
   59CHL1  H24A 6835   4.301   6.709   8.898  0.8626  0.6914  0.5159
   59CHL1  H24B 6836   4.462   6.652   8.952  0.0543  0.3314 -0.2423
   59CHL1   C25 6837   4.377   6.532   8.794  1.0048 -0.9511 -0.3977
   59CHL1   H25 6838   4.446   6.447   8.813  0.3829 -1.8981 -2.1690
   59CHL1   C26 6839   4.245   6.476   8.739 -0.7646 -0.2183 -1.0833
   59CHL1  H26A 6840   4.249   6.440   8.634 -1.7944 -1.4533 -0.7328
   59CHL1  H26B 6841   4.200   6.397   8.802  2.4248 -0.5727  0.9788
   59CHL1  H26C 6842   4.164   6.551   8.732  0.0339  0.5909 -1.9682
   59CHL1   C27 6843   4.432   6.627   8.690 -0.1644 -0.1995 -0.0041
   59CHL1  H27A 6844   4.455   6.565   8.601  0.2798  1.1245 -0.8368
   59CHL1  H27B 6845   4.357   6.708   8.676  0.6538  0.2568 -2.1158
   59CHL1  H27C 6846   4.526   6.675   8.725 -0.4314  0.7468 -0.5583
   60CHL1    C3 6847   4.584   6.587  10.069  0.3852  0.2811 -0.4238
   60CHL1    H3 6848   4.502   6.537  10.014 -0.2315 -0.7311  1.3337
   60CHL1    O3 6849   4.566   6.571  10.202 -0.0094  0.1361  0.3627
   60CHL1   H3' 6850   4.638   6.622  10.240  0.1105  0.7644 -0.6562
   60CHL1    C4 6851   4.718   6.529  10.031 -0.5884  0.1233  0.2174
   60CHL1   H4A 6852   4.804   6.585  10.074 -0.7221  0.2177  0.3616
   60CHL1   H4B 6853   4.718   6.426  10.073 -0.6582  0.1925  0.3872
   60CHL1    C5 6854   4.718   6.536   9.877  0.0117  0.3771  0.1261
   60CHL1    C6 6855   4.731   6.427   9.801  0.3071  0.8936  0.3861
   60CHL1    H6 6856   4.749   6.329   9.847 -1.3504  0.5948  0.4701
   60CHL1    C7 6857   4.740   6.425   9.651  0.1463 -0.4787  0.3648
   60CHL1   H7A 6858   4.826   6.366   9.615 -0.1411  0.8977 -3.0021
   60CHL1   H7B 6859   4.647   6.378   9.613 -0.6163  1.0819  0.2204
   60CHL1    C8 6860   4.759   6.563   9.600 -0.1436  0.5805  0.3621
   60CHL1    H8 6861   4.865   6.594   9.618  0.5185 -0.1265 -1.9686
   60CHL1   C14 6862   4.739   6.572   9.452 -0.4854 -0.3502 -0.6765
   60CHL1   H14 6863   4.636   6.533   9.438  0.0284 -1.7671 -0.6580
   60CHL1   C15 6864   4.827   6.476   9.369 -0.8193 -0.2763  0.3161
   60CHL1  H15A 6865   4.931   6.505   9.395  1.2336 -4.2964 -2.3547
   60CHL1  H15B 6866   4.809   6.372   9.405  1.0303 -0.1823  1.6866
   60CHL1   C16 6867   4.789   6.513   9.227 -0.4209  0.2319 -0.1871
   60CHL1  H16A 6868   4.884   6.508   9.170 -0.3547  3.5559 -0.5196
   60CHL1  H16B 6869   4.712   6.447   9.181 -0.1897 -0.5909  0.5790
   60CHL1   C17 6870   4.733   6.659   9.243  0.1677  0.0573  0.3073
   60CHL1   H17 6871   4.623   6.653   9.225  0.2753  2.4703 -1.7729
   60CHL1   C13 6872   4.741   6.703   9.392  0.0492 -0.1657 -0.0576
   60CHL1   C18 6873   4.877   6.770   9.422 -0.5841 -0.0436  0.2617
   60CHL1  H18A 6874   4.971   6.719   9.391 -0.0735  0.0016  1.6815
   60CHL1  H18B 6875   4.883   6.872   9.379  1.1830  0.2180  1.0517
   60CHL1  H18C 6876   4.882   6.780   9.532  0.1087  1.2895  0.1241
   60CHL1   C12 6877   4.631   6.794   9.448  0.3265  0.4444 -0.4229
   60CHL1  H12A 6878   4.645   6.896   9.408  0.3107  1.2836  1.6086
   60CHL1  H12B 6879   4.535   6.745   9.423  0.2197  0.9322 -0.9807
   60CHL1   C11 6880   4.648   6.805   9.601 -0.6209  0.1277  0.5308
   60CHL1  H11A 6881   4.735   6.872   9.618 -1.9435  2.1060 -0.0359
   60CHL1  H11B 6882   4.563   6.852   9.655  1.8754  0.6221  4.4254
   60CHL1    C9 6883   4.660   6.663   9.663 -0.0684 -0.6298 -0.5718
   60CHL1    H9 6884   4.555   6.627   9.659 -0.5804  0.5340  1.4721
   60CHL1   C10 6885   4.703   6.683   9.817  0.2037 -0.2534 -0.6219
   60CHL1   C19 6886   4.833   6.767   9.837 -0.1406 -0.1248  0.0506
   60CHL1  H19A 6887   4.918   6.720   9.783  2.8531  0.5212  3.7884
   60CHL1  H19B 6888   4.827   6.868   9.791  0.4126 -1.3144 -2.8080
   60CHL1  H19C 6889   4.857   6.759   9.945  0.2519  0.1228 -0.0122
   60CHL1    C1 6890   4.581   6.742   9.887 -0.0179 -0.9643 -0.1819
   60CHL1   H1A 6891   4.589   6.847   9.852  0.2844 -1.6719 -2.4115
   60CHL1   H1B 6892   4.489   6.693   9.850 -0.1498 -1.6458  0.9789
   60CHL1    C2 6893   4.572   6.744  10.037 -0.0295  0.5721  0.5513
   60CHL1   H2A 6894   4.477   6.781  10.081  0.5612 -1.3606  3.7979
   60CHL1   H2B 6895   4.661   6.792  10.082  0.7786 -0.1180 -0.2498
   60CHL1   C20 6896   4.783   6.753   9.131 -0.5482 -0.3499 -0.1029
   60CHL1   H20 6897   4.887   6.787   9.152 -0.6274  1.4659 -2.2840
   60CHL1   C21 6898   4.694   6.880   9.132 -0.1970  0.5264 -0.0726
   60CHL1  H21A 6899   4.710   6.941   9.040 -0.0125 -0.3199 -0.6105
   60CHL1  H21B 6900   4.725   6.953   9.210  0.3147 -0.0401  0.2695
   60CHL1  H21C 6901   4.584   6.872   9.140 -0.3830  3.3411  1.6255
   60CHL1   C22 6902   4.806   6.689   8.991 -0.0994 -0.5221  0.4086
   60CHL1  H22A 6903   4.871   6.599   9.001 -0.0567 -0.3945  1.3319
   60CHL1  H22B 6904   4.704   6.660   8.958 -0.0139 -0.3229 -0.0341
   60CHL1   C23 6905   4.858   6.771   8.871  0.0685  0.2354 -0.2604
   60CHL1  H23A 6906   4.861   6.718   8.774 -0.8113  1.1674 -0.8249
   60CHL1  H23B 6907   4.790   6.859   8.863 -0.9163 -0.4064  0.7746
   60CHL1   C24 6908   4.998   6.837   8.909  0.4119  0.4017 -0.2413
   60CHL1  H24A 6909   4.972   6.914   8.985  0.1683  0.7592 -0.6828
   60CHL1  H24B 6910   5.071   6.764   8.949  0.3498  1.2446  1.5431
   60CHL1   C25 6911   5.050   6.930   8.791 -0.9370  0.1840 -0.1500
   60CHL1   H25 6912   5.133   6.986   8.839 -0.6118 -0.4899  0.0986
   60CHL1   C26 6913   5.104   6.858   8.668  0.0475 -0.7976 -0.1858
   60CHL1  H26A 6914   5.187   6.790   8.695  1.7623  0.8938 -1.0405
   60CHL1  H26B 6915   5.015   6.804   8.630 -0.3014 -0.2142 -0.2198
   60CHL1  H26C 6916   5.144   6.924   8.589 -0.9801 -0.2900 -0.3103
   60CHL1   C27 6917   4.944   7.039   8.752  0.4064  0.4836  0.1951
   60CHL1  H27A 6918   4.902   7.091   8.841 -2.3276  0.0145 -0.7294
   60CHL1  H27B 6919   5.001   7.113   8.692  1.5970 -2.9781 -3.3583
   60CHL1  H27C 6920   4.856   7.007   8.694 -0.7029  0.1727  1.9594
   61CHL1    C3 6921   0.841   4.653  10.226  0.2864 -0.1902 -0.1595
   61CHL1    H3 6922   0.936   4.596  10.223 -0.3436 -1.4098  1.6650
   61CHL1    O3 6923   0.793   4.639  10.354  0.0529 -0.4112  0.1783
   61CHL1   H3' 6924   0.697   4.640  10.351 -0.0058  0.9905 -3.3132
   61CHL1    C4 6925   0.865   4.805  10.184  0.0889 -0.1394  0.4849
   61CHL1   H4A 6926   0.776   4.867  10.208 -0.0963  0.3287 -1.2356
   61CHL1   H4B 6927   0.933   4.849  10.260 -0.4874 -1.5603  1.8831
   61CHL1    C5 6928   0.900   4.825  10.041  0.3825 -0.0285  0.7340
   61CHL1    C6 6929   1.011   4.882  10.005 -0.8329 -0.1336  0.0821
   61CHL1    H6 6930   1.081   4.903  10.087  0.9537 -0.3599 -1.3321
   61CHL1    C7 6931   1.050   4.902   9.860  0.4356 -0.2968  0.3392
   61CHL1   H7A 6932   1.111   4.992   9.837  3.4301 -2.4307 -0.6381
   61CHL1   H7B 6933   1.119   4.818   9.839 -0.1713  0.0229 -3.8685
   61CHL1    C8 6934   0.927   4.896   9.759  0.1817  0.0233  0.3123
   61CHL1    H8 6935   0.857   4.982   9.768 -2.7201 -2.1039 -0.3460
   61CHL1   C14 6936   0.973   4.878   9.611 -0.5991  0.2322  1.1846
   61CHL1   H14 6937   1.042   4.792   9.621  2.4625  2.3003 -0.4446
   61CHL1   C15 6938   1.062   4.986   9.546  0.2725  0.7850  0.1797
   61CHL1  H15A 6939   1.004   5.076   9.576 -2.1191 -1.0288  1.3517
   61CHL1  H15B 6940   1.171   4.992   9.566  0.6240 -1.6268 -0.6984
   61CHL1   C16 6941   1.046   4.965   9.396 -0.0553  0.1690  0.0771
   61CHL1  H16A 6942   1.005   5.061   9.359  0.3155  0.5522  0.6438
   61CHL1  H16B 6943   1.145   4.949   9.348  0.3264 -1.1088  1.2370
   61CHL1   C17 6944   0.940   4.856   9.376  0.5005 -0.0245  0.5547
   61CHL1   H17 6945   1.003   4.765   9.369  0.3439 -0.1081  0.1995
   61CHL1   C13 6946   0.860   4.849   9.515 -0.5856 -0.2225 -0.2915
   61CHL1   C18 6947   0.756   4.958   9.512 -0.4871  0.8502 -0.7465
   61CHL1  H18A 6948   0.786   5.057   9.471 -1.8603  2.4550  1.8436
   61CHL1  H18B 6949   0.673   4.924   9.447 -0.8576  0.7992 -0.2520
   61CHL1  H18C 6950   0.711   4.975   9.612  0.7715  0.6749 -0.1386
   61CHL1   C12 6951   0.800   4.711   9.558 -0.2149 -0.6285 -0.0071
   61CHL1  H12A 6952   0.731   4.687   9.474  1.0962  0.8285 -1.5758
   61CHL1  H12B 6953   0.882   4.636   9.562  0.2098 -0.2545 -1.2828
   61CHL1   C11 6954   0.731   4.727   9.690 -0.5127  0.6466 -0.3890
   61CHL1  H11A 6955   0.638   4.787   9.690 -1.3363 -0.5208 -2.4619
   61CHL1  H11B 6956   0.700   4.623   9.715 -0.8393  0.2974 -2.1017
   61CHL1    C9 6957   0.842   4.773   9.798  0.8162  0.6720  0.5821
   61CHL1    H9 6958   0.915   4.689   9.798 -0.0070 -0.0484  1.1415
   61CHL1   C10 6959   0.796   4.764   9.942 -0.3192  0.7735 -0.7046
   61CHL1   C19 6960   0.666   4.851   9.954 -0.2487 -0.5439 -0.2429
   61CHL1  H19A 6961   0.584   4.812   9.889  1.9503 -0.7624 -3.1135
   61CHL1  H19B 6962   0.634   4.851  10.060  3.3401 -1.1845  0.9879
   61CHL1  H19C 6963   0.692   4.955   9.925  3.1378 -1.8555 -2.6306
   61CHL1    C1 6964   0.772   4.618   9.987 -0.0904 -0.5369 -0.6900
   61CHL1   H1A 6965   0.696   4.577   9.917  1.8708 -3.5380 -1.2197
   61CHL1   H1B 6966   0.864   4.557   9.974 -0.2716 -1.0695  0.3788
   61CHL1    C2 6967   0.730   4.603  10.134 -0.2005  0.5388  0.1129
   61CHL1   H2A 6968   0.714   4.493  10.144  0.8426  0.3867  0.1948
   61CHL1   H2B 6969   0.629   4.643  10.157  0.1039  1.1617  0.3920
   61CHL1   C20 6970   0.860   4.862   9.242 -0.0052  0.5628  0.4106
   61CHL1   H20 6971   0.761   4.912   9.256  0.2887  1.3943 -0.3816
   61CHL1   C21 6972   0.819   4.720   9.190  0.1325 -0.3390 -0.2510
   61CHL1  H21A 6973   0.918   4.674   9.166  0.4235  0.6008 -0.8833
   61CHL1  H21B 6974   0.749   4.707   9.105 -2.2687 -1.9238  1.8230
   61CHL1  H21C 6975   0.776   4.661   9.274 -1.2416 -1.9648 -1.9998
   61CHL1   C22 6976   0.925   4.935   9.124 -0.2080  0.1821  0.3217
   61CHL1  H22A 6977   0.957   5.037   9.155  0.3808  0.0885  0.0267
   61CHL1  H22B 6978   1.018   4.883   9.093 -0.6032  0.1266 -0.8069
   61CHL1   C23 6979   0.837   4.973   9.004  0.4905  0.4160 -0.5327
   61CHL1  H23A 6980   0.799   4.883   8.952 -0.2051  0.5439 -0.2521
   61CHL1  H23B 6981   0.741   5.021   9.031  0.7168  0.2570  0.5928
   61CHL1   C24 6982   0.910   5.069   8.912 -0.2018 -0.1281  0.6570
   61CHL1  H24A 6983   0.924   5.168   8.961  1.2071 -1.4530  3.1132
   61CHL1  H24B 6984   1.013   5.033   8.895 -0.2180  0.3113 -0.4793
   61CHL1   C25 6985   0.846   5.077   8.767 -0.5892 -0.1040  0.3936
   61CHL1   H25 6986   0.735   5.082   8.774 -0.6150 -1.0338  0.8445
   61CHL1   C26 6987   0.900   5.205   8.696  0.0445 -0.4447  0.1779
   61CHL1  H26A 6988   0.845   5.290   8.742 -1.0848 -0.5422 -0.9316
   61CHL1  H26B 6989   1.011   5.211   8.701  0.1783 -0.9142 -1.5664
   61CHL1  H26C 6990   0.870   5.214   8.589  0.8467  0.5076  0.0226
   61CHL1   C27 6991   0.905   4.956   8.696 -0.1958  0.0274 -0.0786
   61CHL1  H27A 6992   0.855   4.952   8.597 -2.2987 -0.3101  0.9594
   61CHL1  H27B 6993   1.014   4.976   8.684 -0.1341 -0.0588  0.3205
   61CHL1  H27C 6994   0.883   4.859   8.744 -3.6087  1.9630  2.7680
   62CHL1    C3 6995   2.308   1.961   9.984 -0.0311  0.3430 -0.7857
   62CHL1    H3 6996   2.414   1.930   9.969  0.7265  1.8296  1.0666
   62CHL1    O3 6997   2.303   2.063  10.087 -0.1910  0.8827  0.1935
   62CHL1   H3' 6998   2.375   2.116  10.052 -0.5776  0.6055 -1.0938
   62CHL1    C4 6999   2.263   2.027   9.852  0.0613 -0.6172 -0.4665
   62CHL1   H4A 7000   2.158   2.057   9.874 -0.0355 -1.0693 -0.2897
   62CHL1   H4B 7001   2.330   2.115   9.843  0.4395 -0.7895  0.5268
   62CHL1    C5 7002   2.269   1.926   9.745 -0.1557 -0.0523  0.0948
   62CHL1    C6 7003   2.348   1.953   9.643 -0.2389  0.1630 -0.7644
   62CHL1    H6 7004   2.402   2.049   9.641 -0.4748  0.2918 -0.9562
   62CHL1    C7 7005   2.369   1.865   9.521  0.0699 -0.0684 -0.4031
   62CHL1   H7A 7006   2.366   1.931   9.432 -2.6116  0.3391 -0.0925
   62CHL1   H7B 7007   2.467   1.812   9.521  0.0383 -0.1381  0.1961
   62CHL1    C8 7008   2.258   1.759   9.523  0.5574 -0.2967  0.2089
   62CHL1    H8 7009   2.171   1.818   9.488  0.7661 -0.4981 -0.6726
   62CHL1   C14 7010   2.294   1.656   9.419 -0.3444 -0.0072  0.2312
   62CHL1   H14 7011   2.381   1.613   9.473 -0.4073  3.1826  3.2674
   62CHL1   C15 7012   2.336   1.689   9.280 -0.4713 -0.6482  0.1803
   62CHL1  H15A 7013   2.269   1.770   9.244  2.1500  0.7254 -2.0191
   62CHL1  H15B 7014   2.436   1.732   9.258 -0.2755 -1.7219 -1.1433
   62CHL1   C16 7015   2.335   1.556   9.203  1.0826  0.4127  0.0394
   62CHL1  H16A 7016   2.255   1.569   9.127 -1.0054  1.4935  2.2859
   62CHL1  H16B 7017   2.429   1.514   9.161  0.5315 -0.9661  0.1179
   62CHL1   C17 7018   2.271   1.448   9.303 -1.1971  0.4382  0.4671
   62CHL1   H17 7019   2.347   1.389   9.359 -0.8429 -0.5224 -0.9707
   62CHL1   C13 7020   2.200   1.536   9.403  0.0016  0.7666  0.0317
   62CHL1   C18 7021   2.069   1.580   9.351 -0.6024  0.3433  0.2457
   62CHL1  H18A 7022   2.068   1.623   9.248 -2.9333 -0.5768 -0.1631
   62CHL1  H18B 7023   1.991   1.501   9.349  0.3563 -0.7230  2.1779
   62CHL1  H18C 7024   2.028   1.667   9.406 -0.9924  0.3290 -0.0184
   62CHL1   C12 7025   2.192   1.476   9.545  0.3012 -0.0378  0.2023
   62CHL1  H12A 7026   2.128   1.385   9.541 -0.2523  0.3775 -0.6770
   62CHL1  H12B 7027   2.290   1.437   9.581  1.7451  1.2355 -2.0974
   62CHL1   C11 7028   2.135   1.580   9.649  0.2658 -0.0526 -0.3275
   62CHL1  H11A 7029   2.036   1.612   9.608  0.4450 -0.6796 -1.2815
   62CHL1  H11B 7030   2.121   1.523   9.743  0.8228  0.6066  0.1659
   62CHL1    C9 7031   2.229   1.699   9.664  0.1201 -0.5813  0.6980
   62CHL1    H9 7032   2.328   1.657   9.689  0.2451 -1.1999 -0.7303
   62CHL1   C10 7033   2.190   1.801   9.764  0.2082 -0.8521 -0.3137
   62CHL1   C19 7034   2.039   1.819   9.748  0.6845  0.5444 -0.1013
   62CHL1  H19A 7035   2.017   1.910   9.809 -0.6985 -0.4905  1.0094
   62CHL1  H19B 7036   2.012   1.825   9.640 -0.2979  1.7560  0.1875
   62CHL1  H19C 7037   1.979   1.733   9.785 -1.5562  3.1783  3.0751
   62CHL1    C1 7038   2.222   1.735   9.906 -0.4017 -0.0068 -0.6084
   62CHL1   H1A 7039   2.144   1.659   9.925 -1.1318  0.6991 -0.7270
   62CHL1   H1B 7040   2.326   1.697   9.898 -0.8784 -1.0532 -2.1754
   62CHL1    C2 7041   2.222   1.836  10.019 -0.5342 -0.1043  0.3814
   62CHL1   H2A 7042   2.272   1.778  10.099 -0.4185 -1.9120 -0.9172
   62CHL1   H2B 7043   2.122   1.864  10.059 -1.0948 -0.3682 -0.7787
   62CHL1   C20 7044   2.196   1.344   9.215 -0.4635 -0.3245 -0.3226
   62CHL1   H20 7045   2.121   1.383   9.142 -0.4713 -2.5710 -1.6020
   62CHL1   C21 7046   2.116   1.250   9.302 -0.2051  0.1390 -1.0028
   62CHL1  H21A 7047   2.045   1.314   9.359  0.8586  1.7298 -1.3885
   62CHL1  H21B 7048   2.188   1.202   9.372 -1.2809  0.8778  0.7086
   62CHL1  H21C 7049   2.067   1.175   9.237 -2.9206  0.3523  0.6269
   62CHL1   C22 7050   2.299   1.263   9.132 -0.6072  0.3385  0.2057
   62CHL1  H22A 7051   2.366   1.335   9.080 -1.8464  2.9628  2.0457
   62CHL1  H22B 7052   2.358   1.210   9.210 -1.2030  0.9796  1.1077
   62CHL1   C23 7053   2.253   1.167   9.023  0.2702  0.5758  0.2083
   62CHL1  H23A 7054   2.193   1.089   9.074  0.2624 -0.2346 -1.0022
   62CHL1  H23B 7055   2.183   1.225   8.959  0.3999 -0.0405 -0.4982
   62CHL1   C24 7056   2.363   1.094   8.941  0.1435 -0.0546  0.0058
   62CHL1  H24A 7057   2.446   1.164   8.919  0.1438  0.0013  0.1857
   62CHL1  H24B 7058   2.410   1.014   9.003  0.7867  1.7797  1.9978
   62CHL1   C25 7059   2.311   1.049   8.811 -0.8242  0.1678 -0.2918
   62CHL1   H25 7060   2.261   1.134   8.760 -0.0445  1.4308  0.9622
   62CHL1   C26 7061   2.430   1.017   8.718 -0.1473  0.2055 -0.1210
   62CHL1  H26A 7062   2.389   0.946   8.643 -0.4847 -1.6685  1.7368
   62CHL1  H26B 7063   2.480   1.102   8.667 -1.0600 -0.2741 -1.9197
   62CHL1  H26C 7064   2.504   0.951   8.767 -0.7178  1.0836  2.0382
   62CHL1   C27 7065   2.208   0.932   8.825 -0.5053  0.0151 -0.1868
   62CHL1  H27A 7066   2.119   0.974   8.876  0.4446  0.7112  0.9319
   62CHL1  H27B 7067   2.176   0.900   8.723  3.7026 -1.2324 -1.3098
   62CHL1  H27C 7068   2.261   0.849   8.876  2.8576  1.1336 -1.5585
   63CHL1    C3 7069   3.200   0.165  10.264  0.1051  0.6858  0.1881
   63CHL1    H3 7070   3.090   0.164  10.280  0.4370 -0.2402  2.9489
   63CHL1    O3 7071   3.261   0.181  10.392  0.4390 -0.2381 -0.8666
   63CHL1   H3' 7072   3.355   0.182  10.375  1.1552 -1.1054  2.3231
   63CHL1    C4 7073   3.267   0.048  10.202 -0.4263 -0.1886  0.6504
   63CHL1   H4A 7074   3.378   0.054  10.208 -0.3021 -1.0436 -0.4113
   63CHL1   H4B 7075   3.240  -0.039  10.265 -0.5203  1.7968  3.5300
   63CHL1    C5 7076   3.230   0.023  10.061 -0.0796 -0.1725  0.6600
   63CHL1    C6 7077   3.184  -0.094  10.023 -0.2075 -0.1690  0.7283
   63CHL1    H6 7078   3.177  -0.173  10.099 -1.3210 -1.9583 -1.1437
   63CHL1    C7 7079   3.160  -0.131   9.877 -0.2950 -0.7289  0.4269
   63CHL1   H7A 7080   3.206  -0.229   9.854  0.8377 -0.6091  2.0511
   63CHL1   H7B 7081   3.049  -0.135   9.866 -0.1729 -1.3942 -0.7659
   63CHL1    C8 7082   3.207  -0.025   9.779  0.0733 -0.0332 -0.2477
   63CHL1    H8 7083   3.317  -0.043   9.775  0.2934  0.3539  2.4945
   63CHL1   C14 7084   3.139  -0.035   9.646 -0.2036  0.3839  0.7842
   63CHL1   H14 7085   3.032  -0.012   9.663  0.4937  1.5579  4.1670
   63CHL1   C15 7086   3.136  -0.175   9.577 -0.1619  0.4825 -0.0858
   63CHL1  H15A 7087   3.237  -0.223   9.572 -0.3241  0.2355 -1.1094
   63CHL1  H15B 7088   3.061  -0.238   9.629 -1.8663  1.1211 -1.6724
   63CHL1   C16 7089   3.071  -0.141   9.437 -0.1170  0.1339 -0.1956
   63CHL1  H16A 7090   3.133  -0.192   9.360 -0.6381  0.9995 -1.2092
   63CHL1  H16B 7091   2.963  -0.164   9.423 -0.2146 -0.4709  1.2742
   63CHL1   C17 7092   3.095   0.014   9.419  0.4944 -0.3872 -0.2317
   63CHL1   H17 7093   3.001   0.068   9.444  2.4630  2.0613  2.6460
   63CHL1   C13 7094   3.193   0.055   9.531  0.2246  0.3502  0.0025
   63CHL1   C18 7095   3.343   0.018   9.493  0.1230 -0.4064 -0.5001
   63CHL1  H18A 7096   3.342  -0.068   9.422 -1.1242 -2.5128  1.8742
   63CHL1  H18B 7097   3.395   0.101   9.441 -1.5137 -0.5955 -2.5841
   63CHL1  H18C 7098   3.404  -0.028   9.574  1.9745 -2.4254 -2.8970
   63CHL1   C12 7099   3.191   0.200   9.576 -0.0582 -0.3114 -0.4438
   63CHL1  H12A 7100   3.250   0.268   9.511 -1.1484  3.0875  1.7917
   63CHL1  H12B 7101   3.086   0.238   9.583  0.5492  1.3972 -0.0664
   63CHL1   C11 7102   3.261   0.213   9.719  0.2454  0.5827  0.6835
   63CHL1  H11A 7103   3.367   0.189   9.693 -0.0409  1.3278 -1.4023
   63CHL1  H11B 7104   3.252   0.315   9.761 -3.3590  1.0824 -0.9135
   63CHL1    C9 7105   3.200   0.118   9.829 -0.2236 -0.5358  0.2816
   63CHL1    H9 7106   3.093   0.146   9.840  0.0290  0.2062  0.9036
   63CHL1   C10 7107   3.257   0.143   9.974 -0.0764  0.6496  0.3462
   63CHL1   C19 7108   3.413   0.147   9.964  0.1465 -0.0725 -0.2059
   63CHL1  H19A 7109   3.450   0.181  10.064 -2.6238  1.4097  0.4138
   63CHL1  H19B 7110   3.460   0.053   9.928 -0.3767 -0.7834  0.9054
   63CHL1  H19C 7111   3.447   0.232   9.901  0.8009  1.3418  1.9179
   63CHL1    C1 7112   3.184   0.268  10.034 -0.2041  0.0902  0.4567
   63CHL1   H1A 7113   3.196   0.361   9.974 -0.9664 -0.8672 -1.2788
   63CHL1   H1B 7114   3.075   0.250  10.019 -0.7655  3.3522 -0.1121
   63CHL1    C2 7115   3.219   0.296  10.181  0.3044 -0.2832 -0.2426
   63CHL1   H2A 7116   3.161   0.382  10.220 -1.3650 -1.1963 -0.6391
   63CHL1   H2B 7117   3.330   0.309  10.183  0.5103 -1.7473 -0.3616
   63CHL1   C20 7118   3.134   0.050   9.279  0.4252  0.2503  0.2609
   63CHL1   H20 7119   3.237   0.010   9.269  1.0301  1.9088 -0.5050
   63CHL1   C21 7120   3.139   0.204   9.255 -0.0680  0.7762  0.0603
   63CHL1  H21A 7121   3.034   0.240   9.260 -0.8364 -1.2753 -0.2410
   63CHL1  H21B 7122   3.173   0.218   9.150 -2.5700 -2.8206 -1.4253
   63CHL1  H21C 7123   3.216   0.257   9.315  2.6299 -0.5222 -2.0012
   63CHL1   C22 7124   3.042  -0.013   9.174  1.0305 -0.1215  0.0389
   63CHL1  H22A 7125   3.018  -0.118   9.202 -0.2256 -0.2675 -1.4256
   63CHL1  H22B 7126   2.942   0.034   9.163 -0.3246 -2.6270  0.8342
   63CHL1   C23 7127   3.121  -0.024   9.036 -0.3458  0.2620 -0.1608
   63CHL1  H23A 7128   3.139   0.081   9.005  1.9237 -0.1617 -0.4105
   63CHL1  H23B 7129   3.225  -0.059   9.051 -0.2422  1.1652  1.5124
   63CHL1   C24 7130   3.046  -0.109   8.927  0.0363 -0.3049 -0.2587
   63CHL1  H24A 7131   2.989  -0.190   8.977  1.4609 -0.7284  0.7655
   63CHL1  H24B 7132   2.964  -0.049   8.881  0.6279  0.1447 -0.7400
   63CHL1   C25 7133   3.133  -0.171   8.818 -0.4255 -0.2448  0.1248
   63CHL1   H25 7134   3.204  -0.096   8.778  0.0409 -0.1488  1.1017
   63CHL1   C26 7135   3.223  -0.275   8.881 -0.2274  0.7420 -0.2057
   63CHL1  H26A 7136   3.275  -0.335   8.803 -1.4812  0.5718 -0.9322
   63CHL1  H26B 7137   3.293  -0.231   8.956 -0.8638 -1.1903  1.6118
   63CHL1  H26C 7138   3.168  -0.348   8.944  0.7292  2.3144  2.6652
   63CHL1   C27 7139   3.046  -0.242   8.705 -0.1837  0.3134  0.0288
   63CHL1  H27A 7140   2.977  -0.315   8.752 -0.3800  2.0074  2.6034
   63CHL1  H27B 7141   2.985  -0.158   8.665  1.9617  1.5539 -0.8336
   63CHL1  H27C 7142   3.104  -0.293   8.625  0.2239  3.9440 -2.2348
   64CHL1    C3 7143   2.728   2.710  10.091  0.2241 -0.4574 -0.1780
   64CHL1    H3 7144   2.739   2.600  10.084  3.3305 -0.2821  0.5979
   64CHL1    O3 7145   2.717   2.753  10.224 -0.0560 -0.2834 -0.4015
   64CHL1   H3' 7146   2.801   2.800  10.230 -0.5341  0.6135 -0.5297
   64CHL1    C4 7147   2.850   2.779  10.017 -0.3200  0.4532 -0.1317
   64CHL1   H4A 7148   2.854   2.887  10.041  1.8041  0.6920 -1.3229
   64CHL1   H4B 7149   2.940   2.745  10.071 -0.3327 -0.8810 -0.8853
   64CHL1    C5 7150   2.850   2.752   9.869 -0.0161 -0.4428 -0.3523
   64CHL1    C6 7151   2.955   2.685   9.821 -0.5104 -0.8187  0.0153
   64CHL1    H6 7152   3.030   2.657   9.896  0.2328  0.5514 -0.1809
   64CHL1    C7 7153   2.979   2.656   9.675  0.5195 -0.5174 -0.2801
   64CHL1   H7A 7154   3.081   2.693   9.647  0.5352  2.5243  3.0389
   64CHL1   H7B 7155   2.968   2.546   9.666 -1.1513 -0.3726 -0.1580
   64CHL1    C8 7156   2.872   2.721   9.587  0.4917 -0.9631  0.4165
   64CHL1    H8 7157   2.902   2.827   9.568 -0.2482 -0.3751  2.3159
   64CHL1   C14 7158   2.860   2.646   9.458  0.3908  0.1064 -0.3348
   64CHL1   H14 7159   2.807   2.552   9.485  1.1277 -0.2404 -0.0787
   64CHL1   C15 7160   2.988   2.594   9.397  0.5567 -0.4826 -0.2792
   64CHL1  H15A 7161   3.073   2.665   9.408  0.5802 -0.7091  1.1087
   64CHL1  H15B 7162   3.015   2.495   9.439 -1.0562 -1.0501 -0.4825
   64CHL1   C16 7163   2.945   2.581   9.252 -0.4592  0.0114  0.0180
   64CHL1  H16A 7164   2.995   2.665   9.198 -0.5935  1.3451  1.8566
   64CHL1  H16B 7165   2.980   2.479   9.227  1.4421  1.2735 -3.2721
   64CHL1   C17 7166   2.789   2.601   9.239  0.0353  0.7298 -0.4940
   64CHL1   H17 7167   2.753   2.502   9.273  1.4571  0.8017  1.4269
   64CHL1   C13 7168   2.763   2.705   9.350 -0.2393  0.3437  0.3108
   64CHL1   C18 7169   2.796   2.847   9.291 -0.3847  0.6805  0.2694
   64CHL1  H18A 7170   2.712   2.881   9.226  0.4060  0.1656 -1.0713
   64CHL1  H18B 7171   2.818   2.914   9.377  0.5484  0.3547  0.2949
   64CHL1  H18C 7172   2.889   2.831   9.231 -0.3037 -1.3971  0.9004
   64CHL1   C12 7173   2.622   2.717   9.420 -0.6589 -0.3488 -0.5992
   64CHL1  H12A 7174   2.557   2.758   9.340 -2.2798 -0.4499  0.6301
   64CHL1  H12B 7175   2.584   2.617   9.450  0.8899 -0.4063  1.3710
   64CHL1   C11 7176   2.629   2.804   9.547 -0.6047 -0.4601 -0.0580
   64CHL1  H11A 7177   2.661   2.907   9.520 -0.7064 -0.6012 -0.7393
   64CHL1  H11B 7178   2.528   2.812   9.593 -1.1259 -0.6117 -1.1369
   64CHL1    C9 7179   2.727   2.733   9.644 -0.7124  0.0271  0.4627
   64CHL1    H9 7180   2.706   2.625   9.658  2.8406 -0.6632  1.5104
   64CHL1   C10 7181   2.728   2.795   9.785  0.2307  0.3316  0.1167
   64CHL1   C19 7182   2.701   2.951   9.797  0.1943  0.6293  0.0622
   64CHL1  H19A 7183   2.781   3.009   9.746  0.6693 -1.0372 -1.1787
   64CHL1  H19B 7184   2.601   2.970   9.754  0.5598  0.2990 -0.9549
   64CHL1  H19C 7185   2.706   2.980   9.904  0.5992  0.6568  0.0369
   64CHL1    C1 7186   2.609   2.725   9.854  0.5013 -0.8537 -0.7119
   64CHL1   H1A 7187   2.514   2.760   9.808 -1.1079  0.6250  3.2961
   64CHL1   H1B 7188   2.623   2.615   9.840 -0.4678 -1.0735 -0.0563
   64CHL1    C2 7189   2.601   2.745  10.008 -0.3582  0.1551 -0.7723
   64CHL1   H2A 7190   2.526   2.670  10.042  0.6259 -0.9057 -0.8949
   64CHL1   H2B 7191   2.575   2.849  10.036 -0.6350  1.1993 -4.3540
   64CHL1   C20 7192   2.741   2.626   9.093  0.4714 -0.0788  0.2782
   64CHL1   H20 7193   2.777   2.723   9.053 -0.3675 -0.7267 -2.2585
   64CHL1   C21 7194   2.589   2.650   9.088 -0.3792 -0.8067  0.2614
   64CHL1  H21A 7195   2.567   2.756   9.116 -1.9538 -0.4727 -1.9706
   64CHL1  H21B 7196   2.539   2.579   9.158 -0.2441 -1.1558  0.0047
   64CHL1  H21C 7197   2.540   2.644   8.988  2.1880  0.2952 -1.1524
   64CHL1   C22 7198   2.790   2.507   9.006 -0.5470 -0.3918 -0.3627
   64CHL1  H22A 7199   2.899   2.516   8.987 -0.6009  0.5089 -0.2953
   64CHL1  H22B 7200   2.778   2.408   9.054  0.7883 -0.3978 -0.0069
   64CHL1   C23 7201   2.725   2.501   8.876  0.5955  0.0225  0.0921
   64CHL1  H23A 7202   2.621   2.467   8.893  0.4443  0.2044 -0.4510
   64CHL1  H23B 7203   2.729   2.600   8.826  1.5935 -0.1261 -0.1431
   64CHL1   C24 7204   2.796   2.401   8.778 -0.3383 -0.3498  0.4467
   64CHL1  H24A 7205   2.904   2.396   8.804  0.0180  2.0526 -0.3099
   64CHL1  H24B 7206   2.750   2.303   8.803  0.4198 -1.7273 -2.9851
   64CHL1   C25 7207   2.779   2.446   8.631 -0.1939 -0.1029  0.0271
   64CHL1   H25 7208   2.824   2.362   8.573 -0.5050  0.8297 -1.6062
   64CHL1   C26 7209   2.632   2.437   8.591  0.0589 -0.2989 -0.5592
   64CHL1  H26A 7210   2.585   2.340   8.618 -0.3226 -0.0838 -0.4353
   64CHL1  H26B 7211   2.572   2.510   8.650  0.5056  0.6333 -1.2371
   64CHL1  H26C 7212   2.626   2.453   8.482  1.2374 -2.7122 -1.0383
   64CHL1   C27 7213   2.851   2.579   8.592  0.6261 -0.3493 -0.3175
   64CHL1  H27A 7214   2.960   2.564   8.607  0.1177 -3.1446  1.2705
   64CHL1  H27B 7215   2.833   2.601   8.484 -1.1487 -1.7441 -0.3668
   64CHL1  H27C 7216   2.808   2.662   8.652  0.5745  0.1381 -1.0122
   65CHL1    C3 7217   1.643   5.414  10.173 -0.4313 -0.1254 -0.0579
   65CHL1    H3 7218   1.592   5.323  10.136 -0.1074  0.0606 -0.9773
   65CHL1    O3 7219   1.632   5.431  10.317 -0.1335  0.4109 -0.0028
   65CHL1   H3' 7220   1.701   5.493  10.340 -0.0024 -0.0262  0.8217
   65CHL1    C4 7221   1.792   5.383  10.134 -0.6971 -0.0344 -0.5121
   65CHL1   H4A 7222   1.862   5.455  10.182 -0.9470  0.9120 -1.5289
   65CHL1   H4B 7223   1.803   5.283  10.180 -1.0141  0.5837  0.9654
   65CHL1    C5 7224   1.814   5.381   9.983 -1.2994 -0.1718 -0.2150
   65CHL1    C6 7225   1.886   5.282   9.927  0.2422  0.5113 -0.0599
   65CHL1    H6 7226   1.935   5.212   9.996  0.8830  3.0101  2.1428
   65CHL1    C7 7227   1.908   5.273   9.776  0.1752 -0.7993  0.4898
   65CHL1   H7A 7228   2.013   5.246   9.754  0.7771  0.5939  1.5171
   65CHL1   H7B 7229   1.855   5.185   9.735  0.3280 -0.0337 -1.4642
   65CHL1    C8 7230   1.879   5.409   9.700  0.0772  0.0300 -0.7490
   65CHL1    H8 7231   1.964   5.475   9.724 -0.8813  1.0510 -0.0732
   65CHL1   C14 7232   1.879   5.369   9.555  0.7045 -0.5922  0.4419
   65CHL1   H14 7233   1.793   5.298   9.547 -0.7899  0.6545  3.6880
   65CHL1   C15 7234   1.995   5.301   9.490 -0.6376 -0.7988 -0.3018
   65CHL1  H15A 7235   2.082   5.350   9.539 -1.4759 -0.2756  0.6838
   65CHL1  H15B 7236   2.006   5.192   9.510 -3.2424 -1.6236 -2.7111
   65CHL1   C16 7237   1.987   5.340   9.346 -0.3693  0.6008 -0.0269
   65CHL1  H16A 7238   2.071   5.409   9.322 -1.1644  0.7964 -2.4533
   65CHL1  H16B 7239   1.986   5.249   9.282 -0.6291 -1.5516  2.7847
   65CHL1   C17 7240   1.863   5.432   9.323  0.0190  0.1514 -0.3616
   65CHL1   H17 7241   1.776   5.368   9.297  1.2926 -1.6295 -0.4379
   65CHL1   C13 7242   1.846   5.489   9.465 -0.0989  0.1190 -0.1489
   65CHL1   C18 7243   1.955   5.602   9.489  0.5617 -0.1180  0.8296
   65CHL1  H18A 7244   2.060   5.568   9.471  0.5790  1.2534 -2.3190
   65CHL1  H18B 7245   1.931   5.680   9.414 -0.1915 -0.4597  0.6994
   65CHL1  H18C 7246   1.956   5.636   9.594  0.5192  1.2492  0.3980
   65CHL1   C12 7247   1.707   5.550   9.499  0.1030 -0.6780  0.0595
   65CHL1  H12A 7248   1.681   5.643   9.443  0.2607 -0.5557  0.1886
   65CHL1  H12B 7249   1.632   5.474   9.472  0.5514 -1.9306  2.1253
   65CHL1   C11 7250   1.686   5.581   9.654  0.5918 -0.1213  0.3314
   65CHL1  H11A 7251   1.744   5.675   9.657  1.0201 -0.3775  0.2508
   65CHL1  H11B 7252   1.580   5.598   9.680 -0.0205 -2.0311 -0.6921
   65CHL1    C9 7253   1.744   5.472   9.745 -0.0526  0.8522 -0.3310
   65CHL1    H9 7254   1.675   5.385   9.733  0.5423  0.2872  0.2692
   65CHL1   C10 7255   1.748   5.497   9.902 -0.3957  0.4960  0.8806
   65CHL1   C19 7256   1.835   5.630   9.928 -0.2384 -0.1793 -0.2219
   65CHL1  H19A 7257   1.933   5.618   9.879  1.7246  4.2296  2.0098
   65CHL1  H19B 7258   1.786   5.724   9.895  1.8704  0.8864 -0.4642
   65CHL1  H19C 7259   1.850   5.644  10.038  1.0014 -0.7366 -0.3064
   65CHL1    C1 7260   1.601   5.512   9.949  0.3979 -0.0366  0.4669
   65CHL1   H1A 7261   1.567   5.605   9.898 -0.2933 -1.0352 -0.9514
   65CHL1   H1B 7262   1.535   5.428   9.918  0.4017  0.5629 -1.3257
   65CHL1    C2 7263   1.593   5.530  10.099  0.4760  0.1781 -0.2536
   65CHL1   H2A 7264   1.487   5.535  10.130  0.9037 -2.7183  2.0969
   65CHL1   H2B 7265   1.650   5.615  10.142  0.3804 -0.2147  0.6651
   65CHL1   C20 7266   1.893   5.518   9.199  0.0459  0.3457 -0.4934
   65CHL1   H20 7267   1.988   5.573   9.215  0.2600 -0.3664  0.7975
   65CHL1   C21 7268   1.773   5.609   9.173 -0.5163 -0.3578  0.2086
   65CHL1  H21A 7269   1.789   5.694   9.243 -0.0277 -0.6614  0.4689
   65CHL1  H21B 7270   1.674   5.560   9.171  0.1117 -1.6584 -0.0026
   65CHL1  H21C 7271   1.786   5.657   9.074 -3.1588  0.2576  0.0964
   65CHL1   C22 7272   1.911   5.426   9.078 -0.1988  0.2433  0.4355
   65CHL1  H22A 7273   1.997   5.361   9.103 -0.2467 -1.0073 -2.3451
   65CHL1  H22B 7274   1.815   5.372   9.061  2.0163 -2.9938 -3.3488
   65CHL1   C23 7275   1.952   5.491   8.940  0.2285 -0.7001 -0.2744
   65CHL1  H23A 7276   1.871   5.557   8.903  0.8922  1.2362  1.5388
   65CHL1  H23B 7277   2.024   5.569   8.973 -2.2873  1.3843  0.6871
   65CHL1   C24 7278   1.990   5.387   8.838  0.6183 -0.3236 -0.1349
   65CHL1  H24A 7279   2.074   5.323   8.870 -0.8388 -1.1221  2.3998
   65CHL1  H24B 7280   1.903   5.318   8.835  0.2431  0.1049  0.4769
   65CHL1   C25 7281   2.017   5.438   8.698  0.3710  0.5323 -0.6355
   65CHL1   H25 7282   2.072   5.534   8.706 -1.4909  1.4661  2.8309
   65CHL1   C26 7283   2.104   5.344   8.617 -0.3877  0.7093  0.5374
   65CHL1  H26A 7284   2.111   5.371   8.510 -0.7988  0.4431  0.4386
   65CHL1  H26B 7285   2.211   5.344   8.646  0.5091  3.0473 -2.3182
   65CHL1  H26C 7286   2.065   5.240   8.626  0.8361 -0.0016 -1.8142
   65CHL1   C27 7287   1.895   5.466   8.606  0.6131  0.6199  0.9801
   65CHL1  H27A 7288   1.820   5.532   8.656 -1.6706 -0.5537 -0.7162
   65CHL1  H27B 7289   1.925   5.523   8.516 -3.5724 -0.4885 -1.3506
   65CHL1  H27C 7290   1.843   5.379   8.561  0.7853  0.8818  0.2723
   66CHL1    C3 7291   3.545   4.658  10.415 -0.6381 -0.6235 -0.4757
   66CHL1    H3 7292   3.571   4.550  10.414 -1.2692 -0.8352  1.6455
   66CHL1    O3 7293   3.518   4.680  10.548 -0.3518 -0.4023 -0.0175
   66CHL1   H3' 7294   3.486   4.771  10.549  0.7584  0.1144 -2.8248
   66CHL1    C4 7295   3.667   4.737  10.378  0.4350 -0.3540 -0.0666
   66CHL1   H4A 7296   3.664   4.847  10.392 -0.4461 -0.6759  3.1104
   66CHL1   H4B 7297   3.758   4.710  10.437  0.7593 -1.6701 -1.1175
   66CHL1    C5 7298   3.686   4.702  10.234 -0.2991  0.8348  0.0874
   66CHL1    C6 7299   3.801   4.637  10.202 -0.7928  0.1310  0.5689
   66CHL1    H6 7300   3.876   4.613  10.279 -1.2704 -0.9195  0.7122
   66CHL1    C7 7301   3.842   4.601  10.062  0.1606  0.0554 -0.4015
   66CHL1   H7A 7302   3.951   4.621  10.046  1.2977 -3.7714  1.2596
   66CHL1   H7B 7303   3.836   4.492  10.043  1.7925  0.0924 -1.3389
   66CHL1    C8 7304   3.758   4.680   9.959  0.0510 -0.0258 -0.3160
   66CHL1    H8 7305   3.800   4.783   9.963  1.0392 -0.4659  1.8795
   66CHL1   C14 7306   3.773   4.614   9.824  0.1408  0.0498  0.7894
   66CHL1   H14 7307   3.735   4.510   9.835  2.5879 -1.0279 -0.1263
   66CHL1   C15 7308   3.912   4.616   9.754 -0.2014 -0.0553  0.5561
   66CHL1  H15A 7309   3.980   4.701   9.780  0.1202  0.0954 -0.6835
   66CHL1  H15B 7310   3.970   4.525   9.780  2.1771  0.2031 -3.0278
   66CHL1   C16 7311   3.892   4.601   9.605 -0.7710  0.0168 -0.7701
   66CHL1  H16A 7312   3.953   4.684   9.563 -0.2839  0.2194  0.2793
   66CHL1  H16B 7313   3.928   4.505   9.563 -0.2014 -0.9782  1.7730
   66CHL1   C17 7314   3.746   4.616   9.581  0.2128  0.5304  0.3645
   66CHL1   H17 7315   3.704   4.513   9.580 -0.2799  0.6130  3.0692
   66CHL1   C13 7316   3.684   4.678   9.712  0.0447 -0.4189  0.1588
   66CHL1   C18 7317   3.718   4.832   9.694  0.0246 -0.5001  0.1896
   66CHL1  H18A 7318   3.711   4.872   9.797  0.5276  2.4318 -0.8008
   66CHL1  H18B 7319   3.817   4.853   9.649 -0.4618 -0.7118 -1.0396
   66CHL1  H18C 7320   3.635   4.876   9.634 -0.7780  0.8669  2.1840
   66CHL1   C12 7321   3.534   4.663   9.746  0.0407  0.4582  0.3721
   66CHL1  H12A 7322   3.471   4.716   9.672  1.6618  0.9709 -0.6799
   66CHL1  H12B 7323   3.497   4.559   9.728 -1.5254  1.4355 -2.5630
   66CHL1   C11 7324   3.507   4.716   9.891  0.1526  0.7313  0.5157
   66CHL1  H11A 7325   3.496   4.824   9.868 -2.0276  0.3854 -0.3755
   66CHL1  H11B 7326   3.407   4.674   9.915  0.8973 -0.2123  2.1030
   66CHL1    C9 7327   3.607   4.679   9.997  0.5228  0.8743 -0.0399
   66CHL1    H9 7328   3.584   4.573  10.020 -1.8817  1.5871  1.2129
   66CHL1   C10 7329   3.574   4.747  10.135  0.3207  0.8700 -0.0581
   66CHL1   C19 7330   3.569   4.902  10.127  0.0052 -0.6860 -0.4910
   66CHL1  H19A 7331   3.497   4.938  10.051  0.4731 -2.6330 -1.9183
   66CHL1  H19B 7332   3.550   4.941  10.229  1.4768  0.0275 -0.4550
   66CHL1  H19C 7333   3.672   4.938  10.106 -0.1058 -0.9848 -1.5956
   66CHL1    C1 7334   3.437   4.690  10.186  0.7896 -0.2896 -0.5391
   66CHL1   H1A 7335   3.351   4.739  10.137 -0.2056 -2.3694 -0.9593
   66CHL1   H1B 7336   3.438   4.590  10.139  0.1052 -0.5568 -0.0056
   66CHL1    C2 7337   3.423   4.692  10.330  0.8120 -0.2719 -0.0497
   66CHL1   H2A 7338   3.339   4.626  10.362  1.0885 -1.1744 -1.1205
   66CHL1   H2B 7339   3.399   4.798  10.354  1.7372  0.7773 -3.3411
   66CHL1   C20 7340   3.717   4.674   9.447  0.1811 -0.2460  0.0983
   66CHL1   H20 7341   3.751   4.778   9.459  1.2744 -0.6077  0.1969
   66CHL1   C21 7342   3.566   4.678   9.416 -0.1990  0.2049 -0.4695
   66CHL1  H21A 7343   3.546   4.727   9.318 -1.4202  1.2481  0.2730
   66CHL1  H21B 7344   3.517   4.743   9.492  0.5620 -0.3323  0.4996
   66CHL1  H21C 7345   3.522   4.577   9.426 -1.5812  0.8369  0.0504
   66CHL1   C22 7346   3.790   4.608   9.328 -0.0938  0.4597 -0.2149
   66CHL1  H22A 7347   3.763   4.668   9.238  0.5141  0.3250 -0.4924
   66CHL1  H22B 7348   3.899   4.621   9.343 -0.0474 -0.6822  0.5947
   66CHL1   C23 7349   3.763   4.455   9.322  0.1755 -0.5420  0.5398
   66CHL1  H23A 7350   3.793   4.415   9.421  1.8394 -0.9407 -0.0815
   66CHL1  H23B 7351   3.656   4.435   9.300  0.7648 -2.0475 -1.3052
   66CHL1   C24 7352   3.853   4.391   9.217  0.1769  0.1669 -0.7764
   66CHL1  H24A 7353   3.950   4.432   9.253 -0.4627  2.2667 -1.2953
   66CHL1  H24B 7354   3.843   4.285   9.250 -0.2453  1.1666  2.6358
   66CHL1   C25 7355   3.846   4.428   9.064  0.3888  0.2003 -0.1110
   66CHL1   H25 7356   3.874   4.535   9.062  0.5372  0.1805  0.6510
   66CHL1   C26 7357   3.962   4.349   8.987 -0.2046  0.2890 -0.0573
   66CHL1  H26A 7358   3.970   4.241   9.012  1.8423 -0.3045 -2.9019
   66CHL1  H26B 7359   3.952   4.373   8.879 -0.2204 -0.2346 -0.1752
   66CHL1  H26C 7360   4.060   4.390   9.019  0.1952  0.5863 -1.5957
   66CHL1   C27 7361   3.705   4.406   8.997 -0.1148  0.1379 -0.1302
   66CHL1  H27A 7362   3.721   4.402   8.887  2.0536 -0.5387  0.1522
   66CHL1  H27B 7363   3.651   4.313   9.025  1.7713 -1.4801 -1.5655
   66CHL1  H27C 7364   3.643   4.495   9.020  0.4167  0.2655  0.8945
   67CHL1    C3 7365   6.681   4.578  10.494 -0.3484 -0.0325  0.3940
   67CHL1    H3 7366   6.719   4.484  10.540 -2.4622 -0.8034  0.7236
   67CHL1    O3 7367   6.591   4.653  10.578  0.2894  0.3805 -0.1354
   67CHL1   H3' 7368   6.556   4.587  10.638 -0.6622  0.5850 -0.4446
   67CHL1    C4 7369   6.800   4.673  10.457  0.0316  0.0559 -0.4244
   67CHL1   H4A 7370   6.760   4.776  10.452 -2.2170 -0.8123 -1.8873
   67CHL1   H4B 7371   6.857   4.672  10.553  0.9255 -3.4509 -0.8295
   67CHL1    C5 7372   6.881   4.637  10.330  0.3064  0.0931  0.0842
   67CHL1    C6 7373   7.017   4.633  10.337 -0.0855 -0.0198  0.9042
   67CHL1    H6 7374   7.074   4.652  10.429  1.9875 -0.4912 -0.2104
   67CHL1    C7 7375   7.099   4.597  10.221  0.3716  0.1822 -0.1809
   67CHL1   H7A 7376   7.197   4.649  10.216  1.7755 -2.3131 -0.5589
   67CHL1   H7B 7377   7.112   4.486  10.225 -0.5334  0.1042  2.1332
   67CHL1    C8 7378   7.028   4.616  10.082 -0.0344 -0.5292  0.2177
   67CHL1    H8 7379   7.024   4.722  10.051 -2.0029 -0.2923  1.1207
   67CHL1   C14 7380   7.104   4.534   9.978  0.0854 -0.0265 -0.6279
   67CHL1   H14 7381   7.095   4.428  10.011  1.0767  0.1215  0.1792
   67CHL1   C15 7382   7.257   4.563   9.967 -0.2737 -0.6258  0.3339
   67CHL1  H15A 7383   7.279   4.672   9.973  0.8090 -0.8366  0.5489
   67CHL1  H15B 7384   7.330   4.508  10.031  1.2041  1.2565  0.3758
   67CHL1   C16 7385   7.285   4.521   9.819  0.5637 -0.0652  0.2701
   67CHL1  H16A 7386   7.307   4.606   9.751 -0.5526 -1.3552 -1.7916
   67CHL1  H16B 7387   7.377   4.458   9.812  0.7994  0.4488 -3.4291
   67CHL1   C17 7388   7.156   4.457   9.758 -0.0818  0.5211  0.0636
   67CHL1   H17 7389   7.147   4.351   9.792 -0.4458  0.8131  0.9205
   67CHL1   C13 7390   7.045   4.536   9.836 -0.4060  0.2558 -1.0302
   67CHL1   C18 7391   7.035   4.681   9.780 -0.4429 -0.4479 -0.3242
   67CHL1  H18A 7392   6.959   4.733   9.842  2.3990  2.0660  1.3325
   67CHL1  H18B 7393   7.122   4.749   9.787 -0.1821 -0.9667  3.1620
   67CHL1  H18C 7394   6.986   4.688   9.680 -2.7256 -0.8189  0.7063
   67CHL1   C12 7395   6.909   4.473   9.845  0.1520 -0.1698 -0.1822
   67CHL1  H12A 7396   6.866   4.492   9.744  1.6420  3.5070 -0.2804
   67CHL1  H12B 7397   6.926   4.363   9.854  1.3559 -0.0118 -0.3755
   67CHL1   C11 7398   6.815   4.538   9.949 -0.0496 -0.0071 -0.0579
   67CHL1  H11A 7399   6.788   4.642   9.918  0.5606  0.3678  0.6321
   67CHL1  H11B 7400   6.718   4.484   9.952  0.3165 -0.8560 -1.8766
   67CHL1    C9 7401   6.885   4.551  10.089 -0.3388  0.7427 -0.2299
   67CHL1    H9 7402   6.905   4.445  10.116 -2.7464  0.1905 -0.3890
   67CHL1   C10 7403   6.798   4.609  10.201  0.5207 -0.1687  0.0710
   67CHL1   C19 7404   6.752   4.750  10.157 -0.5263 -0.4741  0.2892
   67CHL1  H19A 7405   6.830   4.822  10.128 -1.2362  0.9489  1.7640
   67CHL1  H19B 7406   6.695   4.740  10.063  2.4488 -2.0205 -1.4833
   67CHL1  H19C 7407   6.683   4.792  10.234  1.4100  0.0811  1.8245
   67CHL1    C1 7408   6.673   4.514  10.241 -0.7000 -0.5522 -0.5715
   67CHL1   H1A 7409   6.613   4.504  10.148  1.1506 -2.6750 -1.6452
   67CHL1   H1B 7410   6.716   4.416  10.271  0.3443  0.4209  1.2731
   67CHL1    C2 7411   6.596   4.551  10.360 -0.1062 -0.5881 -0.1043
   67CHL1   H2A 7412   6.508   4.485  10.376 -0.1259 -0.7159 -0.7103
   67CHL1   H2B 7413   6.550   4.651  10.341  0.0195 -0.2968  1.0395
   67CHL1   C20 7414   7.154   4.449   9.597 -0.7026 -0.1038  0.4510
   67CHL1   H20 7415   7.108   4.544   9.561  3.3329  1.9702  0.2583
   67CHL1   C21 7416   7.063   4.334   9.544  0.2130 -0.6134  0.0127
   67CHL1  H21A 7417   6.970   4.323   9.605 -0.2283 -0.4210 -0.6191
   67CHL1  H21B 7418   7.118   4.238   9.541  5.7097  2.1651  0.4915
   67CHL1  H21C 7419   7.030   4.373   9.445  1.0854  0.5352  0.1542
   67CHL1   C22 7420   7.296   4.433   9.531  0.5817 -0.1730 -0.2333
   67CHL1  H22A 7421   7.362   4.522   9.542 -0.0021  0.2911 -0.4381
   67CHL1  H22B 7422   7.347   4.343   9.572 -0.5694 -1.4660 -1.4909
   67CHL1   C23 7423   7.283   4.400   9.380  0.6867  0.5205 -0.2753
   67CHL1  H23A 7424   7.231   4.301   9.374  0.6093  0.5418  0.0085
   67CHL1  H23B 7425   7.211   4.476   9.344 -0.4777  1.4912  3.5949
   67CHL1   C24 7426   7.411   4.405   9.302 -0.6493 -0.4280  0.2109
   67CHL1  H24A 7427   7.460   4.504   9.300 -0.5824 -0.4716 -0.2425
   67CHL1  H24B 7428   7.482   4.340   9.358  0.0956 -0.9094 -1.2397
   67CHL1   C25 7429   7.400   4.346   9.155 -0.0044 -0.3282 -0.0096
   67CHL1   H25 7430   7.348   4.248   9.162 -0.4570 -0.0366  0.9836
   67CHL1   C26 7431   7.305   4.434   9.069  0.3415  0.3322 -0.0909
   67CHL1  H26A 7432   7.203   4.450   9.109 -0.2467  4.4505 -2.6251
   67CHL1  H26B 7433   7.357   4.531   9.054  1.3624 -0.0039  1.1495
   67CHL1  H26C 7434   7.284   4.401   8.964  0.6411  0.1370 -0.0911
   67CHL1   C27 7435   7.529   4.319   9.080 -0.0088  0.6081 -0.0923
   67CHL1  H27A 7436   7.583   4.414   9.060 -1.4822  1.7277  0.9858
   67CHL1  H27B 7437   7.596   4.255   9.141 -1.5646 -2.5578 -1.4828
   67CHL1  H27C 7438   7.514   4.271   8.981 -0.0655  0.5501 -0.0561
   68CHL1    C3 7439   3.153   3.167  10.219  0.7484 -0.3538  0.0709
   68CHL1    H3 7440   3.139   3.275  10.243 -1.3578 -0.5536 -0.0809
   68CHL1    O3 7441   3.172   3.098  10.341 -0.4398  0.1503 -0.6409
   68CHL1   H3' 7442   3.081   3.088  10.368 -0.0473  0.5401  0.9162
   68CHL1    C4 7443   3.034   3.117  10.149  0.0502 -0.3895  0.7067
   68CHL1   H4A 7444   3.039   3.006  10.153  2.9775 -0.4962 -1.9700
   68CHL1   H4B 7445   2.946   3.147  10.210 -0.2108 -0.2778  0.2878
   68CHL1    C5 7446   3.018   3.170  10.006 -0.0624 -0.5054 -0.4106
   68CHL1    C6 7447   2.904   3.225   9.962 -0.2937 -0.3304  0.0152
   68CHL1    H6 7448   2.816   3.230  10.027  0.4603 -1.2383  1.1672
   68CHL1    C7 7449   2.892   3.277   9.819  0.1258 -0.0963 -0.5460
   68CHL1   H7A 7450   2.787   3.259   9.789  0.7028 -1.5035 -1.8845
   68CHL1   H7B 7451   2.911   3.386   9.816  2.3880 -0.4223  0.0382
   68CHL1    C8 7452   2.985   3.205   9.725 -0.1757 -0.1911  0.3677
   68CHL1    H8 7453   2.959   3.097   9.724  0.0111 -0.2428  1.0059
   68CHL1   C14 7454   2.983   3.255   9.585  0.2305  0.1355  0.1825
   68CHL1   H14 7455   3.003   3.360   9.613 -1.5156 -0.3314  3.9294
   68CHL1   C15 7456   2.842   3.267   9.516 -0.3159  0.7345 -0.8032
   68CHL1  H15A 7457   2.782   3.174   9.530 -1.1242  1.2846 -0.5287
   68CHL1  H15B 7458   2.788   3.352   9.564 -2.2073 -0.7100 -0.2179
   68CHL1   C16 7459   2.879   3.289   9.365  0.5941 -0.5354  0.3202
   68CHL1  H16A 7460   2.825   3.212   9.307 -1.6014  2.4324 -1.8470
   68CHL1  H16B 7461   2.830   3.377   9.319 -0.9373 -0.8602  1.2686
   68CHL1   C17 7462   3.039   3.279   9.351 -0.7597 -0.0497 -0.0641
   68CHL1   H17 7463   3.082   3.381   9.344  0.1594 -0.4496 -0.5182
   68CHL1   C13 7464   3.081   3.208   9.482 -1.0377 -0.4699 -1.0406
   68CHL1   C18 7465   3.061   3.056   9.464 -0.0540 -0.4519 -0.2697
   68CHL1  H18A 7466   3.067   3.004   9.562  0.0669 -0.9603 -0.5458
   68CHL1  H18B 7467   2.959   3.043   9.422  0.7162 -1.4429 -1.9098
   68CHL1  H18C 7468   3.140   3.018   9.395 -0.6973 -1.8481 -0.2679
   68CHL1   C12 7469   3.221   3.237   9.531 -0.1893  0.2271 -0.3558
   68CHL1  H12A 7470   3.305   3.204   9.466 -2.7781 -1.0223 -3.3138
   68CHL1  H12B 7471   3.234   3.347   9.535  0.7587  0.1038  2.6351
   68CHL1   C11 7472   3.235   3.183   9.680  0.6132 -0.0165 -0.5153
   68CHL1  H11A 7473   3.262   3.076   9.666  0.9219 -0.3214  2.0470
   68CHL1  H11B 7474   3.323   3.239   9.717  1.1298 -0.8068 -0.5039
   68CHL1    C9 7475   3.127   3.216   9.782  0.8383  0.4132  0.3800
   68CHL1    H9 7476   3.147   3.325   9.783  0.9485  0.4099 -0.5874
   68CHL1   C10 7477   3.142   3.149   9.923  0.5322  0.5315 -0.4901
   68CHL1   C19 7478   3.155   2.995   9.901 -0.1745 -0.1428  0.0763
   68CHL1  H19A 7479   3.068   2.966   9.838 -0.9088  0.3649  0.8377
   68CHL1  H19B 7480   3.245   2.982   9.837 -1.5100  0.0041 -1.9501
   68CHL1  H19C 7481   3.173   2.932   9.990  2.3142 -0.6574 -0.7093
   68CHL1    C1 7482   3.269   3.198   9.995 -0.0762 -0.2591 -0.0177
   68CHL1   H1A 7483   3.361   3.161   9.945  0.3976  1.0982 -0.1799
   68CHL1   H1B 7484   3.263   3.308   9.981 -0.4695 -0.3979 -0.9620
   68CHL1    C2 7485   3.286   3.151  10.142  0.1207 -0.4389 -0.0366
   68CHL1   H2A 7486   3.366   3.198  10.202 -0.3378 -3.2867  3.1054
   68CHL1   H2B 7487   3.306   3.043  10.131  0.2918 -0.4559  0.4378
   68CHL1   C20 7488   3.080   3.221   9.214 -0.8337 -0.2284  0.2642
   68CHL1   H20 7489   3.038   3.119   9.216  1.1101 -1.0730  0.0338
   68CHL1   C21 7490   3.229   3.239   9.196 -0.1970  0.4099  0.2228
   68CHL1  H21A 7491   3.265   3.251   9.091  0.3055 -0.6728  0.2491
   68CHL1  H21B 7492   3.287   3.154   9.239 -1.7556 -0.7436  0.1222
   68CHL1  H21C 7493   3.260   3.328   9.255  0.5353 -0.3461  1.0111
   68CHL1   C22 7494   2.999   3.283   9.094 -0.6299  0.1716  0.2735
   68CHL1  H22A 7495   2.891   3.270   9.118 -1.1296  2.6839 -0.3654
   68CHL1  H22B 7496   3.022   3.391   9.105  2.1286 -0.5342  2.4459
   68CHL1   C23 7497   3.030   3.224   8.956 -0.3918 -0.6712  0.4682
   68CHL1  H23A 7498   2.990   3.280   8.869  1.8559 -1.9487 -1.5109
   68CHL1  H23B 7499   3.139   3.239   8.936 -0.7649  0.5936 -0.7706
   68CHL1   C24 7500   2.982   3.080   8.934  0.2008 -0.7277  0.7939
   68CHL1  H24A 7501   2.999   3.017   9.024  0.2656  0.5639  1.7173
   68CHL1  H24B 7502   2.873   3.080   8.915  0.2604 -1.0018  0.4543
   68CHL1   C25 7503   3.047   3.012   8.811 -0.9913  0.0653 -0.5349
   68CHL1   H25 7504   3.017   3.062   8.717 -5.5527 -0.9699  0.1592
   68CHL1   C26 7505   3.196   3.009   8.820 -0.2976  0.5896 -0.1454
   68CHL1  H26A 7506   3.216   2.961   8.918 -1.1314  4.4035  2.1007
   68CHL1  H26B 7507   3.221   2.944   8.734  0.3518  0.0039  0.4666
   68CHL1  H26C 7508   3.245   3.109   8.816 -1.8084  1.3576 -0.0165
   68CHL1   C27 7509   2.989   2.870   8.798  0.1084 -0.0696 -0.3410
   68CHL1  H27A 7510   2.880   2.883   8.813  0.4052  1.3438  0.7625
   68CHL1  H27B 7511   3.016   2.830   8.697  0.7984 -0.0648 -0.1635
   68CHL1  H27C 7512   3.022   2.798   8.876  1.5784  1.0515  0.1063
   69CHL1    C3 7513   4.614   4.944   6.489  0.1457 -0.2011 -0.1665
   69CHL1    H3 7514   4.686   5.028   6.487 -0.4303  0.3017 -0.0991
   69CHL1    O3 7515   4.579   4.921   6.355 -0.4729 -0.1215 -0.3030
   69CHL1   H3' 7516   4.524   4.842   6.358 -1.5622  0.5800 -1.1026
   69CHL1    C4 7517   4.679   4.813   6.547 -0.0997  0.0524 -0.4777
   69CHL1   H4A 7518   4.623   4.720   6.522  3.0996 -2.1489 -0.2390
   69CHL1   H4B 7519   4.771   4.809   6.484  0.9199 -1.4651  1.0123
   69CHL1    C5 7520   4.718   4.819   6.692 -0.1912 -0.1223  0.1784
   69CHL1    C6 7521   4.841   4.788   6.732 -0.1652 -0.1587  0.2875
   69CHL1    H6 7522   4.917   4.752   6.661 -2.4181 -1.6957 -1.5175
   69CHL1    C7 7523   4.887   4.800   6.874 -0.2729 -0.2047 -0.5201
   69CHL1   H7A 7524   4.929   4.700   6.896  1.2780  0.1915 -1.6061
   69CHL1   H7B 7525   4.959   4.883   6.890 -0.9893  0.2315  0.6151
   69CHL1    C8 7526   4.776   4.818   6.978  0.2722 -0.7841 -0.4498
   69CHL1    H8 7527   4.720   4.724   6.998 -0.4210  0.2267  2.8766
   69CHL1   C14 7528   4.823   4.861   7.121 -0.2100  0.1517 -0.6498
   69CHL1   H14 7529   4.871   4.960   7.102 -0.3388 -0.1034 -2.5354
   69CHL1   C15 7530   4.939   4.782   7.190 -0.1442 -0.1462 -0.0577
   69CHL1  H15A 7531   4.923   4.672   7.188  1.2566 -0.4022  0.8835
   69CHL1  H15B 7532   5.038   4.811   7.148  0.3233 -0.0144  1.1100
   69CHL1   C16 7533   4.934   4.837   7.328 -0.8272  0.6797 -0.2472
   69CHL1  H16A 7534   4.936   4.749   7.396 -2.7012  0.8509  0.0768
   69CHL1  H16B 7535   5.026   4.899   7.340  0.1609 -0.8025  0.0646
   69CHL1   C17 7536   4.805   4.919   7.345  0.6104 -0.6463 -0.2693
   69CHL1   H17 7537   4.841   5.023   7.331  2.5514 -1.3172 -0.6201
   69CHL1   C13 7538   4.710   4.878   7.227 -0.8666  0.2958 -0.0169
   69CHL1   C18 7539   4.651   4.740   7.257  0.6517 -0.0605 -0.4696
   69CHL1  H18A 7540   4.733   4.668   7.241  0.6899 -0.4661  1.3747
   69CHL1  H18B 7541   4.611   4.741   7.360  0.8053 -1.3030 -0.3834
   69CHL1  H18C 7542   4.569   4.714   7.186  0.5461 -2.9920  0.6116
   69CHL1   C12 7543   4.601   4.978   7.175  0.1561  0.2519 -0.3673
   69CHL1  H12A 7544   4.510   4.991   7.236 -0.5754 -1.4424 -1.0274
   69CHL1  H12B 7545   4.658   5.073   7.173  1.4985 -0.4076  1.9705
   69CHL1   C11 7546   4.555   4.949   7.031  0.5426  0.1067  0.3733
   69CHL1  H11A 7547   4.474   4.873   7.029 -0.0503  0.7272 -1.3617
   69CHL1  H11B 7548   4.508   5.045   7.003 -2.8901 -1.0387  1.6794
   69CHL1    C9 7549   4.664   4.915   6.925 -0.2819 -0.3653  0.2388
   69CHL1    H9 7550   4.720   5.010   6.915  1.1916 -1.2523 -0.3649
   69CHL1   C10 7551   4.602   4.875   6.784 -0.2689  0.1500  0.2317
   69CHL1   C19 7552   4.511   4.753   6.809 -0.1457 -0.3815 -0.1731
   69CHL1  H19A 7553   4.412   4.783   6.848 -0.6101 -2.5320  0.4750
   69CHL1  H19B 7554   4.482   4.704   6.714 -0.7146 -2.5641  1.0484
   69CHL1  H19C 7555   4.561   4.669   6.863 -0.0909  0.8248  1.7645
   69CHL1    C1 7556   4.530   4.994   6.726  0.0153 -0.3497  0.0542
   69CHL1   H1A 7557   4.439   4.994   6.790  0.3643 -1.5668  0.5800
   69CHL1   H1B 7558   4.588   5.087   6.742  1.3996 -1.0131 -0.9085
   69CHL1    C2 7559   4.487   4.977   6.577  0.0638 -0.7807 -0.1791
   69CHL1   H2A 7560   4.429   5.061   6.534  0.4392 -1.5234 -2.2529
   69CHL1   H2B 7561   4.421   4.887   6.569  0.5871 -1.1557 -0.3217
   69CHL1   C20 7562   4.759   4.928   7.490 -0.8814  0.2104 -0.0716
   69CHL1   H20 7563   4.733   4.827   7.530 -2.8279  0.4623 -0.6407
   69CHL1   C21 7564   4.633   5.008   7.510  0.1369 -0.0186  0.4854
   69CHL1  H21A 7565   4.597   5.001   7.615  1.5151  0.4193  0.9978
   69CHL1  H21B 7566   4.546   4.969   7.452  0.4457 -1.5291  0.9801
   69CHL1  H21C 7567   4.642   5.113   7.477 -0.5792 -0.0102  0.2893
   69CHL1   C22 7568   4.866   4.985   7.587 -0.2637 -0.2604 -0.6336
   69CHL1  H22A 7569   4.964   4.934   7.573 -0.3088 -1.1217  1.7007
   69CHL1  H22B 7570   4.870   5.094   7.567  1.8141  0.1390  1.5079
   69CHL1   C23 7571   4.856   4.943   7.734 -0.1090 -0.4319  0.5133
   69CHL1  H23A 7572   4.760   4.987   7.769 -0.8362  0.7507 -2.6179
   69CHL1  H23B 7573   4.838   4.834   7.746 -1.6933 -0.1719  0.7397
   69CHL1   C24 7574   4.978   4.982   7.821 -0.2370 -0.0623 -0.6063
   69CHL1  H24A 7575   5.070   4.936   7.780  0.2388 -1.3314  1.7001
   69CHL1  H24B 7576   4.980   5.092   7.836 -0.3802 -0.2525  1.0570
   69CHL1   C25 7577   4.969   4.925   7.970 -0.3415 -0.0400 -0.7163
   69CHL1   H25 7578   4.962   4.815   7.965  0.1931 -0.1012 -0.2667
   69CHL1   C26 7579   5.107   4.970   8.039 -0.6961  0.3458 -0.4945
   69CHL1  H26A 7580   5.108   4.933   8.144 -0.0245  1.2437 -0.1749
   69CHL1  H26B 7581   5.195   4.934   7.982  1.1521  0.5065  2.0622
   69CHL1  H26C 7582   5.117   5.080   8.051 -0.6859  0.2951  0.0095
   69CHL1   C27 7583   4.850   4.984   8.048  0.4214 -0.8014  0.3212
   69CHL1  H27A 7584   4.850   5.095   8.051 -3.0096 -0.6568 -0.4146
   69CHL1  H27B 7585   4.756   4.959   7.994 -1.5392  4.4801  0.7362
   69CHL1  H27C 7586   4.836   4.943   8.150 -4.1961 -1.7880 -0.5037
   70CHL1    C3 7587   2.345   6.008   6.939 -0.1130  0.2769  0.0210
   70CHL1    H3 7588   2.448   6.041   6.966  0.5356 -0.5345 -1.3598
   70CHL1    O3 7589   2.329   6.040   6.802  0.2929  0.4666  0.1929
   70CHL1   H3' 7590   2.253   5.984   6.785  1.4780 -0.7680 -1.3351
   70CHL1    C4 7591   2.332   5.855   6.954 -0.0839 -0.7004  0.2837
   70CHL1   H4A 7592   2.235   5.812   6.921  0.2354 -1.8702  0.8076
   70CHL1   H4B 7593   2.397   5.803   6.881  0.6785 -2.3312  2.0396
   70CHL1    C5 7594   2.348   5.800   7.094  0.1832 -0.3945 -0.2483
   70CHL1    C6 7595   2.446   5.716   7.136  0.2090 -0.3403  0.6127
   70CHL1    H6 7596   2.507   5.664   7.060 -2.3013 -1.3200 -0.8433
   70CHL1    C7 7597   2.467   5.663   7.273 -0.1866 -0.0805  0.1506
   70CHL1   H7A 7598   2.465   5.552   7.271 -0.9100 -0.0776 -1.9364
   70CHL1   H7B 7599   2.571   5.687   7.305 -0.2133 -0.4716  0.5343
   70CHL1    C8 7600   2.353   5.721   7.375 -0.3482 -0.1053 -0.0320
   70CHL1    H8 7601   2.262   5.656   7.377  0.0916 -0.7423 -0.4834
   70CHL1   C14 7602   2.418   5.710   7.511 -0.7898  0.2980  0.0893
   70CHL1   H14 7603   2.502   5.783   7.504 -0.8891  0.3612 -0.5901
   70CHL1   C15 7604   2.503   5.582   7.546  0.2293  0.3757  0.0929
   70CHL1  H15A 7605   2.437   5.501   7.508  2.5063 -1.3767 -0.4085
   70CHL1  H15B 7606   2.600   5.595   7.493  0.8547  2.0627  1.5417
   70CHL1   C16 7607   2.514   5.589   7.699  0.0360  0.5338 -0.5807
   70CHL1  H16A 7608   2.469   5.500   7.746  1.3186 -1.0151 -2.1445
   70CHL1  H16B 7609   2.621   5.595   7.730 -0.2174  0.2794  0.3388
   70CHL1   C17 7610   2.431   5.718   7.745 -0.0977  0.4695 -0.1962
   70CHL1   H17 7611   2.509   5.797   7.743  0.9756 -0.4315  2.3849
   70CHL1   C13 7612   2.333   5.751   7.630 -0.5274 -0.2300  1.0543
   70CHL1   C18 7613   2.205   5.665   7.632 -0.0406  0.4430 -0.8052
   70CHL1  H18A 7614   2.141   5.690   7.719 -2.4259 -0.5457 -2.1798
   70CHL1  H18B 7615   2.135   5.660   7.546  0.4356 -1.4758 -1.1351
   70CHL1  H18C 7616   2.228   5.559   7.658 -2.0212  0.1563 -0.0466
   70CHL1   C12 7617   2.290   5.900   7.604 -0.5457 -0.1036 -0.2666
   70CHL1  H12A 7618   2.228   5.944   7.685 -1.6499 -1.4066 -0.3573
   70CHL1  H12B 7619   2.385   5.956   7.591 -1.2138  0.6539 -2.1691
   70CHL1   C11 7620   2.231   5.919   7.463 -0.3920 -0.1305 -0.1756
   70CHL1  H11A 7621   2.128   5.876   7.463 -0.5857  0.3117 -1.0632
   70CHL1  H11B 7622   2.223   6.030   7.456 -1.7180 -0.2177 -0.3386
   70CHL1    C9 7623   2.318   5.857   7.344  0.5897  0.1908 -0.5950
   70CHL1    H9 7624   2.404   5.927   7.341 -1.1227  2.4889  0.2535
   70CHL1   C10 7625   2.259   5.878   7.200 -0.4210 -0.1721  0.0127
   70CHL1   C19 7626   2.121   5.815   7.187 -0.9692 -0.0345  0.0506
   70CHL1  H19A 7627   2.125   5.713   7.232 -0.4305 -0.0327  0.0108
   70CHL1  H19B 7628   2.040   5.869   7.240  0.9760  1.6161  1.5240
   70CHL1  H19C 7629   2.102   5.807   7.078  1.8484  0.2362 -0.5357
   70CHL1    C1 7630   2.253   6.032   7.169  0.6190  0.0791  0.3377
   70CHL1   H1A 7631   2.172   6.074   7.232 -0.1072 -2.9952  1.6287
   70CHL1   H1B 7632   2.353   6.051   7.214 -0.0192 -2.1139  2.9477
   70CHL1    C2 7633   2.242   6.078   7.025  0.7993 -0.1970 -0.1843
   70CHL1   H2A 7634   2.255   6.185   7.001  2.0560 -1.1184 -4.4504
   70CHL1   H2B 7635   2.147   6.036   6.986  1.1268  0.4551 -1.7382
   70CHL1   C20 7636   2.373   5.707   7.882  0.4260  0.0410 -0.0417
   70CHL1   H20 7637   2.301   5.791   7.892  0.8539  0.2926  1.0999
   70CHL1   C21 7638   2.490   5.750   7.982  0.2178 -0.1862 -0.1623
   70CHL1  H21A 7639   2.461   5.756   8.089  2.7512 -3.4758  0.8826
   70CHL1  H21B 7640   2.514   5.857   7.967  0.7677 -0.3479 -0.4344
   70CHL1  H21C 7641   2.581   5.688   7.970  0.1614 -0.9540  2.6225
   70CHL1   C22 7642   2.322   5.571   7.942  0.4855 -0.0791 -0.1571
   70CHL1  H22A 7643   2.266   5.510   7.868 -1.6411  0.9051  0.5532
   70CHL1  H22B 7644   2.414   5.517   7.971  0.5980  0.3948  0.4042
   70CHL1   C23 7645   2.215   5.577   8.052 -0.5639  0.5050 -0.5373
   70CHL1  H23A 7646   2.213   5.475   8.097  1.5647  0.5823 -0.1597
   70CHL1  H23B 7647   2.249   5.654   8.124  2.8209  0.5882 -2.0470
   70CHL1   C24 7648   2.072   5.592   7.994 -0.1520  0.3738 -0.1612
   70CHL1  H24A 7649   2.056   5.696   7.959  1.5456  1.3136  1.6548
   70CHL1  H24B 7650   2.052   5.512   7.920 -0.8856  1.0378 -0.6944
   70CHL1   C25 7651   1.967   5.577   8.107  0.2127 -0.3867  0.1129
   70CHL1   H25 7652   2.007   5.637   8.191  0.7403 -0.7563  0.1256
   70CHL1   C26 7653   1.838   5.635   8.055  0.1634  0.0601  0.3630
   70CHL1  H26A 7654   1.806   5.591   7.957 -0.2855 -0.2894  0.6593
   70CHL1  H26B 7655   1.764   5.627   8.138  0.8484  0.1845  0.9881
   70CHL1  H26C 7656   1.834   5.741   8.021 -1.4051 -0.6002 -1.7764
   70CHL1   C27 7657   1.944   5.431   8.158 -0.0373  0.3652 -0.2874
   70CHL1  H27A 7658   2.036   5.369   8.165 -0.4785 -0.2937 -0.2556
   70CHL1  H27B 7659   1.912   5.445   8.263  1.1402 -0.8231  0.2530
   70CHL1  H27C 7660   1.870   5.382   8.091  0.9510  0.2913 -1.3774
   71CHL1    C3 7661   2.795   2.032   6.823 -0.1271  0.5540 -0.1547
   71CHL1    H3 7662   2.897   1.990   6.836 -0.1011 -0.2646 -2.5468
   71CHL1    O3 7663   2.769   2.036   6.687 -0.0933 -0.0493 -0.1831
   71CHL1   H3' 7664   2.679   2.069   6.687 -0.2464 -0.3381  2.0008
   71CHL1    C4 7665   2.689   1.940   6.885  0.4535  0.0261  0.0606
   71CHL1   H4A 7666   2.590   1.987   6.868 -0.1004 -0.6233  1.3986
   71CHL1   H4B 7667   2.694   1.843   6.831  0.6445 -0.0055  0.1322
   71CHL1    C5 7668   2.694   1.919   7.034  0.2671 -0.2909 -0.4549
   71CHL1    C6 7669   2.704   1.798   7.082 -0.5654 -0.2040 -0.5788
   71CHL1    H6 7670   2.718   1.709   7.019  1.9508 -0.3211  0.0357
   71CHL1    C7 7671   2.709   1.770   7.231  0.0037  0.2598 -0.3513
   71CHL1   H7A 7672   2.638   1.687   7.254 -0.1709  1.0144  2.1377
   71CHL1   H7B 7673   2.816   1.751   7.254 -0.0197  1.5655  1.0213
   71CHL1    C8 7674   2.669   1.896   7.315 -0.1713  0.2417 -0.9945
   71CHL1    H8 7675   2.559   1.898   7.296 -0.9283 -0.4010  2.6657
   71CHL1   C14 7676   2.694   1.874   7.471  0.3981  0.4458 -0.3068
   71CHL1   H14 7677   2.802   1.853   7.486  0.6373  1.5092 -0.4670
   71CHL1   C15 7678   2.636   1.744   7.544  0.4703 -0.1519 -0.1449
   71CHL1  H15A 7679   2.550   1.720   7.479  1.3357 -0.0594 -1.3694
   71CHL1  H15B 7680   2.704   1.656   7.538 -0.7788 -1.2137  0.8516
   71CHL1   C16 7681   2.610   1.780   7.688 -1.2993 -0.6904 -0.2104
   71CHL1  H16A 7682   2.505   1.766   7.722 -1.3003 -0.4522 -0.1091
   71CHL1  H16B 7683   2.676   1.717   7.752  1.5066 -0.2935 -2.4930
   71CHL1   C17 7684   2.661   1.925   7.701  0.4374 -0.5304 -0.4928
   71CHL1   H17 7685   2.771   1.923   7.709  0.4845  0.0514 -0.8578
   71CHL1   C13 7686   2.633   1.981   7.564 -0.0680 -0.2588  0.2372
   71CHL1   C18 7687   2.479   1.989   7.545 -0.3840  0.2185  0.2632
   71CHL1  H18A 7688   2.422   1.893   7.545 -0.3425  0.1772  1.3447
   71CHL1  H18B 7689   2.433   2.062   7.615  1.2199  3.3288 -1.7189
   71CHL1  H18C 7690   2.454   2.037   7.448 -0.2548  0.3705  0.3053
   71CHL1   C12 7691   2.707   2.109   7.524  0.1207  0.3889 -0.3997
   71CHL1  H12A 7692   2.659   2.187   7.588  0.9387 -0.4094  1.2653
   71CHL1  H12B 7693   2.807   2.090   7.568 -0.2007 -2.2623 -0.6462
   71CHL1   C11 7694   2.709   2.139   7.372 -0.5774  0.2704 -0.2288
   71CHL1  H11A 7695   2.606   2.172   7.348 -0.1761  0.2362 -2.1701
   71CHL1  H11B 7696   2.767   2.227   7.335 -1.5833  0.1263 -2.2959
   71CHL1    C9 7697   2.738   2.022   7.269 -0.4091 -0.9289  0.1510
   71CHL1    H9 7698   2.848   2.012   7.269 -0.3915 -0.8577  1.1660
   71CHL1   C10 7699   2.700   2.048   7.114  0.9007  0.6351  0.0148
   71CHL1   C19 7700   2.558   2.110   7.110 -0.5443  0.2221  0.0902
   71CHL1  H19A 7701   2.553   2.216   7.143  2.4703  0.3491  0.3832
   71CHL1  H19B 7702   2.513   2.112   7.009  0.3447  0.1913 -0.3144
   71CHL1  H19C 7703   2.499   2.056   7.188 -1.9347 -1.6168 -2.1283
   71CHL1    C1 7704   2.800   2.154   7.050  0.0358  0.6006 -0.2026
   71CHL1   H1A 7705   2.789   2.247   7.108 -1.3451 -0.5615  1.4998
   71CHL1   H1B 7706   2.905   2.117   7.056 -0.4429 -0.9108 -0.7143
   71CHL1    C2 7707   2.784   2.167   6.895  0.1029 -0.7013  0.0667
   71CHL1   H2A 7708   2.862   2.242   6.869  0.2121 -0.7181  0.3468
   71CHL1   H2B 7709   2.686   2.211   6.868  0.0639 -0.2709  0.8731
   71CHL1   C20 7710   2.608   1.998   7.830  0.0501 -0.3065 -0.6120
   71CHL1   H20 7711   2.501   2.029   7.832 -0.0219 -0.5827  1.0810
   71CHL1   C21 7712   2.681   2.130   7.855 -0.5430 -0.1595  0.2355
   71CHL1  H21A 7713   2.791   2.128   7.839 -0.6238 -0.6001 -0.2948
   71CHL1  H21B 7714   2.668   2.156   7.962  1.2409  0.2929  0.3810
   71CHL1  H21C 7715   2.634   2.210   7.794 -1.7121 -1.3760 -0.5161
   71CHL1   C22 7716   2.619   1.915   7.961  0.8691  0.3548 -0.4937
   71CHL1  H22A 7717   2.571   1.978   8.039 -1.2126  0.1707 -1.5565
   71CHL1  H22B 7718   2.551   1.828   7.953  2.3146 -1.0382  1.4173
   71CHL1   C23 7719   2.758   1.869   7.995 -0.4936 -0.1170 -0.2839
   71CHL1  H23A 7720   2.803   1.820   7.906 -1.6623 -1.6429 -0.0849
   71CHL1  H23B 7721   2.829   1.954   8.006 -0.4385 -0.2067  0.0720
   71CHL1   C24 7722   2.774   1.781   8.117  0.2818 -0.4799  0.1500
   71CHL1  H24A 7723   2.713   1.814   8.204 -0.4771  1.4804 -1.0654
   71CHL1  H24B 7724   2.731   1.681   8.095 -0.6984 -0.2314  0.8812
   71CHL1   C25 7725   2.921   1.768   8.174  0.6035  0.1614 -0.3197
   71CHL1   H25 7726   2.980   1.738   8.085  0.6961  0.9327 -0.5204
   71CHL1   C26 7727   2.965   1.899   8.234 -0.4751 -0.1384 -0.3490
   71CHL1  H26A 7728   3.023   1.962   8.163 -0.7387  0.6323  0.0977
   71CHL1  H26B 7729   2.885   1.960   8.282 -0.4647 -0.0689 -0.4197
   71CHL1  H26C 7730   3.038   1.877   8.315 -0.6369 -0.3344 -0.2557
   71CHL1   C27 7731   2.909   1.661   8.284 -0.0972  0.3857  0.8892
   71CHL1  H27A 7732   2.894   1.563   8.233 -1.1174  1.1189 -0.2748
   71CHL1  H27B 7733   3.009   1.659   8.332 -0.1161  4.0080  1.3674
   71CHL1  H27C 7734   2.838   1.691   8.364 -1.9533  0.3750 -0.6678
   72CHL1    C3 7735   4.558   1.229   7.116 -0.4446 -0.0095 -0.5561
   72CHL1    H3 7736   4.460   1.233   7.167 -0.6634  1.3777 -1.0408
   72CHL1    O3 7737   4.523   1.259   6.983 -1.1766  0.5109  0.1781
   72CHL1   H3' 7738   4.608   1.278   6.943 -1.3293  3.3647  0.9806
   72CHL1    C4 7739   4.639   1.348   7.175  0.3842  0.5817 -0.2572
   72CHL1   H4A 7740   4.722   1.355   7.102 -1.0805 -0.7984 -2.1522
   72CHL1   H4B 7741   4.576   1.439   7.180  0.6843  0.7972 -0.4195
   72CHL1    C5 7742   4.696   1.317   7.311  0.3773 -0.7212  0.2801
   72CHL1    C6 7743   4.680   1.398   7.419  0.0101  0.2941 -0.4659
   72CHL1    H6 7744   4.638   1.499   7.404 -2.3211 -0.1420  2.2519
   72CHL1    C7 7745   4.714   1.360   7.561  0.7292 -0.1247 -0.4371
   72CHL1   H7A 7746   4.751   1.455   7.607 -0.9029  1.6485 -2.5539
   72CHL1   H7B 7747   4.627   1.329   7.623  0.3318  2.5544  0.4837
   72CHL1    C8 7748   4.810   1.244   7.565  0.5289 -0.1504  0.6990
   72CHL1    H8 7749   4.911   1.272   7.528 -0.1755  0.7062 -0.6153
   72CHL1   C14 7750   4.824   1.197   7.702 -1.3203 -0.0348 -0.1899
   72CHL1   H14 7751   4.727   1.150   7.729 -0.3076 -1.9761  0.3421
   72CHL1   C15 7752   4.857   1.298   7.816  0.3233  0.6953  0.0561
   72CHL1  H15A 7753   4.937   1.366   7.778  0.0824  1.2548  0.5485
   72CHL1  H15B 7754   4.767   1.358   7.841 -0.8362 -0.4924 -1.1219
   72CHL1   C16 7755   4.914   1.216   7.934  0.4818 -0.5668 -0.2454
   72CHL1  H16A 7756   5.018   1.246   7.961  0.7922 -2.6614  1.0544
   72CHL1  H16B 7757   4.852   1.224   8.026  0.5359 -0.5014 -0.2138
   72CHL1   C17 7758   4.923   1.070   7.892  0.0285  0.0917 -0.0209
   72CHL1   H17 7759   4.825   1.025   7.919  0.9163 -0.8528  1.8327
   72CHL1   C13 7760   4.926   1.076   7.734 -0.5713 -0.3376 -0.2698
   72CHL1   C18 7761   5.077   1.121   7.708  0.0466  0.2418 -0.8731
   72CHL1  H18A 7762   5.097   1.141   7.601 -0.3979  3.6739 -0.4264
   72CHL1  H18B 7763   5.102   1.218   7.756 -0.0041 -0.2570  0.1928
   72CHL1  H18C 7764   5.146   1.038   7.731 -0.7767 -0.4098 -0.7165
   72CHL1   C12 7765   4.883   0.954   7.648  0.2063 -0.7918 -0.2264
   72CHL1  H12A 7766   4.951   0.866   7.641  1.1616 -0.1534  0.7916
   72CHL1  H12B 7767   4.786   0.916   7.688  0.9223 -0.8956  1.4864
   72CHL1   C11 7768   4.863   0.999   7.499  0.8102  0.1595 -0.6169
   72CHL1  H11A 7769   4.967   1.027   7.469  0.4870  0.8582 -1.1039
   72CHL1  H11B 7770   4.826   0.922   7.428 -1.1642  0.5271 -0.0350
   72CHL1    C9 7771   4.768   1.125   7.482  0.4446 -0.4430  1.1225
   72CHL1    H9 7772   4.671   1.089   7.522 -0.8035  2.9236  1.4793
   72CHL1   C10 7773   4.744   1.169   7.334  0.2276  0.2867 -0.3530
   72CHL1   C19 7774   4.881   1.166   7.262 -0.1956  0.1354  0.4960
   72CHL1  H19A 7775   4.915   1.060   7.256  0.3915  0.4164 -2.5415
   72CHL1  H19B 7776   4.876   1.197   7.156 -0.4503 -2.9388 -0.4746
   72CHL1  H19C 7777   4.964   1.223   7.308  2.2319 -0.6635 -2.5722
   72CHL1    C1 7778   4.662   1.061   7.269  0.0816  0.9084  0.4062
   72CHL1   H1A 7779   4.717   0.965   7.265 -2.2726 -0.5183  0.6209
   72CHL1   H1B 7780   4.572   1.047   7.334 -1.2397 -1.6718 -1.8079
   72CHL1    C2 7781   4.619   1.094   7.119 -0.1904 -0.3434 -0.3101
   72CHL1   H2A 7782   4.539   1.022   7.091 -2.3944  3.0264 -3.4691
   72CHL1   H2B 7783   4.704   1.084   7.047  0.9347 -0.2250  0.9551
   72CHL1   C20 7784   5.034   0.992   7.975 -0.1607 -0.3578  0.4259
   72CHL1   H20 7785   5.134   1.039   7.969  0.5175 -1.9448 -2.0832
   72CHL1   C21 7786   5.054   0.849   7.921  0.2573  0.4670 -0.9466
   72CHL1  H21A 7787   5.095   0.841   7.818  1.7637  0.5611 -0.3710
   72CHL1  H21B 7788   4.967   0.779   7.915  1.1637 -0.7270 -0.5888
   72CHL1  H21C 7789   5.104   0.791   8.001 -0.8257 -0.4847 -0.9350
   72CHL1   C22 7790   4.998   0.988   8.125 -0.4741  0.9062 -0.2494
   72CHL1  H22A 7791   5.082   0.940   8.179  0.4049  0.0215 -2.3268
   72CHL1  H22B 7792   4.987   1.089   8.170  0.8531  0.2380  1.7109
   72CHL1   C23 7793   4.871   0.915   8.160  0.4260 -0.5852 -0.0719
   72CHL1  H23A 7794   4.775   0.956   8.123  0.6374 -0.6322 -0.6737
   72CHL1  H23B 7795   4.887   0.817   8.109  1.6646  0.5213 -1.9131
   72CHL1   C24 7796   4.864   0.890   8.311  0.6435 -0.0937  0.2302
   72CHL1  H24A 7797   4.960   0.849   8.348 -0.7289 -4.1761 -0.1883
   72CHL1  H24B 7798   4.846   0.987   8.362 -1.6106 -0.9821  1.2787
   72CHL1   C25 7799   4.756   0.782   8.355 -0.1379  0.7028 -0.9344
   72CHL1   H25 7800   4.782   0.683   8.311 -0.5068 -1.1999  2.7249
   72CHL1   C26 7801   4.757   0.748   8.509  0.5989  0.1782 -1.0465
   72CHL1  H26A 7802   4.793   0.835   8.569 -0.4223  0.6903 -1.1423
   72CHL1  H26B 7803   4.651   0.718   8.529  1.4250 -2.3679 -0.0950
   72CHL1  H26C 7804   4.820   0.658   8.521 -0.8067 -0.8370 -1.1021
   72CHL1   C27 7805   4.621   0.842   8.315  0.0992 -0.4025  0.4528
   72CHL1  H27A 7806   4.542   0.783   8.365  0.6492 -1.6478 -0.0976
   72CHL1  H27B 7807   4.628   0.949   8.345  0.1645 -0.7552  1.7122
   72CHL1  H27C 7808   4.594   0.830   8.208  0.2636 -2.1163  0.5725
   73CHL1    C3 7809   1.688   3.882   6.879  0.3506 -1.0905  0.3880
   73CHL1    H3 7810   1.595   3.881   6.940 -1.3771  2.4815 -1.8152
   73CHL1    O3 7811   1.663   3.960   6.763 -0.0859 -0.0601  0.5211
   73CHL1   H3' 7812   1.741   3.961   6.707 -1.1216  2.1168 -1.0016
   73CHL1    C4 7813   1.799   3.956   6.960  0.1228 -0.2102  0.2268
   73CHL1   H4A 7814   1.889   3.965   6.897  1.4404 -0.0762  2.0459
   73CHL1   H4B 7815   1.773   4.056   6.999 -1.2684 -0.2015 -0.6355
   73CHL1    C5 7816   1.823   3.867   7.082  0.6053 -0.1072 -0.1652
   73CHL1    C6 7817   1.799   3.918   7.205 -0.7492 -0.3124 -0.0391
   73CHL1    H6 7818   1.763   4.021   7.214  0.5131  0.2679 -1.2844
   73CHL1    C7 7819   1.820   3.835   7.329  0.5443  0.0893 -0.3080
   73CHL1   H7A 7820   1.879   3.884   7.409 -0.6034 -0.9493  1.2250
   73CHL1   H7B 7821   1.726   3.792   7.371  0.0585 -1.4687 -2.7851
   73CHL1    C8 7822   1.917   3.708   7.302  0.7064  0.1633  0.2035
   73CHL1    H8 7823   2.020   3.750   7.310  1.6062 -1.7081 -0.5844
   73CHL1   C14 7824   1.891   3.600   7.406 -0.1674 -0.5302 -0.2149
   73CHL1   H14 7825   1.786   3.564   7.398 -0.4441 -0.0173  0.8601
   73CHL1   C15 7826   1.886   3.656   7.550  0.1707  0.4382  0.4550
   73CHL1  H15A 7827   1.961   3.735   7.572  1.1293 -0.1570 -0.5595
   73CHL1  H15B 7828   1.787   3.701   7.575 -0.1887 -0.1405  0.1026
   73CHL1   C16 7829   1.908   3.529   7.634 -0.8683  0.1429  0.6961
   73CHL1  H16A 7830   2.005   3.550   7.686  0.1745  0.3834 -1.2589
   73CHL1  H16B 7831   1.831   3.518   7.713  0.3201 -1.5167  1.7104
   73CHL1   C17 7832   1.934   3.411   7.542 -0.4930  0.3338  0.1597
   73CHL1   H17 7833   1.836   3.358   7.535  0.4684 -1.3996 -0.9740
   73CHL1   C13 7834   1.970   3.468   7.405  0.5806  0.5057  0.3253
   73CHL1   C18 7835   2.126   3.499   7.405  0.7695 -0.3361  0.2408
   73CHL1  H18A 7836   2.161   3.559   7.318  1.2209  0.1254  0.7359
   73CHL1  H18B 7837   2.154   3.551   7.499 -0.0722 -0.0799  0.3598
   73CHL1  H18C 7838   2.184   3.405   7.399  0.1111 -0.8086  0.9942
   73CHL1   C12 7839   1.932   3.395   7.275  0.5555  0.1125  0.4164
   73CHL1  H12A 7840   1.998   3.307   7.261  1.0122  0.2159  1.7904
   73CHL1  H12B 7841   1.830   3.352   7.282  1.7354 -2.8122  1.5787
   73CHL1   C11 7842   1.948   3.488   7.153 -0.2490 -0.1634 -0.0658
   73CHL1  H11A 7843   2.056   3.505   7.135 -0.2753 -0.1143 -0.1836
   73CHL1  H11B 7844   1.917   3.434   7.061 -2.0801  1.9568 -0.8123
   73CHL1    C9 7845   1.874   3.630   7.168  0.4391 -0.7181 -0.3509
   73CHL1    H9 7846   1.770   3.600   7.190  0.2732 -1.6639 -2.2562
   73CHL1   C10 7847   1.868   3.725   7.048  0.1798  0.1754  0.5018
   73CHL1   C19 7848   2.018   3.732   6.994 -0.0609  0.3041 -0.7427
   73CHL1  H19A 7849   2.025   3.794   6.901 -0.1257  1.4543  0.0035
   73CHL1  H19B 7850   2.084   3.776   7.071  1.1865 -0.4330 -1.3462
   73CHL1  H19C 7851   2.044   3.628   6.963  2.0014  0.7385 -0.6322
   73CHL1    C1 7852   1.778   3.657   6.940 -0.2020 -0.8346 -0.0219
   73CHL1   H1A 7853   1.836   3.571   6.900  1.1547  0.6040 -1.3540
   73CHL1   H1B 7854   1.693   3.609   6.991 -0.7147 -0.7972 -0.8157
   73CHL1    C2 7855   1.726   3.753   6.830 -0.0244  0.1043 -0.7147
   73CHL1   H2A 7856   1.648   3.709   6.765  0.7728 -2.5025 -0.0325
   73CHL1   H2B 7857   1.817   3.767   6.768 -1.0608  1.2814 -2.0227
   73CHL1   C20 7858   2.022   3.310   7.600  0.3120  0.1423  0.5806
   73CHL1   H20 7859   2.125   3.349   7.616  0.4193 -0.5870  1.7757
   73CHL1   C21 7860   2.037   3.184   7.507 -0.3790 -0.2926 -0.1651
   73CHL1  H21A 7861   1.943   3.132   7.482 -0.3412 -0.3130 -0.2675
   73CHL1  H21B 7862   2.081   3.105   7.572  0.8120 -0.1952 -0.8153
   73CHL1  H21C 7863   2.105   3.209   7.423  1.8841  0.0598  1.6595
   73CHL1   C22 7864   1.961   3.264   7.740 -0.9992  0.1170  0.6008
   73CHL1  H22A 7865   1.951   3.349   7.811  1.0364  0.3102  0.7174
   73CHL1  H22B 7866   1.863   3.216   7.721 -0.0572 -1.3622 -0.7717
   73CHL1   C23 7867   2.055   3.169   7.824 -0.2845  0.5461  0.0668
   73CHL1  H23A 7868   2.075   3.074   7.771 -1.3771 -0.0938  0.7552
   73CHL1  H23B 7869   2.155   3.215   7.834  1.0128 -1.7892 -1.3427
   73CHL1   C24 7870   1.993   3.129   7.961  0.3940  0.1996 -0.0174
   73CHL1  H24A 7871   1.983   3.216   8.029  0.9006 -0.6343  1.1579
   73CHL1  H24B 7872   1.888   3.095   7.948  0.6345 -0.1620 -1.1467
   73CHL1   C25 7873   2.076   3.016   8.034  0.7399 -0.3035  0.2653
   73CHL1   H25 7874   2.086   2.935   7.959 -1.1287  0.9744 -1.4789
   73CHL1   C26 7875   2.214   3.056   8.078  0.2595  0.2063 -0.0303
   73CHL1  H26A 7876   2.267   2.968   8.121 -1.9011 -2.6415 -2.7848
   73CHL1  H26B 7877   2.270   3.089   7.988  0.1248 -0.5006 -0.3824
   73CHL1  H26C 7878   2.199   3.139   8.150  3.0739  0.5932  0.2200
   73CHL1   C27 7879   1.994   2.955   8.148  0.3253  0.2002  0.4581
   73CHL1  H27A 7880   1.895   2.926   8.106  0.4624  0.3005  0.0677
   73CHL1  H27B 7881   2.047   2.869   8.194 -0.7678 -1.5810 -1.4578
   73CHL1  H27C 7882   1.972   3.029   8.228 -0.3730 -0.1843  0.6319
   74CHL1    C3 7883   2.351   2.822   6.812  0.1022 -0.2527 -0.0615
   74CHL1    H3 7884   2.329   2.909   6.878 -1.7821 -0.2016 -0.7047
   74CHL1    O3 7885   2.306   2.848   6.687  0.3662 -0.6540  0.0459
   74CHL1   H3' 7886   2.246   2.923   6.690  1.4957  0.2584  0.6469
   74CHL1    C4 7887   2.508   2.807   6.802  0.5179  0.1606 -0.4813
   74CHL1   H4A 7888   2.518   2.720   6.733  0.1338  0.3712 -0.8124
   74CHL1   H4B 7889   2.548   2.900   6.755 -0.2046  1.3293  1.1158
   74CHL1    C5 7890   2.565   2.769   6.933 -0.0485 -0.4303 -0.6489
   74CHL1    C6 7891   2.659   2.857   6.985 -0.2783  0.1366 -0.2617
   74CHL1    H6 7892   2.690   2.948   6.930 -0.2206  1.6450  2.1377
   74CHL1    C7 7893   2.730   2.833   7.122 -0.4531  0.0422  0.0578
   74CHL1   H7A 7894   2.841   2.841   7.120 -0.2462 -2.1510  0.2736
   74CHL1   H7B 7895   2.694   2.916   7.187 -1.0070 -1.0579  1.2074
   74CHL1    C8 7896   2.690   2.701   7.194  0.2434  0.1350 -0.0464
   74CHL1    H8 7897   2.745   2.617   7.148  0.8383 -0.8142  2.2614
   74CHL1   C14 7898   2.717   2.716   7.346  0.5681  0.5612  0.4546
   74CHL1   H14 7899   2.662   2.810   7.370 -1.7323 -0.6549  0.1526
   74CHL1   C15 7900   2.861   2.741   7.393 -0.4095 -0.3929 -0.4920
   74CHL1  H15A 7901   2.933   2.677   7.337  0.5841  0.8406 -0.6636
   74CHL1  H15B 7902   2.894   2.846   7.377 -1.5283 -0.2270 -1.9610
   74CHL1   C16 7903   2.863   2.696   7.543  0.8199 -0.4566  0.2030
   74CHL1  H16A 7904   2.934   2.613   7.563  1.6559 -0.4658 -2.3852
   74CHL1  H16B 7905   2.903   2.772   7.613  0.2612 -2.2957  2.6713
   74CHL1   C17 7906   2.724   2.642   7.575  0.2163 -0.4468 -0.0331
   74CHL1   H17 7907   2.668   2.732   7.609  2.8871  1.0412  0.7300
   74CHL1   C13 7908   2.663   2.602   7.437 -0.1858 -0.3356  0.8406
   74CHL1   C18 7909   2.722   2.471   7.386  0.5429 -0.6336  0.4878
   74CHL1  H18A 7910   2.686   2.454   7.282 -2.1188  1.9872  0.8284
   74CHL1  H18B 7911   2.829   2.495   7.370  0.2203  0.1756 -0.6180
   74CHL1  H18C 7912   2.698   2.384   7.451 -0.3189 -1.8916 -1.3877
   74CHL1   C12 7913   2.505   2.604   7.417 -0.3965 -0.6292 -0.5837
   74CHL1  H12A 7914   2.460   2.530   7.486  0.6401 -1.6720 -0.9927
   74CHL1  H12B 7915   2.475   2.709   7.440 -1.2137 -0.7431 -1.0929
   74CHL1   C11 7916   2.465   2.588   7.267 -0.9806  0.1163 -0.5672
   74CHL1  H11A 7917   2.496   2.485   7.238 -1.3817  0.1323 -1.0634
   74CHL1  H11B 7918   2.356   2.601   7.253 -0.8522  0.8999 -0.9168
   74CHL1    C9 7919   2.536   2.684   7.171 -0.6831  0.2418  0.4591
   74CHL1    H9 7920   2.493   2.784   7.193 -0.9650 -0.0647  1.3363
   74CHL1   C10 7921   2.503   2.661   7.023  0.1452  0.5741 -0.1620
   74CHL1   C19 7922   2.561   2.529   6.972  0.1535  0.1781  0.9898
   74CHL1  H19A 7923   2.513   2.447   7.030  0.7478 -1.1370 -0.3263
   74CHL1  H19B 7924   2.532   2.496   6.870  1.3495 -2.3798  1.4025
   74CHL1  H19C 7925   2.672   2.531   6.966  0.0797  0.4547 -0.9403
   74CHL1    C1 7926   2.353   2.665   7.009 -0.0438 -0.5481  0.3372
   74CHL1   H1A 7927   2.302   2.579   7.057 -0.4923 -0.1670  0.5574
   74CHL1   H1B 7928   2.314   2.755   7.061 -2.8277 -0.7561 -1.2167
   74CHL1    C2 7929   2.290   2.692   6.876 -0.0196  0.3801  0.3163
   74CHL1   H2A 7930   2.182   2.717   6.889 -0.0343  1.5545 -1.6489
   74CHL1   H2B 7931   2.308   2.602   6.812  1.0857  1.6537 -1.2363
   74CHL1   C20 7932   2.728   2.541   7.696 -0.2784 -0.0836 -1.0480
   74CHL1   H20 7933   2.804   2.462   7.678  0.9349  0.9641 -0.6506
   74CHL1   C21 7934   2.591   2.475   7.720  0.2613 -0.8598  0.7167
   74CHL1  H21A 7935   2.525   2.559   7.751 -0.3242 -1.0606  0.0340
   74CHL1  H21B 7936   2.573   2.397   7.797 -0.0867 -1.7112 -0.2073
   74CHL1  H21C 7937   2.564   2.421   7.626  1.4650 -0.4555  0.1185
   74CHL1   C22 7938   2.790   2.595   7.829  0.0784  0.4760 -0.1543
   74CHL1  H22A 7939   2.892   2.635   7.812  0.7079 -0.3751  1.4198
   74CHL1  H22B 7940   2.730   2.680   7.868  2.4013  2.1499 -0.0077
   74CHL1   C23 7941   2.805   2.496   7.942  0.4185  0.0131 -0.5546
   74CHL1  H23A 7942   2.705   2.478   7.986  0.0625 -0.2451 -1.4550
   74CHL1  H23B 7943   2.841   2.396   7.909 -0.2745  0.2941 -2.2302
   74CHL1   C24 7944   2.886   2.553   8.057 -0.3197 -0.1561 -1.7366
   74CHL1  H24A 7945   2.982   2.582   8.010  0.4452  0.4097  0.1092
   74CHL1  H24B 7946   2.851   2.648   8.102  1.7488 -1.2178  2.7297
   74CHL1   C25 7947   2.912   2.448   8.165  0.0600  0.6588  0.0430
   74CHL1   H25 7948   2.917   2.348   8.116 -1.2477  0.8775 -0.6032
   74CHL1   C26 7949   3.037   2.467   8.256  0.7062 -0.3004 -0.2277
   74CHL1  H26A 7950   3.038   2.376   8.320 -1.8349 -0.0559  0.2678
   74CHL1  H26B 7951   3.126   2.475   8.191  0.8835  1.6542  0.1760
   74CHL1  H26C 7952   3.022   2.561   8.315  3.3529  0.7907 -1.1331
   74CHL1   C27 7953   2.793   2.439   8.253  0.7449 -0.7081 -0.3384
   74CHL1  H27A 7954   2.765   2.540   8.290 -0.8601 -0.8257 -1.1166
   74CHL1  H27B 7955   2.709   2.405   8.188 -1.3212 -0.8038  2.1971
   74CHL1  H27C 7956   2.807   2.373   8.341  1.6043 -1.7146 -1.1996
   75CHL1    C3 7957   6.018   3.668   6.736  0.4977  0.6357  0.0131
   75CHL1    H3 7958   5.972   3.567   6.747  1.7328 -0.3076 -2.6650
   75CHL1    O3 7959   6.059   3.682   6.599 -0.0250  0.1443  0.7740
   75CHL1   H3' 7960   6.121   3.755   6.595  0.5296 -0.3521 -0.4157
   75CHL1    C4 7961   5.917   3.786   6.769 -0.1807  0.1771  0.3883
   75CHL1   H4A 7962   5.968   3.879   6.734  0.7011  0.2690  1.8491
   75CHL1   H4B 7963   5.836   3.775   6.694  0.6666  2.5036 -0.9816
   75CHL1    C5 7964   5.876   3.805   6.910  0.8681  0.5600 -0.9235
   75CHL1    C6 7965   5.746   3.821   6.947 -0.1301 -0.2250  0.0738
   75CHL1    H6 7966   5.663   3.839   6.877 -1.9186  2.3696  2.6048
   75CHL1    C7 7967   5.708   3.864   7.085  0.3878 -0.1632  0.5741
   75CHL1   H7A 7968   5.635   3.947   7.076 -0.6313 -1.1233 -0.4878
   75CHL1   H7B 7969   5.658   3.775   7.129  1.4180 -0.6504  0.7805
   75CHL1    C8 7970   5.820   3.890   7.184  0.1752 -0.0064 -0.0626
   75CHL1    H8 7971   5.843   3.997   7.165 -1.6945  0.2578 -1.1484
   75CHL1   C14 7972   5.761   3.884   7.322 -0.2773 -0.2833 -0.0790
   75CHL1   H14 7973   5.740   3.776   7.339 -0.8695 -0.1977 -0.2264
   75CHL1   C15 7974   5.630   3.950   7.353 -0.9282 -0.0517  0.0964
   75CHL1  H15A 7975   5.634   4.058   7.325  0.5307  0.1001  0.7993
   75CHL1  H15B 7976   5.540   3.899   7.313 -0.7313  0.3770 -0.9375
   75CHL1   C16 7977   5.629   3.952   7.506  0.1954  0.8051  0.1737
   75CHL1  H16A 7978   5.622   4.059   7.536 -1.4822  0.8755 -0.3986
   75CHL1  H16B 7979   5.540   3.898   7.543 -0.8277  0.9437 -1.9124
   75CHL1   C17 7980   5.769   3.888   7.551  0.1886 -0.3708 -0.8099
   75CHL1   H17 7981   5.744   3.780   7.564 -1.1487  0.0349  0.2270
   75CHL1   C13 7982   5.858   3.911   7.432 -0.5015 -0.0704  0.1101
   75CHL1   C18 7983   5.905   4.057   7.419 -0.0136 -0.2982 -0.0191
   75CHL1  H18A 7984   5.965   4.070   7.327 -2.7733  0.5976 -1.8067
   75CHL1  H18B 7985   5.822   4.130   7.428  1.8472  2.1641 -1.5289
   75CHL1  H18C 7986   5.990   4.082   7.487 -1.5373 -1.1950  2.3551
   75CHL1   C12 7987   5.974   3.805   7.415 -0.6482 -0.3523  0.2258
   75CHL1  H12A 7988   6.053   3.819   7.492 -1.3392 -0.0923  0.9027
   75CHL1  H12B 7989   5.923   3.707   7.428  1.2513 -1.4160  0.0602
   75CHL1   C11 7990   6.039   3.803   7.277 -0.1334  0.2203 -0.4821
   75CHL1  H11A 7991   6.129   3.865   7.263  0.5752 -0.7450 -0.3250
   75CHL1  H11B 7992   6.100   3.710   7.275  0.7026  0.6427  2.0438
   75CHL1    C9 7993   5.936   3.797   7.157  0.8089 -0.4246  0.0311
   75CHL1    H9 7994   5.890   3.697   7.172 -0.0702  0.1072  1.0261
   75CHL1   C10 7995   5.991   3.807   7.012 -0.5966  0.2054  0.5993
   75CHL1   C19 7996   6.088   3.927   6.998  0.0267 -0.1091  0.1999
   75CHL1  H19A 7997   6.151   3.931   6.907 -2.0799  0.7843 -1.3159
   75CHL1  H19B 7998   6.032   4.023   7.010 -1.8308 -1.0842 -0.2645
   75CHL1  H19C 7999   6.164   3.923   7.079  0.2976 -1.9216 -0.1036
   75CHL1    C1 8000   6.077   3.683   6.977 -0.1097 -0.6751  0.6174
   75CHL1   H1A 8001   6.163   3.665   7.045 -0.1371 -0.3991  0.7244
   75CHL1   H1B 8002   6.013   3.592   6.985  0.9581 -1.5358 -0.2375
   75CHL1    C2 8003   6.131   3.669   6.833 -0.5578  0.2933 -0.0069
   75CHL1   H2A 8004   6.198   3.581   6.821  2.9431  2.2923  3.0062
   75CHL1   H2B 8005   6.200   3.755   6.817 -1.5216  0.6446 -2.8931
   75CHL1   C20 8006   5.810   3.944   7.688 -0.1482  0.5976  0.1706
   75CHL1   H20 8007   5.836   4.052   7.677 -0.0031  0.2930 -5.3825
   75CHL1   C21 8008   5.952   3.893   7.722  0.6538  0.7462  0.2358
   75CHL1  H21A 8009   6.029   3.941   7.657  0.9605  2.8040  1.9754
   75CHL1  H21B 8010   5.951   3.783   7.716  1.7147  0.7559 -0.3011
   75CHL1  H21C 8011   5.989   3.931   7.820  0.5697  2.2094 -0.2742
   75CHL1   C22 8012   5.704   3.929   7.803  0.5072  0.6241 -0.3452
   75CHL1  H22A 8013   5.612   3.984   7.776 -1.3726 -1.8533  0.6861
   75CHL1  H22B 8014   5.678   3.822   7.817 -1.7247  1.2058  0.2192
   75CHL1   C23 8015   5.753   3.995   7.936 -0.1245  0.6166 -0.0701
   75CHL1  H23A 8016   5.677   3.974   8.014  0.4320  0.8403  0.5398
   75CHL1  H23B 8017   5.842   3.942   7.975 -0.2851  2.0837  2.5503
   75CHL1   C24 8018   5.782   4.147   7.930 -0.6892  0.2583 -0.2045
   75CHL1  H24A 8019   5.818   4.179   8.030 -1.2855 -0.9748  0.4320
   75CHL1  H24B 8020   5.867   4.168   7.861  1.4577 -3.0767  1.1715
   75CHL1   C25 8021   5.661   4.232   7.888 -0.2905 -0.6626 -0.1892
   75CHL1   H25 8022   5.635   4.209   7.782 -0.8447  1.7913 -0.6303
   75CHL1   C26 8023   5.543   4.210   7.978  0.5175 -0.5855  0.1981
   75CHL1  H26A 8024   5.566   4.226   8.085 -2.2324 -3.4041  1.3724
   75CHL1  H26B 8025   5.467   4.289   7.961  1.0318 -0.0904  0.1787
   75CHL1  H26C 8026   5.497   4.109   7.965 -1.6530  0.1818  1.3667
   75CHL1   C27 8027   5.683   4.384   7.891  0.1478 -0.0824  0.2990
   75CHL1  H27A 8028   5.599   4.431   7.836  0.9196  1.7641  0.6506
   75CHL1  H27B 8029   5.675   4.421   7.995  1.5689  3.7430 -0.7966
   75CHL1  H27C 8030   5.780   4.419   7.851  1.7662 -2.6825  1.6835
   76CHL1    C3 8031   2.417   6.412   7.227  0.2369  0.6986 -0.4717
   76CHL1    H3 8032   2.341   6.336   7.200  1.6562 -0.3011 -1.7999
   76CHL1    O3 8033   2.462   6.477   7.104  0.0916  0.4153 -0.9360
   76CHL1   H3' 8034   2.553   6.498   7.125  1.4020 -2.5442 -2.9184
   76CHL1    C4 8035   2.381   6.518   7.320  0.0990  0.0566  0.1115
   76CHL1   H4A 8036   2.453   6.603   7.319  0.7822 -0.4515  2.0710
   76CHL1   H4B 8037   2.285   6.567   7.292 -0.9683 -1.7049  0.5191
   76CHL1    C5 8038   2.371   6.475   7.466 -0.5291  0.3826  0.3003
   76CHL1    C6 8039   2.270   6.503   7.550  0.5555 -0.9112  0.8428
   76CHL1    H6 8040   2.182   6.555   7.510  0.8591 -2.6774 -2.5201
   76CHL1    C7 8041   2.263   6.463   7.691 -0.0045  0.3347 -0.4917
   76CHL1   H7A 8042   2.220   6.543   7.755  1.6980  0.2603  0.8078
   76CHL1   H7B 8043   2.194   6.375   7.692 -0.2737  0.5443 -0.3054
   76CHL1    C8 8044   2.396   6.419   7.751 -0.0449 -0.0725 -0.3618
   76CHL1    H8 8045   2.450   6.516   7.754 -2.7983  1.6429 -1.8880
   76CHL1   C14 8046   2.379   6.353   7.889  0.6917  0.8518 -0.0719
   76CHL1   H14 8047   2.309   6.271   7.866  1.9779  0.1137 -1.6259
   76CHL1   C15 8048   2.307   6.434   8.000 -0.8031  0.0880  0.1296
   76CHL1  H15A 8049   2.347   6.536   8.015  0.7564 -0.3976 -0.5471
   76CHL1  H15B 8050   2.198   6.436   7.976 -0.0370  2.2366 -4.0827
   76CHL1   C16 8051   2.336   6.355   8.120 -0.3933 -0.0801 -0.2672
   76CHL1  H16A 8052   2.373   6.416   8.206 -2.1133  0.4651  0.1343
   76CHL1  H16B 8053   2.245   6.295   8.145 -0.9437  1.0574  0.5430
   76CHL1   C17 8054   2.448   6.247   8.091  0.1821  1.4274 -0.1068
   76CHL1   H17 8055   2.405   6.145   8.079  0.6321  1.0682  1.1556
   76CHL1   C13 8056   2.502   6.288   7.953  0.4356 -0.1910  0.9193
   76CHL1   C18 8057   2.614   6.404   7.964 -0.3374 -0.3061 -0.0830
   76CHL1  H18A 8058   2.706   6.349   7.990 -0.9920 -0.4241  2.1844
   76CHL1  H18B 8059   2.632   6.446   7.862 -0.8016 -0.6607 -0.3142
   76CHL1  H18C 8060   2.604   6.474   8.050 -0.9753 -2.3054  1.5509
   76CHL1   C12 8061   2.533   6.169   7.850 -0.4991  0.0747 -0.4335
   76CHL1  H12A 8062   2.624   6.115   7.886 -0.2568  1.5178  1.2104
   76CHL1  H12B 8063   2.447   6.101   7.835  1.0159 -1.7823 -1.2583
   76CHL1   C11 8064   2.572   6.226   7.709  1.2053 -0.2237  0.3992
   76CHL1  H11A 8065   2.664   6.287   7.718  1.3329  0.3455 -3.3073
   76CHL1  H11B 8066   2.590   6.139   7.642 -0.1524 -0.2539  0.0498
   76CHL1    C9 8067   2.456   6.321   7.649 -0.4233  0.5077 -0.2948
   76CHL1    H9 8068   2.377   6.246   7.627 -0.2500 -0.3435  1.7598
   76CHL1   C10 8069   2.486   6.388   7.515  0.1105  0.9652 -0.0327
   76CHL1   C19 8070   2.609   6.474   7.539  0.2184  0.5845 -0.0525
   76CHL1  H19A 8071   2.637   6.532   7.449  1.3085 -1.6270 -1.1975
   76CHL1  H19B 8072   2.592   6.554   7.614  0.0737  0.6349 -0.1392
   76CHL1  H19C 8073   2.702   6.421   7.567 -1.3059 -1.5574  1.3282
   76CHL1    C1 8074   2.522   6.277   7.412  0.3122  0.1781 -0.4244
   76CHL1   H1A 8075   2.614   6.224   7.444 -0.8250 -1.7175 -0.1146
   76CHL1   H1B 8076   2.438   6.204   7.405  1.2140 -0.9156 -0.0081
   76CHL1    C2 8077   2.544   6.336   7.273 -0.1659  0.2957  0.0475
   76CHL1   H2A 8078   2.562   6.260   7.195 -1.8024 -0.9448  0.8238
   76CHL1   H2B 8079   2.635   6.399   7.269  0.5451 -0.7728 -1.3361
   76CHL1   C20 8080   2.545   6.222   8.205 -0.0563  1.3324 -0.7179
   76CHL1   H20 8081   2.597   6.316   8.233  0.8863  0.8707 -0.8742
   76CHL1   C21 8082   2.657   6.123   8.157 -0.0736  0.0042 -0.1535
   76CHL1  H21A 8083   2.724   6.104   8.243 -0.3763 -1.4813 -0.2169
   76CHL1  H21B 8084   2.716   6.169   8.075  1.3432 -2.2688 -0.5053
   76CHL1  H21C 8085   2.612   6.031   8.114  1.0512 -1.1523  1.0900
   76CHL1   C22 8086   2.476   6.155   8.331 -0.2454 -0.6514 -0.3063
   76CHL1  H22A 8087   2.389   6.215   8.365  0.9747  0.1305  1.6210
   76CHL1  H22B 8088   2.449   6.052   8.298  0.6827 -1.0156  0.0341
   76CHL1   C23 8089   2.556   6.141   8.459  0.0683 -0.0731 -0.1479
   76CHL1  H23A 8090   2.619   6.049   8.468  0.3367  0.2025  1.0255
   76CHL1  H23B 8091   2.628   6.225   8.467  2.0524 -1.5196 -1.7739
   76CHL1   C24 8092   2.467   6.142   8.587  0.3931  0.1679  0.4707
   76CHL1  H24A 8093   2.437   6.249   8.592  1.5403  0.5546 -0.5180
   76CHL1  H24B 8094   2.365   6.101   8.566 -1.5454  3.4865  2.5444
   76CHL1   C25 8095   2.515   6.096   8.724 -0.5094 -0.2019  0.6043
   76CHL1   H25 8096   2.512   5.985   8.720 -2.5024 -0.1519 -1.2389
   76CHL1   C26 8097   2.660   6.134   8.761 -0.4035 -0.1279 -0.0163
   76CHL1  H26A 8098   2.736   6.064   8.719  0.6392 -0.6700  2.5544
   76CHL1  H26B 8099   2.676   6.239   8.730 -0.9967 -0.1516 -0.4127
   76CHL1  H26C 8100   2.679   6.131   8.870  0.9683  1.0229 -0.1974
   76CHL1   C27 8101   2.420   6.135   8.834 -0.0431  0.0580 -0.1000
   76CHL1  H27A 8102   2.443   6.073   8.923  0.8582 -0.0079 -0.3638
   76CHL1  H27B 8103   2.436   6.240   8.867  2.0765 -0.0819 -0.5276
   76CHL1  H27C 8104   2.311   6.128   8.813 -0.8330  3.4988  2.1836
   77CHL1    C3 8105   2.474   3.220   6.959  0.3363  0.1996  0.0062
   77CHL1    H3 8106   2.513   3.116   6.955  0.7455  0.2542  1.6602
   77CHL1    O3 8107   2.436   3.243   6.824 -0.4429  0.4450  0.4467
   77CHL1   H3' 8108   2.466   3.329   6.793  0.8542 -1.1208 -3.2488
   77CHL1    C4 8109   2.347   3.224   7.051 -0.1710  0.3888 -0.1556
   77CHL1   H4A 8110   2.302   3.324   7.066 -1.6028 -0.5501  2.3836
   77CHL1   H4B 8111   2.280   3.158   6.992 -0.0137  2.3981 -2.7592
   77CHL1    C5 8112   2.397   3.169   7.187 -0.0977 -0.1699  0.1032
   77CHL1    C6 8113   2.335   3.059   7.236  0.0747 -0.4628  0.7835
   77CHL1    H6 8114   2.257   3.007   7.179 -0.1551 -0.3680  1.0069
   77CHL1    C7 8115   2.365   3.006   7.377  0.4756  0.9510  0.2688
   77CHL1   H7A 8116   2.276   2.987   7.441  0.0916 -0.2204 -0.5857
   77CHL1   H7B 8117   2.427   2.913   7.377 -0.5311  0.2253  2.4225
   77CHL1    C8 8118   2.460   3.105   7.453  0.4039 -0.6678  0.9567
   77CHL1    H8 8119   2.394   3.185   7.494  0.0566 -1.0706  1.1856
   77CHL1   C14 8120   2.527   3.038   7.573 -0.6528  0.2917 -0.2621
   77CHL1   H14 8121   2.590   2.956   7.533 -1.8281 -0.6755 -0.2022
   77CHL1   C15 8122   2.435   2.948   7.669  0.0445  0.8473  1.1663
   77CHL1  H15A 8123   2.346   3.007   7.699  0.3415  1.1296  1.5049
   77CHL1  H15B 8124   2.402   2.857   7.616 -1.2720  1.8210  0.2471
   77CHL1   C16 8125   2.527   2.921   7.790 -0.0009  0.4777  0.1614
   77CHL1  H16A 8126   2.458   2.932   7.877  2.0206  1.1590  1.7585
   77CHL1  H16B 8127   2.559   2.815   7.797  2.4781  1.0384 -1.6268
   77CHL1   C17 8128   2.647   3.020   7.781  0.4782  0.0359 -0.4173
   77CHL1   H17 8129   2.733   2.965   7.737  1.5904  1.3141  0.0699
   77CHL1   C13 8130   2.612   3.123   7.671  0.6814 -0.4922  0.2129
   77CHL1   C18 8131   2.527   3.245   7.728 -0.6892  0.4468 -0.0673
   77CHL1  H18A 8132   2.599   3.319   7.768 -0.3101  1.3573 -2.3028
   77CHL1  H18B 8133   2.461   3.301   7.658 -0.1143  0.0411 -0.9399
   77CHL1  H18C 8134   2.473   3.210   7.819  1.3678 -1.6999  0.4199
   77CHL1   C12 8135   2.728   3.173   7.583 -0.0231  0.4857  0.2315
   77CHL1  H12A 8136   2.795   3.251   7.625  1.5163  0.5112 -2.0811
   77CHL1  H12B 8137   2.787   3.086   7.544 -3.1575 -1.0461 -1.4798
   77CHL1   C11 8138   2.668   3.252   7.462  0.0908  0.0798 -0.0338
   77CHL1  H11A 8139   2.616   3.343   7.497  0.0068 -1.0510  3.0847
   77CHL1  H11B 8140   2.748   3.297   7.399  0.1725 -0.0391 -0.0153
   77CHL1    C9 8141   2.571   3.168   7.366  0.6331 -0.5707  0.2495
   77CHL1    H9 8142   2.631   3.083   7.330  0.9659  0.3990 -1.5877
   77CHL1   C10 8143   2.514   3.248   7.248 -0.3377  0.6866  0.5068
   77CHL1   C19 8144   2.457   3.386   7.302  0.2856 -0.3730 -0.2246
   77CHL1  H19A 8145   2.413   3.369   7.403 -0.8904 -0.5430 -0.7529
   77CHL1  H19B 8146   2.537   3.461   7.317 -1.5536  1.4133  1.2040
   77CHL1  H19C 8147   2.384   3.427   7.229  0.0726  0.0284  0.2095
   77CHL1    C1 8148   2.629   3.263   7.142 -0.2001 -0.7922 -0.0239
   77CHL1   H1A 8149   2.707   3.334   7.176  0.0728 -0.3385 -1.5248
   77CHL1   H1B 8150   2.675   3.165   7.116  1.0234  0.1069 -1.4043
   77CHL1    C2 8151   2.578   3.318   7.010 -0.7449 -0.5879  0.5825
   77CHL1   H2A 8152   2.669   3.319   6.945 -0.6310 -2.3067  0.6717
   77CHL1   H2B 8153   2.535   3.420   7.021 -2.7499 -1.6287  3.6490
   77CHL1   C20 8154   2.693   3.073   7.918  1.2123  0.0041 -0.1237
   77CHL1   H20 8155   2.607   3.116   7.973  0.0183 -1.9162 -0.3914
   77CHL1   C21 8156   2.815   3.165   7.892  0.6828 -0.1241  0.0775
   77CHL1  H21A 8157   2.883   3.103   7.830 -0.0133 -0.7310 -0.1016
   77CHL1  H21B 8158   2.855   3.202   7.989  0.2632  2.2313 -0.5924
   77CHL1  H21C 8159   2.782   3.258   7.843 -2.1677 -0.9999  0.1180
   77CHL1   C22 8160   2.726   2.953   8.011 -0.0025 -0.5148  0.1779
   77CHL1  H22A 8161   2.653   2.869   8.007 -0.9170  0.3345 -1.4925
   77CHL1  H22B 8162   2.826   2.908   7.990  0.2589 -0.0857  0.4900
   77CHL1   C23 8163   2.738   2.991   8.160 -0.0276  0.2268  0.1600
   77CHL1  H23A 8164   2.748   2.894   8.213 -0.4791 -0.7355 -1.4414
   77CHL1  H23B 8165   2.836   3.042   8.174  0.9020 -1.5869  0.5622
   77CHL1   C24 8166   2.622   3.065   8.219  0.3514  0.5343 -0.0315
   77CHL1  H24A 8167   2.637   3.171   8.189 -0.5556  1.1378  1.5144
   77CHL1  H24B 8168   2.538   3.013   8.169 -0.4614  1.8174 -0.0240
   77CHL1   C25 8169   2.613   3.060   8.372  0.0924 -0.3541  0.0710
   77CHL1   H25 8170   2.602   2.957   8.411 -1.0808 -0.1792  0.2427
   77CHL1   C26 8171   2.735   3.125   8.428  0.0525 -0.6091  0.0931
   77CHL1  H26A 8172   2.724   3.135   8.538  0.2109  0.5137  0.0197
   77CHL1  H26B 8173   2.824   3.060   8.412 -0.0590 -0.7135 -0.1114
   77CHL1  H26C 8174   2.761   3.225   8.387 -2.2901  0.5553  1.2310
   77CHL1   C27 8175   2.480   3.140   8.413 -0.8071 -0.4008 -0.8483
   77CHL1  H27A 8176   2.474   3.132   8.523  0.2652  0.7737 -0.6969
   77CHL1  H27B 8177   2.501   3.247   8.395 -0.5962 -0.1114  0.9833
   77CHL1  H27C 8178   2.389   3.113   8.354 -0.5632 -1.6591 -0.6863
   78CHL1    C3 8179   0.738   4.725   6.861 -0.2995  0.0094  0.2610
   78CHL1    H3 8180   0.696   4.628   6.895 -1.7531 -0.1066 -1.6772
   78CHL1    O3 8181   0.765   4.723   6.724 -0.0459  0.0175  0.9810
   78CHL1   H3' 8182   0.682   4.746   6.682  0.4665  1.1249  0.5426
   78CHL1    C4 8183   0.637   4.836   6.889 -0.2809  0.8373 -0.0215
   78CHL1   H4A 8184   0.663   4.927   6.830  1.7690  0.7451  0.6465
   78CHL1   H4B 8185   0.538   4.804   6.851  0.0284 -2.1168  1.3611
   78CHL1    C5 8186   0.613   4.861   7.035 -0.3727 -0.7209  0.1869
   78CHL1    C6 8187   0.487   4.855   7.089  0.4401 -0.5447  0.2481
   78CHL1    H6 8188   0.397   4.861   7.027  0.1544 -0.4779  0.6677
   78CHL1    C7 8189   0.454   4.876   7.240  0.2217  0.3921  0.3028
   78CHL1   H7A 8190   0.359   4.931   7.258 -2.2513 -2.8125 -1.6668
   78CHL1   H7B 8191   0.428   4.774   7.276  2.5635 -1.5864 -3.0319
   78CHL1    C8 8192   0.570   4.932   7.311 -0.2773  0.2911  0.1416
   78CHL1    H8 8193   0.570   5.039   7.281 -0.6237  0.7450  1.6414
   78CHL1   C14 8194   0.540   4.922   7.457  0.1103  0.1199  0.2475
   78CHL1   H14 8195   0.537   4.813   7.478 -1.8494 -0.4522 -2.5249
   78CHL1   C15 8196   0.414   4.981   7.514 -0.4281 -1.0739 -0.1399
   78CHL1  H15A 8197   0.376   5.069   7.458 -1.3636 -2.8049 -2.3950
   78CHL1  H15B 8198   0.336   4.902   7.510  0.7139 -2.3948  1.8231
   78CHL1   C16 8199   0.444   5.017   7.661 -0.4540 -0.1494  0.1434
   78CHL1  H16A 8200   0.451   5.126   7.679 -0.9443 -0.3182  1.4009
   78CHL1  H16B 8201   0.373   4.968   7.731 -0.4175  0.7837  0.8491
   78CHL1   C17 8202   0.590   4.967   7.686 -0.1318 -0.8616 -0.5104
   78CHL1   H17 8203   0.585   4.859   7.714  0.7528 -0.5406  1.0165
   78CHL1   C13 8204   0.650   4.976   7.547 -0.2323  1.0260 -0.3210
   78CHL1   C18 8205   0.685   5.125   7.503 -0.0302  0.0571 -0.1017
   78CHL1  H18A 8206   0.730   5.121   7.402 -0.1217  0.7221 -0.1715
   78CHL1  H18B 8207   0.594   5.186   7.485  0.2968 -0.1021 -2.5573
   78CHL1  H18C 8208   0.756   5.171   7.574 -0.1035 -0.1767  0.1257
   78CHL1   C12 8209   0.779   4.889   7.524 -0.4809  0.2073 -0.3449
   78CHL1  H12A 8210   0.867   4.929   7.578 -1.3421  0.3452  0.9988
   78CHL1  H12B 8211   0.754   4.788   7.564 -2.5193  0.0926 -1.7280
   78CHL1   C11 8212   0.819   4.889   7.377 -0.5178  0.0608 -0.6392
   78CHL1  H11A 8213   0.881   4.980   7.360 -0.6835 -0.0359 -1.8183
   78CHL1  H11B 8214   0.900   4.814   7.365 -0.3674 -0.0863  1.0444
   78CHL1    C9 8215   0.702   4.855   7.276  0.7425  0.6892  0.0033
   78CHL1    H9 8216   0.683   4.745   7.284  2.6143 -0.1074 -4.0495
   78CHL1   C10 8217   0.738   4.865   7.128  0.8043 -0.8585  0.8428
   78CHL1   C19 8218   0.801   5.008   7.110 -0.2317 -0.3309  0.0557
   78CHL1  H19A 8219   0.810   5.038   7.003 -0.0280 -0.5782  0.0030
   78CHL1  H19B 8220   0.734   5.084   7.156 -0.9876  1.6366 -3.8044
   78CHL1  H19C 8221   0.901   5.003   7.157  0.0677  1.9694 -0.2446
   78CHL1    C1 8222   0.835   4.753   7.086 -0.0126 -0.5870  0.3883
   78CHL1   H1A 8223   0.933   4.770   7.136 -0.9993 -1.5669  2.7965
   78CHL1   H1B 8224   0.789   4.660   7.125 -0.0501 -0.0398  1.7234
   78CHL1    C2 8225   0.867   4.741   6.937  0.6451  0.1540 -0.5225
   78CHL1   H2A 8226   0.928   4.655   6.903  0.1627  0.3122 -1.8498
   78CHL1   H2B 8227   0.922   4.830   6.900  1.3503  0.2098  0.6289
   78CHL1   C20 8228   0.645   5.051   7.811  0.2675 -0.7506  0.1502
   78CHL1   H20 8229   0.641   5.159   7.782  2.5423 -0.6226  0.1970
   78CHL1   C21 8230   0.791   5.007   7.854  0.4013 -0.8437 -0.3072
   78CHL1  H21A 8231   0.842   5.037   7.760 -2.1163  0.5881 -1.3273
   78CHL1  H21B 8232   0.794   4.899   7.879 -1.1063 -1.3288 -2.0004
   78CHL1  H21C 8233   0.843   5.063   7.935 -1.1095  0.2816 -0.0686
   78CHL1   C22 8234   0.556   5.031   7.934 -0.4177 -0.3001 -0.0180
   78CHL1  H22A 8235   0.451   5.059   7.910  0.0212  1.6288  0.1045
   78CHL1  H22B 8236   0.547   4.922   7.953  0.3120 -0.9709 -2.9613
   78CHL1   C23 8237   0.586   5.101   8.070  0.1166 -0.2236 -0.1935
   78CHL1  H23A 8238   0.693   5.077   8.087  0.8827  1.6907 -1.9226
   78CHL1  H23B 8239   0.580   5.212   8.062  1.8561 -0.2452 -3.2458
   78CHL1   C24 8240   0.490   5.066   8.185  0.0861  0.8478 -0.0550
   78CHL1  H24A 8241   0.385   5.091   8.160 -0.5437 -0.0140  1.5548
   78CHL1  H24B 8242   0.511   4.958   8.203 -1.4681  0.3366 -1.1362
   78CHL1   C25 8243   0.519   5.150   8.314 -0.2876 -0.3900  0.8704
   78CHL1   H25 8244   0.519   5.258   8.288  1.1145 -0.5333  0.1941
   78CHL1   C26 8245   0.404   5.142   8.417  1.0960 -0.1052  0.0048
   78CHL1  H26A 8246   0.386   5.039   8.452  1.7177 -0.1826  0.1062
   78CHL1  H26B 8247   0.439   5.201   8.505 -0.7191 -1.7309  1.8979
   78CHL1  H26C 8248   0.306   5.173   8.374  0.5328  2.6226  2.8511
   78CHL1   C27 8249   0.651   5.115   8.374 -0.1766  0.0009 -0.0023
   78CHL1  H27A 8250   0.659   5.173   8.468 -1.0930  0.1592 -0.0174
   78CHL1  H27B 8251   0.647   5.011   8.411  4.5271  0.4141  2.4000
   78CHL1  H27C 8252   0.733   5.116   8.298  0.2200  1.7182  0.3973
   79CHL1    C3 8253   3.177   5.783   7.247  0.2723  0.5043  0.6087
   79CHL1    H3 8254   3.126   5.872   7.288  1.9678  2.6186 -1.5882
   79CHL1    O3 8255   3.194   5.798   7.105 -0.5146 -0.0188  0.0372
   79CHL1   H3' 8256   3.233   5.717   7.073 -1.4227 -0.4900  0.1020
   79CHL1    C4 8257   3.307   5.763   7.322 -0.3629 -0.1635  0.1398
   79CHL1   H4A 8258   3.375   5.690   7.273  0.8260  0.7182  0.4153
   79CHL1   H4B 8259   3.363   5.859   7.318  1.2552 -1.1045 -2.4051
   79CHL1    C5 8260   3.293   5.726   7.465  0.9165 -1.2401  0.5246
   79CHL1    C6 8261   3.347   5.799   7.572 -0.4677 -0.1032 -0.3314
   79CHL1    H6 8262   3.400   5.894   7.557  0.2525 -0.5414 -0.6143
   79CHL1    C7 8263   3.341   5.746   7.710 -0.2205  0.5361  0.0366
   79CHL1   H7A 8264   3.445   5.759   7.748  0.1592 -0.8976 -0.4577
   79CHL1   H7B 8265   3.264   5.805   7.764 -0.6958  0.0361 -0.0880
   79CHL1    C8 8266   3.307   5.592   7.714  0.0395 -0.8724 -0.7298
   79CHL1    H8 8267   3.399   5.538   7.682  0.7980 -0.8265  1.2211
   79CHL1   C14 8268   3.282   5.565   7.865 -1.4869 -0.3430  0.2673
   79CHL1   H14 8269   3.193   5.623   7.895 -1.5496 -0.4632  0.3164
   79CHL1   C15 8270   3.386   5.610   7.968  0.4482 -0.9220  0.5589
   79CHL1  H15A 8271   3.487   5.601   7.921  0.9026 -0.9123  1.5236
   79CHL1  H15B 8272   3.364   5.716   7.995 -1.0611 -0.7441 -1.1828
   79CHL1   C16 8273   3.368   5.513   8.084 -0.1968 -0.1291  0.5243
   79CHL1  H16A 8274   3.461   5.452   8.096 -0.8942 -0.9754  1.8358
   79CHL1  H16B 8275   3.350   5.569   8.178 -0.7074  0.9991 -0.2289
   79CHL1   C17 8276   3.243   5.422   8.045 -0.3346 -0.0596 -0.2960
   79CHL1   H17 8277   3.154   5.481   8.075  1.3669  2.5955 -0.1407
   79CHL1   C13 8278   3.244   5.419   7.896 -1.2021 -0.8614  0.6520
   79CHL1   C18 8279   3.364   5.326   7.860  0.4195 -0.2971  0.9976
   79CHL1  H18A 8280   3.453   5.330   7.927  2.4965 -0.5967 -1.5873
   79CHL1  H18B 8281   3.334   5.219   7.850 -2.2394  0.4141  0.5277
   79CHL1  H18C 8282   3.388   5.352   7.755 -1.8424  0.7161  0.6673
   79CHL1   C12 8283   3.117   5.388   7.815 -0.0524 -0.3804  0.6673
   79CHL1  H12A 8284   3.088   5.283   7.837  0.4948 -0.5037  0.8187
   79CHL1  H12B 8285   3.033   5.454   7.847  0.1057  0.1851 -0.0551
   79CHL1   C11 8286   3.126   5.422   7.664 -0.2318 -0.4523 -0.3289
   79CHL1  H11A 8287   3.188   5.336   7.629 -2.0128 -1.6331 -0.7171
   79CHL1  H11B 8288   3.033   5.398   7.608 -0.4594 -0.4066  0.0272
   79CHL1    C9 8289   3.185   5.567   7.628  0.2545  0.2686  0.7706
   79CHL1    H9 8290   3.108   5.643   7.657  1.3174  0.9376  1.9675
   79CHL1   C10 8291   3.217   5.592   7.488  0.0252 -0.2180  0.1921
   79CHL1   C19 8292   3.287   5.471   7.429 -0.3409 -0.1150  0.8621
   79CHL1  H19A 8293   3.338   5.493   7.333 -0.5274 -1.0108  0.5556
   79CHL1  H19B 8294   3.372   5.442   7.494 -0.4226  1.6288  1.8261
   79CHL1  H19C 8295   3.222   5.381   7.427 -1.6807  0.6677  3.7512
   79CHL1    C1 8296   3.077   5.617   7.414  0.3532  0.0945 -0.9388
   79CHL1   H1A 8297   3.011   5.531   7.435 -2.4325  2.0921 -0.9235
   79CHL1   H1B 8298   3.019   5.701   7.459  0.6642 -0.4226  0.4812
   79CHL1    C2 8299   3.091   5.657   7.269 -0.0268  1.1996  0.5356
   79CHL1   H2A 8300   2.994   5.657   7.215 -0.8617 -1.4384  1.8635
   79CHL1   H2B 8301   3.147   5.576   7.218 -0.2983  2.4936 -1.9522
   79CHL1   C20 8302   3.237   5.290   8.124 -0.1312 -0.1045  0.0325
   79CHL1   H20 8303   3.298   5.209   8.077 -0.7455 -1.7349  1.8767
   79CHL1   C21 8304   3.088   5.239   8.130  0.0399 -0.4656  0.0798
   79CHL1  H21A 8305   3.049   5.217   8.028 -0.2014 -0.2539  0.1228
   79CHL1  H21B 8306   3.024   5.320   8.171  1.1757  0.9042 -0.7664
   79CHL1  H21C 8307   3.079   5.147   8.191 -0.3261 -1.8921 -2.0017
   79CHL1   C22 8308   3.285   5.314   8.271  0.5983 -0.0191  0.2884
   79CHL1  H22A 8309   3.283   5.212   8.316  1.1071 -0.9001 -1.5791
   79CHL1  H22B 8310   3.392   5.343   8.278  0.2684  1.2652  0.1596
   79CHL1   C23 8311   3.199   5.398   8.359  0.2054 -0.0295 -0.3918
   79CHL1  H23A 8312   3.172   5.495   8.311 -0.1154  0.2206  0.2796
   79CHL1  H23B 8313   3.102   5.348   8.376  0.5947 -0.7866 -0.3576
   79CHL1   C24 8314   3.260   5.416   8.504  0.3144 -0.2509  0.6427
   79CHL1  H24A 8315   3.275   5.309   8.529  0.3863 -0.3989 -0.0088
   79CHL1  H24B 8316   3.360   5.458   8.482  0.3516 -1.1096 -0.9987
   79CHL1   C25 8317   3.174   5.507   8.595  0.4660 -0.3504 -0.5841
   79CHL1   H25 8318   3.143   5.604   8.551  0.4160  0.2128  0.6633
   79CHL1   C26 8319   3.035   5.446   8.635 -0.0121 -0.0292 -0.1191
   79CHL1  H26A 8320   3.037   5.345   8.682  0.3388 -0.6957 -1.5122
   79CHL1  H26B 8321   2.977   5.514   8.702 -0.6861 -0.7546  0.0459
   79CHL1  H26C 8322   2.966   5.437   8.548  0.5796  0.5021 -0.6585
   79CHL1   C27 8323   3.252   5.550   8.716  0.7442 -0.3194  0.0110
   79CHL1  H27A 8324   3.259   5.461   8.783 -1.3877  0.3873  1.2830
   79CHL1  H27B 8325   3.353   5.586   8.689 -0.7336  3.4904 -1.1027
   79CHL1  H27C 8326   3.192   5.631   8.762  0.5893 -0.6299  0.3673
   80CHL1    C3 8327   4.090   2.709   6.961 -0.8240  0.2474  0.4303
   80CHL1    H3 8328   4.164   2.767   7.021  2.7398 -2.8423 -0.5483
   80CHL1    O3 8329   4.142   2.704   6.831  0.0030 -0.1157  0.0325
   80CHL1   H3' 8330   4.063   2.686   6.779  0.3770 -0.2638 -0.4901
   80CHL1    C4 8331   4.071   2.567   7.017 -0.3081 -0.1239  0.2493
   80CHL1   H4A 8332   4.012   2.500   6.952  0.3387 -1.2235  0.7502
   80CHL1   H4B 8333   4.169   2.517   6.997 -0.3545  0.7161 -2.4666
   80CHL1    C5 8334   4.028   2.561   7.165 -0.0527 -0.6215  0.8821
   80CHL1    C6 8335   4.102   2.498   7.255 -0.5673  0.9079 -0.8358
   80CHL1    H6 8336   4.197   2.448   7.230 -0.1794  1.4313 -0.4118
   80CHL1    C7 8337   4.064   2.491   7.400 -0.9713  0.3244  0.1903
   80CHL1   H7A 8338   4.083   2.386   7.431 -2.5703 -0.6123 -1.7524
   80CHL1   H7B 8339   4.118   2.572   7.453 -3.2466  1.7532  0.4338
   80CHL1    C8 8340   3.918   2.536   7.424  0.0893  0.5340 -0.4356
   80CHL1    H8 8341   3.860   2.447   7.393  0.8274 -0.4465  0.8635
   80CHL1   C14 8342   3.894   2.543   7.572  0.4382 -0.7646  0.0495
   80CHL1   H14 8343   3.954   2.632   7.603 -0.5207  0.0813 -0.4328
   80CHL1   C15 8344   3.937   2.428   7.665  0.3882 -0.2311  0.0225
   80CHL1  H15A 8345   3.914   2.328   7.623  0.2112 -0.0197 -0.3858
   80CHL1  H15B 8346   4.041   2.438   7.702  0.3416 -3.8152  1.5162
   80CHL1   C16 8347   3.850   2.450   7.790 -0.0637  0.1039 -0.3204
   80CHL1  H16A 8348   3.791   2.358   7.811  2.0795 -1.8359 -2.2214
   80CHL1  H16B 8349   3.909   2.471   7.881  0.6429  1.3238 -1.0330
   80CHL1   C17 8350   3.758   2.576   7.761  0.3971  0.2503 -0.3225
   80CHL1   H17 8351   3.812   2.664   7.801  0.7257 -0.1122  0.0318
   80CHL1   C13 8352   3.744   2.589   7.610  0.1926  0.4251  0.0445
   80CHL1   C18 8353   3.640   2.484   7.558 -0.0679 -0.6274 -0.2391
   80CHL1  H18A 8354   3.664   2.468   7.450 -1.2120 -0.6085 -0.5011
   80CHL1  H18B 8355   3.662   2.391   7.614 -0.1715 -0.7580 -0.4150
   80CHL1  H18C 8356   3.535   2.518   7.567  0.5024  1.5500 -1.0975
   80CHL1   C12 8357   3.727   2.727   7.544  0.3393  0.5116  0.4128
   80CHL1  H12A 8358   3.621   2.753   7.566 -0.4853 -1.3521 -1.0650
   80CHL1  H12B 8359   3.799   2.790   7.600  1.4621 -1.4839  1.3335
   80CHL1   C11 8360   3.755   2.736   7.395  0.7145  0.2586 -0.3934
   80CHL1  H11A 8361   3.663   2.692   7.351 -0.9149  0.1245  2.8109
   80CHL1  H11B 8362   3.751   2.840   7.356  2.7085  0.3660 -0.4261
   80CHL1    C9 8363   3.882   2.661   7.349 -0.1182 -0.0501 -0.8068
   80CHL1    H9 8364   3.970   2.727   7.366 -0.3199  0.0922 -0.2982
   80CHL1   C10 8365   3.896   2.641   7.194  0.0333 -0.4993  0.0146
   80CHL1   C19 8366   3.790   2.552   7.139  0.3493  0.2441  0.5561
   80CHL1  H19A 8367   3.794   2.450   7.182  0.0106 -0.2218 -0.4793
   80CHL1  H19B 8368   3.688   2.591   7.163 -0.1052  0.7977 -1.9934
   80CHL1  H19C 8369   3.789   2.541   7.029 -0.3646  0.4386  0.5366
   80CHL1    C1 8370   3.897   2.775   7.115  0.0579  0.5129 -0.3412
   80CHL1   H1A 8371   3.795   2.819   7.113  0.0030  0.4075  0.0538
   80CHL1   H1B 8372   3.959   2.850   7.168  0.3157 -0.4419  0.7574
   80CHL1    C2 8373   3.955   2.772   6.967  0.4509 -0.3585 -0.0130
   80CHL1   H2A 8374   3.969   2.867   6.913  1.2331 -0.1550  0.5364
   80CHL1   H2B 8375   3.883   2.714   6.906  1.1446 -0.3530 -0.8529
   80CHL1   C20 8376   3.628   2.575   7.841 -0.4155 -0.0779 -0.0127
   80CHL1   H20 8377   3.546   2.516   7.795 -0.3883  0.6636 -1.0573
   80CHL1   C21 8378   3.575   2.717   7.859  0.0052 -0.2221 -0.6712
   80CHL1  H21A 8379   3.622   2.769   7.946 -0.5033  0.7076 -0.9335
   80CHL1  H21B 8380   3.467   2.717   7.886  0.3254  0.2033  0.6974
   80CHL1  H21C 8381   3.590   2.783   7.771  0.3297  1.2850  0.4515
   80CHL1   C22 8382   3.633   2.520   7.985 -1.1155 -0.4928  0.2364
   80CHL1  H22A 8383   3.688   2.425   7.999  0.7312  0.7138  1.8428
   80CHL1  H22B 8384   3.686   2.593   8.050 -0.4772  1.0777 -1.9136
   80CHL1   C23 8385   3.494   2.495   8.040  0.5469  0.4606 -0.5321
   80CHL1  H23A 8386   3.425   2.581   8.036  1.2078  0.9453 -1.8749
   80CHL1  H23B 8387   3.446   2.404   7.997 -0.0001  0.7021 -0.4374
   80CHL1   C24 8388   3.489   2.465   8.190 -0.3525 -0.5735  0.1055
   80CHL1  H24A 8389   3.536   2.549   8.246  0.0689 -0.5623 -0.2529
   80CHL1  H24B 8390   3.381   2.471   8.214 -0.2278 -0.7325  0.7255
   80CHL1   C25 8391   3.541   2.330   8.242 -0.1579 -0.1597  0.6164
   80CHL1   H25 8392   3.652   2.323   8.240 -0.2207 -1.2229 -1.1712
   80CHL1   C26 8393   3.506   2.309   8.392  0.2133 -0.1890  0.0483
   80CHL1  H26A 8394   3.528   2.204   8.423 -1.0701 -0.9410 -1.4295
   80CHL1  H26B 8395   3.579   2.370   8.450 -0.2313  1.5819 -1.1687
   80CHL1  H26C 8396   3.403   2.334   8.425  0.0694  1.4612 -1.4732
   80CHL1   C27 8397   3.485   2.214   8.161  0.1696 -0.1569  0.0056
   80CHL1  H27A 8398   3.375   2.223   8.148  0.0407  0.8888  1.5629
   80CHL1  H27B 8399   3.524   2.210   8.057 -0.0193  0.0021 -0.0719
   80CHL1  H27C 8400   3.518   2.118   8.207 -0.9715 -0.5360  0.0741
   81CHL1    C3 8401   5.098   2.471   6.525  0.3195  0.2184  0.0027
   81CHL1    H3 8402   5.010   2.408   6.548  0.0988  0.1669 -0.9757
   81CHL1    O3 8403   5.084   2.466   6.382 -0.0329  0.6146  0.1646
   81CHL1   H3' 8404   5.138   2.536   6.344 -0.2436 -1.3597 -4.2845
   81CHL1    C4 8405   5.078   2.607   6.586 -0.0177  0.0214  0.1859
   81CHL1   H4A 8406   5.158   2.679   6.559 -0.1651 -0.5468 -1.9826
   81CHL1   H4B 8407   4.981   2.654   6.561 -0.5465 -0.5427  1.1010
   81CHL1    C5 8408   5.081   2.592   6.744 -0.5480 -0.1186  0.2355
   81CHL1    C6 8409   4.974   2.628   6.819  0.4554  0.1991  0.1618
   81CHL1    H6 8410   4.883   2.675   6.780 -1.3532 -1.9459  1.5586
   81CHL1    C7 8411   4.968   2.628   6.970 -0.0075  0.4132  0.4043
   81CHL1   H7A 8412   4.924   2.723   7.008 -1.2912 -0.7651  2.0588
   81CHL1   H7B 8413   4.898   2.557   7.020  0.0502  0.1482  0.1151
   81CHL1    C8 8414   5.109   2.605   7.025 -0.3262  0.2684 -0.0316
   81CHL1    H8 8415   5.170   2.697   7.015 -1.1551  0.8950  0.6110
   81CHL1   C14 8416   5.104   2.575   7.176 -0.0914  0.1185 -0.2118
   81CHL1   H14 8417   5.046   2.480   7.183  1.2535 -0.6535  1.3596
   81CHL1   C15 8418   5.033   2.674   7.265  0.0007 -0.7584  0.2100
   81CHL1  H15A 8419   5.073   2.777   7.249 -0.4261 -0.5385  0.5168
   81CHL1  H15B 8420   4.922   2.673   7.254  0.0386  0.6604 -0.5758
   81CHL1   C16 8421   5.071   2.635   7.412  0.4440 -0.0942 -0.1091
   81CHL1  H16A 8422   5.108   2.721   7.472  1.8250 -1.6053  1.3252
   81CHL1  H16B 8423   4.981   2.585   7.455  0.6652  0.3080  0.8589
   81CHL1   C17 8424   5.195   2.535   7.393 -0.4067  0.0639 -0.0914
   81CHL1   H17 8425   5.162   2.430   7.411  1.7345 -0.3927  1.6130
   81CHL1   C13 8426   5.235   2.540   7.240 -0.7533 -0.4493 -0.6064
   81CHL1   C18 8427   5.333   2.658   7.227  0.1301 -0.6499  0.4515
   81CHL1  H18A 8428   5.341   2.692   7.121 -3.4621 -2.2111 -0.5025
   81CHL1  H18B 8429   5.302   2.744   7.289  1.0651  0.7943 -1.0062
   81CHL1  H18C 8430   5.436   2.633   7.261 -0.0819 -0.8179  0.9777
   81CHL1   C12 8431   5.287   2.409   7.180  0.4325 -0.0625  0.0434
   81CHL1  H12A 8432   5.388   2.373   7.212  1.8555  1.4871 -2.3815
   81CHL1  H12B 8433   5.211   2.333   7.206  0.4457 -0.4542 -1.0059
   81CHL1   C11 8434   5.308   2.426   7.030  1.0715  0.5004  0.0769
   81CHL1  H11A 8435   5.398   2.491   7.022  1.1649  0.1778 -1.8656
   81CHL1  H11B 8436   5.315   2.324   6.987  1.0007  0.1966  0.7714
   81CHL1    C9 8437   5.182   2.488   6.956 -0.1574  0.2701  0.5022
   81CHL1    H9 8438   5.103   2.411   6.957  1.0919 -1.0725 -0.2321
   81CHL1   C10 8439   5.211   2.521   6.808 -0.0370  0.4944  0.5219
   81CHL1   C19 8440   5.330   2.621   6.798 -0.3636  0.0195  0.4773
   81CHL1  H19A 8441   5.314   2.708   6.865  3.2238  0.0456  1.4801
   81CHL1  H19B 8442   5.420   2.569   6.836  0.6162  0.1110 -1.6009
   81CHL1  H19C 8443   5.364   2.655   6.698  0.9788 -0.0199  0.9039
   81CHL1    C1 8444   5.234   2.393   6.727 -0.2313 -0.8609 -0.0946
   81CHL1   H1A 8445   5.328   2.343   6.757  0.2527  1.0631  1.8673
   81CHL1   H1B 8446   5.147   2.325   6.740 -0.8123  0.1905  1.9952
   81CHL1    C2 8447   5.231   2.413   6.568  0.1937 -0.0177  0.0585
   81CHL1   H2A 8448   5.234   2.313   6.519  0.9319  0.9096 -1.8680
   81CHL1   H2B 8449   5.323   2.464   6.533 -0.6428  1.2940 -0.2733
   81CHL1   C20 8450   5.305   2.564   7.501  0.3978 -0.3070 -0.2033
   81CHL1   H20 8451   5.358   2.661   7.496  3.3750 -1.8218 -0.8043
   81CHL1   C21 8452   5.414   2.455   7.476 -0.2575  0.1037 -0.4396
   81CHL1  H21A 8453   5.491   2.474   7.555 -1.4040  1.4405  0.4106
   81CHL1  H21B 8454   5.471   2.469   7.381 -0.1415  0.7455 -0.2804
   81CHL1  H21C 8455   5.382   2.349   7.478 -0.3975  0.1521  0.1844
   81CHL1   C22 8456   5.252   2.543   7.648 -0.0689  0.5743 -0.6990
   81CHL1  H22A 8457   5.182   2.629   7.654  1.2118  1.6418 -0.6055
   81CHL1  H22B 8458   5.193   2.450   7.661 -2.5891  2.2734  1.1499
   81CHL1   C23 8459   5.360   2.563   7.759 -0.4776 -0.7064 -0.1271
   81CHL1  H23A 8460   5.417   2.467   7.756 -1.1994 -1.2275  1.7062
   81CHL1  H23B 8461   5.418   2.651   7.722  0.3622 -0.9059  0.6700
   81CHL1   C24 8462   5.309   2.590   7.902 -0.5228  0.6544  0.2162
   81CHL1  H24A 8463   5.233   2.670   7.910  0.2889  1.5109 -0.3502
   81CHL1  H24B 8464   5.255   2.497   7.930  1.7702 -1.3198 -1.4843
   81CHL1   C25 8465   5.424   2.615   7.997  0.3152 -0.5679 -0.4820
   81CHL1   H25 8466   5.503   2.541   7.973  0.0572 -0.8210 -0.5623
   81CHL1   C26 8467   5.486   2.754   7.965  0.2202 -0.0438  0.1998
   81CHL1  H26A 8468   5.530   2.763   7.863  1.9695 -0.3536  0.8892
   81CHL1  H26B 8469   5.400   2.823   7.983  1.2154  1.7549 -1.5182
   81CHL1  H26C 8470   5.568   2.775   8.037  1.1132  2.1178 -1.3282
   81CHL1   C27 8471   5.381   2.599   8.146 -0.3786  0.3269 -0.6373
   81CHL1  H27A 8472   5.294   2.667   8.158 -0.4666  0.3446 -1.3574
   81CHL1  H27B 8473   5.350   2.495   8.167 -2.9542  1.2056  0.3313
   81CHL1  H27C 8474   5.468   2.611   8.215 -1.2286 -0.8042  0.6775
   82CHL1    C3 8475   6.746   2.187   6.884 -0.4300  0.1848  0.2383
   82CHL1    H3 8476   6.639   2.215   6.896 -0.5963 -0.9555  1.7559
   82CHL1    O3 8477   6.780   2.131   6.756 -0.1652 -0.0995 -0.0632
   82CHL1   H3' 8478   6.857   2.078   6.779 -0.6911  0.3343  3.1483
   82CHL1    C4 8479   6.836   2.316   6.914 -0.0458 -0.3141  0.1250
   82CHL1   H4A 8480   6.940   2.283   6.893 -0.6461 -2.9377  0.9539
   82CHL1   H4B 8481   6.816   2.391   6.834  0.5533 -1.7997 -1.4840
   82CHL1    C5 8482   6.818   2.374   7.055  0.3313 -0.1078 -0.2165
   82CHL1    C6 8483   6.771   2.496   7.084 -0.4858  0.4025 -0.1091
   82CHL1    H6 8484   6.752   2.559   6.996 -2.1069 -1.4277 -1.1547
   82CHL1    C7 8485   6.769   2.554   7.220  0.1281 -0.5511 -0.4760
   82CHL1   H7A 8486   6.803   2.660   7.211 -0.8192  0.0021  1.6745
   82CHL1   H7B 8487   6.664   2.546   7.256 -0.0308 -0.2651 -0.8657
   82CHL1    C8 8488   6.858   2.473   7.314 -0.2293 -0.1991  0.7130
   82CHL1    H8 8489   6.963   2.485   7.280 -0.8179 -0.1674 -1.2640
   82CHL1   C14 8490   6.834   2.535   7.447 -0.2949  1.1021 -0.1946
   82CHL1   H14 8491   6.724   2.525   7.460 -0.2538 -0.3281 -0.6555
   82CHL1   C15 8492   6.852   2.686   7.466 -0.5240 -0.7580  0.1978
   82CHL1  H15A 8493   6.948   2.717   7.420 -0.2950  1.2567  1.8321
   82CHL1  H15B 8494   6.770   2.755   7.436  0.7970  0.3609 -0.9866
   82CHL1   C16 8495   6.872   2.692   7.620  0.7592  1.1053  0.1758
   82CHL1  H16A 8496   6.964   2.748   7.645  0.7646  2.2800 -2.1883
   82CHL1  H16B 8497   6.796   2.761   7.665  2.2650  0.9360  3.2240
   82CHL1   C17 8498   6.866   2.553   7.680  0.2617 -0.2295 -0.5988
   82CHL1   H17 8499   6.758   2.532   7.694  0.2457  0.0957 -0.2228
   82CHL1   C13 8500   6.913   2.463   7.561 -0.1856 -0.2653 -0.5211
   82CHL1   C18 8501   7.064   2.484   7.542 -0.1932 -0.0156  0.2341
   82CHL1  H18A 8502   7.093   2.591   7.551  3.0210 -0.8754  1.6592
   82CHL1  H18B 8503   7.124   2.436   7.623  0.6122  0.7718  0.1251
   82CHL1  H18C 8504   7.094   2.447   7.442 -0.6341 -1.2275  0.5299
   82CHL1   C12 8505   6.879   2.314   7.557  0.1949  0.7708 -0.1575
   82CHL1  H12A 8506   6.935   2.256   7.634  1.2562  1.1538 -0.6288
   82CHL1  H12B 8507   6.773   2.299   7.586 -0.0116  0.1593 -1.1924
   82CHL1   C11 8508   6.901   2.246   7.420 -0.1436 -0.4232 -0.5265
   82CHL1  H11A 8509   7.009   2.258   7.400 -0.1549 -0.5128 -0.6466
   82CHL1  H11B 8510   6.884   2.136   7.414  1.8948 -0.7122 -1.6845
   82CHL1    C9 8511   6.827   2.318   7.305 -0.0084 -0.0241  0.3652
   82CHL1    H9 8512   6.719   2.299   7.325 -0.0661 -0.0919 -0.0067
   82CHL1   C10 8513   6.852   2.265   7.160  0.4601 -0.1130  0.4860
   82CHL1   C19 8514   7.002   2.231   7.141  0.6134  0.3069 -0.6201
   82CHL1  H19A 8515   7.027   2.205   7.036 -2.8723  1.0329 -1.7630
   82CHL1  H19B 8516   7.065   2.319   7.164 -0.3164  1.3935 -2.0707
   82CHL1  H19C 8517   7.029   2.152   7.215 -0.6480  2.2312  2.0615
   82CHL1    C1 8518   6.767   2.134   7.138  0.8379  0.0545  0.3769
   82CHL1   H1A 8519   6.801   2.059   7.212 -0.0074 -0.9702 -0.2515
   82CHL1   H1B 8520   6.662   2.155   7.165  0.7748 -0.6850  0.7347
   82CHL1    C2 8521   6.773   2.074   6.989 -0.6862 -0.1306  0.3000
   82CHL1   H2A 8522   6.709   1.985   6.973 -1.4612  0.6073 -0.8894
   82CHL1   H2B 8523   6.878   2.042   6.973 -0.8272 -1.2180  1.4391
   82CHL1   C20 8524   6.934   2.524   7.819  0.2644 -0.1738  0.6494
   82CHL1   H20 8525   6.967   2.419   7.831  1.3300  0.3712  2.8105
   82CHL1   C21 8526   6.820   2.554   7.919  0.4630 -0.3764 -0.5851
   82CHL1  H21A 8527   6.733   2.487   7.902 -0.9642  0.4337  2.6934
   82CHL1  H21B 8528   6.786   2.659   7.906 -1.1454 -1.0553 -2.1671
   82CHL1  H21C 8529   6.846   2.521   8.022 -1.9417 -0.4883  0.0334
   82CHL1   C22 8530   7.056   2.618   7.850 -0.1845  0.1946  0.3943
   82CHL1  H22A 8531   7.126   2.629   7.764  0.4312  0.1808  0.8900
   82CHL1  H22B 8532   7.011   2.718   7.867 -1.2257 -0.8223  5.0516
   82CHL1   C23 8533   7.138   2.578   7.975 -0.2713  1.0682  0.5374
   82CHL1  H23A 8534   7.153   2.671   8.034 -0.0950  0.7706  0.9637
   82CHL1  H23B 8535   7.090   2.490   8.022  0.1470 -0.6187 -1.9890
   82CHL1   C24 8536   7.283   2.528   7.940  0.7967 -0.9598  0.6305
   82CHL1  H24A 8537   7.274   2.436   7.878  3.1431  0.6994 -2.4511
   82CHL1  H24B 8538   7.329   2.613   7.885 -0.2696  0.6182  2.0508
   82CHL1   C25 8539   7.350   2.499   8.068 -0.6524 -0.4108 -1.0505
   82CHL1   H25 8540   7.384   2.593   8.117 -1.9209  0.3098 -1.5157
   82CHL1   C26 8541   7.278   2.413   8.171  0.2952  0.4055  0.5663
   82CHL1  H26A 8542   7.205   2.475   8.228 -1.5451 -1.0840 -0.0369
   82CHL1  H26B 8543   7.223   2.333   8.117 -1.2215  1.0746  1.0426
   82CHL1  H26C 8544   7.339   2.367   8.251 -1.6067  0.0209  1.8834
   82CHL1   C27 8545   7.480   2.426   8.028  0.2391 -0.2827  0.5543
   82CHL1  H27A 8546   7.523   2.470   7.935 -0.5002 -1.9663 -0.6190
   82CHL1  H27B 8547   7.555   2.420   8.110  0.5609 -2.2535  0.1691
   82CHL1  H27C 8548   7.451   2.327   7.987 -2.8584  0.5228  0.5612
   83CHL1    C3 8549   1.427   4.448   6.698  1.1539 -0.3010  0.1520
   83CHL1    H3 8550   1.478   4.546   6.710 -2.7744  1.9801 -0.3056
   83CHL1    O3 8551   1.379   4.446   6.568 -0.5245 -0.7076 -0.9186
   83CHL1   H3' 8552   1.335   4.361   6.578 -0.1753 -0.6937  1.1442
   83CHL1    C4 8553   1.522   4.336   6.734 -0.1810  0.4031 -0.2036
   83CHL1   H4A 8554   1.478   4.235   6.721  1.0165 -0.3772  1.4335
   83CHL1   H4B 8555   1.601   4.343   6.656 -1.5300 -1.7338 -1.8859
   83CHL1    C5 8556   1.580   4.359   6.874 -0.1292 -0.1112  0.2865
   83CHL1    C6 8557   1.709   4.366   6.903 -1.0128 -0.1823 -0.5718
   83CHL1    H6 8558   1.775   4.343   6.819 -0.5933 -1.3748  0.0568
   83CHL1    C7 8559   1.774   4.397   7.036  0.4590  0.6162 -0.5206
   83CHL1   H7A 8560   1.865   4.336   7.053 -1.4595 -2.2374  0.3085
   83CHL1   H7B 8561   1.808   4.503   7.037 -1.4128  1.2705  1.4554
   83CHL1    C8 8562   1.669   4.375   7.149 -0.4340 -0.7940 -0.1801
   83CHL1    H8 8563   1.648   4.267   7.165 -0.1485 -0.7974  0.1978
   83CHL1   C14 8564   1.720   4.431   7.275 -1.0265  0.8790  0.2543
   83CHL1   H14 8565   1.726   4.541   7.264 -1.4219  0.7859 -1.0995
   83CHL1   C15 8566   1.859   4.381   7.321  0.3595 -0.6297  0.4065
   83CHL1  H15A 8567   1.865   4.272   7.304  0.8879 -0.1800 -3.2141
   83CHL1  H15B 8568   1.933   4.433   7.256 -0.1286  0.2433  0.5318
   83CHL1   C16 8569   1.868   4.425   7.466  0.9577  0.4515 -0.0855
   83CHL1  H16A 8570   1.902   4.336   7.523 -1.7519 -0.0479  0.9242
   83CHL1  H16B 8571   1.934   4.512   7.486  2.2806 -0.4125 -0.6382
   83CHL1   C17 8572   1.719   4.466   7.509  0.3880 -0.4603  1.2016
   83CHL1   H17 8573   1.717   4.576   7.499 -1.6191 -0.4224  1.5536
   83CHL1   C13 8574   1.623   4.408   7.399 -0.0635 -0.3632 -0.3420
   83CHL1   C18 8575   1.601   4.257   7.433 -0.0669 -0.3252  0.7976
   83CHL1  H18A 8576   1.532   4.250   7.520 -0.0560 -0.0879  0.8257
   83CHL1  H18B 8577   1.555   4.205   7.346  0.9360 -0.1489  0.1426
   83CHL1  H18C 8578   1.697   4.207   7.460 -0.2069 -0.9385  0.1979
   83CHL1   C12 8579   1.491   4.482   7.373 -0.0868 -0.0250  0.5211
   83CHL1  H12A 8580   1.422   4.463   7.458 -0.1996  3.8058  1.4825
   83CHL1  H12B 8581   1.515   4.590   7.364  1.5223 -0.2576  1.5739
   83CHL1   C11 8582   1.442   4.420   7.239  0.3498 -0.3256  0.4266
   83CHL1  H11A 8583   1.402   4.317   7.253 -1.1711 -0.1389 -1.9295
   83CHL1  H11B 8584   1.346   4.473   7.221 -0.4742 -0.7225  3.2481
   83CHL1    C9 8585   1.536   4.436   7.119  0.1557 -0.1451  0.0665
   83CHL1    H9 8586   1.553   4.545   7.101  2.0042  0.0392  2.3813
   83CHL1   C10 8587   1.475   4.387   6.978 -0.1558  0.9342 -0.0543
   83CHL1   C19 8588   1.399   4.252   6.991  0.2834  0.1217  0.3095
   83CHL1  H19A 8589   1.351   4.203   6.903 -0.5532 -2.0360  1.8706
   83CHL1  H19B 8590   1.464   4.170   7.028 -1.4343 -0.1669  3.0110
   83CHL1  H19C 8591   1.315   4.266   7.063 -0.2467 -1.8081  0.1182
   83CHL1    C1 8592   1.367   4.486   6.932  0.2873 -0.7250  0.3949
   83CHL1   H1A 8593   1.282   4.517   6.997  1.0753  3.6315 -0.3418
   83CHL1   H1B 8594   1.433   4.575   6.927 -0.8374  0.2244  1.7717
   83CHL1    C2 8595   1.309   4.456   6.788  0.2122 -0.5434 -0.3497
   83CHL1   H2A 8596   1.237   4.536   6.759  0.4184  0.2229  1.1700
   83CHL1   H2B 8597   1.243   4.367   6.791 -1.8358  0.8846 -0.5931
   83CHL1   C20 8598   1.681   4.446   7.656 -0.7554 -0.3907 -0.6354
   83CHL1   H20 8599   1.670   4.339   7.686 -0.6926  0.0281  1.0178
   83CHL1   C21 8600   1.554   4.520   7.699  0.4443  0.3967 -0.0468
   83CHL1  H21A 8601   1.543   4.525   7.810 -0.3154  1.0866 -0.1429
   83CHL1  H21B 8602   1.462   4.463   7.672  1.3894 -0.2520 -2.0594
   83CHL1  H21C 8603   1.544   4.626   7.667 -0.9347  0.1300 -0.5762
   83CHL1   C22 8604   1.800   4.495   7.749 -0.1779 -0.7634 -0.2136
   83CHL1  H22A 8605   1.774   4.476   7.855  0.4874  0.0767  0.1102
   83CHL1  H22B 8606   1.881   4.424   7.722 -0.3686 -1.5463  1.1930
   83CHL1   C23 8607   1.825   4.642   7.733  0.6713 -0.4445 -0.2023
   83CHL1  H23A 8608   1.870   4.659   7.633  2.1674 -2.4580  0.0626
   83CHL1  H23B 8609   1.735   4.704   7.753  1.4831  1.0510 -1.0337
   83CHL1   C24 8610   1.939   4.695   7.820  0.3012 -0.4390 -0.9872
   83CHL1  H24A 8611   2.023   4.624   7.810  1.6693  1.3833 -3.4552
   83CHL1  H24B 8612   1.970   4.790   7.771  0.6025 -0.2065 -0.3535
   83CHL1   C25 8613   1.895   4.736   7.965 -0.6131 -0.2239  0.0878
   83CHL1   H25 8614   1.838   4.648   8.003 -0.2146 -0.5169  0.0137
   83CHL1   C26 8615   2.026   4.751   8.055 -0.7076  0.5318  0.0560
   83CHL1  H26A 8616   2.006   4.775   8.161  0.5116 -0.7399  0.6028
   83CHL1  H26B 8617   2.074   4.651   8.050 -0.3814  0.7100 -0.5073
   83CHL1  H26C 8618   2.095   4.827   8.013 -0.6107  1.9216  2.5764
   83CHL1   C27 8619   1.804   4.858   7.965  0.0588 -0.5293  0.4475
   83CHL1  H27A 8620   1.852   4.948   7.921 -0.0331 -2.0878 -3.1431
   83CHL1  H27B 8621   1.715   4.857   7.898  1.0192  0.3353 -0.8919
   83CHL1  H27C 8622   1.778   4.882   8.071  2.5292  1.8271  0.6358
   84CHL1    C3 8623   5.104   0.368   6.801  0.0047 -0.7657  0.3617
   84CHL1    H3 8624   5.182   0.443   6.778 -0.8356  0.1819  0.5595
   84CHL1    O3 8625   5.006   0.361   6.698  0.3927 -0.0419 -0.1282
   84CHL1   H3' 8626   4.965   0.448   6.699 -0.5654 -0.4405 -1.3986
   84CHL1    C4 8627   5.173   0.235   6.804 -0.0084  0.0368  0.0490
   84CHL1   H4A 8628   5.099   0.154   6.820  0.0517  0.0261  0.2802
   84CHL1   H4B 8629   5.235   0.222   6.713 -1.3051  0.8772 -0.9682
   84CHL1    C5 8630   5.265   0.225   6.929  0.3958  0.4334  0.2215
   84CHL1    C6 8631   5.397   0.204   6.919  0.0782  1.5165 -0.2938
   84CHL1    H6 8632   5.436   0.193   6.817  2.6427  0.3809  0.7261
   84CHL1    C7 8633   5.488   0.189   7.031  0.2225  0.4594  0.6179
   84CHL1   H7A 8634   5.563   0.110   7.010  1.6345  2.1716 -1.1492
   84CHL1   H7B 8635   5.552   0.279   7.037 -0.1421  0.8144 -0.5569
   84CHL1    C8 8636   5.415   0.170   7.164 -0.7159 -0.1795  0.3976
   84CHL1    H8 8637   5.370   0.069   7.166  0.5603 -0.7849 -0.1244
   84CHL1   C14 8638   5.519   0.198   7.276  0.6439  0.2176  0.3781
   84CHL1   H14 8639   5.553   0.303   7.259  2.1564 -0.3931 -0.5986
   84CHL1   C15 8640   5.639   0.109   7.280  0.2512  0.0344 -0.3175
   84CHL1  H15A 8641   5.611   0.002   7.291  1.6224 -0.2267  0.9864
   84CHL1  H15B 8642   5.698   0.123   7.187  0.2652  0.2838 -0.2706
   84CHL1   C16 8643   5.709   0.146   7.416  0.3266 -0.4610 -0.4976
   84CHL1  H16A 8644   5.741   0.061   7.480 -0.4570 -2.4016 -2.5618
   84CHL1  H16B 8645   5.789   0.221   7.401  0.2795 -0.2377  0.3181
   84CHL1   C17 8646   5.600   0.224   7.491 -0.2645 -0.0158 -0.4088
   84CHL1   H17 8647   5.617   0.329   7.461  0.7207  0.3498  1.3197
   84CHL1   C13 8648   5.467   0.201   7.419 -0.0742 -0.5444 -0.1564
   84CHL1   C18 8649   5.415   0.062   7.464  0.4336  0.7752 -0.6459
   84CHL1  H18A 8650   5.498  -0.011   7.464 -0.1279  0.1319 -0.3262
   84CHL1  H18B 8651   5.370   0.053   7.565  1.9734 -0.0746 -0.0052
   84CHL1  H18C 8652   5.333   0.026   7.397 -1.0473 -1.3749  2.1269
   84CHL1   C12 8653   5.352   0.307   7.430  0.1651 -0.3999  0.2427
   84CHL1  H12A 8654   5.313   0.314   7.534  0.8429  2.7755  0.3990
   84CHL1  H12B 8655   5.404   0.405   7.421  0.1653 -0.0952  2.7149
   84CHL1   C11 8656   5.244   0.289   7.322 -0.3071  0.0466 -0.1791
   84CHL1  H11A 8657   5.183   0.200   7.348 -1.8847  1.0545 -0.2770
   84CHL1  H11B 8658   5.180   0.379   7.335  0.5922  0.8367 -0.9958
   84CHL1    C9 8659   5.302   0.273   7.175  0.4899 -0.6431 -0.0709
   84CHL1    H9 8660   5.342   0.373   7.148 -1.4808 -0.2491 -1.8045
   84CHL1   C10 8661   5.195   0.245   7.064 -0.4545  0.2258 -0.2460
   84CHL1   C19 8662   5.111   0.130   7.101  0.4298 -0.2161  0.0698
   84CHL1  H19A 8663   5.050   0.142   7.193 -0.0120  0.8779 -0.3494
   84CHL1  H19B 8664   5.030   0.119   7.025 -0.0912  1.2678  0.3845
   84CHL1  H19C 8665   5.167   0.036   7.121  1.3211 -0.2391 -2.1604
   84CHL1    C1 8666   5.113   0.380   7.053 -0.7401  0.2118  0.4749
   84CHL1   H1A 8667   5.058   0.401   7.147  0.1110 -0.5294  1.1514
   84CHL1   H1B 8668   5.181   0.466   7.037 -1.0812  0.1149 -1.9116
   84CHL1    C2 8669   5.017   0.392   6.932  0.0395 -0.8182  0.6541
   84CHL1   H2A 8670   4.958   0.485   6.921  0.4242 -0.7929 -1.7655
   84CHL1   H2B 8671   4.938   0.315   6.946 -0.8459 -0.6574 -2.7537
   84CHL1   C20 8672   5.602   0.220   7.644  0.2662 -0.0209 -0.5566
   84CHL1   H20 8673   5.503   0.251   7.682 -0.1178  0.3346 -1.7787
   84CHL1   C21 8674   5.708   0.322   7.699  0.3417 -0.2236 -0.1530
   84CHL1  H21A 8675   5.668   0.421   7.671  0.9075 -0.2373 -1.0307
   84CHL1  H21B 8676   5.813   0.309   7.667  0.6681 -1.3789  1.2566
   84CHL1  H21C 8677   5.716   0.317   7.810  0.7832  0.7746 -0.1330
   84CHL1   C22 8678   5.637   0.084   7.709  0.2136  0.1073 -0.2513
   84CHL1  H22A 8679   5.590   0.001   7.651  0.7095  1.2667 -2.3741
   84CHL1  H22B 8680   5.746   0.062   7.712 -0.3296 -3.2589 -0.4543
   84CHL1   C23 8681   5.585   0.072   7.852 -0.0460  1.1603 -0.6804
   84CHL1  H23A 8682   5.614   0.155   7.920 -0.3657  1.3600 -0.7885
   84CHL1  H23B 8683   5.475   0.078   7.847 -0.1343 -0.5904 -1.2533
   84CHL1   C24 8684   5.612  -0.056   7.930 -0.3906  0.0233 -0.1373
   84CHL1  H24A 8685   5.597  -0.147   7.869 -0.6284  0.2873 -0.4714
   84CHL1  H24B 8686   5.718  -0.055   7.965 -1.6058 -0.5842  4.1142
   84CHL1   C25 8687   5.539  -0.082   8.068  0.2932  0.2912  0.2246
   84CHL1   H25 8688   5.430  -0.096   8.048 -0.1116  1.6930  1.2874
   84CHL1   C26 8689   5.594  -0.214   8.138 -0.2134  0.7295 -0.3327
   84CHL1  H26A 8690   5.614  -0.295   8.066  1.3651  1.2920 -0.5668
   84CHL1  H26B 8691   5.689  -0.183   8.187  0.3255 -0.5493 -0.5172
   84CHL1  H26C 8692   5.527  -0.247   8.220 -0.5028  0.6474 -0.6011
   84CHL1   C27 8693   5.536   0.031   8.176 -0.3659  0.5353  0.6836
   84CHL1  H27A 8694   5.635   0.055   8.221 -1.1101  1.6237  1.8049
   84CHL1  H27B 8695   5.496   0.126   8.135 -0.3806  0.3132  0.1784
   84CHL1  H27C 8696   5.462   0.004   8.255 -2.0526  0.5505 -0.8325
   85CHL1    C3 8697   5.405   6.666   6.844  0.4611  0.1418  0.5616
   85CHL1    H3 8698   5.395   6.762   6.900 -2.3861 -0.4285  1.1579
   85CHL1    O3 8699   5.364   6.681   6.716 -0.1243 -0.6648 -0.0926
   85CHL1   H3' 8700   5.363   6.592   6.679 -2.4276 -1.0405  0.7082
   85CHL1    C4 8701   5.555   6.626   6.838  0.3657  1.0080 -0.3369
   85CHL1   H4A 8702   5.556   6.531   6.780 -0.5450  0.9207 -0.2182
   85CHL1   H4B 8703   5.603   6.709   6.783 -0.6269  0.3398 -2.2979
   85CHL1    C5 8704   5.613   6.591   6.974  0.4377  0.0703 -0.2338
   85CHL1    C6 8705   5.734   6.642   7.018  0.5019  0.3362 -0.2002
   85CHL1    H6 8706   5.799   6.696   6.948  2.9404 -0.9017  0.9892
   85CHL1    C7 8707   5.800   6.618   7.152 -0.1752 -0.1036 -0.2749
   85CHL1   H7A 8708   5.896   6.575   7.119  0.1243  0.3727 -0.0273
   85CHL1   H7B 8709   5.822   6.717   7.198  1.0120 -0.3960 -0.1940
   85CHL1    C8 8710   5.720   6.519   7.234  0.7558  0.2424  0.3946
   85CHL1    H8 8711   5.748   6.414   7.209 -0.1085 -0.6169  2.7786
   85CHL1   C14 8712   5.751   6.543   7.380 -0.3618 -0.2837 -0.5208
   85CHL1   H14 8713   5.696   6.635   7.408 -1.2805 -0.6927 -0.9383
   85CHL1   C15 8714   5.896   6.568   7.431 -0.4290 -0.3296  0.9235
   85CHL1  H15A 8715   5.960   6.500   7.371  1.4268 -0.3354  2.8112
   85CHL1  H15B 8716   5.933   6.671   7.409  2.4130 -1.3842  0.3043
   85CHL1   C16 8717   5.893   6.553   7.582  0.1793 -0.8616  0.0798
   85CHL1  H16A 8718   5.980   6.501   7.627  1.3053  2.3093  1.9300
   85CHL1  H16B 8719   5.889   6.647   7.641 -0.4065 -1.4903  1.0761
   85CHL1   C17 8720   5.756   6.494   7.614  0.5008 -0.5965 -0.3922
   85CHL1   H17 8721   5.685   6.576   7.636 -0.6766 -1.6719 -0.0228
   85CHL1   C13 8722   5.692   6.437   7.478 -0.3014  0.3948  0.6084
   85CHL1   C18 8723   5.765   6.302   7.445  0.2670 -0.5223  0.1815
   85CHL1  H18A 8724   5.761   6.230   7.530  0.7478 -0.7476  0.0137
   85CHL1  H18B 8725   5.710   6.243   7.369 -1.0449  0.6275  0.1850
   85CHL1  H18C 8726   5.866   6.329   7.407 -1.0179 -0.1476 -3.3262
   85CHL1   C12 8727   5.537   6.439   7.466 -0.2869  0.1522 -0.5348
   85CHL1  H12A 8728   5.508   6.355   7.533  0.6607 -2.7937 -3.5100
   85CHL1  H12B 8729   5.506   6.539   7.502 -1.1136 -0.6727  1.1984
   85CHL1   C11 8730   5.500   6.421   7.320 -0.2289  0.0014  0.7016
   85CHL1  H11A 8731   5.529   6.318   7.294  1.0189  0.2086  1.2110
   85CHL1  H11B 8732   5.389   6.426   7.310 -0.2052  1.9273  0.8978
   85CHL1    C9 8733   5.564   6.525   7.216  0.5456 -0.0177 -0.4605
   85CHL1    H9 8734   5.536   6.629   7.246  0.3100  0.0056 -0.7651
   85CHL1   C10 8735   5.525   6.504   7.071  0.6438 -0.7559 -0.5775
   85CHL1   C19 8736   5.540   6.359   7.027 -0.3205  0.1275  0.5651
   85CHL1  H19A 8737   5.642   6.322   7.051 -0.1505  0.3515  0.2034
   85CHL1  H19B 8738   5.458   6.296   7.068 -2.0881  0.4683 -2.1230
   85CHL1  H19C 8739   5.521   6.350   6.917  0.2838 -0.2895  0.4911
   85CHL1    C1 8740   5.370   6.545   7.065  0.0759  0.1703  0.5235
   85CHL1   H1A 8741   5.324   6.452   7.105 -2.9030  0.9531 -0.8108
   85CHL1   H1B 8742   5.335   6.640   7.111 -0.2355  0.5024 -0.3836
   85CHL1    C2 8743   5.325   6.556   6.915  0.3936  0.5740  0.0207
   85CHL1   H2A 8744   5.216   6.577   6.928  0.4988  0.1634  1.8354
   85CHL1   H2B 8745   5.333   6.456   6.867 -2.7265 -1.8306  3.7822
   85CHL1   C20 8746   5.769   6.399   7.732 -0.5195 -0.8361  0.0089
   85CHL1   H20 8747   5.820   6.307   7.697 -1.7595 -1.2413 -0.7777
   85CHL1   C21 8748   5.637   6.342   7.782  0.9225  0.2343 -0.6712
   85CHL1  H21A 8749   5.643   6.280   7.873  0.0720 -0.3773 -1.0252
   85CHL1  H21B 8750   5.578   6.291   7.703  0.6830 -0.3548 -0.1115
   85CHL1  H21C 8751   5.568   6.425   7.809 -1.0669 -0.9623 -1.8628
   85CHL1   C22 8752   5.854   6.450   7.851 -0.3536 -0.3356 -0.6272
   85CHL1  H22A 8753   5.961   6.458   7.822 -0.1883 -0.5118 -0.0715
   85CHL1  H22B 8754   5.831   6.555   7.880 -0.3607 -0.7041  0.7564
   85CHL1   C23 8755   5.847   6.371   7.980 -0.3110  0.3554  0.2191
   85CHL1  H23A 8756   5.748   6.399   8.021 -0.6097  0.3373 -0.4905
   85CHL1  H23B 8757   5.853   6.261   7.965 -1.9020  0.3177 -0.2502
   85CHL1   C24 8758   5.956   6.403   8.089  1.2171 -0.2753  0.6833
   85CHL1  H24A 8759   6.059   6.410   8.047  0.8260 -0.3152 -0.3222
   85CHL1  H24B 8760   5.935   6.507   8.123  1.3110 -0.2629  0.7037
   85CHL1   C25 8761   5.948   6.314   8.211  0.3548  0.0215 -0.0263
   85CHL1   H25 8762   5.961   6.211   8.172 -1.3666 -0.0631 -0.4764
   85CHL1   C26 8763   6.062   6.344   8.311 -0.7581 -0.1166  0.0259
   85CHL1  H26A 8764   6.150   6.379   8.253 -0.9665  0.8549  0.2643
   85CHL1  H26B 8765   6.022   6.429   8.371  1.0664 -0.1954  1.4543
   85CHL1  H26C 8766   6.079   6.255   8.375  0.0197 -1.0480 -1.4355
   85CHL1   C27 8767   5.812   6.321   8.286  1.0610  0.6343  0.1148
   85CHL1  H27A 8768   5.815   6.253   8.374  0.2522 -0.1077 -0.4157
   85CHL1  H27B 8769   5.793   6.428   8.311  1.1115  0.4515  0.9748
   85CHL1  H27C 8770   5.730   6.287   8.219  0.6678  1.8651 -0.0486
   86CHL1    C3 8771   6.038   3.224   6.632  0.0360 -0.7272 -0.3180
   86CHL1    H3 8772   6.066   3.329   6.607  3.6597 -1.1569  1.2710
   86CHL1    O3 8773   6.036   3.155   6.506 -0.0798  0.3762  0.4803
   86CHL1   H3' 8774   6.045   3.063   6.533 -4.8000 -0.4759 -0.0046
   86CHL1    C4 8775   6.158   3.175   6.719 -0.1108 -0.7360 -0.8021
   86CHL1   H4A 8776   6.153   3.065   6.728  0.7072 -0.6645  0.9187
   86CHL1   H4B 8777   6.252   3.212   6.672 -0.6263  1.6264 -0.1232
   86CHL1    C5 8778   6.163   3.233   6.856  0.0844  0.2033  0.1789
   86CHL1    C6 8779   6.272   3.303   6.904 -0.3747  0.6673  0.4853
   86CHL1    H6 8780   6.358   3.312   6.837 -1.6108 -0.5932 -1.3670
   86CHL1    C7 8781   6.275   3.354   7.045 -0.1855  0.4342 -0.1371
   86CHL1   H7A 8782   6.376   3.337   7.089 -1.0850 -3.5222  0.8223
   86CHL1   H7B 8783   6.260   3.464   7.046  0.0857  0.4709  0.3976
   86CHL1    C8 8784   6.174   3.281   7.141  0.2022 -0.9145  0.1844
   86CHL1    H8 8785   6.222   3.183   7.164  0.1975 -0.5334  1.9996
   86CHL1   C14 8786   6.167   3.360   7.275  0.0615 -0.9064 -0.2091
   86CHL1   H14 8787   6.128   3.460   7.246  0.1232 -0.6176  0.6621
   86CHL1   C15 8788   6.297   3.391   7.348  0.1268 -0.6842 -0.0494
   86CHL1  H15A 8789   6.361   3.300   7.350 -0.4665 -1.1252  2.2192
   86CHL1  H15B 8790   6.355   3.470   7.296 -1.1281  0.6646  0.5554
   86CHL1   C16 8791   6.247   3.434   7.486  0.1895  0.5161 -0.0677
   86CHL1  H16A 8792   6.311   3.365   7.546  3.1024  0.5427 -2.8285
   86CHL1  H16B 8793   6.270   3.542   7.497  0.3741  0.4295  0.4703
   86CHL1   C17 8794   6.091   3.415   7.488  0.4891 -0.3117 -0.2475
   86CHL1   H17 8795   6.053   3.511   7.447  0.9561  0.6486  1.4919
   86CHL1   C13 8796   6.067   3.310   7.377 -0.3046 -0.2486  0.2388
   86CHL1   C18 8797   6.102   3.171   7.426 -0.3302  0.0958 -0.1544
   86CHL1  H18A 8798   6.043   3.132   7.511 -0.6489 -1.3685 -1.0192
   86CHL1  H18B 8799   6.095   3.096   7.345 -0.2993 -0.4815  0.3752
   86CHL1  H18C 8800   6.210   3.171   7.451 -0.1655 -1.2713 -0.8195
   86CHL1   C12 8801   5.929   3.313   7.307  0.2558 -0.7829 -0.0884
   86CHL1  H12A 8802   5.856   3.283   7.386 -0.1769 -2.0778 -0.9380
   86CHL1  H12B 8803   5.901   3.416   7.277  0.8140 -0.1872  1.3434
   86CHL1   C11 8804   5.928   3.223   7.184  0.0768 -0.5701  0.6051
   86CHL1  H11A 8805   5.946   3.115   7.203 -0.2805 -0.5259  1.2277
   86CHL1  H11B 8806   5.830   3.226   7.132 -0.7262 -1.6623  1.9638
   86CHL1    C9 8807   6.037   3.269   7.078  0.7018 -0.6017  0.0677
   86CHL1    H9 8808   6.019   3.377   7.060  0.2800 -0.4546  1.2938
   86CHL1   C10 8809   6.031   3.202   6.935 -0.5668  0.7393 -0.8679
   86CHL1   C19 8810   6.017   3.054   6.963 -0.0328 -0.3950 -0.0838
   86CHL1  H19A 8811   6.106   3.035   7.028  0.4015  1.0569 -0.2126
   86CHL1  H19B 8812   5.918   3.032   7.008 -1.6349  1.4291 -2.5138
   86CHL1  H19C 8813   6.011   2.993   6.871 -1.2492 -0.1447 -0.1725
   86CHL1    C1 8814   5.905   3.260   6.852 -0.7156 -0.5956 -0.1949
   86CHL1   H1A 8815   5.812   3.233   6.907 -0.8665 -0.5100 -0.4045
   86CHL1   H1B 8816   5.904   3.371   6.854  0.3086 -0.5952  1.1284
   86CHL1    C2 8817   5.904   3.214   6.703  0.5859 -0.1212  0.6174
   86CHL1   H2A 8818   5.809   3.246   6.655  1.5517 -0.8521 -1.9588
   86CHL1   H2B 8819   5.885   3.105   6.714 -0.1935  0.1786  2.7466
   86CHL1   C20 8820   6.019   3.403   7.621 -0.1921  1.1724 -0.1115
   86CHL1   H20 8821   6.031   3.297   7.655  1.7902  1.8244  1.4689
   86CHL1   C21 8822   5.871   3.449   7.605 -0.2017 -0.1136  0.8667
   86CHL1  H21A 8823   5.820   3.425   7.701 -1.0153 -1.6714  0.0927
   86CHL1  H21B 8824   5.817   3.403   7.520  1.6804  2.2298 -1.7578
   86CHL1  H21C 8825   5.878   3.558   7.586  1.1895 -0.1796  0.8992
   86CHL1   C22 8826   6.089   3.480   7.736 -0.4363 -0.0792  1.0745
   86CHL1  H22A 8827   6.192   3.437   7.742 -0.2633  0.4171  1.7447
   86CHL1  H22B 8828   6.084   3.589   7.714 -1.9224 -0.2827  0.3103
   86CHL1   C23 8829   6.025   3.479   7.872 -0.9450 -0.2901 -0.1579
   86CHL1  H23A 8830   5.922   3.521   7.865 -1.0083 -0.5620 -0.8403
   86CHL1  H23B 8831   6.020   3.375   7.910 -0.4179 -0.3845 -0.3418
   86CHL1   C24 8832   6.096   3.551   7.988 -0.2769  0.4043 -0.7658
   86CHL1  H24A 8833   6.193   3.508   8.019  0.4649  1.2114 -1.9111
   86CHL1  H24B 8834   6.112   3.656   7.956 -0.4384 -0.0605 -2.4364
   86CHL1   C25 8835   6.006   3.552   8.119 -0.4863 -0.3822 -0.3734
   86CHL1   H25 8836   5.906   3.591   8.090 -0.8265 -0.5787  0.5004
   86CHL1   C26 8837   5.991   3.417   8.183 -0.0652  0.0768  0.6374
   86CHL1  H26A 8838   6.094   3.387   8.212  1.3638  4.5632  0.9880
   86CHL1  H26B 8839   5.926   3.411   8.274 -0.1579 -0.6383  0.5242
   86CHL1  H26C 8840   5.951   3.345   8.109 -0.1809  1.5736 -0.8112
   86CHL1   C27 8841   6.068   3.659   8.214  0.3857  0.2606 -0.1279
   86CHL1  H27A 8842   6.172   3.643   8.251  0.6916  0.0184 -1.0585
   86CHL1  H27B 8843   6.066   3.760   8.168 -0.1569  0.3138  0.0043
   86CHL1  H27C 8844   6.000   3.654   8.302  0.6971 -1.7879  0.0622
   87CHL1    C3 8845   6.535   1.550   6.931  0.4236 -0.1084  0.4060
   87CHL1    H3 8846   6.425   1.552   6.946  0.4461  1.8388  0.5804
   87CHL1    O3 8847   6.556   1.513   6.790 -0.2275 -0.1296 -0.2101
   87CHL1   H3' 8848   6.499   1.572   6.739  0.8663  0.3333 -0.9240
   87CHL1    C4 8849   6.593   1.691   6.959  0.0968  0.1393 -0.3502
   87CHL1   H4A 8850   6.701   1.691   6.935  0.9757 -0.3054  3.0545
   87CHL1   H4B 8851   6.541   1.754   6.884  2.8257  1.0712 -1.5830
   87CHL1    C5 8852   6.575   1.741   7.100  0.3897  0.0110  0.0508
   87CHL1    C6 8853   6.501   1.850   7.128  0.0408  0.1848  0.4662
   87CHL1    H6 8854   6.449   1.899   7.044 -0.0020 -0.4074  0.1443
   87CHL1    C7 8855   6.469   1.898   7.263 -0.1425 -0.5180  0.2129
   87CHL1   H7A 8856   6.467   2.009   7.270 -0.9945 -0.5745  1.1436
   87CHL1   H7B 8857   6.370   1.860   7.297  0.1946 -0.6690  1.0609
   87CHL1    C8 8858   6.573   1.849   7.360 -0.5366 -0.7175  0.0185
   87CHL1    H8 8859   6.666   1.902   7.330  0.0006 -0.8405  1.3720
   87CHL1   C14 8860   6.534   1.885   7.509 -0.4828 -0.1898  0.2504
   87CHL1   H14 8861   6.437   1.833   7.526 -1.1882  0.7473 -0.7264
   87CHL1   C15 8862   6.503   2.031   7.536  0.1448  0.2419  0.7238
   87CHL1  H15A 8863   6.581   2.101   7.498  1.0412 -0.9958  0.1964
   87CHL1  H15B 8864   6.406   2.054   7.487 -0.0317  0.3486  1.1235
   87CHL1   C16 8865   6.498   2.037   7.686  0.4830  0.0145 -0.2531
   87CHL1  H16A 8866   6.570   2.116   7.717  3.2187 -1.6796 -1.9022
   87CHL1  H16B 8867   6.397   2.057   7.729 -0.1315  0.7756 -1.9884
   87CHL1   C17 8868   6.554   1.897   7.732  0.2162 -0.0279  0.3853
   87CHL1   H17 8869   6.464   1.832   7.737  0.0944 -0.1158 -1.8181
   87CHL1   C13 8870   6.635   1.840   7.620 -0.3193  0.4152  0.3220
   87CHL1   C18 8871   6.770   1.911   7.606  0.3710  0.9328  0.2203
   87CHL1  H18A 8872   6.804   1.933   7.503 -1.1736 -1.3774 -0.8830
   87CHL1  H18B 8873   6.779   2.009   7.656  0.4867  1.1899 -0.2953
   87CHL1  H18C 8874   6.850   1.853   7.658 -1.0310  0.8687  2.4654
   87CHL1   C12 8875   6.649   1.689   7.609 -0.6364 -0.4035  0.2105
   87CHL1  H12A 8876   6.731   1.640   7.666  1.7085 -0.1974 -2.7212
   87CHL1  H12B 8877   6.555   1.639   7.639 -0.1450 -1.4145  0.1261
   87CHL1   C11 8878   6.685   1.636   7.467  0.1542 -0.2285  0.8695
   87CHL1  H11A 8879   6.793   1.658   7.448  0.4561 -0.7268  1.9563
   87CHL1  H11B 8880   6.679   1.525   7.465 -1.0244 -0.1650  0.2179
   87CHL1    C9 8881   6.586   1.699   7.358  0.5361  0.2824  0.0441
   87CHL1    H9 8882   6.489   1.649   7.380 -0.1378  2.2980  1.8995
   87CHL1   C10 8883   6.628   1.652   7.216  0.0473 -0.5259  1.2912
   87CHL1   C19 8884   6.777   1.658   7.205 -0.3126  0.0916 -0.8123
   87CHL1  H19A 8885   6.825   1.573   7.259  1.6745  1.0303 -1.0007
   87CHL1  H19B 8886   6.816   1.638   7.103  0.8285 -1.1826 -0.1635
   87CHL1  H19C 8887   6.821   1.754   7.239  2.3946 -1.2558 -0.2364
   87CHL1    C1 8888   6.581   1.501   7.181  0.3668  0.2121 -0.5882
   87CHL1   H1A 8889   6.634   1.436   7.254 -0.6023  0.0796  0.0327
   87CHL1   H1B 8890   6.472   1.485   7.200  0.0052  1.6017 -1.3307
   87CHL1    C2 8891   6.609   1.463   7.035  0.4885  0.6257  0.4864
   87CHL1   H2A 8892   6.583   1.358   7.013  0.7891  0.7013 -0.2704
   87CHL1   H2B 8893   6.719   1.477   7.020  0.0896  2.4539 -1.1780
   87CHL1   C20 8894   6.626   1.889   7.861 -0.0343  0.0046 -0.4786
   87CHL1   H20 8895   6.729   1.855   7.841 -1.1328 -3.4531 -0.8735
   87CHL1   C21 8896   6.569   1.779   7.954 -0.5478  0.0705 -0.0814
   87CHL1  H21A 8897   6.476   1.820   8.000 -1.0660 -0.0253 -1.0107
   87CHL1  H21B 8898   6.640   1.753   8.036  2.4738  1.2362 -2.1505
   87CHL1  H21C 8899   6.552   1.679   7.908 -1.0553  0.8115 -1.5794
   87CHL1   C22 8900   6.643   2.026   7.933 -0.0829 -0.6745 -0.0801
   87CHL1  H22A 8901   6.707   2.086   7.866 -0.7401  0.6365  0.4195
   87CHL1  H22B 8902   6.547   2.079   7.954  0.0544  0.6749 -2.4817
   87CHL1   C23 8903   6.719   2.005   8.071  0.5719 -0.5030  0.1115
   87CHL1  H23A 8904   6.653   1.962   8.149  0.6763 -0.8033  0.0387
   87CHL1  H23B 8905   6.798   1.930   8.045 -0.1087 -0.4774 -2.1894
   87CHL1   C24 8906   6.772   2.136   8.130 -0.0571 -0.2078 -0.0491
   87CHL1  H24A 8907   6.851   2.178   8.064 -0.7151 -0.1994 -0.8584
   87CHL1  H24B 8908   6.688   2.208   8.141 -2.0392 -2.0898 -1.6367
   87CHL1   C25 8909   6.842   2.112   8.263  0.0848 -0.0525  0.4404
   87CHL1   H25 8910   6.922   2.036   8.251 -1.6067 -1.5616 -2.2453
   87CHL1   C26 8911   6.918   2.245   8.307 -0.4831 -1.0045  0.1232
   87CHL1  H26A 8912   6.963   2.280   8.212  0.4778  0.5390  1.1049
   87CHL1  H26B 8913   6.846   2.322   8.342 -1.0373 -0.9298 -1.1395
   87CHL1  H26C 8914   6.986   2.236   8.394  0.4774 -0.7077 -0.5837
   87CHL1   C27 8915   6.748   2.070   8.377 -0.5055 -1.1047  0.8438
   87CHL1  H27A 8916   6.808   2.077   8.470 -1.2482 -1.5416  1.3606
   87CHL1  H27B 8917   6.664   2.142   8.385  0.4109 -0.0399  1.1925
   87CHL1  H27C 8918   6.718   1.964   8.368  2.6739 -2.0709  0.2114
   88CHL1    C3 8919   4.224   4.517   6.913  0.1979  0.2272  0.1026
   88CHL1    H3 8920   4.321   4.569   6.896  1.2939 -1.9031 -0.5417
   88CHL1    O3 8921   4.168   4.484   6.788  0.3206  0.2673  0.4159
   88CHL1   H3' 8922   4.081   4.450   6.811 -1.8266  3.8103 -1.5630
   88CHL1    C4 8923   4.240   4.388   7.002  0.6736 -0.1861  0.3331
   88CHL1   H4A 8924   4.144   4.332   7.003 -0.2408  1.3100  1.0069
   88CHL1   H4B 8925   4.311   4.332   6.938  0.1304 -0.2052 -0.2584
   88CHL1    C5 8926   4.297   4.421   7.137 -0.1020 -0.1619 -0.7252
   88CHL1    C6 8927   4.411   4.355   7.169 -0.7690 -0.2348  0.7030
   88CHL1    H6 8928   4.458   4.279   7.105 -1.0128  0.2336 -0.0475
   88CHL1    C7 8929   4.481   4.383   7.304  0.3844  0.0705  0.1798
   88CHL1   H7A 8930   4.512   4.289   7.355  2.4129  0.9528  0.6588
   88CHL1   H7B 8931   4.565   4.454   7.290 -0.1933  0.9312  0.9120
   88CHL1    C8 8932   4.379   4.455   7.403 -0.1385  0.1659 -0.9739
   88CHL1    H8 8933   4.311   4.375   7.438 -0.6013  1.2466  0.7224
   88CHL1   C14 8934   4.461   4.497   7.526 -0.0636  0.5567 -0.6639
   88CHL1   H14 8935   4.539   4.565   7.486  0.4841  1.0587  1.1994
   88CHL1   C15 8936   4.544   4.389   7.588 -0.8633  0.4627  0.1979
   88CHL1  H15A 8937   4.482   4.297   7.602  0.6463 -0.5804  0.3065
   88CHL1  H15B 8938   4.637   4.364   7.533 -0.7683 -2.7470  1.5367
   88CHL1   C16 8939   4.575   4.454   7.726  0.1201  0.6814 -0.2776
   88CHL1  H16A 8940   4.545   4.391   7.812 -0.3145  3.5665  1.8371
   88CHL1  H16B 8941   4.678   4.493   7.741 -0.3336  1.4341  1.0671
   88CHL1   C17 8942   4.484   4.587   7.736 -0.4767  0.1617 -0.1196
   88CHL1   H17 8943   4.545   4.671   7.695  0.1646 -0.2658 -0.0727
   88CHL1   C13 8944   4.377   4.563   7.627  0.1895 -0.0080 -0.5721
   88CHL1   C18 8945   4.273   4.469   7.681  0.3410  0.8282  0.1466
   88CHL1  H18A 8946   4.318   4.380   7.729  1.6145  1.3505 -0.0523
   88CHL1  H18B 8947   4.208   4.513   7.760 -2.2314 -0.0914 -1.3439
   88CHL1  H18C 8948   4.206   4.436   7.599  0.9753 -0.7648  0.2559
   88CHL1   C12 8949   4.309   4.694   7.567  0.0095  0.0581  0.1332
   88CHL1  H12A 8950   4.226   4.717   7.636 -1.7372 -0.3882 -1.7288
   88CHL1  H12B 8951   4.382   4.777   7.557 -1.2106  1.0359 -1.0643
   88CHL1   C11 8952   4.241   4.672   7.431  0.0096  0.4615  0.1797
   88CHL1  H11A 8953   4.137   4.640   7.451 -0.4548  2.5299  1.4493
   88CHL1  H11B 8954   4.240   4.773   7.386 -0.4083  0.2584 -0.2644
   88CHL1    C9 8955   4.317   4.574   7.335  0.0514 -0.1869  0.2021
   88CHL1    H9 8956   4.402   4.632   7.292 -1.3754  1.1343 -0.9814
   88CHL1   C10 8957   4.225   4.530   7.215 -0.0725 -0.1077  0.0460
   88CHL1   C19 8958   4.101   4.458   7.263  0.0624  0.7632  0.2626
   88CHL1  H19A 8959   4.068   4.360   7.221  0.3622  0.6741  0.2322
   88CHL1  H19B 8960   4.129   4.442   7.370  0.8527 -1.6914 -0.2406
   88CHL1  H19C 8961   4.012   4.522   7.250  0.2808  0.5775 -2.6494
   88CHL1    C1 8962   4.198   4.647   7.119  0.0214 -0.1506 -0.2870
   88CHL1   H1A 8963   4.140   4.724   7.175  1.1778 -0.1855  1.0218
   88CHL1   H1B 8964   4.290   4.705   7.096 -1.4190  2.0217 -0.8928
   88CHL1    C2 8965   4.131   4.609   6.990 -0.1395 -0.4935 -0.7635
   88CHL1   H2A 8966   4.123   4.700   6.927  1.2273  1.7331  2.0383
   88CHL1   H2B 8967   4.040   4.552   7.016  1.0216 -1.4113  1.5679
   88CHL1   C20 8968   4.440   4.604   7.883  0.4298  0.5167 -0.2240
   88CHL1   H20 8969   4.394   4.510   7.919 -2.0934  1.7750  0.1104
   88CHL1   C21 8970   4.338   4.722   7.902  0.0931 -0.3149  0.4555
   88CHL1  H21A 8971   4.255   4.709   7.829  1.6874 -0.8058 -1.3475
   88CHL1  H21B 8972   4.394   4.812   7.869 -0.2477 -1.1016 -2.4739
   88CHL1  H21C 8973   4.305   4.734   8.008  2.3841 -0.1018  1.2168
   88CHL1   C22 8974   4.563   4.623   7.980 -0.3821 -0.5250 -0.1188
   88CHL1  H22A 8975   4.628   4.535   7.958 -1.5273 -1.9835  1.9665
   88CHL1  H22B 8976   4.609   4.722   7.962  0.0504 -0.8100 -0.6338
   88CHL1   C23 8977   4.524   4.613   8.136 -0.6409 -0.1619 -0.6377
   88CHL1  H23A 8978   4.446   4.690   8.154 -0.7001  0.3708 -2.9049
   88CHL1  H23B 8979   4.482   4.512   8.159 -0.5729  0.3789  2.1265
   88CHL1   C24 8980   4.646   4.617   8.236  0.2580 -0.1779  0.4395
   88CHL1  H24A 8981   4.685   4.513   8.243  1.4704  0.0165 -2.2458
   88CHL1  H24B 8982   4.712   4.689   8.183 -1.3806 -0.0481 -1.5527
   88CHL1   C25 8983   4.605   4.680   8.379  0.0333  0.4408 -0.4066
   88CHL1   H25 8984   4.566   4.783   8.364 -1.2198  0.0734  0.2079
   88CHL1   C26 8985   4.504   4.579   8.448 -0.5383 -0.0810 -0.0124
   88CHL1  H26A 8986   4.545   4.476   8.453  1.7575  0.8364  2.8432
   88CHL1  H26B 8987   4.476   4.608   8.551  2.6130 -1.4883  1.3549
   88CHL1  H26C 8988   4.413   4.576   8.384  0.5523 -1.1303 -1.5881
   88CHL1   C27 8989   4.731   4.693   8.470  0.2734 -0.0233 -0.5687
   88CHL1  H27A 8990   4.696   4.738   8.565  0.6161  0.1327 -0.5184
   88CHL1  H27B 8991   4.762   4.589   8.496  1.1916 -0.0293 -1.6120
   88CHL1  H27C 8992   4.808   4.758   8.424  0.4095  0.1478 -0.1003
   89CHL1    C3 8993   0.258   2.756   7.023  0.1837 -0.2378  0.2175
   89CHL1    H3 8994   0.171   2.796   7.080  1.0111  1.0207  0.6334
   89CHL1    O3 8995   0.197   2.730   6.897  0.1380 -0.1692  0.5489
   89CHL1   H3' 8996   0.260   2.694   6.835  0.9670  1.1813  0.5629
   89CHL1    C4 8997   0.375   2.856   7.008  0.5955 -0.8548  0.4195
   89CHL1   H4A 8998   0.452   2.810   6.941  0.8883  2.7557 -2.0290
   89CHL1   H4B 8999   0.335   2.941   6.949  2.6439  1.2452  1.9026
   89CHL1    C5 9000   0.440   2.895   7.138 -0.6804  0.3761  0.0382
   89CHL1    C6 9001   0.454   3.021   7.185  0.2335  0.5973  0.3965
   89CHL1    H6 9002   0.431   3.102   7.115 -0.1230 -0.5984 -0.9366
   89CHL1    C7 9003   0.515   3.065   7.313  0.5158  0.1381  0.1588
   89CHL1   H7A 9004   0.598   3.135   7.292 -0.4293  1.0269 -0.7170
   89CHL1   H7B 9005   0.438   3.125   7.367  0.0143  0.4068 -0.8315
   89CHL1    C8 9006   0.566   2.954   7.403  0.1835  0.3482  0.2995
   89CHL1    H8 9007   0.675   2.939   7.385  0.3907 -1.2269  2.4643
   89CHL1   C14 9008   0.560   2.984   7.555  0.4155  0.0488  0.2814
   89CHL1   H14 9009   0.451   2.988   7.577 -0.2142 -1.1351 -2.2850
   89CHL1   C15 9010   0.597   3.121   7.610 -0.0472  0.1735  0.4691
   89CHL1  H15A 9011   0.699   3.155   7.584 -0.3472 -1.0718 -2.7979
   89CHL1  H15B 9012   0.515   3.186   7.570  0.3888 -1.0065 -2.6166
   89CHL1   C16 9013   0.604   3.102   7.760 -0.0936 -0.4278 -0.0171
   89CHL1  H16A 9014   0.703   3.144   7.785 -0.4508  0.8552 -0.6854
   89CHL1  H16B 9015   0.526   3.164   7.810 -0.5791  0.5949 -1.9479
   89CHL1   C17 9016   0.596   2.954   7.787  0.3071 -0.2717 -0.1027
   89CHL1   H17 9017   0.488   2.933   7.806  0.5204 -0.3047  1.1980
   89CHL1   C13 9018   0.620   2.886   7.652 -0.1077  0.1286  0.3464
   89CHL1   C18 9019   0.776   2.882   7.624  0.2266 -0.1718  0.8720
   89CHL1  H18A 9020   0.809   2.987   7.634 -0.6229  0.2488 -0.5768
   89CHL1  H18B 9021   0.826   2.817   7.700 -0.6938 -1.0774  0.7300
   89CHL1  H18C 9022   0.796   2.842   7.522 -1.1205  1.2756  0.0139
   89CHL1   C12 9023   0.562   2.739   7.627  0.5156  0.0610 -0.0633
   89CHL1  H12A 9024   0.626   2.668   7.684 -0.8805 -0.8150  0.4398
   89CHL1  H12B 9025   0.456   2.735   7.660  0.4061  0.3596 -0.3820
   89CHL1   C11 9026   0.548   2.710   7.478 -0.4054 -0.0069  0.2212
   89CHL1  H11A 9027   0.654   2.702   7.443 -0.3795 -1.9628  0.6393
   89CHL1  H11B 9028   0.497   2.612   7.463  0.8553 -1.1000  2.4978
   89CHL1    C9 9029   0.491   2.824   7.385 -0.5891 -0.0093 -0.4138
   89CHL1    H9 9030   0.387   2.848   7.414 -0.8834  0.7743 -1.9844
   89CHL1   C10 9031   0.466   2.780   7.238 -0.3596 -0.0915 -0.0553
   89CHL1   C19 9032   0.597   2.719   7.185 -0.2362  0.0768  0.4023
   89CHL1  H19A 9033   0.692   2.772   7.207  0.8192 -1.1504 -1.0140
   89CHL1  H19B 9034   0.602   2.616   7.225 -0.0023 -0.0778 -0.0201
   89CHL1  H19C 9035   0.590   2.702   7.075  0.3417 -1.7858  0.6200
   89CHL1    C1 9036   0.349   2.676   7.239 -0.8404 -0.6499  1.0467
   89CHL1   H1A 9037   0.385   2.589   7.298 -0.8600 -0.6822  1.0107
   89CHL1   H1B 9038   0.267   2.730   7.289 -0.1747  1.2725  0.1513
   89CHL1    C2 9039   0.310   2.635   7.093  0.0035 -0.2046 -0.1222
   89CHL1   H2A 9040   0.233   2.555   7.083  0.4016 -0.6825  0.5599
   89CHL1   H2B 9041   0.398   2.599   7.035  1.4965  0.3374  1.7203
   89CHL1   C20 9042   0.662   2.902   7.922 -0.2261 -0.7555  0.6644
   89CHL1   H20 9043   0.668   2.793   7.903 -0.8222 -0.2257 -3.2851
   89CHL1   C21 9044   0.568   2.921   8.038 -0.2766 -1.0919 -0.4233
   89CHL1  H21A 9045   0.606   2.889   8.138 -5.6060  0.9825  2.7438
   89CHL1  H21B 9046   0.469   2.875   8.020 -1.3212  1.5198 -1.8596
   89CHL1  H21C 9047   0.542   3.029   8.047  0.8930 -0.8581  0.4103
   89CHL1   C22 9048   0.801   2.970   7.953  0.4303  0.4771 -0.5676
   89CHL1  H22A 9049   0.852   2.986   7.856  1.1041  0.6079 -0.1998
   89CHL1  H22B 9050   0.788   3.067   8.004  1.3661  0.9103 -1.1290
   89CHL1   C23 9051   0.898   2.884   8.039 -0.1724  0.1116 -0.1744
   89CHL1  H23A 9052   0.850   2.873   8.139 -1.3720 -1.1093 -0.8447
   89CHL1  H23B 9053   0.908   2.779   8.003  2.1755  0.1614  0.1807
   89CHL1   C24 9054   1.034   2.956   8.072 -0.1137 -0.5004  0.5168
   89CHL1  H24A 9055   1.077   2.980   7.973 -1.5444  0.9744  0.2033
   89CHL1  H24B 9056   0.993   3.049   8.117  0.2314  0.0168 -0.2247
   89CHL1   C25 9057   1.138   2.879   8.143 -0.5160 -0.3466  0.1838
   89CHL1   H25 9058   1.102   2.849   8.244  2.8878 -2.5374  0.8983
   89CHL1   C26 9059   1.168   2.741   8.077  0.2684  0.0654 -0.5154
   89CHL1  H26A 9060   1.242   2.689   8.142  0.4763  1.4633  0.4164
   89CHL1  H26B 9061   1.080   2.676   8.063  1.4689 -1.9505  0.6486
   89CHL1  H26C 9062   1.213   2.769   7.980  1.3957  2.2806  0.5655
   89CHL1   C27 9063   1.269   2.957   8.150 -0.2646  0.4932 -0.1674
   89CHL1  H27A 9064   1.284   2.980   8.042  2.2634 -1.5787 -0.3732
   89CHL1  H27B 9065   1.276   3.054   8.204 -1.0735  0.1287  0.6170
   89CHL1  H27C 9066   1.349   2.887   8.181 -0.3497 -0.6623 -2.3792
   90CHL1    C3 9067   6.710   3.192   7.044  0.7441  0.2842  0.0645
   90CHL1    H3 9068   6.614   3.152   7.080 -0.4356  0.1163 -2.9511
   90CHL1    O3 9069   6.693   3.219   6.902  0.2597 -0.2126 -0.4052
   90CHL1   H3' 9070   6.774   3.258   6.868 -0.6071  0.7345 -1.4588
   90CHL1    C4 9071   6.748   3.321   7.115  0.0837  0.4182  0.1505
   90CHL1   H4A 9072   6.846   3.364   7.085  0.5735  0.5619  1.8174
   90CHL1   H4B 9073   6.682   3.407   7.090 -0.8466  0.5143  2.6441
   90CHL1    C5 9074   6.762   3.301   7.267  0.5099  0.2108  0.0823
   90CHL1    C6 9075   6.681   3.365   7.352  0.4859 -0.0941 -0.0126
   90CHL1    H6 9076   6.610   3.438   7.312  1.2024  0.0502 -1.0691
   90CHL1    C7 9077   6.663   3.344   7.497 -0.6241 -0.3388 -0.1870
   90CHL1   H7A 9078   6.652   3.443   7.548  0.0614 -0.2724 -0.1572
   90CHL1   H7B 9079   6.565   3.295   7.514 -0.8746 -0.1267 -0.9922
   90CHL1    C8 9080   6.787   3.269   7.547  0.0375  0.1580 -1.0544
   90CHL1    H8 9081   6.871   3.341   7.550  0.4259 -0.3125  0.5970
   90CHL1   C14 9082   6.767   3.206   7.688 -1.1095 -0.5671 -0.3029
   90CHL1   H14 9083   6.695   3.123   7.669 -0.5892 -0.9807 -0.4971
   90CHL1   C15 9084   6.703   3.299   7.794  0.2235 -0.7098  0.0854
   90CHL1  H15A 9085   6.756   3.397   7.796  0.3107 -0.7531 -0.0145
   90CHL1  H15B 9086   6.596   3.309   7.767  0.3490 -2.5150 -1.2553
   90CHL1   C16 9087   6.725   3.231   7.926 -0.2320  0.6491  0.0926
   90CHL1  H16A 9088   6.751   3.298   8.011 -0.4438  3.1953 -1.7623
   90CHL1  H16B 9089   6.632   3.177   7.952  0.7917 -0.9305  0.6787
   90CHL1   C17 9090   6.839   3.121   7.903  0.8327  0.3023  0.2958
   90CHL1   H17 9091   6.785   3.024   7.907  2.1679 -0.5184 -0.8266
   90CHL1   C13 9092   6.891   3.150   7.756  0.3234 -0.2362  0.2861
   90CHL1   C18 9093   6.995   3.268   7.763  0.5208 -0.2175  0.4900
   90CHL1  H18A 9094   7.026   3.318   7.669  1.9034 -0.6919  0.6654
   90CHL1  H18B 9095   6.960   3.340   7.840  0.7731  1.9790 -1.3535
   90CHL1  H18C 9096   7.093   3.223   7.789  0.8140  0.5926  0.8293
   90CHL1   C12 9097   6.936   3.032   7.674  0.0568 -0.5974  0.3764
   90CHL1  H12A 9098   7.026   2.989   7.722 -0.8766  0.9197  3.8291
   90CHL1  H12B 9099   6.862   2.949   7.676  0.5248 -1.0036  0.8879
   90CHL1   C11 9100   6.955   3.080   7.529 -0.3994  0.1102 -0.6436
   90CHL1  H11A 9101   7.042   3.149   7.536  1.7449 -2.4058 -0.5024
   90CHL1  H11B 9102   6.989   2.993   7.468 -1.9501 -2.1084  1.4458
   90CHL1    C9 9103   6.835   3.153   7.458  0.2253  0.9898 -0.8238
   90CHL1    H9 9104   6.744   3.089   7.462  0.6237  0.4398 -0.2539
   90CHL1   C10 9105   6.856   3.194   7.313 -1.0653 -0.2973 -0.3708
   90CHL1   C19 9106   6.999   3.260   7.307  0.5134  0.5003 -0.1045
   90CHL1  H19A 9107   7.079   3.186   7.333 -2.3886 -1.6774  3.6322
   90CHL1  H19B 9108   7.033   3.309   7.213  2.9924  1.2080  1.0639
   90CHL1  H19C 9109   7.011   3.337   7.385  2.2238  2.7808 -2.4312
   90CHL1    C1 9110   6.850   3.064   7.222 -0.0984 -0.8592  0.1911
   90CHL1   H1A 9111   6.944   3.006   7.221  0.1411 -0.4987 -1.3506
   90CHL1   H1B 9112   6.762   3.008   7.261 -0.7456  1.3117  2.0393
   90CHL1    C2 9113   6.817   3.083   7.073 -0.0765 -0.8772  0.2937
   90CHL1   H2A 9114   6.779   2.985   7.037 -1.4896  0.3325 -1.7169
   90CHL1   H2B 9115   6.908   3.121   7.022 -0.1198  1.3630  1.7481
   90CHL1   C20 9116   6.937   3.108   8.023 -0.2529 -0.3185  0.1027
   90CHL1   H20 9117   6.980   3.210   8.031 -0.6169 -0.0962 -0.6527
   90CHL1   C21 9118   7.058   3.011   8.004 -1.0329 -0.7306  0.1367
   90CHL1  H21A 9119   7.126   3.013   8.093 -3.2199  1.0489  1.8920
   90CHL1  H21B 9120   7.112   3.036   7.911 -0.9682 -1.0637  0.0837
   90CHL1  H21C 9121   7.016   2.908   7.999  1.1969 -1.7260  0.5603
   90CHL1   C22 9122   6.872   3.082   8.161 -0.4616 -0.1913 -0.2336
   90CHL1  H22A 9123   6.956   3.059   8.229 -1.0257  0.3172  0.6550
   90CHL1  H22B 9124   6.825   3.177   8.194  0.3289  0.3557 -0.6587
   90CHL1   C23 9125   6.775   2.962   8.167  0.2166  0.0415 -0.7734
   90CHL1  H23A 9126   6.673   2.997   8.143  0.3385  1.2861  0.3883
   90CHL1  H23B 9127   6.805   2.882   8.097  0.8930 -1.9355  1.6207
   90CHL1   C24 9128   6.778   2.908   8.306 -0.3050 -0.2797 -0.3709
   90CHL1  H24A 9129   6.875   2.880   8.353 -0.5527  2.8806  2.3098
   90CHL1  H24B 9130   6.736   2.976   8.383 -1.7034 -1.0855 -0.3855
   90CHL1   C25 9131   6.684   2.785   8.321  0.8534 -0.5935  0.3033
   90CHL1   H25 9132   6.592   2.804   8.260 -0.0740 -1.2773  1.4505
   90CHL1   C26 9133   6.744   2.651   8.280 -0.1389 -0.5532 -0.3489
   90CHL1  H26A 9134   6.805   2.604   8.361  1.5017 -2.2857 -2.4714
   90CHL1  H26B 9135   6.665   2.581   8.247  0.2766 -0.2176 -2.1252
   90CHL1  H26C 9136   6.804   2.665   8.188 -1.6652 -2.1555 -1.6605
   90CHL1   C27 9137   6.638   2.768   8.470 -0.0667  0.2709 -0.4703
   90CHL1  H27A 9138   6.589   2.848   8.529 -1.7384 -0.5512 -0.6890
   90CHL1  H27B 9139   6.574   2.678   8.482  0.2179  0.0012 -0.9644
   90CHL1  H27C 9140   6.731   2.742   8.525 -0.7540  1.1078  1.1495
   91CHL1    C3 9141   3.233   5.031   7.118 -0.4007 -0.1242  0.2472
   91CHL1    H3 9142   3.165   4.943   7.122 -0.0230 -0.6047 -2.1439
   91CHL1    O3 9143   3.229   5.093   6.987 -0.5791 -0.4974 -0.4953
   91CHL1   H3' 9144   3.311   5.061   6.949  0.8866  2.6327 -0.3203
   91CHL1    C4 9145   3.194   5.129   7.235 -0.6409  0.2408 -0.0334
   91CHL1   H4A 9146   3.253   5.223   7.232 -2.1773  1.2150 -0.9822
   91CHL1   H4B 9147   3.088   5.145   7.206 -1.1678  0.8702  2.0357
   91CHL1    C5 9148   3.210   5.067   7.373  1.1920  0.6543  0.3715
   91CHL1    C6 9149   3.097   5.056   7.454 -1.0496 -0.2805 -0.3841
   91CHL1    H6 9150   3.003   5.093   7.410 -0.2139 -0.3496 -2.3665
   91CHL1    C7 9151   3.106   5.001   7.594  0.3976  0.4657  0.2006
   91CHL1   H7A 9152   3.059   5.071   7.666 -0.1014  0.3663 -0.0238
   91CHL1   H7B 9153   3.039   4.913   7.603 -1.3814  1.7901  0.3232
   91CHL1    C8 9154   3.256   4.987   7.643  0.1774 -1.0540 -0.6674
   91CHL1    H8 9155   3.303   5.086   7.661  1.4366 -2.0066  1.6008
   91CHL1   C14 9156   3.259   4.902   7.771  0.6039  0.0675  0.3261
   91CHL1   H14 9157   3.219   4.803   7.738 -1.9737  0.6738  1.3851
   91CHL1   C15 9158   3.176   4.947   7.890 -0.0698  0.5242  0.1054
   91CHL1  H15A 9159   3.196   5.051   7.923  2.1056  0.3029 -0.4029
   91CHL1  H15B 9160   3.068   4.923   7.882  0.3920 -1.3924 -0.9627
   91CHL1   C16 9161   3.233   4.859   8.004 -0.4641  0.1402  0.2432
   91CHL1  H16A 9162   3.256   4.922   8.093  0.5089 -0.9266  0.7761
   91CHL1  H16B 9163   3.167   4.773   8.027 -0.7399  0.0618 -0.7869
   91CHL1   C17 9164   3.371   4.791   7.950  0.4834  0.2600  0.2523
   91CHL1   H17 9165   3.337   4.694   7.908 -0.4737  0.7326 -0.1081
   91CHL1   C13 9166   3.406   4.871   7.816  1.2786  0.6135  0.0948
   91CHL1   C18 9167   3.475   5.000   7.874 -0.2078 -0.1289  0.4985
   91CHL1  H18A 9168   3.414   5.031   7.961  0.3440  0.4192  0.6902
   91CHL1  H18B 9169   3.576   4.969   7.908  0.1300 -0.1457 -0.4871
   91CHL1  H18C 9170   3.491   5.085   7.805 -2.5608 -0.1824 -0.2065
   91CHL1   C12 9171   3.477   4.799   7.705  0.0498  0.7719  0.3036
   91CHL1  H12A 9172   3.581   4.782   7.740  0.6900  2.7024 -0.5346
   91CHL1  H12B 9173   3.418   4.707   7.686 -0.0046  0.9142 -0.2554
   91CHL1   C11 9174   3.479   4.873   7.574  0.6443 -0.3404 -0.3797
   91CHL1  H11A 9175   3.534   4.960   7.615  0.3338 -1.0517  1.6441
   91CHL1  H11B 9176   3.532   4.819   7.493  1.0095  0.9619 -1.0469
   91CHL1    C9 9177   3.337   4.920   7.533 -0.4541  0.6036  0.1117
   91CHL1    H9 9178   3.292   4.823   7.504 -1.2670  1.2596 -0.8780
   91CHL1   C10 9179   3.349   5.004   7.399 -0.6766  0.3053 -0.3145
   91CHL1   C19 9180   3.460   5.101   7.410 -0.0529 -0.0181 -0.6131
   91CHL1  H19A 9181   3.557   5.047   7.408  1.2707  2.0791  1.3876
   91CHL1  H19B 9182   3.460   5.169   7.321 -0.7315 -1.0421 -1.4189
   91CHL1  H19C 9183   3.451   5.168   7.498 -0.5048  0.5006 -1.0408
   91CHL1    C1 9184   3.381   4.910   7.282 -0.1440 -0.4213  0.0079
   91CHL1   H1A 9185   3.484   4.873   7.302 -0.6432 -0.3713  3.2910
   91CHL1   H1B 9186   3.314   4.822   7.290 -1.4017  0.5949  0.9714
   91CHL1    C2 9187   3.376   4.973   7.140 -0.2290 -0.3625 -0.2539
   91CHL1   H2A 9188   3.388   4.896   7.061  1.1905  0.0413 -0.4495
   91CHL1   H2B 9189   3.452   5.052   7.122  0.8885 -1.2098  0.5898
   91CHL1   C20 9190   3.474   4.759   8.059 -0.4564 -0.2227  0.3898
   91CHL1   H20 9191   3.503   4.853   8.110 -0.9855  1.6760 -2.5490
   91CHL1   C21 9192   3.593   4.698   7.992 -0.6473 -0.2937  0.8489
   91CHL1  H21A 9193   3.566   4.619   7.919 -0.4562  0.4892 -0.0971
   91CHL1  H21B 9194   3.680   4.673   8.056  1.3386  0.3456 -1.4133
   91CHL1  H21C 9195   3.646   4.776   7.933 -1.8001  1.1928  1.7012
   91CHL1   C22 9196   3.417   4.661   8.159  0.2775  0.4675  0.4106
   91CHL1  H22A 9197   3.324   4.700   8.205 -0.1930 -0.4967  0.3048
   91CHL1  H22B 9198   3.386   4.560   8.125 -0.5926  0.3557  1.4809
   91CHL1   C23 9199   3.512   4.643   8.282  0.0516 -0.6413  0.0552
   91CHL1  H23A 9200   3.589   4.575   8.242  1.9342  2.1338 -1.3470
   91CHL1  H23B 9201   3.561   4.739   8.309  3.1923 -2.1956  0.2749
   91CHL1   C24 9202   3.447   4.577   8.401 -0.2741 -0.1259 -0.6775
   91CHL1  H24A 9203   3.399   4.651   8.468 -1.3794 -0.2781 -1.2775
   91CHL1  H24B 9204   3.366   4.506   8.372 -0.2888 -0.6626  0.6297
   91CHL1   C25 9205   3.550   4.497   8.491  0.3031  0.1815  0.2287
   91CHL1   H25 9206   3.630   4.561   8.532  0.4318  1.3339 -1.6902
   91CHL1   C26 9207   3.470   4.439   8.613 -0.3805 -0.2000  0.0457
   91CHL1  H26A 9208   3.387   4.376   8.575  0.8543 -0.9905 -1.4574
   91CHL1  H26B 9209   3.538   4.380   8.679  1.3136  0.2249 -1.2680
   91CHL1  H26C 9210   3.425   4.525   8.667  1.1793 -0.2898  1.5680
   91CHL1   C27 9211   3.617   4.375   8.428  0.5354 -0.1553  0.0240
   91CHL1  H27A 9212   3.675   4.412   8.341  1.2387 -1.0935  0.0728
   91CHL1  H27B 9213   3.679   4.332   8.510  0.3079 -0.8999 -0.1917
   91CHL1  H27C 9214   3.544   4.298   8.395 -0.8634  2.3278 -3.2855
   92CHL1    C3 9215   5.118   5.702   7.090  0.4061  0.5720 -0.0460
   92CHL1    H3 9216   5.192   5.786   7.097  0.1884  0.7858 -0.2935
   92CHL1    O3 9217   5.045   5.721   6.965 -0.2292 -0.6151 -0.0029
   92CHL1   H3' 9218   4.998   5.804   6.973  1.4176  0.3413  0.3195
   92CHL1    C4 9219   5.190   5.566   7.081  0.4210  0.1704 -0.8339
   92CHL1   H4A 9220   5.113   5.488   7.062  0.0859 -1.7189  5.7909
   92CHL1   H4B 9221   5.263   5.553   6.998  1.7929 -1.5762  0.5526
   92CHL1    C5 9222   5.257   5.535   7.213 -0.2434 -0.3354 -0.1874
   92CHL1    C6 9223   5.390   5.513   7.223 -0.1052  0.1593  0.5889
   92CHL1    H6 9224   5.438   5.492   7.127 -0.5418  0.0510  0.3915
   92CHL1    C7 9225   5.457   5.479   7.356 -0.3466 -0.4212  0.1297
   92CHL1   H7A 9226   5.517   5.386   7.342 -0.6965 -0.5875 -0.2992
   92CHL1   H7B 9227   5.536   5.553   7.378 -1.5923  0.7461  0.8697
   92CHL1    C8 9228   5.351   5.439   7.465  0.3993 -0.3633  0.0260
   92CHL1    H8 9229   5.309   5.340   7.439 -0.8023  0.2968 -0.5934
   92CHL1   C14 9230   5.423   5.425   7.609 -0.1034  0.5587  0.8935
   92CHL1   H14 9231   5.466   5.526   7.625  1.0855  0.0182  1.2251
   92CHL1   C15 9232   5.543   5.324   7.628  0.1981 -0.6473 -0.8765
   92CHL1  H15A 9233   5.522   5.247   7.551 -0.9694 -1.2158 -0.0290
   92CHL1  H15B 9234   5.640   5.375   7.609  1.2336 -0.7304  3.3335
   92CHL1   C16 9235   5.536   5.282   7.776 -0.2778  0.1768 -0.1466
   92CHL1  H16A 9236   5.498   5.180   7.796  0.5716  0.1734  1.6537
   92CHL1  H16B 9237   5.632   5.288   7.832 -1.5389 -0.6508  2.2355
   92CHL1   C17 9238   5.436   5.386   7.845 -0.2813  0.2067  0.6551
   92CHL1   H17 9239   5.500   5.476   7.862  1.4985 -1.1327  1.3974
   92CHL1   C13 9240   5.339   5.403   7.727 -0.0288 -0.7899  0.3019
   92CHL1   C18 9241   5.259   5.272   7.705 -0.5263 -0.0718  0.8446
   92CHL1  H18A 9242   5.337   5.203   7.667  0.3471  0.4925  1.5565
   92CHL1  H18B 9243   5.207   5.236   7.797  0.3148 -3.3939  0.1243
   92CHL1  H18C 9244   5.178   5.271   7.628  1.4430 -2.2023 -1.3398
   92CHL1   C12 9245   5.244   5.525   7.732 -0.1929  0.2027 -0.3227
   92CHL1  H12A 9246   5.178   5.514   7.820  1.5958 -1.6783  0.8622
   92CHL1  H12B 9247   5.298   5.622   7.737 -1.2730  0.8090 -0.1124
   92CHL1   C11 9248   5.157   5.541   7.603  0.5634  0.4430 -0.1740
   92CHL1  H11A 9249   5.086   5.456   7.602 -0.9215  1.6020  1.6246
   92CHL1  H11B 9250   5.095   5.630   7.624  2.1001  2.0495 -2.0202
   92CHL1    C9 9251   5.236   5.547   7.470 -0.7358  0.1519  0.2987
   92CHL1    H9 9252   5.291   5.643   7.475 -0.7578  0.4093 -2.6987
   92CHL1   C10 9253   5.159   5.557   7.335  0.0604  0.0852 -0.1007
   92CHL1   C19 9254   5.068   5.429   7.333  0.2769 -0.4511  0.1204
   92CHL1  H19A 9255   5.123   5.333   7.341  1.4952  0.3559  2.2654
   92CHL1  H19B 9256   4.999   5.442   7.419 -0.2076 -1.5926 -0.0684
   92CHL1  H19C 9257   4.997   5.431   7.247 -0.4124  1.5061  0.6899
   92CHL1    C1 9258   5.079   5.690   7.339  0.2498 -0.0816  0.4995
   92CHL1   H1A 9259   5.007   5.684   7.424 -0.5300  1.4801 -0.0071
   92CHL1   H1B 9260   5.153   5.770   7.359  1.8501 -1.5376  0.6758
   92CHL1    C2 9261   5.012   5.716   7.201 -0.5863  0.0402 -0.6305
   92CHL1   H2A 9262   4.965   5.817   7.201 -1.3225 -0.2552  1.3914
   92CHL1   H2B 9263   4.932   5.643   7.178 -2.5529  1.9928 -0.2520
   92CHL1   C20 9264   5.392   5.336   7.977 -0.2925 -0.2142 -0.1238
   92CHL1   H20 9265   5.327   5.249   7.954  0.7457 -0.7959 -0.9637
   92CHL1   C21 9266   5.304   5.449   8.048 -0.2103  0.1144  0.2400
   92CHL1  H21A 9267   5.261   5.418   8.145 -1.3612 -2.6006 -1.0397
   92CHL1  H21B 9268   5.219   5.487   7.987 -1.1894 -1.5704  0.4900
   92CHL1  H21C 9269   5.366   5.541   8.062 -1.5413  1.3060 -1.2648
   92CHL1   C22 9270   5.501   5.294   8.068  0.1411  0.4149 -0.0797
   92CHL1  H22A 9271   5.541   5.201   8.021  0.7953  0.1617  0.9545
   92CHL1  H22B 9272   5.579   5.371   8.085 -0.3775  0.6948  1.1328
   92CHL1   C23 9273   5.459   5.248   8.212 -0.0595 -0.0623 -0.2236
   92CHL1  H23A 9274   5.437   5.339   8.272  0.0761 -0.3114  0.2138
   92CHL1  H23B 9275   5.369   5.185   8.196 -1.2230  1.8202 -1.3695
   92CHL1   C24 9276   5.567   5.171   8.288  0.5504 -0.1712  0.0116
   92CHL1  H24A 9277   5.576   5.075   8.234 -1.5391  0.1823 -1.0446
   92CHL1  H24B 9278   5.659   5.235   8.288  0.2246  0.3131  0.6882
   92CHL1   C25 9279   5.538   5.146   8.433 -0.3668 -0.6322 -0.5009
   92CHL1   H25 9280   5.540   5.245   8.484  0.5015 -1.3591  0.9445
   92CHL1   C26 9281   5.407   5.059   8.454 -0.6216  0.2394 -0.8798
   92CHL1  H26A 9282   5.410   4.958   8.409  1.8212 -0.8413  1.4263
   92CHL1  H26B 9283   5.390   5.054   8.564  1.3411  0.8261 -0.5114
   92CHL1  H26C 9284   5.316   5.104   8.409 -1.8263 -0.6400  0.5809
   92CHL1   C27 9285   5.657   5.077   8.496  0.0594  0.0210 -0.1849
   92CHL1  H27A 9286   5.640   5.079   8.606 -0.1518  1.8220 -0.2206
   92CHL1  H27B 9287   5.666   4.972   8.461 -0.9950  0.1229 -0.8190
   92CHL1  H27C 9288   5.743   5.142   8.470  0.2805 -0.1767  0.0540
   93CHL1    C3 9289   2.191   5.528   6.764  0.2456 -0.0709  0.4785
   93CHL1    H3 9290   2.264   5.590   6.821  0.3824  0.9933 -0.8021
   93CHL1    O3 9291   2.190   5.586   6.634 -0.2153  0.0062  0.3159
   93CHL1   H3' 9292   2.124   5.536   6.585 -0.3470  1.3028 -0.8835
   93CHL1    C4 9293   2.232   5.382   6.770 -0.0029 -0.2258  0.3663
   93CHL1   H4A 9294   2.155   5.322   6.718 -2.4964  0.9832  2.4225
   93CHL1   H4B 9295   2.334   5.388   6.726  0.3901  2.9773  1.4269
   93CHL1    C5 9296   2.245   5.336   6.911 -0.0608  0.0570 -0.0730
   93CHL1    C6 9297   2.358   5.287   6.964 -0.3431 -0.2040  0.3832
   93CHL1    H6 9298   2.451   5.272   6.908  0.2256 -3.5431  1.9839
   93CHL1    C7 9299   2.373   5.238   7.106 -1.0884  0.7155  0.1842
   93CHL1   H7A 9300   2.407   5.133   7.091 -1.8282  0.6507 -1.1650
   93CHL1   H7B 9301   2.459   5.277   7.164  0.4682 -2.9944  0.6421
   93CHL1    C8 9302   2.243   5.223   7.187 -0.3333 -0.1909  0.2241
   93CHL1    H8 9303   2.206   5.119   7.178  1.0981 -0.5985 -1.5905
   93CHL1   C14 9304   2.272   5.236   7.334 -0.0253 -0.3611  0.3937
   93CHL1   H14 9305   2.299   5.343   7.350 -1.7302  0.1292  0.1773
   93CHL1   C15 9306   2.380   5.150   7.391  0.8158 -0.2483  0.1000
   93CHL1  H15A 9307   2.357   5.050   7.347 -0.1357  1.1719 -2.9146
   93CHL1  H15B 9308   2.486   5.172   7.365  0.2732  2.0263 -0.3528
   93CHL1   C16 9309   2.349   5.152   7.545 -0.2585  0.2132 -0.1976
   93CHL1  H16A 9310   2.337   5.059   7.604 -1.1449  0.9648  0.8511
   93CHL1  H16B 9311   2.426   5.215   7.595 -1.6850  0.6562  1.5381
   93CHL1   C17 9312   2.213   5.216   7.566  0.5649 -0.0019  0.5993
   93CHL1   H17 9313   2.225   5.324   7.591  2.1506 -0.1538  0.5456
   93CHL1   C13 9314   2.150   5.208   7.422  0.2936  0.1377 -0.5467
   93CHL1   C18 9315   2.096   5.064   7.420 -0.1450  0.1097 -0.0429
   93CHL1  H18A 9316   2.175   4.991   7.447 -0.1151  0.4565  0.8501
   93CHL1  H18B 9317   2.003   5.047   7.480  0.0464 -0.4208  0.1070
   93CHL1  H18C 9318   2.058   5.044   7.317 -0.1655  2.3198 -0.5193
   93CHL1   C12 9319   2.038   5.309   7.389  0.1344  0.5188  0.1751
   93CHL1  H12A 9320   1.939   5.283   7.432  0.5460  0.1886  0.9571
   93CHL1  H12B 9321   2.082   5.404   7.425  1.5089 -0.9904  2.8565
   93CHL1   C11 9322   2.008   5.309   7.236 -0.1247 -0.6787 -0.1824
   93CHL1  H11A 9323   1.947   5.221   7.206 -1.3383 -0.2152  0.8082
   93CHL1  H11B 9324   1.941   5.397   7.223 -0.9489 -0.9820  1.6575
   93CHL1    C9 9325   2.142   5.331   7.155 -0.4706 -0.4017  0.2023
   93CHL1    H9 9326   2.182   5.430   7.187  0.7501  0.7941 -4.3177
   93CHL1   C10 9327   2.120   5.350   6.999  0.1971 -0.5111 -0.6265
   93CHL1   C19 9328   2.029   5.243   6.958 -0.3012  0.4286 -0.0512
   93CHL1  H19A 9329   2.024   5.227   6.848  2.0754 -0.5955 -0.0831
   93CHL1  H19B 9330   2.058   5.143   6.997 -0.4835  0.1897 -0.5115
   93CHL1  H19C 9331   1.928   5.257   7.000 -0.8049 -0.4018 -0.9326
   93CHL1    C1 9332   2.062   5.500   6.974 -0.0310 -0.0467 -0.6457
   93CHL1   H1A 9333   1.955   5.503   7.004  0.2198 -0.8647  0.4221
   93CHL1   H1B 9334   2.128   5.575   7.023  1.6216 -0.5276 -2.0415
   93CHL1    C2 9335   2.057   5.546   6.830 -0.0043  0.7511  1.0325
   93CHL1   H2A 9336   2.008   5.644   6.815 -2.8895 -0.8937 -1.3916
   93CHL1   H2B 9337   1.982   5.484   6.777  1.8816  0.7355 -1.8302
   93CHL1   C20 9338   2.129   5.163   7.683  0.0477  0.1241  0.0057
   93CHL1   H20 9339   2.122   5.052   7.679  0.1407  0.0491  1.2910
   93CHL1   C21 9340   1.986   5.243   7.684 -0.4987 -0.0128  0.3877
   93CHL1  H21A 9341   1.926   5.201   7.601  0.4335  1.6208 -1.2084
   93CHL1  H21B 9342   1.994   5.354   7.678  1.8702  0.1379  3.7045
   93CHL1  H21C 9343   1.939   5.225   7.782 -1.7203 -0.1823 -0.2132
   93CHL1   C22 9344   2.201   5.202   7.823 -0.7048  0.6463  0.2458
   93CHL1  H22A 9345   2.309   5.176   7.817 -0.1917  2.7386 -0.3097
   93CHL1  H22B 9346   2.188   5.309   7.848  0.0391  1.5085 -2.5929
   93CHL1   C23 9347   2.154   5.128   7.946  0.2453 -0.6940 -0.1347
   93CHL1  H23A 9348   2.049   5.162   7.959  0.5413  0.0280  0.3843
   93CHL1  H23B 9349   2.140   5.020   7.922 -0.6712 -1.0357  1.7313
   93CHL1   C24 9350   2.248   5.141   8.073  0.4054  0.8035 -0.3431
   93CHL1  H24A 9351   2.346   5.094   8.049 -0.0559 -1.4998  1.8327
   93CHL1  H24B 9352   2.271   5.241   8.114  1.3440 -0.1088  1.4917
   93CHL1   C25 9353   2.211   5.051   8.191 -0.0081  0.5298 -0.0908
   93CHL1   H25 9354   2.192   4.948   8.154 -0.0478  0.8967 -1.1067
   93CHL1   C26 9355   2.321   5.046   8.301 -0.2554  0.7145  0.5123
   93CHL1  H26A 9356   2.292   4.981   8.387  1.9859  0.7793  1.3684
   93CHL1  H26B 9357   2.412   5.002   8.256 -2.1421 -0.0356 -2.8645
   93CHL1  H26C 9358   2.355   5.148   8.330 -0.2020  0.8789 -0.1123
   93CHL1   C27 9359   2.085   5.110   8.264  0.7213  0.4407  0.1163
   93CHL1  H27A 9360   2.047   5.033   8.334  0.7782  1.2004  1.0093
   93CHL1  H27B 9361   2.123   5.201   8.314 -1.8640  2.1119 -0.7156
   93CHL1  H27C 9362   2.007   5.156   8.199  1.7503  2.7652  0.4245
   94CHL1    C3 9363   4.971   1.642   6.921 -0.2581 -0.0365 -0.6244
   94CHL1    H3 9364   4.878   1.697   6.945  1.9710  3.6907  0.4587
   94CHL1    O3 9365   4.981   1.609   6.780 -0.5123 -0.3743 -0.4929
   94CHL1   H3' 9366   5.071   1.577   6.766  0.1738  1.0432  0.3424
   94CHL1    C4 9367   5.090   1.734   6.960  0.6391  0.4420  0.3529
   94CHL1   H4A 9368   5.187   1.682   6.941 -0.7829 -1.9911 -0.8516
   94CHL1   H4B 9369   5.084   1.824   6.895 -2.6434  1.3385  1.6902
   94CHL1    C5 9370   5.083   1.774   7.106  0.2346 -0.0371 -0.2654
   94CHL1    C6 9371   5.087   1.901   7.141  0.1272  0.6418  0.2622
   94CHL1    H6 9372   5.098   1.973   7.058  0.9226  0.5063  0.2411
   94CHL1    C7 9373   5.075   1.953   7.281 -0.1449  0.6230 -0.6671
   94CHL1   H7A 9374   5.134   2.045   7.298 -1.9132  1.7853 -0.5316
   94CHL1   H7B 9375   4.967   1.977   7.293  0.2584  1.8191  0.9208
   94CHL1    C8 9376   5.096   1.848   7.389 -0.2846 -0.1926  0.1663
   94CHL1    H8 9377   5.203   1.821   7.402 -0.6087 -1.9228 -0.5376
   94CHL1   C14 9378   5.037   1.892   7.514  0.2590  0.1210 -0.1156
   94CHL1   H14 9379   4.927   1.908   7.505  0.9387  6.5148 -1.9444
   94CHL1   C15 9380   5.079   2.032   7.574  0.0354 -0.4563  0.3404
   94CHL1  H15A 9381   5.190   2.025   7.572  0.1066  0.7242 -0.6104
   94CHL1  H15B 9382   5.058   2.129   7.525  3.0115  0.5778  0.9021
   94CHL1   C16 9383   5.024   2.022   7.716 -0.3562  0.4307 -0.1493
   94CHL1  H16A 9384   5.112   2.029   7.784  0.1820 -0.5385 -0.7236
   94CHL1  H16B 9385   4.936   2.083   7.746  0.1668  1.6308 -0.9634
   94CHL1   C17 9386   4.983   1.877   7.751  0.1586 -0.4083  0.1248
   94CHL1   H17 9387   4.873   1.869   7.732 -0.1542  3.5289 -0.4524
   94CHL1   C13 9388   5.047   1.789   7.633  0.1605  0.0436 -0.5569
   94CHL1   C18 9389   5.198   1.762   7.663 -0.0009  0.2703 -0.1209
   94CHL1  H18A 9390   5.192   1.678   7.736 -0.4637 -0.2474 -0.7502
   94CHL1  H18B 9391   5.247   1.713   7.576 -2.6840 -1.4977 -0.7530
   94CHL1  H18C 9392   5.253   1.845   7.713 -1.7028  0.6462  1.2124
   94CHL1   C12 9393   4.974   1.661   7.601  0.1882  0.0687  0.7657
   94CHL1  H12A 9394   4.978   1.586   7.683 -1.5449  0.7790  1.5689
   94CHL1  H12B 9395   4.864   1.679   7.592  0.8430  4.7168 -1.0093
   94CHL1   C11 9396   5.021   1.602   7.467 -0.3490 -0.6098  1.1415
   94CHL1  H11A 9397   5.121   1.559   7.490 -0.3780 -0.9752  0.6152
   94CHL1  H11B 9398   4.952   1.519   7.441 -0.3046 -0.7907  1.5888
   94CHL1    C9 9399   5.023   1.708   7.352 -0.2176 -1.0175 -0.0213
   94CHL1    H9 9400   4.918   1.743   7.343  0.4261  1.5127  1.2481
   94CHL1   C10 9401   5.063   1.655   7.210  0.4039 -0.3488  0.3670
   94CHL1   C19 9402   5.197   1.577   7.220  0.1419 -0.5001  0.0563
   94CHL1  H19A 9403   5.236   1.532   7.127  1.8080 -1.8960  1.3652
   94CHL1  H19B 9404   5.273   1.640   7.270  1.7744 -1.8343 -0.6571
   94CHL1  H19C 9405   5.183   1.492   7.291  2.8806  0.2490  1.6475
   94CHL1    C1 9406   4.952   1.554   7.159  0.1497 -0.5532  0.1139
   94CHL1   H1A 9407   4.946   1.463   7.222  0.4518 -0.1629  0.7264
   94CHL1   H1B 9408   4.855   1.608   7.172 -0.6733 -2.1461  0.8222
   94CHL1    C2 9409   4.969   1.516   7.004 -0.7688  0.2523  0.1036
   94CHL1   H2A 9410   4.897   1.441   6.966 -0.1524 -0.5248  0.4531
   94CHL1   H2B 9411   5.071   1.472   6.997 -0.1372  1.6286  0.1484
   94CHL1   C20 9412   5.009   1.828   7.898  0.0481 -0.4960  0.5098
   94CHL1   H20 9413   5.119   1.833   7.912  0.3667 -1.3599 -1.3465
   94CHL1   C21 9414   4.963   1.684   7.923 -0.0145 -0.8033 -0.4927
   94CHL1  H21A 9415   4.855   1.689   7.899 -0.5817  1.4616  1.9991
   94CHL1  H21B 9416   4.966   1.664   8.032  1.3897  2.7504  0.2646
   94CHL1  H21C 9417   5.020   1.607   7.867  2.1939  2.4863 -3.1562
   94CHL1   C22 9418   4.948   1.924   8.005 -0.3020 -1.1472 -0.0412
   94CHL1  H22A 9419   4.982   1.912   8.110  3.1480  1.6842 -0.6647
   94CHL1  H22B 9420   4.989   2.022   7.974 -0.9468 -1.3936 -1.7760
   94CHL1   C23 9421   4.791   1.931   8.002 -0.6288  0.0032 -0.3038
   94CHL1  H23A 9422   4.752   1.952   7.900  1.0491  1.2536 -0.7429
   94CHL1  H23B 9423   4.755   1.841   8.055 -1.3095  0.1219 -0.5549
   94CHL1   C24 9424   4.736   2.038   8.102  0.0602 -0.3565 -0.6163
   94CHL1  H24A 9425   4.772   1.996   8.198 -1.0185 -2.1916 -0.9631
   94CHL1  H24B 9426   4.773   2.140   8.078 -2.8759  0.7446 -0.8007
   94CHL1   C25 9427   4.580   2.053   8.112  0.1863 -0.0966  0.4446
   94CHL1   H25 9428   4.530   1.955   8.125 -0.3119 -0.0194 -0.7693
   94CHL1   C26 9429   4.539   2.143   8.225 -0.4544  0.4120 -0.7903
   94CHL1  H26A 9430   4.592   2.108   8.316 -0.3172 -0.4797 -1.2053
   94CHL1  H26B 9431   4.573   2.249   8.223  1.2728 -0.0301  0.9671
   94CHL1  H26C 9432   4.432   2.136   8.253 -0.2395  0.5968  0.1379
   94CHL1   C27 9433   4.524   2.114   7.983  0.0447  0.1662  0.2531
   94CHL1  H27A 9434   4.414   2.098   7.990  0.3335 -1.9781  0.5891
   94CHL1  H27B 9435   4.545   2.221   7.965 -2.6791  0.7602  0.1272
   94CHL1  H27C 9436   4.552   2.056   7.892  2.2368  0.9638  0.3721
   95CHL1    C3 9437   6.782   0.747   6.689 -0.0931  0.4841  0.8912
   95CHL1    H3 9438   6.696   0.813   6.665 -1.2223 -1.2113  0.0507
   95CHL1    O3 9439   6.827   0.704   6.560 -0.2030 -1.3857  0.6067
   95CHL1   H3' 9440   6.923   0.700   6.566 -0.1901 -0.8163  0.8330
   95CHL1    C4 9441   6.889   0.834   6.754  0.5618 -0.3559 -0.1160
   95CHL1   H4A 9442   6.978   0.767   6.766  0.1429 -0.3974  4.7859
   95CHL1   H4B 9443   6.915   0.924   6.694 -1.8753  2.7122  3.0470
   95CHL1    C5 9444   6.846   0.884   6.892 -0.7068  0.0270  0.0335
   95CHL1    C6 9445   6.849   1.017   6.930  0.8564 -0.3464  0.2891
   95CHL1    H6 9446   6.878   1.095   6.858 -0.6230  1.2628  1.3424
   95CHL1    C7 9447   6.826   1.057   7.073  0.0711  0.3235  0.3874
   95CHL1   H7A 9448   6.904   1.129   7.105  0.4804  0.5128 -0.9669
   95CHL1   H7B 9449   6.729   1.110   7.087  0.1643  0.6214 -0.0674
   95CHL1    C8 9450   6.832   0.940   7.176 -0.5150  0.5464  0.5460
   95CHL1    H8 9451   6.943   0.930   7.181 -0.3507  0.9321 -1.3648
   95CHL1   C14 9452   6.774   0.988   7.302 -0.3664  0.2856 -1.1580
   95CHL1   H14 9453   6.667   1.014   7.287 -1.4335 -1.0906  2.7246
   95CHL1   C15 9454   6.846   1.106   7.365 -0.1284  0.0746  0.4606
   95CHL1  H15A 9455   6.956   1.090   7.370 -0.2922 -1.9836 -1.2282
   95CHL1  H15B 9456   6.826   1.205   7.319 -1.5811 -0.4895 -0.1864
   95CHL1   C16 9457   6.792   1.100   7.515 -0.0605  0.5431  0.0510
   95CHL1  H16A 9458   6.869   1.110   7.595 -0.1117  1.1131  0.0351
   95CHL1  H16B 9459   6.723   1.187   7.516 -2.1885 -1.0310 -1.3194
   95CHL1   C17 9460   6.716   0.961   7.532 -0.3451 -0.0925 -0.1959
   95CHL1   H17 9461   6.615   0.989   7.495 -0.5085  0.3908  0.6092
   95CHL1   C13 9462   6.763   0.870   7.409 -0.4080 -0.6197 -0.4543
   95CHL1   C18 9463   6.912   0.818   7.439  0.7830 -0.3195 -0.4749
   95CHL1  H18A 9464   6.964   0.784   7.347  0.6833 -1.4222 -0.1410
   95CHL1  H18B 9465   6.968   0.901   7.487  0.6206  0.1015 -1.0122
   95CHL1  H18C 9466   6.902   0.743   7.521  0.2700  0.2488 -0.0084
   95CHL1   C12 9467   6.672   0.760   7.364 -0.0301 -0.1547 -0.3771
   95CHL1  H12A 9468   6.666   0.670   7.428  1.1483  0.0742  0.1058
   95CHL1  H12B 9469   6.568   0.798   7.359  0.3000  0.5873 -2.5654
   95CHL1   C11 9470   6.727   0.704   7.232 -0.6141 -0.2405 -0.3195
   95CHL1  H11A 9471   6.819   0.645   7.253 -1.8163 -1.2669  2.4100
   95CHL1  H11B 9472   6.663   0.630   7.180  0.6390 -2.8027  1.6007
   95CHL1    C9 9473   6.757   0.816   7.122 -0.3047  0.1821 -0.4482
   95CHL1    H9 9474   6.662   0.872   7.107 -1.2122 -1.2265 -0.1120
   95CHL1   C10 9475   6.806   0.765   6.979  0.1669  0.2784  0.1303
   95CHL1   C19 9476   6.938   0.673   6.997 -0.4091 -0.6274 -0.2226
   95CHL1  H19A 9477   6.965   0.624   6.901  0.5729  0.0072 -0.2888
   95CHL1  H19B 9478   7.022   0.725   7.047 -1.1696  0.3887  0.0406
   95CHL1  H19C 9479   6.906   0.584   7.054  1.0170 -2.4250 -2.0854
   95CHL1    C1 9480   6.688   0.684   6.914  0.1326  0.4117 -0.2539
   95CHL1   H1A 9481   6.668   0.598   6.982 -3.8700  1.8948  0.6962
   95CHL1   H1B 9482   6.600   0.751   6.904  1.9070  2.9497  0.0974
   95CHL1    C2 9483   6.724   0.631   6.774  0.2212 -0.1789 -0.1505
   95CHL1   H2A 9484   6.628   0.587   6.739  0.1280 -1.0492  1.1159
   95CHL1   H2B 9485   6.802   0.552   6.777  0.2624 -0.1929 -1.1775
   95CHL1   C20 9486   6.706   0.901   7.675  0.1708  0.2225 -0.0958
   95CHL1   H20 9487   6.797   0.840   7.696  0.3475  0.7352  0.6754
   95CHL1   C21 9488   6.589   0.802   7.679  0.5569 -0.2420  0.2407
   95CHL1  H21A 9489   6.556   0.787   7.784 -1.4979 -1.4393 -0.5255
   95CHL1  H21B 9490   6.621   0.705   7.634  0.1592 -0.8090  1.1676
   95CHL1  H21C 9491   6.504   0.830   7.614  0.2055 -0.7406  0.4754
   95CHL1   C22 9492   6.684   1.013   7.778  1.0183  0.4275  0.5962
   95CHL1  H22A 9493   6.679   0.979   7.884 -0.7340  0.0343  0.4274
   95CHL1  H22B 9494   6.768   1.085   7.773  0.3223  1.2648  0.7919
   95CHL1   C23 9495   6.550   1.092   7.764 -0.0473  0.1965  0.2980
   95CHL1  H23A 9496   6.559   1.128   7.659  0.2752 -2.2943 -0.5974
   95CHL1  H23B 9497   6.456   1.034   7.769 -0.0717  0.2000 -0.0954
   95CHL1   C24 9498   6.533   1.195   7.875 -0.4851  0.5679  0.3231
   95CHL1  H24A 9499   6.551   1.135   7.966  2.7315  0.6574 -0.1281
   95CHL1  H24B 9500   6.622   1.262   7.866 -1.7503  2.4195  1.0484
   95CHL1   C25 9501   6.404   1.270   7.871  0.1709 -0.1820  0.3033
   95CHL1   H25 9502   6.320   1.198   7.862  0.1726 -0.1225 -0.1924
   95CHL1   C26 9503   6.399   1.347   8.001  0.3365 -0.8113 -0.2075
   95CHL1  H26A 9504   6.428   1.270   8.076 -1.6268  0.2055  1.7055
   95CHL1  H26B 9505   6.474   1.429   8.012  0.2978 -0.9222  0.9871
   95CHL1  H26C 9506   6.295   1.382   8.019  0.3560 -0.0981 -1.3399
   95CHL1   C27 9507   6.399   1.371   7.752  0.2103  0.6375  0.4978
   95CHL1  H27A 9508   6.438   1.315   7.664  1.5794 -0.6800  1.8774
   95CHL1  H27B 9509   6.293   1.400   7.736 -0.1366 -0.0171  1.4887
   95CHL1  H27C 9510   6.466   1.457   7.775  1.5498 -0.2490  0.0249
   96CHL1    C3 9511   5.723   2.481   6.685  0.9075  0.8701  0.4787
   96CHL1    H3 9512   5.675   2.580   6.670  3.4706  2.2398  0.6673
   96CHL1    O3 9513   5.716   2.412   6.560 -0.0691  0.6227  0.1875
   96CHL1   H3' 9514   5.763   2.330   6.580  2.2753  1.3296 -1.8562
   96CHL1    C4 9515   5.865   2.513   6.739  0.6896  0.3553  0.2092
   96CHL1   H4A 9516   5.914   2.413   6.742  3.0907  1.4312 -0.6935
   96CHL1   H4B 9517   5.930   2.565   6.666  1.4131  0.4905  0.9369
   96CHL1    C5 9518   5.887   2.563   6.876  0.6556  0.6601 -0.6407
   96CHL1    C6 9519   5.956   2.667   6.915  0.2220 -0.2052 -0.0834
   96CHL1    H6 9520   6.012   2.724   6.838  1.2842  1.8104  2.0495
   96CHL1    C7 9521   5.985   2.710   7.054 -0.0952 -0.2750 -0.5119
   96CHL1   H7A 9522   6.092   2.735   7.069 -0.5225  1.7534 -0.5519
   96CHL1   H7B 9523   5.924   2.801   7.070  0.9286  0.4504 -0.6372
   96CHL1    C8 9524   5.940   2.607   7.163 -0.1064  0.1480  0.1044
   96CHL1    H8 9525   6.016   2.527   7.169 -0.2972  0.0011  0.6374
   96CHL1   C14 9526   5.920   2.674   7.301  0.7162 -0.7400  1.2260
   96CHL1   H14 9527   5.847   2.757   7.290 -0.9417 -2.1355  1.1928
   96CHL1   C15 9528   6.034   2.751   7.364 -0.7400 -0.0044  0.1126
   96CHL1  H15A 9529   6.128   2.691   7.367 -1.5972 -1.5012 -1.5936
   96CHL1  H15B 9530   6.039   2.848   7.310  0.9114 -0.4697 -0.6243
   96CHL1   C16 9531   5.981   2.775   7.503 -0.0622 -0.2393  0.1965
   96CHL1  H16A 9532   6.063   2.766   7.578  0.3480  0.6266 -0.1343
   96CHL1  H16B 9533   5.955   2.883   7.512 -2.0703 -0.8361  2.6103
   96CHL1   C17 9534   5.861   2.678   7.525 -0.8198 -0.0749 -0.4441
   96CHL1   H17 9535   5.763   2.730   7.517 -0.6697 -0.1023 -3.4915
   96CHL1   C13 9536   5.869   2.577   7.406  0.0832  0.2031 -0.8481
   96CHL1   C18 9537   5.972   2.468   7.431 -0.5373  0.5213 -0.3772
   96CHL1  H18A 9538   6.067   2.524   7.445 -0.2024  1.0204 -3.8137
   96CHL1  H18B 9539   5.944   2.399   7.514 -1.8744  2.6512  1.0271
   96CHL1  H18C 9540   5.996   2.404   7.343 -2.0770 -0.0427 -0.4114
   96CHL1   C12 9541   5.732   2.514   7.365 -0.3132 -0.2011 -0.4115
   96CHL1  H12A 9542   5.704   2.432   7.434 -0.7155  0.9047  0.8068
   96CHL1  H12B 9543   5.661   2.600   7.363 -0.4567 -0.3215 -0.4952
   96CHL1   C11 9544   5.747   2.447   7.227  0.1349 -0.5751 -0.3450
   96CHL1  H11A 9545   5.808   2.357   7.251  0.1458 -0.1728  1.1934
   96CHL1  H11B 9546   5.650   2.413   7.183 -0.2673  0.0217  0.0628
   96CHL1    C9 9547   5.802   2.544   7.123 -0.0737 -0.0153 -0.7879
   96CHL1    H9 9548   5.730   2.629   7.116  0.0221  0.2982  1.3006
   96CHL1   C10 9549   5.812   2.477   6.980  0.3479  0.1389 -0.6251
   96CHL1   C19 9550   5.870   2.341   6.988 -0.1248 -0.4503  0.2363
   96CHL1  H19A 9551   5.962   2.348   7.050 -1.2786 -0.7681  2.0645
   96CHL1  H19B 9552   5.804   2.273   7.046  0.5633 -0.1593  1.3916
   96CHL1  H19C 9553   5.893   2.296   6.889 -0.1965  1.3770 -0.6458
   96CHL1    C1 9554   5.668   2.481   6.926  0.0126  0.5943 -0.2710
   96CHL1   H1A 9555   5.604   2.430   7.001 -0.5525  2.0900  0.2892
   96CHL1   H1B 9556   5.629   2.584   6.913  0.1387  0.6060 -0.5818
   96CHL1    C2 9557   5.649   2.403   6.788 -0.3396 -0.3938 -0.5101
   96CHL1   H2A 9558   5.541   2.397   6.763 -0.8009  1.5498  0.7470
   96CHL1   H2B 9559   5.694   2.304   6.809 -0.9249 -0.6406 -0.3995
   96CHL1   C20 9560   5.849   2.618   7.666 -0.0470 -0.0402  0.0681
   96CHL1   H20 9561   5.929   2.543   7.684 -0.3264 -0.1742  0.7949
   96CHL1   C21 9562   5.721   2.537   7.688  0.0667 -0.0327 -0.4473
   96CHL1  H21A 9563   5.708   2.447   7.625 -1.8690  1.9043 -3.0245
   96CHL1  H21B 9564   5.637   2.604   7.660 -1.2464 -1.9248 -1.2218
   96CHL1  H21C 9565   5.713   2.505   7.795 -1.6210 -3.2458 -1.4104
   96CHL1   C22 9566   5.844   2.733   7.770  0.2918 -0.1032 -0.1754
   96CHL1  H22A 9567   5.928   2.802   7.748  0.0008  0.4452  0.3983
   96CHL1  H22B 9568   5.744   2.777   7.753  0.1917 -0.7429 -1.3416
   96CHL1   C23 9569   5.863   2.695   7.919 -0.4093  0.5217  0.0317
   96CHL1  H23A 9570   5.778   2.628   7.944  1.2844 -1.3177  1.2271
   96CHL1  H23B 9571   5.943   2.620   7.937 -0.7743  0.3867  1.1941
   96CHL1   C24 9572   5.882   2.804   8.018 -0.4711 -0.2024  0.1282
   96CHL1  H24A 9573   5.984   2.847   8.012 -0.1424 -1.0178 -0.2383
   96CHL1  H24B 9574   5.814   2.885   7.986  0.8483 -0.2583 -3.0994
   96CHL1   C25 9575   5.865   2.758   8.162  0.4641 -0.3688  0.4177
   96CHL1   H25 9576   5.775   2.693   8.168  1.5614 -2.3986 -2.4806
   96CHL1   C26 9577   5.984   2.670   8.210  0.5288  1.1534  0.5271
   96CHL1  H26A 9578   5.985   2.571   8.161  2.3988  1.2875  0.2341
   96CHL1  H26B 9579   6.079   2.723   8.185  0.2769  1.9426  1.1893
   96CHL1  H26C 9580   5.994   2.660   8.320  0.4488  0.4872  0.4752
   96CHL1   C27 9581   5.871   2.876   8.258 -0.3935 -0.6087  0.0059
   96CHL1  H27A 9582   5.838   2.843   8.358 -1.3334 -1.1849 -0.4814
   96CHL1  H27B 9583   5.979   2.899   8.261 -0.3943 -0.6082  0.0297
   96CHL1  H27C 9584   5.811   2.962   8.220  1.3474  2.0616  2.8521
   97OSM      N 9585   2.802   0.581  11.017  0.1275  0.1112  1.0753
   97OSM    C15 9586   2.857   0.676  10.914  0.2062 -0.5919 -0.3192
   97OSM   H15A 9587   2.789   0.760  10.924  0.1048 -0.6527 -0.5002
   97OSM   H15B 9588   2.858   0.630  10.816 -2.7800 -0.1043 -0.6700
   97OSM   H15C 9589   2.955   0.714  10.941 -0.0697 -0.8671  1.1705
   97OSM    C14 9590   2.663   0.551  10.974  0.3809  0.0693  1.0679
   97OSM   H14A 9591   2.616   0.623  10.909  1.7947 -0.7175 -0.9042
   97OSM   H14B 9592   2.595   0.545  11.058  1.2258 -0.2054  1.7384
   97OSM   H14C 9593   2.650   0.464  10.911  0.6824  1.6257 -1.2729
   97OSM    C13 9594   2.882   0.451  11.027  0.4977 -0.5189 -0.1055
   97OSM   H13A 9595   2.892   0.407  10.929  0.1774  0.0183 -0.3866
   97OSM   H13B 9596   2.819   0.377  11.074  0.2723 -2.0851 -2.6622
   97OSM   H13C 9597   2.978   0.458  11.075 -0.8315 -3.2391  3.3987
   97OSM    C12 9598   2.801   0.649  11.151  0.1165  0.3091 -0.2341
   97OSM   H12A 9599   2.900   0.669  11.190 -0.8097 -0.7942  3.0098
   97OSM   H12B 9600   2.762   0.569  11.212  0.9329 -1.1038 -1.5219
   97OSM    C11 9601   2.736   0.784  11.166  0.3278 -0.2520 -0.5686
   97OSM   H11A 9602   2.711   0.806  11.272 -0.1072 -2.8200 -0.0678
   97OSM   H11B 9603   2.644   0.792  11.104 -1.7501  0.1280  2.3563
   97OSM      P 9604   2.801   1.023  11.076 -0.5430 -0.1840 -0.0871
   97OSM    O13 9605   2.693   1.074  11.162 -0.1079 -0.2957 -0.3328
   97OSM    O14 9606   2.929   1.098  11.076 -0.3868 -0.4809  0.9674
   97OSM    O11 9607   2.752   0.999  10.933 -0.3679  0.7712  0.0527
   97OSM    O12 9608   2.836   0.879  11.128  0.4477 -0.5408  0.4112
   97OSM    C1S 9609   2.810   1.041  10.813  0.0153 -0.4448 -0.6913
   97OSM    H1S 9610   2.918   1.015  10.805  0.3908  0.9237 -0.3091
   97OSM    H1T 9611   2.809   1.152  10.811  0.3233 -0.4441 -0.8209
   97OSM     NF 9612   2.802   1.000  10.559 -0.0370 -0.9027  0.3008
   97OSM    HNF 9613   2.793   1.086  10.510 -0.8498 -1.4540 -0.5513
   97OSM    C2S 9614   2.734   0.989  10.688  0.2151 -0.4704  0.5067
   97OSM    H2S 9615   2.710   0.882  10.710 -1.6914 -0.2210 -0.2155
   97OSM    C3S 9616   2.593   1.063  10.682  0.0036 -0.6137 -0.7427
   97OSM    H3S 9617   2.617   1.169  10.659 -0.2524  0.4795  3.2595
   97OSM     O3 9618   2.515   1.067  10.806 -0.3105 -0.6281  0.5098
   97OSM    HO3 9619   2.580   1.026  10.863  0.0724  0.3979  0.8456
   97OSM    C4S 9620   2.508   1.000  10.579 -0.3387 -0.0682 -0.4638
   97OSM    H4S 9621   2.467   0.910  10.626 -0.0733  1.1875  2.3445
   97OSM    C5S 9622   2.478   1.054  10.457 -0.6886  0.5080  0.4188
   97OSM    H5S 9623   2.528   1.144  10.420  0.2491 -0.8736 -1.9266
   97OSM    C6S 9624   2.379   0.986  10.364  0.1514 -0.5220 -0.6118
   97OSM    H6S 9625   2.335   1.070  10.307  1.0406  1.5857  1.6254
   97OSM    H6T 9626   2.302   0.929  10.420  0.4057 -0.1347  0.1559
   97OSM    C7S 9627   2.455   0.904  10.258 -1.0102 -0.0764  0.6851
   97OSM    H7S 9628   2.378   0.891  10.180 -0.7212  0.8968  0.2222
   97OSM    H7T 9629   2.471   0.807  10.310 -2.9563 -1.7627 -1.6192
   97OSM    C8S 9630   2.576   0.975  10.189  0.2330 -0.1346  0.3429
   97OSM    H8S 9631   2.657   0.983  10.264 -0.5692 -2.0144  1.4767
   97OSM    H8T 9632   2.533   1.077  10.181 -2.8975 -1.4229 -0.8591
   97OSM    C9S 9633   2.635   0.909  10.063 -0.4711 -0.5454  0.5995
   97OSM    H9S 9634   2.666   0.806  10.087  1.2585  0.2310  1.8467
   97OSM    H9T 9635   2.727   0.963  10.032 -1.5561  1.5235  0.8143
   97OSM   C10S 9636   2.546   0.903   9.938  0.2450  0.4622 -0.4612
   97OSM   H10S 9637   2.522   1.009   9.916 -0.3861 -0.1772 -3.2597
   97OSM   H10T 9638   2.453   0.846   9.959  0.7980 -0.5325 -0.6186
   97OSM   C11S 9639   2.618   0.849   9.816  0.0073  0.4671  0.2724
   97OSM   H11S 9640   2.641   0.741   9.831 -1.4679  0.3880  2.3814
   97OSM   H11T 9641   2.714   0.905   9.821  0.2401  0.2152 -1.0824
   97OSM   C12S 9642   2.547   0.871   9.679 -0.1951  0.1579  0.1697
   97OSM   H12S 9643   2.508   0.975   9.675 -0.5572  0.1818  2.7964
   97OSM   H12T 9644   2.461   0.804   9.698 -0.3963  0.7457  1.4441
   97OSM   C13S 9645   2.621   0.822   9.548  0.3052  0.1957  0.4522
   97OSM   H13S 9646   2.656   0.718   9.566 -2.7458 -1.1922 -1.0684
   97OSM   H13T 9647   2.704   0.891   9.523  1.8574 -1.8127 -0.2228
   97OSM   C14S 9648   2.529   0.820   9.420 -0.3556 -0.5089 -0.2419
   97OSM   H14S 9649   2.494   0.921   9.390  0.2021 -0.6788 -1.5109
   97OSM   H14T 9650   2.442   0.764   9.462 -0.7680 -0.5087 -1.0729
   97OSM   C15S 9651   2.587   0.752   9.303  0.0939  0.0076 -0.2371
   97OSM   H15S 9652   2.625   0.649   9.320 -1.3767 -0.2044  2.3161
   97OSM   H15T 9653   2.686   0.802   9.294 -0.3757  2.0693  3.6875
   97OSM   C16S 9654   2.526   0.765   9.166  0.3434  0.1357  0.9783
   97OSM   H16S 9655   2.596   0.739   9.084 -0.1569  1.7345 -0.0140
   97OSM   H16T 9656   2.508   0.874   9.162 -2.8636 -0.2670  1.3817
   97OSM   C17S 9657   2.394   0.705   9.136 -0.0701  0.2630  0.3064
   97OSM   H17S 9658   2.368   0.720   9.029  1.7685 -0.7325 -0.3201
   97OSM   H17T 9659   2.317   0.767   9.187 -0.8100  0.7882 -1.3701
   97OSM   C18S 9660   2.376   0.556   9.166 -0.1617 -0.4361  0.5292
   97OSM   H18S 9661   2.279   0.508   9.141  1.1775 -3.5791  0.7781
   97OSM   H18T 9662   2.399   0.545   9.274 -0.2409 -0.6135  0.5282
   97OSM   H18U 9663   2.458   0.503   9.112  0.5890  1.5596 -0.3855
   97OSM    C1F 9664   2.891   0.911  10.518  1.3589 -0.0582 -0.0412
   97OSM     OF 9665   2.898   0.811  10.593 -1.0012 -0.2946 -0.4387
   97OSM    C2F 9666   2.966   0.931  10.386  0.0348 -0.4587  0.4140
   97OSM    H2F 9667   3.067   0.967  10.415  0.6103  1.3586 -3.2264
   97OSM    H2G 9668   2.911   1.016  10.339  1.4392  0.9761  1.2471
   97OSM    C3F 9669   2.959   0.805  10.293 -0.1295  0.1516 -0.2261
   97OSM    H3F 9670   2.861   0.753  10.302  0.0606 -0.0889  0.4807
   97OSM    H3G 9671   3.029   0.732  10.337 -1.2810 -0.0558  1.3739
   97OSM    C4F 9672   3.001   0.841  10.151 -0.2362  0.9128 -0.6205
   97OSM    H4F 9673   2.964   0.933  10.101 -1.9897 -0.2780 -1.6429
   97OSM    H4G 9674   2.970   0.750  10.095  0.8467  0.0235  0.2052
   97OSM    C5F 9675   3.155   0.834  10.137  0.3140  0.1758 -0.3392
   97OSM    H5F 9676   3.201   0.820  10.238 -0.3366 -0.7956 -0.1665
   97OSM    H5G 9677   3.199   0.926  10.091 -0.1841  0.8178  0.4362
   97OSM    C6F 9678   3.190   0.721  10.041  0.1460 -0.1983 -0.6297
   97OSM    H6F 9679   3.136   0.727   9.944  1.2550 -2.1022 -1.4203
   97OSM    H6G 9680   3.173   0.622  10.089 -1.2671  1.7678  3.3600
   97OSM    C7F 9681   3.338   0.722  10.010  0.2848 -0.2721 -0.0848
   97OSM    H7F 9682   3.387   0.712  10.109 -0.4660  0.6868  0.3969
   97OSM    H7G 9683   3.372   0.820   9.972  0.8517 -0.3659  0.1676
   97OSM    C8F 9684   3.383   0.605   9.918  0.5616 -0.5671  0.7163
   97OSM    H8F 9685   3.323   0.611   9.824 -0.3717 -0.3615  1.3138
   97OSM    H8G 9686   3.338   0.513   9.960  2.6242 -0.9642  2.1910
   97OSM    C9F 9687   3.529   0.588   9.884 -0.3139 -0.1120  0.3272
   97OSM    H9F 9688   3.583   0.610   9.977 -1.0455  2.6796  0.2020
   97OSM   C10F 9689   3.595   0.570   9.770  0.2831  0.5407 -0.3517
   97OSM   H10F 9690   3.705   0.567   9.768  0.2713 -1.4060 -0.1083
   97OSM   C11F 9691   3.520   0.554   9.637  0.1649  0.2833  0.3218
   97OSM   H11F 9692   3.409   0.541   9.632  0.3960 -1.4255 -1.3978
   97OSM   H11G 9693   3.571   0.477   9.577 -1.1045  0.0270 -0.4637
   97OSM   C12F 9694   3.559   0.677   9.543 -0.7315  0.1851  0.3746
   97OSM   H12F 9695   3.666   0.666   9.516 -0.4672  0.0194  1.4547
   97OSM   H12G 9696   3.555   0.764   9.612  1.1522 -0.3645  1.2447
   97OSM   C13F 9697   3.478   0.698   9.411 -0.2314  0.7592 -0.5963
   97OSM   H13F 9698   3.507   0.792   9.359 -0.4167  0.0816 -1.9634
   97OSM   H13G 9699   3.373   0.679   9.439  0.3648 -1.1719  0.5765
   97OSM   C14F 9700   3.518   0.584   9.310  0.3667  0.4106  0.3426
   97OSM   H14F 9701   3.500   0.484   9.356  0.4841 -0.2204 -0.9369
   97OSM   H14G 9702   3.628   0.582   9.304  0.5267  2.7086  1.4310
   97OSM   C15F 9703   3.446   0.602   9.176  0.2118  0.1047  0.1234
   97OSM   H15F 9704   3.485   0.699   9.139  0.4579 -0.4761 -1.1968
   97OSM   H15G 9705   3.337   0.612   9.197  0.2653 -1.5932  1.4219
   97OSM   C16F 9706   3.481   0.488   9.076  0.6248 -0.0720 -0.6444
   97OSM   H16F 9707   3.469   0.383   9.112  0.2187  0.0937 -0.2931
   97OSM   H16G 9708   3.590   0.498   9.056  0.8575  0.4358  0.7747
   97OSM   C17F 9709   3.393   0.507   8.946 -0.6886  0.3576 -0.1850
   97OSM   H17F 9710   3.446   0.452   8.865  0.4897 -0.6611  1.2318
   97OSM   H17G 9711   3.403   0.615   8.922  2.7837  0.3213  0.6304
   97OSM   C18F 9712   3.249   0.460   8.950  0.3045 -0.0023  0.5103
   97OSM   H18F 9713   3.192   0.498   8.862 -1.1523  0.4852  1.6245
   97OSM   H18G 9714   3.191   0.496   9.038 -0.6650  0.6307 -0.3591
   97OSM   H18H 9715   3.239   0.350   8.948  0.6344 -0.0866  2.1706
   98OSM      N 9716   1.613   0.405  11.065  0.7032 -0.9089  0.5616
   98OSM    C15 9717   1.680   0.511  11.152  0.2680  0.5515  0.0526
   98OSM   H15A 9718   1.785   0.486  11.157 -0.0338 -1.0958 -1.0754
   98OSM   H15B 9719   1.652   0.504  11.256 -1.2349 -0.3672 -0.3748
   98OSM   H15C 9720   1.670   0.611  11.113  0.0271  0.4979 -0.0259
   98OSM    C14 9721   1.608   0.275  11.125 -0.5482  0.0850  0.4629
   98OSM   H14A 9722   1.701   0.262  11.179 -0.7044 -0.4006  0.6115
   98OSM   H14B 9723   1.589   0.193  11.058  2.3704  1.0609 -1.8097
   98OSM   H14C 9724   1.535   0.273  11.204 -1.8622  1.0037 -0.6738
   98OSM    C13 9725   1.472   0.451  11.031 -0.2513 -0.7850 -0.4899
   98OSM   H13A 9726   1.404   0.445  11.115  0.6331 -0.1351  0.2915
   98OSM   H13B 9727   1.420   0.397  10.953  0.0491 -0.5646 -0.8453
   98OSM   H13C 9728   1.473   0.555  11.004  0.1523 -0.8792 -0.8421
   98OSM    C12 9729   1.691   0.403  10.933  0.1164  0.2061  0.3281
   98OSM   H12A 9730   1.677   0.498  10.885 -0.9755  0.7923  1.7227
   98OSM   H12B 9731   1.646   0.332  10.865  0.1871  1.8235 -1.5068
   98OSM    C11 9732   1.839   0.373  10.934 -0.2144 -0.3056 -0.6217
   98OSM   H11A 9733   1.883   0.441  11.010 -1.3007  0.6536 -0.8275
   98OSM   H11B 9734   1.894   0.402  10.842  2.1389  0.4082  0.9086
   98OSM      P 9735   1.877   0.126  10.858 -0.3174  0.0636  0.1525
   98OSM    O13 9736   1.954   0.014  10.922 -0.0929  0.3454 -0.4803
   98OSM    O14 9737   1.748   0.090  10.801 -0.1782 -0.0119 -0.9660
   98OSM    O11 9738   1.975   0.204  10.753  0.3131  0.1805  0.6132
   98OSM    O12 9739   1.854   0.234  10.968 -0.4300 -0.2632  0.1582
   98OSM    C1S 9740   2.073   0.148  10.669 -0.2314  0.0993  0.7207
   98OSM    H1S 9741   2.024   0.103  10.579 -1.1361  1.1625  0.6603
   98OSM    H1T 9742   2.134   0.067  10.713  2.4963  0.8119 -1.4937
   98OSM     NF 9743   2.257   0.180  10.518  0.1920 -0.0044 -0.3833
   98OSM    HNF 9744   2.348   0.144  10.536  0.6858  1.2298 -0.2660
   98OSM    C2S 9745   2.188   0.247  10.621 -0.3904  0.1272 -0.7390
   98OSM    H2S 9746   2.151   0.339  10.572  0.7700 -0.1165 -2.1460
   98OSM    C3S 9747   2.277   0.277  10.742  0.5293 -0.5199 -0.0752
   98OSM    H3S 9748   2.314   0.183  10.789 -3.2611 -1.8728  0.5478
   98OSM     O3 9749   2.198   0.328  10.846 -0.5269 -0.0267 -0.5494
   98OSM    HO3 9750   2.113   0.296  10.814 -0.8760 -1.2623  1.3991
   98OSM    C4S 9751   2.392   0.367  10.697  0.1134  0.0617 -0.2437
   98OSM    H4S 9752   2.484   0.310  10.677  2.6084  3.6969 -0.0836
   98OSM    C5S 9753   2.410   0.498  10.681  0.1445  0.3410 -0.2707
   98OSM    H5S 9754   2.335   0.571  10.715 -0.2870 -0.8036  1.4033
   98OSM    C6S 9755   2.538   0.563  10.640  0.0771  0.0673  0.4809
   98OSM    H6S 9756   2.624   0.495  10.655 -0.0132 -0.1604 -0.0262
   98OSM    H6T 9757   2.560   0.660  10.691  0.9295  1.0010 -1.5378
   98OSM    C7S 9758   2.539   0.613  10.492  0.6172  0.3704 -0.0823
   98OSM    H7S 9759   2.621   0.687  10.478  1.5102 -0.9700 -2.4211
   98OSM    H7T 9760   2.442   0.663  10.468  0.9459  0.2942 -1.6489
   98OSM    C8S 9761   2.568   0.505  10.383 -0.2592  0.2896  0.3715
   98OSM    H8S 9762   2.490   0.427  10.379  0.6320 -0.6649  1.0338
   98OSM    H8T 9763   2.660   0.452  10.418  0.1875  0.3206 -0.7177
   98OSM    C9S 9764   2.604   0.562  10.245 -0.5067 -0.0188  0.6596
   98OSM    H9S 9765   2.675   0.646  10.262  1.0120 -0.8541 -1.0810
   98OSM    H9T 9766   2.514   0.610  10.201  1.3426  1.1493 -2.1441
   98OSM   C10S 9767   2.679   0.458  10.164 -0.0213  0.5797  0.0089
   98OSM   H10S 9768   2.615   0.370  10.146  1.0297 -0.0695 -0.6886
   98OSM   H10T 9769   2.771   0.426  10.218 -1.6670 -0.6254  2.2398
   98OSM   C11S 9770   2.728   0.518  10.027 -0.0463  0.3189  0.1136
   98OSM   H11S 9771   2.805   0.593  10.056  0.9538 -0.2394 -1.0219
   98OSM   H11T 9772   2.645   0.568   9.973  1.1851  3.0548  0.5560
   98OSM   C12S 9773   2.794   0.419   9.932  0.6794  0.0086 -0.3063
   98OSM   H12S 9774   2.740   0.322   9.930  0.5748  0.0695 -0.4378
   98OSM   H12T 9775   2.898   0.391   9.960  1.6231  3.3125 -0.1252
   98OSM   C13S 9776   2.791   0.472   9.785  0.8557 -0.0356 -0.0202
   98OSM   H13S 9777   2.868   0.552   9.786  0.3132  0.5108  1.9964
   98OSM   H13T 9778   2.697   0.523   9.758  0.9110 -0.2456 -0.6339
   98OSM   C14S 9779   2.838   0.358   9.685  0.2922 -0.5969 -0.0497
   98OSM   H14S 9780   2.756   0.284   9.679  1.7781 -2.3339  0.1897
   98OSM   H14T 9781   2.926   0.305   9.728  0.2380 -1.8965 -1.4606
   98OSM   C15S 9782   2.877   0.407   9.541  0.0111 -0.0606 -0.8075
   98OSM   H15S 9783   2.781   0.442   9.496 -0.6118  0.5916  0.9322
   98OSM   H15T 9784   2.916   0.316   9.490  0.1879 -0.9048  0.7915
   98OSM   C16S 9785   3.005   0.495   9.523  0.7399 -0.4632 -0.2472
   98OSM   H16S 9786   3.091   0.434   9.560 -0.8497 -2.0021  1.1084
   98OSM   H16T 9787   2.983   0.585   9.584 -1.7140 -0.4235 -1.0859
   98OSM   C17S 9788   3.030   0.550   9.387  0.5776 -0.4544 -0.5071
   98OSM   H17S 9789   3.065   0.466   9.323  1.0850 -0.2504 -0.4995
   98OSM   H17T 9790   3.109   0.627   9.390  0.9573 -0.8051 -1.1176
   98OSM   C18S 9791   2.904   0.619   9.324 -0.2372  0.1140  0.2537
   98OSM   H18S 9792   2.947   0.684   9.245 -1.0643  0.1235 -0.2058
   98OSM   H18T 9793   2.865   0.694   9.396 -1.0275 -0.8830  0.8958
   98OSM   H18U 9794   2.826   0.545   9.297  1.4462 -2.8028  2.8122
   98OSM    C1F 9795   2.194   0.152  10.404  0.2959  0.1101  0.5738
   98OSM     OF 9796   2.081   0.186  10.370 -1.0438  0.2980 -0.7136
   98OSM    C2F 9797   2.265   0.063  10.313 -0.7358  0.4100  0.1524
   98OSM    H2F 9798   2.255  -0.040  10.354  0.5974  0.1626 -0.0944
   98OSM    H2G 9799   2.373   0.089  10.301 -0.7178 -0.3256 -1.6402
   98OSM    C3F 9800   2.204   0.074  10.174 -0.1488  0.1240  0.1888
   98OSM    H3F 9801   2.214   0.177  10.133 -0.5349 -0.1339 -0.5771
   98OSM    H3G 9802   2.096   0.049  10.186 -0.3052  0.5073 -0.3686
   98OSM    C4F 9803   2.255  -0.024  10.065 -0.3766 -0.0710  0.6367
   98OSM    H4F 9804   2.219  -0.125  10.096 -0.6855 -0.6834 -1.5558
   98OSM    H4G 9805   2.364  -0.043  10.078 -0.1121 -1.1339 -2.3670
   98OSM    C5F 9806   2.222   0.022   9.920 -0.2034  0.4551  0.3342
   98OSM    H5F 9807   2.246  -0.059   9.848 -0.5728  0.3379  0.3381
   98OSM    H5G 9808   2.285   0.111   9.898  1.5466 -0.2773  2.1418
   98OSM    C6F 9809   2.075   0.057   9.894 -0.4402 -0.0975 -0.3583
   98OSM    H6F 9810   2.036   0.137   9.960 -2.2425 -0.1564 -1.2977
   98OSM    H6G 9811   2.020  -0.035   9.923  1.5717 -0.7376  1.7640
   98OSM    C7F 9812   2.052   0.100   9.752 -0.2273  0.6802  0.3498
   98OSM    H7F 9813   2.089   0.023   9.681 -0.3126  1.8167 -0.9671
   98OSM    H7G 9814   2.107   0.192   9.723 -1.8611  0.5421 -3.8187
   98OSM    C8F 9815   1.903   0.124   9.723 -0.0763 -0.0619 -0.5877
   98OSM    H8F 9816   1.858   0.183   9.806  2.0211  1.4653 -0.4491
   98OSM    H8G 9817   1.854   0.025   9.715  0.6841 -0.6368  1.3254
   98OSM    C9F 9818   1.882   0.206   9.602  0.3467 -0.2046  0.5623
   98OSM    H9F 9819   1.926   0.306   9.603  3.0067 -1.2958  1.6902
   98OSM   C10F 9820   1.808   0.178   9.488  0.3160 -0.1177 -0.6283
   98OSM   H10F 9821   1.786   0.256   9.414 -1.9906  0.3634  0.4864
   98OSM   C11F 9822   1.739   0.052   9.451 -0.1842  0.1654  0.1326
   98OSM   H11F 9823   1.629   0.063   9.441  0.0327  1.3292 -1.3238
   98OSM   H11G 9824   1.770  -0.025   9.525  0.6289  1.3104  1.0209
   98OSM   C12F 9825   1.792  -0.001   9.311  0.4915  0.5942  0.3472
   98OSM   H12F 9826   1.753  -0.102   9.289 -1.0750  1.1204  0.6035
   98OSM   H12G 9827   1.902  -0.008   9.324  0.2981 -3.0169  0.9940
   98OSM   C13F 9828   1.744   0.088   9.193  0.0159  0.3649 -0.6810
   98OSM   H13F 9829   1.810   0.068   9.105  0.9700  3.0931 -0.6678
   98OSM   H13G 9830   1.758   0.195   9.216  1.3230  0.7511 -2.9249
   98OSM   C14F 9831   1.596   0.066   9.144  0.1921  0.2156 -0.6835
   98OSM   H14F 9832   1.527   0.079   9.230  1.1073  1.2513 -0.0764
   98OSM   H14G 9833   1.577  -0.036   9.103 -1.8549  0.9694 -1.6936
   98OSM   C15F 9834   1.547   0.160   9.031  0.4115  0.4208 -0.3193
   98OSM   H15F 9835   1.457   0.110   8.991  1.9219 -2.0019 -0.9351
   98OSM   H15G 9836   1.627   0.147   8.955 -0.4405  0.0597 -1.1712
   98OSM   C16F 9837   1.530   0.314   9.062 -0.0896  0.4415 -0.0600
   98OSM   H16F 9838   1.613   0.340   9.131 -0.3586 -2.4311  1.5057
   98OSM   H16G 9839   1.432   0.320   9.114 -0.8795 -2.3163 -1.0627
   98OSM   C17F 9840   1.519   0.404   8.935  0.4850 -0.0674 -0.4738
   98OSM   H17F 9841   1.497   0.508   8.968  3.7213  1.0272 -1.3694
   98OSM   H17G 9842   1.435   0.367   8.874 -1.7745 -0.3719  2.6075
   98OSM   C18F 9843   1.654   0.399   8.864 -0.2145 -0.0343 -0.5269
   98OSM   H18F 9844   1.635   0.457   8.771 -2.4723 -2.3197 -1.6326
   98OSM   H18G 9845   1.671   0.298   8.821  1.0045 -0.0064 -0.1256
   98OSM   H18H 9846   1.738   0.442   8.922 -1.6546  0.5399  1.2123
   99OSM      N 9847   6.282   0.857  10.741 -0.7042  0.6692 -0.2726
   99OSM    C15 9848   6.126   0.855  10.716 -0.2835  0.3413  0.7557
   99OSM   H15A 9849   6.074   0.932  10.770 -1.9792  0.8146 -1.3656
   99OSM   H15B 9850   6.090   0.760  10.753 -0.8679  0.8806  1.6037
   99OSM   H15C 9851   6.085   0.858  10.616 -0.7554 -2.7172  0.7535
   99OSM    C14 9852   6.328   0.994  10.735  0.3704  0.8366 -0.5970
   99OSM   H14A 9853   6.434   0.999  10.757 -0.2320 -1.6102  4.1223
   99OSM   H14B 9854   6.272   1.058  10.801 -1.1897 -1.6090  0.5877
   99OSM   H14C 9855   6.303   1.032  10.637  0.2076  0.8908 -0.5347
   99OSM    C13 9856   6.310   0.800  10.885 -0.5345 -0.4505 -1.0272
   99OSM   H13A 9857   6.252   0.713  10.913  0.4872 -0.9332 -0.3459
   99OSM   H13B 9858   6.285   0.882  10.952  0.1802 -0.7356 -0.3933
   99OSM   H13C 9859   6.416   0.788  10.901 -0.8638 -2.0729  0.2666
   99OSM    C12 9860   6.349   0.772  10.633  0.2742  0.3486 -0.1383
   99OSM   H12A 9861   6.456   0.775  10.644  0.1545  0.1586  1.2611
   99OSM   H12B 9862   6.332   0.826  10.541  1.9492 -0.2261 -0.8219
   99OSM    C11 9863   6.320   0.618  10.615  0.2388  0.1206 -1.0357
   99OSM   H11A 9864   6.361   0.579  10.519 -1.3005 -1.7439 -1.0126
   99OSM   H11B 9865   6.209   0.608  10.611  0.2236 -0.6074  0.7170
   99OSM      P 9866   6.533   0.509  10.716 -0.2106 -0.1580 -0.1522
   99OSM    O13 9867   6.610   0.635  10.731 -0.2921  0.0037 -0.7019
   99OSM    O14 9868   6.556   0.398  10.809  0.2481 -0.3033  0.3715
   99OSM    O11 9869   6.548   0.459  10.574 -0.1187  0.5256 -0.0616
   99OSM    O12 9870   6.377   0.551  10.724 -0.1439  0.5270 -0.0865
   99OSM    C1S 9871   6.490   0.335  10.529  0.1789 -1.2754 -0.0130
   99OSM    H1S 9872   6.379   0.333  10.529  0.1729 -1.1717 -0.4108
   99OSM    H1T 9873   6.523   0.255  10.598  0.6636  0.2165  1.5563
   99OSM     NF 9874   6.441   0.210  10.316  0.0519  0.2238 -0.2540
   99OSM    HNF 9875   6.453   0.115  10.346 -0.8099 -0.8768 -3.0420
   99OSM    C2S 9876   6.534   0.308  10.378  0.1153  0.4108 -0.3238
   99OSM    H2S 9877   6.516   0.409  10.334  1.0013  0.3508 -0.8572
   99OSM    C3S 9878   6.691   0.272  10.378  0.1221  0.0415 -0.0832
   99OSM    H3S 9879   6.698   0.181  10.441  1.3802 -0.0068 -0.2699
   99OSM     O3 9880   6.770   0.373  10.439  0.4050  0.4273 -0.5495
   99OSM    HO3 9881   6.710   0.433  10.484  3.2210  0.5477  3.5762
   99OSM    C4S 9882   6.735   0.242  10.238 -0.7164 -0.2089 -0.2714
   99OSM    H4S 9883   6.741   0.134  10.214 -1.2938  0.3195 -3.1250
   99OSM    C5S 9884   6.779   0.332  10.146  0.0610 -0.4381 -0.1851
   99OSM    H5S 9885   6.794   0.432  10.188  0.1352  0.6236 -2.5758
   99OSM    C6S 9886   6.829   0.309  10.003 -0.0723  0.0925 -0.0004
   99OSM    H6S 9887   6.938   0.284  10.007  0.3254  1.3272 -1.6484
   99OSM    H6T 9888   6.835   0.399   9.938  3.2416 -1.4737 -2.1765
   99OSM    C7S 9889   6.746   0.199   9.931 -0.4834 -0.1937  0.4356
   99OSM    H7S 9890   6.637   0.219   9.946 -0.4679  0.3986 -0.1353
   99OSM    H7T 9891   6.786   0.100   9.960  0.0582  0.2478  1.2103
   99OSM    C8S 9892   6.771   0.198   9.780  0.4364  0.4415  0.4762
   99OSM    H8S 9893   6.757   0.302   9.743  0.5429  1.2363  2.5554
   99OSM    H8T 9894   6.702   0.135   9.719  1.4049  1.1379 -1.4264
   99OSM    C9S 9895   6.915   0.164   9.740 -0.2409 -0.1788  0.5709
   99OSM    H9S 9896   6.964   0.075   9.786  0.8176 -1.2818 -2.4534
   99OSM    H9T 9897   6.968   0.256   9.773  1.5495 -0.9241 -0.0829
   99OSM   C10S 9898   6.937   0.141   9.586  0.1091 -0.0336 -0.1967
   99OSM   H10S 9899   7.044   0.169   9.572  0.6220 -0.7832  1.9007
   99OSM   H10T 9900   6.876   0.214   9.528  1.1914  0.0606 -1.2548
   99OSM   C11S 9901   6.901  -0.002   9.537 -0.1741 -0.0593 -0.2790
   99OSM   H11S 9902   6.793  -0.021   9.552 -0.1379  0.8180  1.3679
   99OSM   H11T 9903   6.956  -0.074   9.602  1.2578  1.3205  0.1309
   99OSM   C12S 9904   6.925  -0.022   9.384 -0.0336  0.4290  0.4385
   99OSM   H12S 9905   6.850   0.047   9.340 -0.4031 -0.0738  0.2589
   99OSM   H12T 9906   7.026   0.002   9.345  0.3490 -0.1849  1.0166
   99OSM   C13S 9907   6.898  -0.176   9.335 -0.5676 -0.1038  0.1233
   99OSM   H13S 9908   6.798  -0.209   9.369 -0.8439 -0.8598 -1.3374
   99OSM   H13T 9909   6.982  -0.236   9.378  1.7466  0.7694 -2.8449
   99OSM   C14S 9910   6.894  -0.189   9.186 -0.0202  0.4841  0.1494
   99OSM   H14S 9911   6.832  -0.102   9.154  0.0847  1.0338  1.3764
   99OSM   H14T 9912   6.832  -0.273   9.148  1.1121 -0.7966  1.0381
   99OSM   C15S 9913   7.030  -0.169   9.115 -0.0335  0.0141  0.0681
   99OSM   H15S 9914   7.115  -0.226   9.158 -0.0615 -0.7242 -0.8425
   99OSM   H15T 9915   7.046  -0.063   9.147 -1.1481  0.5741 -1.1216
   99OSM   C16S 9916   7.021  -0.188   8.961  0.0684  0.0948  0.2988
   99OSM   H16S 9917   7.100  -0.128   8.910  0.9745 -1.1480  0.1812
   99OSM   H16T 9918   6.922  -0.149   8.930  0.0436 -1.0898 -1.2280
   99OSM   C17S 9919   7.033  -0.335   8.923 -0.0383 -0.3226 -0.0604
   99OSM   H17S 9920   6.937  -0.380   8.955 -1.3014  1.9733 -0.3766
   99OSM   H17T 9921   7.112  -0.387   8.980  1.6063 -0.4625 -2.3042
   99OSM   C18S 9922   7.074  -0.353   8.778 -0.0249 -0.4558 -0.3518
   99OSM   H18S 9923   7.174  -0.305   8.767  0.8166 -0.9878  3.3013
   99OSM   H18T 9924   6.998  -0.325   8.703 -0.9145 -2.4256 -0.2402
   99OSM   H18U 9925   7.106  -0.458   8.761  0.0549 -0.6400  0.7905
   99OSM    C1F 9926   6.311   0.236  10.285  0.5381 -0.0490 -0.4001
   99OSM     OF 9927   6.265   0.350  10.296 -0.1420 -0.1478  0.2447
   99OSM    C2F 9928   6.230   0.118  10.245 -0.0606 -0.0302 -0.1673
   99OSM    H2F 9929   6.150   0.093  10.317  1.5718  0.3611  1.8818
   99OSM    H2G 9930   6.301   0.033  10.236 -0.3607 -0.1851 -1.1178
   99OSM    C3F 9931   6.165   0.134  10.103  0.6057  0.1237  0.0813
   99OSM    H3F 9932   6.115   0.048  10.054  0.8645  1.7137 -3.2324
   99OSM    H3G 9933   6.094   0.219  10.114  0.6452  0.1340  0.2732
   99OSM    C4F 9934   6.274   0.180  10.009 -0.3330 -0.5873  0.1898
   99OSM    H4F 9935   6.367   0.125  10.037  1.1935  2.5895  1.9219
   99OSM    H4G 9936   6.298   0.288  10.018  0.2452 -0.5198 -1.7850
   99OSM    C5F 9937   6.252   0.162   9.858 -1.1720 -0.0509  0.1251
   99OSM    H5F 9938   6.148   0.195   9.837 -1.1985  0.2674  0.7234
   99OSM    H5G 9939   6.268   0.054   9.837  0.2188  0.5114 -2.0525
   99OSM    C6F 9940   6.348   0.238   9.770  0.1027 -0.5152 -0.2051
   99OSM    H6F 9941   6.455   0.215   9.786  0.4383 -0.4692 -2.1279
   99OSM    H6G 9942   6.337   0.348   9.782  0.2527 -0.2641 -2.0393
   99OSM    C7F 9943   6.298   0.229   9.623  0.1209 -0.1775  0.4617
   99OSM    H7F 9944   6.189   0.247   9.611  0.1186 -0.1270  0.5556
   99OSM    H7G 9945   6.307   0.125   9.586  1.5635 -0.0251  0.3221
   99OSM    C8F 9946   6.363   0.330   9.521  0.0092 -0.3503  0.7472
   99OSM    H8F 9947   6.335   0.431   9.557  1.7336  0.6665 -0.6228
   99OSM    H8G 9948   6.323   0.311   9.419 -0.1374  0.3535  0.6657
   99OSM    C9F 9949   6.518   0.320   9.513  0.2512 -0.5837 -0.2202
   99OSM    H9F 9950   6.574   0.402   9.560 -0.4568  0.8377 -1.7528
   99OSM   C10F 9951   6.584   0.225   9.439  0.2939  0.3441  0.0333
   99OSM   H10F 9952   6.689   0.253   9.426  0.6904 -1.4337 -0.8279
   99OSM   C11F 9953   6.537   0.111   9.357 -0.4510 -0.1759 -0.2245
   99OSM   H11F 9954   6.426   0.100   9.360 -0.1822 -4.4299  0.4371
   99OSM   H11G 9955   6.584   0.019   9.398 -1.5640 -0.5051  0.3388
   99OSM   C12F 9956   6.571   0.129   9.203  0.2805  0.8001  0.3033
   99OSM   H12F 9957   6.681   0.112   9.205  0.1296 -0.3269  0.0199
   99OSM   H12G 9958   6.563   0.237   9.179 -0.6473  0.9405  1.1705
   99OSM   C13F 9959   6.493   0.043   9.106  0.5181 -0.3547 -0.0842
   99OSM   H13F 9960   6.396   0.097   9.100  1.5976  1.5468 -1.7994
   99OSM   H13G 9961   6.482  -0.064   9.133  1.5767 -0.8505 -1.4653
   99OSM   C14F 9962   6.550   0.035   8.970  0.1396 -0.1347  0.8813
   99OSM   H14F 9963   6.488  -0.030   8.906 -0.9493  0.0264  1.7419
   99OSM   H14G 9964   6.647  -0.016   8.987  0.2589 -0.1863  0.0899
   99OSM   C15F 9965   6.571   0.177   8.914  0.5160  0.1272 -0.3937
   99OSM   H15F 9966   6.651   0.217   8.979  1.7252  1.8699 -2.8183
   99OSM   H15G 9967   6.476   0.234   8.922 -0.0020 -0.9248  1.7230
   99OSM   C16F 9968   6.595   0.176   8.765  0.0573  0.2852 -0.8989
   99OSM   H16F 9969   6.515   0.122   8.709 -0.0442  1.8909 -2.4253
   99OSM   H16G 9970   6.694   0.131   8.742  0.6250  0.7125  0.6359
   99OSM   C17F 9971   6.601   0.317   8.712 -0.7938  0.2092  0.3588
   99OSM   H17F 9972   6.691   0.368   8.752  0.5310 -0.7925 -1.2099
   99OSM   H17G 9973   6.508   0.370   8.741  0.2798  1.4270  1.7237
   99OSM   C18F 9974   6.615   0.321   8.564  0.9255  0.4925  0.3091
   99OSM   H18F 9975   6.671   0.232   8.531 -1.6141 -1.0073 -0.2536
   99OSM   H18G 9976   6.653   0.416   8.519 -2.0121  1.0480 -1.2739
   99OSM   H18H 9977   6.515   0.295   8.521  0.3920  2.7158  0.0702
  100OSM      N 9978   6.381   3.619  11.243 -0.6347 -0.1815  0.2495
  100OSM    C15 9979   6.319   3.506  11.172  0.5666  0.1276 -0.1539
  100OSM   H15A 9980   6.395   3.438  11.136  1.4141  0.4369  0.9755
  100OSM   H15B 9981   6.256   3.525  11.087 -0.3384  3.6610  1.1059
  100OSM   H15C 9982   6.254   3.457  11.243 -0.9988  1.5382 -0.5469
  100OSM    C14 9983   6.270   3.720  11.278 -0.1217  0.7041  0.3998
  100OSM   H14A 9984   6.194   3.667  11.334  0.9436  0.4030  1.6023
  100OSM   H14B 9985   6.214   3.735  11.187 -1.6425 -2.1998  0.7393
  100OSM   H14C 9986   6.301   3.808  11.332 -0.2716  0.8107  0.3128
  100OSM    C13 9987   6.432   3.556  11.373 -0.1568  0.8272 -0.4368
  100OSM   H13A 9988   6.351   3.527  11.439  1.8854 -0.2426  1.7704
  100OSM   H13B 9989   6.508   3.615  11.422  0.3239  0.2092 -0.4264
  100OSM   H13C 9990   6.484   3.464  11.348 -0.7274  0.0573  1.0760
  100OSM    C12 9991   6.495   3.674  11.160  0.0321 -0.0901 -0.1851
  100OSM   H12A 9992   6.581   3.609  11.172  0.8414  1.3080  2.5979
  100OSM   H12B 9993   6.535   3.761  11.210  2.4123 -0.6479 -0.9764
  100OSM    C11 9994   6.458   3.717  11.015 -0.2435 -1.0339  0.5271
  100OSM   H11A 9995   6.452   3.623  10.957  0.6383 -1.3412  0.9216
  100OSM   H11B 9996   6.542   3.775  10.969 -1.0705  0.7578  1.1722
  100OSM      P 9997   6.222   3.764  10.916  0.7928 -0.0005  0.2869
  100OSM    O13 9998   6.153   3.639  10.942 -0.4490 -0.1473 -0.1385
  100OSM    O14 9999   6.131   3.883  10.899  0.0533 -0.0087 -0.1336
  100OSM    O1110000   6.299   3.750  10.778 -0.2930 -0.4152 -0.0652
  100OSM    O1210001   6.343   3.796  11.007  0.1335  0.0993  0.6781
  100OSM    C1S10002   6.217   3.748  10.659  0.6672 -0.4148  0.1702
  100OSM    H1S10003   6.137   3.825  10.652  0.3675 -0.7442 -0.1060
  100OSM    H1T10004   6.169   3.649  10.642  1.3145 -0.5178 -1.1337
  100OSM     NF10005   6.214   3.754  10.421  0.1477  0.7228  0.0943
  100OSM    HNF10006   6.174   3.666  10.395  1.5817  0.1471 -0.2604
  100OSM    C2S10007   6.305   3.752  10.529  0.1484  0.0192  0.0540
  100OSM    H2S10008   6.368   3.843  10.528 -0.6650  0.6072 -0.9951
  100OSM    C3S10009   6.398   3.631  10.529 -0.3317 -0.1188 -0.0132
  100OSM    H3S10010   6.335   3.539  10.533 -2.1880  1.1303  0.7631
  100OSM     O310011   6.488   3.635  10.638 -0.1350 -0.1988 -0.2184
  100OSM    HO310012   6.436   3.671  10.711  0.0576 -1.1411  0.4096
  100OSM    C4S10013   6.477   3.644  10.393  0.3160 -0.0923  0.2604
  100OSM    H4S10014   6.426   3.595  10.309 -0.7837 -0.5642  1.1673
  100OSM    C5S10015   6.587   3.722  10.373 -0.4474 -0.2049  0.5074
  100OSM    H5S10016   6.636   3.765  10.462  0.6051 -1.2120  0.4433
  100OSM    C6S10017   6.667   3.743  10.240  0.0983  0.7889  0.0645
  100OSM    H6S10018   6.774   3.715  10.250  0.0203  0.1171 -0.9250
  100OSM    H6T10019   6.653   3.851  10.216 -0.0584  0.8468  0.4010
  100OSM    C7S10020   6.619   3.676  10.103  0.4299 -0.6369  0.0781
  100OSM    H7S10021   6.518   3.711  10.075  0.9595 -0.1303 -1.2953
  100OSM    H7T10022   6.621   3.568  10.129  1.0311 -0.2365  1.8202
  100OSM    C8S10023   6.695   3.710   9.975  0.0516  0.8576 -0.5966
  100OSM    H8S10024   6.786   3.646   9.972 -0.1822  0.4601  0.4640
  100OSM    H8T10025   6.731   3.814   9.992 -0.9530  1.4751 -2.0372
  100OSM    C9S10026   6.617   3.696   9.839  0.2455  0.0693 -0.6023
  100OSM    H9S10027   6.559   3.791   9.838  2.0686  1.2409 -2.3434
  100OSM    H9T10028   6.551   3.607   9.839 -1.1536  1.0716 -0.3662
  100OSM   C10S10029   6.714   3.675   9.722 -0.5995 -0.0118  0.0412
  100OSM   H10S10030   6.752   3.571   9.729 -1.4918 -0.3596 -0.1629
  100OSM   H10T10031   6.800   3.744   9.738 -0.2905 -0.5468  0.7484
  100OSM   C11S10032   6.639   3.698   9.590  0.2364 -0.6143  0.3017
  100OSM   H11S10033   6.604   3.803   9.577  1.4776 -0.4728 -3.1167
  100OSM   H11T10034   6.556   3.624   9.587 -2.4700  2.2488 -0.4965
  100OSM   C12S10035   6.721   3.672   9.463 -0.1855 -0.2433 -0.7199
  100OSM   H12S10036   6.751   3.566   9.475 -1.6829 -0.6124 -0.0262
  100OSM   H12T10037   6.807   3.743   9.460 -0.1671 -0.2266 -0.0133
  100OSM   C13S10038   6.636   3.690   9.338  0.6035  0.0855  0.0770
  100OSM   H13S10039   6.627   3.801   9.341  0.1863  0.0280  1.3633
  100OSM   H13T10040   6.535   3.648   9.357 -0.5115  1.3758 -2.5260
  100OSM   C14S10041   6.711   3.630   9.213  0.7703 -0.2806 -0.3210
  100OSM   H14S10042   6.725   3.524   9.243 -0.7179  0.3277  2.9100
  100OSM   H14T10043   6.811   3.677   9.201  1.2462 -1.1783  0.0236
  100OSM   C15S10044   6.633   3.658   9.079  1.0619  0.0337  0.7104
  100OSM   H15S10045   6.584   3.758   9.081  0.7166  0.0392 -2.8182
  100OSM   H15T10046   6.549   3.585   9.077 -0.2131  1.4716  0.3673
  100OSM   C16S10047   6.698   3.624   8.940 -0.5007 -1.1123  0.4694
  100OSM   H16S10048   6.621   3.632   8.860 -0.0440  0.3684  0.1402
  100OSM   H16T10049   6.733   3.519   8.947 -0.0820 -0.9307  1.1644
  100OSM   C17S10050   6.815   3.718   8.905  0.0557  0.1908 -0.8390
  100OSM   H17S10051   6.894   3.713   8.983 -0.1036 -0.3495 -0.7127
  100OSM   H17T10052   6.781   3.824   8.902  0.1995  0.3631  1.9089
  100OSM   C18S10053   6.873   3.678   8.773 -0.1993 -0.0897  0.2804
  100OSM   H18S10054   6.953   3.751   8.747  1.2573 -1.8374 -0.3699
  100OSM   H18T10055   6.803   3.669   8.687 -1.4847 -3.5412  1.5009
  100OSM   H18U10056   6.914   3.576   8.789  0.2320  0.0083 -0.1683
  100OSM    C1F10057   6.160   3.862  10.370 -0.5494 -0.0530 -0.0790
  100OSM     OF10058   6.205   3.970  10.403 -0.0141  0.2337  0.0919
  100OSM    C2F10059   6.040   3.846  10.293  0.2116  0.3605  0.4216
  100OSM    H2F10060   5.967   3.915  10.341 -1.2052 -1.8425  1.5846
  100OSM    H2G10061   6.000   3.743  10.305 -2.3048  1.3253  1.0157
  100OSM    C3F10062   6.058   3.880  10.147 -0.2379  0.6060  0.7806
  100OSM    H3F10063   6.096   3.984  10.136  1.0518  0.3499  2.4739
  100OSM    H3G10064   5.960   3.880  10.095 -0.8569  2.4112  1.8540
  100OSM    C4F10065   6.159   3.782  10.079  0.5180 -0.5408  0.4264
  100OSM    H4F10066   6.111   3.683  10.062 -0.5809  0.0809 -0.1641
  100OSM    H4G10067   6.247   3.763  10.144  0.9189 -1.9243 -0.4912
  100OSM    C5F10068   6.204   3.832   9.943 -0.7085  0.2001 -0.1819
  100OSM    H5F10069   6.298   3.776   9.921 -0.1974  0.9911 -0.0654
  100OSM    H5G10070   6.230   3.939   9.950  0.4012  0.0593 -1.7099
  100OSM    C6F10071   6.098   3.819   9.839  0.4995  0.0270  0.1480
  100OSM    H6F10072   6.017   3.886   9.876  2.0281  3.7895 -2.7079
  100OSM    H6G10073   6.060   3.716   9.858  0.0240  0.0880 -0.4646
  100OSM    C7F10074   6.137   3.835   9.687 -0.0409 -0.3120 -0.5334
  100OSM    H7F10075   6.159   3.942   9.667  0.3670 -0.4979 -1.1148
  100OSM    H7G10076   6.049   3.791   9.634  1.8742 -0.5602 -3.7385
  100OSM    C8F10077   6.258   3.748   9.654  0.6059 -0.0385 -0.5071
  100OSM    H8F10078   6.238   3.645   9.691 -0.0230  0.5855  0.9652
  100OSM    H8G10079   6.340   3.792   9.715 -0.4818  0.9662  0.2701
  100OSM    C9F10080   6.287   3.748   9.509 -0.0047 -0.3707 -0.1403
  100OSM    H9F10081   6.342   3.835   9.471 -0.3362 -0.8778 -1.8887
  100OSM   C10F10082   6.246   3.663   9.410  0.2996  0.3744 -0.1325
  100OSM   H10F10083   6.284   3.683   9.309  0.2336 -0.4360 -0.3265
  100OSM   C11F10084   6.166   3.539   9.421  0.2828 -0.8927  0.0573
  100OSM   H11F10085   6.154   3.517   9.530 -1.7568 -0.1854  0.0371
  100OSM   H11G10086   6.203   3.447   9.372  0.2749  0.1604 -2.0139
  100OSM   C12F10087   6.025   3.571   9.368 -0.3964  0.5676 -0.1543
  100OSM   H12F10088   5.988   3.669   9.406 -3.0985 -0.4575  0.0034
  100OSM   H12G10089   5.946   3.498   9.391 -2.6221  2.7468 -0.4456
  100OSM   C13F10090   6.024   3.582   9.212 -0.2917  0.1267  0.2125
  100OSM   H13F10091   6.080   3.499   9.166 -1.9013 -0.6236 -0.4590
  100OSM   H13G10092   6.073   3.674   9.173  0.2870  0.4398  1.6067
  100OSM   C14F10093   5.874   3.586   9.151 -0.2466  0.7201 -0.4650
  100OSM   H14F10094   5.798   3.533   9.212  0.7766  2.7979  2.9030
  100OSM   H14G10095   5.875   3.544   9.048  1.6397 -0.3725 -0.0434
  100OSM   C15F10096   5.824   3.733   9.145  0.2461  0.4500 -0.0273
  100OSM   H15F10097   5.896   3.796   9.089 -0.6088  2.2217  0.7977
  100OSM   H15G10098   5.810   3.780   9.244 -0.9334 -1.0583  0.5558
  100OSM   C16F10099   5.684   3.734   9.078  0.0288 -0.3909 -0.4309
  100OSM   H16F10100   5.606   3.672   9.125  0.7694 -0.4650  0.7267
  100OSM   H16G10101   5.711   3.694   8.978  2.2762 -0.2206  0.0481
  100OSM   C17F10102   5.632   3.874   9.070 -0.1859 -0.2553  0.4260
  100OSM   H17F10103   5.718   3.939   9.042 -1.0734  0.7980  0.0991
  100OSM   H17G10104   5.599   3.915   9.168 -0.9568  3.0746 -1.0992
  100OSM   C18F10105   5.524   3.890   8.976  0.7558 -0.6125  0.3938
  100OSM   H18F10106   5.486   3.994   8.967 -1.1829 -1.3724 -1.1238
  100OSM   H18G10107   5.439   3.828   9.012  1.1979 -1.5277 -0.0905
  100OSM   H18H10108   5.547   3.855   8.873  1.2364  2.2245 -0.5562
  101OSM      N10109   4.105   1.028  10.868  0.0423  0.4385  0.5109
  101OSM    C1510110   4.165   0.945  10.755 -0.2322  0.4993 -0.0247
  101OSM   H15A10111   4.272   0.955  10.744 -0.4528  0.4684 -3.1512
  101OSM   H15B10112   4.132   0.994  10.665 -1.8351  1.9444  1.2833
  101OSM   H15C10113   4.127   0.844  10.765  1.5342  0.0132  3.3952
  101OSM    C1410114   4.142   0.982  11.009 -0.2025  0.3438  0.3106
  101OSM   H14A10115   4.083   1.036  11.081 -0.3575 -0.4271  0.7769
  101OSM   H14B10116   4.243   1.005  11.042 -0.4448 -0.8575  2.0384
  101OSM   H14C10117   4.144   0.874  11.022  1.7481  0.1628 -0.9994
  101OSM    C1310118   4.157   1.167  10.851  0.3927 -0.1626 -0.6273
  101OSM   H13A10119   4.103   1.238  10.911 -1.4806 -1.5376 -0.6004
  101OSM   H13B10120   4.149   1.198  10.748  1.9436  1.0453 -0.4106
  101OSM   H13C10121   4.261   1.170  10.881  0.3814  0.5597 -0.6537
  101OSM    C1210122   3.951   1.023  10.859  0.2342 -0.2830  0.5491
  101OSM   H12A10123   3.920   0.920  10.852 -1.9125  0.3527 -0.0475
  101OSM   H12B10124   3.928   1.074  10.766  1.2965 -1.0739 -0.1762
  101OSM    C1110125   3.868   1.108  10.958  0.5709  0.1009  0.1068
  101OSM   H11A10126   3.893   1.069  11.059 -1.4473  0.1001  0.6481
  101OSM   H11B10127   3.760   1.086  10.941  1.0235 -0.9965 -1.6626
  101OSM      P10128   3.818   1.344  10.833 -0.1356  0.2320 -0.1319
  101OSM    O1310129   3.679   1.373  10.870 -0.3548 -0.4949  0.2092
  101OSM    O1410130   3.905   1.462  10.814  0.3694 -0.2547 -0.6102
  101OSM    O1110131   3.822   1.250  10.701  0.0002 -0.0697 -0.5302
  101OSM    O1210132   3.888   1.251  10.938  0.0111  0.2034  0.1225
  101OSM    C1S10133   3.906   1.281  10.590 -0.0433 -0.0749 -0.1547
  101OSM    H1S10134   4.010   1.294  10.626  0.5862  0.5269 -2.0676
  101OSM    H1T10135   3.868   1.371  10.539 -1.9443 -1.2498 -0.9201
  101OSM     NF10136   4.009   1.196  10.388  0.1160  0.0351  0.7740
  101OSM    HNF10137   3.988   1.238  10.300  0.1292 -2.6090 -0.6239
  101OSM    C2S10138   3.907   1.170  10.486  0.6597 -0.3382 -0.1439
  101OSM    H2S10139   3.933   1.076  10.538  0.6383 -0.9502 -1.2059
  101OSM    C3S10140   3.762   1.156  10.441 -0.3888 -0.1233  0.3406
  101OSM    H3S10141   3.717   1.257  10.425 -1.9378 -1.0605 -1.6590
  101OSM     O310142   3.680   1.097  10.537  0.4888  0.7168  0.4845
  101OSM    HO310143   3.715   1.131  10.619  2.5435  0.7397 -0.3479
  101OSM    C4S10144   3.753   1.093  10.309 -0.6719 -0.1490  0.2569
  101OSM    H4S10145   3.775   1.150  10.218  2.3230  0.5157  1.2662
  101OSM    C5S10146   3.750   0.960  10.296  0.2033 -0.1473 -0.0257
  101OSM    H5S10147   3.747   0.898  10.387  0.3219 -0.3245 -0.1429
  101OSM    C6S10148   3.742   0.883  10.165 -0.3509  1.1274  0.2770
  101OSM    H6S10149   3.648   0.824  10.161 -1.1087  2.2498  0.7903
  101OSM    H6T10150   3.830   0.816  10.156 -0.5500  0.7172  1.2091
  101OSM    C7S10151   3.740   0.959  10.033  0.6118 -0.2969  0.4788
  101OSM    H7S10152   3.761   0.886   9.951  4.1956  0.4983  0.5036
  101OSM    H7T10153   3.827   1.029  10.029 -0.7988  1.4869 -0.1434
  101OSM    C8S10154   3.614   1.036  10.002  0.1001  0.3418 -0.4637
  101OSM    H8S10155   3.595   1.107  10.086  2.6354  0.3664  0.1535
  101OSM    H8T10156   3.532   0.961   9.992  0.3649 -0.0812  0.4204
  101OSM    C9S10157   3.619   1.106   9.861  0.1538  0.0123 -0.5403
  101OSM    H9S10158   3.706   1.176   9.863  0.1490  0.0037  0.2730
  101OSM    H9T10159   3.527   1.165   9.843 -0.4529 -0.7496 -0.0376
  101OSM   C10S10160   3.628   1.013   9.739  0.0497 -0.3384 -0.3740
  101OSM   H10S10161   3.547   0.936   9.730  0.7930 -1.0175 -1.5127
  101OSM   H10T10162   3.724   0.957   9.744  2.4843  3.4842 -0.1323
  101OSM   C11S10163   3.633   1.099   9.609  0.1924  0.3423  0.2048
  101OSM   H11S10164   3.678   1.196   9.640 -0.5855  0.8292 -0.1786
  101OSM   H11T10165   3.525   1.105   9.585  0.8165 -0.3670 -3.3243
  101OSM   C12S10166   3.710   1.032   9.493 -0.2415 -0.2735 -0.1629
  101OSM   H12S10167   3.664   0.934   9.467  0.9205 -0.7625 -0.4228
  101OSM   H12T10168   3.815   1.018   9.527 -0.0562  2.9929  0.9646
  101OSM   C13S10169   3.710   1.114   9.363 -0.2418 -0.5150  0.3310
  101OSM   H13S10170   3.768   1.060   9.285 -1.0096  0.0993 -0.6867
  101OSM   H13T10171   3.755   1.212   9.388 -0.8170 -0.4314  1.0952
  101OSM   C14S10172   3.568   1.142   9.310 -0.9440 -0.0027 -0.7700
  101OSM   H14S10173   3.524   1.215   9.381  0.3537 -2.4445  2.8492
  101OSM   H14T10174   3.510   1.049   9.297 -0.3035 -0.4120 -0.7388
  101OSM   C15S10175   3.587   1.214   9.170 -0.2792 -0.4435 -0.5734
  101OSM   H15S10176   3.646   1.155   9.096  2.4862 -0.7362  1.7042
  101OSM   H15T10177   3.646   1.306   9.189  1.0595 -1.3468 -0.2424
  101OSM   C16S10178   3.447   1.253   9.123  0.2946  0.5824  0.5380
  101OSM   H16S10179   3.394   1.328   9.185 -1.4381  0.3348 -0.5728
  101OSM   H16T10180   3.377   1.171   9.149  0.0346  0.7753  0.4539
  101OSM   C17S10181   3.439   1.303   8.976 -0.9051  0.0341 -0.2138
  101OSM   H17S10182   3.455   1.206   8.924 -1.2867  0.0430 -0.3475
  101OSM   H17T10183   3.512   1.385   8.959  0.3375 -1.2405 -1.2495
  101OSM   C18S10184   3.299   1.342   8.954  0.1112 -0.3031  0.1865
  101OSM   H18S10185   3.222   1.283   9.008 -0.5311  1.3317  1.1551
  101OSM   H18T10186   3.270   1.367   8.850 -2.6175  0.0183  0.9456
  101OSM   H18U10187   3.294   1.444   9.000  0.1801  0.3290 -1.1609
  101OSM    C1F10188   4.142   1.173  10.412 -0.5375 -0.0928 -0.4132
  101OSM     OF10189   4.182   1.091  10.500  0.1845  0.4117 -0.3536
  101OSM    C2F10190   4.241   1.248  10.333 -0.0996  0.7467 -0.0744
  101OSM    H2F10191   4.320   1.297  10.394 -1.9643  1.1672  2.1458
  101OSM    H2G10192   4.180   1.330  10.290 -1.4677  0.2156  0.7783
  101OSM    C3F10193   4.291   1.151  10.226  0.3008  0.0262  0.5379
  101OSM    H3F10194   4.325   1.060  10.281 -1.1486 -1.0743 -0.3336
  101OSM    H3G10195   4.381   1.189  10.173 -0.5350  0.9841 -0.2187
  101OSM    C4F10196   4.194   1.094  10.119 -0.4360  0.0928 -0.1114
  101OSM    H4F10197   4.160   1.182  10.059  1.9161 -1.3520 -3.8931
  101OSM    H4G10198   4.094   1.062  10.155 -1.0370 -0.1694 -1.9045
  101OSM    C5F10199   4.269   0.999  10.020  0.1527 -0.7605 -0.3455
  101OSM    H5F10200   4.272   0.896  10.061 -0.6600 -0.8707 -0.5379
  101OSM    H5G10201   4.376   1.028  10.030  0.8638 -2.5994 -2.0104
  101OSM    C6F10202   4.223   0.997   9.879  0.0183 -0.2555 -0.0392
  101OSM    H6F10203   4.260   0.907   9.826 -0.8050  1.4110 -3.8467
  101OSM    H6G10204   4.112   0.992   9.880 -0.1121  1.6758  0.8139
  101OSM    C7F10205   4.256   1.121   9.798 -0.6808 -1.1275 -0.0440
  101OSM    H7F10206   4.366   1.133   9.787 -0.7975 -1.2466 -1.6048
  101OSM    H7G10207   4.215   1.209   9.851 -1.2620 -0.3415 -1.7182
  101OSM    C8F10208   4.192   1.121   9.657  0.2683 -0.2959 -0.5833
  101OSM    H8F10209   4.219   1.214   9.602 -1.2398  1.0689  0.8798
  101OSM    H8G10210   4.081   1.121   9.666  0.3936 -2.3845  2.6372
  101OSM    C9F10211   4.222   1.002   9.570 -0.5030 -0.2530  0.2461
  101OSM    H9F10212   4.217   0.901   9.615 -1.8796 -1.2601 -1.9708
  101OSM   C10F10213   4.253   1.003   9.444 -0.5203 -0.3489  0.3328
  101OSM   H10F10214   4.275   0.903   9.403 -0.6464  0.0498 -0.7203
  101OSM   C11F10215   4.264   1.117   9.349 -0.4950  0.2622 -0.4202
  101OSM   H11F10216   4.347   1.116   9.275 -2.6210 -2.3864 -3.0346
  101OSM   H11G10217   4.268   1.217   9.397 -0.3139  0.3233 -0.5612
  101OSM   C12F10218   4.138   1.134   9.252  0.6335 -0.1193 -0.1114
  101OSM   H12F10219   4.033   1.125   9.286 -0.0272  2.2629 -1.2951
  101OSM   H12G10220   4.139   1.048   9.181  0.3713  1.1611 -1.7281
  101OSM   C13F10221   4.132   1.271   9.179 -0.0370 -0.2783 -0.6126
  101OSM   H13F10222   4.212   1.270   9.102 -0.4400 -0.9051 -1.0454
  101OSM   H13G10223   4.158   1.344   9.258  3.5900 -3.6120  1.6316
  101OSM   C14F10224   3.993   1.303   9.127  0.2694  0.3600  0.6445
  101OSM   H14F10225   3.935   1.336   9.216  3.6586  2.3560  2.2953
  101OSM   H14G10226   3.951   1.213   9.077 -1.4107  1.5616 -0.2286
  101OSM   C15F10227   3.987   1.413   9.013  0.0201  0.1602  0.5172
  101OSM   H15F10228   4.032   1.379   8.918 -2.3665  2.0755 -1.4555
  101OSM   H15G10229   4.036   1.511   9.030  2.5211 -0.9888  0.3073
  101OSM   C16F10230   3.842   1.445   8.964  0.3524  0.1631 -0.1533
  101OSM   H16F10231   3.786   1.438   9.060 -0.2589 -2.8198 -0.6453
  101OSM   H16G10232   3.803   1.374   8.888 -1.4282  0.2945  0.5969
  101OSM   C17F10233   3.825   1.591   8.913  0.2984  0.2578  0.6113
  101OSM   H17F10234   3.881   1.655   8.986 -2.5284  2.0432  1.3674
  101OSM   H17G10235   3.721   1.630   8.913  0.3004  0.2717 -0.4022
  101OSM   C18F10236   3.871   1.619   8.772 -0.5403 -0.1670 -0.1539
  101OSM   H18F10237   3.856   1.722   8.733  2.2947 -0.1333 -1.3730
  101OSM   H18G10238   3.813   1.550   8.707 -0.3208 -0.9834  0.4871
  101OSM   H18H10239   3.977   1.586   8.777 -0.5945 -0.1999  3.1942
  102OSM      N10240   4.259   2.975  10.581 -0.3795  0.0851  0.3361
  102OSM    C1510241   4.145   2.981  10.479  0.3897  0.0122 -1.0342
  102OSM   H15A10242   4.176   3.063  10.417  4.1405  0.7165  1.4397
  102OSM   H15B10243   4.045   2.990  10.519  0.8134  0.1204  0.0408
  102OSM   H15C10244   4.139   2.889  10.423 -0.1382  0.2267 -1.3382
  102OSM    C1410245   4.236   2.853  10.665 -0.2136  0.3498  0.3039
  102OSM   H14A10246   4.326   2.834  10.721 -0.6173  0.1718  0.9017
  102OSM   H14B10247   4.226   2.769  10.598 -0.5333 -1.1175  2.1249
  102OSM   H14C10248   4.150   2.868  10.729 -0.9720  0.9474 -0.8247
  102OSM    C1310249   4.383   2.962  10.510 -0.3061 -0.2010  0.9142
  102OSM   H13A10250   4.408   3.059  10.469  0.9295 -0.6815  0.4919
  102OSM   H13B10251   4.385   2.893  10.428 -0.8352  2.3888 -1.4304
  102OSM   H13C10252   4.459   2.925  10.578 -0.9324 -1.3275  1.0203
  102OSM    C1210253   4.256   3.098  10.664 -0.7853 -0.4876  0.2774
  102OSM   H12A10254   4.340   3.098  10.732 -1.3470  2.3941  1.0741
  102OSM   H12B10255   4.169   3.099  10.727 -0.6394  0.6218  0.4672
  102OSM    C1110256   4.269   3.234  10.590 -0.1763 -0.4365 -0.8729
  102OSM   H11A10257   4.274   3.319  10.661  1.6595 -0.5712 -0.7791
  102OSM   H11B10258   4.181   3.248  10.524  0.8161  0.6150 -2.0355
  102OSM      P10259   4.532   3.285  10.567 -0.2624  0.2302 -0.2201
  102OSM    O1310260   4.532   3.263  10.709 -0.1971 -0.8053 -0.6085
  102OSM    O1410261   4.633   3.208  10.492 -0.0440 -0.8525  0.3135
  102OSM    O1110262   4.546   3.445  10.544  0.2794 -0.3896 -0.1445
  102OSM    O1210263   4.387   3.249  10.515  0.1828  0.3374  0.1588
  102OSM    C1S10264   4.488   3.495  10.420  0.9003 -0.3999 -0.1176
  102OSM    H1S10265   4.385   3.455  10.405 -0.5535  3.4475 -1.4877
  102OSM    H1T10266   4.550   3.467  10.332  0.7942 -0.0761 -0.2950
  102OSM     NF10267   4.404   3.693  10.312  0.3376 -0.8532 -0.2300
  102OSM    HNF10268   4.472   3.739  10.255 -0.5624 -1.1262 -1.5742
  102OSM    C2S10269   4.460   3.650  10.434  0.5231  0.3710 -0.4693
  102OSM    H2S10270   4.383   3.652  10.513 -2.5663  0.7741 -3.2863
  102OSM    C3S10271   4.588   3.722  10.483 -0.0908  0.5357 -0.1704
  102OSM    H3S10272   4.672   3.690  10.418  0.2973  2.9412 -0.9655
  102OSM     O310273   4.635   3.675  10.611 -0.9618 -0.2294  0.4721
  102OSM    HO310274   4.599   3.587  10.621 -0.8081 -0.2704  0.6569
  102OSM    C4S10275   4.592   3.874  10.470  0.3062 -0.4876  0.9313
  102OSM    H4S10276   4.505   3.920  10.519  0.1667  0.2245  0.0412
  102OSM    C5S10277   4.663   3.960  10.390  0.3014 -0.2972  0.4139
  102OSM    H5S10278   4.740   3.925  10.320  2.0273 -0.6970  2.4138
  102OSM    C6S10279   4.644   4.108  10.388  0.5325  0.4771  0.1125
  102OSM    H6S10280   4.696   4.139  10.295  0.2779 -1.4667 -0.7133
  102OSM    H6T10281   4.685   4.159  10.477  1.9703 -0.0820 -0.2142
  102OSM    C7S10282   4.498   4.164  10.401  0.3698  0.1016 -0.0830
  102OSM    H7S10283   4.497   4.269  10.438 -1.5734  0.6795 -1.6198
  102OSM    H7T10284   4.450   4.100  10.478  0.2557 -1.3151 -1.2886
  102OSM    C8S10285   4.405   4.155  10.276 -0.4254  0.1139  0.0437
  102OSM    H8S10286   4.408   4.046  10.258  1.4302  0.2407 -0.5216
  102OSM    H8T10287   4.449   4.216  10.195  0.4545 -0.2727  0.2237
  102OSM    C9S10288   4.254   4.194  10.293 -0.0598  0.6687 -0.6976
  102OSM    H9S10289   4.241   4.304  10.308 -1.0032  0.5984 -0.9661
  102OSM    H9T10290   4.217   4.151  10.388 -0.2375  0.9371 -0.6448
  102OSM   C10S10291   4.182   4.143  10.166 -0.5051  0.1678  0.0188
  102OSM   H10S10292   4.145   4.041  10.190 -1.8302  0.6071 -0.0802
  102OSM   H10T10293   4.264   4.145  10.091  0.1843  0.5895  0.7697
  102OSM   C11S10294   4.055   4.223  10.122  0.0634 -0.7061  0.2741
  102OSM   H11S10295   4.063   4.333  10.130  0.2563 -0.7491  0.6938
  102OSM   H11T10296   3.972   4.206  10.194  0.1804 -0.2280  0.5268
  102OSM   C12S10297   4.003   4.191   9.980  0.4732 -0.1689  1.2881
  102OSM   H12S10298   3.926   4.269   9.963  1.5643  0.4613 -1.2820
  102OSM   H12T10299   3.950   4.093   9.983 -0.4482  0.2152 -0.5921
  102OSM   C13S10300   4.110   4.203   9.873  0.3909 -0.0564  0.2594
  102OSM   H13S10301   4.177   4.117   9.890 -0.7177 -0.7724  1.1369
  102OSM   H13T10302   4.167   4.298   9.887  3.0368 -0.4897 -5.0341
  102OSM   C14S10303   4.049   4.211   9.726 -0.3462  0.1139 -0.8614
  102OSM   H14S10304   3.985   4.301   9.719 -0.6563  0.2733  2.4784
  102OSM   H14T10305   3.992   4.118   9.707  2.3784 -2.3040  1.6717
  102OSM   C15S10306   4.151   4.228   9.612 -0.0826 -0.6522 -0.4589
  102OSM   H15S10307   4.239   4.160   9.622  0.0627 -0.1949  1.9663
  102OSM   H15T10308   4.195   4.328   9.635 -0.1232 -1.2145  2.3743
  102OSM   C16S10309   4.096   4.213   9.469  0.5833  0.1553  0.0391
  102OSM   H16S10310   4.023   4.295   9.449  0.4151  0.2226  0.8817
  102OSM   H16T10311   4.035   4.121   9.459 -0.9683  1.1671 -0.1674
  102OSM   C17S10312   4.208   4.209   9.361  0.1764  0.2207  0.0266
  102OSM   H17S10313   4.156   4.202   9.263  1.0115  1.7372 -0.5544
  102OSM   H17T10314   4.268   4.116   9.374 -0.1882 -0.0122  0.0614
  102OSM   C18S10315   4.292   4.335   9.369 -0.1305  0.7629 -0.3212
  102OSM   H18S10316   4.361   4.327   9.455 -1.9400 -1.6471  1.0132
  102OSM   H18T10317   4.231   4.428   9.365  0.9210  1.4391 -2.8540
  102OSM   H18U10318   4.354   4.327   9.277  0.8827  0.2047  0.3906
  102OSM    C1F10319   4.278   3.669  10.271 -0.3775  0.1052  0.3097
  102OSM     OF10320   4.193   3.626  10.349 -0.0388 -0.4893 -0.4576
  102OSM    C2F10321   4.242   3.703  10.127 -0.2005 -0.0018 -0.6174
  102OSM    H2F10322   4.278   3.612  10.073  0.8033 -1.4438  2.2924
  102OSM    H2G10323   4.298   3.796  10.103  1.0497  0.1815  2.6214
  102OSM    C3F10324   4.099   3.729  10.101  0.0730  0.4761 -0.7746
  102OSM    H3F10325   4.058   3.793  10.183 -0.3215 -0.6286 -0.0832
  102OSM    H3G10326   4.040   3.636  10.114  0.7462  0.0701 -0.6041
  102OSM    C4F10327   4.066   3.805   9.968  0.2394  0.8947 -0.4034
  102OSM    H4F10328   4.129   3.897   9.962  2.0638 -0.3237 -0.8871
  102OSM    H4G10329   3.963   3.845   9.963  0.5061  1.4481 -2.0906
  102OSM    C5F10330   4.090   3.719   9.839  0.1942 -0.1806 -0.8191
  102OSM    H5F10331   4.039   3.621   9.851  0.0795 -0.1777 -1.2571
  102OSM    H5G10332   4.198   3.693   9.827 -0.5616 -3.4611 -1.4915
  102OSM    C6F10333   4.040   3.787   9.713 -0.1674 -0.1975  0.2049
  102OSM    H6F10334   4.098   3.881   9.701  0.5178 -0.6160  0.1637
  102OSM    H6G10335   3.940   3.832   9.725  0.1987  1.1872 -1.5524
  102OSM    C7F10336   4.064   3.700   9.594 -0.2619  0.2709  0.0764
  102OSM    H7F10337   4.005   3.608   9.613  0.6308  0.2633  3.4852
  102OSM    H7G10338   4.171   3.672   9.592 -0.2236  0.4369 -0.1938
  102OSM    C8F10339   4.015   3.763   9.462  0.5930  0.2970 -0.2242
  102OSM    H8F10340   4.091   3.841   9.441  2.8544 -1.8550 -0.4658
  102OSM    H8G10341   3.918   3.816   9.476 -0.1909 -0.6629 -1.7566
  102OSM    C9F10342   3.995   3.657   9.355  0.1592 -0.1341  0.1093
  102OSM    H9F10343   3.911   3.586   9.364 -1.0756  1.2768 -0.0159
  102OSM   C10F10344   4.057   3.649   9.239  0.2508 -0.3664 -1.1798
  102OSM   H10F10345   4.034   3.565   9.171  0.4635 -4.1647  2.9274
  102OSM   C11F10346   4.171   3.730   9.182 -0.4059  0.3914  0.1128
  102OSM   H11F10347   4.259   3.672   9.148  0.0413  0.6357  0.8198
  102OSM   H11G10348   4.209   3.803   9.258 -0.2576 -1.0879  1.5120
  102OSM   C12F10349   4.130   3.802   9.052 -0.4517  0.4779 -0.0986
  102OSM   H12F10350   4.030   3.850   9.052 -0.2961  0.8498 -1.5471
  102OSM   H12G10351   4.146   3.736   8.964  1.2323  2.0339 -1.0167
  102OSM   C13F10352   4.225   3.925   9.025  0.4568  0.5373 -0.0288
  102OSM   H13F10353   4.326   3.879   9.028 -0.1999 -1.0646 -1.4651
  102OSM   H13G10354   4.216   4.000   9.107  2.2661  1.6877 -0.8145
  102OSM   C14F10355   4.206   3.988   8.891 -0.5445  0.5034  0.1630
  102OSM   H14F10356   4.101   4.021   8.878  0.0688  3.4919  1.8593
  102OSM   H14G10357   4.241   3.921   8.810  2.0029  0.8761  0.8714
  102OSM   C15F10358   4.272   4.117   8.863 -0.4990  0.1516  0.2475
  102OSM   H15F10359   4.382   4.109   8.877 -0.2108  3.1406  0.3957
  102OSM   H15G10360   4.222   4.188   8.931 -0.8739  1.7137 -1.5639
  102OSM   C16F10361   4.250   4.168   8.723  0.0924  0.3181  0.1305
  102OSM   H16F10362   4.144   4.201   8.713  0.2050  0.9275  0.8560
  102OSM   H16G10363   4.271   4.092   8.645  2.6924  2.1678 -1.0873
  102OSM   C17F10364   4.320   4.303   8.696 -0.3282  0.2948 -0.7477
  102OSM   H17F10365   4.296   4.342   8.595  0.5174  1.5871 -0.4718
  102OSM   H17G10366   4.426   4.278   8.675  0.4577  0.7008  2.2835
  102OSM   C18F10367   4.292   4.412   8.798  0.0378  0.1262 -0.5604
  102OSM   H18F10368   4.356   4.503   8.792 -1.3995  1.2366  0.3056
  102OSM   H18G10369   4.303   4.368   8.899 -0.3144 -0.4669 -0.7733
  102OSM   H18H10370   4.187   4.442   8.781  0.8905  2.4662 -2.2219
  103OSM      N10371   4.492   5.249  10.589  0.0544  0.4400 -0.4199
  103OSM    C1510372   4.634   5.264  10.555 -0.8115  0.7797 -0.2800
  103OSM   H15A10373   4.648   5.277  10.449  3.1306 -0.4036 -0.0548
  103OSM   H15B10374   4.688   5.178  10.592 -1.5061  0.9066  1.1284
  103OSM   H15C10375   4.664   5.355  10.605 -0.6080  0.5936 -0.0612
  103OSM    C1410376   4.424   5.372  10.550  0.5880 -0.0776 -0.2513
  103OSM   H14A10377   4.469   5.454  10.604 -0.9107  0.5941  0.0240
  103OSM   H14B10378   4.320   5.361  10.576  0.6034  1.0163  0.2969
  103OSM   H14C10379   4.429   5.392  10.444  2.3682 -1.7020 -0.5211
  103OSM    C1310380   4.438   5.135  10.502  0.1308 -0.3266 -0.2370
  103OSM   H13A10381   4.476   5.042  10.539  0.8707 -0.0165 -0.1905
  103OSM   H13B10382   4.459   5.149  10.397  1.1023  1.3899  0.1361
  103OSM   H13C10383   4.330   5.132  10.499  0.0342 -0.4060  2.0030
  103OSM    C1210384   4.472   5.216  10.738 -0.5531  0.5511 -0.9244
  103OSM   H12A10385   4.533   5.282  10.798 -3.4970  1.6903  1.0450
  103OSM   H12B10386   4.510   5.120  10.768 -1.4442  0.9693  1.7869
  103OSM    C1110387   4.328   5.219  10.788  0.4276  0.6280 -0.0577
  103OSM   H11A10388   4.317   5.160  10.881 -1.6003 -0.7762 -1.1279
  103OSM   H11B10389   4.270   5.159  10.715  0.7336  2.4779 -1.9237
  103OSM      P10390   4.137   5.371  10.885  0.0801  0.2194 -0.0284
  103OSM    O1310391   4.123   5.259  10.984  0.0926  0.3331  0.4009
  103OSM    O1410392   4.122   5.509  10.939 -0.0488 -0.2124 -0.9783
  103OSM    O1110393   4.032   5.360  10.765  0.0951  0.2589  0.3383
  103OSM    O1210394   4.271   5.350  10.808 -0.1386 -0.5632  0.0347
  103OSM    C1S10395   4.039   5.443  10.646  0.4058  0.0160  0.2139
  103OSM    H1S10396   4.143   5.460  10.612  0.0092  0.2147 -0.9690
  103OSM    H1T10397   4.003   5.546  10.664 -0.1255 -0.1302  0.0264
  103OSM     NF10398   4.002   5.459  10.387 -0.5504  0.0180 -0.6546
  103OSM    HNF10399   3.947   5.525  10.336 -2.3824  0.6066  1.9138
  103OSM    C2S10400   3.963   5.387  10.517 -0.1597 -0.3573  0.1450
  103OSM    H2S10401   3.990   5.280  10.511 -0.9693 -0.5023 -2.2846
  103OSM    C3S10402   3.811   5.389  10.547 -0.2098  0.0647 -0.4984
  103OSM    H3S10403   3.783   5.496  10.541  2.6913  0.9880  0.5729
  103OSM     O310404   3.772   5.355  10.681  0.1267 -0.7513 -0.4016
  103OSM    HO310405   3.854   5.369  10.730 -0.7038 -2.2928  1.5577
  103OSM    C4S10406   3.737   5.317  10.444 -0.5407 -0.5170  0.1858
  103OSM    H4S10407   3.758   5.209  10.439  1.7009 -0.0906 -1.0095
  103OSM    C5S10408   3.653   5.373  10.358 -0.2683 -0.3081 -1.1641
  103OSM    H5S10409   3.628   5.480  10.363 -0.8042 -0.4607 -0.3650
  103OSM    C6S10410   3.585   5.295  10.260  1.2852  0.0079  0.1472
  103OSM    H6S10411   3.477   5.311  10.276  1.4896  2.1245 -0.2934
  103OSM    H6T10412   3.619   5.189  10.254 -0.3074 -0.5789  0.8606
  103OSM    C7S10413   3.615   5.353  10.121  0.0350  0.2042 -0.4747
  103OSM    H7S10414   3.726   5.349  10.108 -0.0320 -0.6785 -0.8462
  103OSM    H7T10415   3.596   5.462  10.111 -1.5612  0.0628  0.7030
  103OSM    C8S10416   3.565   5.270  10.008  0.5495 -0.1829 -0.2223
  103OSM    H8S10417   3.462   5.305   9.983  0.1841 -1.2407 -0.2698
  103OSM    H8T10418   3.549   5.164  10.038 -1.0208  0.2896  0.7441
  103OSM    C9S10419   3.645   5.286   9.881 -0.2928 -0.1545  0.2018
  103OSM    H9S10420   3.752   5.267   9.904 -0.3211  1.1916  1.5818
  103OSM    H9T10421   3.642   5.390   9.843 -1.1353  0.2283  1.2711
  103OSM   C10S10422   3.601   5.195   9.769 -0.2158 -1.0372 -0.0362
  103OSM   H10S10423   3.491   5.205   9.757 -0.1829 -1.7008 -1.0170
  103OSM   H10T10424   3.609   5.087   9.791 -2.0723 -1.0618  0.6716
  103OSM   C11S10425   3.682   5.202   9.637  0.0126 -0.1488  0.3206
  103OSM   H11S10426   3.784   5.163   9.657  0.0284  0.1236  0.7970
  103OSM   H11T10427   3.705   5.309   9.619  1.1772 -0.2493  1.0796
  103OSM   C12S10428   3.603   5.177   9.507 -0.0244  0.2651  0.0827
  103OSM   H12S10429   3.589   5.276   9.459  0.5164 -0.1484 -0.9516
  103OSM   H12T10430   3.503   5.135   9.528 -1.3134  2.3157 -1.5774
  103OSM   C13S10431   3.696   5.092   9.417  0.9876 -0.6139  0.1882
  103OSM   H13S10432   3.729   4.995   9.460  2.5089 -0.4580 -0.5436
  103OSM   H13T10433   3.783   5.153   9.385 -1.0865  1.5574 -1.7380
  103OSM   C14S10434   3.616   5.054   9.287  0.5306  0.0654  0.4029
  103OSM   H14S10435   3.577   5.146   9.240  0.6316  0.4689  1.0991
  103OSM   H14T10436   3.532   4.989   9.319 -0.1352  0.8800  0.3278
  103OSM   C15S10437   3.702   4.982   9.180 -0.0900 -0.2232 -0.1006
  103OSM   H15S10438   3.758   4.910   9.244  2.9739  0.6843 -1.6152
  103OSM   H15T10439   3.772   5.060   9.145 -1.2725  0.8181 -0.2270
  103OSM   C16S10440   3.630   4.908   9.074  0.0836 -0.8122 -0.0820
  103OSM   H16S10441   3.569   4.976   9.012 -2.1294 -1.0551  1.6879
  103OSM   H16T10442   3.561   4.832   9.116 -1.1353  1.4623  2.3201
  103OSM   C17S10443   3.730   4.844   8.971 -0.5402  0.8157  0.1008
  103OSM   H17S10444   3.772   4.749   9.009 -0.2891  0.2013 -1.6401
  103OSM   H17T10445   3.812   4.914   8.946 -1.0062  1.4736  0.3677
  103OSM   C18S10446   3.654   4.812   8.843 -0.4923 -0.0013 -0.8773
  103OSM   H18S10447   3.572   4.738   8.852  0.0756 -0.7224 -1.4340
  103OSM   H18T10448   3.728   4.759   8.779  0.4699 -0.3680  0.4743
  103OSM   H18U10449   3.616   4.900   8.788  2.6188  0.7260 -2.1065
  103OSM    C1F10450   4.119   5.416  10.325 -0.3035 -0.1584 -0.8138
  103OSM     OF10451   4.186   5.324  10.365 -0.0530  0.2412  0.4043
  103OSM    C2F10452   4.162   5.496  10.201  0.5907 -0.4640 -0.5233
  103OSM    H2F10453   4.237   5.571  10.235 -0.1146  0.1213 -0.2245
  103OSM    H2G10454   4.074   5.559  10.176 -0.6412 -2.1029 -0.4738
  103OSM    C3F10455   4.215   5.397  10.093 -0.6317 -0.1257  0.8392
  103OSM    H3F10456   4.147   5.313  10.064  1.0867 -0.6736 -2.0621
  103OSM    H3G10457   4.312   5.365  10.135 -0.3859 -0.2398  0.1952
  103OSM    C4F10458   4.238   5.466   9.955  0.2455  0.7651  0.4108
  103OSM    H4F10459   4.329   5.530   9.963 -0.0471  1.6688 -2.3305
  103OSM    H4G10460   4.151   5.529   9.929 -0.6877  0.3906  2.4424
  103OSM    C5F10461   4.277   5.369   9.845 -0.3415  0.3474 -0.7892
  103OSM    H5F10462   4.195   5.294   9.854  0.1097 -0.1102 -0.4239
  103OSM    H5G10463   4.375   5.324   9.871 -1.0458 -1.1507 -0.5937
  103OSM    C6F10464   4.280   5.413   9.697 -0.3937  0.5480  0.2861
  103OSM    H6F10465   4.308   5.327   9.633  1.4070  1.4459 -0.2011
  103OSM    H6G10466   4.360   5.488   9.682 -0.3644  0.4703  0.0518
  103OSM    C7F10467   4.148   5.464   9.641 -0.5312  0.0489  0.3730
  103OSM    H7F10468   4.118   5.550   9.705 -0.9250  0.2002 -0.0091
  103OSM    H7G10469   4.069   5.386   9.647  1.1541 -1.7187  0.8166
  103OSM    C8F10470   4.156   5.486   9.489 -0.2355 -0.5750  0.3705
  103OSM    H8F10471   4.062   5.469   9.433  0.2289  0.0393 -0.6260
  103OSM    H8G10472   4.223   5.409   9.447 -0.6174  0.7948 -3.0276
  103OSM    C9F10473   4.210   5.626   9.445  0.0447 -0.2190 -0.2280
  103OSM    H9F10474   4.165   5.711   9.498 -1.1564 -0.7539 -0.3514
  103OSM   C10F10475   4.302   5.647   9.350 -0.1883 -0.4667  0.1906
  103OSM   H10F10476   4.316   5.750   9.314 -5.0811  0.5173  0.3113
  103OSM   C11F10477   4.375   5.547   9.259  0.7628 -0.0672 -0.4133
  103OSM   H11F10478   4.351   5.442   9.289 -0.9322  0.8369  1.6485
  103OSM   H11G10479   4.485   5.562   9.265  0.9363 -0.9375 -1.0872
  103OSM   C12F10480   4.308   5.559   9.117 -0.3739 -0.1913 -0.3219
  103OSM   H12F10481   4.309   5.668   9.091  0.2300  0.4282  2.1004
  103OSM   H12G10482   4.204   5.520   9.126 -0.2212 -0.0153  3.6220
  103OSM   C13F10483   4.384   5.483   9.006  0.2929  0.1560 -0.1152
  103OSM   H13F10484   4.372   5.373   9.018 -3.4564  0.6088  1.7188
  103OSM   H13G10485   4.489   5.518   9.013  0.4885  0.7225 -4.0700
  103OSM   C14F10486   4.345   5.513   8.862 -0.1823  0.1348 -0.0509
  103OSM   H14F10487   4.322   5.621   8.852  1.6461  0.6066  0.5140
  103OSM   H14G10488   4.250   5.467   8.828 -1.5585  2.2891  0.6573
  103OSM   C15F10489   4.448   5.475   8.755 -0.6311  0.5669  0.8221
  103OSM   H15F10490   4.547   5.518   8.780  0.9268 -1.7478 -0.9797
  103OSM   H15G10491   4.420   5.531   8.663 -0.7195 -0.8022 -0.0102
  103OSM   C16F10492   4.455   5.325   8.733 -0.3480 -0.2743  0.6247
  103OSM   H16F10493   4.356   5.278   8.717 -1.5503  1.9908  0.9887
  103OSM   H16G10494   4.495   5.272   8.822 -1.0630 -1.4836  0.2489
  103OSM   C17F10495   4.535   5.293   8.601  0.2283 -0.1551 -0.0972
  103OSM   H17F10496   4.640   5.305   8.635  0.6948 -2.3500 -0.6280
  103OSM   H17G10497   4.503   5.377   8.535 -2.3933  0.1079  1.3689
  103OSM   C18F10498   4.508   5.164   8.526 -0.4618  0.2545 -0.4141
  103OSM   H18F10499   4.508   5.070   8.584 -1.7389  0.9010  0.6704
  103OSM   H18G10500   4.590   5.149   8.453 -1.0889 -2.3234 -0.6891
  103OSM   H18H10501   4.409   5.171   8.476 -0.3389  2.2216 -0.4750
  104OSM      N10502   6.117   6.473  10.829 -0.1726 -0.3791 -0.9153
  104OSM    C1510503   6.260   6.517  10.800 -0.5756  0.6379 -0.6051
  104OSM   H15A10504   6.327   6.444  10.843 -1.7268  0.8973  1.7860
  104OSM   H15B10505   6.279   6.610  10.851  2.2388 -0.8796  1.4184
  104OSM   H15C10506   6.273   6.528  10.693 -0.9479  0.8124 -0.6324
  104OSM    C1410507   6.102   6.477  10.978 -0.1054 -0.2835 -0.1227
  104OSM   H14A10508   6.175   6.410  11.020 -0.8343 -1.1345 -0.1736
  104OSM   H14B10509   5.998   6.460  11.004 -1.4918  0.8911 -4.1071
  104OSM   H14C10510   6.137   6.573  11.013  2.3452 -1.2821  0.3105
  104OSM    C1310511   6.020   6.569  10.764  0.0763  1.3039  0.6409
  104OSM   H13A10512   5.927   6.547  10.813  1.0901 -0.8916  1.7306
  104OSM   H13B10513   6.016   6.550  10.657 -1.7188  0.4045  0.8291
  104OSM   H13C10514   6.040   6.674  10.776  0.3903  1.0905  2.1103
  104OSM    C1210515   6.086   6.329  10.785 -0.3708 -0.5791  0.8485
  104OSM   H12A10516   6.006   6.288  10.845 -1.5048 -1.3075 -1.0474
  104OSM   H12B10517   6.175   6.271  10.808  0.0675 -0.4641 -0.4649
  104OSM    C1110518   6.068   6.298  10.634  0.2846 -1.0161  0.5348
  104OSM   H11A10519   5.987   6.361  10.591  3.1472  1.9010 -1.0773
  104OSM   H11B10520   6.039   6.193  10.615 -3.4214 -0.2438  1.0685
  104OSM      P10521   6.317   6.232  10.588 -0.0057 -0.3483 -0.0217
  104OSM    O1310522   6.440   6.307  10.559 -0.2901  0.8196  0.5756
  104OSM    O1410523   6.310   6.171  10.719  0.0052  0.3525  0.3100
  104OSM    O1110524   6.292   6.117  10.474 -0.1746  0.2172  0.2777
  104OSM    O1210525   6.193   6.335  10.574 -0.7404 -0.9025 -0.5645
  104OSM    C1S10526   6.235   6.159  10.344 -0.1009 -0.3370  0.2248
  104OSM    H1S10527   6.177   6.254  10.353  2.2273  1.2126 -0.3102
  104OSM    H1T10528   6.172   6.082  10.294  0.0581  1.1891 -2.5322
  104OSM     NF10529   6.304   6.270  10.137 -0.1810 -0.1035  0.8806
  104OSM    HNF10530   6.269   6.218  10.059 -2.7774  1.0462  1.1932
  104OSM    C2S10531   6.355   6.193  10.247  0.3223  0.7081 -0.5632
  104OSM    H2S10532   6.418   6.262  10.308  0.9056  1.1007 -1.5786
  104OSM    C3S10533   6.425   6.059  10.204  0.1688 -0.0066  0.3288
  104OSM    H3S10534   6.338   5.998  10.169 -0.8097  1.8892 -0.7460
  104OSM     O310535   6.480   5.986  10.309 -0.0045  0.4677  0.5510
  104OSM    HO310536   6.454   6.044  10.380 -0.6828  1.6869 -0.6597
  104OSM    C4S10537   6.510   6.092  10.086 -0.0743 -0.3886  0.8828
  104OSM    H4S10538   6.463   6.082   9.987 -1.2972 -0.7825  1.4784
  104OSM    C5S10539   6.636   6.146  10.086 -0.0393  0.3836  0.7929
  104OSM    H5S10540   6.673   6.189  10.180  1.3431 -0.2942  0.5788
  104OSM    C6S10541   6.712   6.180   9.960 -0.3371  0.3181  0.5459
  104OSM    H6S10542   6.798   6.109   9.951 -0.9604 -0.6214  1.6582
  104OSM    H6T10543   6.762   6.276   9.981  1.1423 -0.7251  2.0742
  104OSM    C7S10544   6.632   6.173   9.831  0.5739  0.0718  0.0003
  104OSM    H7S10545   6.557   6.252   9.853  2.2980  1.5928  0.6126
  104OSM    H7T10546   6.580   6.077   9.807  3.2440 -1.3759 -0.3140
  104OSM    C8S10547   6.706   6.225   9.700  0.3480 -0.3528 -0.0572
  104OSM    H8S10548   6.789   6.155   9.675  1.2690  1.0927 -1.2230
  104OSM    H8T10549   6.750   6.324   9.724  0.4162 -0.1482 -0.9953
  104OSM    C9S10550   6.609   6.208   9.577 -0.5238 -0.3136  1.0153
  104OSM    H9S10551   6.519   6.271   9.589 -0.1066  0.5162  0.0321
  104OSM    H9T10552   6.586   6.100   9.563 -1.2015 -0.0768  0.2428
  104OSM   C10S10553   6.667   6.262   9.448 -0.0690 -0.8950  0.3331
  104OSM   H10S10554   6.765   6.213   9.432  0.9639  0.5465  1.8021
  104OSM   H10T10555   6.690   6.368   9.471  0.8510 -0.8524 -0.7385
  104OSM   C11S10556   6.574   6.246   9.327 -0.2518 -0.4220  0.4450
  104OSM   H11S10557   6.475   6.296   9.339 -0.2391  0.3630 -2.2211
  104OSM   H11T10558   6.563   6.140   9.297  0.9474 -0.5622  0.4578
  104OSM   C12S10559   6.629   6.315   9.197  0.2355  0.1007 -0.5445
  104OSM   H12S10560   6.707   6.249   9.155  0.7547  0.4971 -0.2125
  104OSM   H12T10561   6.681   6.406   9.235  1.2987 -0.5130 -0.5082
  104OSM   C13S10562   6.519   6.346   9.095  0.9888  0.3887  0.2569
  104OSM   H13S10563   6.421   6.364   9.145  0.2998 -0.2783 -0.8036
  104OSM   H13T10564   6.504   6.259   9.028 -0.4423  1.6700 -1.1759
  104OSM   C14S10565   6.555   6.452   8.989 -0.2389 -0.0305 -0.0693
  104OSM   H14S10566   6.647   6.423   8.935 -0.4307  0.8999 -0.9213
  104OSM   H14T10567   6.579   6.546   9.043  0.4227  0.0140 -0.4277
  104OSM   C15S10568   6.438   6.479   8.886 -0.2859  0.2801  0.6679
  104OSM   H15S10569   6.350   6.525   8.936 -0.0471  1.2734  0.1988
  104OSM   H15T10570   6.418   6.371   8.871  1.9591 -0.5719  3.0614
  104OSM   C16S10571   6.478   6.549   8.752  0.2936  0.5017 -0.1086
  104OSM   H16S10572   6.494   6.658   8.764  0.4704  0.2328  3.0627
  104OSM   H16T10573   6.389   6.553   8.685 -1.5387  0.0875  2.1484
  104OSM   C17S10574   6.603   6.486   8.687  0.0856 -0.0258 -0.2062
  104OSM   H17S10575   6.595   6.375   8.687  0.6528 -0.0809  0.9988
  104OSM   H17T10576   6.688   6.500   8.757  0.2121 -3.4190  0.4947
  104OSM   C18S10577   6.635   6.532   8.542  1.1469  0.1638  0.3514
  104OSM   H18S10578   6.720   6.478   8.496  1.2297  0.9067 -0.4117
  104OSM   H18T10579   6.666   6.639   8.538  1.0702  0.1605 -0.6896
  104OSM   H18U10580   6.546   6.515   8.477 -0.0402  2.8446  1.1284
  104OSM    C1F10581   6.266   6.399  10.146 -0.0663  0.2839 -0.0806
  104OSM     OF10582   6.315   6.466  10.231  0.0922 -0.0028  0.0823
  104OSM    C2F10583   6.163   6.449  10.051 -0.3018 -0.4886  0.1540
  104OSM    H2F10584   6.063   6.424  10.093 -0.6331  0.7105  0.1171
  104OSM    H2G10585   6.185   6.411   9.949 -1.8729 -1.6597  0.2174
  104OSM    C3F10586   6.167   6.598  10.029  0.3422 -0.1692 -0.0625
  104OSM    H3F10587   6.263   6.624   9.979  0.0454  1.1179  0.0131
  104OSM    H3G10588   6.154   6.647  10.127 -1.1632 -1.6165  0.5181
  104OSM    C4F10589   6.056   6.644   9.936 -0.3123 -0.2144 -0.7277
  104OSM    H4F10590   6.089   6.749   9.924  0.1096 -0.1660  0.7130
  104OSM    H4G10591   5.954   6.638   9.980  0.0542  1.4415  0.4708
  104OSM    C5F10592   6.064   6.598   9.792  0.2683  0.5923  0.7060
  104OSM    H5F10593   6.040   6.490   9.797  0.8224  0.4183 -0.1511
  104OSM    H5G10594   6.170   6.602   9.759  0.4705  0.5494  1.3264
  104OSM    C6F10595   5.979   6.667   9.679  0.3881  0.1717  0.0398
  104OSM    H6F10596   5.872   6.654   9.707 -0.3838  2.4723 -1.5657
  104OSM    H6G10597   5.999   6.618   9.582 -1.1214  1.5886 -1.0331
  104OSM    C7F10598   6.020   6.809   9.647 -0.2371 -0.0809 -0.5592
  104OSM    H7F10599   6.125   6.803   9.612 -0.6354  0.1552 -1.8636
  104OSM    H7G10600   6.008   6.863   9.743  0.5417 -1.1114  0.1284
  104OSM    C8F10601   5.954   6.868   9.519  0.5329 -0.8787 -0.5379
  104OSM    H8F10602   5.995   6.829   9.423 -1.6218  2.0380 -2.8190
  104OSM    H8G10603   5.977   6.976   9.537  0.9121 -1.1657  0.7790
  104OSM    C9F10604   5.807   6.859   9.512 -0.4619 -0.3984 -0.4397
  104OSM    H9F10605   5.758   6.830   9.607 -0.9084  3.0667  0.5119
  104OSM   C10F10606   5.734   6.864   9.403  0.2560  0.2687 -0.3853
  104OSM   H10F10607   5.626   6.865   9.424 -0.2062  0.6830 -2.5354
  104OSM   C11F10608   5.764   6.890   9.255 -0.1227 -0.6756 -0.5458
  104OSM   H11F10609   5.704   6.816   9.197 -0.1724 -0.3906 -0.8617
  104OSM   H11G10610   5.870   6.864   9.236  0.1988 -0.0769  0.3504
  104OSM   C12F10611   5.746   7.038   9.199 -1.2472  0.6016 -0.6779
  104OSM   H12F10612   5.807   7.099   9.268  0.8566 -1.0223 -0.9889
  104OSM   H12G10613   5.641   7.072   9.213 -2.1054 -1.0857 -2.5077
  104OSM   C13F10614   5.788   7.062   9.055 -0.1717 -0.0092 -0.2324
  104OSM   H13F10615   5.894   7.033   9.039  0.5615  2.1274  0.4268
  104OSM   H13G10616   5.790   7.172   9.034 -0.4389  0.0215 -0.1016
  104OSM   C14F10617   5.693   7.013   8.957  0.1106 -0.0117 -0.4202
  104OSM   H14F10618   5.601   7.068   8.985  1.6308  1.8759  1.1677
  104OSM   H14G10619   5.655   6.910   8.972 -2.1157  0.5619 -1.6570
  104OSM   C15F10620   5.729   7.054   8.811 -0.4080 -0.5410 -0.0905
  104OSM   H15F10621   5.833   7.026   8.785 -0.5026 -0.9512 -0.0315
  104OSM   H15G10622   5.733   7.165   8.798  1.1786 -0.4675  0.7819
  104OSM   C16F10623   5.619   6.995   8.714 -0.6251 -0.3581 -0.3730
  104OSM   H16F10624   5.518   7.003   8.759 -0.2560 -0.8572  0.5665
  104OSM   H16G10625   5.648   6.890   8.692  1.7939 -0.0036  0.7029
  104OSM   C17F10626   5.618   7.081   8.585 -0.0898 -0.4255 -0.2138
  104OSM   H17F10627   5.712   7.079   8.527  0.1795 -0.8144  0.2264
  104OSM   H17G10628   5.593   7.187   8.606 -0.1793 -0.3509 -0.6909
  104OSM   C18F10629   5.512   7.027   8.490 -0.6195  0.2716 -0.3442
  104OSM   H18F10630   5.530   6.918   8.482 -1.8597  0.1332 -1.6825
  104OSM   H18G10631   5.523   7.081   8.394  1.8420  0.7403  0.1294
  104OSM   H18H10632   5.413   7.040   8.539  0.0985 -0.9887  1.5667
  105OSM      N10633   3.504   2.969  11.046 -0.3095  0.2099 -0.4816
  105OSM    C1510634   3.485   2.860  11.147 -0.3817 -0.2417  0.1067
  105OSM   H15A10635   3.566   2.854  11.218 -0.5991  1.7684  0.5763
  105OSM   H15B10636   3.486   2.768  11.091  0.0724  0.0802 -0.4231
  105OSM   H15C10637   3.386   2.876  11.188 -0.8171 -0.0524 -0.9762
  105OSM    C1410638   3.513   3.099  11.120 -0.3613 -0.7724 -0.3597
  105OSM   H14A10639   3.438   3.119  11.195 -0.0147  0.1229 -0.2413
  105OSM   H14B10640   3.530   3.176  11.046 -0.1069  0.3822  0.8812
  105OSM   H14C10641   3.600   3.090  11.183 -0.0920 -0.1443 -0.6312
  105OSM    C1310642   3.639   2.950  10.977 -0.4790 -0.1226 -0.4616
  105OSM   H13A10643   3.719   2.990  11.037 -1.0158  1.3937 -0.7119
  105OSM   H13B10644   3.647   3.003  10.883  0.4074  0.8477  0.1360
  105OSM   H13C10645   3.661   2.846  10.958 -0.8558 -0.2256 -0.3515
  105OSM    C1210646   3.395   2.977  10.938  0.9892  0.8967 -0.1705
  105OSM   H12A10647   3.394   2.886  10.878 -1.1983  0.5335  0.3099
  105OSM   H12B10648   3.411   3.052  10.862 -1.6918  1.2411 -0.4932
  105OSM    C1110649   3.254   2.997  10.986 -0.1142  0.2412  0.0303
  105OSM   H11A10650   3.246   3.099  11.031 -0.6603 -0.9997  2.9723
  105OSM   H11B10651   3.234   2.916  11.058 -1.7560 -0.6358 -1.3468
  105OSM      P10652   3.078   2.845  10.856  0.1453 -0.2851 -0.1679
  105OSM    O1310653   3.021   2.795  10.986  0.0358 -1.1036 -0.0936
  105OSM    O1410654   2.979   2.871  10.747  0.0492  0.5243  0.2363
  105OSM    O1110655   3.203   2.751  10.814  0.4000  0.0376  1.0387
  105OSM    O1210656   3.158   2.981  10.875  0.2548  0.1940  0.1273
  105OSM    C1S10657   3.182   2.646  10.724 -0.6178 -0.3548 -0.1658
  105OSM    H1S10658   3.077   2.609  10.734 -0.6695 -0.1706 -0.0269
  105OSM    H1T10659   3.253   2.563  10.740 -2.2734 -1.7827  0.0926
  105OSM     NF10660   3.166   2.577  10.493 -0.2819 -0.1952 -0.0300
  105OSM    HNF10661   3.243   2.517  10.471  0.3606 -0.8226  3.4432
  105OSM    C2S10662   3.199   2.688  10.582  0.2253  0.1184  0.0687
  105OSM    H2S10663   3.115   2.760  10.568  0.0929  0.1490  0.9652
  105OSM    C3S10664   3.334   2.748  10.554 -0.2607 -0.1442 -0.1675
  105OSM    H3S10665   3.414   2.674  10.577 -1.5623 -1.5428  0.0430
  105OSM     O310666   3.362   2.860  10.630  0.0469  0.5518 -0.8201
  105OSM    HO310667   3.306   2.842  10.706 -1.2443  2.1821 -1.3350
  105OSM    C4S10668   3.352   2.792  10.400  0.3152  0.1668  0.6136
  105OSM    H4S10669   3.258   2.824  10.353  0.3668  0.3527  0.6334
  105OSM    C5S10670   3.454   2.751  10.320  0.1411  0.1874  0.0954
  105OSM    H5S10671   3.530   2.681  10.356  0.5599 -0.8927 -2.7042
  105OSM    C6S10672   3.463   2.780  10.169  0.0722  0.5190 -0.0335
  105OSM    H6S10673   3.361   2.808  10.134 -0.0648  0.4454  0.2982
  105OSM    H6T10674   3.498   2.692  10.112 -2.5509 -0.9062  0.3965
  105OSM    C7S10675   3.556   2.901  10.133  0.3638  0.4320 -0.4729
  105OSM    H7S10676   3.660   2.874  10.160  1.1799  3.0007 -0.7408
  105OSM    H7T10677   3.535   2.985  10.203 -0.1239  0.1402 -0.2704
  105OSM    C8S10678   3.537   2.929   9.987 -0.1569  0.3500  0.3242
  105OSM    H8S10679   3.432   2.960   9.965 -0.3693 -0.0205  0.8196
  105OSM    H8T10680   3.565   2.845   9.921 -0.7099 -0.3372  0.9413
  105OSM    C9S10681   3.622   3.047   9.929 -0.2118 -0.2139 -0.2365
  105OSM    H9S10682   3.728   3.016   9.917  0.2584  0.9985  0.6591
  105OSM    H9T10683   3.611   3.134   9.996  3.7637 -1.0360  1.7645
  105OSM   C10S10684   3.576   3.091   9.783 -0.1274  0.7263 -0.6042
  105OSM   H10S10685   3.599   3.198   9.768  1.3531  0.8596  2.0070
  105OSM   H10T10686   3.466   3.084   9.771 -0.4518  4.2690 -0.6969
  105OSM   C11S10687   3.640   3.002   9.679  0.0602  0.6392 -0.4783
  105OSM   H11S10688   3.608   2.899   9.710  3.5716  0.2118  2.3686
  105OSM   H11T10689   3.749   3.019   9.689 -0.0178  1.2005 -0.5733
  105OSM   C12S10690   3.594   3.028   9.544 -0.7155 -0.4058  0.1997
  105OSM   H12S10691   3.650   3.118   9.511  1.0333 -1.6921 -0.5213
  105OSM   H12T10692   3.484   3.047   9.541 -0.5739  0.9267  1.8798
  105OSM   C13S10693   3.627   2.912   9.450 -0.7399 -0.4709  0.0617
  105OSM   H13S10694   3.556   2.828   9.465  0.6527 -1.9082 -1.1322
  105OSM   H13T10695   3.728   2.868   9.461 -1.4705 -2.2490  0.0272
  105OSM   C14S10696   3.605   2.953   9.300  0.5958 -0.1219  0.0579
  105OSM   H14S10697   3.501   2.992   9.297  0.5005 -0.3651  0.1628
  105OSM   H14T10698   3.604   2.867   9.229  0.7885  1.4467 -1.9553
  105OSM   C15S10699   3.710   3.055   9.248  0.1283 -0.6861  0.3623
  105OSM   H15S10700   3.808   3.011   9.275  0.2730 -0.3025  0.4556
  105OSM   H15T10701   3.708   3.153   9.299 -3.5916 -0.4921  0.1003
  105OSM   C16S10702   3.707   3.075   9.093  0.8002 -0.2637  0.2093
  105OSM   H16S10703   3.758   2.993   9.037 -0.7437 -1.1182 -0.0114
  105OSM   H16T10704   3.768   3.167   9.080  1.8233 -0.4583  3.0430
  105OSM   C17S10705   3.568   3.099   9.039 -0.6042  0.6719 -0.6172
  105OSM   H17S10706   3.524   3.185   9.092  0.8106 -0.0369  1.8725
  105OSM   H17T10707   3.500   3.013   9.057 -0.0234  0.0015 -1.4728
  105OSM   C18S10708   3.559   3.136   8.893 -0.0167  0.6419 -0.7014
  105OSM   H18S10709   3.542   3.040   8.839  1.2525  0.1076 -0.1939
  105OSM   H18T10710   3.654   3.186   8.866  0.8475  1.3249  2.9824
  105OSM   H18U10711   3.470   3.200   8.875  0.3570  0.9763 -1.3796
  105OSM    C1F10712   3.041   2.532  10.478  0.4212 -0.1294  1.4453
  105OSM     OF10713   2.946   2.595  10.518  0.1656 -0.3872 -0.3424
  105OSM    C2F10714   3.017   2.411  10.391 -0.0810  0.2950  0.7003
  105OSM    H2F10715   2.913   2.372  10.398 -0.6961  1.3866 -1.4184
  105OSM    H2G10716   3.076   2.322  10.424  0.2646  0.0127 -0.6315
  105OSM    C3F10717   3.043   2.445  10.241 -0.7199 -0.0689 -0.1594
  105OSM    H3F10718   3.147   2.481  10.230 -2.1260  3.5991 -4.3818
  105OSM    H3G10719   2.997   2.538  10.203  1.5238  0.8595 -0.7915
  105OSM    C4F10720   3.003   2.340  10.133  0.3336  0.7940  0.5820
  105OSM    H4F10721   2.896   2.328  10.106  0.9632 -0.0301 -1.7932
  105OSM    H4G10722   3.043   2.242  10.166 -0.4652  1.2017  2.9715
  105OSM    C5F10723   3.073   2.372   9.997 -0.5076  0.3271  0.4240
  105OSM    H5F10724   3.173   2.415  10.017  0.0692 -0.1299 -1.3704
  105OSM    H5G10725   3.021   2.445   9.931 -0.9188 -0.6016 -0.2926
  105OSM    C6F10726   3.104   2.241   9.922 -0.1528 -0.5476  0.4707
  105OSM    H6F10727   3.006   2.191   9.907  0.3454 -1.7130  0.9846
  105OSM    H6G10728   3.170   2.177   9.984  1.1130  0.7431  0.5204
  105OSM    C7F10729   3.151   2.278   9.783  0.7690  0.6294  0.1233
  105OSM    H7F10730   3.252   2.316   9.809  0.8269 -0.4329  1.6097
  105OSM    H7G10731   3.075   2.341   9.732  1.0021  0.4949 -0.3965
  105OSM    C8F10732   3.182   2.157   9.701  0.5473 -0.3048 -0.7616
  105OSM    H8F10733   3.253   2.093   9.758  0.5876  0.6651  0.3010
  105OSM    H8G10734   3.241   2.194   9.614 -1.3445  1.6026 -1.3008
  105OSM    C9F10735   3.053   2.096   9.657  0.9176  0.2371 -1.2038
  105OSM    H9F10736   2.987   2.045   9.728  1.4898  1.4019  0.2074
  105OSM   C10F10737   3.010   2.099   9.530  0.5506 -0.3261 -0.0633
  105OSM   H10F10738   2.912   2.056   9.506 -0.0733  0.3411  1.1916
  105OSM   C11F10739   3.081   2.153   9.408 -0.3393 -0.5558  0.0472
  105OSM   H11F10740   3.191   2.166   9.414 -0.0668 -1.7226 -1.5835
  105OSM   H11G10741   3.036   2.254   9.415  0.0794 -0.4922  3.1087
  105OSM   C12F10742   3.045   2.090   9.270 -0.1278 -0.1042 -0.3848
  105OSM   H12F10743   2.935   2.089   9.256 -0.2876  1.0853  0.7062
  105OSM   H12G10744   3.079   1.984   9.268 -0.8686 -0.4001  1.3119
  105OSM   C13F10745   3.099   2.179   9.159  1.1943  0.3178  0.1210
  105OSM   H13F10746   3.209   2.190   9.174  1.2536 -0.5380  0.3340
  105OSM   H13G10747   3.058   2.282   9.159 -1.2094 -0.5600 -1.4468
  105OSM   C14F10748   3.069   2.116   9.023  0.5093  0.4525 -0.5482
  105OSM   H14F10749   2.961   2.091   9.016  0.7842 -0.9027 -0.2131
  105OSM   H14G10750   3.098   2.009   9.032 -1.4715  0.0164  1.9465
  105OSM   C15F10751   3.109   2.197   8.898  0.1897  0.2333 -1.0340
  105OSM   H15F10752   3.125   2.302   8.930  1.0951 -1.1145  3.6253
  105OSM   H15G10753   3.025   2.185   8.826  0.7837  1.5074 -1.9722
  105OSM   C16F10754   3.237   2.152   8.838 -0.4278  0.1982  0.6048
  105OSM   H16F10755   3.239   2.041   8.830  2.3158  0.2591 -0.7894
  105OSM   H16G10756   3.323   2.185   8.900  1.2680  1.6031 -2.2570
  105OSM   C17F10757   3.263   2.215   8.698 -0.1187  0.7270  0.2321
  105OSM   H17F10758   3.374   2.217   8.693  0.0628  1.7466  2.9685
  105OSM   H17G10759   3.231   2.321   8.692  0.8060  1.0186  0.3281
  105OSM   C18F10760   3.204   2.136   8.583 -0.0213  0.0950  0.0333
  105OSM   H18F10761   3.257   2.158   8.488 -0.5644  2.0322  0.1215
  105OSM   H18G10762   3.095   2.159   8.574 -0.1029 -0.2953  0.0253
  105OSM   H18H10763   3.219   2.028   8.605 -0.2591 -0.0369 -0.4347
  106OSM      N10764   0.916   3.428  10.536  0.0956 -0.1377 -0.1861
  106OSM    C1510765   0.826   3.527  10.612  0.4076  0.7841  0.6266
  106OSM   H15A10766   0.732   3.545  10.563  0.3505 -0.0984  0.4074
  106OSM   H15B10767   0.874   3.619  10.643  1.6499  0.1731  0.6064
  106OSM   H15C10768   0.807   3.476  10.705 -1.0313  0.0327 -0.0531
  106OSM    C1410769   0.962   3.492  10.401 -0.6110  0.0566 -0.9563
  106OSM   H14A10770   1.025   3.423  10.347  0.4009  1.6042 -1.8237
  106OSM   H14B10771   1.013   3.586  10.417 -2.3117  0.9167 -0.3237
  106OSM   H14C10772   0.878   3.518  10.340 -1.2114  3.3547  1.0242
  106OSM    C1310773   1.033   3.390  10.611 -0.2381 -0.4739 -0.0375
  106OSM   H13A10774   1.020   3.366  10.715 -1.8115 -1.0509 -0.3475
  106OSM   H13B10775   1.099   3.475  10.618 -2.0186  0.8671  0.8966
  106OSM   H13C10776   1.094   3.312  10.566  0.9952  0.3433  0.1794
  106OSM    C1210777   0.833   3.301  10.505 -0.9657  0.3153  0.0255
  106OSM   H12A10778   0.812   3.254  10.600  0.9258  1.7069  1.1953
  106OSM   H12B10779   0.897   3.238  10.445 -4.9443 -0.9138 -3.4287
  106OSM    C1110780   0.709   3.321  10.418 -0.0895 -0.5556  0.2659
  106OSM   H11A10781   0.690   3.229  10.359 -2.3965 -0.0480  0.1427
  106OSM   H11B10782   0.734   3.402  10.346 -2.6791  0.9993  1.0009
  106OSM      P10783   0.514   3.259  10.580 -0.1441  0.4379  0.2065
  106OSM    O1310784   0.607   3.200  10.677 -0.5530 -0.8236  0.2450
  106OSM    O1410785   0.383   3.309  10.631  0.9627  0.1248 -0.2444
  106OSM    O1110786   0.491   3.142  10.471 -0.1037 -0.4795  0.2777
  106OSM    O1210787   0.589   3.367  10.487 -0.0521  0.6983  0.3787
  106OSM    C1S10788   0.387   3.147  10.369 -0.7750  0.3464 -1.1519
  106OSM    H1S10789   0.321   3.234  10.390  0.6846  1.0434  0.9228
  106OSM    H1T10790   0.329   3.053  10.377  0.1802 -0.2284 -0.7552
  106OSM     NF10791   0.312   3.179  10.141 -0.2408  0.3961 -0.5680
  106OSM    HNF10792   0.270   3.101  10.096  0.1441  0.4459 -1.0245
  106OSM    C2S10793   0.428   3.156  10.222  0.1407  0.3151  1.0033
  106OSM    H2S10794   0.500   3.233  10.190  1.0470 -1.3510 -1.2353
  106OSM    C3S10795   0.504   3.019  10.192 -0.5088 -0.1634  1.2779
  106OSM    H3S10796   0.436   2.932  10.203  0.2180 -0.9726 -0.2617
  106OSM     O310797   0.621   3.000  10.271  0.4480  0.9727  0.0340
  106OSM    HO310798   0.619   3.048  10.354  2.9005  1.7803 -0.2966
  106OSM    C4S10799   0.534   3.020  10.039  0.5313 -0.1156  0.1389
  106OSM    H4S10800   0.445   2.978   9.990  1.0806 -0.6121 -0.4518
  106OSM    C5S10801   0.636   3.070   9.967 -0.1839  0.1154 -0.6533
  106OSM    H5S10802   0.727   3.115  10.009  1.1015 -3.2235  0.4071
  106OSM    C6S10803   0.649   3.068   9.815 -0.2345  0.1701  0.0576
  106OSM    H6S10804   0.742   3.017   9.782 -1.8346 -1.8805 -1.4893
  106OSM    H6T10805   0.653   3.174   9.781  0.3459  0.3386  0.6198
  106OSM    C7S10806   0.542   3.003   9.739  0.3841 -0.0251 -0.0565
  106OSM    H7S10807   0.445   3.055   9.759 -0.0663 -0.3364 -1.3552
  106OSM    H7T10808   0.526   2.895   9.762 -0.6889  0.1948  0.2973
  106OSM    C8S10809   0.563   3.007   9.584 -0.1927 -0.4735  0.1279
  106OSM    H8S10810   0.602   3.107   9.554 -1.2304  0.0487  0.4707
  106OSM    H8T10811   0.458   3.010   9.547  0.1586 -2.0874 -1.1039
  106OSM    C9S10812   0.639   2.889   9.526 -0.2427 -0.9580  0.3686
  106OSM    H9S10813   0.590   2.791   9.547  1.0723 -2.0782 -1.5067
  106OSM    H9T10814   0.738   2.879   9.575  0.8326 -2.6258 -1.9589
  106OSM   C10S10815   0.676   2.893   9.373  0.3447  0.9316 -0.5189
  106OSM   H10S10816   0.582   2.894   9.314  0.6006  1.2498 -0.9293
  106OSM   H10T10817   0.720   2.793   9.356 -0.9984  0.4161 -1.0947
  106OSM   C11S10818   0.773   3.000   9.332 -0.4714  0.1308  0.0565
  106OSM   H11S10819   0.865   2.977   9.389 -1.3759 -0.9573  1.1306
  106OSM   H11T10820   0.755   3.100   9.378  0.2642  0.4466 -0.3177
  106OSM   C12S10821   0.788   2.998   9.174  0.1445 -1.0432  0.1226
  106OSM   H12S10822   0.693   3.033   9.128  0.2609 -1.1171 -0.1771
  106OSM   H12T10823   0.797   2.891   9.146 -1.4677 -1.0403 -0.4897
  106OSM   C13S10824   0.913   3.059   9.112 -0.2424 -0.6334 -0.3826
  106OSM   H13S10825   1.004   3.009   9.151 -0.9986 -2.6499 -1.0595
  106OSM   H13T10826   0.928   3.166   9.139  3.4152 -0.4569 -2.5193
  106OSM   C14S10827   0.901   3.073   8.960 -0.1624 -0.0465  0.1429
  106OSM   H14S10828   0.988   3.121   8.911  1.1845 -1.2749  1.2542
  106OSM   H14T10829   0.816   3.140   8.935  0.0474 -0.2019 -1.0265
  106OSM   C15S10830   0.877   2.941   8.884 -0.0496 -0.2355 -0.4196
  106OSM   H15S10831   0.780   2.898   8.919 -0.9429  0.7022 -1.6568
  106OSM   H15T10832   0.947   2.860   8.914 -0.9929 -0.4958  1.2283
  106OSM   C16S10833   0.886   2.960   8.733 -0.6923 -0.7349  0.2180
  106OSM   H16S10834   0.994   2.967   8.710 -0.6726  5.3886  0.6026
  106OSM   H16T10835   0.832   3.054   8.707 -0.3196  0.3483  2.9787
  106OSM   C17S10836   0.829   2.839   8.658 -0.0581 -0.6523 -0.2284
  106OSM   H17S10837   0.721   2.828   8.679 -0.0249 -0.2400  0.1697
  106OSM   H17T10838   0.878   2.751   8.706 -1.3180 -0.9269  0.5984
  106OSM   C18S10839   0.847   2.834   8.505 -0.4639 -0.0392 -0.1762
  106OSM   H18S10840   0.956   2.850   8.490 -0.5835  1.0897  0.0796
  106OSM   H18T10841   0.802   2.921   8.453 -1.6967  0.3980  1.5386
  106OSM   H18U10842   0.813   2.735   8.470  0.5296 -0.1990 -0.7394
  106OSM    C1F10843   0.240   3.287  10.145  0.2636  0.0536 -0.2378
  106OSM     OF10844   0.255   3.378  10.224  0.1334 -0.2733  0.5970
  106OSM    C2F10845   0.128   3.289  10.043  0.3581 -0.3107 -0.6120
  106OSM    H2F10846   0.143   3.214   9.962  0.7117  0.0445 -0.8752
  106OSM    H2G10847   0.141   3.386   9.991  1.4533 -1.2267 -2.1341
  106OSM    C3F10848  -0.013   3.263  10.100  0.6104 -0.1022  0.5311
  106OSM    H3F10849  -0.030   3.325  10.191 -0.7130  1.7748 -0.9049
  106OSM    H3G10850  -0.025   3.159  10.136  2.2166 -0.0547  1.2880
  106OSM    C4F10851  -0.129   3.314  10.008 -0.7291  0.1854 -0.2613
  106OSM    H4F10852  -0.117   3.266   9.909  2.6598  1.4684 -0.6170
  106OSM    H4G10853  -0.116   3.423   9.993  0.6675  0.1027  0.1699
  106OSM    C5F10854  -0.266   3.287  10.073 -0.6914 -0.5002 -0.1165
  106OSM    H5F10855  -0.261   3.329  10.175  0.1930 -0.5842 -0.1154
  106OSM    H5G10856  -0.270   3.178  10.091  0.9573 -0.6197 -0.3075
  106OSM    C6F10857  -0.393   3.335   9.993 -0.2217  0.1023 -0.0745
  106OSM    H6F10858  -0.374   3.444   9.986 -0.1054  0.0843 -0.0300
  106OSM    H6G10859  -0.478   3.313  10.062 -0.3318  1.2681  0.1764
  106OSM    C7F10860  -0.413   3.273   9.857 -0.0916  0.5259  0.3026
  106OSM    H7F10861  -0.438   3.166   9.869  0.9441  0.2958  0.4658
  106OSM    H7G10862  -0.316   3.272   9.804 -0.9403 -0.8497 -1.3424
  106OSM    C8F10863  -0.524   3.344   9.767  0.0492 -0.1283 -0.0907
  106OSM    H8F10864  -0.508   3.315   9.661 -1.0647 -0.4774 -0.1794
  106OSM    H8G10865  -0.500   3.452   9.770  1.7248 -0.4767 -0.3002
  106OSM    C9F10866  -0.663   3.310   9.811  0.1515 -0.7577  0.5312
  106OSM    H9F10867  -0.701   3.369   9.895  0.4813 -0.6669  0.6171
  106OSM   C10F10868  -0.749   3.226   9.747 -0.4741 -0.1417  0.7576
  106OSM   H10F10869  -0.856   3.227   9.771 -0.6127  1.5021  0.1892
  106OSM   C11F10870  -0.732   3.151   9.620  0.4718  0.4502  1.0005
  106OSM   H11F10871  -0.705   3.044   9.636  0.4900  0.6601  2.4390
  106OSM   H11G10872  -0.648   3.195   9.563  0.1919  1.1027  1.0901
  106OSM   C12F10873  -0.862   3.150   9.538  0.6597 -0.0559 -0.8060
  106OSM   H12F10874  -0.896   3.255   9.525  0.2048  0.2536  2.0803
  106OSM   H12G10875  -0.943   3.107   9.602 -0.2942  1.0040 -1.2575
  106OSM   C13F10876  -0.851   3.083   9.403 -0.0675 -0.0731 -0.4638
  106OSM   H13F10877  -0.953   3.093   9.358  0.9511  1.0431 -2.6596
  106OSM   H13G10878  -0.827   2.976   9.423 -0.5360  0.0296  0.7086
  106OSM   C14F10879  -0.742   3.139   9.305  0.1618  0.0224  0.2848
  106OSM   H14F10880  -0.635   3.131   9.334 -0.0163  2.2189  1.7258
  106OSM   H14G10881  -0.766   3.247   9.307  0.5255  0.1115  0.0095
  106OSM   C15F10882  -0.754   3.065   9.168  0.0882  0.2542 -0.3658
  106OSM   H15F10883  -0.857   3.084   9.131 -0.6419 -0.9808  0.9184
  106OSM   H15G10884  -0.755   2.954   9.180 -1.8250  0.3167  0.3077
  106OSM   C16F10885  -0.651   3.098   9.055  1.0088  0.4108  0.3850
  106OSM   H16F10886  -0.683   3.066   8.954 -0.3659  0.3962  0.7999
  106OSM   H16G10887  -0.551   3.055   9.078  0.0315 -0.9805  2.3323
  106OSM   C17F10888  -0.645   3.250   9.042  0.5216 -0.0800  0.3270
  106OSM   H17F10889  -0.616   3.315   9.127  1.6371 -0.9582  0.6355
  106OSM   H17G10890  -0.754   3.268   9.031 -0.0961 -2.7680  1.5060
  106OSM   C18F10891  -0.575   3.286   8.905  0.0983  0.7434 -0.5418
  106OSM   H18F10892  -0.573   3.397   8.898  0.6913  0.9988  2.4278
  106OSM   H18G10893  -0.622   3.230   8.822  0.3909  1.0411 -0.9171
  106OSM   H18H10894  -0.468   3.255   8.904  0.8330  2.9041  1.9346
  107OSM      N10895   4.135   0.031  10.796 -0.8327  0.8694  0.3279
  107OSM    C1510896   4.107  -0.018  10.928  0.1538 -0.1223 -0.8552
  107OSM   H15A10897   4.039  -0.101  10.913  1.8622 -1.7882  0.1385
  107OSM   H15B10898   4.052   0.048  10.995 -0.2485  1.0495 -2.2891
  107OSM   H15C10899   4.188  -0.067  10.980 -1.8504  0.5156  3.3519
  107OSM    C1410900   4.014   0.086  10.737  0.1037 -0.1929 -0.1484
  107OSM   H14A10901   3.979   0.155  10.813  2.2817  0.3506  0.4182
  107OSM   H14B10902   3.944   0.007  10.715  0.3074 -0.4470  0.1144
  107OSM   H14C10903   4.039   0.149  10.652 -0.1810 -0.6544 -0.5800
  107OSM    C1310904   4.241   0.134  10.808  0.3212 -0.7719  0.1733
  107OSM   H13A10905   4.319   0.086  10.865 -0.7154 -3.6048 -0.6148
  107OSM   H13B10906   4.200   0.225  10.848 -0.9238  0.5954 -3.7128
  107OSM   H13C10907   4.284   0.159  10.712 -0.0744 -0.7120  0.0076
  107OSM    C1210908   4.180  -0.080  10.700  0.8266 -0.2144 -0.6236
  107OSM   H12A10909   4.275  -0.124  10.729  0.7247  0.1002  0.2092
  107OSM   H12B10910   4.178  -0.035  10.602 -1.1187 -0.5842 -0.7952
  107OSM    C1110911   4.090  -0.205  10.683 -0.3282  0.0323 -0.0047
  107OSM   H11A10912   4.121  -0.253  10.588 -0.7149  1.0224 -0.6491
  107OSM   H11B10913   3.990  -0.165  10.656 -0.5763  0.5915  1.6585
  107OSM      P10914   4.194  -0.395  10.815 -0.4566 -0.3122 -0.2581
  107OSM    O1310915   4.331  -0.338  10.809  0.1130  0.0506  0.9591
  107OSM    O1410916   4.161  -0.477  10.929 -0.3703 -0.0852  0.5206
  107OSM    O1110917   4.168  -0.471  10.682  0.1911 -0.1733 -0.0169
  107OSM    O1210918   4.084  -0.287  10.802 -0.2824 -0.1965 -0.1650
  107OSM    C1S10919   4.031  -0.529  10.679 -0.6941  0.2741 -0.9202
  107OSM    H1S10920   3.958  -0.480  10.746  1.4498  1.0861  0.9602
  107OSM    H1T10921   4.038  -0.636  10.711 -0.0055  0.6221  0.1443
  107OSM     NF10922   3.836  -0.605  10.553 -0.5922  0.1740 -0.5898
  107OSM    HNF10923   3.839  -0.702  10.531  2.3629  0.0227  0.1692
  107OSM    C2S10924   3.957  -0.522  10.547 -0.1619  1.1499  0.2626
  107OSM    H2S10925   3.928  -0.418  10.520 -1.8838  0.1855 -1.9231
  107OSM    C3S10926   4.054  -0.573  10.423 -0.2255  1.0151  0.3398
  107OSM    H3S10927   4.082  -0.680  10.421  0.6972  1.2558 -1.5206
  107OSM     O310928   4.181  -0.515  10.427 -0.2993  0.4764  0.1206
  107OSM    HO310929   4.186  -0.498  10.522 -0.0540 -2.4472  0.7244
  107OSM    C4S10930   4.000  -0.548  10.281  0.5587  0.4458 -0.0374
  107OSM    H4S10931   3.974  -0.442  10.263 -2.6883 -0.5269 -1.8243
  107OSM    C5S10932   3.973  -0.637  10.187  0.5361  0.0022  0.1414
  107OSM    H5S10933   4.024  -0.734  10.191 -1.4233 -1.1629 -1.3871
  107OSM    C6S10934   3.923  -0.619  10.042  0.3746  0.4603 -0.4876
  107OSM    H6S10935   3.888  -0.514  10.025  0.8738  0.5963 -0.6861
  107OSM    H6T10936   3.835  -0.681  10.015  0.1642  1.0664 -1.2472
  107OSM    C7S10937   4.026  -0.658   9.938 -0.2818  0.5164  0.1761
  107OSM    H7S10938   4.045  -0.766   9.957 -0.7698  0.4094  0.0765
  107OSM    H7T10939   4.123  -0.604   9.940  1.5647 -2.5513 -0.0965
  107OSM    C8S10940   3.973  -0.658   9.788  0.8378 -0.0185  0.2615
  107OSM    H8S10941   4.058  -0.659   9.717 -0.0589 -1.2325 -0.8385
  107OSM    H8T10942   3.928  -0.561   9.762  1.4775 -0.2057 -1.7206
  107OSM    C9S10943   3.885  -0.783   9.751  0.0470  0.3963  0.2197
  107OSM    H9S10944   3.784  -0.760   9.792  0.8356 -0.5980  2.9428
  107OSM    H9T10945   3.930  -0.880   9.779 -1.1751 -0.1738  0.2503
  107OSM   C10S10946   3.875  -0.785   9.593 -0.0881  0.2064 -0.0269
  107OSM   H10S10947   3.819  -0.879   9.577  0.1104  0.4416 -2.3575
  107OSM   H10T10948   3.975  -0.808   9.549 -0.2218 -2.7977  0.9937
  107OSM   C11S10949   3.788  -0.673   9.536 -0.1714 -0.3222 -0.2046
  107OSM   H11S10950   3.822  -0.574   9.574 -0.0764 -0.8707  1.1996
  107OSM   H11T10951   3.687  -0.684   9.580 -1.3238  0.6234 -2.4621
  107OSM   C12S10952   3.793  -0.674   9.386  0.2408 -0.0943  0.2892
  107OSM   H12S10953   3.707  -0.618   9.343 -0.9560 -1.5044  0.7488
  107OSM   H12T10954   3.790  -0.783   9.362 -2.0854 -0.0240  0.0704
  107OSM   C13S10955   3.926  -0.621   9.342 -0.7052 -0.6070 -0.1696
  107OSM   H13S10956   3.988  -0.714   9.339  1.3093  0.6676  0.3687
  107OSM   H13T10957   3.973  -0.545   9.408  0.3335 -2.3996  1.2587
  107OSM   C14S10958   3.920  -0.572   9.198 -0.0221 -1.0326  0.7095
  107OSM   H14S10959   4.027  -0.555   9.173 -0.3404 -0.9546 -0.7181
  107OSM   H14T10960   3.869  -0.474   9.186  1.0034 -0.7218 -1.6963
  107OSM   C15S10961   3.862  -0.673   9.091  0.2586 -0.6596 -0.5527
  107OSM   H15S10962   3.870  -0.624   8.992 -0.7221 -0.7216 -0.6694
  107OSM   H15T10963   3.756  -0.693   9.120  0.1101  0.4828 -0.2840
  107OSM   C16S10964   3.940  -0.810   9.092  0.0562  0.2229 -0.4325
  107OSM   H16S10965   3.949  -0.863   9.189  4.0091 -0.0096 -0.7703
  107OSM   H16T10966   4.045  -0.787   9.062 -0.1807  2.2891  0.1523
  107OSM   C17S10967   3.874  -0.915   9.003  0.2143 -0.0870  0.6629
  107OSM   H17S10968   3.859  -0.869   8.903  0.8454  1.5122  1.2595
  107OSM   H17T10969   3.776  -0.939   9.049 -0.4441  0.9372 -0.1417
  107OSM   C18S10970   3.969  -1.032   8.986  0.1711 -0.4649  0.2671
  107OSM   H18S10971   3.921  -1.115   8.929  2.1045 -2.8213  1.8815
  107OSM   H18T10972   4.002  -1.074   9.083 -0.9564  0.3576  1.0270
  107OSM   H18U10973   4.052  -1.007   8.917 -1.4137  2.0087 -0.9099
  107OSM    C1F10974   3.725  -0.563  10.622 -0.0215  0.0929  0.6743
  107OSM     OF10975   3.717  -0.448  10.659  0.4746 -0.0877 -0.2142
  107OSM    C2F10976   3.620  -0.674  10.632 -0.8534 -0.8900  0.4488
  107OSM    H2F10977   3.616  -0.715  10.735  1.6532 -0.1376  0.9107
  107OSM    H2G10978   3.643  -0.763  10.570  0.9680 -0.0676 -0.1178
  107OSM    C3F10979   3.482  -0.635  10.584 -0.5461 -0.0464  0.7739
  107OSM    H3F10980   3.438  -0.554  10.646 -0.1741  0.1999  0.7195
  107OSM    H3G10981   3.414  -0.723  10.584 -1.8092  0.8014 -2.4976
  107OSM    C4F10982   3.473  -0.591  10.434 -0.5597 -0.0456 -0.0545
  107OSM    H4F10983   3.538  -0.503  10.414  2.9295 -2.4322 -0.2216
  107OSM    H4G10984   3.369  -0.558  10.415 -0.0756  2.8687  1.7379
  107OSM    C5F10985   3.530  -0.708  10.347 -0.0224 -0.2925 -0.1210
  107OSM    H5F10986   3.483  -0.805  10.370  1.7783 -1.5430 -1.4365
  107OSM    H5G10987   3.637  -0.732  10.331 -0.1177 -0.7103 -0.1410
  107OSM    C6F10988   3.487  -0.675  10.204 -0.1121  0.4948  0.7298
  107OSM    H6F10989   3.527  -0.575  10.176 -0.1847  0.3428  0.0875
  107OSM    H6G10990   3.376  -0.664  10.195 -0.0038  1.7656  0.7462
  107OSM    C7F10991   3.545  -0.768  10.094 -0.0788  0.5984 -0.0222
  107OSM    H7F10992   3.489  -0.864  10.091  1.1921 -0.1837  0.6453
  107OSM    H7G10993   3.647  -0.798  10.126 -0.4051  0.1360  0.5934
  107OSM    C8F10994   3.546  -0.691   9.955  0.6257 -0.1535  0.1837
  107OSM    H8F10995   3.606  -0.756   9.888  1.3627  1.2922 -0.6030
  107OSM    H8G10996   3.604  -0.597   9.953 -0.6446  0.6788  0.7595
  107OSM    C9F10997   3.409  -0.650   9.907 -0.2037 -0.2765  0.2732
  107OSM    H9F10998   3.359  -0.578   9.973 -0.6127  0.8449 -1.2126
  107OSM   C10F10999   3.347  -0.677   9.787  0.8192 -0.0009 -0.0858
  107OSM   H10F11000   3.245  -0.635   9.781  0.6820 -0.2602  0.4094
  107OSM   C11F11001   3.393  -0.768   9.676  0.5403 -0.0671  0.0120
  107OSM   H11F11002   3.448  -0.857   9.713 -1.3989 -1.4780 -0.3350
  107OSM   H11G11003   3.462  -0.712   9.608 -0.9582  1.4874 -0.2807
  107OSM   C12F11004   3.293  -0.845   9.586 -0.3696  0.2519 -1.3332
  107OSM   H12F11005   3.229  -0.778   9.525 -0.4195  0.4993 -1.0146
  107OSM   H12G11006   3.220  -0.898   9.652 -0.7772  1.4943 -0.7482
  107OSM   C13F11007   3.367  -0.941   9.494 -0.1750 -0.8789  0.2902
  107OSM   H13F11008   3.414  -1.012   9.566  0.5291  0.9765  1.7622
  107OSM   H13G11009   3.447  -0.881   9.446 -0.0939  0.7959  2.3631
  107OSM   C14F11010   3.292  -1.028   9.392  0.2808 -0.1362  0.0672
  107OSM   H14F11011   3.214  -0.968   9.342  0.1647  2.0715  2.7014
  107OSM   H14G11012   3.244  -1.114   9.444 -0.1540 -0.0153 -0.1366
  107OSM   C15F11013   3.381  -1.082   9.282  0.5661 -0.0248 -0.7370
  107OSM   H15F11014   3.459  -1.149   9.323 -2.1680 -1.8294  2.0308
  107OSM   H15G11015   3.427  -0.994   9.232 -0.7824  0.4991 -1.1193
  107OSM   C16F11016   3.305  -1.157   9.173  0.2855  1.0061 -0.2486
  107OSM   H16F11017   3.236  -1.088   9.121 -1.6207 -0.4034  0.3009
  107OSM   H16G11018   3.249  -1.240   9.220  1.8371 -1.8955 -3.1001
  107OSM   C17F11019   3.399  -1.230   9.081 -0.4162  0.0792  0.3171
  107OSM   H17F11020   3.337  -1.283   9.007 -0.4548  0.4877  0.0526
  107OSM   H17G11021   3.458  -1.308   9.134 -2.0817 -2.0493 -0.8216
  107OSM   C18F11022   3.505  -1.146   9.016  0.0393 -0.2655  0.4522
  107OSM   H18F11023   3.542  -1.061   9.078  0.5248  0.6700 -1.0522
  107OSM   H18G11024   3.455  -1.098   8.929 -2.9067 -0.1865  2.0554
  107OSM   H18H11025   3.590  -1.207   8.979  0.0842  0.3466 -0.4961
  108OSM      N11026   0.423   2.797  10.667  0.6715  0.4467 -0.6026
  108OSM    C1511027   0.289   2.752  10.613 -0.3087  0.1391 -0.0400
  108OSM   H15A11028   0.214   2.772  10.688  1.4107 -1.2991  2.1886
  108OSM   H15B11029   0.284   2.646  10.598 -0.5203  0.1831 -0.2864
  108OSM   H15C11030   0.267   2.780  10.511  0.7188 -1.6541 -0.7822
  108OSM    C1411031   0.402   2.906  10.765  0.3190 -0.0711 -0.2678
  108OSM   H14A11032   0.355   2.876  10.858  1.9564  1.7222  1.2495
  108OSM   H14B11033   0.354   2.990  10.716 -1.1529 -1.7016 -1.7658
  108OSM   H14C11034   0.495   2.954  10.792  1.1647 -3.2932  3.5563
  108OSM    C1311035   0.465   2.680  10.757 -0.1441 -0.1343  0.3535
  108OSM   H13A11036   0.481   2.590  10.700  0.6190  1.6275 -2.4496
  108OSM   H13B11037   0.403   2.666  10.845 -0.1588 -1.2468  0.1788
  108OSM   H13C11038   0.559   2.705  10.804 -0.4350 -0.5158  1.1553
  108OSM    C1211039   0.538   2.823  10.576  0.2448 -0.2711  1.0259
  108OSM   H12A11040   0.621   2.866  10.630 -0.9323  0.9634  1.9154
  108OSM   H12B11041   0.496   2.898  10.511 -1.9166 -1.2053  1.2702
  108OSM    C1111042   0.591   2.700  10.492  0.0944  0.3290  0.0358
  108OSM   H11A11043   0.639   2.737  10.399  0.1233  1.1066  0.3516
  108OSM   H11B11044   0.500   2.647  10.457 -0.4416  0.8852  0.5612
  108OSM      P11045   0.823   2.648  10.615 -0.1112 -0.3386  0.0864
  108OSM    O1311046   0.842   2.790  10.646 -0.6595 -0.4426  0.0458
  108OSM    O1411047   0.870   2.549  10.712 -0.1476  0.9385  0.2552
  108OSM    O1111048   0.909   2.626  10.486 -0.5716 -0.3484  0.4432
  108OSM    O1211049   0.675   2.611  10.571 -0.0101  0.0701  0.6701
  108OSM    C1S11050   0.961   2.507  10.432  0.0351 -0.3993  0.1633
  108OSM    H1S11051   0.910   2.415  10.467  1.6103 -2.6790 -2.9734
  108OSM    H1T11052   1.070   2.507  10.453  0.3594  0.6884 -1.3237
  108OSM     NF11053   1.001   2.388  10.214 -0.7484 -0.4350  0.3479
  108OSM    HNF11054   1.087   2.385  10.165  0.1089 -0.8503  1.8191
  108OSM    C2S11055   0.952   2.507  10.273  0.3760  0.3462  0.2905
  108OSM    H2S11056   0.844   2.517  10.249  0.6126 -1.9629 -2.2705
  108OSM    C3S11057   1.031   2.628  10.214  0.5286 -0.1690  0.7412
  108OSM    H3S11058   1.142   2.621  10.223  0.7364  1.5777  0.0493
  108OSM     O311059   1.001   2.749  10.280 -0.5728 -0.6034 -0.3080
  108OSM    HO311060   0.965   2.710  10.360 -0.4830  0.2309  0.1589
  108OSM    C4S11061   0.990   2.639  10.066  0.0116 -0.5269  0.7547
  108OSM    H4S11062   0.880   2.639  10.061  0.0122  0.3990  0.6026
  108OSM    C5S11063   1.067   2.652   9.953 -0.4674 -0.4565  0.2073
  108OSM    H5S11064   1.172   2.678   9.973 -0.4478 -1.9860  2.4807
  108OSM    C6S11065   1.028   2.667   9.810 -0.0507  0.0285 -0.2644
  108OSM    H6S11066   0.919   2.677   9.792  0.2936  0.2632 -2.6240
  108OSM    H6T11067   1.056   2.576   9.751  3.0859  0.4578  0.3817
  108OSM    C7S11068   1.082   2.792   9.739  0.5515 -0.5064 -0.4859
  108OSM    H7S11069   1.193   2.785   9.737  0.5385 -0.7456 -0.3128
  108OSM    H7T11070   1.043   2.879   9.797  0.5814 -1.1575  0.5377
  108OSM    C8S11071   1.031   2.807   9.589 -0.6575 -0.6425 -0.6350
  108OSM    H8S11072   1.056   2.910   9.555 -1.8455 -0.0602  0.1881
  108OSM    H8T11073   0.920   2.803   9.598 -0.6178  1.4076  1.8686
  108OSM    C9S11074   1.111   2.717   9.488 -0.4031  0.8431 -0.3436
  108OSM    H9S11075   1.097   2.608   9.504  1.0033  0.6427 -0.3478
  108OSM    H9T11076   1.220   2.735   9.498  0.1459 -1.5973 -1.3256
  108OSM   C10S11077   1.084   2.767   9.345  0.6652 -0.1356  0.7242
  108OSM   H10S11078   1.084   2.878   9.345  0.1222 -0.1056  2.6346
  108OSM   H10T11079   0.977   2.747   9.324  0.7803  0.5224 -0.6220
  108OSM   C11S11080   1.180   2.705   9.251  0.8073 -0.5572  0.1142
  108OSM   H11S11081   1.165   2.596   9.264  0.3840 -0.3777  1.2667
  108OSM   H11T11082   1.282   2.721   9.292  1.1336 -3.0412  0.4426
  108OSM   C12S11083   1.156   2.756   9.104  0.5759  1.2826 -0.2779
  108OSM   H12S11084   1.186   2.863   9.101  1.9103  0.9177 -0.4228
  108OSM   H12T11085   1.047   2.768   9.083  1.1662  3.8951 -2.3232
  108OSM   C13S11086   1.222   2.683   8.987 -0.2899 -0.5987 -0.3492
  108OSM   H13S11087   1.315   2.649   9.037 -0.5087 -0.7540 -0.0453
  108OSM   H13T11088   1.248   2.749   8.901 -0.0240 -2.7313 -2.0089
  108OSM   C14S11089   1.153   2.558   8.947 -0.1041 -0.2578  0.3138
  108OSM   H14S11090   1.091   2.523   9.032 -0.6179  0.1938  0.1260
  108OSM   H14T11091   1.227   2.483   8.908 -0.8235 -0.1900 -1.2826
  108OSM   C15S11092   1.055   2.570   8.823  0.1647 -0.1146 -0.3424
  108OSM   H15S11093   1.109   2.628   8.744 -0.2658 -1.1666 -1.4453
  108OSM   H15T11094   0.967   2.621   8.866 -0.1667 -0.3124 -0.7719
  108OSM   C16S11095   1.029   2.430   8.768  0.7659 -0.2246  0.0084
  108OSM   H16S11096   0.987   2.373   8.853  2.7164  1.4684  2.2222
  108OSM   H16T11097   1.125   2.381   8.743  2.0771  2.4799 -0.7506
  108OSM   C17S11098   0.937   2.406   8.649 -0.8424  0.5802 -0.1331
  108OSM   H17S11099   0.985   2.450   8.558  1.0036  0.8490  0.9290
  108OSM   H17T11100   0.848   2.470   8.668 -0.7714  0.2897  1.2990
  108OSM   C18S11101   0.899   2.262   8.629  0.1000 -0.1293  0.1635
  108OSM   H18S11102   0.838   2.259   8.536 -0.1115 -0.2504  0.3070
  108OSM   H18T11103   0.841   2.225   8.716  0.2978 -0.7106  0.0543
  108OSM   H18U11104   0.989   2.200   8.609 -0.5405 -1.1157  0.2556
  108OSM    C1F11105   0.924   2.282  10.223 -1.0016 -0.2113 -0.0386
  108OSM     OF11106   0.815   2.278  10.272 -0.4133 -0.1744  0.2491
  108OSM    C2F11107   0.976   2.155  10.158  0.3215 -0.3512 -0.8582
  108OSM    H2F11108   0.997   2.091  10.246  1.6678 -0.9717 -1.6131
  108OSM    H2G11109   1.065   2.181  10.097  0.8410  0.6437  0.2821
  108OSM    C3F11110   0.873   2.101  10.064  0.3222 -0.3324 -0.1810
  108OSM    H3F11111   0.777   2.078  10.115  0.6973  2.0696  1.7738
  108OSM    H3G11112   0.915   2.009  10.018  0.7813 -1.2478  1.9377
  108OSM    C4F11113   0.824   2.196   9.950  0.0690 -0.6211  0.0902
  108OSM    H4F11114   0.813   2.295   9.998  2.5551 -0.9357  1.4369
  108OSM    H4G11115   0.728   2.161   9.905 -1.7254  3.7741 -0.0044
  108OSM    C5F11116   0.917   2.221   9.831 -0.6987  0.6805 -0.9671
  108OSM    H5F11117   0.959   2.128   9.788  0.7414  1.4027 -1.1957
  108OSM    H5G11118   1.008   2.272   9.870  0.2174 -0.2946 -1.7865
  108OSM    C6F11119   0.856   2.309   9.719 -0.6391  0.7734 -0.1884
  108OSM    H6F11120   0.862   2.415   9.753  0.3613  1.7951 -3.2183
  108OSM    H6G11121   0.749   2.285   9.699 -0.6230 -0.6960  1.3156
  108OSM    C7F11122   0.937   2.294   9.582  0.0003 -0.1407  0.2316
  108OSM    H7F11123   0.934   2.190   9.543  2.7057  0.3646 -1.5680
  108OSM    H7G11124   1.044   2.312   9.604 -0.2976  1.0646  0.7746
  108OSM    C8F11125   0.908   2.403   9.480  0.3169  0.0984  0.5740
  108OSM    H8F11126   0.992   2.410   9.408  0.2162  0.3944  0.4849
  108OSM    H8G11127   0.890   2.500   9.531  0.4043  1.0931 -1.2237
  108OSM    C9F11128   0.784   2.370   9.401  1.0458  0.4771 -0.6477
  108OSM    H9F11129   0.716   2.299   9.450  1.1446  0.8363  0.0223
  108OSM   C10F11130   0.753   2.407   9.279 -0.1456  0.3080  0.3880
  108OSM   H10F11131   0.659   2.377   9.230 -0.8320  2.3136  0.3801
  108OSM   C11F11132   0.840   2.491   9.187 -0.5967  0.2653 -1.4393
  108OSM   H11F11133   0.900   2.418   9.129  2.2387  0.1363  1.4070
  108OSM   H11G11134   0.902   2.561   9.247 -1.3560  0.4591 -0.8604
  108OSM   C12F11135   0.757   2.579   9.092 -0.1499 -0.2428  0.4903
  108OSM   H12F11136   0.828   2.653   9.050  0.0044 -0.0817  1.0331
  108OSM   H12G11137   0.685   2.643   9.148 -1.9897 -0.6530 -1.2978
  108OSM   C13F11138   0.682   2.503   8.984  0.0171 -0.0119 -0.2067
  108OSM   H13F11139   0.598   2.441   9.019 -1.5356  0.3510 -3.0062
  108OSM   H13G11140   0.752   2.431   8.936 -2.4013 -1.6776 -1.4186
  108OSM   C14F11141   0.634   2.604   8.880  0.6244  0.1090 -0.5534
  108OSM   H14F11142   0.710   2.658   8.819  0.9223  1.8146  1.2289
  108OSM   H14G11143   0.580   2.689   8.927 -0.7441  1.2165 -3.7863
  108OSM   C15F11144   0.539   2.543   8.771  0.1697 -0.2107 -0.6523
  108OSM   H15F11145   0.471   2.483   8.835  2.1259  0.7093  2.4948
  108OSM   H15G11146   0.599   2.474   8.707  0.9129  0.5909 -0.8320
  108OSM   C16F11147   0.465   2.642   8.678 -0.5296 -0.3333  0.1641
  108OSM   H16F11148   0.541   2.710   8.635 -1.0191 -0.1725 -0.4703
  108OSM   H16G11149   0.396   2.699   8.744  0.9959  1.1565  0.5391
  108OSM   C17F11150   0.396   2.571   8.562  0.5813  0.3009  0.0402
  108OSM   H17F11151   0.309   2.518   8.605 -0.1822  0.2488 -1.4820
  108OSM   H17G11152   0.458   2.499   8.505 -0.8050  2.0377 -4.1316
  108OSM   C18F11153   0.350   2.677   8.455  0.0358  0.3893 -0.6698
  108OSM   H18F11154   0.437   2.718   8.400  0.3101  0.2809 -0.3193
  108OSM   H18G11155   0.298   2.762   8.505 -0.5262  0.3180 -1.1215
  108OSM   H18H11156   0.285   2.631   8.377 -1.6942  0.0337  0.9093
  109OSM      N11157   0.542   4.696  10.855  0.2074 -0.4387 -0.7502
  109OSM    C1511158   0.577   4.838  10.886  0.3240 -0.6801  1.1738
  109OSM   H15A11159   0.556   4.900  10.800  1.2411 -1.1994  0.5639
  109OSM   H15B11160   0.684   4.851  10.896  0.5259 -0.6595 -0.6534
  109OSM   H15C11161   0.529   4.882  10.973 -0.5591 -0.1600  0.4484
  109OSM    C1411162   0.592   4.667  10.718  0.1984 -0.3168  0.4733
  109OSM   H14A11163   0.511   4.675  10.648  0.3921 -1.2486  0.1196
  109OSM   H14B11164   0.623   4.564  10.705 -1.3414 -0.9356  1.3803
  109OSM   H14C11165   0.668   4.740  10.696  0.6228 -0.2804  1.9642
  109OSM    C1311166   0.625   4.604  10.952 -0.6465  0.2544 -0.0325
  109OSM   H13A11167   0.728   4.590  10.923 -1.1734 -2.9372 -0.7081
  109OSM   H13B11168   0.594   4.501  10.942 -3.3746  1.0072  0.0208
  109OSM   H13C11169   0.610   4.617  11.058  0.8237 -1.5454  0.4648
  109OSM    C1211170   0.394   4.657  10.864 -0.0488  0.2214  0.9805
  109OSM   H12A11171   0.377   4.623  10.965 -3.1592 -0.6060  0.2830
  109OSM   H12B11172   0.367   4.568  10.810 -1.0685  0.6060  0.8438
  109OSM    C1111173   0.292   4.758  10.808 -0.2791 -0.0232  0.4069
  109OSM   H11A11174   0.194   4.707  10.799 -1.2112  2.0226 -3.0107
  109OSM   H11B11175   0.325   4.779  10.704 -0.6681 -1.9578 -0.1380
  109OSM      P11176   0.154   4.965  10.871  0.1347 -0.3261  0.1082
  109OSM    O1311177   0.042   4.891  10.934  0.3691  0.4573  0.8264
  109OSM    O1411178   0.192   5.095  10.926 -0.0240 -0.2966  0.1800
  109OSM    O1111179   0.122   4.978  10.715  0.3075  0.3857 -0.1166
  109OSM    O1211180   0.279   4.873  10.889  0.5736  0.3161  0.3143
  109OSM    C1S11181   0.226   5.037  10.645 -0.1026 -0.2141  0.7535
  109OSM    H1S11182   0.324   4.986  10.655 -0.5254 -0.7479  2.3498
  109OSM    H1T11183   0.239   5.146  10.662  0.7269  0.0536 -1.2693
  109OSM     NF11184   0.291   5.065  10.399  0.2913  0.3631  0.0243
  109OSM    HNF11185   0.270   5.132  10.328 -2.7005 -0.1604  0.2867
  109OSM    C2S11186   0.186   5.025  10.491 -0.1207 -0.2244 -0.1292
  109OSM    H2S11187   0.159   4.917  10.479  0.4422 -0.6870  2.2688
  109OSM    C3S11188   0.057   5.116  10.464 -0.5653 -0.0598  0.0397
  109OSM    H3S11189   0.077   5.222  10.491 -0.5583  0.1241 -0.6779
  109OSM     O311190  -0.054   5.081  10.548 -0.4659  0.6093  0.1546
  109OSM    HO311191  -0.029   5.012  10.610 -0.4365 -1.7447 -2.2702
  109OSM    C4S11192   0.006   5.121  10.319 -0.2650  0.3331 -0.2020
  109OSM    H4S11193  -0.009   5.020  10.281  1.3590 -0.0504  0.0892
  109OSM    C5S11194  -0.031   5.223  10.240  0.1301 -0.3257 -0.1262
  109OSM    H5S11195  -0.018   5.325  10.279 -1.8264  0.0140 -0.2788
  109OSM    C6S11196  -0.075   5.213  10.096  0.4012 -0.2915  0.3958
  109OSM    H6S11197  -0.001   5.253  10.023 -0.7125  0.4371 -0.3508
  109OSM    H6T11198  -0.165   5.276  10.083  2.4216  2.5386 -1.1682
  109OSM    C7S11199  -0.090   5.075  10.025  0.4637 -0.0584  0.1708
  109OSM    H7S11200  -0.180   5.026  10.066  1.9900 -2.8286  0.4359
  109OSM    H7T11201  -0.002   5.016  10.059  1.3073  1.8185  1.4303
  109OSM    C8S11202  -0.088   5.080   9.872  0.9900 -0.4355  0.3191
  109OSM    H8S11203  -0.074   4.978   9.828  0.5743  0.2962 -1.6077
  109OSM    H8T11204   0.002   5.142   9.851  0.1854 -0.1492 -2.8889
  109OSM    C9S11205  -0.215   5.144   9.819  0.0582  0.3999 -0.4304
  109OSM    H9S11206  -0.196   5.252   9.800 -1.0470  0.4120 -1.6063
  109OSM    H9T11207  -0.295   5.126   9.893  0.5151  3.1401  0.8613
  109OSM   C10S11208  -0.260   5.077   9.683  0.2549  0.6091  0.2268
  109OSM   H10S11209  -0.341   5.145   9.648 -0.5870 -1.0525 -1.1860
  109OSM   H10T11210  -0.297   4.978   9.716  1.8003  0.0395  0.3350
  109OSM   C11S11211  -0.157   5.063   9.574  0.8157 -0.9318  0.5793
  109OSM   H11S11212  -0.088   4.976   9.575  1.6514 -0.2964 -0.5138
  109OSM   H11T11213  -0.101   5.158   9.568 -1.4241  0.4039 -0.8941
  109OSM   C12S11214  -0.240   5.033   9.441 -0.3832  0.5298 -0.5525
  109OSM   H12S11215  -0.296   5.126   9.417  0.0874  0.8655 -0.3600
  109OSM   H12T11216  -0.313   4.954   9.469  0.4425  0.0765  0.3711
  109OSM   C13S11217  -0.158   4.997   9.316  0.1551 -0.5361 -0.2627
  109OSM   H13S11218  -0.233   4.960   9.242  1.3238  1.5614 -2.6724
  109OSM   H13T11219  -0.084   4.920   9.348  0.2528 -1.1032 -1.7335
  109OSM   C14S11220  -0.091   5.119   9.259 -0.8547  0.0612 -0.2332
  109OSM   H14S11221  -0.015   5.150   9.334 -0.3026 -4.1812  1.1847
  109OSM   H14T11222  -0.162   5.198   9.225 -0.2221  0.8045  0.1312
  109OSM   C15S11223  -0.011   5.090   9.130  0.1436 -0.4748 -0.0747
  109OSM   H15S11224  -0.084   5.040   9.063 -3.0052  2.2498  1.0141
  109OSM   H15T11225   0.081   5.037   9.163  0.5328  1.0692  1.5047
  109OSM   C16S11226   0.037   5.218   9.059  0.5876  0.1033 -0.8358
  109OSM   H16S11227   0.093   5.278   9.134 -0.0878 -1.1543  0.7224
  109OSM   H16T11228  -0.052   5.280   9.036 -1.1186 -2.6721 -2.2676
  109OSM   C17S11229   0.115   5.188   8.925 -0.6878 -0.4585 -0.9838
  109OSM   H17S11230   0.200   5.122   8.953 -0.1212  1.2516  1.6876
  109OSM   H17T11231   0.168   5.280   8.893  2.1710 -0.2910  3.3270
  109OSM   C18S11232   0.023   5.134   8.819  0.0727 -0.4097  0.1047
  109OSM   H18S11233  -0.026   5.039   8.849 -0.8304 -0.4915 -1.4771
  109OSM   H18T11234   0.073   5.099   8.725 -2.9134 -1.5250 -1.2204
  109OSM   H18U11235  -0.055   5.211   8.804 -1.0413 -0.9846  2.5837
  109OSM    C1F11236   0.412   5.019  10.396  0.5550  0.6509  0.6198
  109OSM     OF11237   0.452   4.934  10.478 -0.2267  0.7746 -0.1707
  109OSM    C2F11238   0.503   5.059  10.285  0.1855 -0.4467 -0.0206
  109OSM    H2F11239   0.554   4.965  10.257 -2.5890 -1.6322 -1.5326
  109OSM    H2G11240   0.578   5.134  10.319  0.5923 -0.5645 -0.6482
  109OSM    C3F11241   0.426   5.113  10.164 -0.4077 -0.2057  0.3891
  109OSM    H3F11242   0.505   5.152  10.097 -0.3281  0.9975  1.1523
  109OSM    H3G11243   0.364   5.201  10.192 -1.2829 -1.3434  2.2293
  109OSM    C4F11244   0.349   4.998  10.092  0.1471 -0.0057  0.7371
  109OSM    H4F11245   0.278   4.955  10.166 -1.6025  1.2027 -0.1714
  109OSM    H4G11246   0.407   4.911  10.053 -1.5054  0.7134 -4.0427
  109OSM    C5F11247   0.275   5.041   9.967  0.2140 -0.0677  0.4954
  109OSM    H5F11248   0.196   5.117   9.983 -1.9995 -2.1775  0.2324
  109OSM    H5G11249   0.229   4.950   9.922  5.5226 -2.0632 -1.7050
  109OSM    C6F11250   0.374   5.086   9.860  0.5954 -0.1502  0.3780
  109OSM    H6F11251   0.464   5.021   9.857  1.1838  0.6105 -3.8947
  109OSM    H6G11252   0.422   5.186   9.866  2.2215 -0.8710 -0.1554
  109OSM    C7F11253   0.301   5.079   9.720 -0.6459  0.4307 -0.1693
  109OSM    H7F11254   0.239   5.171   9.714 -2.1575 -0.6234 -1.9399
  109OSM    H7G11255   0.230   4.993   9.726  1.5856 -1.4180  2.5839
  109OSM    C8F11256   0.394   5.062   9.602 -0.3451 -0.1336  0.1199
  109OSM    H8F11257   0.428   4.956   9.600  0.8032  0.2278 -0.9098
  109OSM    H8G11258   0.492   5.111   9.620 -0.1769 -1.1464  2.2373
  109OSM    C9F11259   0.339   5.102   9.465 -0.4334  0.0639  0.4982
  109OSM    H9F11260   0.344   5.210   9.444 -0.4492  0.3826  2.0076
  109OSM   C10F11261   0.301   5.019   9.369  0.6753 -0.1110 -0.3089
  109OSM   H10F11262   0.270   5.059   9.271 -0.6980  0.4955  0.3442
  109OSM   C11F11263   0.289   4.869   9.383 -0.1421 -0.2203  0.0181
  109OSM   H11F11264   0.210   4.828   9.316 -1.1444 -1.4831  1.9020
  109OSM   H11G11265   0.254   4.846   9.485 -1.4773 -0.4109 -0.4553
  109OSM   C12F11266   0.419   4.798   9.355  0.4402 -0.0558 -0.1730
  109OSM   H12F11267   0.406   4.688   9.346  3.0617 -0.3812 -1.1112
  109OSM   H12G11268   0.494   4.814   9.436  1.0361 -0.4923 -0.6255
  109OSM   C13F11269   0.486   4.837   9.218  0.2457  0.2450 -0.1526
  109OSM   H13F11270   0.567   4.761   9.218 -0.3659 -0.4679  1.8372
  109OSM   H13G11271   0.534   4.937   9.217  2.6641 -0.8513 -0.5076
  109OSM   C14F11272   0.390   4.806   9.099  0.4902  0.3257 -0.2582
  109OSM   H14F11273   0.299   4.871   9.099 -0.6903 -1.2503 -1.2730
  109OSM   H14G11274   0.362   4.699   9.105  1.7854  0.0486  1.7485
  109OSM   C15F11275   0.468   4.838   8.974  0.5439  0.0384  0.1122
  109OSM   H15F11276   0.570   4.795   8.979  0.9084  0.9947  1.4367
  109OSM   H15G11277   0.498   4.944   8.963 -0.2205  0.0850 -2.2152
  109OSM   C16F11278   0.404   4.785   8.847 -0.2523  0.6434  0.0639
  109OSM   H16F11279   0.387   4.675   8.855  0.0185  0.6303  0.4657
  109OSM   H16G11280   0.473   4.786   8.760  0.7748 -2.0275  0.7477
  109OSM   C17F11281   0.270   4.839   8.805  0.0655  0.2891  0.5745
  109OSM   H17F11282   0.277   4.950   8.816  2.4747  0.1692  0.9051
  109OSM   H17G11283   0.185   4.809   8.870  0.5010 -1.2222  0.4695
  109OSM   C18F11284   0.228   4.807   8.652  0.3245 -0.1303  0.1783
  109OSM   H18F11285   0.282   4.870   8.578 -0.3552 -1.2421 -1.3358
  109OSM   H18G11286   0.119   4.827   8.647  0.5252  1.3768  1.1928
  109OSM   H18H11287   0.262   4.703   8.629  1.7575  0.4820 -0.6167
  110OSM      N11288   2.771   3.026  11.275  0.2082  0.5165  0.5574
  110OSM    C1511289   2.876   2.967  11.368  0.1129  0.8054 -0.1552
  110OSM   H15A11290   2.863   2.987  11.473 -0.2624  2.7625 -0.5502
  110OSM   H15B11291   2.974   3.010  11.356  0.7176 -0.5854 -0.4364
  110OSM   H15C11292   2.886   2.861  11.348 -0.2192  0.1695  2.6288
  110OSM    C1411293   2.635   2.958  11.291  0.4563  0.3127  0.1351
  110OSM   H14A11294   2.592   2.972  11.389  1.3872  0.3466  0.5529
  110OSM   H14B11295   2.635   2.853  11.264 -1.7168  0.0784  0.8065
  110OSM   H14C11296   2.556   3.006  11.236 -0.4594 -1.6204 -0.3592
  110OSM    C1311297   2.747   3.167  11.319 -0.1834  0.0173 -0.0440
  110OSM   H13A11298   2.664   3.218  11.271  0.9791  0.9811 -1.1310
  110OSM   H13B11299   2.836   3.227  11.304  0.2154 -0.9006 -1.5466
  110OSM   H13C11300   2.725   3.178  11.424  2.0085 -1.6251  0.6671
  110OSM    C1211301   2.813   3.019  11.123 -0.4790 -0.9402  0.5329
  110OSM   H12A11302   2.837   2.918  11.093  1.1408 -0.0847 -1.2197
  110OSM   H12B11303   2.893   3.085  11.093 -0.3525 -1.1803  0.3396
  110OSM    C1111304   2.696   3.043  11.018 -0.1803  0.2429 -0.6175
  110OSM   H11A11305   2.627   2.961  11.044  2.5940 -1.4458  2.0714
  110OSM   H11B11306   2.745   3.018  10.921  0.1863 -1.1884 -0.0837
  110OSM      P11307   2.700   3.293  10.944 -0.3030 -0.2721 -0.4718
  110OSM    O1311308   2.656   3.415  11.017  0.1165 -0.0246  0.2113
  110OSM    O1411309   2.845   3.277  10.937  0.2594  0.0905  0.3466
  110OSM    O1111310   2.643   3.292  10.795 -0.2435 -0.3567  0.4585
  110OSM    O1211311   2.633   3.169  11.018 -0.4582 -0.3432 -0.7030
  110OSM    C1S11312   2.513   3.251  10.768  0.1342  0.3009 -0.0399
  110OSM    H1S11313   2.446   3.335  10.798  1.5554  1.3436  0.3583
  110OSM    H1T11314   2.502   3.158  10.827  3.7205 -0.9991 -1.1662
  110OSM     NF11315   2.331   3.188  10.586 -0.0042  0.2952  0.3266
  110OSM    HNF11316   2.305   3.092  10.595 -1.8349  0.4514 -2.2925
  110OSM    C2S11317   2.475   3.213  10.614  0.1830 -0.0716  0.4635
  110OSM    H2S11318   2.498   3.303  10.553 -4.3905  0.1357 -1.3993
  110OSM    C3S11319   2.578   3.107  10.562 -0.1080 -0.2676 -0.1962
  110OSM    H3S11320   2.553   3.013  10.616  1.0438 -0.6950 -0.3710
  110OSM     O311321   2.716   3.141  10.594 -0.5825  0.6192 -0.6557
  110OSM    HO311322   2.716   3.205  10.666  0.5245 -0.6715  0.5687
  110OSM    C4S11323   2.565   3.087  10.409  1.2201  0.4655  0.1345
  110OSM    H4S11324   2.479   3.023  10.384  0.6770  0.5347  1.6989
  110OSM    C5S11325   2.640   3.151  10.315  0.1516  0.2911 -0.2213
  110OSM    H5S11326   2.730   3.206  10.347  0.0629  1.7259 -2.2440
  110OSM    C6S11327   2.609   3.142  10.165  0.1369 -0.0898  0.0982
  110OSM    H6S11328   2.673   3.067  10.113  1.8368  1.0110  0.5363
  110OSM    H6T11329   2.634   3.244  10.129 -0.0793 -0.2923 -0.6488
  110OSM    C7S11330   2.459   3.125  10.123 -0.5282 -0.1282  0.3718
  110OSM    H7S11331   2.405   3.214  10.163  2.0462  0.6894  2.2746
  110OSM    H7T11332   2.412   3.033  10.164  1.8319 -2.1671 -1.1778
  110OSM    C8S11333   2.440   3.115   9.970 -0.0539 -0.8635  0.0195
  110OSM    H8S11334   2.334   3.094   9.943 -1.6029  1.8854  3.3121
  110OSM    H8T11335   2.503   3.036   9.923  2.2982  1.0776 -0.2514
  110OSM    C9S11336   2.470   3.250   9.900  0.0573 -0.3474  0.0239
  110OSM    H9S11337   2.579   3.269   9.888 -0.1504  0.7346 -0.2795
  110OSM    H9T11338   2.423   3.335   9.954  0.3038  0.7112 -1.3610
  110OSM   C10S11339   2.416   3.251   9.760 -0.7453 -0.2210  0.6735
  110OSM   H10S11340   2.311   3.285   9.773 -1.9148 -3.4651  0.6346
  110OSM   H10T11341   2.407   3.148   9.718 -0.1816 -1.2975  3.0425
  110OSM   C11S11342   2.496   3.338   9.663  0.2221 -0.3095  0.2504
  110OSM   H11S11343   2.600   3.298   9.670  0.3328 -0.1761 -0.5124
  110OSM   H11T11344   2.497   3.446   9.688 -0.0076 -0.5005  1.0958
  110OSM   C12S11345   2.435   3.319   9.519 -0.3108 -0.7353 -0.3578
  110OSM   H12S11346   2.473   3.389   9.442 -1.4748 -1.5160 -1.6990
  110OSM   H12T11347   2.325   3.333   9.533 -0.3899 -2.4868  1.2166
  110OSM   C13S11348   2.461   3.183   9.448 -0.2167 -0.8334  0.4715
  110OSM   H13S11349   2.384   3.112   9.482 -1.4133  0.0104 -0.4060
  110OSM   H13T11350   2.557   3.134   9.474  1.1611  2.3038  1.8803
  110OSM   C14S11351   2.454   3.208   9.296  0.7718  0.6944 -0.2376
  110OSM   H14S11352   2.543   3.265   9.262  2.2013 -0.8460  0.8343
  110OSM   H14T11353   2.362   3.270   9.289  0.8996  1.0195  0.7465
  110OSM   C15S11354   2.444   3.073   9.221  1.0758  0.9798 -0.6401
  110OSM   H15S11355   2.363   3.017   9.273  1.8639  0.5730  0.1577
  110OSM   H15T11356   2.537   3.017   9.240  0.2593 -0.4365 -0.6632
  110OSM   C16S11357   2.430   3.093   9.077 -1.0146 -0.1665  0.2771
  110OSM   H16S11358   2.344   3.162   9.063 -0.0421  1.2277  0.9846
  110OSM   H16T11359   2.411   2.992   9.034  0.9697 -1.2867  1.9104
  110OSM   C17S11360   2.541   3.161   8.992 -0.1015 -0.3503 -0.4508
  110OSM   H17S11361   2.640   3.111   9.001  0.5039  0.7423 -0.8414
  110OSM   H17T11362   2.547   3.266   9.028 -0.0007 -0.7455  0.7279
  110OSM   C18S11363   2.500   3.166   8.847 -0.1421 -0.7522  0.0844
  110OSM   H18S11364   2.509   3.066   8.799 -0.9006 -0.4870 -0.6156
  110OSM   H18T11365   2.556   3.231   8.777 -1.8716  0.3643 -0.2992
  110OSM   H18U11366   2.396   3.202   8.837  0.7939  2.2992  0.3072
  110OSM    C1F11367   2.245   3.287  10.598 -0.4424 -0.2522  0.1459
  110OSM     OF11368   2.287   3.397  10.623  0.0077 -0.5143 -0.1962
  110OSM    C2F11369   2.100   3.250  10.572  0.4800  0.1146 -0.9196
  110OSM    H2F11370   2.058   3.221  10.671  1.6732 -2.0871 -0.9897
  110OSM    H2G11371   2.085   3.160  10.508 -1.0749 -0.1953 -0.1583
  110OSM    C3F11372   2.043   3.363  10.493 -0.1680 -0.6383  0.0516
  110OSM    H3F11373   2.040   3.455  10.555 -1.0937 -1.7709  1.7681
  110OSM    H3G11374   1.941   3.337  10.457 -0.4305 -0.0142  0.3260
  110OSM    C4F11375   2.120   3.387  10.362  0.4546 -0.1854  0.7792
  110OSM    H4F11376   2.111   3.291  10.307 -2.3369 -0.5328  1.6703
  110OSM    H4G11377   2.227   3.417  10.374  0.9298 -1.3992 -0.2815
  110OSM    C5F11378   2.048   3.498  10.280 -0.3260  0.1747  0.5584
  110OSM    H5F11379   2.031   3.592  10.336 -0.4869  0.6215 -0.2288
  110OSM    H5G11380   1.944   3.466  10.256 -0.2182  1.3772 -1.7550
  110OSM    C6F11381   2.115   3.523  10.139  0.4105  0.0318 -0.3212
  110OSM    H6F11382   2.098   3.436  10.071 -3.4405  1.8332 -1.9771
  110OSM    H6G11383   2.214   3.557  10.177 -0.2486 -1.5424  3.2771
  110OSM    C7F11384   2.056   3.640  10.061 -0.2173  0.0374 -0.1897
  110OSM    H7F11385   2.096   3.734  10.106  1.0239 -1.5783  2.3090
  110OSM    H7G11386   1.945   3.639  10.067 -0.1688  0.6638  4.2083
  110OSM    C8F11387   2.104   3.645   9.920 -0.0561  0.5805  0.8025
  110OSM    H8F11388   2.211   3.616   9.922 -0.5674 -1.9227 -1.5730
  110OSM    H8G11389   2.094   3.750   9.886 -3.4900  0.7860  2.0858
  110OSM    C9F11390   2.048   3.541   9.835  0.2260 -0.4235  0.8905
  110OSM    H9F11391   1.982   3.464   9.878  0.6953 -1.2044  0.2300
  110OSM   C10F11392   2.067   3.533   9.696  1.3409  0.1496 -0.3279
  110OSM   H10F11393   2.020   3.449   9.644 -3.0940  0.3456  2.7664
  110OSM   C11F11394   2.148   3.623   9.609  0.0951 -0.1548  0.5087
  110OSM   H11F11395   2.248   3.578   9.595  0.1564  0.2271 -0.3885
  110OSM   H11G11396   2.166   3.722   9.658  1.8540  0.5358 -1.3557
  110OSM   C12F11397   2.088   3.649   9.460 -0.7064  0.1873  0.0965
  110OSM   H12F11398   2.137   3.730   9.402 -2.7438  1.7543  0.4231
  110OSM   H12G11399   1.982   3.682   9.471 -0.8998  0.2333 -1.6096
  110OSM   C13F11400   2.092   3.519   9.368  0.3890  0.4431 -0.5531
  110OSM   H13F11401   2.046   3.435   9.424  2.3349 -1.3045 -1.4441
  110OSM   H13G11402   2.199   3.498   9.352  0.1056 -2.7532  1.0254
  110OSM   C14F11403   2.020   3.540   9.231 -0.2775 -0.3521  0.3382
  110OSM   H14F11404   2.018   3.651   9.219  0.3467 -0.4476 -0.7247
  110OSM   H14G11405   1.920   3.495   9.216  0.9901 -2.9268 -0.8500
  110OSM   C15F11406   2.108   3.494   9.116 -0.5090  0.2615 -0.0352
  110OSM   H15F11407   2.112   3.383   9.110  0.9044  0.3643 -1.9068
  110OSM   H15G11408   2.209   3.536   9.131 -0.2998 -0.1370 -0.3233
  110OSM   C16F11409   2.063   3.531   8.975  0.2790  0.4158  0.5372
  110OSM   H16F11410   2.062   3.641   8.963 -2.1125  0.3262 -0.4951
  110OSM   H16G11411   1.963   3.488   8.954  0.5611 -0.7433  1.4434
  110OSM   C17F11412   2.153   3.463   8.873  0.3145  0.0494  0.1194
  110OSM   H17F11413   2.166   3.362   8.916 -1.0493  0.0624  0.6057
  110OSM   H17G11414   2.254   3.506   8.857  0.7389 -1.0651 -0.2913
  110OSM   C18F11415   2.083   3.439   8.740 -0.1347  0.5103  1.0637
  110OSM   H18F11416   2.095   3.335   8.703 -3.5059  0.6845 -1.0205
  110OSM   H18G11417   2.129   3.504   8.663  0.5424 -1.6716 -0.4734
  110OSM   H18H11418   1.972   3.441   8.727 -0.1559 -1.2334  0.6993
  111OSM      N11419   0.836   2.065  10.627 -0.4645  0.5641  0.6575
  111OSM    C1511420   0.752   2.007  10.516 -0.3360 -0.5053 -0.0834
  111OSM   H15A11421   0.809   1.996  10.425 -0.4951 -0.0231 -0.2463
  111OSM   H15B11422   0.669   2.075  10.504  1.3056  1.8146  0.9852
  111OSM   H15C11423   0.712   1.911  10.544  0.2111 -0.5378  0.6338
  111OSM    C1411424   0.852   2.211  10.585 -0.4613  0.3688  0.0576
  111OSM   H14A11425   0.915   2.215  10.497 -0.1990 -1.7045  0.1086
  111OSM   H14B11426   0.901   2.278  10.654 -1.6070  0.5847  0.6804
  111OSM   H14C11427   0.756   2.253  10.559  0.3356  2.1037 -0.2141
  111OSM    C1311428   0.761   2.059  10.759  0.4763  0.1111  0.0322
  111OSM   H13A11429   0.659   2.086  10.738  0.8862  0.5191 -1.5594
  111OSM   H13B11430   0.799   2.121  10.838  2.3998 -1.5692  0.5190
  111OSM   H13C11431   0.741   1.958  10.791 -3.9372  0.7614 -0.0336
  111OSM    C1211432   0.961   1.994  10.625 -0.4971 -0.1139 -0.0124
  111OSM   H12A11433   0.959   1.893  10.664  1.4476 -0.9611 -1.8925
  111OSM   H12B11434   1.025   2.043  10.696 -2.3451 -0.8100  2.2506
  111OSM    C1111435   1.052   2.000  10.493  0.3519  0.1542 -0.1730
  111OSM   H11A11436   0.978   1.983  10.412 -1.5155 -1.4760  1.7612
  111OSM   H11B11437   1.131   1.921  10.495  0.9611  0.7634  0.8151
  111OSM      P11438   1.221   2.172  10.567  0.1527  0.0417 -0.6135
  111OSM    O1311439   1.165   2.261  10.680  0.0604 -0.2402 -0.0807
  111OSM    O1411440   1.295   2.056  10.623  0.3864 -0.1155  0.1163
  111OSM    O1111441   1.311   2.255  10.468 -0.8362  0.5572 -0.7294
  111OSM    O1211442   1.108   2.126  10.472  0.1890 -0.5476 -0.3604
  111OSM    C1S11443   1.320   2.221  10.334 -0.2090 -0.0698 -0.7982
  111OSM    H1S11444   1.224   2.246  10.284 -0.1285  2.3491  0.1398
  111OSM    H1T11445   1.356   2.118  10.311 -2.2021 -1.1572  0.6228
  111OSM     NF11446   1.437   2.295  10.117  1.0665  0.3928  0.9202
  111OSM    HNF11447   1.527   2.273  10.080  0.1446 -1.8566 -0.2152
  111OSM    C2S11448   1.422   2.315  10.260 -0.5866  0.1400 -0.8043
  111OSM    H2S11449   1.389   2.419  10.281  0.3493  0.5027 -1.0503
  111OSM    C3S11450   1.558   2.297  10.324  0.0721 -0.2833 -0.3291
  111OSM    H3S11451   1.598   2.198  10.293  3.2909  0.1008  2.0899
  111OSM     O311452   1.569   2.298  10.465  0.4417 -0.0026  0.5389
  111OSM    HO311453   1.478   2.279  10.490  0.6571  0.6029  1.8844
  111OSM    C4S11454   1.650   2.410  10.277 -0.4827 -0.2268 -0.2141
  111OSM    H4S11455   1.610   2.507  10.310 -1.3919 -0.6309 -0.0882
  111OSM    C5S11456   1.778   2.396  10.232  0.3296  0.4072 -0.0283
  111OSM    H5S11457   1.825   2.298  10.247 -2.3595 -0.7900  1.3376
  111OSM    C6S11458   1.872   2.507  10.196 -0.0386 -0.1580 -0.3281
  111OSM    H6S11459   1.976   2.472  10.183 -0.7046 -2.5578  0.3103
  111OSM    H6T11460   1.873   2.581  10.279  0.1967 -0.7183  0.1743
  111OSM    C7S11461   1.829   2.581  10.067 -0.2731 -0.0658 -0.8388
  111OSM    H7S11462   1.881   2.679  10.066 -0.6194  0.1201 -1.7304
  111OSM    H7T11463   1.725   2.615  10.085 -1.7975 -2.6389 -3.8506
  111OSM    C8S11464   1.818   2.505   9.932 -0.6510  0.5173 -0.0625
  111OSM    H8S11465   1.733   2.434   9.929  0.5062 -0.8998 -1.2945
  111OSM    H8T11466   1.906   2.438   9.921 -2.0591 -1.3303 -0.6646
  111OSM    C9S11467   1.836   2.594   9.804 -0.0155  0.6302 -0.2844
  111OSM    H9S11468   1.931   2.653   9.805  0.9113 -0.8000  0.3370
  111OSM    H9T11469   1.763   2.677   9.808 -2.0648 -1.0037 -1.7968
  111OSM   C10S11470   1.819   2.516   9.672 -0.0649  0.5076 -0.9255
  111OSM   H10S11471   1.748   2.431   9.679 -0.8897  1.0961 -1.7768
  111OSM   H10T11472   1.917   2.466   9.663 -0.0306  0.0379  1.4313
  111OSM   C11S11473   1.795   2.601   9.546 -0.0014 -0.0037  0.7136
  111OSM   H11S11474   1.870   2.682   9.535  1.1801 -1.2644 -0.9058
  111OSM   H11T11475   1.692   2.642   9.554  0.3487  1.0155  0.0941
  111OSM   C12S11476   1.798   2.506   9.427 -0.2645  0.3555  0.1433
  111OSM   H12S11477   1.701   2.453   9.430  1.0659 -2.6485 -2.9443
  111OSM   H12T11478   1.886   2.438   9.429  0.5835  1.4488  1.3830
  111OSM   C13S11479   1.784   2.584   9.293 -0.0849  0.0506 -0.2432
  111OSM   H13S11480   1.780   2.510   9.211 -0.0689  1.1107 -1.2198
  111OSM   H13T11481   1.872   2.649   9.276 -0.3852  0.2782 -0.9311
  111OSM   C14S11482   1.666   2.686   9.283  0.1898 -0.0941 -0.1837
  111OSM   H14S11483   1.680   2.772   9.352 -2.9707 -1.4134  2.3722
  111OSM   H14T11484   1.578   2.636   9.330  0.9845 -0.5990  0.8091
  111OSM   C15S11485   1.660   2.728   9.138  0.2319 -0.3312 -0.3973
  111OSM   H15S11486   1.755   2.772   9.100 -1.4689  2.1672 -2.0943
  111OSM   H15T11487   1.583   2.808   9.126 -0.6441 -1.4489 -2.7422
  111OSM   C16S11488   1.612   2.614   9.041  0.5833  0.3270 -0.0256
  111OSM   H16S11489   1.525   2.568   9.091 -0.4142 -1.2085 -2.9126
  111OSM   H16T11490   1.689   2.536   9.025  1.2101  0.5637  1.6256
  111OSM   C17S11491   1.581   2.665   8.898 -0.0332  0.3312  0.0900
  111OSM   H17S11492   1.667   2.718   8.850  0.8332 -2.3426 -1.5493
  111OSM   H17T11493   1.499   2.739   8.906 -0.5065 -0.3491  2.1114
  111OSM   C18S11494   1.517   2.561   8.806 -0.1019  0.5564  0.0289
  111OSM   H18S11495   1.577   2.468   8.817 -0.2666  0.1859 -1.7886
  111OSM   H18T11496   1.529   2.591   8.699 -0.0849 -1.3274 -0.5259
  111OSM   H18U11497   1.408   2.541   8.816  0.0647  0.5323  2.1641
  111OSM    C1F11498   1.337   2.317  10.028  0.7400  0.7128 -0.1383
  111OSM     OF11499   1.231   2.363  10.068 -0.5827 -0.2012  0.7648
  111OSM    C2F11500   1.355   2.294   9.881 -1.3603 -0.0565  0.9561
  111OSM    H2F11501   1.289   2.215   9.840 -0.5529 -0.1225 -0.2315
  111OSM    H2G11502   1.455   2.248   9.871 -0.6380  1.0580  2.6143
  111OSM    C3F11503   1.352   2.431   9.802  0.2996 -0.3004  0.0648
  111OSM    H3F11504   1.417   2.503   9.857 -0.5673  1.2533 -0.8906
  111OSM    H3G11505   1.247   2.467   9.804  0.3329 -0.2001 -0.0191
  111OSM    C4F11506   1.403   2.422   9.658  0.0053  0.2944 -0.5504
  111OSM    H4F11507   1.504   2.375   9.663  0.6641  1.6960  0.1041
  111OSM    H4G11508   1.417   2.531   9.639  3.3490  0.2711  1.0109
  111OSM    C5F11509   1.302   2.374   9.558  0.0609 -0.1948  0.6105
  111OSM    H5F11510   1.213   2.439   9.574 -0.3522 -0.6442  0.1851
  111OSM    H5G11511   1.268   2.271   9.580 -1.1632  0.3816  1.5620
  111OSM    C6F11512   1.355   2.382   9.415  0.4551  0.1317 -0.1573
  111OSM    H6F11513   1.463   2.354   9.414  0.3567 -0.2882  0.5492
  111OSM    H6G11514   1.352   2.487   9.377 -1.8279 -0.1132 -0.8019
  111OSM    C7F11515   1.275   2.289   9.331  0.0222  0.1564 -0.1612
  111OSM    H7F11516   1.172   2.328   9.335  0.3067  1.1306 -1.6071
  111OSM    H7G11517   1.285   2.184   9.365  1.0911  0.2740 -0.0804
  111OSM    C8F11518   1.329   2.306   9.190 -0.7130  0.5610 -0.7888
  111OSM    H8F11519   1.429   2.257   9.190 -0.4754  1.0291 -1.4835
  111OSM    H8G11520   1.351   2.414   9.173  1.6086  0.5211  1.2987
  111OSM    C9F11521   1.234   2.242   9.095  0.1777  0.0166  0.3654
  111OSM    H9F11522   1.127   2.239   9.124  0.5036  0.4366  1.6685
  111OSM   C10F11523   1.267   2.174   8.981  0.3728 -0.6122 -0.0049
  111OSM   H10F11524   1.193   2.143   8.906 -3.0636  2.2928  1.8408
  111OSM   C11F11525   1.418   2.162   8.940  0.1815  0.1900  0.2259
  111OSM   H11F11526   1.470   2.086   9.003  0.6964  1.0659  0.8752
  111OSM   H11G11527   1.474   2.256   8.959 -0.0608 -0.0714  2.4456
  111OSM   C12F11528   1.436   2.117   8.792  0.0868  0.1156 -0.0673
  111OSM   H12F11529   1.370   2.030   8.775 -1.1253  0.4563  2.4784
  111OSM   H12G11530   1.544   2.095   8.779 -0.0164 -0.1753 -0.4278
  111OSM   C13F11531   1.419   2.224   8.678 -0.5311  0.4993 -0.2199
  111OSM   H13F11532   1.490   2.307   8.699 -2.5075  2.3390 -0.4690
  111OSM   H13G11533   1.318   2.268   8.667 -0.5391  0.3260 -0.8822
  111OSM   C14F11534   1.465   2.175   8.540  0.1058 -0.1153 -0.4286
  111OSM   H14F11535   1.401   2.097   8.496  0.8734 -0.1226 -1.5977
  111OSM   H14G11536   1.567   2.133   8.556  0.5518  0.2688 -2.0457
  111OSM   C15F11537   1.502   2.296   8.442  0.4784  0.1734 -0.2102
  111OSM   H15F11538   1.523   2.239   8.349 -0.2118 -2.0741  0.9217
  111OSM   H15G11539   1.598   2.331   8.485  0.8523 -0.8523 -0.1727
  111OSM   C16F11540   1.397   2.402   8.410  0.3988 -0.3590 -1.3281
  111OSM   H16F11541   1.425   2.466   8.324 -3.0660  0.9481 -1.6618
  111OSM   H16G11542   1.396   2.474   8.494 -0.5263 -2.3165  0.4338
  111OSM   C17F11543   1.257   2.342   8.394  0.3368  0.0094  0.0360
  111OSM   H17F11544   1.229   2.294   8.491 -2.6097 -0.0229 -0.7273
  111OSM   H17G11545   1.255   2.266   8.313  0.7520  1.9650 -1.9088
  111OSM   C18F11546   1.153   2.446   8.345  0.4701 -0.1507  0.1984
  111OSM   H18F11547   1.185   2.489   8.247 -1.3042  0.4483 -0.1496
  111OSM   H18G11548   1.156   2.539   8.405  0.3844  0.8351 -1.2597
  111OSM   H18H11549   1.050   2.405   8.345  1.0404 -1.6270  1.0972
  112OSM      N11550   1.377   1.479  11.060  0.3430  0.0511 -0.6208
  112OSM    C1511551   1.412   1.545  11.190  0.3336  0.0532 -0.0670
  112OSM   H15A11552   1.322   1.573  11.242 -0.0437  1.2975 -1.3545
  112OSM   H15B11553   1.471   1.633  11.171  4.0549 -2.1608  0.2298
  112OSM   H15C11554   1.464   1.480  11.259 -0.1834  0.1653  0.4353
  112OSM    C1411555   1.292   1.569  10.974  1.0615 -0.1574  0.3026
  112OSM   H14A11556   1.349   1.661  10.972  0.0659  0.4761 -0.6113
  112OSM   H14B11557   1.199   1.596  11.021  1.1043  0.9019 -0.1841
  112OSM   H14C11558   1.269   1.521  10.880  0.9854 -1.7207  1.0950
  112OSM    C1311559   1.510   1.463  10.987 -0.6741 -0.1828  0.0410
  112OSM   H13A11560   1.563   1.400  11.057  0.1867  0.5449  0.0698
  112OSM   H13B11561   1.552   1.561  10.972 -0.7727 -0.0143  0.8372
  112OSM   H13C11562   1.505   1.405  10.896  2.2858 -0.7831  0.1558
  112OSM    C1211563   1.302   1.345  11.074 -0.8742 -0.9142 -0.5092
  112OSM   H12A11564   1.196   1.361  11.080 -1.1735 -1.7115 -2.7669
  112OSM   H12B11565   1.341   1.293  11.160 -2.1912 -0.8900  0.1211
  112OSM    C1111566   1.306   1.241  10.964 -0.0684  0.0787 -0.9789
  112OSM   H11A11567   1.257   1.144  10.988  0.8167 -0.3961 -1.0527
  112OSM   H11B11568   1.412   1.209  10.975 -1.1425 -3.3074  1.4301
  112OSM      P11569   1.139   1.296  10.766 -0.0609  0.2580  0.1227
  112OSM    O1311570   1.081   1.163  10.783 -0.7019  0.1769  0.4866
  112OSM    O1411571   1.057   1.418  10.797 -0.0910 -0.2383 -1.1755
  112OSM    O1111572   1.181   1.307  10.618 -0.3073  0.0454  0.2477
  112OSM    O1211573   1.272   1.294  10.846  0.6128 -0.5811  0.3370
  112OSM    C1S11574   1.309   1.252  10.589  0.6426 -0.1739  0.1783
  112OSM    H1S11575   1.337   1.161  10.647  1.8774  0.8047  1.1545
  112OSM    H1T11576   1.392   1.325  10.591  0.7476 -0.2414 -1.1685
  112OSM     NF11577   1.448   1.149  10.409  0.1824 -0.6392  0.2875
  112OSM    HNF11578   1.514   1.203  10.357 -2.3827 -0.1604 -2.7424
  112OSM    C2S11579   1.315   1.214  10.438  0.2011 -0.3289 -0.1472
  112OSM    H2S11580   1.234   1.143  10.414  0.0410 -0.0172 -0.5436
  112OSM    C3S11581   1.293   1.345  10.350  0.3221 -0.0348  0.0702
  112OSM    H3S11582   1.381   1.411  10.363  1.2777 -1.6509  2.4210
  112OSM     O311583   1.172   1.417  10.381  0.0268  0.6160 -0.1250
  112OSM    HO311584   1.142   1.394  10.469 -2.2978 -0.3655 -1.1043
  112OSM    C4S11585   1.302   1.290  10.209 -0.4006 -0.4164  0.2586
  112OSM    H4S11586   1.245   1.197  10.200 -1.0945 -0.0250  0.5387
  112OSM    C5S11587   1.382   1.334  10.108 -0.0865 -0.1238  0.0218
  112OSM    H5S11588   1.434   1.431  10.116 -1.3601  0.5510  0.4153
  112OSM    C6S11589   1.398   1.260   9.974  0.0905  0.2921 -0.5894
  112OSM    H6S11590   1.386   1.329   9.888 -2.6104 -0.1763 -0.6676
  112OSM    H6T11591   1.313   1.191   9.955  0.0036  0.3867 -0.5425
  112OSM    C7S11592   1.535   1.190   9.971 -0.0348  0.0516 -0.0747
  112OSM    H7S11593   1.543   1.113  10.050  0.2476  1.0268  0.8710
  112OSM    H7T11594   1.611   1.270   9.985  0.3012  0.3928 -3.1731
  112OSM    C8S11595   1.554   1.128   9.833 -0.9671  0.6288  0.1201
  112OSM    H8S11596   1.663   1.110   9.817 -0.2598  0.1235  4.3243
  112OSM    H8T11597   1.532   1.194   9.746 -1.1140 -0.5002 -0.7098
  112OSM    C9S11598   1.479   0.996   9.816 -0.6016 -0.5037 -0.0285
  112OSM    H9S11599   1.371   1.020   9.800 -0.8189 -1.7292 -0.5639
  112OSM    H9T11600   1.487   0.944   9.914  0.8720  0.7938  0.5807
  112OSM   C10S11601   1.523   0.905   9.704 -0.9788  0.2992  0.9793
  112OSM   H10S11602   1.461   0.813   9.703  0.6984 -0.8651 -0.0553
  112OSM   H10T11603   1.631   0.882   9.706 -0.9486  0.2319 -0.5817
  112OSM   C11S11604   1.497   0.963   9.563 -0.4829  0.1199  0.4549
  112OSM   H11S11605   1.557   1.057   9.559  0.6661 -0.4620  2.3597
  112OSM   H11T11606   1.388   0.979   9.557 -0.5182 -0.2218  0.1865
  112OSM   C12S11607   1.552   0.877   9.450 -0.3614 -0.7192  0.4672
  112OSM   H12S11608   1.548   0.769   9.474  1.4003 -0.8050  0.5396
  112OSM   H12T11609   1.663   0.880   9.457 -0.1518 -1.2892 -1.8358
  112OSM   C13S11610   1.493   0.907   9.309  0.1148 -0.5862  0.4813
  112OSM   H13S11611   1.517   1.008   9.270 -1.8763 -0.1031  0.3741
  112OSM   H13T11612   1.382   0.912   9.316  0.1524  0.6941  0.4260
  112OSM   C14S11613   1.539   0.805   9.200 -0.1186 -0.2915 -0.4970
  112OSM   H14S11614   1.472   0.719   9.221  1.1597 -1.2695 -0.3206
  112OSM   H14T11615   1.644   0.777   9.222 -0.3068 -0.8759 -0.3365
  112OSM   C15S11616   1.527   0.854   9.054  0.1603  0.1049  0.3426
  112OSM   H15S11617   1.507   0.963   9.045 -1.0619 -0.1719 -0.6722
  112OSM   H15T11618   1.434   0.808   9.013 -0.3295  0.1513  1.3452
  112OSM   C16S11619   1.642   0.811   8.965  0.3179  0.8826 -0.4189
  112OSM   H16S11620   1.642   0.700   8.961 -2.0739  0.7761  0.5413
  112OSM   H16T11621   1.739   0.844   9.007  0.5240 -1.3313  1.0147
  112OSM   C17S11622   1.650   0.866   8.815  0.0265 -0.0491 -0.4416
  112OSM   H17S11623   1.754   0.851   8.779  0.7511  3.4997 -0.2105
  112OSM   H17T11624   1.643   0.977   8.823 -1.7012 -0.2674  3.2251
  112OSM   C18S11625   1.535   0.818   8.719 -0.1581 -0.1560 -0.0902
  112OSM   H18S11626   1.551   0.711   8.696 -0.9343 -0.3176  0.1041
  112OSM   H18T11627   1.539   0.880   8.627 -0.7031  0.2265  0.1413
  112OSM   H18U11628   1.436   0.840   8.765 -0.7769  0.9632 -1.8592
  112OSM    C1F11629   1.476   1.025  10.455  0.0661 -0.3054 -0.1434
  112OSM     OF11630   1.393   0.957  10.520  0.0664  0.4489 -0.2748
  112OSM    C2F11631   1.617   0.989  10.429 -0.0559 -0.3125  0.2736
  112OSM    H2F11632   1.670   1.002  10.526  0.3041  2.1857 -0.1830
  112OSM    H2G11633   1.665   1.067  10.366  1.7413 -0.2628  1.6217
  112OSM    C3F11634   1.624   0.846  10.372 -0.0721  0.6180  0.4751
  112OSM    H3F11635   1.578   0.773  10.442 -0.0557  1.0206  0.9080
  112OSM    H3G11636   1.730   0.814  10.370  0.1044  1.1042  1.4876
  112OSM    C4F11637   1.570   0.826  10.233 -0.1672  0.3119  0.0370
  112OSM    H4F11638   1.643   0.892  10.181  2.0996 -0.8437  1.5802
  112OSM    H4G11639   1.465   0.856  10.215 -0.1126 -1.1051 -3.3782
  112OSM    C5F11640   1.581   0.683  10.179 -0.1768  0.7911 -0.1300
  112OSM    H5F11641   1.508   0.613  10.224  0.7923  0.6284  1.2207
  112OSM    H5G11642   1.674   0.629  10.205 -1.1270 -0.6990  0.2898
  112OSM    C6F11643   1.558   0.663  10.027 -0.3119 -0.2834  0.1659
  112OSM    H6F11644   1.627   0.741   9.988  0.4800 -0.8543  0.3907
  112OSM    H6G11645   1.456   0.697  10.000  0.8329  2.0401 -1.6736
  112OSM    C7F11646   1.604   0.531   9.968 -0.1188  0.6281  0.8171
  112OSM    H7F11647   1.530   0.459  10.009 -1.0479  1.5845  0.8609
  112OSM    H7G11648   1.705   0.502  10.006 -0.5520 -1.1565  0.6687
  112OSM    C8F11649   1.586   0.528   9.815 -0.4859 -0.2476  0.2668
  112OSM    H8F11650   1.650   0.448   9.773 -1.7036 -0.2950 -1.6505
  112OSM    H8G11651   1.625   0.624   9.774  0.2048 -0.7012 -0.1451
  112OSM    C9F11652   1.444   0.498   9.767 -0.6504  0.2436 -0.1962
  112OSM    H9F11653   1.364   0.525   9.838 -1.0109 -0.3944 -0.3570
  112OSM   C10F11654   1.407   0.452   9.648 -0.0899  0.8015 -0.9353
  112OSM   H10F11655   1.298   0.451   9.630 -0.4631  1.3370  0.9652
  112OSM   C11F11656   1.498   0.434   9.524  0.2542 -0.0017 -0.4048
  112OSM   H11F11657   1.600   0.410   9.563  0.4889 -0.0004 -1.0052
  112OSM   H11G11658   1.505   0.531   9.470 -1.0267 -0.0713 -0.7136
  112OSM   C12F11659   1.437   0.337   9.421 -0.5689 -0.3244 -0.4063
  112OSM   H12F11660   1.443   0.234   9.463 -2.3014 -0.2373  0.1173
  112OSM   H12G11661   1.499   0.328   9.329 -1.2897 -0.2508 -0.9053
  112OSM   C13F11662   1.284   0.347   9.386  0.5269 -0.0659 -0.2108
  112OSM   H13F11663   1.224   0.338   9.478  0.2281 -0.8701 -0.4763
  112OSM   H13G11664   1.251   0.268   9.315 -0.9252 -0.3517  0.7468
  112OSM   C14F11665   1.255   0.482   9.320 -0.0281  0.2286  0.2170
  112OSM   H14F11666   1.312   0.482   9.225 -1.3485 -1.5483 -0.6209
  112OSM   H14G11667   1.291   0.566   9.384  1.5950  1.2507 -1.9323
  112OSM   C15F11668   1.104   0.490   9.289 -0.0104 -0.1796  0.1202
  112OSM   H15F11669   1.048   0.479   9.384 -1.4570  1.1743 -0.5240
  112OSM   H15G11670   1.069   0.407   9.224 -2.8938 -1.5051  3.0931
  112OSM   C16F11671   1.072   0.626   9.228  0.5229 -0.6473  0.0160
  112OSM   H16F11672   1.084   0.701   9.309  3.6146 -1.3762  0.3386
  112OSM   H16G11673   0.965   0.617   9.198  0.5986  1.0856 -0.9035
  112OSM   C17F11674   1.150   0.687   9.108 -0.1543 -0.1483 -0.5604
  112OSM   H17F11675   1.254   0.704   9.146 -0.7816 -0.3636  1.3986
  112OSM   H17G11676   1.109   0.787   9.081 -0.0068 -0.2939 -1.3454
  112OSM   C18F11677   1.140   0.603   8.974  0.3215 -0.0763 -0.0468
  112OSM   H18F11678   1.200   0.651   8.894  0.2685 -0.6188 -0.4167
  112OSM   H18G11679   1.037   0.582   8.938  0.1424  1.3473 -0.4145
  112OSM   H18H11680   1.183   0.503   8.998  1.9769  0.2833 -1.3477
  113OSM      N11681   1.061   0.500  10.483 -0.2033  0.0424  0.3535
  113OSM    C1511682   1.070   0.536  10.343 -0.2725  0.7241  0.3046
  113OSM   H15A11683   1.041   0.638  10.321 -2.9798 -0.0283  0.0395
  113OSM   H15B11684   0.994   0.473  10.299 -2.6036  1.1468  3.4140
  113OSM   H15C11685   1.170   0.515  10.306  0.1631  1.6557  0.9306
  113OSM    C1411686   0.920   0.488  10.531 -0.3000 -0.1695  0.3681
  113OSM   H14A11687   0.863   0.409  10.484  1.1371 -1.2503  0.3713
  113OSM   H14B11688   0.866   0.581  10.526 -0.6869 -0.3234  1.3085
  113OSM   H14C11689   0.922   0.464  10.637  0.8362  2.8864  1.1462
  113OSM    C1311690   1.121   0.360  10.487 -0.4866  0.8815  0.6632
  113OSM   H13A11691   1.080   0.302  10.406  1.1547  0.2780  0.2349
  113OSM   H13B11692   1.077   0.304  10.569  0.5176 -1.9540 -0.6043
  113OSM   H13C11693   1.229   0.363  10.480 -0.5882  1.4418 -1.0208
  113OSM    C1211694   1.156   0.595  10.563  1.1696 -0.0236  0.0643
  113OSM   H12A11695   1.175   0.552  10.661 -2.5157 -2.9299 -0.2769
  113OSM   H12B11696   1.114   0.692  10.581 -0.1442  0.0245 -2.8560
  113OSM    C1111697   1.296   0.608  10.503 -0.0097  0.2871  0.1536
  113OSM   H11A11698   1.338   0.700  10.549 -1.7036  0.1935  2.0078
  113OSM   H11B11699   1.297   0.627  10.393  0.6803 -1.5747 -0.2123
  113OSM      P11700   1.472   0.470  10.658  0.1850 -0.1234  0.1584
  113OSM    O1311701   1.457   0.584  10.746  0.3511 -0.9275  0.3389
  113OSM    O1411702   1.468   0.343  10.727 -0.2267  0.1931  0.6244
  113OSM    O1111703   1.613   0.488  10.584 -0.2505  0.1969 -0.5188
  113OSM    O1211704   1.370   0.488  10.536 -0.7015  0.9193 -0.1643
  113OSM    C1S11705   1.674   0.358  10.544 -0.0171 -0.3341  0.2818
  113OSM    H1S11706   1.599   0.288  10.502 -1.0302  0.6872  0.3694
  113OSM    H1T11707   1.724   0.300  10.625  1.9356 -1.9658 -1.9515
  113OSM     NF11708   1.809   0.246  10.372 -0.0132 -0.3250  0.0641
  113OSM    HNF11709   1.900   0.207  10.373  0.2919  0.3473 -0.4537
  113OSM    C2S11710   1.778   0.374  10.433  0.6249  0.3500  0.1197
  113OSM    H2S11711   1.745   0.438  10.350 -1.4562 -2.7353 -1.6287
  113OSM    C3S11712   1.905   0.451  10.491 -0.0497 -0.7176  0.0665
  113OSM    H3S11713   1.952   0.396  10.575  1.9430 -0.3340 -0.7582
  113OSM     O311714   1.874   0.572  10.557 -0.1044 -0.0937  0.4261
  113OSM    HO311715   1.787   0.559  10.597  1.3675 -2.1619  3.2825
  113OSM    C4S11716   2.007   0.484  10.383 -0.4877  0.6560 -0.4711
  113OSM    H4S11717   2.017   0.401  10.311 -0.2685  2.6186 -2.8439
  113OSM    C5S11718   2.074   0.598  10.346  0.5281  0.3523 -0.2543
  113OSM    H5S11719   2.060   0.692  10.402 -0.7129 -0.3950  0.7315
  113OSM    C6S11720   2.160   0.622  10.230 -0.6796  0.0356 -0.5612
  113OSM    H6S11721   2.263   0.609  10.270 -0.5746  0.2565 -0.7588
  113OSM    H6T11722   2.156   0.729  10.199  2.1046  0.5470  0.5617
  113OSM    C7S11723   2.141   0.529  10.109  0.0970  0.1425 -0.6843
  113OSM    H7S11724   2.034   0.526  10.078 -0.5230  0.1094  1.2806
  113OSM    H7T11725   2.153   0.428  10.154 -1.7823 -0.1488 -0.7358
  113OSM    C8S11726   2.231   0.552   9.996  0.2487  0.1158  0.0934
  113OSM    H8S11727   2.331   0.562  10.042 -0.8736  1.9382  2.3479
  113OSM    H8T11728   2.219   0.649   9.943 -1.8974  0.4708  1.1349
  113OSM    C9S11729   2.240   0.450   9.881 -0.0300 -0.1263 -0.4759
  113OSM    H9S11730   2.144   0.454   9.825 -1.2164 -0.1269  1.4686
  113OSM    H9T11731   2.248   0.346   9.919  0.2829  1.2327  3.5725
  113OSM   C10S11732   2.360   0.484   9.783  0.1985 -0.4101 -0.2899
  113OSM   H10S11733   2.444   0.508   9.853 -1.3500  0.6743  1.3080
  113OSM   H10T11734   2.338   0.578   9.727 -3.6983 -0.1749  1.2970
  113OSM   C11S11735   2.386   0.373   9.693  0.0436 -0.1440  0.2508
  113OSM   H11S11736   2.373   0.280   9.754 -1.3917  1.5262  2.6704
  113OSM   H11T11737   2.483   0.365   9.640  0.1113  1.4677  0.0939
  113OSM   C12S11738   2.275   0.364   9.585 -0.4526 -0.3778  0.2468
  113OSM   H12S11739   2.290   0.454   9.522 -1.7637  0.7556  1.4759
  113OSM   H12T11740   2.172   0.379   9.624  0.3167  3.5382  1.2229
  113OSM   C13S11741   2.293   0.244   9.485  0.1198  0.2566 -0.1220
  113OSM   H13S11742   2.301   0.148   9.541 -0.3957  0.2803  0.0012
  113OSM   H13T11743   2.395   0.262   9.447 -0.0697 -0.2184 -0.8691
  113OSM   C14S11744   2.194   0.273   9.375 -0.7541 -1.0697 -0.8954
  113OSM   H14S11745   2.227   0.367   9.327  1.7347 -0.8157  1.0966
  113OSM   H14T11746   2.095   0.299   9.420  0.6088 -1.0711  2.3729
  113OSM   C15S11747   2.171   0.169   9.260  1.2498  0.1539 -0.1577
  113OSM   H15S11748   2.082   0.204   9.204 -0.4613 -2.0058  1.0332
  113OSM   H15T11749   2.136   0.073   9.304  0.4790  0.2307 -0.5845
  113OSM   C16S11750   2.299   0.158   9.179 -0.2565  0.5756  0.1775
  113OSM   H16S11751   2.384   0.161   9.251  0.5737  0.8904 -0.7752
  113OSM   H16T11752   2.316   0.245   9.111  0.7383 -0.0438 -0.3920
  113OSM   C17S11753   2.300   0.023   9.102  0.2638 -0.8108  1.0128
  113OSM   H17S11754   2.304  -0.066   9.169 -0.2168 -0.8482  0.9961
  113OSM   H17T11755   2.397   0.032   9.049 -1.9347 -0.1587 -3.4101
  113OSM   C18S11756   2.187   0.005   9.005 -0.4990 -0.0483 -0.0715
  113OSM   H18S11757   2.099  -0.013   9.070  0.9589  0.2904  2.1140
  113OSM   H18T11758   2.202  -0.087   8.945 -0.3664  1.3052 -2.2306
  113OSM   H18U11759   2.165   0.091   8.938 -0.6637  0.1558  0.2394
  113OSM    C1F11760   1.719   0.179  10.299  0.1592  0.8272 -0.1328
  113OSM     OF11761   1.606   0.219  10.284  0.1795 -0.2993 -0.0602
  113OSM    C2F11762   1.764   0.048  10.237 -0.2878  0.3116  0.3419
  113OSM    H2F11763   1.813  -0.009  10.319 -1.3172 -1.6503 -0.3309
  113OSM    H2G11764   1.839   0.043  10.156 -0.5203 -2.7239  0.1796
  113OSM    C3F11765   1.643  -0.044  10.186  0.2212  0.0018 -0.7786
  113OSM    H3F11766   1.576  -0.069  10.271  0.8626 -0.1308 -0.2969
  113OSM    H3G11767   1.687  -0.144  10.164  1.1907 -0.5733  3.0209
  113OSM    C4F11768   1.564   0.006  10.071 -0.8949 -0.3357  0.5633
  113OSM    H4F11769   1.531   0.111  10.086 -0.2766 -0.0003 -0.3509
  113OSM    H4G11770   1.470  -0.052  10.064 -0.5326 -1.1005  1.6763
  113OSM    C5F11771   1.634  -0.007   9.933  0.4120  0.6548 -0.8824
  113OSM    H5F11772   1.668  -0.111   9.917  1.0280  0.6616  0.2705
  113OSM    H5G11773   1.725   0.058   9.933  1.8990 -1.2077  2.4597
  113OSM    C6F11774   1.552   0.026   9.809  0.4131 -0.2380 -0.0689
  113OSM    H6F11775   1.609  -0.012   9.722  0.9394  1.5279 -0.5285
  113OSM    H6G11776   1.531   0.134   9.796  3.0574  0.3138 -0.4445
  113OSM    C7F11777   1.423  -0.056   9.808  0.5131  0.0479 -0.3595
  113OSM    H7F11778   1.351  -0.029   9.888  1.5337  0.7472  0.3463
  113OSM    H7G11779   1.444  -0.164   9.820 -0.7039 -0.3317 -1.4806
  113OSM    C8F11780   1.347  -0.045   9.671  0.3017  0.3169 -0.0777
  113OSM    H8F11781   1.430  -0.060   9.600 -0.3453  0.5670 -0.8966
  113OSM    H8G11782   1.306   0.058   9.662 -2.9228 -0.3521  3.6248
  113OSM    C9F11783   1.233  -0.147   9.664  0.6392 -0.2545  0.3215
  113OSM    H9F11784   1.175  -0.163   9.756  0.7032 -1.8908  0.0946
  113OSM   C10F11785   1.190  -0.204   9.548  0.4246  0.3480 -0.7852
  113OSM   H10F11786   1.107  -0.277   9.555 -1.9918  2.9662  0.0206
  113OSM   C11F11787   1.240  -0.194   9.412  0.2613 -0.4267 -0.4142
  113OSM   H11F11788   1.286  -0.294   9.392 -0.2665 -0.9873  1.0333
  113OSM   H11G11789   1.316  -0.113   9.409  1.4401 -1.2949  2.3618
  113OSM   C12F11790   1.132  -0.153   9.311 -0.4988  0.0261  0.6728
  113OSM   H12F11791   1.085  -0.055   9.331 -1.6306  0.1471 -2.1635
  113OSM   H12G11792   1.052  -0.230   9.311  1.4295 -2.2029  3.3513
  113OSM   C13F11793   1.195  -0.135   9.173  0.2209 -0.4821  0.0917
  113OSM   H13F11794   1.240  -0.229   9.135  3.2600  0.5706  0.7981
  113OSM   H13G11795   1.265  -0.049   9.182 -2.4188  1.5939  2.7267
  113OSM   C14F11796   1.106  -0.076   9.068  0.2576  0.1111  0.9041
  113OSM   H14F11797   1.029  -0.009   9.113 -0.9766 -0.2544 -0.5690
  113OSM   H14G11798   1.038  -0.155   9.030  1.3177 -0.1937 -0.4283
  113OSM   C15F11799   1.192  -0.006   8.959 -0.5336  0.6771 -0.4305
  113OSM   H15F11800   1.251  -0.087   8.911 -1.7906 -0.8108  0.4229
  113OSM   H15G11801   1.257   0.072   9.003  0.6729 -0.1953 -0.6189
  113OSM   C16F11802   1.111   0.076   8.853 -0.4781 -0.2185 -0.1581
  113OSM   H16F11803   1.024   0.020   8.810  0.0067 -0.5374 -0.7491
  113OSM   H16G11804   1.183   0.095   8.770  0.1777 -0.3073  0.3852
  113OSM   C17F11805   1.073   0.216   8.897  0.4000 -0.2522 -0.6575
  113OSM   H17F11806   1.161   0.258   8.951 -0.6944 -1.4180  2.2223
  113OSM   H17G11807   0.992   0.209   8.973  0.8833  0.0262 -0.1035
  113OSM   C18F11808   1.036   0.297   8.776 -0.1394 -0.2901 -0.8689
  113OSM   H18F11809   0.948   0.250   8.728 -1.0903  2.0937 -1.6014
  113OSM   H18G11810   1.114   0.293   8.697  0.0106 -0.0328 -0.7344
  113OSM   H18H11811   0.999   0.399   8.802  0.3797 -0.7705  2.0155
  114OSM      N11812   2.515   4.901  11.205 -0.9863 -0.3464 -0.6057
  114OSM    C1511813   2.661   4.941  11.156 -0.2095 -0.0765 -0.1426
  114OSM   H15A11814   2.660   5.035  11.102  0.8551 -0.4425 -0.8487
  114OSM   H15B11815   2.692   4.871  11.079 -0.3719  0.8610 -1.0808
  114OSM   H15C11816   2.731   4.945  11.237 -0.0722  0.7732 -0.2967
  114OSM    C1411817   2.513   4.765  11.276 -0.1080 -0.0440 -0.3041
  114OSM   H14A11818   2.531   4.684  11.206  1.1698  1.2659 -1.5860
  114OSM   H14B11819   2.417   4.752  11.324  0.3603 -0.9543  0.4244
  114OSM   H14C11820   2.590   4.758  11.352 -2.0805  0.0715  1.7931
  114OSM    C1311821   2.487   5.009  11.302 -0.4349 -0.1457 -0.0434
  114OSM   H13A11822   2.402   4.982  11.363 -3.6431  0.9265 -3.5902
  114OSM   H13B11823   2.455   5.097  11.247 -1.8654  0.3160  1.4280
  114OSM   H13C11824   2.569   5.044  11.362 -0.5655  0.9039 -0.4544
  114OSM    C1211825   2.413   4.907  11.096  0.4323 -0.1609  0.3619
  114OSM   H12A11826   2.312   4.894  11.133  0.2714  1.0787  0.3870
  114OSM   H12B11827   2.445   4.830  11.027  1.6691 -0.3206  1.1034
  114OSM    C1111828   2.395   5.023  10.989  0.4727 -0.9303 -0.1926
  114OSM   H11A11829   2.308   4.993  10.927  0.6147 -0.4772 -0.6281
  114OSM   H11B11830   2.492   5.032  10.934  0.0542 -0.9060 -0.9414
  114OSM      P11831   2.228   5.208  11.082  0.1499  0.0048 -0.0224
  114OSM    O1311832   2.154   5.096  11.144  0.0455 -0.6418 -0.4431
  114OSM    O1411833   2.247   5.337  11.152  0.4491 -0.3723 -0.2416
  114OSM    O1111834   2.166   5.239  10.942  0.2182  0.3939 -0.4044
  114OSM    O1211835   2.376   5.151  11.048  0.0511  0.1796  0.4770
  114OSM    C1S11836   2.240   5.294  10.839  0.1926 -0.2436  0.1443
  114OSM    H1S11837   2.349   5.272  10.843  0.3650  0.0939 -1.5974
  114OSM    H1T11838   2.223   5.404  10.834  1.9716  0.1918  2.4065
  114OSM     NF11839   2.273   5.289  10.590 -0.4505  0.1013  0.0615
  114OSM    HNF11840   2.228   5.350  10.525  0.9447 -0.4044 -1.4710
  114OSM    C2S11841   2.200   5.243  10.703 -0.4366 -0.0210  0.1444
  114OSM    H2S11842   2.209   5.132  10.708 -1.4908 -0.0988  0.5253
  114OSM    C3S11843   2.040   5.271  10.681 -0.6146  0.2072 -0.1742
  114OSM    H3S11844   2.015   5.378  10.701  1.5107  1.5211 -3.5653
  114OSM     O311845   1.969   5.200  10.786  0.1166  0.4248 -0.5018
  114OSM    HO311846   2.038   5.172  10.847  0.2733  1.2654 -0.2857
  114OSM    C4S11847   1.987   5.227  10.546 -0.2168 -0.4247 -0.0609
  114OSM    H4S11848   1.986   5.304  10.467  0.3893 -2.5460 -2.2317
  114OSM    C5S11849   1.950   5.104  10.509  0.0222  0.2583  0.3181
  114OSM    H5S11850   1.947   5.020  10.580 -1.0098 -0.9695 -1.1228
  114OSM    C6S11851   1.910   5.074  10.370 -0.0752 -0.2800  0.1454
  114OSM    H6S11852   1.943   5.159  10.307 -0.4250  0.9391  1.5556
  114OSM    H6T11853   1.805   5.039  10.362 -0.3516  0.5488  0.0644
  114OSM    C7S11854   1.997   4.953  10.338 -0.6448 -0.1105  0.2304
  114OSM    H7S11855   1.968   4.912  10.239 -0.0088 -0.8358  0.3341
  114OSM    H7T11856   1.971   4.869  10.406 -0.7626  0.9326  1.5287
  114OSM    C8S11857   2.145   4.973  10.331  1.0648  0.5166 -0.0719
  114OSM    H8S11858   2.185   4.869  10.332 -0.2186 -0.0210 -0.8606
  114OSM    H8T11859   2.200   5.018  10.416  1.7474 -0.9615  0.3169
  114OSM    C9S11860   2.196   5.049  10.207  0.0619  0.3153  0.3261
  114OSM    H9S11861   2.306   5.036  10.219 -0.3753 -1.8894  3.3473
  114OSM    H9T11862   2.172   5.157  10.213 -2.7628  0.1428 -4.0494
  114OSM   C10S11863   2.139   4.998  10.065  0.2965  0.5091 -0.2474
  114OSM   H10S11864   2.044   5.055  10.053 -0.3770 -0.7668 -1.3366
  114OSM   H10T11865   2.121   4.888  10.071 -1.4787  0.6451 -1.9982
  114OSM   C11S11866   2.229   5.022   9.944  0.4057 -0.0768 -0.5320
  114OSM   H11S11867   2.320   4.963   9.966  0.1475 -0.3656 -0.2278
  114OSM   H11T11868   2.271   5.124   9.955  2.2279 -0.8524  0.1299
  114OSM   C12S11869   2.159   4.964   9.815  0.0923  0.5570  0.3398
  114OSM   H12S11870   2.078   5.035   9.789 -1.1340 -0.5728  1.0225
  114OSM   H12T11871   2.126   4.862   9.844  1.4032 -0.4379 -1.4329
  114OSM   C13S11872   2.271   4.951   9.703 -0.0645 -0.1742 -0.6060
  114OSM   H13S11873   2.229   4.887   9.622 -1.0597 -0.5234  0.1650
  114OSM   H13T11874   2.363   4.897   9.736 -0.2360  0.2907  0.6962
  114OSM   C14S11875   2.326   5.078   9.637 -0.6976 -0.8244 -0.1333
  114OSM   H14S11876   2.384   5.129   9.717 -0.1278 -1.1816 -0.3136
  114OSM   H14T11877   2.240   5.136   9.596  0.4290  0.1813 -1.1631
  114OSM   C15S11878   2.432   5.060   9.528 -0.0665 -0.2701  0.2272
  114OSM   H15S11879   2.522   5.004   9.560 -0.2464 -1.2402 -0.9006
  114OSM   H15T11880   2.470   5.161   9.500 -1.4187 -0.2236 -1.6339
  114OSM   C16S11881   2.372   5.013   9.398  0.2718  0.8303  0.1493
  114OSM   H16S11882   2.334   4.909   9.416  1.4007  0.2079 -0.9202
  114OSM   H16T11883   2.450   5.019   9.320  0.8611  0.8772  0.7341
  114OSM   C17S11884   2.254   5.092   9.335 -0.2560  0.0386  0.2648
  114OSM   H17S11885   2.287   5.197   9.351  0.9094 -0.5242  1.8485
  114OSM   H17T11886   2.164   5.064   9.394 -0.2909  1.3992  0.8910
  114OSM   C18S11887   2.226   5.051   9.186  0.0351 -0.1534 -0.2510
  114OSM   H18S11888   2.175   4.953   9.190  0.4190 -0.3293  0.7041
  114OSM   H18T11889   2.315   5.024   9.125 -1.1922  1.9064 -3.2095
  114OSM   H18U11890   2.161   5.121   9.129  1.0747 -2.0709 -4.0943
  114OSM    C1F11891   2.399   5.251  10.564 -0.3739  0.0030  1.0200
  114OSM     OF11892   2.448   5.157  10.626 -0.0346  0.3509 -0.1707
  114OSM    C2F11893   2.469   5.322  10.446 -0.0964  0.2166  0.6341
  114OSM    H2F11894   2.452   5.432  10.444 -0.1463  0.2024  0.0809
  114OSM    H2G11895   2.428   5.277  10.353 -1.4896  1.3819  0.6445
  114OSM    C3F11896   2.616   5.291  10.447 -0.1417 -0.3550  0.0423
  114OSM    H3F11897   2.636   5.182  10.457 -0.6221 -0.6348 -1.7141
  114OSM    H3G11898   2.656   5.337  10.539 -3.9370  2.6812  0.4121
  114OSM    C4F11899   2.688   5.341  10.325 -0.1214 -0.2033 -0.8132
  114OSM    H4F11900   2.797   5.340  10.346 -0.0732  0.3680 -0.9943
  114OSM    H4G11901   2.678   5.452  10.328  0.5642 -0.1488  1.6838
  114OSM    C5F11902   2.654   5.283  10.191 -0.3481  0.1219  0.5841
  114OSM    H5F11903   2.544   5.290  10.175 -0.2737  0.2167  0.1205
  114OSM    H5G11904   2.663   5.173  10.206 -2.3474 -0.0969  0.4236
  114OSM    C6F11905   2.744   5.328  10.083 -0.4418  0.1837  0.0968
  114OSM    H6F11906   2.851   5.311  10.107 -0.5212  0.0838  0.3862
  114OSM    H6G11907   2.739   5.439  10.077  0.9785  0.1970 -1.6957
  114OSM    C7F11908   2.701   5.284   9.947  0.0575 -0.5657  0.7658
  114OSM    H7F11909   2.592   5.301   9.943  0.5515  4.0048  0.7028
  114OSM    H7G11910   2.733   5.181   9.920 -0.4620 -0.7784  0.9561
  114OSM    C8F11911   2.750   5.381   9.831 -0.4409  0.9118  0.7351
  114OSM    H8F11912   2.754   5.491   9.847  0.2431  1.2610 -1.4618
  114OSM    H8G11913   2.687   5.370   9.740 -0.8490  1.7664  0.9032
  114OSM    C9F11914   2.887   5.344   9.785  0.1780  0.2700 -0.6005
  114OSM    H9F11915   2.965   5.419   9.807 -1.1547  1.7416 -0.7456
  114OSM   C10F11916   2.911   5.234   9.708  0.0839 -0.4595  0.0558
  114OSM   H10F11917   3.011   5.213   9.667 -0.0740  1.4191 -1.4370
  114OSM   C11F11918   2.808   5.143   9.644  0.4824 -0.1785 -0.7335
  114OSM   H11F11919   2.707   5.162   9.686  0.7080  1.1483 -0.7326
  114OSM   H11G11920   2.830   5.036   9.664  1.0356  0.0192 -0.2575
  114OSM   C12F11921   2.806   5.140   9.489  0.2750 -0.1343 -0.3338
  114OSM   H12F11922   2.723   5.074   9.455 -1.1426  1.5778 -0.3886
  114OSM   H12G11923   2.898   5.102   9.441  0.6711  0.4390 -0.0456
  114OSM   C13F11924   2.757   5.279   9.436 -0.2216  0.8179  0.5367
  114OSM   H13F11925   2.838   5.355   9.434  1.4086 -0.5708  4.2144
  114OSM   H13G11926   2.683   5.321   9.507  0.5199  0.9527  1.2506
  114OSM   C14F11927   2.688   5.261   9.304  0.3237 -0.1318 -0.0351
  114OSM   H14F11928   2.627   5.346   9.267  1.5037  0.3547 -0.9605
  114OSM   H14G11929   2.618   5.175   9.303  0.7260 -0.4639 -0.1162
  114OSM   C15F11930   2.786   5.219   9.202 -0.1681 -1.0405 -0.3131
  114OSM   H15F11931   2.818   5.115   9.228 -0.2090 -0.7877  0.8319
  114OSM   H15G11932   2.883   5.271   9.218 -0.7161  0.2595 -1.0905
  114OSM   C16F11933   2.728   5.221   9.057 -1.0808  0.7042 -0.7540
  114OSM   H16F11934   2.659   5.300   9.019 -0.4446  0.8915 -1.5539
  114OSM   H16G11935   2.666   5.129   9.049 -0.9395  0.4663  0.6803
  114OSM   C17F11936   2.830   5.208   8.945  0.8015 -0.3306  0.6670
  114OSM   H17F11937   2.897   5.123   8.970  0.8782 -0.5453 -0.2462
  114OSM   H17G11938   2.897   5.296   8.955  0.2113  0.0645  1.2876
  114OSM   C18F11939   2.767   5.201   8.803 -0.1704 -0.1067  0.3130
  114OSM   H18F11940   2.841   5.191   8.720 -1.1358  0.7428 -0.6848
  114OSM   H18G11941   2.703   5.288   8.776  0.8112  0.9522  1.2861
  114OSM   H18H11942   2.701   5.113   8.790  0.2323 -0.3278 -0.2925
  115OSM      N11943   4.854   0.295   5.964  0.2321 -0.0048  0.0378
  115OSM    C1511944   4.947   0.415   5.976 -0.3479 -0.5206 -0.3730
  115OSM   H15A11945   4.955   0.447   6.079 -0.0595  1.6166 -0.9998
  115OSM   H15B11946   4.903   0.496   5.920 -0.5145 -0.8366 -0.6959
  115OSM   H15C11947   5.049   0.393   5.948 -0.6988  0.9081 -3.1010
  115OSM    C1411948   4.801   0.297   5.822  0.2294  0.3707 -0.1655
  115OSM   H14A11949   4.873   0.275   5.746 -1.6967  3.5489 -3.2021
  115OSM   H14B11950   4.744   0.385   5.795  1.3060  2.3683  3.2974
  115OSM   H14C11951   4.717   0.229   5.816  1.4965 -1.6645  2.7242
  115OSM    C1311952   4.938   0.175   5.987  0.4364 -0.3359 -0.1972
  115OSM   H13A11953   4.996   0.176   6.078  0.2424 -1.0152 -0.0631
  115OSM   H13B11954   5.010   0.161   5.907 -0.3677 -0.5728 -0.8908
  115OSM   H13C11955   4.876   0.087   5.991 -0.8923  0.5724 -0.2815
  115OSM    C1211956   4.735   0.304   6.062 -0.2763  0.8736 -0.4856
  115OSM   H12A11957   4.783   0.307   6.158  0.6396 -0.2129 -0.8926
  115OSM   H12B11958   4.686   0.208   6.050  2.4259 -0.4619 -1.6074
  115OSM    C1111959   4.626   0.421   6.047  0.7211  0.6297  0.2486
  115OSM   H11A11960   4.539   0.397   6.112  0.4198  2.7201  0.7013
  115OSM   H11B11961   4.594   0.416   5.941  0.7507 -1.5186  0.2867
  115OSM      P11962   4.689   0.604   6.227 -0.1032  0.6141 -0.2109
  115OSM    O1311963   4.783   0.514   6.299 -0.0791 -0.0697 -0.2398
  115OSM    O1411964   4.726   0.748   6.219  0.5538  0.3484 -0.3117
  115OSM    O1111965   4.536   0.602   6.282 -0.4252 -0.1764 -0.1118
  115OSM    O1211966   4.678   0.545   6.086  0.7663  0.1965  0.6367
  115OSM    C1S11967   4.493   0.513   6.381 -0.1628 -0.1061  0.2290
  115OSM    H1S11968   4.550   0.418   6.383  0.9375  0.5248  0.0313
  115OSM    H1T11969   4.388   0.479   6.366 -0.7203  1.6650 -0.1091
  115OSM     NF11970   4.486   0.501   6.642 -0.3472 -0.0037 -0.5709
  115OSM    HNF11971   4.390   0.486   6.665 -0.3530 -0.5868 -0.9495
  115OSM    C2S11972   4.507   0.584   6.523 -0.6644 -0.2369  0.3378
  115OSM    H2S11973   4.615   0.610   6.520  0.3400 -3.8994 -0.7290
  115OSM    C3S11974   4.429   0.719   6.530  0.2122 -0.0268  0.0853
  115OSM    H3S11975   4.322   0.690   6.535  0.5798 -1.5652 -0.3874
  115OSM     O311976   4.440   0.810   6.417  0.2776  0.0999  0.2137
  115OSM    HO311977   4.473   0.755   6.346 -1.7969 -0.0970 -0.6746
  115OSM    C4S11978   4.465   0.783   6.656 -0.3257 -0.1416 -0.6257
  115OSM    H4S11979   4.574   0.798   6.662 -0.7041  2.6172  1.0581
  115OSM    C5S11980   4.380   0.798   6.763 -0.2792 -0.0758 -0.5314
  115OSM    H5S11981   4.275   0.765   6.760 -0.2811 -0.1754  0.3227
  115OSM    C6S11982   4.424   0.834   6.909 -0.4348  0.4318  0.2456
  115OSM    H6S11983   4.351   0.909   6.945 -0.3143  0.5758  0.1907
  115OSM    H6T11984   4.523   0.884   6.909 -0.3234  0.2624 -1.3377
  115OSM    C7S11985   4.426   0.714   7.010 -0.3702  0.5679  0.1560
  115OSM    H7S11986   4.514   0.655   6.978  0.6078  3.8675 -4.1928
  115OSM    H7T11987   4.335   0.651   7.015 -0.6831  0.8654 -1.2936
  115OSM    C8S11988   4.453   0.757   7.153  0.0299  0.8553 -0.8270
  115OSM    H8S11989   4.374   0.825   7.191 -1.0799  0.7387 -2.8033
  115OSM    H8T11990   4.552   0.808   7.156  0.5096 -0.1078  0.6280
  115OSM    C9S11991   4.464   0.640   7.248 -0.3387  0.2186  0.0791
  115OSM    H9S11992   4.548   0.572   7.222 -1.5429 -1.0568 -0.6692
  115OSM    H9T11993   4.380   0.567   7.240  1.1815 -1.4787 -1.2266
  115OSM   C10S11994   4.482   0.682   7.399  0.4409 -0.3987  0.0344
  115OSM   H10S11995   4.391   0.731   7.438  1.2765 -0.0091  1.5669
  115OSM   H10T11996   4.554   0.767   7.405 -0.6029  0.5834 -0.9435
  115OSM   C11S11997   4.513   0.567   7.490 -0.5936 -0.4044 -0.4260
  115OSM   H11S11998   4.597   0.503   7.456  0.8738  1.0714  0.2471
  115OSM   H11T11999   4.433   0.491   7.488  0.5482 -1.6432 -0.8333
  115OSM   C12S12000   4.526   0.597   7.642 -0.0663 -0.1790  0.5866
  115OSM   H12S12001   4.453   0.673   7.679 -0.5134 -0.5572  0.4876
  115OSM   H12T12002   4.627   0.635   7.670  1.0674 -3.7715  1.9537
  115OSM   C13S12003   4.509   0.471   7.732  0.5337 -0.1345 -0.3222
  115OSM   H13S12004   4.580   0.388   7.710 -0.7850 -1.0931 -1.1187
  115OSM   H13T12005   4.406   0.430   7.727  0.8851 -1.0378 -0.3718
  115OSM   C14S12006   4.537   0.495   7.884  0.1642 -0.1520  0.1979
  115OSM   H14S12007   4.513   0.405   7.944 -1.3757  0.9410  1.2907
  115OSM   H14T12008   4.483   0.586   7.917  1.7294  1.1452 -0.6621
  115OSM   C15S12009   4.685   0.531   7.904  1.0688 -0.1958 -0.4974
  115OSM   H15S12010   4.706   0.630   7.858  1.4100 -0.1788 -0.3115
  115OSM   H15T12011   4.755   0.458   7.858  0.8035 -1.3558  0.8714
  115OSM   C16S12012   4.725   0.520   8.051  0.0001 -0.1542 -0.1693
  115OSM   H16S12013   4.668   0.433   8.089  1.1292 -0.0537  1.8771
  115OSM   H16T12014   4.680   0.600   8.113 -1.6926 -1.3215  0.1625
  115OSM   C17S12015   4.876   0.490   8.082 -0.5219  0.2022  0.2930
  115OSM   H17S12016   4.913   0.527   8.180  0.2020  1.0265 -0.2775
  115OSM   H17T12017   4.929   0.544   8.001 -1.1057 -0.2041 -0.3789
  115OSM   C18S12018   4.919   0.342   8.063  0.4807 -0.4303 -0.1938
  115OSM   H18S12019   5.027   0.336   8.088  0.0254 -1.4724  1.6464
  115OSM   H18T12020   4.904   0.324   7.954 -0.2618 -0.1487 -0.1463
  115OSM   H18U12021   4.857   0.278   8.130 -4.0758  1.4003 -2.1907
  115OSM    C1F12022   4.585   0.420   6.685  0.1390  0.4138  0.4843
  115OSM     OF12023   4.696   0.423   6.634  0.0542 -0.5395  0.1145
  115OSM    C2F12024   4.542   0.321   6.786 -0.0538 -0.4423 -0.1345
  115OSM    H2F12025   4.596   0.226   6.766  1.5735  0.8165 -2.1951
  115OSM    H2G12026   4.432   0.307   6.793 -0.1712 -0.0697 -1.1045
  115OSM    C3F12027   4.602   0.364   6.921 -0.1109 -0.1246  0.1245
  115OSM    H3F12028   4.540   0.446   6.963 -0.2463 -0.0827 -0.1533
  115OSM    H3G12029   4.709   0.394   6.911  0.3572 -1.7429  0.0797
  115OSM    C4F12030   4.613   0.243   7.023 -0.3048 -0.6196  0.3215
  115OSM    H4F12031   4.674   0.160   6.981 -1.4670 -1.2666 -0.1219
  115OSM    H4G12032   4.507   0.211   7.033 -1.2442  2.0775 -0.1330
  115OSM    C5F12033   4.671   0.290   7.163  0.3423  0.6964  1.0167
  115OSM    H5F12034   4.597   0.360   7.208 -1.5631  0.2205 -1.1481
  115OSM    H5G12035   4.767   0.345   7.145  0.2755  0.6054  0.3395
  115OSM    C6F12036   4.695   0.162   7.247 -0.5789 -0.5957 -0.2510
  115OSM    H6F12037   4.779   0.101   7.208 -1.5538  0.0600 -3.7753
  115OSM    H6G12038   4.613   0.087   7.240 -1.9918  0.9154 -0.4276
  115OSM    C7F12039   4.717   0.207   7.388 -0.5304 -0.5471 -0.5306
  115OSM    H7F12040   4.699   0.125   7.460 -2.7362  0.1811 -0.1820
  115OSM    H7G12041   4.632   0.277   7.403 -1.4670 -1.7677  0.0342
  115OSM    C8F12042   4.852   0.276   7.414 -0.2952 -0.8241  0.2954
  115OSM    H8F12043   4.855   0.372   7.358 -1.8369  0.6447  2.5823
  115OSM    H8G12044   4.933   0.208   7.379  0.4131 -0.6710  1.5702
  115OSM    C9F12045   4.861   0.308   7.558 -0.0525 -0.1260  0.2711
  115OSM    H9F12046   4.832   0.407   7.595 -1.9284 -0.4772 -0.1792
  115OSM   C10F12047   4.917   0.218   7.639  0.0956 -0.3299 -0.8361
  115OSM   H10F12048   4.923   0.247   7.745  1.6564  2.5171 -1.5970
  115OSM   C11F12049   4.968   0.086   7.615 -0.0220 -0.2987  0.6776
  115OSM   H11F12050   5.021   0.093   7.517 -2.5623  1.0335 -0.7092
  115OSM   H11G12051   4.880   0.019   7.597  1.9254 -2.8512 -0.0244
  115OSM   C12F12052   5.061   0.028   7.724 -0.4973 -0.1242  0.2060
  115OSM   H12F12053   5.150   0.092   7.741  1.2136 -2.4574  0.4983
  115OSM   H12G12054   5.109  -0.064   7.684  0.1825  0.0606  0.5743
  115OSM   C13F12055   4.993   0.007   7.857 -0.1924 -0.4395 -0.1105
  115OSM   H13F12056   4.909  -0.063   7.840 -0.5886 -0.8305  2.9803
  115OSM   H13G12057   4.956   0.104   7.896  0.0084 -0.2561 -0.3674
  115OSM   C14F12058   5.100  -0.054   7.953 -0.1912 -0.5973  0.3943
  115OSM   H14F12059   5.169   0.029   7.976 -0.9093  0.7265 -1.8823
  115OSM   H14G12060   5.162  -0.129   7.901 -1.4814 -1.4268 -0.0085
  115OSM   C15F12061   5.052  -0.106   8.086  0.6507  0.0402  0.9199
  115OSM   H15F12062   4.989  -0.195   8.067  2.2071 -0.8756 -0.0925
  115OSM   H15G12063   4.989  -0.032   8.140 -0.3253  0.7685 -1.0984
  115OSM   C16F12064   5.173  -0.157   8.166  0.7562  0.4546 -0.0966
  115OSM   H16F12065   5.250  -0.077   8.172 -0.8847  2.1104 -0.2480
  115OSM   H16G12066   5.217  -0.250   8.123  0.9232  0.3796  0.2398
  115OSM   C17F12067   5.142  -0.205   8.315 -0.1618  0.2393  0.3737
  115OSM   H17F12068   5.073  -0.292   8.316  0.0034  0.1061  0.3400
  115OSM   H17G12069   5.087  -0.123   8.364  0.3941  1.0208 -0.2756
  115OSM   C18F12070   5.269  -0.236   8.397  0.3154 -0.5822 -0.0325
  115OSM   H18F12071   5.340  -0.306   8.349 -0.4948 -1.4218 -0.0355
  115OSM   H18G12072   5.245  -0.274   8.499 -1.7730 -1.4257 -0.7811
  115OSM   H18H12073   5.327  -0.144   8.422 -0.7702 -0.2410  1.4365
  116OSM      N12074   2.566   5.520   6.426  0.2592  0.1538  0.3121
  116OSM    C1512075   2.642   5.404   6.374 -0.0832 -0.5564  0.0844
  116OSM   H15A12076   2.739   5.439   6.343  0.9765 -2.1096  1.4547
  116OSM   H15B12077   2.583   5.370   6.289  0.0404 -0.2008 -0.1445
  116OSM   H15C12078   2.636   5.327   6.450  1.8280 -1.2934 -0.4450
  116OSM    C1412079   2.543   5.617   6.315  0.2257  0.2222 -0.1456
  116OSM   H14A12080   2.623   5.689   6.319  1.9166 -1.5594 -0.7232
  116OSM   H14B12081   2.447   5.666   6.320  0.0599 -0.1289  0.1304
  116OSM   H14C12082   2.554   5.562   6.223  0.1909 -1.1898  0.6665
  116OSM    C1312083   2.434   5.454   6.465  0.5087  0.6399 -0.5538
  116OSM   H13A12084   2.353   5.522   6.486  0.0372  0.0768 -0.5152
  116OSM   H13B12085   2.450   5.401   6.558  2.7443  0.8160 -0.7960
  116OSM   H13C12086   2.403   5.384   6.388  2.4032 -0.6252 -0.2482
  116OSM    C1212087   2.625   5.578   6.553  0.2047  0.7064 -0.7307
  116OSM   H12A12088   2.733   5.576   6.545  0.4430 -0.6241  1.8739
  116OSM   H12B12089   2.606   5.498   6.622 -1.9821  1.7002 -0.0936
  116OSM    C1112090   2.558   5.708   6.598  0.0976 -0.1290  0.8507
  116OSM   H11A12091   2.573   5.738   6.704 -1.8955  0.4713  0.9976
  116OSM   H11B12092   2.449   5.688   6.591  0.3890 -1.5328 -0.0413
  116OSM      P12093   2.732   5.882   6.517 -0.4143  0.3244  0.0743
  116OSM    O1312094   2.832   5.785   6.474  0.0172 -0.2818 -0.1731
  116OSM    O1412095   2.720   6.011   6.451  0.7904  0.1480 -0.4467
  116OSM    O1112096   2.758   5.908   6.666  0.0242  0.4681  0.0659
  116OSM    O1212097   2.589   5.818   6.523  0.4446 -0.2408 -0.0380
  116OSM    C1S12098   2.890   5.930   6.713 -0.5685 -0.3793  0.0251
  116OSM    H1S12099   2.933   6.018   6.661 -2.7689  1.7899  1.6267
  116OSM    H1T12100   2.948   5.837   6.700 -0.8831 -0.6723  0.6330
  116OSM     NF12101   3.031   5.986   6.901 -0.2922  0.3487  0.7148
  116OSM    HNF12102   3.076   5.921   6.962 -0.7383 -1.7183 -0.9956
  116OSM    C2S12103   2.893   5.952   6.866  0.2285  0.0134 -0.4224
  116OSM    H2S12104   2.826   6.040   6.880 -1.0195 -0.8475 -0.8796
  116OSM    C3S12105   2.831   5.836   6.946 -0.3895  0.6280 -0.7427
  116OSM    H3S12106   2.899   5.748   6.941 -0.3038  0.4798  1.8205
  116OSM     O312107   2.702   5.795   6.900  0.4572 -0.6143  0.2984
  116OSM    HO312108   2.688   5.843   6.818 -0.4927  0.6504  1.1593
  116OSM    C4S12109   2.818   5.886   7.084 -0.4729 -0.3469  0.2243
  116OSM    H4S12110   2.900   5.848   7.147 -1.9701 -0.0452  2.4604
  116OSM    C5S12111   2.713   5.948   7.141  0.6079  0.1200  0.6025
  116OSM    H5S12112   2.623   5.965   7.079 -0.9108  0.9495  2.9326
  116OSM    C6S12113   2.700   5.993   7.288 -0.0763 -0.2680 -0.0160
  116OSM    H6S12114   2.596   5.976   7.322 -0.8288  1.9863 -0.9656
  116OSM    H6T12115   2.717   6.103   7.295 -0.2771 -0.3158  1.7827
  116OSM    C7S12116   2.800   5.931   7.383 -0.9377 -0.5567 -0.1727
  116OSM    H7S12117   2.905   5.952   7.356 -0.7030 -0.9557  0.4008
  116OSM    H7T12118   2.779   5.823   7.364 -0.5010 -0.9057  1.1730
  116OSM    C8S12119   2.786   5.967   7.529  0.4011 -0.0315  0.8028
  116OSM    H8S12120   2.683   5.934   7.551 -0.3460  1.6510 -0.0208
  116OSM    H8T12121   2.787   6.078   7.544 -2.2395  0.0368  0.8590
  116OSM    C9S12122   2.890   5.905   7.624 -0.3334 -0.3387  0.2882
  116OSM    H9S12123   2.992   5.924   7.585  1.2257 -3.1278  2.6509
  116OSM    H9T12124   2.876   5.796   7.604 -0.4274 -0.1356 -0.8347
  116OSM   C10S12125   2.869   5.921   7.767 -0.0363 -0.1530  0.2247
  116OSM   H10S12126   2.764   5.908   7.800 -0.4753  2.4590  0.0777
  116OSM   H10T12127   2.908   6.023   7.788  0.3823  0.5791 -3.4286
  116OSM   C11S12128   2.945   5.808   7.849 -0.1937 -0.5310  0.2483
  116OSM   H11S12129   3.054   5.820   7.834 -0.4044 -0.2862 -1.2023
  116OSM   H11T12130   2.924   5.710   7.800  3.3570 -0.8977 -0.7730
  116OSM   C12S12131   2.902   5.803   8.002  0.2822  0.0093 -0.1361
  116OSM   H12S12132   2.791   5.800   8.005  0.2512 -1.2239 -1.5908
  116OSM   H12T12133   2.932   5.903   8.042 -0.0059  0.8955 -2.0404
  116OSM   C13S12134   2.962   5.694   8.087 -0.3803 -0.1624 -0.9763
  116OSM   H13S12135   3.072   5.699   8.071  0.0102 -3.2896  0.1406
  116OSM   H13T12136   2.920   5.604   8.037  1.8062 -0.5845 -2.2070
  116OSM   C14S12137   2.923   5.705   8.234 -0.3236  0.7152  0.3249
  116OSM   H14S12138   2.951   5.608   8.280  1.9277  0.1712 -1.9472
  116OSM   H14T12139   2.812   5.706   8.222 -0.1662 -0.4327 -1.6472
  116OSM   C15S12140   2.980   5.819   8.317 -0.0585 -0.1361 -0.0274
  116OSM   H15S12141   2.934   5.915   8.285 -0.8185 -1.1052 -2.0292
  116OSM   H15T12142   3.089   5.825   8.301  0.0528  1.9894  1.1300
  116OSM   C16S12143   2.939   5.795   8.464  0.5416 -0.2134 -0.9913
  116OSM   H16S12144   3.008   5.853   8.529 -0.9764  2.9078 -1.9613
  116OSM   H16T12145   2.937   5.688   8.494  1.2168 -0.3979 -1.5669
  116OSM   C17S12146   2.791   5.836   8.500 -0.2706 -0.5237  0.5179
  116OSM   H17S12147   2.729   5.817   8.410  1.4346  0.1764 -0.8641
  116OSM   H17T12148   2.795   5.944   8.525 -1.3323 -0.7258  1.6224
  116OSM   C18S12149   2.738   5.754   8.618  0.4671 -0.5685 -0.0916
  116OSM   H18S12150   2.698   5.653   8.593 -2.6765  0.3968  0.5152
  116OSM   H18T12151   2.645   5.806   8.650  1.4857  1.2166  0.0792
  116OSM   H18U12152   2.790   5.755   8.716 -0.1728 -0.8087  0.2606
  116OSM    C1F12153   3.098   6.094   6.866 -0.8180 -0.4091 -0.1205
  116OSM     OF12154   3.037   6.193   6.822  0.0026  0.0926  0.3309
  116OSM    C2F12155   3.251   6.091   6.876  0.4322 -0.2845  0.5799
  116OSM    H2F12156   3.296   6.121   6.778  0.5139  0.3265  0.7963
  116OSM    H2G12157   3.290   5.989   6.896  3.5878  0.7970  0.5948
  116OSM    C3F12158   3.284   6.190   6.989  0.0356 -0.2824  0.6590
  116OSM    H3F12159   3.220   6.280   7.000 -0.2409 -0.2699 -0.8652
  116OSM    H3G12160   3.380   6.233   6.953 -1.3302  1.9994 -0.4721
  116OSM    C4F12161   3.302   6.127   7.122 -0.5752 -0.2213 -0.3421
  116OSM    H4F12162   3.390   6.173   7.171  0.1587 -1.7453 -0.1778
  116OSM    H4G12163   3.323   6.018   7.111  1.0170  0.1201 -0.8972
  116OSM    C5F12164   3.186   6.142   7.215  0.6017  0.7341  0.3673
  116OSM    H5F12165   3.204   6.072   7.299  0.4136 -0.6601 -0.7228
  116OSM    H5G12166   3.096   6.111   7.156  1.7245  0.3513 -1.2181
  116OSM    C6F12167   3.161   6.289   7.262  0.1476  0.2630 -0.4443
  116OSM    H6F12168   3.134   6.364   7.184  0.0022 -1.8243 -2.5243
  116OSM    H6G12169   3.257   6.312   7.313  0.5156 -2.2574  0.1244
  116OSM    C7F12170   3.048   6.296   7.367 -0.3684  0.3409 -0.0038
  116OSM    H7F12171   2.948   6.283   7.321 -0.0525 -3.2870  0.0432
  116OSM    H7G12172   3.035   6.402   7.399 -0.2916  0.1429  0.6893
  116OSM    C8F12173   3.055   6.200   7.491 -0.4907  0.3329  0.0237
  116OSM    H8F12174   3.044   6.093   7.464 -0.7324 -0.0106  1.4129
  116OSM    H8G12175   2.957   6.218   7.539  0.5871  0.6835  2.2088
  116OSM    C9F12176   3.174   6.216   7.582  0.0017  0.1973  0.5995
  116OSM    H9F12177   3.263   6.165   7.544 -1.6084 -1.5522 -1.0869
  116OSM   C10F12178   3.176   6.281   7.702 -0.2152 -0.2548  0.5449
  116OSM   H10F12179   3.268   6.285   7.762 -1.3211  3.0859  2.2898
  116OSM   C11F12180   3.044   6.343   7.742 -1.3410 -0.1075 -0.3496
  116OSM   H11F12181   2.956   6.278   7.724 -1.0485 -0.3429 -0.9681
  116OSM   H11G12182   3.028   6.431   7.677  1.9712  1.6658  1.0007
  116OSM   C12F12183   3.032   6.393   7.889  0.1029  0.2771 -0.5685
  116OSM   H12F12184   2.948   6.463   7.908 -0.3030 -0.5223  0.7587
  116OSM   H12G12185   3.125   6.445   7.920  0.2295 -0.8511  1.0600
  116OSM   C13F12186   3.002   6.280   7.986  0.0553 -0.1283 -0.1633
  116OSM   H13F12187   3.043   6.181   7.957 -3.4861 -1.1059 -2.3431
  116OSM   H13G12188   2.893   6.262   7.981 -0.0357  0.4982 -0.4263
  116OSM   C14F12189   3.054   6.313   8.129 -0.4467  0.1183  0.8023
  116OSM   H14F12190   3.021   6.414   8.161 -2.1374  0.4695 -1.7279
  116OSM   H14G12191   3.165   6.316   8.129 -0.4329 -0.2879  0.3428
  116OSM   C15F12192   3.012   6.213   8.242  0.1445  0.4539 -0.1118
  116OSM   H15F12193   3.059   6.117   8.213  0.5905 -0.2977  2.7896
  116OSM   H15G12194   2.901   6.217   8.253 -0.2505 -0.8867 -2.8375
  116OSM   C16F12195   3.063   6.254   8.379  0.1235 -0.7282 -0.4543
  116OSM   H16F12196   3.033   6.359   8.396  1.9673 -0.0215 -1.2895
  116OSM   H16G12197   3.174   6.249   8.391  0.1638 -0.5053 -0.7391
  116OSM   C17F12198   3.002   6.173   8.495  0.2844 -0.1784 -0.5702
  116OSM   H17F12199   3.035   6.068   8.481  0.8017  0.1707 -2.1154
  116OSM   H17G12200   2.892   6.189   8.498  0.6361  2.6249  1.5324
  116OSM   C18F12201   3.033   6.224   8.635 -0.6468  0.4690  0.6205
  116OSM   H18F12202   3.012   6.149   8.715  0.0534  2.0638  2.3801
  116OSM   H18G12203   2.979   6.319   8.651  0.6970  1.4891 -0.6610
  116OSM   H18H12204   3.140   6.251   8.650 -0.4541 -0.3789  0.8774
  117OSM      N12205   3.641   1.367   5.972  0.5089 -0.5734  0.1196
  117OSM    C1512206   3.537   1.389   5.866 -0.2686  0.1298 -0.0494
  117OSM   H15A12207   3.502   1.492   5.870 -2.1868 -0.5107  1.6868
  117OSM   H15B12208   3.455   1.323   5.891 -0.1055 -0.5691 -1.3029
  117OSM   H15C12209   3.573   1.363   5.768  1.6450 -2.3326  1.2078
  117OSM    C1412210   3.584   1.413   6.103 -0.3317 -0.3205 -0.6256
  117OSM   H14A12211   3.670   1.416   6.168  1.5269  0.4950 -2.9852
  117OSM   H14B12212   3.505   1.347   6.137 -1.2641  1.6452  1.3184
  117OSM   H14C12213   3.562   1.519   6.094  0.2466 -0.1271  0.1545
  117OSM    C1312214   3.669   1.224   5.981  0.0105  0.4682  0.2079
  117OSM   H13A12215   3.586   1.160   6.007 -0.1399 -0.1368 -1.6385
  117OSM   H13B12216   3.720   1.217   6.076 -0.0344  1.9989  0.3605
  117OSM   H13C12217   3.726   1.183   5.900  3.2748 -1.2036  3.0831
  117OSM    C1212218   3.771   1.451   5.947 -0.2561  0.8839 -0.0199
  117OSM   H12A12219   3.749   1.557   5.940  1.6337  1.3721  0.6710
  117OSM   H12B12220   3.818   1.422   5.854 -3.6132  0.3973 -1.6978
  117OSM    C1112221   3.883   1.430   6.051  0.1036  0.2472 -0.3511
  117OSM   H11A12222   3.986   1.466   6.030  0.9329 -0.1869  2.6382
  117OSM   H11B12223   3.895   1.320   6.065  1.8051 -0.2445 -4.1685
  117OSM      P12224   3.868   1.655   6.187  0.2004  0.5816 -0.0506
  117OSM    O1312225   4.016   1.674   6.194 -0.4693 -0.4684  0.2569
  117OSM    O1412226   3.782   1.720   6.082 -0.0683 -0.2022  0.6515
  117OSM    O1112227   3.798   1.680   6.331  0.0373  0.0971 -0.0866
  117OSM    O1212228   3.857   1.497   6.170  0.1505 -0.0700 -0.3426
  117OSM    C1S12229   3.761   1.572   6.415 -0.5139  0.0758  0.5599
  117OSM    H1S12230   3.856   1.522   6.441 -0.2524  0.2004 -0.1516
  117OSM    H1T12231   3.702   1.496   6.360  2.1229 -1.1839 -0.6875
  117OSM     NF12232   3.673   1.477   6.621  0.3542  0.1662  0.2803
  117OSM    HNF12233   3.579   1.449   6.636  0.1706  0.6178 -0.0162
  117OSM    C2S12234   3.697   1.604   6.551 -0.4583 -0.7508  0.6658
  117OSM    H2S12235   3.770   1.664   6.610 -0.1353  0.6631 -1.1043
  117OSM    C3S12236   3.568   1.678   6.531  0.3860 -0.3333  0.0544
  117OSM    H3S12237   3.488   1.615   6.486 -0.2100 -0.2549  0.9867
  117OSM     O312238   3.573   1.790   6.443 -0.1322 -0.2843 -0.1957
  117OSM    HO312239   3.661   1.790   6.405 -1.3078  1.1586 -3.2428
  117OSM    C4S12240   3.512   1.706   6.660 -0.3243 -0.1814 -0.3350
  117OSM    H4S12241   3.439   1.632   6.694 -1.9525  0.7311 -1.7025
  117OSM    C5S12242   3.542   1.806   6.748  0.2441  0.0983  1.0401
  117OSM    H5S12243   3.624   1.871   6.711 -1.5350  1.4387 -0.7844
  117OSM    C6S12244   3.475   1.825   6.884  0.2570  0.5389 -0.4043
  117OSM    H6S12245   3.376   1.776   6.887  0.0254  1.0195 -0.1624
  117OSM    H6T12246   3.458   1.933   6.906 -1.9241  0.1002  0.2248
  117OSM    C7S12247   3.558   1.748   6.984 -0.4195 -0.5184 -0.4773
  117OSM    H7S12248   3.663   1.782   6.978 -0.3181 -0.7025  0.1731
  117OSM    H7T12249   3.550   1.640   6.957  0.7914 -0.3590 -1.5642
  117OSM    C8S12250   3.513   1.751   7.132  0.4817 -0.0521 -0.2132
  117OSM    H8S12251   3.403   1.733   7.129  0.8204 -2.3948 -0.2180
  117OSM    H8T12252   3.533   1.850   7.180 -1.7813 -1.0685  3.2231
  117OSM    C9S12253   3.564   1.640   7.231  0.1904 -0.0448  0.4336
  117OSM    H9S12254   3.667   1.674   7.254  0.5139  0.6451 -1.7575
  117OSM    H9T12255   3.583   1.553   7.165 -0.2458  0.8018 -0.8776
  117OSM   C10S12256   3.469   1.627   7.348 -0.2961  0.1072  0.1729
  117OSM   H10S12257   3.370   1.597   7.308  0.5538 -1.4059 -0.9236
  117OSM   H10T12258   3.462   1.730   7.388  2.7467  0.5437 -0.1575
  117OSM   C11S12259   3.520   1.543   7.466 -1.0857 -0.3467 -0.0883
  117OSM   H11S12260   3.630   1.554   7.456 -1.3549  1.3594 -1.8366
  117OSM   H11T12261   3.494   1.436   7.455  1.0274 -0.7706 -1.5549
  117OSM   C12S12262   3.473   1.594   7.605 -0.3142 -0.0778 -0.5694
  117OSM   H12S12263   3.362   1.599   7.603 -0.4057 -0.6674  1.2617
  117OSM   H12T12264   3.522   1.694   7.615  1.0370 -0.9070  2.1311
  117OSM   C13S12265   3.508   1.503   7.728 -0.0489 -0.3567  0.4667
  117OSM   H13S12266   3.524   1.575   7.811  0.6881  1.4000 -1.1222
  117OSM   H13T12267   3.603   1.450   7.705  1.0719  1.7196  0.0274
  117OSM   C14S12268   3.406   1.396   7.763 -0.0151 -0.0237  0.7504
  117OSM   H14S12269   3.403   1.319   7.683 -1.5798 -0.3667  1.1018
  117OSM   H14T12270   3.304   1.439   7.775 -0.7552 -0.9866 -1.5262
  117OSM   C15S12271   3.447   1.317   7.886 -0.1584 -0.5361 -0.3433
  117OSM   H15S12272   3.547   1.340   7.929 -0.7600  2.2884 -0.2603
  117OSM   H15T12273   3.453   1.207   7.874  2.3386 -0.3790 -1.0795
  117OSM   C16S12274   3.347   1.349   7.996  0.1259 -0.5718 -0.3567
  117OSM   H16S12275   3.243   1.344   7.957 -0.4177  3.5914  0.0519
  117OSM   H16T12276   3.349   1.456   8.027  3.4293 -0.8681  0.8929
  117OSM   C17S12277   3.372   1.276   8.124 -0.1838  0.2815 -0.4023
  117OSM   H17S12278   3.472   1.294   8.169 -0.4694 -2.3714  1.5159
  117OSM   H17T12279   3.373   1.165   8.112  0.5155  0.2398 -0.0515
  117OSM   C18S12280   3.272   1.306   8.242  0.5466 -0.9964  0.4319
  117OSM   H18S12281   3.267   1.416   8.232  1.1312 -0.7784  2.1347
  117OSM   H18T12282   3.313   1.268   8.338 -1.0679 -0.5212  1.3456
  117OSM   H18U12283   3.170   1.265   8.231  0.3928 -0.8696  1.3152
  117OSM    C1F12284   3.776   1.414   6.676 -0.0672 -0.1598 -0.2893
  117OSM     OF12285   3.896   1.454   6.667  0.3758  0.4586 -0.1611
  117OSM    C2F12286   3.755   1.287   6.751  0.3561 -0.1178 -0.6944
  117OSM    H2F12287   3.764   1.207   6.674 -0.1944 -1.4030  0.5265
  117OSM    H2G12288   3.649   1.284   6.785  0.5303 -0.3969 -0.1752
  117OSM    C3F12289   3.854   1.257   6.864  0.1888  1.1290 -0.8237
  117OSM    H3F12290   3.958   1.233   6.832 -0.1751  0.5680 -1.6021
  117OSM    H3G12291   3.831   1.162   6.917  1.1632  1.2914 -0.0657
  117OSM    C4F12292   3.882   1.373   6.970  0.5871  0.1035 -0.3986
  117OSM    H4F12293   3.777   1.399   6.994  1.0356 -0.6818  3.0665
  117OSM    H4G12294   3.939   1.455   6.922  0.1544 -0.0705 -1.2334
  117OSM    C5F12295   3.948   1.347   7.104  0.0689  0.8258 -0.1737
  117OSM    H5F12296   3.889   1.265   7.152 -0.9567  3.6641  3.9720
  117OSM    H5G12297   3.930   1.433   7.172  0.1692 -0.4612  1.5587
  117OSM    C6F12298   4.103   1.313   7.108  0.3290 -0.0354  0.2472
  117OSM    H6F12299   4.160   1.344   7.017  0.0950 -1.9423 -0.6008
  117OSM    H6G12300   4.110   1.203   7.098 -0.1400  0.0895 -2.2933
  117OSM    C7F12301   4.170   1.367   7.228  0.1757  0.3984 -0.0062
  117OSM    H7F12302   4.137   1.472   7.244  3.6105  1.7179 -0.7995
  117OSM    H7G12303   4.281   1.365   7.223  0.2349 -0.3757  1.2101
  117OSM    C8F12304   4.146   1.285   7.361  1.0307  0.2720  0.1371
  117OSM    H8F12305   4.038   1.275   7.384  0.9153  0.6836 -0.2101
  117OSM    H8G12306   4.195   1.342   7.442  2.8284 -0.0472 -0.6654
  117OSM    C9F12307   4.199   1.147   7.352 -0.4941  0.5964 -0.3726
  117OSM    H9F12308   4.168   1.086   7.267  1.3250 -1.2875  0.2215
  117OSM   C10F12309   4.261   1.079   7.449 -0.5398 -0.1341  0.3347
  117OSM   H10F12310   4.297   0.981   7.412 -3.2286 -0.4251 -1.8085
  117OSM   C11F12311   4.286   1.138   7.582  0.3949  0.0710  0.0430
  117OSM   H11F12312   4.186   1.144   7.630  0.0612  0.1850 -0.6513
  117OSM   H11G12313   4.328   1.241   7.574  0.7676  0.0540  1.5315
  117OSM   C12F12314   4.359   1.048   7.677 -0.0526  0.5693  0.5030
  117OSM   H12F12315   4.435   0.995   7.615  0.9806  3.3500 -0.7755
  117OSM   H12G12316   4.283   0.972   7.706 -0.8709  1.3372  0.4056
  117OSM   C13F12317   4.420   1.128   7.791 -0.5019  0.2154  0.0804
  117OSM   H13F12318   4.335   1.192   7.823 -0.7792  0.4536 -1.1073
  117OSM   H13G12319   4.501   1.196   7.755  0.1857 -0.2974  0.6091
  117OSM   C14F12320   4.486   1.043   7.904  0.0133 -0.1437 -1.0367
  117OSM   H14F12321   4.557   0.973   7.854  1.8690  0.2754  0.8922
  117OSM   H14G12322   4.406   0.981   7.950 -0.3059  0.2092 -1.1086
  117OSM   C15F12323   4.542   1.135   8.012  0.1776  0.3712  0.5932
  117OSM   H15F12324   4.575   1.232   7.968 -0.0469  1.2011  2.1572
  117OSM   H15G12325   4.642   1.094   8.035  0.9736  0.4035 -2.3873
  117OSM   C16F12326   4.434   1.185   8.103 -0.0022  0.6620  0.1175
  117OSM   H16F12327   4.399   1.095   8.159  0.6456  0.9761  1.0617
  117OSM   H16G12328   4.348   1.224   8.044  0.1931 -0.8121 -1.2066
  117OSM   C17F12329   4.484   1.283   8.207 -0.6615 -0.2169  0.7281
  117OSM   H17F12330   4.574   1.247   8.262  0.5731  3.0985  1.1227
  117OSM   H17G12331   4.512   1.379   8.157 -2.6790  1.3268  2.3970
  117OSM   C18F12332   4.382   1.342   8.306  0.2522  0.1593  0.3655
  117OSM   H18F12333   4.300   1.388   8.247 -1.3433  0.7790  2.8811
  117OSM   H18G12334   4.426   1.419   8.372 -1.0489 -0.0322  1.5130
  117OSM   H18H12335   4.327   1.272   8.373 -0.8207 -1.6842 -2.3032
  118OSM      N12336   5.302   4.827   5.841 -0.0508 -0.0416 -0.8653
  118OSM    C1512337   5.248   4.937   5.756 -0.1366  0.2900  0.7257
  118OSM   H15A12338   5.314   4.961   5.674 -0.9483 -1.6163 -0.5787
  118OSM   H15B12339   5.235   5.024   5.818 -0.6819 -1.2149  2.8411
  118OSM   H15C12340   5.161   4.905   5.700 -0.5657 -1.4479  2.2761
  118OSM    C1412341   5.319   4.711   5.747 -0.3201 -0.3984  0.6900
  118OSM   H14A12342   5.379   4.740   5.662 -1.3247  0.5402  0.2829
  118OSM   H14B12343   5.222   4.681   5.711 -0.6245 -0.6141  1.6540
  118OSM   H14C12344   5.362   4.623   5.793 -0.1187 -1.9691 -2.2658
  118OSM    C1312345   5.440   4.867   5.888  0.1717 -0.1669  0.0746
  118OSM   H13A12346   5.483   4.776   5.928  2.6125  0.5264 -0.7792
  118OSM   H13B12347   5.441   4.952   5.955  0.3581  1.2972 -1.6920
  118OSM   H13C12348   5.501   4.898   5.804  1.5159 -1.0069  0.7047
  118OSM    C1212349   5.214   4.794   5.965  0.4593 -0.0702  0.2574
  118OSM   H12A12350   5.131   4.730   5.942  1.0548 -1.4270  1.6776
  118OSM   H12B12351   5.172   4.886   6.002 -0.5497  0.2024 -1.5101
  118OSM    C1112352   5.277   4.714   6.074 -0.6347  0.3179 -0.5265
  118OSM   H11A12353   5.217   4.724   6.167  1.3935  1.2826  0.7541
  118OSM   H11B12354   5.376   4.761   6.089  0.6353 -0.9028 -4.0031
  118OSM      P12355   5.409   4.493   6.054  0.4176 -0.1428 -0.0063
  118OSM    O1312356   5.371   4.360   5.997 -0.5292  0.1572 -0.4031
  118OSM    O1412357   5.523   4.566   5.997 -0.5914 -0.1253  0.1559
  118OSM    O1112358   5.426   4.476   6.209 -0.1395  0.2689 -0.1970
  118OSM    O1212359   5.279   4.580   6.033 -0.1834 -0.1432 -0.5881
  118OSM    C1S12360   5.321   4.440   6.295  0.4221 -0.0979  0.1333
  118OSM    H1S12361   5.282   4.338   6.274  0.9675 -0.2765 -0.0075
  118OSM    H1T12362   5.229   4.502   6.283 -0.6658 -1.4354  1.2405
  118OSM     NF12363   5.261   4.359   6.529  0.6163 -0.8315  0.5229
  118OSM    HNF12364   5.194   4.405   6.587  0.4617 -0.8905  0.3917
  118OSM    C2S12365   5.347   4.451   6.447 -0.5173  0.0548 -0.4487
  118OSM    H2S12366   5.451   4.418   6.470  0.3909  2.3348 -0.9796
  118OSM    C3S12367   5.349   4.600   6.497  0.0095 -0.0930  0.5512
  118OSM    H3S12368   5.242   4.629   6.492  0.2144  0.6476  0.4491
  118OSM     O312369   5.430   4.683   6.416 -0.2236  0.5450 -0.4663
  118OSM    HO312370   5.474   4.621   6.357 -0.7171 -2.0538  1.6778
  118OSM    C4S12371   5.399   4.601   6.637  0.7764  0.2663 -0.1929
  118OSM    H4S12372   5.500   4.560   6.654 -0.8963 -3.9112  1.0706
  118OSM    C5S12373   5.315   4.642   6.738  0.6551  0.8613 -0.5296
  118OSM    H5S12374   5.214   4.676   6.710 -0.2432 -1.6397 -0.5672
  118OSM    C6S12375   5.344   4.644   6.889  0.6626  0.4598  0.5361
  118OSM    H6S12376   5.297   4.734   6.934 -1.3247 -0.7527  1.0122
  118OSM    H6T12377   5.450   4.644   6.920  0.3471  0.1336  1.6721
  118OSM    C7S12378   5.283   4.523   6.957  0.3070  0.4495 -0.0000
  118OSM    H7S12379   5.337   4.431   6.925  0.7760  0.4379  0.7800
  118OSM    H7T12380   5.174   4.515   6.937  0.0922  2.1130  0.3320
  118OSM    C8S12381   5.315   4.518   7.109 -0.1588 -0.6875 -0.3600
  118OSM    H8S12382   5.275   4.614   7.149  0.1198 -0.6316 -0.2170
  118OSM    H8T12383   5.423   4.503   7.127 -0.6576 -1.3124  2.6263
  118OSM    C9S12384   5.238   4.401   7.189 -0.0085  0.3770  0.7552
  118OSM    H9S12385   5.281   4.302   7.161 -1.4607 -0.6942  2.1122
  118OSM    H9T12386   5.136   4.390   7.145  1.3400  1.4368 -3.0747
  118OSM   C10S12387   5.237   4.421   7.338  0.6380 -0.3554  0.5933
  118OSM   H10S12388   5.180   4.340   7.388 -1.0319 -0.4594 -1.3650
  118OSM   H10T12389   5.187   4.518   7.358 -0.8216 -1.4244  2.5241
  118OSM   C11S12390   5.371   4.402   7.398  0.3072  0.0785 -0.1943
  118OSM   H11S12391   5.442   4.460   7.335  1.9467  0.4548  1.8911
  118OSM   H11T12392   5.413   4.300   7.405  1.0402  0.3092 -1.1002
  118OSM   C12S12393   5.386   4.467   7.534  0.1716  0.2184 -0.2448
  118OSM   H12S12394   5.496   4.478   7.538  0.0547  1.0784  1.0638
  118OSM   H12T12395   5.349   4.407   7.620 -4.4199  0.6673 -1.6482
  118OSM   C13S12396   5.320   4.600   7.554  0.6137 -0.0523  0.1358
  118OSM   H13S12397   5.215   4.590   7.589  0.8559 -2.5488  0.3907
  118OSM   H13T12398   5.332   4.661   7.462  4.2739 -1.7097 -0.7056
  118OSM   C14S12399   5.408   4.683   7.649  0.0936  0.5639  0.7728
  118OSM   H14S12400   5.378   4.789   7.639 -0.5034  0.4924  1.6706
  118OSM   H14T12401   5.515   4.665   7.624 -0.2978  0.4707 -0.9711
  118OSM   C15S12402   5.395   4.642   7.796  0.4076 -0.3219  0.3774
  118OSM   H15S12403   5.440   4.543   7.819  1.4834 -0.3670 -1.6158
  118OSM   H15T12404   5.285   4.640   7.811  0.0133  1.4498 -1.7354
  118OSM   C16S12405   5.465   4.734   7.889  0.0730  0.1773 -0.7266
  118OSM   H16S12406   5.429   4.834   7.853 -2.2225 -0.7080 -1.0691
  118OSM   H16T12407   5.574   4.726   7.869  0.0024 -1.3773 -0.5475
  118OSM   C17S12408   5.419   4.706   8.031  0.3769  0.2046 -0.2726
  118OSM   H17S12409   5.446   4.603   8.063  1.8587  1.5424  3.4500
  118OSM   H17T12410   5.309   4.719   8.035  0.0139 -1.6063 -2.3565
  118OSM   C18S12411   5.485   4.798   8.130  0.0614  0.0038 -1.2572
  118OSM   H18S12412   5.441   4.789   8.232 -0.4555 -0.7378 -1.5401
  118OSM   H18T12413   5.487   4.907   8.106  0.7167  0.4769  0.7379
  118OSM   H18U12414   5.594   4.776   8.134  0.8905  3.5599 -0.4330
  118OSM    C1F12415   5.262   4.228   6.516 -1.2419 -0.3712 -0.4259
  118OSM     OF12416   5.365   4.175   6.468  0.2150 -0.2499  0.1611
  118OSM    C2F12417   5.156   4.153   6.588  0.0268  0.5841  0.7147
  118OSM    H2F12418   5.069   4.134   6.520  1.7378 -0.2206 -1.3733
  118OSM    H2G12419   5.122   4.210   6.676 -0.2314 -0.9853  1.6690
  118OSM    C3F12420   5.217   4.010   6.629  0.6363  0.2428 -0.5651
  118OSM    H3F12421   5.246   3.965   6.532  1.2613  0.5555 -0.5312
  118OSM    H3G12422   5.136   3.945   6.666  1.5545 -0.0700  1.0012
  118OSM    C4F12423   5.327   4.001   6.740  0.0689 -0.5538  0.4706
  118OSM    H4F12424   5.306   4.075   6.820  1.4685 -0.6295  0.9267
  118OSM    H4G12425   5.424   4.029   6.693 -0.5082  1.5534  0.4232
  118OSM    C5F12426   5.341   3.868   6.811 -0.6591  0.2537 -0.1489
  118OSM    H5F12427   5.438   3.859   6.864 -0.5339 -0.4427 -0.4771
  118OSM    H5G12428   5.351   3.779   6.745  3.3300 -1.3725  2.2462
  118OSM    C6F12429   5.233   3.848   6.918 -0.3488 -0.2306 -0.3339
  118OSM    H6F12430   5.254   3.752   6.969  2.7312  0.9899  0.9536
  118OSM    H6G12431   5.136   3.832   6.866 -0.9575  0.3498  0.5940
  118OSM    C7F12432   5.227   3.961   7.019 -0.2065  0.5197  0.3050
  118OSM    H7F12433   5.183   4.049   6.968 -0.9789 -0.0193  0.0145
  118OSM    H7G12434   5.336   3.972   7.038  0.4750 -2.3450 -1.2638
  118OSM    C8F12435   5.157   3.904   7.143  0.2441 -0.0074 -0.1154
  118OSM    H8F12436   5.212   3.822   7.193  0.9917  0.1324 -0.6968
  118OSM    H8G12437   5.064   3.862   7.100  0.6909  0.4734 -1.5899
  118OSM    C9F12438   5.127   4.030   7.222  0.1038  0.0829 -0.1704
  118OSM    H9F12439   5.078   4.116   7.174 -0.0801  0.6674  1.0232
  118OSM   C10F12440   5.160   4.043   7.355  0.2503 -0.4296  0.5605
  118OSM   H10F12441   5.145   4.137   7.410 -1.0189 -1.3325  1.8418
  118OSM   C11F12442   5.231   3.943   7.446  0.4796  0.6501  0.2700
  118OSM   H11F12443   5.340   3.955   7.430  0.3520 -0.0615 -1.3750
  118OSM   H11G12444   5.207   3.841   7.410 -0.5557  0.6274  0.9779
  118OSM   C12F12445   5.209   3.944   7.602  0.2683  0.1740 -0.0027
  118OSM   H12F12446   5.238   3.849   7.652 -0.6137  0.9319  2.0346
  118OSM   H12G12447   5.101   3.941   7.627  0.5069 -1.9492  1.0490
  118OSM   C13F12448   5.268   4.067   7.667 -0.2546  0.7836  0.5380
  118OSM   H13F12449   5.240   4.159   7.612 -2.6550  0.6028  1.3106
  118OSM   H13G12450   5.378   4.057   7.665  0.0549  3.2466  1.6570
  118OSM   C14F12451   5.228   4.076   7.811  0.7168 -0.2172 -0.8080
  118OSM   H14F12452   5.118   4.091   7.817  0.9314  0.9421  1.3049
  118OSM   H14G12453   5.261   4.172   7.856 -1.0402  0.9479 -1.9243
  118OSM   C15F12454   5.270   3.955   7.895 -0.7916 -0.3867  0.0629
  118OSM   H15F12455   5.378   3.954   7.871 -0.6778  1.0283  0.4447
  118OSM   H15G12456   5.216   3.866   7.856  1.6568 -1.6334 -0.6847
  118OSM   C16F12457   5.256   3.968   8.050  0.2048 -0.2125  0.3012
  118OSM   H16F12458   5.283   4.071   8.081 -1.5728  0.7170 -1.0610
  118OSM   H16G12459   5.334   3.900   8.091  0.3896 -0.7280 -0.8721
  118OSM   C17F12460   5.114   3.935   8.106 -0.0694  0.5015  0.4505
  118OSM   H17F12461   5.091   3.832   8.072  1.7869  0.6135 -1.3212
  118OSM   H17G12462   5.050   4.010   8.054 -1.8329 -1.6114 -0.5667
  118OSM   C18F12463   5.091   3.944   8.258  0.2196 -0.6953  0.3225
  118OSM   H18F12464   5.177   3.900   8.313  0.2900  0.6219  1.3188
  118OSM   H18G12465   4.993   3.905   8.291 -0.4802  0.5203 -0.2609
  118OSM   H18H12466   5.098   4.053   8.282 -0.5395 -0.0241 -2.1994
  119OSM      N12467   5.480   2.286   6.204 -0.1995 -0.3607 -0.1941
  119OSM    C1512468   5.584   2.378   6.153  0.6516 -0.7591  0.0506
  119OSM   H15A12469   5.556   2.402   6.052 -2.9088  1.2362  1.3178
  119OSM   H15B12470   5.688   2.351   6.161  0.8901 -0.4760 -1.6537
  119OSM   H15C12471   5.576   2.472   6.205 -1.8415 -0.1558 -1.2751
  119OSM    C1412472   5.485   2.161   6.134  0.5994  0.2617  1.0847
  119OSM   H14A12473   5.460   2.181   6.031  0.1724 -1.4271  0.8265
  119OSM   H14B12474   5.413   2.088   6.166  0.8891  0.0345  1.2266
  119OSM   H14C12475   5.581   2.112   6.129  1.1092  1.3579 -1.4548
  119OSM    C1312476   5.506   2.248   6.346  0.2621  0.0764 -0.5270
  119OSM   H13A12477   5.590   2.180   6.349  0.2294  0.0307  2.3785
  119OSM   H13B12478   5.416   2.215   6.396  0.1406  1.5785  0.3148
  119OSM   H13C12479   5.536   2.336   6.401 -0.5791  0.7314 -1.0862
  119OSM    C1212480   5.340   2.345   6.197 -0.3692 -0.0821 -0.5834
  119OSM   H12A12481   5.346   2.430   6.262 -3.1069  0.6544 -1.1681
  119OSM   H12B12482   5.267   2.274   6.235 -1.8632  1.5520 -0.2431
  119OSM    C1112483   5.278   2.387   6.066  0.5670 -0.1328 -0.8152
  119OSM   H11A12484   5.338   2.461   6.008  0.3153 -2.0208 -3.7299
  119OSM   H11B12485   5.179   2.436   6.079  1.5792  2.0219 -0.7505
  119OSM      P12486   5.165   2.165   5.982 -0.0328 -0.0710  0.3501
  119OSM    O1312487   5.073   2.193   5.873 -0.0285  0.1257 -0.6342
  119OSM    O1412488   5.236   2.032   5.985 -0.1052 -0.1378 -0.1784
  119OSM    O1112489   5.097   2.184   6.126 -0.4216 -0.1491  0.1081
  119OSM    O1212490   5.275   2.275   5.982 -0.5620 -0.1685 -0.0039
  119OSM    C1S12491   5.098   2.061   6.203 -0.2479 -0.0110  0.0223
  119OSM    H1S12492   5.199   2.019   6.216 -0.0083  0.2635 -0.8520
  119OSM    H1T12493   5.035   1.979   6.163  0.6692  0.2472 -2.1104
  119OSM     NF12494   5.067   1.995   6.437  0.1362  0.3304 -0.1663
  119OSM    HNF12495   5.000   1.927   6.463 -0.5825  0.4020 -1.7013
  119OSM    C2S12496   5.035   2.098   6.340  0.2487  0.1306  0.2820
  119OSM    H2S12497   5.073   2.195   6.379 -0.2238 -0.3491  2.0096
  119OSM    C3S12498   4.878   2.121   6.315 -0.3618  0.7774  1.2428
  119OSM    H3S12499   4.828   2.026   6.287  1.4111 -0.5480  2.3438
  119OSM     O312500   4.847   2.196   6.200  0.1850 -0.3550  0.2946
  119OSM    HO312501   4.928   2.201   6.149 -0.7842  2.1343 -1.1963
  119OSM    C4S12502   4.813   2.166   6.450 -0.3271  0.0855  0.4248
  119OSM    H4S12503   4.797   2.092   6.530 -1.0479 -0.2445 -0.0078
  119OSM    C5S12504   4.781   2.298   6.483 -0.1051  0.6032  0.4520
  119OSM    H5S12505   4.806   2.372   6.405 -1.8939 -0.1862 -0.9432
  119OSM    C6S12506   4.730   2.351   6.608  0.6072 -0.2558 -0.4944
  119OSM    H6S12507   4.623   2.373   6.584  0.1639  0.4693  1.9261
  119OSM    H6T12508   4.781   2.444   6.638  0.6588 -0.3694 -0.2243
  119OSM    C7S12509   4.729   2.262   6.730  0.5154  0.0687  0.5601
  119OSM    H7S12510   4.664   2.175   6.707 -1.0045  1.1310  0.7068
  119OSM    H7T12511   4.686   2.319   6.815 -0.7012 -2.0010  1.4345
  119OSM    C8S12512   4.866   2.204   6.775  0.8095 -0.6595 -0.3452
  119OSM    H8S12513   4.925   2.281   6.828  0.6232 -0.0788 -0.9710
  119OSM    H8T12514   4.923   2.187   6.681 -0.4036  1.5195 -1.5353
  119OSM    C9S12515   4.855   2.076   6.856 -0.1050  0.8565 -0.4290
  119OSM    H9S12516   4.964   2.061   6.871 -0.1947  1.8377  1.4871
  119OSM    H9T12517   4.803   2.007   6.786  0.1108  0.2685 -0.0123
  119OSM   C10S12518   4.770   2.093   6.986  0.4874  1.0070 -0.3816
  119OSM   H10S12519   4.763   1.995   7.039 -0.4963  1.0531 -0.4035
  119OSM   H10T12520   4.665   2.123   6.969  0.5420  1.5303  0.1822
  119OSM   C11S12521   4.836   2.199   7.083 -0.1405 -0.4598  0.1215
  119OSM   H11S12522   4.845   2.300   7.037  1.8401 -0.3899  0.5365
  119OSM   H11T12523   4.937   2.153   7.091 -0.0799 -0.1284  1.5136
  119OSM   C12S12524   4.770   2.189   7.222  0.1118 -0.1870  0.4561
  119OSM   H12S12525   4.756   2.083   7.249 -0.6024 -0.3302 -0.4192
  119OSM   H12T12526   4.665   2.221   7.206  0.4242 -0.1830 -1.9247
  119OSM   C13S12527   4.845   2.267   7.329  0.3545  0.4567 -0.3304
  119OSM   H13S12528   4.865   2.369   7.292 -1.2569  0.2113 -2.0543
  119OSM   H13T12529   4.936   2.206   7.350 -1.8234 -2.6230  0.9700
  119OSM   C14S12530   4.772   2.274   7.461 -0.2952  0.6128 -0.4910
  119OSM   H14S12531   4.777   2.182   7.523  0.5739  1.1782  0.3005
  119OSM   H14T12532   4.663   2.290   7.444  0.0832  1.3961 -2.4011
  119OSM   C15S12533   4.832   2.382   7.556 -0.2592  1.6021  0.7041
  119OSM   H15S12534   4.807   2.476   7.503  0.3465  2.2194  1.5011
  119OSM   H15T12535   4.943   2.379   7.562 -0.3466  0.9087  3.8925
  119OSM   C16S12536   4.756   2.386   7.694 -0.0943  0.3123 -0.3770
  119OSM   H16S12537   4.750   2.283   7.734  1.9571  0.5426  0.6878
  119OSM   H16T12538   4.654   2.416   7.662 -0.5685 -0.2560  0.5699
  119OSM   C17S12539   4.813   2.492   7.794  0.2936  0.0212 -0.7358
  119OSM   H17S12540   4.908   2.466   7.844 -0.2153  0.2953  0.4156
  119OSM   H17T12541   4.743   2.483   7.880 -1.7376 -1.2518 -2.4285
  119OSM   C18S12542   4.824   2.635   7.755  0.4851  0.6056  0.1482
  119OSM   H18S12543   4.862   2.695   7.840  0.9169 -2.2014  2.0585
  119OSM   H18T12544   4.723   2.657   7.713  0.9605 -0.5241 -1.7126
  119OSM   H18U12545   4.891   2.632   7.666 -1.7247 -0.8665 -1.5935
  119OSM    C1F12546   5.190   1.979   6.482  0.1045 -0.3085  0.4239
  119OSM     OF12547   5.284   2.038   6.436  0.0154 -0.4197 -0.4943
  119OSM    C2F12548   5.203   1.865   6.575 -0.5989  0.2436  0.0001
  119OSM    H2F12549   5.209   1.766   6.525 -2.3438 -1.0253  2.0929
  119OSM    H2G12550   5.118   1.866   6.646 -0.1281 -1.5485  0.6301
  119OSM    C3F12551   5.325   1.874   6.676 -0.4454 -1.1013  0.8887
  119OSM    H3F12552   5.412   1.873   6.607 -0.3543  0.9857  0.9261
  119OSM    H3G12553   5.334   1.785   6.741  0.3174 -3.2860 -1.9709
  119OSM    C4F12554   5.331   2.013   6.749  0.2553  0.7618  0.1218
  119OSM    H4F12555   5.258   1.997   6.831  1.0705  0.4494  0.8014
  119OSM    H4G12556   5.306   2.101   6.686 -0.0782 -0.5859 -1.7149
  119OSM    C5F12557   5.462   2.046   6.820  0.5939  0.0029 -0.2850
  119OSM    H5F12558   5.477   2.156   6.826 -0.6800  0.1279  1.5124
  119OSM    H5G12559   5.541   2.008   6.752 -0.6834 -1.0878 -1.2032
  119OSM    C6F12560   5.474   1.986   6.964 -0.4227  0.8302 -0.3794
  119OSM    H6F12561   5.471   1.877   6.942  1.7944  0.7294 -0.3853
  119OSM    H6G12562   5.384   2.006   7.027 -0.0842  3.6761 -0.6868
  119OSM    C7F12563   5.605   2.005   7.052  0.3632 -0.3867  0.4071
  119OSM    H7F12564   5.612   2.110   7.086 -0.4121 -0.1013 -0.2677
  119OSM    H7G12565   5.692   1.991   6.984  1.0486  1.2457  0.9102
  119OSM    C8F12566   5.611   1.917   7.179 -0.1484  0.3308  0.3577
  119OSM    H8F12567   5.709   1.945   7.221  1.6290  1.5399 -4.1073
  119OSM    H8G12568   5.618   1.812   7.144  0.3946  0.5047 -0.0506
  119OSM    C9F12569   5.491   1.920   7.265 -0.4246 -0.6371  0.2926
  119OSM    H9F12570   5.405   1.873   7.215 -1.1455  1.7291 -0.8447
  119OSM   C10F12571   5.481   1.973   7.391  0.8251 -0.5925 -0.7552
  119OSM   H10F12572   5.387   1.962   7.446 -0.7570  0.1252 -3.1923
  119OSM   C11F12573   5.595   2.026   7.467  0.1466 -0.3295  0.1920
  119OSM   H11F12574   5.665   2.082   7.401 -0.6281  0.9264  0.4064
  119OSM   H11G12575   5.664   1.951   7.511 -2.7974 -3.0940  0.4323
  119OSM   C12F12576   5.574   2.129   7.580 -0.0420 -0.1749  0.1280
  119OSM   H12F12577   5.495   2.200   7.547  0.7049  0.6326  0.0384
  119OSM   H12G12578   5.666   2.177   7.620  0.5381 -1.7867  0.8001
  119OSM   C13F12579   5.510   2.060   7.697  0.5293  0.2134 -0.0409
  119OSM   H13F12580   5.571   1.973   7.728 -0.4465 -1.5859 -2.7499
  119OSM   H13G12581   5.410   2.023   7.664 -1.3413  3.0198  1.9858
  119OSM   C14F12582   5.490   2.151   7.820 -0.3101 -0.4703 -0.5007
  119OSM   H14F12583   5.420   2.230   7.787 -1.0087 -1.2892 -1.0197
  119OSM   H14G12584   5.587   2.199   7.845 -0.1888 -0.3094 -1.2472
  119OSM   C15F12585   5.421   2.077   7.934  0.4484  0.4663  0.1469
  119OSM   H15F12586   5.487   2.010   7.995  1.1037  2.1469  1.3560
  119OSM   H15G12587   5.345   2.006   7.895  0.4312 -0.4099  1.6818
  119OSM   C16F12588   5.364   2.174   8.037  0.7604  0.4004  0.0760
  119OSM   H16F12589   5.298   2.253   7.994 -1.0515  1.3666  4.0887
  119OSM   H16G12590   5.447   2.229   8.086  1.6082 -1.0265  0.3004
  119OSM   C17F12591   5.285   2.101   8.138  0.5088  0.1072  0.0928
  119OSM   H17F12592   5.350   2.022   8.181 -0.0796 -0.5947 -0.2785
  119OSM   H17G12593   5.209   2.041   8.083  1.5002  0.2055 -1.4624
  119OSM   C18F12594   5.224   2.185   8.252  0.7865 -0.1788  0.0770
  119OSM   H18F12595   5.293   2.219   8.332  0.1216  1.0194  0.1573
  119OSM   H18G12596   5.147   2.127   8.307 -0.1471  0.0411 -0.9605
  119OSM   H18H12597   5.171   2.280   8.230  0.6215  0.6289  3.3924
  120OSM      N12598   3.602   5.722   6.310  0.7315 -0.0415  0.0639
  120OSM    C1512599   3.728   5.743   6.391 -0.2498  0.7417 -0.5834
  120OSM   H15A12600   3.813   5.726   6.326  0.1821 -0.3398  0.2476
  120OSM   H15B12601   3.740   5.676   6.474  0.8206  2.2937  0.5864
  120OSM   H15C12602   3.730   5.845   6.429 -3.1305  0.2336  1.2791
  120OSM    C1412603   3.613   5.798   6.176 -0.2920  0.1563 -0.2004
  120OSM   H14A12604   3.532   5.775   6.109 -0.0935 -1.1757 -0.0114
  120OSM   H14B12605   3.710   5.773   6.135  0.0142 -2.6465  1.9196
  120OSM   H14C12606   3.596   5.904   6.192  0.4152 -0.0354  2.1005
  120OSM    C1312607   3.579   5.577   6.277 -1.0150  0.8368 -0.1915
  120OSM   H13A12608   3.482   5.560   6.235 -1.0384 -1.7788  0.7714
  120OSM   H13B12609   3.583   5.520   6.368  0.2993 -1.4732 -1.6026
  120OSM   H13C12610   3.648   5.532   6.206 -0.8388 -0.0083  0.5018
  120OSM    C1212611   3.483   5.766   6.389 -0.1372 -0.3619  1.0491
  120OSM   H12A12612   3.393   5.772   6.328  0.5129  1.1435  0.1885
  120OSM   H12B12613   3.496   5.872   6.405  3.0740 -0.5875  0.5393
  120OSM    C1112614   3.456   5.704   6.525  0.2648  0.4434 -0.1777
  120OSM   H11A12615   3.380   5.760   6.584  0.1377 -1.2414  1.3621
  120OSM   H11B12616   3.548   5.712   6.587  2.2619 -0.6536 -2.8161
  120OSM      P12617   3.278   5.533   6.473 -0.1756 -0.4533 -0.3533
  120OSM    O1312618   3.221   5.639   6.391 -0.4276 -0.2284 -0.4246
  120OSM    O1412619   3.271   5.396   6.418 -0.4304 -0.2182  0.2359
  120OSM    O1112620   3.189   5.533   6.609  0.1866 -0.0889 -0.4354
  120OSM    O1212621   3.423   5.565   6.518 -0.0684  0.2576  0.1383
  120OSM    C1S12622   3.251   5.461   6.718  0.5620 -0.0464  0.2951
  120OSM    H1S12623   3.334   5.529   6.748  0.1498  0.9639 -0.7362
  120OSM    H1T12624   3.306   5.370   6.689  1.5767  0.8806 -0.8126
  120OSM     NF12625   3.238   5.393   6.955 -0.3419  0.4730 -0.2060
  120OSM    HNF12626   3.230   5.296   6.977 -0.9171  1.0568  2.4601
  120OSM    C2S12627   3.162   5.438   6.839 -0.0735  0.4139 -0.0860
  120OSM    H2S12628   3.122   5.537   6.867 -1.2413 -0.2382  0.6341
  120OSM    C3S12629   3.038   5.343   6.807  0.5135  0.2413 -0.1870
  120OSM    H3S12630   3.062   5.235   6.796 -1.1502 -0.1508 -0.1839
  120OSM     O312631   2.964   5.365   6.687 -0.2686 -0.0881 -0.3590
  120OSM    HO312632   3.021   5.425   6.639 -1.1207  2.3272  1.4435
  120OSM    C4S12633   2.940   5.339   6.924 -0.0570  0.4011  0.4742
  120OSM    H4S12634   2.981   5.268   6.997 -2.1841 -1.2126  0.1977
  120OSM    C5S12635   2.836   5.428   6.951 -0.0599  0.7154  0.3640
  120OSM    H5S12636   2.820   5.504   6.873  0.3477 -0.8180 -1.2841
  120OSM    C6S12637   2.756   5.418   7.079 -0.1639  0.2541  0.8641
  120OSM    H6S12638   2.651   5.401   7.050 -0.5821 -0.4620  2.7071
  120OSM    H6T12639   2.759   5.518   7.127 -0.4047  0.3069  0.7685
  120OSM    C7S12640   2.809   5.340   7.194  0.7603  0.3726 -0.4759
  120OSM    H7S12641   2.911   5.378   7.213  1.3121 -1.0056 -0.5532
  120OSM    H7T12642   2.816   5.231   7.173 -1.6168  0.1112 -0.2629
  120OSM    C8S12643   2.733   5.377   7.327 -0.0850 -0.6168  0.0272
  120OSM    H8S12644   2.626   5.351   7.311 -0.4241  1.5038 -1.5727
  120OSM    H8T12645   2.742   5.486   7.348 -1.3577 -0.0672 -2.0476
  120OSM    C9S12646   2.769   5.286   7.443 -0.0017  0.0005  0.0575
  120OSM    H9S12647   2.880   5.282   7.446  0.1585  0.4387 -2.4612
  120OSM    H9T12648   2.742   5.179   7.426 -0.3157  0.2347 -1.0058
  120OSM   C10S12649   2.716   5.334   7.574  0.1506  0.0354 -0.5689
  120OSM   H10S12650   2.605   5.333   7.578  0.1498  0.3937 -0.4577
  120OSM   H10T12651   2.758   5.435   7.595  1.4400 -0.3081 -1.4068
  120OSM   C11S12652   2.765   5.248   7.688 -0.1523  0.1427 -0.2726
  120OSM   H11S12653   2.876   5.235   7.689 -0.3412 -2.1317 -1.6711
  120OSM   H11T12654   2.720   5.146   7.695  0.6653 -0.1292  1.8950
  120OSM   C12S12655   2.724   5.316   7.822  0.0144  0.7821  0.8946
  120OSM   H12S12656   2.613   5.327   7.823  0.1018  1.9623 -0.3246
  120OSM   H12T12657   2.768   5.418   7.827  3.6832 -0.4081 -2.4425
  120OSM   C13S12658   2.748   5.230   7.947  0.7976 -0.1965 -0.1404
  120OSM   H13S12659   2.854   5.195   7.949  0.6927 -0.4930  0.2928
  120OSM   H13T12660   2.678   5.145   7.956 -0.3948  0.6068 -1.4649
  120OSM   C14S12661   2.733   5.328   8.067 -0.4438  0.1905  0.9049
  120OSM   H14S12662   2.634   5.378   8.059 -0.5582 -0.2108 -0.3748
  120OSM   H14T12663   2.808   5.410   8.062  0.0221 -0.2709  0.2460
  120OSM   C15S12664   2.729   5.262   8.203  0.2804  0.3888  0.1020
  120OSM   H15S12665   2.833   5.232   8.228  0.3091  0.1141 -0.3299
  120OSM   H15T12666   2.669   5.170   8.186 -2.6261  2.3211 -0.7371
  120OSM   C16S12667   2.666   5.352   8.306  0.3327 -0.2842 -0.1756
  120OSM   H16S12668   2.573   5.389   8.259  0.2809  0.2590  0.3373
  120OSM   H16T12669   2.732   5.439   8.328 -0.5702  0.1908  0.7202
  120OSM   C17S12670   2.635   5.265   8.421 -0.0282 -0.0166 -0.2850
  120OSM   H17S12671   2.734   5.240   8.466 -0.6217  0.7906  1.5827
  120OSM   H17T12672   2.583   5.171   8.391  0.4067  0.2634 -2.0414
  120OSM   C18S12673   2.548   5.325   8.532  0.3113  0.4810  0.9305
  120OSM   H18S12674   2.613   5.399   8.584  1.1259 -1.0789  2.2156
  120OSM   H18T12675   2.504   5.251   8.602  1.3767  0.1233  1.2471
  120OSM   H18U12676   2.461   5.379   8.488  1.2275  1.7049  0.5676
  120OSM    C1F12677   3.334   5.470   7.018 -0.2782  0.2703  0.2426
  120OSM     OF12678   3.322   5.589   7.024  0.1406  0.0281  0.1929
  120OSM    C2F12679   3.452   5.396   7.063  0.2299  0.2514  0.1081
  120OSM    H2F12680   3.497   5.332   6.984  0.7580  1.1590 -0.3416
  120OSM    H2G12681   3.425   5.323   7.141  0.5936 -1.9604 -1.7224
  120OSM    C3F12682   3.566   5.481   7.121 -0.4224  0.6524  0.0611
  120OSM    H3F12683   3.528   5.520   7.218  0.6966 -0.7272  1.0982
  120OSM    H3G12684   3.589   5.556   7.042 -1.1579 -0.0869 -0.8801
  120OSM    C4F12685   3.686   5.380   7.134 -0.2200  0.2842  0.3257
  120OSM    H4F12686   3.723   5.335   7.039  2.0172 -2.4568  2.3438
  120OSM    H4G12687   3.640   5.293   7.185  2.5757 -2.7043 -1.8335
  120OSM    C5F12688   3.812   5.425   7.212 -0.3820  0.3089  0.1369
  120OSM    H5F12689   3.853   5.522   7.175 -0.2122  0.0655 -0.3249
  120OSM    H5G12690   3.895   5.352   7.198 -1.1135 -1.1089  2.6792
  120OSM    C6F12691   3.777   5.442   7.363  0.3464 -0.2777  0.2270
  120OSM    H6F12692   3.704   5.524   7.383 -0.8012 -1.5931  1.6219
  120OSM    H6G12693   3.872   5.480   7.407 -0.6464  1.0593  1.3216
  120OSM    C7F12694   3.736   5.317   7.435 -0.0976  0.4440 -0.4334
  120OSM    H7F12695   3.783   5.229   7.387  0.0130 -0.6792  1.6142
  120OSM    H7G12696   3.627   5.294   7.437  0.4489 -2.4590  1.0490
  120OSM    C8F12697   3.794   5.312   7.583  0.5369 -0.0295 -0.3305
  120OSM    H8F12698   3.905   5.320   7.576  0.7122 -2.2453 -0.7956
  120OSM    H8G12699   3.762   5.209   7.609 -0.6481  0.7945  1.7511
  120OSM    C9F12700   3.731   5.408   7.680 -0.5944 -0.6848  0.2584
  120OSM    H9F12701   3.690   5.500   7.637  0.7085 -0.5488 -0.7582
  120OSM   C10F12702   3.722   5.403   7.815 -0.0089 -0.3876  0.1470
  120OSM   H10F12703   3.646   5.470   7.858  1.5568  3.0880 -2.0559
  120OSM   C11F12704   3.781   5.301   7.909  0.3247 -0.4233  0.1099
  120OSM   H11F12705   3.839   5.227   7.850  0.7459 -0.9745  1.2039
  120OSM   H11G12706   3.696   5.256   7.965 -0.8606  1.7997  0.2194
  120OSM   C12F12707   3.876   5.373   8.014  0.7428  0.1405 -0.0813
  120OSM   H12F12708   3.946   5.441   7.962  0.3459  0.7958  0.2278
  120OSM   H12G12709   3.940   5.299   8.067  2.6465  2.7789  1.4910
  120OSM   C13F12710   3.790   5.451   8.114 -0.5844  0.0121  0.1430
  120OSM   H13F12711   3.711   5.510   8.063 -1.0583 -0.0137  0.8337
  120OSM   H13G12712   3.864   5.525   8.153 -0.8634  0.0740  0.5626
  120OSM   C14F12713   3.740   5.371   8.237  0.7576  0.4763 -0.3863
  120OSM   H14F12714   3.817   5.327   8.304 -0.6633  2.4441  2.7561
  120OSM   H14G12715   3.683   5.289   8.189  1.0142  1.1648 -1.9197
  120OSM   C15F12716   3.646   5.448   8.338 -0.2824  0.8476 -0.0414
  120OSM   H15F12717   3.604   5.364   8.398  0.9135  1.2319  1.4177
  120OSM   H15G12718   3.576   5.509   8.278  0.2849 -0.6465 -2.3694
  120OSM   C16F12719   3.724   5.535   8.436  0.0065 -0.4577  0.1821
  120OSM   H16F12720   3.776   5.604   8.366  0.0360 -1.1339 -0.4664
  120OSM   H16G12721   3.811   5.484   8.482 -1.8573 -3.5700  0.5516
  120OSM   C17F12722   3.640   5.613   8.541  0.3172 -0.0406 -0.4491
  120OSM   H17F12723   3.587   5.547   8.614 -0.1930 -0.5476 -1.2706
  120OSM   H17G12724   3.548   5.663   8.506 -1.2242  0.8791  4.1400
  120OSM   C18F12725   3.731   5.705   8.637 -0.1262 -0.2397 -0.8769
  120OSM   H18F12726   3.802   5.767   8.579 -0.2762 -0.3140 -1.1465
  120OSM   H18G12727   3.792   5.642   8.705 -3.6834 -2.2154  0.7619
  120OSM   H18H12728   3.664   5.774   8.692 -1.9733 -1.3973 -1.5750
  121OSM      N12729   3.823   2.884   5.889 -0.6870 -0.6295  0.4880
  121OSM    C1512730   3.755   2.767   5.945 -0.5346 -0.6842 -0.0526
  121OSM   H15A12731   3.654   2.793   5.973 -0.5481 -1.2709  0.4724
  121OSM   H15B12732   3.803   2.737   6.037  0.5532 -0.8665 -0.6568
  121OSM   H15C12733   3.764   2.691   5.869  0.3649 -0.7490  0.1063
  121OSM    C1412734   3.960   2.846   5.839 -0.4514  0.1643 -0.3829
  121OSM   H14A12735   3.956   2.794   5.744 -1.9081  0.0932 -0.3061
  121OSM   H14B12736   4.009   2.789   5.915 -0.3830 -1.0917 -1.3400
  121OSM   H14C12737   4.023   2.932   5.821 -1.5924  1.2673  0.6990
  121OSM    C1312738   3.748   2.952   5.781  0.4188  0.4194  0.1222
  121OSM   H13A12739   3.657   2.998   5.817  0.6517 -0.3092  1.7405
  121OSM   H13B12740   3.716   2.884   5.704 -1.2191 -0.7972  1.7729
  121OSM   H13C12741   3.809   3.027   5.733  1.3942 -0.8772 -0.7451
  121OSM    C1212742   3.854   2.987   5.993  0.3668 -0.8493 -0.2694
  121OSM   H12A12743   3.890   3.082   5.956  0.7813 -1.2069 -0.7808
  121OSM   H12B12744   3.937   2.952   6.051  0.8277  0.5152 -0.0614
  121OSM    C1112745   3.747   3.030   6.101 -0.1147 -0.1601  0.3976
  121OSM   H11A12746   3.807   3.094   6.169  0.3054  1.1786 -1.1592
  121OSM   H11B12747   3.730   2.932   6.149  4.5867 -0.8627  1.0996
  121OSM      P12748   3.644   3.252   6.000 -0.0420  0.1508 -0.2774
  121OSM    O1312749   3.746   3.273   5.894  0.5047 -0.3777  0.3320
  121OSM    O1412750   3.502   3.295   5.976 -0.0832 -0.0871 -0.2421
  121OSM    O1112751   3.708   3.323   6.127  0.0577  0.0089  0.1051
  121OSM    O1212752   3.636   3.096   6.048  0.2568  0.1514 -0.4170
  121OSM    C1S12753   3.635   3.309   6.254 -0.3779 -0.0607  0.0155
  121OSM    H1S12754   3.587   3.210   6.269  0.4116 -0.3857  0.4419
  121OSM    H1T12755   3.558   3.389   6.261  1.1832  1.4108  1.5414
  121OSM     NF12756   3.636   3.329   6.502  0.4706 -0.0557  0.0790
  121OSM    HNF12757   3.608   3.416   6.542  0.6110 -0.3720  0.8857
  121OSM    C2S12758   3.722   3.337   6.382  0.6562  0.4172 -0.4907
  121OSM    H2S12759   3.794   3.253   6.395  0.1531 -0.0839 -0.9064
  121OSM    C3S12760   3.795   3.471   6.368  0.0040 -0.2572 -0.8806
  121OSM    H3S12761   3.723   3.551   6.343  0.3722 -0.0095 -1.1565
  121OSM     O312762   3.878   3.472   6.248  0.0485  0.1141 -0.4023
  121OSM    HO312763   3.853   3.391   6.205 -4.3291  0.9798  0.0045
  121OSM    C4S12764   3.869   3.495   6.494  0.4958 -0.0664  0.0211
  121OSM    H4S12765   3.803   3.508   6.582 -0.8710 -1.1150 -0.8090
  121OSM    C5S12766   3.997   3.481   6.527 -1.3041 -0.2126  0.1539
  121OSM    H5S12767   4.068   3.457   6.446 -0.8408 -3.3753  1.3377
  121OSM    C6S12768   4.068   3.493   6.661  0.1277  0.3234  0.4496
  121OSM    H6S12769   4.150   3.567   6.667  1.4352 -1.1249  1.0696
  121OSM    H6T12770   4.139   3.408   6.666  0.4700  0.5945  0.2106
  121OSM    C7S12771   3.969   3.495   6.779 -0.6236  0.4878  0.7446
  121OSM    H7S12772   3.910   3.401   6.777  0.0525  0.0594 -1.6581
  121OSM    H7T12773   3.895   3.574   6.753 -1.3389 -0.8408 -1.5568
  121OSM    C8S12774   4.025   3.519   6.921 -0.3367  0.1674  0.4316
  121OSM    H8S12775   4.052   3.626   6.905  0.3267 -0.4513 -3.5247
  121OSM    H8T12776   4.116   3.456   6.928 -1.2269 -1.0767  1.2166
  121OSM    C9S12777   3.929   3.500   7.036 -0.0760  0.0782 -0.1854
  121OSM    H9S12778   3.895   3.395   7.048 -4.1974  1.5474  3.8045
  121OSM    H9T12779   3.839   3.562   7.013 -2.0077 -1.8890  1.6703
  121OSM   C10S12780   3.990   3.570   7.161  1.1202 -0.4285 -0.4919
  121OSM   H10S12781   3.991   3.681   7.150 -0.0809 -0.4960 -1.4494
  121OSM   H10T12782   4.094   3.531   7.165  1.4209  0.1231 -2.1907
  121OSM   C11S12783   3.941   3.528   7.305  0.7749 -0.0085  0.7329
  121OSM   H11S12784   3.949   3.417   7.313  0.9470 -0.0252  0.3272
  121OSM   H11T12785   3.833   3.553   7.312  0.7125 -0.3048  0.8738
  121OSM   C12S12786   4.013   3.593   7.426  0.0518 -0.1018 -0.5000
  121OSM   H12S12787   4.014   3.704   7.421 -1.9147  0.1145  1.9627
  121OSM   H12T12788   4.118   3.559   7.441 -0.5802 -2.1345 -0.2551
  121OSM   C13S12789   3.944   3.548   7.559  0.0855 -0.3269 -0.5185
  121OSM   H13S12790   3.933   3.437   7.557  0.3399 -0.3935  0.8314
  121OSM   H13T12791   3.842   3.591   7.550  1.3219  2.5749 -1.7449
  121OSM   C14S12792   4.005   3.599   7.685  0.1685  0.6795 -0.0085
  121OSM   H14S12793   3.969   3.703   7.695 -0.6209  0.3409  0.6973
  121OSM   H14T12794   4.116   3.593   7.690  0.1301 -1.7077 -0.5566
  121OSM   C15S12795   3.956   3.531   7.817 -0.2018 -0.2437 -0.4626
  121OSM   H15S12796   3.988   3.424   7.818 -0.0137 -0.2304  2.5758
  121OSM   H15T12797   3.845   3.526   7.816 -0.3729  2.0612  0.8816
  121OSM   C16S12798   4.020   3.591   7.944  0.5087 -0.4298  0.5126
  121OSM   H16S12799   4.040   3.696   7.917  2.8841 -0.5558  1.5394
  121OSM   H16T12800   4.115   3.537   7.966 -0.3915 -2.3195  0.0544
  121OSM   C17S12801   3.935   3.571   8.074  0.9493 -0.5655 -0.5789
  121OSM   H17S12802   3.833   3.606   8.049  0.7397 -1.3854 -0.9042
  121OSM   H17T12803   3.961   3.632   8.163 -0.8029  2.0687 -1.7463
  121OSM   C18S12804   3.905   3.429   8.118  0.1802  0.1447  0.4065
  121OSM   H18S12805   3.932   3.362   8.034 -0.3045 -0.4858  0.7433
  121OSM   H18T12806   3.804   3.414   8.161  0.9583 -0.2529  2.2203
  121OSM   H18U12807   3.984   3.392   8.188 -1.3653  0.4591  2.4047
  121OSM    C1F12808   3.596   3.207   6.557  0.3696 -0.7721  0.2223
  121OSM     OF12809   3.613   3.100   6.510 -0.1221  0.0381  0.4536
  121OSM    C2F12810   3.557   3.216   6.703  0.0267 -0.5385 -0.0926
  121OSM    H2F12811   3.472   3.287   6.713  1.4971  1.2351  0.4535
  121OSM    H2G12812   3.639   3.274   6.750  1.5156 -1.0904 -1.8837
  121OSM    C3F12813   3.521   3.087   6.779 -0.6495 -0.1280  0.0112
  121OSM    H3F12814   3.601   3.011   6.766  0.4274  1.3177 -2.6162
  121OSM    H3G12815   3.424   3.047   6.740 -0.8052 -2.0697  2.1956
  121OSM    C4F12816   3.489   3.124   6.924 -0.3477 -0.0417 -0.1949
  121OSM    H4F12817   3.455   3.033   6.978 -3.1761 -0.1301 -1.9311
  121OSM    H4G12818   3.401   3.190   6.940  0.0811  0.2121  1.2393
  121OSM    C5F12819   3.609   3.187   7.001  0.0763 -0.0242 -0.1947
  121OSM    H5F12820   3.601   3.295   6.979 -1.9492 -0.4221 -1.7337
  121OSM    H5G12821   3.708   3.147   6.969 -0.4653  0.4350 -2.7016
  121OSM    C6F12822   3.592   3.169   7.154  0.6468  0.1280  0.6019
  121OSM    H6F12823   3.611   3.064   7.185  1.2400 -0.5173 -1.7887
  121OSM    H6G12824   3.484   3.187   7.174  0.3039 -2.3307  1.2185
  121OSM    C7F12825   3.684   3.269   7.221  0.3920  0.0137  0.0780
  121OSM    H7F12826   3.645   3.370   7.199 -0.2652 -0.0396  0.9438
  121OSM    H7G12827   3.787   3.265   7.181 -0.2821  0.4030 -1.7912
  121OSM    C8F12828   3.675   3.257   7.374 -0.4774 -0.0538 -0.0117
  121OSM    H8F12829   3.572   3.274   7.410 -0.0779 -0.5280  1.4269
  121OSM    H8G12830   3.728   3.350   7.405 -0.9014  1.2329 -2.7540
  121OSM    C9F12831   3.733   3.128   7.433  0.7044  0.4500  0.8241
  121OSM    H9F12832   3.813   3.093   7.366  0.4687 -0.3183  0.9352
  121OSM   C10F12833   3.713   3.064   7.546 -0.0375  0.1582 -0.8144
  121OSM   H10F12834   3.784   2.982   7.565 -0.4959 -0.0492  0.0698
  121OSM   C11F12835   3.616   3.100   7.653 -0.5660  0.3277 -0.0215
  121OSM   H11F12836   3.562   3.010   7.688 -0.6688 -0.4649 -2.0992
  121OSM   H11G12837   3.539   3.168   7.608 -0.1627 -0.0135 -1.2666
  121OSM   C12F12838   3.668   3.189   7.764 -0.5129  0.5893  0.6832
  121OSM   H12F12839   3.708   3.284   7.722  2.2572 -1.7329 -2.5284
  121OSM   H12G12840   3.748   3.133   7.816 -2.2932 -2.0620  0.7892
  121OSM   C13F12841   3.567   3.216   7.875  0.2417 -1.1396 -0.3269
  121OSM   H13F12842   3.485   3.267   7.820  1.7971  0.1181 -1.5611
  121OSM   H13G12843   3.618   3.283   7.948 -0.7074  1.2333 -1.7270
  121OSM   C14F12844   3.525   3.085   7.943  0.4960  0.1291 -0.0634
  121OSM   H14F12845   3.619   3.030   7.968  1.3135  1.8165  0.7862
  121OSM   H14G12846   3.466   3.019   7.876  1.4318  0.3282 -1.1131
  121OSM   C15F12847   3.467   3.107   8.085 -0.7909  0.0048  0.0400
  121OSM   H15F12848   3.532   3.178   8.142 -1.4643  1.4504 -0.9149
  121OSM   H15G12849   3.471   3.010   8.138  0.2580 -0.4819 -0.8920
  121OSM   C16F12850   3.327   3.174   8.095 -0.0141  0.8415 -0.3129
  121OSM   H16F12851   3.261   3.098   8.050  0.8187  0.3788 -0.7796
  121OSM   H16G12852   3.320   3.269   8.038  0.6313  1.9960  1.4117
  121OSM   C17F12853   3.276   3.203   8.238  0.9358 -0.0385  0.2877
  121OSM   H17F12854   3.351   3.267   8.290  1.1879  0.1798 -0.3236
  121OSM   H17G12855   3.284   3.109   8.296  0.1070  0.1723  0.7569
  121OSM   C18F12856   3.134   3.261   8.248  0.0021  0.2916 -0.8384
  121OSM   H18F12857   3.054   3.199   8.201  0.6362 -0.9124 -0.3763
  121OSM   H18G12858   3.123   3.349   8.182  2.4415  1.9771  0.8405
  121OSM   H18H12859   3.102   3.279   8.353 -1.4139 -0.3871 -1.1249
  122OSM      N12860   1.909   4.661   6.076  0.1208 -0.0517  0.2875
  122OSM    C1512861   1.849   4.525   6.063 -0.5038  0.2219 -0.0305
  122OSM   H15A12862   1.742   4.531   6.080 -0.5587  0.3787 -0.4163
  122OSM   H15B12863   1.877   4.458   6.142  0.3037  1.4842  0.7832
  122OSM   H15C12864   1.859   4.490   5.961  2.1973  3.9342 -1.2505
  122OSM    C1412865   1.850   4.732   6.196  0.7146 -0.1204  0.2717
  122OSM   H14A12866   1.852   4.659   6.276 -0.4085  2.3706  2.7106
  122OSM   H14B12867   1.747   4.765   6.190  0.3809 -1.3141 -1.5583
  122OSM   H14C12868   1.907   4.817   6.227  1.8876 -0.8952  0.2891
  122OSM    C1312869   2.050   4.633   6.101 -0.3329  0.8693 -0.0715
  122OSM   H13A12870   2.101   4.729   6.110  1.0210  0.0983  0.8856
  122OSM   H13B12871   2.101   4.585   6.018  0.2787  1.2467  0.0739
  122OSM   H13C12872   2.073   4.582   6.193  1.0170  0.8741 -0.3730
  122OSM    C1212873   1.887   4.742   5.948  0.3662 -0.1680  0.4345
  122OSM   H12A12874   1.780   4.745   5.937  0.2571  2.2694  1.5732
  122OSM   H12B12875   1.914   4.675   5.868 -0.2474  1.8078 -1.5011
  122OSM    C1112876   1.946   4.883   5.937 -0.0547  0.3688  0.0444
  122OSM   H11A12877   1.892   4.950   6.008 -1.5443  2.0529 -2.5272
  122OSM   H11B12878   1.917   4.923   5.838  0.5863 -1.0233 -0.7398
  122OSM      P12879   2.176   4.991   5.965 -0.1578 -0.0119  0.2715
  122OSM    O1312880   2.289   4.954   5.880 -0.1546 -0.2216 -0.0787
  122OSM    O1412881   2.110   5.121   5.931 -0.6448  0.3889 -0.5597
  122OSM    O1112882   2.227   4.994   6.114  0.2713 -0.0823 -0.5854
  122OSM    O1212883   2.083   4.865   5.958 -0.5556  0.1856  0.3153
  122OSM    C1S12884   2.328   4.898   6.149  0.3285 -0.2993 -0.6963
  122OSM    H1S12885   2.422   4.937   6.106  0.1891  0.4529 -0.3381
  122OSM    H1T12886   2.307   4.797   6.106 -1.8857 -0.4350  0.5283
  122OSM     NF12887   2.442   4.786   6.324 -0.1957  0.1832  0.0106
  122OSM    HNF12888   2.419   4.696   6.361 -0.6954  0.3729  0.1656
  122OSM    C2S12889   2.335   4.880   6.305  0.3538 -0.6355 -0.4847
  122OSM    H2S12890   2.359   4.981   6.344 -0.5597 -0.4038 -0.5027
  122OSM    C3S12891   2.198   4.835   6.364  0.1482 -0.8996 -0.2020
  122OSM    H3S12892   2.166   4.735   6.329 -0.7981 -0.8844  0.5574
  122OSM     O312893   2.091   4.925   6.339 -0.3395  0.0563  0.5770
  122OSM    HO312894   2.118   4.970   6.259 -0.7282 -0.7617 -0.0220
  122OSM    C4S12895   2.208   4.819   6.513  0.1055 -0.6504 -0.4842
  122OSM    H4S12896   2.219   4.919   6.557 -1.3595 -1.7299  2.5689
  122OSM    C5S12897   2.198   4.712   6.599 -0.1107  0.0602  0.3955
  122OSM    H5S12898   2.184   4.617   6.545  0.6553  1.1725 -1.8907
  122OSM    C6S12899   2.212   4.715   6.751  0.1262 -0.4395 -0.3419
  122OSM    H6S12900   2.284   4.636   6.782 -0.4257 -0.9450 -0.3276
  122OSM    H6T12901   2.119   4.688   6.805  1.7544 -2.3595  1.7265
  122OSM    C7S12902   2.257   4.852   6.822  0.3586  0.2658  1.0456
  122OSM    H7S12903   2.191   4.927   6.774  0.2899  0.2577  1.1274
  122OSM    H7T12904   2.360   4.878   6.790 -0.4790  1.5217 -0.7900
  122OSM    C8S12905   2.231   4.852   6.975 -0.4187 -0.5030  0.5491
  122OSM    H8S12906   2.121   4.847   6.990 -0.0518 -2.3694  3.3853
  122OSM    H8T12907   2.256   4.952   7.019  0.9159  0.8619 -2.9844
  122OSM    C9S12908   2.304   4.740   7.059  0.3440  0.3708 -0.4301
  122OSM    H9S12909   2.413   4.763   7.055  0.0856  1.5475 -3.1066
  122OSM    H9T12910   2.283   4.637   7.022  1.6488  0.0115 -0.2482
  122OSM   C10S12911   2.253   4.744   7.201  0.7954 -0.3980 -0.6209
  122OSM   H10S12912   2.147   4.710   7.195  0.6793  0.1291 -1.7095
  122OSM   H10T12913   2.254   4.848   7.241  0.0512 -0.2345 -1.0066
  122OSM   C11S12914   2.327   4.641   7.290 -0.2803 -0.4573  0.7074
  122OSM   H11S12915   2.435   4.666   7.288 -0.3671  0.0405 -2.4715
  122OSM   H11T12916   2.315   4.539   7.247  0.6276  0.0995 -0.9383
  122OSM   C12S12917   2.270   4.634   7.429  0.1470  0.1049  0.1120
  122OSM   H12S12918   2.162   4.609   7.422  0.1230  0.4931 -1.1874
  122OSM   H12T12919   2.260   4.737   7.470 -1.2310 -0.5662  1.5597
  122OSM   C13S12920   2.364   4.554   7.524  0.0545 -0.0602 -0.5616
  122OSM   H13S12921   2.461   4.609   7.534 -0.6754  1.1102  0.4228
  122OSM   H13T12922   2.376   4.450   7.490 -1.1463 -0.1441 -0.7697
  122OSM   C14S12923   2.303   4.539   7.668  0.3515  0.5864  0.1420
  122OSM   H14S12924   2.201   4.495   7.672  0.7311 -0.3122  3.7921
  122OSM   H14T12925   2.274   4.640   7.703 -2.4217 -0.3952  0.9631
  122OSM   C15S12926   2.392   4.467   7.772  0.0491  0.5058  0.6571
  122OSM   H15S12927   2.492   4.516   7.780  0.3269  0.9411 -3.5259
  122OSM   H15T12928   2.399   4.368   7.723 -2.6330  0.4760  0.2377
  122OSM   C16S12929   2.312   4.449   7.896  0.0438 -0.2760  0.5554
  122OSM   H16S12930   2.228   4.378   7.879 -0.6090  0.7436 -0.6600
  122OSM   H16T12931   2.256   4.544   7.906 -2.2091 -1.0996 -2.5366
  122OSM   C17S12932   2.379   4.431   8.031  0.2445 -0.2737 -0.0813
  122OSM   H17S12933   2.441   4.523   8.042 -1.9240  1.0741  1.9910
  122OSM   H17T12934   2.454   4.350   8.020  0.1851 -0.5939  1.5657
  122OSM   C18S12935   2.288   4.407   8.153  0.1295 -1.0046 -0.3568
  122OSM   H18S12936   2.216   4.327   8.124 -0.1711 -0.4323 -1.2264
  122OSM   H18T12937   2.217   4.487   8.185  1.6605  0.3162 -0.1818
  122OSM   H18U12938   2.343   4.376   8.244 -0.8119 -0.8440  0.2837
  122OSM    C1F12939   2.577   4.815   6.315  1.3551 -0.2412 -0.6177
  122OSM     OF12940   2.622   4.926   6.291  0.4016 -0.0496  0.0487
  122OSM    C2F12941   2.675   4.703   6.338 -0.5205 -0.0452  0.7602
  122OSM    H2F12942   2.769   4.750   6.302 -0.8979 -1.2454 -2.1033
  122OSM    H2G12943   2.659   4.617   6.269  0.5683 -0.3807  0.9050
  122OSM    C3F12944   2.670   4.647   6.481  0.5321 -0.0978 -0.0747
  122OSM    H3F12945   2.596   4.565   6.496  0.9219 -0.3445  0.5449
  122OSM    H3G12946   2.650   4.737   6.543 -0.4021 -0.1908 -0.2324
  122OSM    C4F12947   2.805   4.591   6.528 -0.1716  1.0779  0.1676
  122OSM    H4F12948   2.885   4.665   6.548 -0.3802  0.9089  1.7495
  122OSM    H4G12949   2.827   4.522   6.443  1.4530  2.7311 -0.8144
  122OSM    C5F12950   2.798   4.520   6.666  0.3388 -0.4057 -0.0751
  122OSM    H5F12951   2.702   4.464   6.676 -1.0542  1.6306 -1.2874
  122OSM    H5G12952   2.794   4.600   6.744  2.3896 -0.8468  0.5305
  122OSM    C6F12953   2.902   4.420   6.690 -0.2679 -0.2883 -0.4060
  122OSM    H6F12954   3.003   4.461   6.672 -0.4802  1.3359  1.7549
  122OSM    H6G12955   2.869   4.338   6.622 -2.4666 -0.5254  0.8515
  122OSM    C7F12956   2.903   4.373   6.834 -0.7107  0.0910  1.3181
  122OSM    H7F12957   2.977   4.290   6.830 -2.8312 -1.8746 -1.5834
  122OSM    H7G12958   2.816   4.320   6.877 -0.4825 -0.2345  1.3848
  122OSM    C8F12959   2.965   4.474   6.927 -0.6777  0.0113 -0.0724
  122OSM    H8F12960   2.878   4.534   6.961 -0.2208  0.8155 -0.3040
  122OSM    H8G12961   3.031   4.540   6.867 -0.3140 -1.2879 -1.1509
  122OSM    C9F12962   3.041   4.402   7.036  0.3350  0.9559  0.4375
  122OSM    H9F12963   3.044   4.293   7.020  1.9332  1.0644 -0.1688
  122OSM   C10F12964   3.112   4.448   7.135  0.0139 -0.0767 -0.2563
  122OSM   H10F12965   3.171   4.375   7.193 -2.2712 -0.2982  1.9915
  122OSM   C11F12966   3.130   4.592   7.162  0.3657 -1.0937  0.1606
  122OSM   H11F12967   3.089   4.651   7.077  0.2745 -1.3662  0.0154
  122OSM   H11G12968   3.237   4.620   7.176  0.3817 -0.8531 -0.4178
  122OSM   C12F12969   3.046   4.633   7.286 -0.2605 -0.4688 -0.2654
  122OSM   H12F12970   2.946   4.585   7.275  0.2173 -1.2076 -1.6633
  122OSM   H12G12971   3.045   4.744   7.284 -2.3258 -0.4457 -0.3809
  122OSM   C13F12972   3.112   4.591   7.413 -0.4228  0.4328 -0.9425
  122OSM   H13F12973   3.214   4.633   7.421  0.1501 -1.2340  1.8289
  122OSM   H13G12974   3.125   4.481   7.405 -0.0979  0.1570  2.3299
  122OSM   C14F12975   3.029   4.620   7.542 -0.2864 -0.0927  0.4503
  122OSM   H14F12976   2.930   4.579   7.514 -1.4126  2.4811  0.3920
  122OSM   H14G12977   3.010   4.729   7.549 -0.8513 -0.1199 -0.4834
  122OSM   C15F12978   3.077   4.554   7.668  0.9096  0.0336 -0.4460
  122OSM   H15F12979   3.177   4.596   7.696  1.9497 -1.2771 -1.9972
  122OSM   H15G12980   3.094   4.447   7.642  0.4849 -0.1065 -0.1675
  122OSM   C16F12981   2.984   4.586   7.790  0.7956 -0.3595  0.1986
  122OSM   H16F12982   2.877   4.564   7.775  0.0915  1.4974  1.9269
  122OSM   H16G12983   2.987   4.697   7.801  0.5860 -0.5850  4.3228
  122OSM   C17F12984   3.033   4.522   7.919  0.4131  0.5134  0.0156
  122OSM   H17F12985   3.128   4.573   7.946  1.3615 -0.7787 -0.7362
  122OSM   H17G12986   3.068   4.420   7.892  1.5834  0.9546 -0.2013
  122OSM   C18F12987   2.943   4.521   8.041 -0.0198  0.2048 -0.1242
  122OSM   H18F12988   2.985   4.468   8.129 -0.8118 -0.0264  0.1247
  122OSM   H18G12989   2.843   4.477   8.020  0.3994 -0.9595  0.2325
  122OSM   H18H12990   2.911   4.624   8.066 -1.2903  0.0068 -0.8182
  123OSM      N12991   0.855   0.462   6.428  0.7321  0.6412 -0.1759
  123OSM    C1512992   0.922   0.517   6.310 -0.4548 -1.2539  0.1723
  123OSM   H15A12993   0.950   0.618   6.337  1.8848 -1.5024 -1.0454
  123OSM   H15B12994   0.865   0.520   6.219 -0.0761 -1.8836 -0.0871
  123OSM   H15C12995   1.014   0.461   6.302 -0.0010 -0.6964  1.2289
  123OSM    C1412996   0.921   0.509   6.546 -0.1975 -0.0320 -0.2902
  123OSM   H14A12997   1.015   0.459   6.561  0.0042  0.9832  2.2000
  123OSM   H14B12998   0.866   0.491   6.637  1.3303 -1.0243  0.4577
  123OSM   H14C12999   0.940   0.615   6.549 -1.3539  0.2426 -1.5359
  123OSM    C1313000   0.710   0.513   6.435 -0.6904 -0.3038 -0.0739
  123OSM   H13A13001   0.712   0.620   6.455  3.1881  0.0761 -1.7080
  123OSM   H13B13002   0.652   0.475   6.518 -2.7747 -0.2761 -1.4522
  123OSM   H13C13003   0.648   0.484   6.352  0.9765  2.4263 -2.4540
  123OSM    C1213004   0.865   0.307   6.419 -0.0703 -0.3485 -0.3834
  123OSM   H12A13005   0.970   0.281   6.417 -0.0811 -0.3278 -2.2099
  123OSM   H12B13006   0.828   0.269   6.325 -0.0957 -0.8872 -0.1620
  123OSM    C1113007   0.786   0.221   6.528 -0.0146  0.1508  0.0521
  123OSM   H11A13008   0.813   0.262   6.628  0.3627 -0.1033  0.0582
  123OSM   H11B13009   0.829   0.119   6.518 -1.1115 -0.1821 -1.7949
  123OSM      P13010   0.572   0.094   6.461 -0.0991  0.4521 -0.2953
  123OSM    O1313011   0.425   0.106   6.456  0.6442 -0.0325 -0.0940
  123OSM    O1413012   0.645   0.061   6.331 -0.1925  0.1075  0.1770
  123OSM    O1113013   0.614  -0.021   6.564 -0.3327 -0.0042 -0.0529
  123OSM    O1213014   0.641   0.224   6.513 -0.0574 -0.2020 -0.0396
  123OSM    C1S13015   0.604  -0.004   6.705 -0.6582 -0.4598 -0.4390
  123OSM    H1S13016   0.497  -0.005   6.735 -0.3795 -0.1694  0.6141
  123OSM    H1T13017   0.633   0.098   6.739  0.3656 -0.1484 -2.1191
  123OSM     NF13018   0.681  -0.057   6.937 -0.2957 -0.3080  0.1409
  123OSM    HNF13019   0.764  -0.025   6.982 -1.4017  1.8256  0.7989
  123OSM    C2S13020   0.695  -0.099   6.797 -0.2367  0.4125 -0.3682
  123OSM    H2S13021   0.669  -0.206   6.783 -0.5677  0.2653  1.1786
  123OSM    C3S13022   0.839  -0.088   6.752  0.3333  0.1228 -0.2544
  123OSM    H3S13023   0.876   0.017   6.758 -2.3074  1.1118  0.2285
  123OSM     O313024   0.863  -0.121   6.621  0.3198 -0.8344  0.3419
  123OSM    HO313025   0.782  -0.123   6.570  0.0534 -0.6491  0.7565
  123OSM    C4S13026   0.918  -0.185   6.832 -0.6935 -0.6309  0.0587
  123OSM    H4S13027   0.873  -0.284   6.846  0.6429 -1.4148 -0.9010
  123OSM    C5S13028   1.042  -0.163   6.882  0.2622 -0.5226  0.3671
  123OSM    H5S13029   1.085  -0.064   6.861  1.2420 -1.3853 -1.9847
  123OSM    C6S13030   1.118  -0.267   6.957 -0.6883  0.4051  0.3976
  123OSM    H6S13031   1.217  -0.268   6.907 -0.6444 -0.2242  0.4909
  123OSM    H6T13032   1.065  -0.365   6.954 -0.7290  0.4359  0.1096
  123OSM    C7S13033   1.119  -0.234   7.107  0.1291 -0.1347 -0.4610
  123OSM    H7S13034   1.161  -0.132   7.118 -0.0702 -0.1516  0.5485
  123OSM    H7T13035   1.174  -0.311   7.165  0.5479 -1.1372 -2.1153
  123OSM    C8S13036   0.983  -0.222   7.165  0.4654 -0.4713  0.1346
  123OSM    H8S13037   0.927  -0.317   7.157 -1.7858  0.8222 -0.2479
  123OSM    H8T13038   0.916  -0.145   7.122  1.9475  1.4365  1.0437
  123OSM    C9S13039   0.978  -0.185   7.313 -0.0555  0.0845 -0.2790
  123OSM    H9S13040   1.018  -0.082   7.320  2.2491 -0.6273 -1.9382
  123OSM    H9T13041   1.048  -0.251   7.367 -0.1240  0.4301  0.2341
  123OSM   C10S13042   0.840  -0.183   7.378  0.4768 -0.5781 -0.1329
  123OSM   H10S13043   0.810  -0.289   7.397 -1.6439 -0.2269 -1.2227
  123OSM   H10T13044   0.766  -0.139   7.308  0.3461  2.3054  1.6428
  123OSM   C11S13045   0.838  -0.093   7.501 -0.7775 -0.4426  0.7698
  123OSM   H11S13046   0.887   0.003   7.473 -2.8752  0.9728  1.6716
  123OSM   H11T13047   0.889  -0.151   7.580  1.0949 -1.7303 -1.2919
  123OSM   C12S13048   0.703  -0.057   7.552 -0.1199 -0.0820  0.0664
  123OSM   H12S13049   0.631  -0.141   7.559  1.7394 -1.9148 -1.2765
  123OSM   H12T13050   0.650   0.010   7.480 -0.4981  0.2006  0.6062
  123OSM   C13S13051   0.724   0.002   7.685  0.6892  0.4326 -0.6255
  123OSM   H13S13052   0.795   0.087   7.690  0.7970  0.3415 -0.6216
  123OSM   H13T13053   0.768  -0.071   7.756  2.2652 -0.0652 -2.0626
  123OSM   C14S13054   0.590   0.045   7.756 -0.5220  0.0391  0.0588
  123OSM   H14S13055   0.524  -0.044   7.758 -1.3203  0.6224  0.1526
  123OSM   H14T13056   0.541   0.117   7.687 -2.1145 -1.6105 -0.5981
  123OSM   C15S13057   0.607   0.113   7.889  0.1715  0.4667  0.1080
  123OSM   H15S13058   0.517   0.171   7.919 -0.4923 -0.7417  0.5591
  123OSM   H15T13059   0.682   0.194   7.880  0.1823  0.7332  2.1643
  123OSM   C16S13060   0.648   0.013   8.005  0.1538 -0.0507  1.0487
  123OSM   H16S13061   0.746  -0.030   7.974 -0.6039  0.2802 -2.1724
  123OSM   H16T13062   0.572  -0.068   8.005 -0.3925  0.3714 -1.5360
  123OSM   C17S13063   0.655   0.078   8.147 -0.0409  0.3890 -0.5680
  123OSM   H17S13064   0.557   0.081   8.200 -1.0520  0.9711 -2.3990
  123OSM   H17T13065   0.690   0.183   8.149  1.0170  0.0920 -2.0375
  123OSM   C18S13066   0.750   0.002   8.236 -0.6769  0.5455 -0.5921
  123OSM   H18S13067   0.711  -0.102   8.246 -2.1918  1.0952 -0.6442
  123OSM   H18T13068   0.759   0.042   8.339 -0.8820 -0.1390 -0.2971
  123OSM   H18U13069   0.854   0.005   8.197 -0.0751 -0.7470  0.8036
  123OSM    C1F13070   0.576  -0.081   7.005 -0.0421  0.1423 -0.0479
  123OSM     OF13071   0.498  -0.171   6.971 -0.0520  0.2758  0.0818
  123OSM    C2F13072   0.548   0.001   7.131 -0.3050  0.5849  0.6014
  123OSM    H2F13073   0.573   0.107   7.108 -3.5789  1.5019  0.7871
  123OSM    H2G13074   0.610  -0.042   7.212 -0.7439  1.7214  1.5740
  123OSM    C3F13075   0.401   0.024   7.168 -0.0513 -0.2201 -0.9416
  123OSM    H3F13076   0.350  -0.073   7.185  0.8517 -0.9959 -2.4731
  123OSM    H3G13077   0.352   0.080   7.086  0.6486  1.3760 -0.3172
  123OSM    C4F13078   0.390   0.117   7.292 -0.1812  0.0409 -0.5240
  123OSM    H4F13079   0.457   0.205   7.288  2.2610 -1.6949 -4.2878
  123OSM    H4G13080   0.418   0.055   7.380 -0.7674 -1.5991 -1.4401
  123OSM    C5F13081   0.246   0.169   7.317  0.4913 -0.0043  0.0521
  123OSM    H5F13082   0.180   0.084   7.341  0.5236 -0.0477 -0.0117
  123OSM    H5G13083   0.219   0.219   7.221 -0.6577 -2.0703 -0.7585
  123OSM    C6F13084   0.235   0.266   7.431  0.2772 -0.0003  0.1796
  123OSM    H6F13085   0.282   0.361   7.399  1.4688  0.9151  4.0789
  123OSM    H6G13086   0.289   0.237   7.524  1.4304 -0.5169 -0.6367
  123OSM    C7F13087   0.097   0.322   7.455  0.5278  0.0312 -0.6292
  123OSM    H7F13088   0.056   0.260   7.538  0.5802 -0.8935 -1.2804
  123OSM    H7G13089   0.037   0.310   7.363  1.7386  0.8238 -1.5425
  123OSM    C8F13090   0.091   0.467   7.498  0.5046  0.5862 -0.1637
  123OSM    H8F13091  -0.017   0.495   7.505  0.8539  2.6463 -1.7426
  123OSM    H8G13092   0.126   0.523   7.408  1.1261  0.9117  0.2812
  123OSM    C9F13093   0.179   0.507   7.618  0.0199  0.8926  0.2921
  123OSM    H9F13094   0.283   0.482   7.595 -0.8275 -1.8781 -0.9692
  123OSM   C10F13095   0.137   0.539   7.736 -0.3093 -0.1062  0.2816
  123OSM   H10F13096   0.205   0.559   7.820  0.1213  0.6994 -0.2513
  123OSM   C11F13097  -0.005   0.566   7.776  0.0157  0.1685 -0.6450
  123OSM   H11F13098  -0.051   0.465   7.781  1.0872 -0.3642 -1.3013
  123OSM   H11G13099  -0.057   0.613   7.689 -0.5002  0.0175 -0.4259
  123OSM   C12F13100  -0.029   0.657   7.897 -0.0872  0.6102 -0.1210
  123OSM   H12F13101  -0.139   0.664   7.903 -0.3814 -2.0677 -0.8145
  123OSM   H12G13102   0.011   0.758   7.877 -1.8718  1.0530 -1.7529
  123OSM   C13F13103   0.014   0.588   8.031  0.1943 -0.5083  0.4420
  123OSM   H13F13104   0.125   0.589   8.032  0.1999  0.5694  1.6462
  123OSM   H13G13105  -0.029   0.485   8.037 -0.9453 -0.0043  1.3118
  123OSM   C14F13106  -0.043   0.656   8.154 -0.5672  0.0163  0.0238
  123OSM   H14F13107  -0.153   0.666   8.152 -0.5251  1.0795  1.4633
  123OSM   H14G13108  -0.001   0.758   8.150  0.0591 -0.2218  0.3183
  123OSM   C15F13109   0.008   0.594   8.285  0.3161 -0.1583  1.0512
  123OSM   H15F13110   0.114   0.563   8.269  0.0998  0.4906 -2.4851
  123OSM   H15G13111  -0.052   0.503   8.305  1.5262 -1.4068 -0.6206
  123OSM   C16F13112   0.019   0.697   8.404 -0.5242  0.1342  0.0243
  123OSM   H16F13113  -0.072   0.760   8.408  0.2027  1.2718 -0.8234
  123OSM   H16G13114   0.113   0.755   8.390  0.8003 -2.2790 -1.9502
  123OSM   C17F13115   0.034   0.616   8.539  0.6535  0.0203  0.5233
  123OSM   H17F13116  -0.067   0.578   8.565  0.0326  1.4053  0.2184
  123OSM   H17G13117   0.078   0.680   8.618  1.4872 -0.0779  0.1577
  123OSM   C18F13118   0.133   0.496   8.534 -0.3626  1.2696 -0.4763
  123OSM   H18F13119   0.094   0.414   8.469  0.5889 -0.7779  1.3802
  123OSM   H18G13120   0.135   0.453   8.637 -0.7394  2.0210 -0.1524
  123OSM   H18H13121   0.237   0.525   8.509  0.3819 -1.1690 -0.4827
  124OSM      N13122   4.825   2.548   6.049  0.2054 -0.2201  0.0645
  124OSM    C1513123   4.751   2.490   6.170 -0.3308 -0.3083 -0.7806
  124OSM   H15A13124   4.719   2.561   6.245 -2.0853  0.0444 -1.8181
  124OSM   H15B13125   4.818   2.424   6.224  0.0630  0.4800 -0.2774
  124OSM   H15C13126   4.664   2.436   6.139  1.2034 -2.8431 -0.9557
  124OSM    C1413127   4.954   2.607   6.106 -0.2501  0.7635 -0.7465
  124OSM   H14A13128   5.009   2.536   6.165 -3.2375  0.5420  2.0394
  124OSM   H14B13129   4.914   2.681   6.173 -2.3223 -1.1173  0.1978
  124OSM   H14C13130   5.017   2.639   6.024  3.1697 -4.9798 -0.8823
  124OSM    C1313131   4.861   2.438   5.952  0.5749 -0.3801 -0.1306
  124OSM   H13A13132   4.916   2.475   5.866 -0.1763  0.5378 -0.2403
  124OSM   H13B13133   4.775   2.387   5.912  0.9056  0.5800 -2.2096
  124OSM   H13C13134   4.920   2.360   5.996  1.0168 -0.3471 -0.6457
  124OSM    C1213135   4.742   2.662   5.986 -0.8409 -0.3869 -0.2166
  124OSM   H12A13136   4.652   2.623   5.942  0.2725 -2.4619 -0.8129
  124OSM   H12B13137   4.795   2.698   5.899  1.3991 -0.5959  0.9763
  124OSM    C1113138   4.709   2.789   6.075  0.5482  0.3328  0.6044
  124OSM   H11A13139   4.665   2.858   6.000 -1.4360 -0.7847  0.6665
  124OSM   H11B13140   4.800   2.835   6.121  1.8659 -0.4232 -1.1588
  124OSM      P13141   4.453   2.765   6.145  0.1386  0.4767 -0.0701
  124OSM    O1313142   4.422   2.864   6.038  0.9245  0.4821  0.1482
  124OSM    O1413143   4.405   2.629   6.127  0.7876 -0.1801 -0.3083
  124OSM    O1113144   4.405   2.831   6.282  0.0047 -0.6342 -0.3464
  124OSM    O1213145   4.610   2.751   6.170 -0.2311 -0.2307  0.6669
  124OSM    C1S13146   4.391   2.753   6.403  0.4960 -0.8183 -0.1889
  124OSM    H1S13147   4.475   2.681   6.415  0.4840 -0.8805 -0.4803
  124OSM    H1T13148   4.296   2.696   6.400 -0.6756  0.9997  0.5539
  124OSM     NF13149   4.387   2.777   6.648 -0.1210 -0.3706  0.0702
  124OSM    HNF13150   4.307   2.785   6.708  0.1135 -1.2549  0.5175
  124OSM    C2S13151   4.392   2.851   6.522  0.2964  0.5372 -0.2677
  124OSM    H2S13152   4.495   2.893   6.515  0.5212 -0.0532 -0.5523
  124OSM    C3S13153   4.281   2.960   6.508 -0.5303  0.1262 -0.7108
  124OSM    H3S13154   4.184   2.905   6.507 -0.1099 -0.6894  0.5776
  124OSM     O313155   4.286   3.038   6.386  0.5978  0.0631  0.0099
  124OSM    HO313156   4.359   3.009   6.330 -1.2403 -2.8681 -1.1133
  124OSM    C4S13157   4.278   3.064   6.620 -0.5620  0.3530 -0.2154
  124OSM    H4S13158   4.364   3.132   6.627  0.5295 -1.0115  0.2468
  124OSM    C5S13159   4.177   3.082   6.710  0.3485  0.4315  0.1670
  124OSM    H5S13160   4.090   3.015   6.703  0.3220  0.6080 -1.6869
  124OSM    C6S13161   4.168   3.180   6.822  0.3566  0.2391 -0.1873
  124OSM    H6S13162   4.071   3.230   6.801 -0.4077 -0.8726  0.5481
  124OSM    H6T13163   4.245   3.260   6.818 -0.3909  0.9263 -1.7723
  124OSM    C7S13164   4.150   3.122   6.966 -0.0024 -0.3710  0.6795
  124OSM    H7S13165   4.068   3.048   6.968 -1.6687  1.3335  3.9318
  124OSM    H7T13166   4.112   3.192   7.044 -0.3190 -0.0808  0.2725
  124OSM    C8S13167   4.279   3.068   7.022 -0.0229  0.4225  0.8101
  124OSM    H8S13168   4.355   3.148   7.026  0.2040  0.1661  2.6699
  124OSM    H8T13169   4.313   2.989   6.952 -2.6439 -1.1546  1.1554
  124OSM    C9S13170   4.262   3.019   7.166 -0.3582  0.0356  0.2714
  124OSM    H9S13171   4.345   2.951   7.196  0.2874  0.0195 -1.4271
  124OSM    H9T13172   4.168   2.961   7.175  0.4494 -1.3737 -0.1950
  124OSM   C10S13173   4.254   3.129   7.273  0.3177 -0.7238 -0.4210
  124OSM   H10S13174   4.162   3.183   7.243  0.1988 -0.6204  0.1072
  124OSM   H10T13175   4.337   3.202   7.266  0.0988 -0.5265 -1.0001
  124OSM   C11S13176   4.245   3.083   7.421  0.4187 -0.1226 -1.3180
  124OSM   H11S13177   4.196   3.160   7.483 -0.3784  0.7319 -2.9292
  124OSM   H11T13178   4.343   3.038   7.447  1.2021  1.1538 -1.9557
  124OSM   C12S13179   4.146   2.971   7.431  0.0719  0.3083  0.2471
  124OSM   H12S13180   4.192   2.874   7.400  0.5687  1.2240 -2.0527
  124OSM   H12T13181   4.064   2.996   7.360 -0.2387  1.2447  0.9183
  124OSM   C13S13182   4.066   2.966   7.567  0.2369 -0.2769  0.5245
  124OSM   H13S13183   4.004   2.874   7.562 -0.2683 -0.0028  1.5731
  124OSM   H13T13184   3.999   3.054   7.566  1.8153  0.9611  0.0879
  124OSM   C14S13185   4.149   2.969   7.693 -0.1645 -0.1404 -0.4742
  124OSM   H14S13186   4.237   3.036   7.679 -0.0741  0.5882  2.6659
  124OSM   H14T13187   4.198   2.870   7.708  1.5606  0.6727 -0.4219
  124OSM   C15S13188   4.078   3.011   7.822  0.7931  0.2852  0.2476
  124OSM   H15S13189   4.034   3.111   7.803 -0.3962 -0.4370 -0.9561
  124OSM   H15T13190   4.155   3.016   7.902  0.4610 -0.1414  0.6013
  124OSM   C16S13191   3.972   2.907   7.874 -0.0429 -0.2167 -1.1368
  124OSM   H16S13192   4.014   2.807   7.849  0.8915 -0.4444  1.0873
  124OSM   H16T13193   3.870   2.926   7.835 -0.1793  0.8839 -0.3079
  124OSM   C17S13194   3.955   2.914   8.028  0.4535  0.1784  0.4060
  124OSM   H17S13195   4.046   2.883   8.085  1.1343  1.1004 -0.1596
  124OSM   H17T13196   3.888   2.835   8.068  1.7650 -0.1755  2.0207
  124OSM   C18S13197   3.915   3.047   8.088  0.3580 -0.0713 -0.6364
  124OSM   H18S13198   4.004   3.113   8.080  0.8058 -0.1727  2.3459
  124OSM   H18T13199   3.890   3.033   8.195  1.1439 -0.5486 -0.5018
  124OSM   H18U13200   3.831   3.093   8.031 -0.0813 -0.8014 -0.5871
  124OSM    C1F13201   4.487   2.700   6.698 -0.6365  0.5490 -0.2505
  124OSM     OF13202   4.592   2.691   6.637 -0.1986 -0.0448 -0.6444
  124OSM    C2F13203   4.467   2.642   6.835 -0.5511 -0.0894 -0.3839
  124OSM    H2F13204   4.394   2.559   6.824  0.5345 -0.9462 -1.4982
  124OSM    H2G13205   4.431   2.725   6.899  1.4919  1.5980 -1.2760
  124OSM    C3F13206   4.597   2.599   6.905  0.6726  0.4648  0.3133
  124OSM    H3F13207   4.669   2.682   6.927 -1.0595  1.7137  1.5357
  124OSM    H3G13208   4.642   2.519   6.842 -1.0544  0.0980 -0.5161
  124OSM    C4F13209   4.570   2.530   7.037  0.4212  0.6162 -0.1156
  124OSM    H4F13210   4.668   2.487   7.066 -0.8755 -2.8077 -0.3039
  124OSM    H4G13211   4.495   2.448   7.030 -0.4610  1.2392  1.3894
  124OSM    C5F13212   4.544   2.632   7.155 -0.6504 -0.0031 -0.1240
  124OSM    H5F13213   4.459   2.700   7.132 -0.9713  0.5848  2.4740
  124OSM    H5G13214   4.639   2.689   7.162  0.0699 -0.9632 -1.5919
  124OSM    C6F13215   4.534   2.562   7.284 -0.4118 -0.0763 -0.1188
  124OSM    H6F13216   4.635   2.532   7.318  0.0845  2.6347  1.1162
  124OSM    H6G13217   4.479   2.467   7.265 -0.4161  0.1758 -1.4939
  124OSM    C7F13218   4.473   2.652   7.392 -0.3446 -0.6491  1.0254
  124OSM    H7F13219   4.395   2.718   7.348  2.4725  2.0519 -0.3004
  124OSM    H7G13220   4.556   2.725   7.401 -0.6167 -0.3093  0.8306
  124OSM    C8F13221   4.426   2.567   7.516 -0.6566  0.3321  0.2099
  124OSM    H8F13222   4.507   2.530   7.582 -1.3826  1.6664  1.9124
  124OSM    H8G13223   4.383   2.472   7.477  1.8132 -0.9543  0.3997
  124OSM    C9F13224   4.331   2.640   7.601  0.2509  0.4575 -0.2483
  124OSM    H9F13225   4.280   2.725   7.553 -0.9289 -0.4663 -0.6706
  124OSM   C10F13226   4.299   2.613   7.729 -0.2837  0.0121 -0.0042
  124OSM   H10F13227   4.236   2.688   7.779  0.4293 -0.2117  1.2654
  124OSM   C11F13228   4.357   2.509   7.822  0.0436 -0.0435  0.2417
  124OSM   H11F13229   4.453   2.539   7.871  0.1984  1.5869 -1.0029
  124OSM   H11G13230   4.391   2.417   7.770 -1.6774 -0.5434 -0.0465
  124OSM   C12F13231   4.263   2.445   7.925  0.0894 -0.6345  0.3031
  124OSM   H12F13232   4.314   2.365   7.983  1.4624  1.5220  2.2063
  124OSM   H12G13233   4.176   2.405   7.868  2.2169 -2.4647 -1.9011
  124OSM   C13F13234   4.205   2.546   8.036 -0.3837 -0.5655  0.2845
  124OSM   H13F13235   4.157   2.627   7.978 -0.5972  0.2542  1.5651
  124OSM   H13G13236   4.297   2.593   8.078  0.1044 -1.0598 -0.2151
  124OSM   C14F13237   4.110   2.472   8.138  0.3011 -0.5635 -0.4939
  124OSM   H14F13238   4.130   2.363   8.149  3.2354 -0.3186 -2.2489
  124OSM   H14G13239   4.014   2.466   8.082  1.4441 -0.3563 -2.5874
  124OSM   C15F13240   4.083   2.544   8.270  0.5012 -0.1834  0.1248
  124OSM   H15F13241   4.086   2.654   8.254 -1.7970  0.2666  2.3104
  124OSM   H15G13242   4.157   2.530   8.351  1.3029 -0.0758 -0.5707
  124OSM   C16F13243   3.944   2.519   8.330  0.3153  0.3717  0.1396
  124OSM   H16F13244   3.946   2.412   8.359  0.6336  0.1178 -0.8054
  124OSM   H16G13245   3.870   2.539   8.250  1.2431 -0.8585 -1.0561
  124OSM   C17F13246   3.922   2.604   8.452 -0.6819  0.0665  0.4712
  124OSM   H17F13247   4.012   2.612   8.516 -0.2188  3.2991 -0.3952
  124OSM   H17G13248   3.839   2.555   8.508 -0.8570 -0.1340  0.0350
  124OSM   C18F13249   3.876   2.743   8.407  0.9744 -0.2134 -0.6301
  124OSM   H18F13250   3.772   2.747   8.369  0.7152  0.4777  0.1294
  124OSM   H18G13251   3.945   2.778   8.327  0.0668  1.9815 -0.5294
  124OSM   H18H13252   3.891   2.809   8.495  0.8898 -1.3295  0.2377
  125OSM      N13253   5.210   1.251   5.914  0.2427 -0.6850  0.1348
  125OSM    C1513254   5.236   1.171   5.791  0.5172 -0.4852  0.8373
  125OSM   H15A13255   5.182   1.217   5.709 -0.6249 -1.1461  1.2130
  125OSM   H15B13256   5.196   1.072   5.803 -0.0486 -0.4891 -0.8481
  125OSM   H15C13257   5.339   1.161   5.758  0.3262 -1.2389  0.4393
  125OSM    C1413258   5.065   1.230   5.943  0.2516  0.2098 -0.6434
  125OSM   H14A13259   5.053   1.123   5.957  0.6948  0.1639 -0.5704
  125OSM   H14B13260   5.007   1.268   5.861  0.7258  0.1194 -1.0254
  125OSM   H14C13261   5.032   1.284   6.030 -0.7353  0.0980 -0.9410
  125OSM    C1313262   5.293   1.209   6.033 -0.2356  0.1517  1.0120
  125OSM   H13A13263   5.394   1.181   6.006 -0.2350  0.5785  0.5458
  125OSM   H13B13264   5.257   1.118   6.078  0.7100 -0.0638  1.3538
  125OSM   H13C13265   5.307   1.290   6.103  1.2063 -0.5318  1.5440
  125OSM    C1213266   5.223   1.402   5.887  0.7265  0.1957  0.4445
  125OSM   H12A13267   5.183   1.415   5.787  0.9291 -0.9385  0.1980
  125OSM   H12B13268   5.328   1.425   5.887  0.8328 -0.2007  2.2029
  125OSM    C1113269   5.163   1.501   5.986 -0.3338 -0.2053 -0.0404
  125OSM   H11A13270   5.054   1.480   5.997 -0.4925  0.5366 -0.1263
  125OSM   H11B13271   5.174   1.600   5.937 -2.3777  1.5585  2.7475
  125OSM      P13272   5.229   1.610   6.222 -0.1392 -0.2289  0.0249
  125OSM    O1313273   5.359   1.686   6.232  0.2245  0.3756  0.4180
  125OSM    O1413274   5.100   1.686   6.204  0.2805  0.1891  0.3969
  125OSM    O1113275   5.227   1.511   6.347  0.0574  0.5505  0.8513
  125OSM    O1213276   5.242   1.503   6.106 -0.6385 -0.0282 -0.2050
  125OSM    C1S13277   5.313   1.404   6.352 -0.5511  0.0525  0.3775
  125OSM    H1S13278   5.381   1.387   6.265 -1.5571 -0.4379 -0.3275
  125OSM    H1T13279   5.248   1.314   6.343 -0.2553 -0.1564  0.2950
  125OSM     NF13280   5.472   1.272   6.484  0.0268  0.2751  0.2440
  125OSM    HNF13281   5.433   1.188   6.521  1.4793  0.1425  1.5390
  125OSM    C2S13282   5.383   1.394   6.485  0.6474  1.5060 -0.6461
  125OSM    H2S13283   5.441   1.488   6.489 -2.6812  3.7968 -1.6560
  125OSM    C3S13284   5.282   1.378   6.607 -0.2418  0.1637  0.4231
  125OSM    H3S13285   5.221   1.286   6.599  1.8208 -1.1983 -0.5566
  125OSM     O313286   5.185   1.481   6.617 -0.5342 -0.2719 -0.3530
  125OSM    HO313287   5.196   1.531   6.536  0.0582 -0.0901 -0.1617
  125OSM    C4S13288   5.362   1.381   6.734  0.1847  0.5039 -0.1627
  125OSM    H4S13289   5.389   1.283   6.776  0.9541  0.6880 -0.2165
  125OSM    C5S13290   5.409   1.486   6.804 -0.5553 -0.6439 -0.3317
  125OSM    H5S13291   5.389   1.584   6.758  0.9019 -0.5150 -0.7415
  125OSM    C6S13292   5.501   1.483   6.920  0.4003  0.3499 -0.5005
  125OSM    H6S13293   5.535   1.379   6.940  1.3703  0.2854 -2.2728
  125OSM    H6T13294   5.453   1.533   7.007 -0.4068  1.7889 -1.7330
  125OSM    C7S13295   5.631   1.558   6.890  0.1706  0.5727 -0.5999
  125OSM    H7S13296   5.610   1.652   6.834 -2.0282 -0.1368 -1.0454
  125OSM    H7T13297   5.688   1.490   6.824  0.8794 -0.4831  1.0289
  125OSM    C8S13298   5.708   1.600   7.015  0.1364 -0.4168 -0.5841
  125OSM    H8S13299   5.649   1.579   7.106  0.5059  1.0528  0.0199
  125OSM    H8T13300   5.738   1.707   7.010 -0.9333 -0.1172 -0.7959
  125OSM    C9S13301   5.836   1.522   7.036 -0.6039  0.5333 -0.3538
  125OSM    H9S13302   5.908   1.537   6.953 -0.5798 -1.7109 -0.8159
  125OSM    H9T13303   5.827   1.411   7.036 -3.4959  0.6810 -1.3440
  125OSM   C10S13304   5.903   1.555   7.173  0.1798  0.0071 -0.1788
  125OSM   H10S13305   5.842   1.505   7.252 -0.0011 -2.3157 -1.7026
  125OSM   H10T13306   5.910   1.666   7.183 -2.6336  0.3020 -0.7168
  125OSM   C11S13307   6.047   1.499   7.195  0.4041  0.0151 -0.7100
  125OSM   H11S13308   6.118   1.575   7.155  0.9523 -0.2117 -0.1816
  125OSM   H11T13309   6.050   1.399   7.148  1.8636 -0.6170  0.6547
  125OSM   C12S13310   6.076   1.501   7.353 -0.3938  0.0231 -0.3513
  125OSM   H12S13311   6.137   1.411   7.375  0.2485  0.4255 -0.4642
  125OSM   H12T13312   5.989   1.483   7.419 -0.2197 -1.3302 -0.4740
  125OSM   C13S13313   6.134   1.631   7.402 -0.3045 -0.2851 -0.3602
  125OSM   H13S13314   6.066   1.715   7.380  1.0909  0.9217 -0.2282
  125OSM   H13T13315   6.225   1.647   7.340  0.0420 -2.2541 -0.4321
  125OSM   C14S13316   6.155   1.625   7.551 -0.1254  0.3476  0.3636
  125OSM   H14S13317   6.255   1.672   7.567  0.1411  0.9716 -2.5778
  125OSM   H14T13318   6.165   1.519   7.581 -0.0872  0.6718  1.5596
  125OSM   C15S13319   6.059   1.703   7.640 -0.1467 -0.2382 -0.1889
  125OSM   H15S13320   5.958   1.657   7.635  0.0000 -0.9144  1.9431
  125OSM   H15T13321   6.062   1.809   7.605  2.6202  0.5018  1.9372
  125OSM   C16S13322   6.089   1.699   7.791 -0.1075 -0.2339 -0.2703
  125OSM   H16S13323   6.196   1.717   7.814  0.2848 -1.6717 -0.8163
  125OSM   H16T13324   6.069   1.596   7.827  0.9585 -0.1375  0.6657
  125OSM   C17S13325   5.989   1.791   7.868  0.3561  0.3607  0.3109
  125OSM   H17S13326   5.889   1.744   7.854  0.0628  0.5565  1.5938
  125OSM   H17T13327   5.996   1.895   7.829  0.2278 -0.4398 -2.0214
  125OSM   C18S13328   6.014   1.791   8.018 -0.5186 -0.4044 -0.5052
  125OSM   H18S13329   6.122   1.812   8.036 -1.0024  0.4494  1.7789
  125OSM   H18T13330   6.011   1.686   8.053  0.0154 -0.8300 -1.7095
  125OSM   H18U13331   5.951   1.864   8.074 -0.6496 -0.6532 -0.3282
  125OSM    C1F13332   5.587   1.270   6.419 -0.3462 -0.2286 -0.3926
  125OSM     OF13333   5.630   1.373   6.371 -0.2380  0.1717  0.1199
  125OSM    C2F13334   5.654   1.140   6.402 -0.3951  0.1775  0.1878
  125OSM    H2F13335   5.635   1.093   6.303 -0.5130 -2.9322  1.5417
  125OSM    H2G13336   5.613   1.060   6.468  3.9588 -2.3875  0.2216
  125OSM    C3F13337   5.800   1.149   6.442 -0.8638 -0.1580 -0.2806
  125OSM    H3F13338   5.864   1.219   6.383 -0.4947  1.2310  1.6810
  125OSM    H3G13339   5.837   1.045   6.430 -2.2246 -1.0987  2.7817
  125OSM    C4F13340   5.817   1.184   6.591 -0.7351  0.4473  0.2051
  125OSM    H4F13341   5.745   1.127   6.653 -1.8581 -0.7595 -2.1005
  125OSM    H4G13342   5.803   1.291   6.618  1.2970  0.5479  1.0549
  125OSM    C5F13343   5.962   1.155   6.643  0.3334  0.0465  0.5191
  125OSM    H5F13344   6.022   1.226   6.582 -1.3976  2.8701  1.9143
  125OSM    H5G13345   5.994   1.049   6.634  2.0559  0.5948 -0.3233
  125OSM    C6F13346   5.995   1.179   6.797  0.7976 -0.0620  0.0060
  125OSM    H6F13347   5.979   1.286   6.822  1.6696  0.2798 -0.8322
  125OSM    H6G13348   6.102   1.160   6.818  0.4434 -0.7467  1.2884
  125OSM    C7F13349   5.902   1.106   6.891 -0.0494 -0.1402  0.0557
  125OSM    H7F13350   5.908   0.997   6.871 -3.2581 -0.2957 -0.5371
  125OSM    H7G13351   5.794   1.130   6.880 -0.2927 -1.0141  0.4983
  125OSM    C8F13352   5.951   1.126   7.034  0.9376  0.3600  0.1903
  125OSM    H8F13353   5.928   1.233   7.053 -3.2000 -0.3809  0.3253
  125OSM    H8G13354   6.060   1.113   7.045  1.1880  2.3216  0.4846
  125OSM    C9F13355   5.884   1.036   7.129 -0.2069  0.1524 -0.2490
  125OSM    H9F13356   5.927   0.935   7.135  0.9385  0.6606  0.4548
  125OSM   C10F13357   5.780   1.053   7.216 -0.5047  1.2178  0.6196
  125OSM   H10F13358   5.745   0.966   7.275 -2.5711  1.2283 -0.4715
  125OSM   C11F13359   5.697   1.175   7.231  0.2587 -0.3577  0.5036
  125OSM   H11F13360   5.591   1.146   7.246  0.5047 -2.2677 -1.0520
  125OSM   H11G13361   5.704   1.236   7.139  2.7175 -0.3012  0.6447
  125OSM   C12F13362   5.729   1.248   7.360 -0.0247 -0.0368 -0.4790
  125OSM   H12F13363   5.838   1.266   7.368 -0.3277  1.4579  0.5836
  125OSM   H12G13364   5.697   1.176   7.439 -0.8590  2.8440  2.0064
  125OSM   C13F13365   5.645   1.374   7.384  0.3538 -0.0314 -0.0329
  125OSM   H13F13366   5.539   1.342   7.387  0.6001 -0.8213  1.1374
  125OSM   H13G13367   5.665   1.418   7.284  1.1859 -2.5206 -1.0373
  125OSM   C14F13368   5.695   1.463   7.503  0.0184 -0.6661  0.8008
  125OSM   H14F13369   5.646   1.562   7.495  0.9262 -0.2702 -0.0498
  125OSM   H14G13370   5.806   1.468   7.501  0.0305 -0.9159  0.8723
  125OSM   C15F13371   5.642   1.393   7.632 -0.2749 -0.5715 -0.9095
  125OSM   H15F13372   5.688   1.292   7.634  1.9096  0.3388 -1.9911
  125OSM   H15G13373   5.532   1.379   7.621 -0.7216  1.6377  0.2475
  125OSM   C16F13374   5.668   1.468   7.755 -0.2726 -0.5095 -0.4194
  125OSM   H16F13375   5.768   1.514   7.746 -1.4568  2.5292  0.5558
  125OSM   H16G13376   5.665   1.406   7.847 -0.8808  0.5580  0.3077
  125OSM   C17F13377   5.550   1.561   7.780 -0.1920  0.0528 -0.7209
  125OSM   H17F13378   5.453   1.507   7.787  1.2210 -2.5927  0.0892
  125OSM   H17G13379   5.546   1.629   7.693 -0.8044  2.9428  1.4254
  125OSM   C18F13380   5.573   1.637   7.914  0.4967  0.0509  0.0475
  125OSM   H18F13381   5.518   1.733   7.915  1.9432  0.9106  0.3343
  125OSM   H18G13382   5.682   1.658   7.917  0.9495 -2.0680  0.4193
  125OSM   H18H13383   5.537   1.583   8.005  1.6525  0.8700  1.0310
  126OSM      N13384   2.542   6.326   6.707 -0.8635 -0.2276  0.6704
  126OSM    C1513385   2.659   6.396   6.633  1.1228  0.5497 -0.1922
  126OSM   H15A13386   2.672   6.496   6.672 -0.0135  0.9234 -0.7258
  126OSM   H15B13387   2.646   6.407   6.526 -1.0681  1.2082  0.0834
  126OSM   H15C13388   2.741   6.332   6.660  0.0727 -1.1747 -0.9104
  126OSM    C1413389   2.541   6.183   6.663 -0.3738  0.3942 -0.2283
  126OSM   H14A13390   2.447   6.134   6.684  0.2751 -0.7184  0.2169
  126OSM   H14B13391   2.630   6.127   6.690 -0.5476 -0.4437 -1.3214
  126OSM   H14C13392   2.545   6.192   6.556  0.3267  0.3706 -0.2081
  126OSM    C1313393   2.548   6.339   6.856 -0.2770 -0.1072  0.6255
  126OSM   H13A13394   2.649   6.323   6.892 -0.8058 -0.6789  1.8767
  126OSM   H13B13395   2.484   6.263   6.897 -1.9472  0.6319 -0.5020
  126OSM   H13C13396   2.520   6.438   6.889  1.8185  0.6306  0.3322
  126OSM    C1213397   2.411   6.396   6.660 -0.2732 -0.4462 -0.0188
  126OSM   H12A13398   2.412   6.494   6.705  2.4307 -2.1729  4.2776
  126OSM   H12B13399   2.325   6.344   6.699  0.2662 -1.7707 -0.5243
  126OSM    C1113400   2.402   6.434   6.510 -0.4997 -0.0214 -0.5719
  126OSM   H11A13401   2.483   6.501   6.474 -0.8286  1.0676  0.6523
  126OSM   H11B13402   2.324   6.511   6.495  0.8973  1.2149 -1.9449
  126OSM      P13403   2.249   6.234   6.421 -0.0288  0.5768  0.0763
  126OSM    O1313404   2.158   6.292   6.319 -0.4625  0.0356 -0.5780
  126OSM    O1413405   2.288   6.098   6.384 -0.9572  0.6962  0.3751
  126OSM    O1113406   2.188   6.243   6.566 -0.1272 -0.0597  0.5276
  126OSM    O1213407   2.383   6.320   6.426 -0.5533  0.3196 -0.5845
  126OSM    C1S13408   2.069   6.170   6.603  0.3301 -0.4626  0.3019
  126OSM    H1S13409   2.084   6.060   6.590 -0.2879 -0.4990 -0.1388
  126OSM    H1T13410   1.982   6.198   6.540  0.7026 -1.6945 -0.8363
  126OSM     NF13411   1.913   6.115   6.807 -0.4359  0.6688 -0.2642
  126OSM    HNF13412   1.830   6.164   6.831 -0.7266 -0.1143  0.3718
  126OSM    C2S13413   2.025   6.198   6.752  0.6341  0.4718 -0.1951
  126OSM    H2S13414   2.111   6.163   6.814  2.1239  2.5117 -0.9889
  126OSM    C3S13415   2.009   6.349   6.782  0.1503  0.4728 -0.2214
  126OSM    H3S13416   1.904   6.370   6.751  0.7799  0.9565 -2.1380
  126OSM     O313417   2.092   6.442   6.712 -0.3192  0.0220 -0.5147
  126OSM    HO313418   2.135   6.394   6.641  1.5737 -0.8926  1.1368
  126OSM    C4S13419   2.024   6.381   6.930 -0.5178  0.1655  0.3271
  126OSM    H4S13420   2.126   6.375   6.970 -1.3087 -3.7269  2.2634
  126OSM    C5S13421   1.921   6.412   7.017  0.1996 -0.4806 -0.4470
  126OSM    H5S13422   1.816   6.405   6.983  0.2422  1.4282 -1.0877
  126OSM    C6S13423   1.944   6.445   7.166  0.2626 -0.1139 -0.0833
  126OSM    H6S13424   1.877   6.529   7.195 -2.0114 -2.1879  1.0865
  126OSM    H6T13425   2.048   6.475   7.188 -0.4336  1.7570  0.9203
  126OSM    C7S13426   1.916   6.330   7.270 -0.5282  0.8086  0.0357
  126OSM    H7S13427   2.000   6.257   7.272 -1.1876  0.0401  1.4498
  126OSM    H7T13428   1.825   6.278   7.233  0.4771  0.4683 -2.1058
  126OSM    C8S13429   1.886   6.373   7.414  0.0127  0.1757 -0.0673
  126OSM    H8S13430   1.972   6.435   7.447  0.1783 -0.4299  0.6506
  126OSM    H8T13431   1.890   6.295   7.493  1.2862  0.8693  0.5842
  126OSM    C9S13432   1.746   6.438   7.432 -0.2377 -0.0274  0.0936
  126OSM    H9S13433   1.662   6.392   7.375 -0.0852  1.1050 -1.0998
  126OSM    H9T13434   1.760   6.543   7.397 -0.1782 -0.2541 -0.5766
  126OSM   C10S13435   1.701   6.448   7.578  0.3421 -0.3241  0.0769
  126OSM   H10S13436   1.667   6.347   7.611 -0.4633  0.1760  0.8363
  126OSM   H10T13437   1.624   6.524   7.604 -2.1484 -2.6763  0.1164
  126OSM   C11S13438   1.810   6.488   7.677  0.2038  0.0533 -0.1786
  126OSM   H11S13439   1.830   6.596   7.658 -0.5772  0.2494  0.0574
  126OSM   H11T13440   1.910   6.442   7.661  1.6415  2.0918  2.0604
  126OSM   C12S13441   1.764   6.477   7.826 -0.3521 -0.1999  0.4284
  126OSM   H12S13442   1.746   6.369   7.845  0.0051 -0.6535 -1.5771
  126OSM   H12T13443   1.663   6.523   7.829 -0.1483  0.4125 -1.0927
  126OSM   C13S13444   1.870   6.541   7.921  0.1330 -0.4440  0.8588
  126OSM   H13S13445   1.859   6.650   7.901 -0.4017 -0.8843 -1.5618
  126OSM   H13T13446   1.971   6.501   7.898 -0.6027 -0.8513 -2.1774
  126OSM   C14S13447   1.844   6.523   8.076  0.3797  0.1999  0.0719
  126OSM   H14S13448   1.851   6.419   8.114  1.3638  0.4850  0.7058
  126OSM   H14T13449   1.741   6.562   8.086  0.5644  0.7466 -0.0886
  126OSM   C15S13450   1.940   6.627   8.144  0.2870 -0.6708  0.3410
  126OSM   H15S13451   1.924   6.724   8.091 -0.6584 -1.0857 -0.1590
  126OSM   H15T13452   2.040   6.590   8.113  0.5257 -0.3156  0.6769
  126OSM   C16S13453   1.913   6.637   8.293  0.2105  0.3887 -0.5692
  126OSM   H16S13454   1.912   6.537   8.341 -0.9566  1.0942  0.9781
  126OSM   H16T13455   1.814   6.688   8.302  0.3959  0.4732  1.5697
  126OSM   C17S13456   2.014   6.711   8.371 -0.2130 -0.7008 -0.6979
  126OSM   H17S13457   2.014   6.812   8.324  2.3515  0.3834  1.4211
  126OSM   H17T13458   2.113   6.663   8.359  0.3036  0.1385  0.0797
  126OSM   C18S13459   1.980   6.747   8.515 -0.1929  0.1148  0.5028
  126OSM   H18S13460   2.050   6.812   8.573 -0.2039 -1.4660  2.3736
  126OSM   H18T13461   1.972   6.654   8.574  0.2234  0.0380  0.4444
  126OSM   H18U13462   1.877   6.788   8.517 -0.1892  0.1673 -0.2211
  126OSM    C1F13463   1.924   5.983   6.800  0.1924  0.0491 -0.3474
  126OSM     OF13464   2.037   5.932   6.780  0.1775 -0.5777  0.0554
  126OSM    C2F13465   1.803   5.892   6.807  0.0343  0.3847  0.0084
  126OSM    H2F13466   1.830   5.799   6.752  1.7826  0.2008  1.0909
  126OSM    H2G13467   1.711   5.944   6.772  1.2915 -0.1193 -4.7932
  126OSM    C3F13468   1.791   5.848   6.952 -1.2242 -0.2483 -0.1883
  126OSM    H3F13469   1.880   5.786   6.973  0.4354  1.7049 -1.0414
  126OSM    H3G13470   1.699   5.786   6.959 -1.8224  0.6223 -0.1466
  126OSM    C4F13471   1.774   5.957   7.051  0.5108  0.1452 -0.2659
  126OSM    H4F13472   1.676   6.007   7.041  0.3867  0.0071  0.2039
  126OSM    H4G13473   1.864   6.022   7.056  0.0028  0.7767  1.0457
  126OSM    C5F13474   1.760   5.900   7.191 -0.0801  0.6806  0.2010
  126OSM    H5F13475   1.830   5.814   7.191 -1.5495 -0.5743 -0.2783
  126OSM    H5G13476   1.656   5.861   7.196 -0.3662  1.2835 -0.8966
  126OSM    C6F13477   1.769   5.995   7.310 -0.2031 -0.0520  0.1783
  126OSM    H6F13478   1.681   6.064   7.304 -1.4008 -1.5363  0.0986
  126OSM    H6G13479   1.865   6.050   7.305 -1.5253  2.3749 -0.2837
  126OSM    C7F13480   1.771   5.921   7.444  0.8026 -1.0178 -0.5478
  126OSM    H7F13481   1.858   5.854   7.433  0.8884 -1.1861  0.9185
  126OSM    H7G13482   1.670   5.878   7.458  1.0340 -0.9705  1.6568
  126OSM    C8F13483   1.797   6.015   7.565 -0.6917 -0.0606 -0.5534
  126OSM    H8F13484   1.715   6.089   7.576  1.2691  1.9984  1.3262
  126OSM    H8G13485   1.892   6.067   7.541  0.2968 -2.0565 -1.1502
  126OSM    C9F13486   1.814   5.926   7.683 -0.7313  0.7760 -0.1805
  126OSM    H9F13487   1.768   5.826   7.685  3.7014 -1.5628 -1.4343
  126OSM   C10F13488   1.887   5.953   7.796  0.4927 -0.7227  0.7827
  126OSM   H10F13489   1.873   5.889   7.884  0.9508 -0.0548  1.3524
  126OSM   C11F13490   1.969   6.085   7.813 -0.0131 -0.4256 -0.1807
  126OSM   H11F13491   1.942   6.158   7.734  0.3786 -1.4007 -1.2286
  126OSM   H11G13492   2.078   6.075   7.795  0.5668  1.6775  1.6861
  126OSM   C12F13493   1.961   6.169   7.940 -0.1181 -0.1858 -0.5216
  126OSM   H12F13494   1.853   6.189   7.956  0.0070 -0.9586  1.7461
  126OSM   H12G13495   2.014   6.266   7.925 -2.0188  0.5849 -2.9322
  126OSM   C13F13496   2.015   6.098   8.057 -0.2275 -0.1246  0.3550
  126OSM   H13F13497   2.124   6.078   8.046 -0.5978 -1.7654 -0.8603
  126OSM   H13G13498   1.973   5.995   8.047 -0.1018 -0.1154 -0.3123
  126OSM   C14F13499   1.994   6.160   8.202  0.3255 -0.1446 -0.2365
  126OSM   H14F13500   1.884   6.161   8.218  0.5784  1.2603  1.8895
  126OSM   H14G13501   2.036   6.263   8.209  2.0500 -0.9141  1.6063
  126OSM   C15F13502   2.078   6.081   8.305 -0.5546  0.1107 -0.2372
  126OSM   H15F13503   2.075   6.140   8.400 -1.0687  1.6124 -1.1552
  126OSM   H15G13504   2.180   6.077   8.262 -0.8520 -0.5837 -0.8820
  126OSM   C16F13505   2.046   5.934   8.333  0.1085 -0.2602 -0.4805
  126OSM   H16F13506   2.110   5.899   8.416  1.1202  0.5271 -0.9059
  126OSM   H16G13507   2.058   5.874   8.240  0.1689  2.0450 -2.0538
  126OSM   C17F13508   1.906   5.914   8.377  0.8552  0.1155 -0.4900
  126OSM   H17F13509   1.842   5.946   8.292  0.6067 -1.3857 -0.9011
  126OSM   H17G13510   1.886   5.984   8.461  0.2980 -0.4726 -0.1224
  126OSM   C18F13511   1.863   5.779   8.429  0.4459  0.2125 -0.1242
  126OSM   H18F13512   1.885   5.766   8.537 -1.4994 -0.7260  0.1987
  126OSM   H18G13513   1.895   5.690   8.370 -1.3050 -0.5184 -0.0136
  126OSM   H18H13514   1.753   5.769   8.426  0.3694 -1.2398  3.1081
  127OSM      N13515   4.240   0.850   6.082 -0.2012 -0.0739 -0.4318
  127OSM    C1513516   4.227   1.001   6.086 -0.2378  0.1524 -0.7456
  127OSM   H15A13517   4.299   1.024   6.163 -0.3028 -1.3555 -0.2099
  127OSM   H15B13518   4.124   1.021   6.112 -0.4706 -2.3077  0.4356
  127OSM   H15C13519   4.266   1.043   5.994  0.0738 -1.8171 -1.5633
  127OSM    C1413520   4.157   0.797   5.969 -0.0430 -0.1560 -0.2222
  127OSM   H14A13521   4.179   0.820   5.866 -1.6248  0.8399 -0.3828
  127OSM   H14B13522   4.055   0.827   5.991 -0.0737  1.0043 -1.8087
  127OSM   H14C13523   4.160   0.689   5.980  0.3372 -0.2447 -1.1684
  127OSM    C1313524   4.386   0.814   6.052  0.1523  0.5764  0.4599
  127OSM   H13A13525   4.452   0.888   6.095  0.2059  0.7733  0.0445
  127OSM   H13B13526   4.405   0.818   5.946 -1.8204  1.3773  0.0889
  127OSM   H13C13527   4.413   0.713   6.078 -0.6510  0.3954  0.6183
  127OSM    C1213528   4.204   0.783   6.216 -0.1923 -0.1417  1.0291
  127OSM   H12A13529   4.099   0.803   6.232  0.0313  1.1500  1.0196
  127OSM   H12B13530   4.266   0.821   6.296 -0.8682  0.2640  1.3693
  127OSM    C1113531   4.225   0.630   6.217  0.1321 -0.5557  0.0074
  127OSM   H11A13532   4.219   0.599   6.323 -1.5579  0.6219  0.2872
  127OSM   H11B13533   4.327   0.601   6.183  0.1207 -0.8040  0.1856
  127OSM      P13534   3.982   0.530   6.189 -0.3363  0.1328 -0.4456
  127OSM    O1313535   3.884   0.624   6.129  0.5689  0.1418 -0.2310
  127OSM    O1413536   3.959   0.383   6.179  0.6445 -0.5400 -0.2133
  127OSM    O1113537   3.982   0.574   6.342  0.3645  0.5024 -0.3666
  127OSM    O1213538   4.124   0.565   6.138  0.5551  0.0754 -0.3459
  127OSM    C1S13539   4.023   0.480   6.450 -0.1827 -0.2163 -0.0436
  127OSM    H1S13540   4.118   0.430   6.422  0.5949  1.6874 -1.0112
  127OSM    H1T13541   3.948   0.399   6.447  0.1377 -0.5385  0.4735
  127OSM     NF13542   4.017   0.441   6.693 -0.8315  0.5772  0.3184
  127OSM    HNF13543   3.929   0.444   6.739 -1.6712 -1.1615 -1.0381
  127OSM    C2S13544   4.027   0.548   6.593 -0.2318 -0.3460 -0.1414
  127OSM    H2S13545   4.125   0.601   6.587 -0.6039  0.2318 -1.8510
  127OSM    C3S13546   3.917   0.654   6.615 -0.5439 -0.1927  0.2919
  127OSM    H3S13547   3.823   0.594   6.606 -0.1504 -0.8176  0.2656
  127OSM     O313548   3.917   0.759   6.511 -0.2447 -0.1863 -0.5283
  127OSM    HO313549   3.969   0.711   6.447 -0.1756 -2.3737  1.0269
  127OSM    C4S13550   3.920   0.726   6.746  0.3048  0.2880  0.1041
  127OSM    H4S13551   3.858   0.672   6.819 -1.2414  0.4469 -1.0341
  127OSM    C5S13552   3.992   0.831   6.783 -0.6494  0.6201 -0.0170
  127OSM    H5S13553   4.052   0.879   6.705  0.7586 -1.2325 -0.1317
  127OSM    C6S13554   3.992   0.886   6.927 -0.6200  0.1166  0.4318
  127OSM    H6S13555   3.894   0.935   6.945 -0.7265  0.1318 -0.1796
  127OSM    H6T13556   4.073   0.961   6.939  0.9165 -1.0474 -1.9619
  127OSM    C7S13557   4.010   0.770   7.027 -0.1314 -0.8793 -0.6743
  127OSM    H7S13558   4.106   0.717   7.009 -0.3091 -1.4261 -0.0365
  127OSM    H7T13559   3.930   0.694   7.013 -2.1164  0.9624  0.0495
  127OSM    C8S13560   4.017   0.815   7.171 -0.2850 -0.0630 -0.5108
  127OSM    H8S13561   3.923   0.865   7.203  0.6513  0.4322  1.6541
  127OSM    H8T13562   4.101   0.887   7.180 -1.0991  0.7418  1.1406
  127OSM    C9S13563   4.029   0.691   7.259  0.8297  0.4288  0.0982
  127OSM    H9S13564   4.120   0.631   7.238 -0.6683 -2.0472  0.3309
  127OSM    H9T13565   3.961   0.606   7.239  2.0976 -0.4814 -0.5099
  127OSM   C10S13566   4.016   0.721   7.408 -0.4253 -0.1733  0.3614
  127OSM   H10S13567   3.912   0.741   7.441  0.0733 -0.4129  2.1628
  127OSM   H10T13568   4.069   0.817   7.428  2.1035 -1.0931 -1.3764
  127OSM   C11S13569   4.076   0.620   7.502  0.6045 -0.7336 -0.3202
  127OSM   H11S13570   4.186   0.628   7.486  1.2597 -1.2821  3.0616
  127OSM   H11T13571   4.056   0.512   7.482  0.0512 -0.5596 -0.7065
  127OSM   C12S13572   4.058   0.669   7.651  0.0799 -0.0839  0.4157
  127OSM   H12S13573   3.949   0.665   7.676  0.0048 -1.2534 -0.0231
  127OSM   H12T13574   4.106   0.766   7.671  1.7586 -0.9607  0.7831
  127OSM   C13S13575   4.126   0.567   7.756  0.2329  0.5279 -0.1925
  127OSM   H13S13576   4.235   0.586   7.764  0.1395  0.9970  0.0190
  127OSM   H13T13577   4.112   0.461   7.726  0.8741  0.7989 -1.5434
  127OSM   C14S13578   4.061   0.575   7.897 -0.2015 -0.8237 -0.6781
  127OSM   H14S13579   3.951   0.565   7.895 -0.2452 -0.3933 -0.5722
  127OSM   H14T13580   4.082   0.673   7.944 -0.6134 -1.4219  0.8213
  127OSM   C15S13581   4.142   0.477   7.999  0.6764 -0.4082 -0.0598
  127OSM   H15S13582   4.252   0.490   7.986  0.3196  1.6615 -1.4683
  127OSM   H15T13583   4.120   0.371   7.973  1.8587 -0.1570 -2.3638
  127OSM   C16S13584   4.114   0.510   8.149 -0.5908  0.1928  0.0585
  127OSM   H16S13585   4.117   0.621   8.153  1.0671  0.1726  0.2865
  127OSM   H16T13586   4.197   0.467   8.209 -2.2127 -2.6965  0.4173
  127OSM   C17S13587   3.979   0.462   8.188  0.3323  0.5584 -0.0022
  127OSM   H17S13588   3.966   0.352   8.174  0.5587 -0.1768  4.1412
  127OSM   H17T13589   3.896   0.509   8.131 -1.1444 -2.4587 -0.5442
  127OSM   C18S13590   3.945   0.483   8.337  0.0199  0.8030  0.2310
  127OSM   H18S13591   3.834   0.482   8.343  0.0535  0.2613  0.8992
  127OSM   H18T13592   3.987   0.582   8.364  4.2616 -0.5513 -0.7446
  127OSM   H18U13593   3.980   0.405   8.407 -0.9545 -0.0821 -0.2403
  127OSM    C1F13594   4.107   0.343   6.707  0.9421  0.5536  0.2260
  127OSM     OF13595   4.213   0.344   6.642  0.1860  0.2754  0.1670
  127OSM    C2F13596   4.073   0.219   6.787  0.1113  0.0242 -0.3465
  127OSM    H2F13597   4.103   0.127   6.733 -1.2948 -0.0303 -1.0986
  127OSM    H2G13598   3.964   0.219   6.807  0.2760  0.0238  0.6114
  127OSM    C3F13599   4.124   0.225   6.936 -0.2499 -0.1053  0.2298
  127OSM    H3F13600   4.234   0.233   6.942 -0.0422 -0.6915 -1.9819
  127OSM    H3G13601   4.083   0.138   6.992  0.0713  0.6913  1.7759
  127OSM    C4F13602   4.083   0.345   7.023  0.1358 -0.1671  0.8092
  127OSM    H4F13603   3.973   0.356   7.005  0.3596 -0.6001 -1.0516
  127OSM    H4G13604   4.117   0.444   6.985  0.9436 -1.1413 -1.1279
  127OSM    C5F13605   4.111   0.324   7.169  0.3353 -0.3318  0.0730
  127OSM    H5F13606   4.036   0.249   7.203 -0.5331 -0.0899 -1.2176
  127OSM    H5G13607   4.090   0.413   7.233 -1.8985 -0.7741  0.0453
  127OSM    C6F13608   4.251   0.268   7.200 -0.0433  0.2976 -0.4622
  127OSM    H6F13609   4.331   0.331   7.156  1.8276 -2.1538 -0.8216
  127OSM    H6G13610   4.261   0.170   7.149  0.1865 -0.3016  0.6893
  127OSM    C7F13611   4.287   0.255   7.352  0.1054 -0.1055  0.0865
  127OSM    H7F13612   4.247   0.352   7.388 -1.1201 -1.3812  2.3507
  127OSM    H7G13613   4.398   0.251   7.362  0.1346 -3.3439 -0.3882
  127OSM    C8F13614   4.211   0.140   7.423 -0.0964  0.4210 -0.4695
  127OSM    H8F13615   4.280   0.054   7.435  0.7566  1.0800 -0.5260
  127OSM    H8G13616   4.119   0.122   7.363 -3.4177  2.0891  3.6320
  127OSM    C9F13617   4.161   0.191   7.561  0.6035  0.3314 -0.4655
  127OSM    H9F13618   4.072   0.254   7.547 -0.4329 -1.1440 -0.8210
  127OSM   C10F13619   4.187   0.151   7.682  0.3204 -0.1844 -0.3317
  127OSM   H10F13620   4.138   0.207   7.763 -1.3447 -0.6886 -0.9486
  127OSM   C11F13621   4.293   0.054   7.714 -0.1511 -0.0690 -0.2192
  127OSM   H11F13622   4.362   0.027   7.631 -0.7585  0.4703 -0.9090
  127OSM   H11G13623   4.252  -0.048   7.729 -0.7963 -0.3622 -3.2621
  127OSM   C12F13624   4.364   0.104   7.841  0.0866  0.6000 -0.3051
  127OSM   H12F13625   4.376   0.215   7.838 -1.3249  0.7423 -1.5180
  127OSM   H12G13626   4.466   0.060   7.833  0.1657  0.8096 -0.4962
  127OSM   C13F13627   4.293   0.056   7.969  0.3054  0.4461 -0.2970
  127OSM   H13F13628   4.293  -0.054   7.956  3.1007  0.2306  0.7738
  127OSM   H13G13629   4.197   0.110   7.982  0.7741  1.7360 -1.8885
  127OSM   C14F13630   4.376   0.086   8.098  0.8879  0.4212 -0.7217
  127OSM   H14F13631   4.314   0.066   8.188 -1.2209  0.8328 -2.0198
  127OSM   H14G13632   4.404   0.193   8.098  0.2389  0.6210  0.7691
  127OSM   C15F13633   4.506   0.001   8.126  0.0615 -0.3414 -0.0443
  127OSM   H15F13634   4.585   0.010   8.048  0.1801  0.0283  0.1146
  127OSM   H15G13635   4.470  -0.104   8.127 -1.2347 -0.0073 -2.4866
  127OSM   C16F13636   4.576   0.057   8.250 -0.2305 -0.6242 -0.4612
  127OSM   H16F13637   4.497   0.054   8.329 -1.9278  2.0658 -1.8933
  127OSM   H16G13638   4.616   0.158   8.231 -0.1983 -0.1896  1.6509
  127OSM   C17F13639   4.697  -0.030   8.304 -0.0712  0.3506  0.2356
  127OSM   H17F13640   4.749  -0.054   8.209 -0.8743  1.3908 -0.4820
  127OSM   H17G13641   4.656  -0.128   8.338 -1.0242  0.8795  0.6551
  127OSM   C18F13642   4.789   0.032   8.405 -0.1957  0.0805  0.3284
  127OSM   H18F13643   4.859  -0.042   8.451 -0.8114 -1.6408 -1.3637
  127OSM   H18G13644   4.730   0.074   8.489 -1.7741  0.2357 -0.8184
  127OSM   H18H13645   4.847   0.115   8.359  0.4406 -1.1987 -1.2812
  128OSM      N13646   0.705   4.258   6.063  0.4458  0.1654 -0.1615
  128OSM    C1513647   0.629   4.352   5.976 -0.0925  0.3930  0.0725
  128OSM   H15A13648   0.545   4.398   6.027  0.0262  0.9075 -0.1936
  128OSM   H15B13649   0.607   4.315   5.877 -1.9132  0.2690  0.4861
  128OSM   H15C13650   0.693   4.436   5.953 -0.2174 -0.3618 -3.5863
  128OSM    C1413651   0.615   4.147   6.099 -0.1660  0.5280  0.0612
  128OSM   H14A13652   0.676   4.075   6.150  0.2465  0.9163  0.1181
  128OSM   H14B13653   0.576   4.101   6.009  1.3194 -1.1784  0.2427
  128OSM   H14C13654   0.542   4.179   6.172  0.3751  2.7205 -0.2815
  128OSM    C1313655   0.807   4.184   5.983  0.2927 -0.2713  0.5618
  128OSM   H13A13656   0.879   4.256   5.945  0.4078 -1.5706 -1.8849
  128OSM   H13B13657   0.764   4.143   5.893  0.9148 -2.0522  1.0418
  128OSM   H13C13658   0.863   4.110   6.039  3.8103  0.5373 -1.5445
  128OSM    C1213659   0.761   4.316   6.192  0.2487 -0.2408  0.5853
  128OSM   H12A13660   0.678   4.363   6.243 -1.6239  0.6540 -2.9244
  128OSM   H12B13661   0.826   4.399   6.167  0.8351  0.0499  2.8657
  128OSM    C1113662   0.827   4.233   6.298 -0.4795 -0.8875  0.9526
  128OSM   H11A13663   0.752   4.160   6.335  0.6855 -2.2645  0.7027
  128OSM   H11B13664   0.853   4.301   6.382  0.8526 -0.1251 -0.0409
  128OSM      P13665   0.972   4.014   6.259  0.3720  0.0156 -0.1067
  128OSM    O1313666   0.886   3.941   6.167 -0.0976  0.5143  0.0087
  128OSM    O1413667   1.121   4.001   6.251 -0.3706 -0.0307  0.0026
  128OSM    O1113668   0.914   3.995   6.403  0.1790  0.0961 -0.4220
  128OSM    O1213669   0.939   4.162   6.240  0.1589 -0.3167 -0.7726
  128OSM    C1S13670   0.976   3.909   6.490 -1.0381  0.4799  0.3198
  128OSM    H1S13671   1.080   3.945   6.509 -0.0252 -1.6846 -0.7797
  128OSM    H1T13672   0.984   3.804   6.456  0.3925  0.0217  1.9121
  128OSM     NF13673   0.979   3.862   6.745  0.3407 -0.2490  0.0337
  128OSM    HNF13674   0.971   3.765   6.763 -3.4771 -0.1561 -0.4033
  128OSM    C2S13675   0.907   3.915   6.627 -0.2761  0.8477  0.0892
  128OSM    H2S13676   0.898   4.025   6.637 -0.3925  1.1952 -2.8129
  128OSM    C3S13677   0.762   3.863   6.613 -0.3776 -0.0061  0.6825
  128OSM    H3S13678   0.760   3.754   6.597 -0.0669  0.3036 -1.9309
  128OSM     O313679   0.691   3.917   6.502  0.2397 -0.2064 -0.0310
  128OSM    HO313680   0.762   3.951   6.447 -1.4599  1.8340 -1.0958
  128OSM    C4S13681   0.684   3.897   6.740  0.3468  0.3382 -0.8365
  128OSM    H4S13682   0.688   3.997   6.784 -1.6642 -0.6530  1.8627
  128OSM    C5S13683   0.624   3.813   6.826  0.5699  0.9532  0.5283
  128OSM    H5S13684   0.608   3.706   6.806  1.4394  0.6926  1.1968
  128OSM    C6S13685   0.558   3.856   6.952 -0.0254 -0.7240  0.5750
  128OSM    H6S13686   0.523   3.769   7.012  0.0436 -1.6045 -0.6221
  128OSM    H6T13687   0.484   3.937   6.932  1.1253  0.3423  0.4957
  128OSM    C7S13688   0.664   3.918   7.050 -0.0178  0.2159 -0.4681
  128OSM    H7S13689   0.700   4.016   7.013 -1.6668  0.7278 -0.7840
  128OSM    H7T13690   0.751   3.848   7.050 -0.7370 -0.7111 -1.6619
  128OSM    C8S13691   0.603   3.931   7.186  0.3927 -0.3479  0.1965
  128OSM    H8S13692   0.553   3.836   7.215 -2.4479  0.1387 -2.6242
  128OSM    H8T13693   0.509   3.989   7.173  0.3678 -0.3745  0.2565
  128OSM    C9S13694   0.699   3.987   7.290  0.3022 -0.3019 -0.5667
  128OSM    H9S13695   0.721   4.092   7.263 -1.0148  0.4370  1.0263
  128OSM    H9T13696   0.791   3.925   7.293  0.5465  0.0814  1.6208
  128OSM   C10S13697   0.646   3.974   7.439  0.4407 -0.2577  0.0605
  128OSM   H10S13698   0.652   3.868   7.472  2.0824 -0.5337 -1.0183
  128OSM   H10T13699   0.541   4.008   7.444  0.8123  0.7493  1.5941
  128OSM   C11S13700   0.713   4.063   7.540  0.4463 -0.0093  0.1153
  128OSM   H11S13701   0.731   4.165   7.500 -1.6605  0.8599  1.2030
  128OSM   H11T13702   0.809   4.013   7.567  1.0745  1.6470  1.1438
  128OSM   C12S13703   0.633   4.069   7.674  0.0037 -0.2880  0.0599
  128OSM   H12S13704   0.573   3.976   7.685  0.4533 -0.9120 -2.1692
  128OSM   H12T13705   0.559   4.150   7.659  0.8404  0.4725  0.0088
  128OSM   C13S13706   0.722   4.089   7.791 -0.0316 -0.0199  0.3233
  128OSM   H13S13707   0.778   4.185   7.783  0.3395 -0.1313  1.3461
  128OSM   H13T13708   0.803   4.015   7.801 -0.4340 -0.2980  1.7760
  128OSM   C14S13709   0.649   4.106   7.926 -0.0518  0.3863 -0.6083
  128OSM   H14S13710   0.619   4.003   7.954  3.0842 -0.4484  0.1365
  128OSM   H14T13711   0.562   4.171   7.906  0.1687  1.5640  1.8058
  128OSM   C15S13712   0.746   4.153   8.044  0.5315 -0.1713  0.3053
  128OSM   H15S13713   0.781   4.255   8.020 -0.3195 -0.1460 -0.9129
  128OSM   H15T13714   0.832   4.084   8.036 -0.1161 -1.0041  0.3564
  128OSM   C16S13715   0.693   4.154   8.183  0.4789 -0.4900 -0.0106
  128OSM   H16S13716   0.625   4.069   8.206 -0.1682  0.2943  1.1010
  128OSM   H16T13717   0.617   4.235   8.184 -0.6111 -1.4657 -0.6955
  128OSM   C17S13718   0.802   4.181   8.286  0.1909  1.0958 -0.0527
  128OSM   H17S13719   0.852   4.275   8.255  0.3930  1.0613  0.1630
  128OSM   H17T13720   0.875   4.099   8.301  0.1444  1.1270  0.3705
  128OSM   C18S13721   0.734   4.220   8.414  0.5552 -0.8355  0.2016
  128OSM   H18S13722   0.637   4.268   8.390 -0.1648 -1.3970  1.8024
  128OSM   H18T13723   0.794   4.304   8.454  0.5001 -0.4488 -0.5045
  128OSM   H18U13724   0.725   4.137   8.488  1.3456  1.3669  2.9210
  128OSM    C1F13725   1.091   3.917   6.782 -0.1030 -0.0798  0.1911
  128OSM     OF13726   1.130   4.019   6.733 -0.0981 -0.5000  0.0940
  128OSM    C2F13727   1.173   3.836   6.875  0.1639 -0.2353  0.1935
  128OSM    H2F13728   1.231   3.764   6.814  0.3569  2.4708 -3.1083
  128OSM    H2G13729   1.104   3.798   6.954 -1.5191 -0.5975 -1.3907
  128OSM    C3F13730   1.266   3.929   6.951 -0.2758 -0.4379  0.0519
  128OSM    H3F13731   1.225   4.024   6.992  0.3102 -1.8291  4.2875
  128OSM    H3G13732   1.349   3.944   6.878  0.0244 -1.3557  0.1889
  128OSM    C4F13733   1.332   3.869   7.081 -0.1981  0.6788  0.3443
  128OSM    H4F13734   1.411   3.938   7.116  1.7584 -2.9486  3.8931
  128OSM    H4G13735   1.379   3.771   7.061 -1.3036  0.2095 -0.0723
  128OSM    C5F13736   1.232   3.836   7.203 -0.0108  0.5047 -0.1553
  128OSM    H5F13737   1.297   3.779   7.272  0.6426 -0.9507 -1.9059
  128OSM    H5G13738   1.156   3.765   7.162  1.1940 -1.1601  0.3978
  128OSM    C6F13739   1.177   3.963   7.258  0.1768 -0.1947 -0.4939
  128OSM    H6F13740   1.111   4.017   7.187  1.2761 -1.7897 -2.8303
  128OSM    H6G13741   1.259   4.037   7.266  0.1352 -0.2101  0.2013
  128OSM    C7F13742   1.111   3.965   7.397  0.3358  0.2943 -0.1562
  128OSM    H7F13743   1.099   3.863   7.439 -0.4076  1.2392  2.0269
  128OSM    H7G13744   1.013   4.011   7.373  0.3353 -0.2417 -1.2790
  128OSM    C8F13745   1.187   4.040   7.508  0.3712 -0.3839  0.3422
  128OSM    H8F13746   1.272   3.975   7.537 -1.0817 -2.6021 -0.1035
  128OSM    H8G13747   1.123   4.035   7.598 -0.9784  0.7666 -0.5116
  128OSM    C9F13748   1.216   4.183   7.471 -0.0357  0.1462  0.0844
  128OSM    H9F13749   1.258   4.201   7.371 -1.1716 -0.1787 -0.4642
  128OSM   C10F13750   1.168   4.287   7.544 -0.1932  0.2130  0.0885
  128OSM   H10F13751   1.191   4.390   7.513 -4.0201  2.0419  2.5473
  128OSM   C11F13752   1.093   4.279   7.673  0.0202  0.6603 -0.1553
  128OSM   H11F13753   1.027   4.190   7.673  1.5029 -0.5993 -3.3707
  128OSM   H11G13754   1.019   4.362   7.682 -1.1319 -0.4942  1.7254
  128OSM   C12F13755   1.196   4.290   7.790 -0.9517 -0.3330 -0.3506
  128OSM   H12F13756   1.243   4.389   7.767  1.5420 -0.9116  1.8018
  128OSM   H12G13757   1.264   4.203   7.787  1.8040  1.6695  0.5086
  128OSM   C13F13758   1.123   4.290   7.924 -0.9414 -0.5388  0.3318
  128OSM   H13F13759   1.058   4.201   7.941  2.0554 -3.1173 -0.7293
  128OSM   H13G13760   1.057   4.378   7.935 -0.0522 -0.0687  2.3699
  128OSM   C14F13761   1.213   4.299   8.049 -0.3742 -0.0203  0.3102
  128OSM   H14F13762   1.273   4.392   8.041  0.3879 -0.6179 -1.5424
  128OSM   H14G13763   1.288   4.218   8.061 -0.1386  0.1999  0.3233
  128OSM   C15F13764   1.133   4.293   8.180  0.3736 -0.0020 -0.0135
  128OSM   H15F13765   1.099   4.189   8.204 -0.2528  0.1871 -0.0676
  128OSM   H15G13766   1.047   4.362   8.173  0.2206 -0.2265 -0.3729
  128OSM   C16F13767   1.213   4.347   8.293  0.4629  0.1514  0.0384
  128OSM   H16F13768   1.269   4.434   8.252 -0.6630  0.5956 -0.6027
  128OSM   H16G13769   1.279   4.267   8.333 -1.1369 -0.8650  0.7187
  128OSM   C17F13770   1.128   4.389   8.420  0.0605 -0.1756  0.0232
  128OSM   H17F13771   1.073   4.300   8.458 -1.2739  0.1308 -1.0928
  128OSM   H17G13772   1.060   4.460   8.368  0.7671  0.8498  0.4681
  128OSM   C18F13773   1.206   4.472   8.528  0.2789  0.5490 -0.2838
  128OSM   H18F13774   1.243   4.569   8.490  1.2209  0.1276 -0.4667
  128OSM   H18G13775   1.290   4.416   8.573 -0.6549 -0.0926  0.7051
  128OSM   H18H13776   1.133   4.510   8.603 -1.6824  0.6032 -2.1030
  129OSM      N13777   0.465   3.696   5.794  0.3814  0.4073 -0.3099
  129OSM    C1513778   0.600   3.695   5.746 -0.2103 -0.2496  0.0620
  129OSM   H15A13779   0.589   3.680   5.639 -1.5128 -3.3811  0.5017
  129OSM   H15B13780   0.659   3.610   5.778  0.5127 -0.9020 -2.7142
  129OSM   H15C13781   0.660   3.777   5.781  0.5547 -1.0986  0.8012
  129OSM    C1413782   0.380   3.587   5.749  0.1934  0.3686  0.1769
  129OSM   H14A13783   0.283   3.588   5.797  0.1064 -1.6581  0.1402
  129OSM   H14B13784   0.420   3.487   5.760 -0.9432 -0.1181 -0.0289
  129OSM   H14C13785   0.354   3.595   5.645  0.3197 -1.0210  0.0178
  129OSM    C1313786   0.491   3.684   5.944  0.0058 -0.1339 -0.2635
  129OSM   H13A13787   0.552   3.764   5.983  0.2283 -1.0844  1.4657
  129OSM   H13B13788   0.538   3.588   5.964  0.9515  0.2510 -0.5984
  129OSM   H13C13789   0.400   3.698   6.002 -0.0282 -0.3478 -0.2625
  129OSM    C1213790   0.395   3.827   5.769  0.1437 -0.3670  0.5693
  129OSM   H12A13791   0.292   3.817   5.797  0.1770  0.8618  1.1989
  129OSM   H12B13792   0.394   3.851   5.664  0.3964  0.8480  0.8292
  129OSM    C1113793   0.449   3.949   5.841 -0.0042  0.5740  0.2270
  129OSM   H11A13794   0.422   4.039   5.782  1.2588  1.0515  0.3482
  129OSM   H11B13795   0.559   3.934   5.838  0.0191  0.8238 -1.6190
  129OSM      P13796   0.251   3.985   6.009  0.0573  0.2833 -0.1923
  129OSM    O1313797   0.226   4.128   5.971 -0.7416  0.0390  0.0196
  129OSM    O1413798   0.163   3.885   5.950 -0.0057 -0.9133 -0.3828
  129OSM    O1113799   0.238   3.980   6.166 -0.0559 -0.6134  0.2626
  129OSM    O1213800   0.408   3.952   5.976  0.0844  0.2658  0.1149
  129OSM    C1S13801   0.345   4.028   6.251  0.5656  0.0457 -0.0876
  129OSM    H1S13802   0.352   4.138   6.260  2.0883 -0.1697  2.1922
  129OSM    H1T13803   0.443   3.993   6.212 -0.9959 -1.5135 -2.9596
  129OSM     NF13804   0.409   4.052   6.479 -0.6880 -0.0580  0.0518
  129OSM    HNF13805   0.503   4.021   6.496 -0.4803  0.8062  0.5157
  129OSM    C2S13806   0.320   3.973   6.394 -0.7800 -0.0959 -0.0240
  129OSM    H2S13807   0.218   4.003   6.425 -0.4507  1.9395 -0.7056
  129OSM    C3S13808   0.351   3.824   6.396 -1.0045  0.3220  0.6046
  129OSM    H3S13809   0.459   3.817   6.370 -1.2969  2.6131 -1.5892
  129OSM     O313810   0.265   3.751   6.302  0.1587 -0.4042  0.2271
  129OSM    HO313811   0.227   3.828   6.259 -2.1151 -1.0494  0.9402
  129OSM    C4S13812   0.340   3.762   6.537  0.7038 -0.0589  0.1869
  129OSM    H4S13813   0.435   3.719   6.572  0.8054 -0.7812 -0.9481
  129OSM    C5S13814   0.225   3.731   6.595  1.0120 -0.0020 -0.5949
  129OSM    H5S13815   0.126   3.736   6.549  0.4051 -1.3096  0.5004
  129OSM    C6S13816   0.239   3.655   6.724  1.2578  0.2243 -0.7570
  129OSM    H6S13817   0.345   3.643   6.754  0.8071  2.5591  2.3123
  129OSM    H6T13818   0.181   3.562   6.711 -0.5730  1.1541  0.3283
  129OSM    C7S13819   0.174   3.728   6.846  0.0029 -0.5678 -0.2207
  129OSM    H7S13820   0.066   3.741   6.825  0.0295 -0.0637 -0.0632
  129OSM    H7T13821   0.217   3.831   6.849 -2.8272  0.7466 -1.4075
  129OSM    C8S13822   0.199   3.661   6.980 -0.3551  0.5801 -0.3495
  129OSM    H8S13823   0.301   3.691   7.012  0.0871 -0.0471 -1.1367
  129OSM    H8T13824   0.188   3.551   6.967  1.2053  0.1773  1.2536
  129OSM    C9S13825   0.102   3.698   7.100  0.1510  0.8059 -0.0048
  129OSM    H9S13826   0.007   3.644   7.079  0.8822  0.1595 -1.8717
  129OSM    H9T13827   0.094   3.809   7.106 -1.9298  0.6235  2.3427
  129OSM   C10S13828   0.158   3.638   7.232 -0.2533 -0.6862  0.5960
  129OSM   H10S13829   0.263   3.673   7.240  0.2897 -2.4603  1.7204
  129OSM   H10T13830   0.153   3.527   7.240 -1.4104 -0.9235 -2.1708
  129OSM   C11S13831   0.070   3.702   7.347  1.0098  0.1690  0.0712
  129OSM   H11S13832  -0.026   3.648   7.336  1.3857 -0.4329 -0.2861
  129OSM   H11T13833   0.064   3.812   7.332  2.3559  0.2519 -0.0524
  129OSM   C12S13834   0.147   3.687   7.476 -0.8540  0.5018  0.1504
  129OSM   H12S13835   0.247   3.734   7.462 -0.3061 -1.2538 -2.7895
  129OSM   H12T13836   0.175   3.585   7.512  0.8498  1.5033  1.8619
  129OSM   C13S13837   0.069   3.741   7.593 -0.3573  0.2790 -0.2869
  129OSM   H13S13838  -0.034   3.700   7.601  0.8085 -2.7775  0.8842
  129OSM   H13T13839   0.076   3.851   7.583  1.9479  0.2573  0.4230
  129OSM   C14S13840   0.128   3.692   7.728  0.8407 -0.0402  0.5089
  129OSM   H14S13841   0.236   3.715   7.734  0.7719  0.2758  0.5313
  129OSM   H14T13842   0.126   3.581   7.727 -2.3797 -0.1108 -1.2570
  129OSM   C15S13843   0.043   3.744   7.847  0.6144  0.5506 -0.1245
  129OSM   H15S13844   0.062   3.685   7.939 -3.1889  0.3352  0.6475
  129OSM   H15T13845  -0.065   3.735   7.826  0.6335  2.2502 -1.1242
  129OSM   C16S13846   0.050   3.890   7.874 -0.2559 -0.5105  0.0726
  129OSM   H16S13847   0.020   3.940   7.779 -2.7748 -0.2918  0.8923
  129OSM   H16T13848   0.151   3.919   7.910  0.4579 -1.4225 -1.1502
  129OSM   C17S13849  -0.051   3.933   7.979 -0.1046  0.2636 -0.1091
  129OSM   H17S13850  -0.148   3.893   7.942  0.9945 -0.8861 -1.8712
  129OSM   H17T13851  -0.071   4.042   7.979 -2.3634  0.0004 -3.4950
  129OSM   C18S13852  -0.033   3.890   8.129 -0.3984 -0.3789 -0.4917
  129OSM   H18S13853  -0.083   3.968   8.191  0.6885 -0.4476  0.5266
  129OSM   H18T13854   0.074   3.884   8.159 -0.7473 -3.3285  0.5678
  129OSM   H18U13855  -0.081   3.792   8.153  0.5356 -0.6967  0.1673
  129OSM    C1F13856   0.385   4.179   6.508  0.4808  0.7309  0.3764
  129OSM     OF13857   0.277   4.229   6.467  0.4023  0.9361 -0.0211
  129OSM    C2F13858   0.495   4.255   6.575 -0.0006 -0.4385 -0.2483
  129OSM    H2F13859   0.536   4.325   6.499 -1.0423  2.1158  1.4293
  129OSM    H2G13860   0.570   4.178   6.606 -0.8701 -0.8976  0.7547
  129OSM    C3F13861   0.463   4.344   6.694  0.0914 -0.1858 -0.1592
  129OSM    H3F13862   0.390   4.427   6.677 -0.5129 -0.7754 -0.4891
  129OSM    H3G13863   0.555   4.403   6.715  0.2315 -0.1562 -0.8441
  129OSM    C4F13864   0.426   4.264   6.815 -0.0311 -0.1881 -0.4592
  129OSM    H4F13865   0.494   4.181   6.844 -2.1465 -1.0939  2.3032
  129OSM    H4G13866   0.332   4.208   6.797 -0.4849  0.3887  0.0591
  129OSM    C5F13867   0.400   4.350   6.938 -0.7601 -0.0850  0.5742
  129OSM    H5F13868   0.321   4.426   6.919 -1.0981 -1.0816 -2.5601
  129OSM    H5G13869   0.496   4.401   6.964 -0.1693 -0.5324 -0.6576
  129OSM    C6F13870   0.359   4.277   7.068  0.5512 -1.4017 -1.2182
  129OSM    H6F13871   0.440   4.201   7.080  2.1332  0.2996 -0.6981
  129OSM    H6G13872   0.259   4.230   7.060 -0.3039  0.4269 -1.7663
  129OSM    C7F13873   0.361   4.374   7.194 -0.1066 -1.4912  0.1467
  129OSM    H7F13874   0.265   4.429   7.197  0.6859 -0.0861  1.2288
  129OSM    H7G13875   0.435   4.456   7.179 -0.2830 -0.9859  1.9005
  129OSM    C8F13876   0.396   4.309   7.333 -0.1098 -0.4440 -0.0924
  129OSM    H8F13877   0.393   4.385   7.414 -0.0903 -2.4429  1.9024
  129OSM    H8G13878   0.494   4.263   7.308 -1.0471 -1.8079 -1.4430
  129OSM    C9F13879   0.302   4.197   7.370  0.0427  0.4258  0.2652
  129OSM    H9F13880   0.272   4.138   7.282  1.8022 -0.9401  0.5267
  129OSM   C10F13881   0.245   4.166   7.490  0.1580  0.5509 -0.1941
  129OSM   H10F13882   0.199   4.066   7.495  1.1678  0.0779  0.0267
  129OSM   C11F13883   0.263   4.234   7.627 -0.0655  0.3758  0.0750
  129OSM   H11F13884   0.200   4.325   7.631 -0.6986 -0.0426 -0.2590
  129OSM   H11G13885   0.360   4.287   7.636  0.7511 -0.9814 -0.4225
  129OSM   C12F13886   0.241   4.166   7.763  0.1486  0.2975  0.1804
  129OSM   H12F13887   0.308   4.077   7.771 -0.2383  0.0169  0.3196
  129OSM   H12G13888   0.138   4.126   7.760 -0.4906  1.8759  0.3912
  129OSM   C13F13889   0.263   4.265   7.880  0.0327  0.0114  0.4112
  129OSM   H13F13890   0.200   4.356   7.870  1.7971  1.0358 -3.0290
  129OSM   H13G13891   0.371   4.290   7.885  0.4321 -1.5895  0.3924
  129OSM   C14F13892   0.239   4.213   8.031  0.5533  0.1486  0.3071
  129OSM   H14F13893   0.282   4.111   8.035  0.2388  0.0375  0.9883
  129OSM   H14G13894   0.129   4.202   8.046  0.5133  1.4609  1.1917
  129OSM   C15F13895   0.309   4.302   8.136  0.3935  0.1162 -0.1183
  129OSM   H15F13896   0.271   4.406   8.131 -0.5736 -0.0834  1.8822
  129OSM   H15G13897   0.415   4.309   8.104  0.8937 -2.7968  0.5804
  129OSM   C16F13898   0.318   4.251   8.284  0.3679 -0.1558  0.0799
  129OSM   H16F13899   0.386   4.163   8.286  2.9801  1.7390 -0.4605
  129OSM   H16G13900   0.215   4.215   8.307 -0.1810  1.9446  1.1717
  129OSM   C17F13901   0.357   4.357   8.384 -0.0972 -0.6860  0.4027
  129OSM   H17F13902   0.450   4.416   8.370 -0.9875  1.2301  2.0538
  129OSM   H17G13903   0.366   4.300   8.480 -0.4737 -1.3485  0.0526
  129OSM   C18F13904   0.240   4.458   8.405 -0.1511  0.0482 -0.1839
  129OSM   H18F13905   0.232   4.533   8.323  1.8166  1.4960  0.8696
  129OSM   H18G13906   0.257   4.521   8.495 -4.6817  1.3717  0.0246
  129OSM   H18H13907   0.143   4.405   8.417  1.0613 -3.0060 -2.5583
  130OSM      N13908   4.827   1.493   6.363 -0.1072  0.0745 -0.5524
  130OSM    C1513909   4.910   1.414   6.265  0.6748 -0.9740  0.6089
  130OSM   H15A13910   4.861   1.417   6.169 -0.4883  2.1137  1.1861
  130OSM   H15B13911   4.920   1.311   6.297  1.9597 -0.6869  1.2239
  130OSM   H15C13912   5.000   1.473   6.254 -0.8347  1.2692 -0.4121
  130OSM    C1413913   4.696   1.430   6.394 -0.0558 -0.3416  0.9326
  130OSM   H14A13914   4.647   1.470   6.482 -0.2733 -2.3081  1.7409
  130OSM   H14B13915   4.695   1.324   6.414 -1.1234  0.0834  3.6305
  130OSM   H14C13916   4.621   1.449   6.319  0.8683 -0.2486  0.0210
  130OSM    C1313917   4.904   1.484   6.493 -0.1480  0.0483 -0.0519
  130OSM   H13A13918   4.999   1.536   6.490  0.1347 -0.2924  1.6849
  130OSM   H13B13919   4.918   1.379   6.515  0.2130  0.1559  0.2590
  130OSM   H13C13920   4.854   1.534   6.575  1.8394 -0.1959  1.4077
  130OSM    C1213921   4.825   1.640   6.315 -0.8116  0.4968  0.0683
  130OSM   H12A13922   4.922   1.685   6.328 -0.9722  1.0052 -0.4607
  130OSM   H12B13923   4.758   1.692   6.383  0.6239  1.6416  0.6620
  130OSM    C1113924   4.789   1.663   6.171  0.8942  0.0462  0.0742
  130OSM   H11A13925   4.856   1.612   6.099 -0.2937  0.0815 -1.0832
  130OSM   H11B13926   4.795   1.771   6.146 -0.2439  0.1586  0.1989
  130OSM      P13927   4.532   1.719   6.166 -0.0774  0.2167  0.1897
  130OSM    O1313928   4.513   1.817   6.055 -0.2263  0.1447  0.3194
  130OSM    O1413929   4.415   1.638   6.194 -0.3182  0.4274  0.2267
  130OSM    O1113930   4.573   1.801   6.297  0.1456  0.1186 -0.3490
  130OSM    O1213931   4.659   1.619   6.146  0.1988  0.3901  0.0796
  130OSM    C1S13932   4.488   1.803   6.408  0.3234  0.7232 -0.1715
  130OSM    H1S13933   4.536   1.725   6.470  0.1740  0.6169 -0.1913
  130OSM    H1T13934   4.384   1.767   6.396  1.0401 -1.0000 -1.5389
  130OSM     NF13935   4.424   1.932   6.612  0.3262  0.6534 -0.7628
  130OSM    HNF13936   4.329   1.960   6.627  0.4631 -0.1155  2.0004
  130OSM    C2S13937   4.477   1.939   6.478  0.1732 -0.0692  0.2195
  130OSM    H2S13938   4.581   1.979   6.481  0.5365 -0.9860  0.3404
  130OSM    C3S13939   4.403   2.032   6.386  0.2871  0.0575  0.0910
  130OSM    H3S13940   4.303   1.999   6.352  0.5810 -1.6158  0.7161
  130OSM     O313941   4.486   2.063   6.269 -0.0816  0.4379  0.0985
  130OSM    HO313942   4.560   2.004   6.286  0.7667  1.6468  0.7697
  130OSM    C4S13943   4.402   2.162   6.456  0.3994  0.1107 -0.5709
  130OSM    H4S13944   4.497   2.217   6.469 -0.3663  1.2232  0.5518
  130OSM    C5S13945   4.290   2.229   6.498 -0.2394  0.8074 -0.0740
  130OSM    H5S13946   4.189   2.190   6.478  0.5471 -1.0582 -0.5179
  130OSM    C6S13947   4.297   2.360   6.574 -0.2573  0.6575 -0.2872
  130OSM    H6S13948   4.235   2.434   6.519 -2.3131  1.4654  2.8710
  130OSM    H6T13949   4.403   2.395   6.577  0.8669 -2.5087  0.7129
  130OSM    C7S13950   4.223   2.342   6.709  0.3053 -0.2705 -0.4682
  130OSM    H7S13951   4.135   2.276   6.694  0.0206  0.3882 -1.8700
  130OSM    H7T13952   4.188   2.440   6.748  0.3812 -0.9498  1.4134
  130OSM    C8S13953   4.306   2.267   6.820  0.4888 -0.3341 -0.1822
  130OSM    H8S13954   4.380   2.343   6.853 -0.2530 -0.4290  1.8573
  130OSM    H8T13955   4.367   2.181   6.788 -1.0516 -1.4056 -0.3321
  130OSM    C9S13956   4.214   2.212   6.938 -0.2699 -0.3976 -0.5854
  130OSM    H9S13957   4.157   2.128   6.892 -3.4097  1.2818 -0.0508
  130OSM    H9T13958   4.131   2.282   6.961  1.2228  1.7589 -1.4797
  130OSM   C10S13959   4.286   2.185   7.072 -0.0816 -0.0490 -0.1552
  130OSM   H10S13960   4.321   2.289   7.089  0.9314 -0.6420  1.5905
  130OSM   H10T13961   4.378   2.127   7.049  1.9074  2.5588  0.7905
  130OSM   C11S13962   4.209   2.116   7.180 -0.5729 -0.0675  0.4307
  130OSM   H11S13963   4.208   2.008   7.153  0.0991  0.3931 -1.5925
  130OSM   H11T13964   4.104   2.152   7.167 -1.9672 -3.6533  0.5997
  130OSM   C12S13965   4.266   2.134   7.326  0.5323 -0.1864  0.6341
  130OSM   H12S13966   4.294   2.240   7.344 -0.1418  0.1234 -0.0839
  130OSM   H12T13967   4.357   2.072   7.336 -0.0957 -1.5105 -1.3495
  130OSM   C13S13968   4.162   2.101   7.432  0.9577 -0.6430  0.2107
  130OSM   H13S13969   4.090   2.027   7.389  1.0964  0.6396 -2.4317
  130OSM   H13T13970   4.102   2.193   7.449 -0.0730 -1.1470 -0.5784
  130OSM   C14S13971   4.217   2.056   7.563  0.1855 -0.4110 -0.2692
  130OSM   H14S13972   4.291   2.131   7.596 -2.1639  1.2749  1.4883
  130OSM   H14T13973   4.277   1.963   7.549 -0.9089 -0.8482 -2.5711
  130OSM   C15S13974   4.120   2.036   7.679  0.1209  0.1930 -0.2504
  130OSM   H15S13975   4.036   1.967   7.655 -0.7617  0.9450  0.5294
  130OSM   H15T13976   4.062   2.131   7.686 -1.7051 -0.6643 -2.3157
  130OSM   C16S13977   4.181   1.984   7.808 -0.0402 -0.2268  0.0172
  130OSM   H16S13978   4.274   2.044   7.815  1.2170 -1.8325 -1.9571
  130OSM   H16T13979   4.216   1.879   7.804 -1.3641 -0.6783 -0.1899
  130OSM   C17S13980   4.096   1.989   7.940 -0.5805 -0.2724 -1.1437
  130OSM   H17S13981   4.152   1.947   8.025  0.7168  0.1586 -1.7630
  130OSM   H17T13982   4.004   1.928   7.924  1.0351 -2.9112 -0.9112
  130OSM   C18S13983   4.047   2.128   7.973  0.1263  0.2462 -0.5997
  130OSM   H18S13984   3.982   2.145   8.061 -1.8429 -0.7051 -1.7985
  130OSM   H18T13985   3.988   2.174   7.891  1.5727  2.5116 -0.4562
  130OSM   H18U13986   4.131   2.199   7.989 -1.6352  2.3482 -0.1763
  130OSM    C1F13987   4.478   1.854   6.704  0.1675  0.5698 -0.8877
  130OSM     OF13988   4.590   1.810   6.688  0.0718  0.0541  0.4995
  130OSM    C2F13989   4.391   1.812   6.819  0.0910 -0.1958  0.0513
  130OSM    H2F13990   4.344   1.718   6.784 -1.4194  0.6143 -0.1908
  130OSM    H2G13991   4.310   1.887   6.835 -1.0717 -1.0920 -1.3470
  130OSM    C3F13992   4.483   1.790   6.939 -0.8169  0.5669  0.8280
  130OSM    H3F13993   4.558   1.870   6.956  0.0492  0.0231 -0.2988
  130OSM    H3G13994   4.540   1.696   6.918  0.9617  1.9800 -1.1046
  130OSM    C4F13995   4.406   1.765   7.064 -0.6565 -0.7056  0.4340
  130OSM    H4F13996   4.385   1.658   7.085 -5.8880 -0.1920 -0.8398
  130OSM    H4G13997   4.303   1.804   7.051 -0.9483 -1.9463 -1.1892
  130OSM    C5F13998   4.466   1.825   7.193 -0.0549  0.5389 -0.3936
  130OSM    H5F13999   4.387   1.843   7.268  0.4932  2.2406 -0.1697
  130OSM    H5G14000   4.508   1.925   7.171 -0.3607  0.5669 -0.8655
  130OSM    C6F14001   4.561   1.723   7.266  0.1022 -0.7745 -0.5574
  130OSM    H6F14002   4.646   1.685   7.205  2.0732  0.8305  1.0731
  130OSM    H6G14003   4.498   1.634   7.290  1.4457 -1.6890 -0.2983
  130OSM    C7F14004   4.626   1.780   7.394 -0.3725  0.3183  0.0112
  130OSM    H7F14005   4.666   1.879   7.363  0.6775 -0.8775 -2.8496
  130OSM    H7G14006   4.709   1.715   7.432  0.4738  0.8093 -0.9548
  130OSM    C8F14007   4.539   1.799   7.524 -0.0378 -0.5495 -0.7353
  130OSM    H8F14008   4.467   1.883   7.519  0.0600 -0.4948 -1.1792
  130OSM    H8G14009   4.614   1.841   7.594  1.8723 -0.4213 -2.7687
  130OSM    C9F14010   4.446   1.687   7.570 -0.1016  0.6124  1.0546
  130OSM    H9F14011   4.372   1.658   7.494 -0.1016 -0.7721  1.5578
  130OSM   C10F14012   4.463   1.609   7.676 -0.4101  0.8132  0.0603
  130OSM   H10F14013   4.392   1.528   7.697 -0.9995  0.7885 -1.8559
  130OSM   C11F14014   4.579   1.618   7.774 -0.9540  0.0174  0.4444
  130OSM   H11F14015   4.658   1.687   7.740 -1.8778  0.1252 -1.6461
  130OSM   H11G14016   4.629   1.520   7.789 -2.5098 -0.6442  1.5648
  130OSM   C12F14017   4.541   1.663   7.916  0.3092  0.6608 -0.2206
  130OSM   H12F14018   4.546   1.772   7.934  0.3838  0.4662  1.0270
  130OSM   H12G14019   4.612   1.626   7.993 -1.0586 -0.2468  0.6471
  130OSM   C13F14020   4.388   1.639   7.955  0.0612 -0.1004 -0.4906
  130OSM   H13F14021   4.351   1.534   7.952 -0.9085  0.2520 -1.4914
  130OSM   H13G14022   4.327   1.690   7.878 -0.9453 -1.9860 -1.0120
  130OSM   C14F14023   4.351   1.688   8.102  0.7149 -0.2435 -0.1769
  130OSM   H14F14024   4.386   1.793   8.107  0.3968 -0.0941 -0.8921
  130OSM   H14G14025   4.417   1.623   8.164  0.0927 -2.5668 -1.8016
  130OSM   C15F14026   4.210   1.686   8.151  0.4655  0.2607 -0.3327
  130OSM   H15F14027   4.174   1.582   8.166 -1.0603  1.0521  2.2064
  130OSM   H15G14028   4.151   1.738   8.073  2.2545  0.0465 -1.9005
  130OSM   C16F14029   4.203   1.752   8.295 -0.1030  0.4733 -0.6266
  130OSM   H16F14030   4.287   1.712   8.357 -1.2854  1.8331  2.0440
  130OSM   H16G14031   4.114   1.711   8.347  1.7768 -0.4526  2.1256
  130OSM   C17F14032   4.196   1.901   8.309  0.2679  0.3114  0.0586
  130OSM   H17F14033   4.108   1.941   8.253 -0.4127  1.5981  1.9438
  130OSM   H17G14034   4.284   1.952   8.265  0.2537  0.2244 -0.0702
  130OSM   C18F14035   4.198   1.956   8.454  0.4082 -0.5693 -0.3844
  130OSM   H18F14036   4.196   1.872   8.526  0.0067  0.8718  1.3302
  130OSM   H18G14037   4.137   2.048   8.468  1.9591  0.4328  0.0213
  130OSM   H18H14038   4.299   2.000   8.467  0.1244  1.0513 -2.8629
  131OSM      N14039   0.410   6.719   5.888 -0.1548  0.8094 -0.4267
  131OSM    C1514040   0.334   6.686   5.763 -0.3336 -0.9745  0.6042
  131OSM   H15A14041   0.245   6.626   5.770 -1.7932  1.0175 -0.0809
  131OSM   H15B14042   0.394   6.635   5.689 -3.3966 -1.2533 -1.8767
  131OSM   H15C14043   0.289   6.777   5.725  0.0494 -0.8696  0.3891
  131OSM    C1414044   0.496   6.610   5.932 -0.0675  0.5259  0.1676
  131OSM   H14A14045   0.554   6.579   5.846 -1.6608  0.9204 -1.0888
  131OSM   H14B14046   0.439   6.526   5.968 -0.3521  0.1820 -1.0149
  131OSM   H14C14047   0.564   6.635   6.011 -0.4899  2.1924  0.0260
  131OSM    C1314048   0.501   6.838   5.862  0.0931  0.1021 -0.4050
  131OSM   H13A14049   0.547   6.854   5.959 -0.9189 -2.1460  0.5319
  131OSM   H13B14050   0.445   6.923   5.828 -0.6390 -0.8180 -1.5836
  131OSM   H13C14051   0.578   6.812   5.792  0.5668  0.4622 -0.0192
  131OSM    C1214052   0.306   6.749   5.989 -0.7197  0.7359 -0.2089
  131OSM   H12A14053   0.231   6.671   5.993  0.3715 -0.4438 -1.6583
  131OSM   H12B14054   0.252   6.840   5.965 -1.2606  0.0794 -1.5804
  131OSM    C1114055   0.354   6.778   6.139  0.1319 -0.3949  1.0678
  131OSM   H11A14056   0.263   6.814   6.191 -1.1458 -1.5314 -0.2515
  131OSM   H11B14057   0.440   6.848   6.140 -0.1743  0.3238 -3.2267
  131OSM      P14058   0.299   6.531   6.221  0.1429  0.1699 -0.0608
  131OSM    O1314059   0.158   6.575   6.214  0.1144  0.1055 -0.5495
  131OSM    O1414060   0.339   6.418   6.129 -1.2929  0.5086 -0.2021
  131OSM    O1114061   0.322   6.488   6.369 -0.2958 -0.1908  0.5829
  131OSM    O1214062   0.400   6.655   6.196 -0.0154  0.0634 -0.1820
  131OSM    C1S14063   0.330   6.591   6.468  0.1257  0.8466 -0.4926
  131OSM    H1S14064   0.257   6.672   6.448  0.0753  0.7454 -0.7210
  131OSM    H1T14065   0.424   6.650   6.460  1.8467 -1.7372 -0.6065
  131OSM     NF14066   0.315   6.657   6.711  0.2571  0.2103 -0.2267
  131OSM    HNF14067   0.387   6.684   6.774 -0.0608 -0.3137  0.3677
  131OSM    C2S14068   0.319   6.551   6.620 -0.1587  0.7858 -0.2176
  131OSM    H2S14069   0.224   6.495   6.632  2.0246 -2.8093  1.9521
  131OSM    C3S14070   0.439   6.461   6.656 -0.6085  0.1437 -0.6591
  131OSM    H3S14071   0.531   6.520   6.635 -1.3948  2.1487  1.2168
  131OSM     O314072   0.461   6.341   6.575  0.3589 -0.3158 -0.8980
  131OSM    HO314073   0.442   6.366   6.484 -1.1660 -2.4531 -1.2524
  131OSM    C4S14074   0.436   6.414   6.803 -0.3867  0.4005  0.3402
  131OSM    H4S14075   0.504   6.474   6.865  0.4660 -0.6363  0.4493
  131OSM    C5S14076   0.360   6.314   6.858 -0.2209  0.7157  0.2825
  131OSM    H5S14077   0.295   6.252   6.795  0.1020 -0.8895  1.4719
  131OSM    C6S14078   0.348   6.277   7.013  0.3062  0.7659  0.1691
  131OSM    H6S14079   0.372   6.170   7.032 -0.8840  0.4341 -0.0983
  131OSM    H6T14080   0.244   6.287   7.051  0.0633 -2.9064  0.8209
  131OSM    C7S14081   0.451   6.347   7.107 -1.7937 -0.2575 -0.2785
  131OSM    H7S14082   0.420   6.453   7.095  0.7067  0.6614  0.7392
  131OSM    H7T14083   0.548   6.331   7.056 -1.3307 -0.1535  0.5568
  131OSM    C8S14084   0.442   6.303   7.249 -0.3029 -0.1819 -0.3273
  131OSM    H8S14085   0.483   6.200   7.257  0.9861  0.3564  0.1459
  131OSM    H8T14086   0.332   6.302   7.262 -0.1467  0.0564  1.0963
  131OSM    C9S14087   0.520   6.388   7.350  0.1808 -0.0941  0.2192
  131OSM    H9S14088   0.495   6.493   7.326 -2.4376 -0.6620  0.2441
  131OSM    H9T14089   0.631   6.376   7.340 -0.1715 -2.4130 -2.3891
  131OSM   C10S14090   0.460   6.361   7.490  0.0081  0.3935 -0.2902
  131OSM   H10S14091   0.354   6.392   7.491  0.2417  1.2146 -0.3377
  131OSM   H10T14092   0.517   6.426   7.559  1.4019  1.1035 -2.0063
  131OSM   C11S14093   0.458   6.210   7.530  0.1825 -0.0988 -0.1983
  131OSM   H11S14094   0.559   6.166   7.517 -0.6407 -1.8041 -1.0521
  131OSM   H11T14095   0.404   6.152   7.453 -0.6047  1.3352 -0.7680
  131OSM   C12S14096   0.409   6.184   7.672  0.3017  0.0181 -0.0064
  131OSM   H12S14097   0.304   6.214   7.688  0.0927 -0.3751 -0.6286
  131OSM   H12T14098   0.467   6.250   7.740 -1.7174  1.6879  0.1573
  131OSM   C13S14099   0.412   6.033   7.710  0.1106  0.3357 -0.2160
  131OSM   H13S14100   0.518   5.997   7.709  0.4868  1.4035  0.2036
  131OSM   H13T14101   0.355   5.987   7.626  0.8491 -0.0901 -0.5013
  131OSM   C14S14102   0.358   5.993   7.846  0.1156 -0.4517 -0.7323
  131OSM   H14S14103   0.368   5.883   7.859 -1.8950 -0.8023 -1.7275
  131OSM   H14T14104   0.247   6.005   7.843 -0.1178 -1.2501  1.7453
  131OSM   C15S14105   0.419   6.058   7.970 -0.0926  0.8446  0.3214
  131OSM   H15S14106   0.450   6.165   7.968 -1.4480  1.3227  2.0833
  131OSM   H15T14107   0.514   6.002   7.981  0.2244  0.7076 -2.3216
  131OSM   C16S14108   0.330   6.038   8.090 -0.6654 -0.3713  0.1358
  131OSM   H16S14109   0.312   5.931   8.112 -0.5025 -0.2546  0.8506
  131OSM   H16T14110   0.232   6.089   8.078 -1.3892 -1.4299  1.3326
  131OSM   C17S14111   0.402   6.075   8.220  0.5345  0.5481 -0.5670
  131OSM   H17S14112   0.444   6.178   8.206  0.7646  0.4168 -0.8666
  131OSM   H17T14113   0.495   6.016   8.234 -0.1780  0.0959  3.4621
  131OSM   C18S14114   0.322   6.061   8.347  0.0656  0.1451  0.0025
  131OSM   H18S14115   0.224   6.108   8.325 -0.9632 -2.3390 -1.1350
  131OSM   H18T14116   0.362   6.120   8.432  1.4532  1.6883 -1.6391
  131OSM   H18U14117   0.294   5.956   8.371 -1.1117  0.6236  0.8267
  131OSM    C1F14118   0.209   6.735   6.718  0.2641 -0.3262  0.4697
  131OSM     OF14119   0.121   6.731   6.633 -0.1188 -0.0801 -0.5347
  131OSM    C2F14120   0.202   6.842   6.830  0.5641  0.4187 -0.1538
  131OSM    H2F14121   0.284   6.915   6.812 -0.7040  1.9649  0.0172
  131OSM    H2G14122   0.212   6.782   6.923 -0.7634 -0.9145 -0.8282
  131OSM    C3F14123   0.064   6.918   6.843  0.0786  0.7644  0.6394
  131OSM    H3F14124  -0.017   6.855   6.885 -1.1955  2.2143  0.4024
  131OSM    H3G14125   0.021   6.950   6.746 -0.6889 -1.4404  0.1931
  131OSM    C4F14126   0.072   7.036   6.936  0.6962  0.2935  0.6076
  131OSM    H4F14127   0.150   7.108   6.905  0.7640  1.0563  2.4211
  131OSM    H4G14128   0.096   6.999   7.038  0.1318 -0.4748  0.4738
  131OSM    C5F14129  -0.061   7.124   6.949 -0.0871  0.3949 -0.3865
  131OSM    H5F14130  -0.077   7.171   6.850  1.5583  2.3473  0.1911
  131OSM    H5G14131  -0.031   7.205   7.020  1.6836 -0.6584  0.1160
  131OSM    C6F14132  -0.184   7.053   7.002  0.1562 -0.3496  0.3899
  131OSM    H6F14133  -0.212   6.976   6.927  1.4393  0.7886 -1.3103
  131OSM    H6G14134  -0.264   7.130   7.008 -0.8846 -1.4826  1.8792
  131OSM    C7F14135  -0.152   6.990   7.134  0.2978 -0.4833 -0.1812
  131OSM    H7F14136  -0.106   7.067   7.199 -1.4373 -1.1309  1.9403
  131OSM    H7G14137  -0.076   6.910   7.127  0.4726 -0.4719  1.3415
  131OSM    C8F14138  -0.278   6.942   7.208  1.0053  0.2737 -0.1522
  131OSM    H8F14139  -0.307   6.848   7.158 -0.0362  1.5054 -1.9556
  131OSM    H8G14140  -0.363   7.014   7.202  0.8861  0.2416  0.9203
  131OSM    C9F14141  -0.262   6.918   7.360  0.3548 -0.0030 -0.0191
  131OSM    H9F14142  -0.282   6.813   7.385 -0.5791  0.0650 -0.4137
  131OSM   C10F14143  -0.256   7.008   7.464 -0.3821  0.1271  0.3601
  131OSM   H10F14144  -0.259   6.969   7.567  0.4628 -0.3569  0.2106
  131OSM   C11F14145  -0.255   7.154   7.445 -0.0196 -0.0874  0.7600
  131OSM   H11F14146  -0.265   7.179   7.337 -1.4695 -1.2775  0.5824
  131OSM   H11G14147  -0.154   7.191   7.473  0.5914  0.7303 -2.2311
  131OSM   C12F14148  -0.359   7.228   7.529  0.2476  0.0540  0.9363
  131OSM   H12F14149  -0.463   7.189   7.533  0.1022  0.1562 -0.9132
  131OSM   H12G14150  -0.366   7.334   7.498  0.5412 -0.2754 -0.3100
  131OSM   C13F14151  -0.302   7.241   7.669 -0.2385  0.7336 -0.0487
  131OSM   H13F14152  -0.203   7.291   7.665  1.2067 -1.9938 -2.2426
  131OSM   H13G14153  -0.291   7.139   7.713  0.8249  1.3440  1.1638
  131OSM   C14F14154  -0.395   7.314   7.776  0.4811  0.1775 -0.1605
  131OSM   H14F14155  -0.498   7.290   7.740 -0.4357  1.0281  1.7883
  131OSM   H14G14156  -0.373   7.422   7.760 -0.4385  0.2408 -1.1219
  131OSM   C15F14157  -0.355   7.276   7.921  0.3332  0.1343 -0.2389
  131OSM   H15F14158  -0.244   7.286   7.925  0.4111  0.7214 -2.3696
  131OSM   H15G14159  -0.378   7.168   7.934 -1.1634  0.3242 -1.0681
  131OSM   C16F14160  -0.427   7.356   8.033  0.3463  0.9283 -0.3651
  131OSM   H16F14161  -0.511   7.402   7.976 -0.3024  1.5191  1.0156
  131OSM   H16G14162  -0.371   7.442   8.074  3.6911 -1.6918  1.0116
  131OSM   C17F14163  -0.490   7.277   8.157  0.6319  0.4823 -0.4262
  131OSM   H17F14164  -0.552   7.352   8.211  0.0595 -0.5721  0.4312
  131OSM   H17G14165  -0.408   7.243   8.224  0.2298  0.6668  0.1705
  131OSM   C18F14166  -0.588   7.164   8.123 -0.0715 -0.2154 -0.1585
  131OSM   H18F14167  -0.532   7.068   8.127 -0.4632 -0.4114  2.9736
  131OSM   H18G14168  -0.627   7.174   8.019 -1.2624  1.1188  0.3977
  131OSM   H18H14169  -0.657   7.140   8.206  1.0489 -1.1947  0.5344
  132OSM      N14170   1.154   4.706   5.744  0.1039 -0.0784  0.9979
  132OSM    C1514171   1.179   4.840   5.677 -0.1486 -0.2487 -0.5556
  132OSM   H15A14172   1.284   4.864   5.664 -0.0658  0.4319  1.1134
  132OSM   H15B14173   1.143   4.910   5.751 -2.0186 -0.9486 -0.7529
  132OSM   H15C14174   1.130   4.838   5.581 -0.1050  1.1612 -0.6188
  132OSM    C1414175   1.008   4.675   5.732 -0.1589 -0.8423 -0.9503
  132OSM   H14A14176   0.972   4.684   5.630  0.7865  1.8158 -1.1369
  132OSM   H14B14177   0.961   4.744   5.801  2.3667 -0.5101  0.5316
  132OSM   H14C14178   0.994   4.578   5.778 -1.2453 -0.6048 -0.7496
  132OSM    C1314179   1.223   4.614   5.657 -0.1134 -0.3357 -0.4856
  132OSM   H13A14180   1.327   4.640   5.674 -0.2616  2.0929 -2.6717
  132OSM   H13B14181   1.201   4.643   5.555 -1.3873  0.4301 -0.0207
  132OSM   H13C14182   1.205   4.508   5.665  0.5580 -0.4835 -0.8579
  132OSM    C1214183   1.197   4.699   5.889  0.3501  0.3412  0.6963
  132OSM   H12A14184   1.304   4.712   5.892  0.7581 -1.5361 -2.3781
  132OSM   H12B14185   1.171   4.604   5.933 -2.3887 -0.4408 -2.2424
  132OSM    C1114186   1.140   4.812   5.979 -0.3053 -0.6295 -0.0546
  132OSM   H11A14187   1.165   4.911   5.935  1.8980 -0.5880  1.1476
  132OSM   H11B14188   1.187   4.822   6.080  2.8680 -0.0785 -1.4633
  132OSM      P14189   0.953   4.672   6.083  0.0898 -0.4474  0.2308
  132OSM    O1314190   0.803   4.695   6.103  0.4029 -0.4610 -0.1594
  132OSM    O1414191   0.982   4.544   6.026  0.6545 -0.1970 -0.6047
  132OSM    O1114192   1.019   4.686   6.226  0.0016 -0.2470 -0.2018
  132OSM    O1214193   1.001   4.795   6.000 -0.4190  0.4346 -0.4869
  132OSM    C1S14194   0.950   4.631   6.340 -0.1091 -0.4237  0.3165
  132OSM    H1S14195   0.933   4.522   6.332 -0.3994 -0.2867 -1.2646
  132OSM    H1T14196   0.852   4.681   6.358  0.3420  1.0379 -1.0711
  132OSM     NF14197   0.966   4.576   6.586 -0.4010  0.1740  0.0583
  132OSM    HNF14198   0.914   4.626   6.654 -0.5036 -2.2593  1.9049
  132OSM    C2S14199   1.037   4.644   6.474  0.9741 -0.9836  0.4901
  132OSM    H2S14200   1.134   4.592   6.464  2.4299  1.6351  0.0091
  132OSM    C3S14201   1.060   4.798   6.498  0.5214  0.0937  0.4547
  132OSM    H3S14202   0.959   4.842   6.513 -0.7353 -1.7238 -1.7887
  132OSM     O314203   1.118   4.877   6.388 -0.3799  0.2558 -0.5844
  132OSM    HO314204   1.118   4.825   6.308 -0.8229  3.0449 -2.5484
  132OSM    C4S14205   1.129   4.825   6.633 -0.3809 -0.0953  0.4619
  132OSM    H4S14206   1.065   4.817   6.722 -0.6271  0.5802  0.3482
  132OSM    C5S14207   1.263   4.844   6.659 -0.1260  0.3511 -0.2436
  132OSM    H5S14208   1.329   4.842   6.571 -2.6278 -1.1663 -2.2471
  132OSM    C6S14209   1.327   4.850   6.797  0.1436 -0.0168  0.2358
  132OSM    H6S14210   1.370   4.952   6.810 -0.0631  0.6167 -3.1078
  132OSM    H6T14211   1.411   4.777   6.800  1.7378  1.4811 -2.8321
  132OSM    C7S14212   1.231   4.832   6.917 -0.2092  0.0629  0.5323
  132OSM    H7S14213   1.185   4.731   6.910 -0.3710 -0.1483  3.5542
  132OSM    H7T14214   1.160   4.916   6.911  1.7384  1.7149 -1.3098
  132OSM    C8S14215   1.302   4.843   7.046  0.0143  0.1394 -0.6310
  132OSM    H8S14216   1.353   4.941   7.058 -0.0784 -0.0025  1.4050
  132OSM    H8T14217   1.386   4.771   7.053 -1.0378 -1.2653 -1.7707
  132OSM    C9S14218   1.208   4.815   7.163  0.5183 -0.4049  0.5400
  132OSM    H9S14219   1.163   4.716   7.141  2.3626 -0.9607 -0.9487
  132OSM    H9T14220   1.116   4.878   7.158 -0.7908 -2.1511  1.5405
  132OSM   C10S14221   1.268   4.812   7.302 -0.4464  0.1919  0.2804
  132OSM   H10S14222   1.309   4.912   7.330 -0.8998 -0.4985  3.9160
  132OSM   H10T14223   1.353   4.741   7.293 -1.2605 -0.6198 -1.4079
  132OSM   C11S14224   1.171   4.777   7.415 -0.5654 -0.0354  0.1628
  132OSM   H11S14225   1.101   4.697   7.384 -3.0553  0.5641  3.6770
  132OSM   H11T14226   1.111   4.864   7.450 -1.6966 -0.0684 -1.5615
  132OSM   C12S14227   1.248   4.730   7.540 -0.1253 -0.4331 -1.0851
  132OSM   H12S14228   1.324   4.806   7.569  1.1552 -2.5232  1.4304
  132OSM   H12T14229   1.309   4.638   7.529 -0.6813 -0.8692 -0.6287
  132OSM   C13S14230   1.152   4.708   7.660  0.3564  0.8172  0.5468
  132OSM   H13S14231   1.129   4.600   7.651 -1.4725  1.1804  0.5351
  132OSM   H13T14232   1.056   4.764   7.655  0.6064  1.1563 -1.7364
  132OSM   C14S14233   1.202   4.760   7.797 -0.6044 -0.4297 -0.8673
  132OSM   H14S14234   1.219   4.870   7.803  0.2110 -0.6151  0.7568
  132OSM   H14T14235   1.297   4.710   7.827 -0.4546  0.3977  0.0922
  132OSM   C15S14236   1.095   4.727   7.908 -0.4927 -1.0480 -0.1362
  132OSM   H15S14237   1.068   4.621   7.893  3.6773 -2.7194  2.4854
  132OSM   H15T14238   1.002   4.784   7.889 -0.3745 -1.1035 -0.9178
  132OSM   C16S14239   1.140   4.758   8.050 -0.1825  0.0414 -0.7730
  132OSM   H16S14240   1.164   4.866   8.060  0.3966  0.0497 -1.9672
  132OSM   H16T14241   1.225   4.695   8.082  0.7050  0.7325 -1.6728
  132OSM   C17S14242   1.024   4.733   8.147 -1.0561 -0.9720  0.3228
  132OSM   H17S14243   0.999   4.626   8.130  2.3966 -1.4830 -3.0245
  132OSM   H17T14244   0.941   4.796   8.106  0.1139 -0.3859 -1.2618
  132OSM   C18S14245   1.058   4.768   8.290 -0.5166  0.2970 -0.6136
  132OSM   H18S14246   1.071   4.877   8.271  0.7276  0.3605  0.4842
  132OSM   H18T14247   1.155   4.717   8.307 -1.4202 -1.1160  0.6088
  132OSM   H18U14248   0.979   4.739   8.362 -0.0001  1.8777  0.6473
  132OSM    C1F14249   0.960   4.441   6.590  0.2962 -0.0687 -0.7399
  132OSM     OF14250   1.022   4.372   6.510 -0.0143 -0.5716 -0.1764
  132OSM    C2F14251   0.865   4.381   6.692 -0.1214 -0.3133  0.8761
  132OSM    H2F14252   0.804   4.299   6.648 -1.9211  1.9549 -1.0716
  132OSM    H2G14253   0.794   4.458   6.727  0.6688  0.3661  1.0029
  132OSM    C3F14254   0.958   4.342   6.811  0.8360 -0.1505  0.5050
  132OSM    H3F14255   1.008   4.428   6.860  0.3605 -1.1502  2.9153
  132OSM    H3G14256   1.037   4.271   6.777 -0.1446 -1.6453  1.2018
  132OSM    C4F14257   0.872   4.276   6.926  0.3476  0.6422  0.6502
  132OSM    H4F14258   0.837   4.177   6.890 -1.9847  1.3414  0.8183
  132OSM    H4G14259   0.779   4.336   6.941 -0.0980  0.2462 -0.4073
  132OSM    C5F14260   0.944   4.251   7.049 -0.0474 -0.1030 -0.4087
  132OSM    H5F14261   1.030   4.180   7.044 -2.3559 -3.1275 -0.4014
  132OSM    H5G14262   0.889   4.181   7.116  0.3020 -0.5150 -0.5449
  132OSM    C6F14263   0.976   4.383   7.120 -0.0224 -0.1042 -0.4077
  132OSM    H6F14264   0.901   4.460   7.091  1.3172  0.8437 -1.5006
  132OSM    H6G14265   1.071   4.415   7.072  0.0065 -1.2011 -1.1292
  132OSM    C7F14266   0.992   4.386   7.270 -0.3323  0.4721 -0.0078
  132OSM    H7F14267   1.009   4.493   7.294  0.2906 -0.1952  2.8035
  132OSM    H7G14268   1.075   4.320   7.303 -1.1759 -0.0692  1.0813
  132OSM    C8F14269   0.875   4.356   7.363  0.3015 -0.1749  0.1510
  132OSM    H8F14270   0.917   4.352   7.466 -2.3603  1.4796  1.4217
  132OSM    H8G14271   0.844   4.252   7.340  1.6786 -1.7418  4.3344
  132OSM    C9F14272   0.758   4.448   7.353  0.2457  0.5308  0.0973
  132OSM    H9F14273   0.725   4.459   7.249  1.0308  1.1366 -0.0983
  132OSM   C10F14274   0.707   4.514   7.454  0.0827  0.4509  0.5750
  132OSM   H10F14275   0.624   4.584   7.436 -1.2258 -0.7760  1.5562
  132OSM   C11F14276   0.769   4.514   7.594 -0.3083  0.4959  0.8483
  132OSM   H11F14277   0.855   4.582   7.608 -0.7303  1.0199  0.9441
  132OSM   H11G14278   0.813   4.413   7.608  0.7772  1.0876  1.8929
  132OSM   C12F14279   0.663   4.520   7.706 -0.1591 -0.5350  0.6831
  132OSM   H12F14280   0.605   4.425   7.712  2.9113 -2.9298 -3.1659
  132OSM   H12G14281   0.589   4.600   7.684  2.4175  2.2707  1.4770
  132OSM   C13F14282   0.720   4.560   7.849 -0.1258 -0.6210  0.8639
  132OSM   H13F14283   0.773   4.658   7.843 -0.2713 -0.6261 -1.3003
  132OSM   H13G14284   0.799   4.485   7.867  1.5629  0.3595 -1.8222
  132OSM   C14F14285   0.622   4.566   7.962 -0.0502 -0.3732 -0.2889
  132OSM   H14F14286   0.559   4.475   7.958 -0.4935 -0.0974  0.2065
  132OSM   H14G14287   0.562   4.659   7.953 -0.4223 -0.4754  0.9341
  132OSM   C15F14288   0.695   4.576   8.096  0.4144  0.3512  0.0471
  132OSM   H15F14289   0.777   4.647   8.075  0.0391  0.7000 -0.2503
  132OSM   H15G14290   0.744   4.484   8.135 -0.7799  0.1142  1.0514
  132OSM   C16F14291   0.605   4.634   8.207  0.3661  0.4152 -0.1728
  132OSM   H16F14292   0.511   4.576   8.223  1.2933 -0.5112  2.6584
  132OSM   H16G14293   0.576   4.734   8.170  4.4222  2.8421  2.4633
  132OSM   C17F14294   0.672   4.633   8.350  0.0351 -0.3484  0.5695
  132OSM   H17F14295   0.772   4.678   8.331  0.0509 -0.3010  0.7644
  132OSM   H17G14296   0.696   4.530   8.383 -1.6602 -0.7409  0.6595
  132OSM   C18F14297   0.586   4.702   8.447  0.0476  0.0132 -0.0635
  132OSM   H18F14298   0.487   4.653   8.456 -0.8791  1.7639 -0.3509
  132OSM   H18G14299   0.557   4.799   8.402 -0.0666 -1.0023 -2.3013
  132OSM   H18H14300   0.624   4.723   8.549 -3.3279  2.3099  0.8910
  133SAPE     N14301   5.454   0.479  10.870 -0.3943  0.2521 -0.1184
  133SAPE   HN114302   5.534   0.471  10.936 -0.3967 -1.1978 -0.2536
  133SAPE   HN214303   5.364   0.501  10.917 -0.5967 -0.1918 -0.2840
  133SAPE   HN314304   5.437   0.393  10.813 -0.8421  0.6979 -0.6637
  133SAPE   C1214305   5.501   0.585  10.776  0.0492  0.9010 -0.4447
  133SAPE  H12A14306   5.604   0.549  10.755 -0.0333  0.8018 -0.6782
  133SAPE  H12B14307   5.510   0.677  10.838 -1.3118  1.2948 -0.7913
  133SAPE   C1114308   5.425   0.593  10.642 -0.4787  0.3043  0.6516
  133SAPE  H11A14309   5.407   0.493  10.596 -1.1215 -0.9301  3.3663
  133SAPE  H11B14310   5.474   0.667  10.576 -0.2706 -1.0032 -0.7265
  133SAPE     P14311   5.158   0.576  10.649 -0.0603  0.3083  0.0893
  133SAPE   O1314312   5.156   0.436  10.690  0.3041 -0.2109  0.0761
  133SAPE   O1414313   5.046   0.661  10.703 -0.1974  0.5525 -0.4740
  133SAPE   O1214314   5.297   0.646  10.673 -0.1888 -0.2253  0.5219
  133SAPE   O1114315   5.158   0.567  10.493 -0.3663 -0.4221  0.6623
  133SAPE    C114316   5.168   0.681  10.414  0.3792 -0.1517 -0.2684
  133SAPE    HA14317   5.174   0.775  10.473 -2.5845  1.0705 -1.7305
  133SAPE    HB14318   5.257   0.680  10.347  0.5299 -0.4176 -0.0655
  133SAPE    C214319   5.035   0.706  10.341 -0.1903  0.5220  0.1415
  133SAPE    HS14320   4.958   0.686  10.418  0.9307 -1.8627  0.7540
  133SAPE   O2114321   5.027   0.610  10.231  0.0953 -0.6272  0.2310
  133SAPE   C2114322   4.987   0.489  10.259 -0.3888 -0.4057  0.2433
  133SAPE   O2214323   4.938   0.442  10.363  0.0847  0.2166  0.1751
  133SAPE   C2214324   5.007   0.405  10.131 -0.3736  0.3077  0.1602
  133SAPE   H2R14325   5.108   0.361  10.145 -1.2701 -2.8383 -2.1964
  133SAPE   H2S14326   4.927   0.328  10.127  0.5119 -0.6097 -0.3625
  133SAPE    C314327   5.028   0.852  10.284  0.1809  0.2039 -0.2209
  133SAPE    HX14328   5.068   0.931  10.351 -1.7612  3.5351 -2.6731
  133SAPE    HY14329   4.919   0.873  10.276 -0.0429  0.5825  2.6738
  133SAPE   O3114330   5.098   0.870  10.156 -0.3402 -0.2022  0.6113
  133SAPE   C3114331   5.035   0.929  10.051 -0.8856  0.3680 -0.0337
  133SAPE   O3214332   4.934   0.994  10.062  0.1265  0.1346  0.1630
  133SAPE   C3214333   5.128   0.921   9.933 -0.3889  0.4924  0.3750
  133SAPE   H2X14334   5.171   0.819   9.935 -1.2696  0.0595 -1.1268
  133SAPE   H2Y14335   5.197   1.008   9.944  2.6044 -1.4742 -1.2942
  133SAPE   C2314336   5.000   0.478   9.991  0.2311  0.2965 -0.4676
  133SAPE   H3R14337   5.031   0.584   9.994 -1.0785  0.7108 -1.2333
  133SAPE   H3S14338   4.893   0.486   9.963 -0.0892  0.8293  0.8402
  133SAPE   C2414339   5.086   0.400   9.887  0.3002  0.0976  0.0992
  133SAPE   H4R14340   5.187   0.387   9.932 -0.2654  0.6169  1.5797
  133SAPE   H4S14341   5.099   0.481   9.812  1.6424 -0.6732 -0.5482
  133SAPE   C2514342   5.013   0.279   9.824 -0.6062 -0.7205  0.0132
  133SAPE   H5R14343   5.013   0.190   9.888 -0.2673 -0.5479  0.2533
  133SAPE   C2614344   4.939   0.285   9.708  0.1529  0.3380 -0.3444
  133SAPE   H6R14345   4.880   0.200   9.672  0.5326  1.0807 -2.9022
  133SAPE   C2714346   4.921   0.412   9.627 -0.5770  0.6758  0.3749
  133SAPE   H7R14347   5.016   0.467   9.612 -0.7820  0.7122 -0.9019
  133SAPE   H7S14348   4.855   0.481   9.683 -1.7543 -0.0622 -0.0579
  133SAPE   C2814349   4.850   0.375   9.496  0.2962  0.4629 -0.1905
  133SAPE   H8R14350   4.790   0.282   9.502 -0.8645  1.2777  1.4484
  133SAPE   C2914351   4.858   0.447   9.385  0.8130  0.3847 -0.8664
  133SAPE   H9R14352   4.802   0.403   9.301 -2.5214  0.3900  1.1795
  133SAPE  C21014353   4.932   0.572   9.364  0.1665  0.3689 -0.0626
  133SAPE  H10R14354   5.013   0.592   9.436  0.2781 -0.4789  0.0607
  133SAPE  H10S14355   4.863   0.658   9.378 -0.1272  0.2708 -0.8001
  133SAPE  C21114356   4.987   0.573   9.229 -0.5024 -0.6365 -0.5319
  133SAPE  H11R14357   5.094   0.545   9.225 -0.2408  0.3445 -0.6414
  133SAPE  C21214358   4.927   0.603   9.117  0.0952 -0.2230 -0.2251
  133SAPE  H12R14359   4.976   0.603   9.019 -1.4083 -0.5830 -1.0200
  133SAPE  C21314360   4.782   0.644   9.114 -0.2697  0.3253  0.5508
  133SAPE  H13R14361   4.787   0.746   9.070  2.7124  0.4150  0.8936
  133SAPE  H13S14362   4.738   0.671   9.213 -0.0407 -0.3264  0.8373
  133SAPE  C21414363   4.702   0.537   9.044  0.6479 -0.1593 -0.7667
  133SAPE  H14R14364   4.708   0.433   9.080  2.2677 -0.2620 -1.2686
  133SAPE  C21514365   4.629   0.555   8.936  0.5875  0.3005 -0.7272
  133SAPE  H15R14366   4.570   0.471   8.896 -1.5985  0.5488  1.6928
  133SAPE  C21614367   4.614   0.684   8.859  0.2578  0.0359 -0.0394
  133SAPE  H16R14368   4.573   0.664   8.758  1.5708 -1.6238 -0.2842
  133SAPE  H16S14369   4.713   0.724   8.831 -0.5858  2.9254  0.8045
  133SAPE  C21714370   4.529   0.796   8.922  0.5339 -0.0925  0.0387
  133SAPE  H17R14371   4.544   0.880   8.851  1.7313 -0.1897  0.1493
  133SAPE  H17S14372   4.558   0.830   9.023  0.7460  0.3458 -0.1673
  133SAPE  C21814373   4.372   0.777   8.921 -0.3796 -0.5435 -0.0635
  133SAPE  H18R14374   4.340   0.680   8.964 -1.1296 -0.8946 -1.3818
  133SAPE  H18S14375   4.339   0.775   8.815 -1.9102  0.6695  0.3503
  133SAPE  C21914376   4.291   0.891   8.979 -0.1311 -0.8162 -0.2054
  133SAPE  H19R14377   4.304   0.979   8.913  2.1773 -1.0280 -0.1149
  133SAPE  H19S14378   4.322   0.919   9.082 -0.8577  2.6390 -0.8190
  133SAPE  C22014379   4.140   0.852   8.989 -0.0514  0.2068 -0.0619
  133SAPE  H20R14380   4.074   0.940   9.005  2.0958  1.6784  1.2083
  133SAPE  H20S14381   4.121   0.784   9.075 -0.3443  0.2728 -0.0758
  133SAPE  H20T14382   4.104   0.812   8.891 -0.7687  0.3283  0.1503
  133SAPE   C3314383   5.051   0.925   9.793 -0.4094 -0.1455 -0.2844
  133SAPE   H3X14384   5.019   1.030   9.776 -0.2751  0.2550  1.7746
  133SAPE   H3Y14385   4.963   0.859   9.778 -0.2401 -0.0437 -2.0016
  133SAPE   C3414386   5.141   0.881   9.676  0.7372 -0.3674 -1.0291
  133SAPE   H4X14387   5.168   0.775   9.690  0.3092 -0.4039 -0.4677
  133SAPE   H4Y14388   5.228   0.951   9.676 -1.2477  2.3240  0.5352
  133SAPE   C3514389   5.081   0.890   9.537 -0.6358  0.1598  0.2823
  133SAPE   H5X14390   5.054   0.997   9.524 -0.5018  0.2598  0.8086
  133SAPE   H5Y14391   4.990   0.827   9.544  0.6894 -2.0113 -0.7886
  133SAPE   C3614392   5.184   0.843   9.428  0.0840 -0.0467 -0.2095
  133SAPE   H6X14393   5.198   0.733   9.438 -0.7408 -0.2549 -1.1139
  133SAPE   H6Y14394   5.281   0.889   9.453 -0.8273  0.7971  2.0014
  133SAPE   C3714395   5.136   0.885   9.291  0.1382 -0.2443  0.0489
  133SAPE   H7X14396   5.132   0.996   9.283  1.4934 -0.3059 -3.0331
  133SAPE   H7Y14397   5.034   0.844   9.275 -0.8923  1.6571  1.3617
  133SAPE   C3814398   5.233   0.856   9.169  0.1623  0.2012 -0.7297
  133SAPE   H8X14399   5.224   0.746   9.157 -2.0926  0.1326  0.8980
  133SAPE   H8Y14400   5.335   0.871   9.210 -0.3934  0.0914  0.7553
  133SAPE   C3914401   5.209   0.930   9.037 -0.9057 -0.5798  0.4794
  133SAPE   H9X14402   5.305   0.953   8.986 -0.7806 -0.6853  0.6661
  133SAPE   H9Y14403   5.163   1.029   9.060 -0.6217 -0.7012  1.6386
  133SAPE  C31014404   5.117   0.852   8.934  0.2199  0.3556 -0.5147
  133SAPE  H10X14405   5.027   0.827   8.994  0.6837 -0.7994 -0.2642
  133SAPE  H10Y14406   5.191   0.768   8.930  0.2407  0.2695  0.9663
  133SAPE  C31114407   5.105   0.922   8.796  0.1841 -0.3535  0.6577
  133SAPE  H11X14408   5.043   0.855   8.734 -0.2708  1.6677 -1.1745
  133SAPE  H11Y14409   5.203   0.946   8.749 -0.7987  0.7386 -0.9536
  133SAPE  C31214410   5.010   1.041   8.809  0.3471 -0.4575 -0.8351
  133SAPE  H12X14411   5.053   1.124   8.868 -1.8768  0.2305 -0.0859
  133SAPE  H12Y14412   4.912   1.006   8.849 -0.2035 -1.3247 -2.7762
  133SAPE  C31314413   4.971   1.085   8.666  0.0093  0.9643  0.4636
  133SAPE  H13X14414   4.904   1.005   8.627 -2.6296  2.9953  0.6072
  133SAPE  H13Y14415   5.061   1.088   8.599 -2.7104  1.6665 -3.5193
  133SAPE  C31414416   4.918   1.226   8.655  0.2512 -0.6474 -0.3657
  133SAPE  H14X14417   5.002   1.299   8.655  0.0226 -0.3862 -0.4782
  133SAPE  H14Y14418   4.848   1.263   8.733 -1.4716 -2.1944 -1.0894
  133SAPE  C31514419   4.824   1.244   8.533 -0.4858  0.8451  0.1258
  133SAPE  H15X14420   4.728   1.192   8.556 -0.0684 -2.0019 -3.6653
  133SAPE  H15Y14421   4.857   1.193   8.440 -0.9965  1.7384 -0.5560
  133SAPE  C31614422   4.796   1.395   8.507 -0.4147  0.1679  0.0116
  133SAPE  H16X14423   4.751   1.434   8.601 -1.5700  0.5722 -0.6939
  133SAPE  H16Y14424   4.713   1.389   8.434 -2.2605 -1.5947  2.1107
  133SAPE  C31714425   4.911   1.473   8.438 -0.5043  0.2774  0.4519
  133SAPE  H17X14426   5.008   1.473   8.492 -0.7650  0.9861  0.9379
  133SAPE  H17Y14427   4.876   1.579   8.436  0.4060  0.5960  0.8382
  133SAPE  C31814428   4.921   1.433   8.291 -0.2302 -0.5192  0.9262
  133SAPE  H18X14429   4.943   1.325   8.273 -0.1645 -0.0460 -2.6088
  133SAPE  H18Y14430   4.983   1.499   8.226 -2.3844 -0.7731 -1.5927
  133SAPE  H18Z14431   4.821   1.437   8.241  0.6211 -2.0047 -1.0619
  134SAPE     N14432   5.690   2.077  10.500 -0.0940  0.3239 -0.6776
  134SAPE   HN114433   5.692   2.009  10.422 -0.0713 -0.8646  0.3371
  134SAPE   HN214434   5.775   2.056  10.556  0.0828  0.0656 -1.0424
  134SAPE   HN314435   5.603   2.055  10.552  1.1655  1.0389  1.8761
  134SAPE   C1214436   5.689   2.213  10.438  0.1361  0.0570 -0.4854
  134SAPE  H12A14437   5.665   2.293  10.511 -0.1946  1.7672 -2.3680
  134SAPE  H12B14438   5.597   2.202  10.377 -1.0583  0.2862  1.2218
  134SAPE   C1114439   5.816   2.240  10.364  1.0503  0.2131  0.3277
  134SAPE  H11A14440   5.799   2.344  10.330 -1.4156  0.6942  2.6475
  134SAPE  H11B14441   5.810   2.168  10.279 -1.6262 -2.3040  2.4317
  134SAPE     P14442   6.013   2.347  10.484 -0.0363 -0.1147 -0.2777
  134SAPE   O1314443   5.923   2.450  10.539 -0.1145 -0.2252 -0.0048
  134SAPE   O1414444   6.131   2.305  10.564 -0.6924 -0.1910 -0.1611
  134SAPE   O1214445   5.929   2.218  10.447 -0.2636 -0.1649 -0.5712
  134SAPE   O1114446   6.070   2.395  10.343 -0.2182 -0.3645 -0.3465
  134SAPE    C114447   6.157   2.301  10.275 -0.5027  0.0477  0.1795
  134SAPE    HA14448   6.249   2.283  10.335  0.1501 -2.9545 -1.4980
  134SAPE    HB14449   6.112   2.201  10.255  2.7784 -1.8957  1.6312
  134SAPE    C214450   6.206   2.358  10.146 -0.1557  0.4702 -0.3076
  134SAPE    HS14451   6.272   2.282  10.099 -1.7428 -1.5247  0.5605
  134SAPE   O2114452   6.267   2.483  10.158 -0.6104 -0.3169  0.2004
  134SAPE   C2114453   6.387   2.482  10.214 -0.3207 -0.2085  0.5045
  134SAPE   O2214454   6.450   2.383  10.250  0.0072  0.0036  0.1165
  134SAPE   C2214455   6.421   2.625  10.239  0.4407  0.2740 -0.0675
  134SAPE   H2R14456   6.329   2.688  10.236  0.0391 -0.3062 -0.0477
  134SAPE   H2S14457   6.470   2.620  10.338 -0.5523 -1.0529  0.3836
  134SAPE    C314458   6.078   2.372  10.055 -0.4843 -0.0517  0.3230
  134SAPE    HX14459   6.002   2.424  10.117 -0.9246 -2.5049  2.0130
  134SAPE    HY14460   6.025   2.274  10.046  0.1052 -0.4059  0.6685
  134SAPE   O3114461   6.088   2.427   9.922 -0.3094 -0.1612 -0.0056
  134SAPE   C3114462   6.090   2.557   9.909  0.1459 -0.4340  0.0614
  134SAPE   O3214463   6.056   2.637   9.991 -0.0312 -0.0843  0.0015
  134SAPE   C3214464   6.123   2.599   9.762  0.2506  0.3000 -0.4675
  134SAPE   H2X14465   6.138   2.508   9.701  1.4270  0.8066 -0.9757
  134SAPE   H2Y14466   6.215   2.661   9.753 -0.0565  0.5876 -1.9100
  134SAPE   C2314467   6.527   2.683  10.144 -0.0779  0.0536 -0.0237
  134SAPE   H3R14468   6.607   2.606  10.155 -1.7652 -1.8465 -0.3574
  134SAPE   H3S14469   6.561   2.785  10.171 -0.2575  0.5585 -1.6012
  134SAPE   C2414470   6.473   2.685   9.998 -0.1564 -0.1621  0.3278
  134SAPE   H4R14471   6.414   2.593   9.982  0.2847 -0.2083 -1.1864
  134SAPE   H4S14472   6.561   2.686   9.929 -0.8195 -0.4991 -0.5408
  134SAPE   C2514473   6.379   2.800   9.970 -0.9046  0.4938 -0.2794
  134SAPE   H5R14474   6.316   2.829  10.055 -0.1778  1.3744 -0.0367
  134SAPE   C2614475   6.372   2.872   9.855  0.1492 -0.0108  0.4756
  134SAPE   H6R14476   6.309   2.962   9.857  2.0568  1.3763  0.8917
  134SAPE   C2714477   6.442   2.846   9.725 -0.0473 -0.2115  0.0902
  134SAPE   H7R14478   6.472   2.739   9.730  0.0691 -0.1590  0.5318
  134SAPE   H7S14479   6.535   2.908   9.725 -0.3864  0.3071 -0.3800
  134SAPE   C2814480   6.369   2.865   9.592  1.0845  0.2536  0.7973
  134SAPE   H8R14481   6.266   2.826   9.592  0.9444  0.4939 -1.2671
  134SAPE   C2914482   6.400   2.926   9.477 -0.8783  0.2552 -0.4898
  134SAPE   H9R14483   6.323   2.950   9.404 -2.0245  0.4075  0.7264
  134SAPE  C21014484   6.528   3.000   9.451 -0.7126  0.0806 -0.2189
  134SAPE  H10R14485   6.569   2.982   9.350  2.6121  1.3567  0.7792
  134SAPE  H10S14486   6.598   2.952   9.523  1.1121 -1.5177 -2.8869
  134SAPE  C21114487   6.512   3.145   9.472 -0.9351 -0.9874 -0.3079
  134SAPE  H11R14488   6.485   3.178   9.573  0.3349  1.6966 -0.7545
  134SAPE  C21214489   6.530   3.248   9.384  0.2047 -0.3590 -0.0172
  134SAPE  H12R14490   6.511   3.353   9.410  2.7180  0.1812 -0.1091
  134SAPE  C21314491   6.562   3.233   9.240  0.5106  0.2945 -0.4139
  134SAPE  H13R14492   6.524   3.319   9.181 -0.9692 -0.6154 -0.8303
  134SAPE  H13S14493   6.503   3.144   9.210 -0.7690  0.2221  1.9915
  134SAPE  C21414494   6.713   3.231   9.215  0.5188 -0.2213  0.0943
  134SAPE  H14R14495   6.778   3.281   9.288 -0.2096 -1.4580  1.6371
  134SAPE  C21514496   6.770   3.154   9.124  0.1023  0.7473  0.2436
  134SAPE  H15R14497   6.880   3.146   9.118 -0.0259 -2.3437  0.5367
  134SAPE  C21614498   6.697   3.059   9.023 -0.1800  0.0743 -1.0475
  134SAPE  H16R14499   6.588   3.064   9.040  0.0872  1.6307  0.6162
  134SAPE  H16S14500   6.728   2.955   9.044 -1.2134 -0.2757 -1.2485
  134SAPE  C21714501   6.748   3.078   8.880  0.2507 -0.6860 -0.5781
  134SAPE  H17R14502   6.727   2.984   8.824 -0.6650 -0.2954 -0.9055
  134SAPE  H17S14503   6.857   3.100   8.879  0.0260  1.9118  4.0925
  134SAPE  C21814504   6.663   3.193   8.811 -0.0018 -0.4836 -0.1495
  134SAPE  H18R14505   6.687   3.287   8.864  1.0146  0.0739 -1.5354
  134SAPE  H18S14506   6.558   3.165   8.831 -0.1732  1.6080  2.3393
  134SAPE  C21914507   6.688   3.212   8.660 -0.2348  0.8625 -0.6239
  134SAPE  H19R14508   6.632   3.305   8.635 -2.9305 -0.3715  0.4232
  134SAPE  H19S14509   6.646   3.122   8.610  0.2365 -1.5347  3.0041
  134SAPE  C22014510   6.832   3.231   8.639 -0.2790 -0.3760  0.5210
  134SAPE  H20R14511   6.878   3.299   8.714  1.1170 -1.4887  0.7192
  134SAPE  H20S14512   6.866   3.257   8.536  3.5396  0.4231  1.8093
  134SAPE  H20T14513   6.886   3.135   8.654 -0.0365 -0.4474 -0.7130
  134SAPE   C3314514   6.004   2.681   9.709  1.0533  0.9666 -0.2533
  134SAPE   H3X14515   5.982   2.786   9.740 -1.0904  1.1500 -2.1519
  134SAPE   H3Y14516   5.919   2.616   9.740  0.2484  2.5681  1.0887
  134SAPE   C3414517   5.983   2.661   9.554 -0.0414 -0.0805 -0.4048
  134SAPE   H4X14518   5.988   2.554   9.525  0.1626  0.5179 -2.6921
  134SAPE   H4Y14519   6.059   2.720   9.498  0.6090 -0.0724  0.4506
  134SAPE   C3514520   5.835   2.708   9.511 -0.3866 -0.4375  0.5177
  134SAPE   H5X14521   5.848   2.815   9.535  0.8512 -0.1440 -1.2950
  134SAPE   H5Y14522   5.756   2.664   9.577  0.9546 -1.6371  1.3882
  134SAPE   C3614523   5.809   2.692   9.362  0.4206 -0.0332  0.5344
  134SAPE   H6X14524   5.758   2.596   9.340 -1.2512  1.1072 -0.8133
  134SAPE   H6Y14525   5.904   2.689   9.305 -0.3125 -0.5841 -0.7064
  134SAPE   C3714526   5.725   2.802   9.301 -0.0209  0.2588  0.3515
  134SAPE   H7X14527   5.753   2.904   9.332 -4.1229  1.6773 -0.0841
  134SAPE   H7Y14528   5.620   2.792   9.337 -0.4959  0.5377 -0.8869
  134SAPE   C3814529   5.729   2.814   9.147 -0.3572  0.3220  0.4341
  134SAPE   H8X14530   5.684   2.727   9.093  0.3281  0.2963 -0.1133
  134SAPE   H8Y14531   5.827   2.842   9.103 -0.8885  1.1743 -0.2275
  134SAPE   C3914532   5.636   2.933   9.117 -0.3157 -0.3466  0.3851
  134SAPE   H9X14533   5.673   3.020   9.174  1.2461 -0.4040 -0.4817
  134SAPE   H9Y14534   5.530   2.904   9.138 -0.0793 -2.1177 -0.5716
  134SAPE  C31014535   5.632   2.985   8.966 -0.3403  0.9296 -0.6263
  134SAPE  H10X14536   5.723   3.049   8.970  0.7016 -0.5425  1.8083
  134SAPE  H10Y14537   5.551   3.057   8.942 -1.2792  0.8034  1.8206
  134SAPE  C31114538   5.612   2.874   8.861  0.2268 -0.7256 -0.8525
  134SAPE  H11X14539   5.512   2.831   8.885  0.5118 -0.5013  0.8539
  134SAPE  H11Y14540   5.689   2.795   8.875 -1.5135 -2.3397  0.1501
  134SAPE  C31214541   5.602   2.931   8.719 -0.4236 -0.0282 -0.0568
  134SAPE  H12X14542   5.519   3.005   8.714 -0.4939 -0.0937  0.1000
  134SAPE  H12Y14543   5.562   2.849   8.656 -1.1077 -0.2919  0.6897
  134SAPE  C31314544   5.729   2.993   8.673  0.2748 -0.1453 -0.6121
  134SAPE  H13X14545   5.790   2.912   8.627 -0.5180 -1.9501  1.3604
  134SAPE  H13Y14546   5.788   3.028   8.760 -0.6160  2.5339 -0.9808
  134SAPE  C31414547   5.709   3.115   8.583 -0.0850 -0.1111  0.3190
  134SAPE  H14X14548   5.649   3.191   8.638  0.4177  1.5021 -1.2399
  134SAPE  H14Y14549   5.655   3.074   8.495  0.8250  2.2987 -1.4990
  134SAPE  C31514550   5.840   3.184   8.533 -0.4787 -0.2011 -0.2581
  134SAPE  H15X14551   5.803   3.249   8.451 -1.6699 -1.6164 -0.8912
  134SAPE  H15Y14552   5.918   3.116   8.493  0.8831  0.8938  0.4866
  134SAPE  C31614553   5.902   3.266   8.647 -0.3193  0.4593  1.2613
  134SAPE  H16X14554   5.995   3.216   8.682 -0.5601  0.4476  1.8959
  134SAPE  H16Y14555   5.835   3.290   8.733 -0.2652  2.5463  0.7905
  134SAPE  C31714556   5.927   3.409   8.588  0.0495 -0.0180  0.0469
  134SAPE  H17X14557   5.832   3.441   8.540  0.4797 -1.0373 -1.5753
  134SAPE  H17Y14558   6.004   3.398   8.509  0.5259  0.3880  0.4540
  134SAPE  C31814559   5.976   3.502   8.703  0.0350  0.1820 -0.0321
  134SAPE  H18X14560   6.019   3.597   8.666 -2.1316  1.2051 -0.1124
  134SAPE  H18Y14561   6.061   3.461   8.761 -0.4698 -0.6382  0.1438
  134SAPE  H18Z14562   5.890   3.518   8.772 -0.0838  0.6493 -0.2842
  135SAPE     N14563   6.144   1.726  10.636  0.3629 -0.6045  0.5583
  135SAPE   HN114564   6.058   1.723  10.578  0.6636  0.0945  0.0639
  135SAPE   HN214565   6.142   1.641  10.696 -1.2907 -0.9886 -0.0093
  135SAPE   HN314566   6.157   1.808  10.699  1.0314 -2.1748  2.6140
  135SAPE   C1214567   6.256   1.700  10.536  0.0257 -0.0632 -1.0387
  135SAPE  H12A14568   6.349   1.674  10.592  1.0065 -1.3978 -3.1547
  135SAPE  H12B14569   6.271   1.794  10.480 -1.4350  1.0808  0.4119
  135SAPE   C1114570   6.221   1.587  10.443  0.4479  0.3994 -0.0719
  135SAPE  H11A14571   6.304   1.565  10.372  0.7100 -1.0599  0.6351
  135SAPE  H11B14572   6.144   1.623  10.372  2.5735 -1.0948 -3.3982
  135SAPE     P14573   6.270   1.346  10.534  0.3657 -0.0060  0.1190
  135SAPE   O1314574   6.343   1.392  10.657  0.5689  0.2624  0.6582
  135SAPE   O1414575   6.191   1.222  10.545 -0.2687 -0.1298  0.1535
  135SAPE   O1214576   6.174   1.467  10.503  0.1846  0.2097 -0.4161
  135SAPE   O1114577   6.349   1.348  10.404  0.6586 -0.0712  0.6334
  135SAPE    C114578   6.490   1.370  10.404  0.7573  0.2928  0.7812
  135SAPE    HA14579   6.517   1.429  10.314 -1.4169 -1.1483 -0.9243
  135SAPE    HB14580   6.532   1.425  10.491  0.3018 -1.2468  2.0204
  135SAPE    C214581   6.569   1.235  10.372  0.8550  0.7650  0.1272
  135SAPE    HS14582   6.676   1.257  10.352  1.5608 -3.3124 -1.4333
  135SAPE   O2114583   6.514   1.167  10.256 -0.2950  0.6434 -0.0524
  135SAPE   C2114584   6.549   1.225  10.142  0.2727  0.9526 -0.1929
  135SAPE   O2214585   6.626   1.316  10.131  0.3427 -0.1785  0.3298
  135SAPE   C2214586   6.455   1.177  10.031  0.0005  0.5464 -0.7644
  135SAPE   H2R14587   6.449   1.067  10.044 -2.8562  0.8814  1.6113
  135SAPE   H2S14588   6.351   1.216  10.036 -0.5672 -1.0349  1.1325
  135SAPE    C314589   6.569   1.140  10.496  0.0026 -0.2586  0.5812
  135SAPE    HX14590   6.471   1.150  10.548  0.2823 -1.2215  1.2986
  135SAPE    HY14591   6.631   1.177  10.580 -1.9690  2.5426  0.9459
  135SAPE   O3114592   6.580   0.997  10.466  0.7611  0.1246  0.2232
  135SAPE   C3114593   6.705   0.956  10.468 -0.0850 -0.3257 -1.0262
  135SAPE   O3214594   6.801   1.022  10.499  0.2602  0.0321 -0.1797
  135SAPE   C3214595   6.710   0.801  10.461  0.0094  0.8105  0.8575
  135SAPE   H2X14596   6.626   0.760  10.402  0.3074  0.2262  0.8361
  135SAPE   H2Y14597   6.700   0.771  10.567  0.1280  0.3573  0.7412
  135SAPE   C2314598   6.514   1.197   9.890  0.2821 -0.2012 -0.9180
  135SAPE   H3R14599   6.613   1.150   9.871  1.1545  0.6640  1.1231
  135SAPE   H3S14600   6.524   1.308   9.880 -1.3160  0.0968  0.2483
  135SAPE   C2414601   6.435   1.136   9.762 -0.6389  0.1052 -0.6988
  135SAPE   H4R14602   6.387   1.041   9.795 -0.0133 -0.0051 -0.0516
  135SAPE   H4S14603   6.501   1.103   9.679 -1.2643  0.7230 -1.4471
  135SAPE   C2514604   6.328   1.224   9.714 -0.5516 -0.0304  0.6540
  135SAPE   H5R14605   6.238   1.230   9.776 -1.3207 -1.1516 -0.3019
  135SAPE   C2614606   6.339   1.282   9.590 -0.3104 -0.2635  0.0738
  135SAPE   H6R14607   6.258   1.352   9.563 -0.2746 -0.8819 -1.8255
  135SAPE   C2714608   6.443   1.268   9.490 -0.2831  0.0840 -0.1353
  135SAPE   H7R14609   6.546   1.243   9.523 -0.3685  0.1223  0.1582
  135SAPE   H7S14610   6.457   1.369   9.445  0.3816  0.4428  0.8552
  135SAPE   C2814611   6.411   1.150   9.395  0.0638 -0.1639  0.3314
  135SAPE   H8R14612   6.364   1.060   9.439  0.4816 -1.3449 -1.5311
  135SAPE   C2914613   6.434   1.142   9.265  0.2533  0.2863  0.0241
  135SAPE   H9R14614   6.391   1.051   9.219  0.2847  0.7718 -0.9960
  135SAPE  C21014615   6.498   1.249   9.182 -0.4578  0.6100 -0.4729
  135SAPE  H10R14616   6.546   1.327   9.245  0.2463 -0.2439  0.0825
  135SAPE  H10S14617   6.426   1.298   9.114 -0.1719  1.0941 -0.4344
  135SAPE  C21114618   6.603   1.187   9.094 -0.0862  0.6822 -0.6008
  135SAPE  H11R14619   6.679   1.119   9.134  1.1937  1.8109 -1.0558
  135SAPE  C21214620   6.606   1.213   8.963  0.1605  0.4025 -0.6190
  135SAPE  H12R14621   6.690   1.171   8.906  1.0722  2.1341 -0.6030
  135SAPE  C21314622   6.514   1.294   8.877 -0.2171 -0.7341 -0.0164
  135SAPE  H13R14623   6.579   1.351   8.807  1.5946 -0.7745  1.5349
  135SAPE  H13S14624   6.463   1.377   8.931  1.5549 -0.8256  1.9363
  135SAPE  C21414625   6.409   1.224   8.801 -0.7350  0.1343 -0.1964
  135SAPE  H14R14626   6.336   1.193   8.877 -0.1223  1.3550  0.9480
  135SAPE  C21514627   6.408   1.211   8.670  0.3033  0.5037  0.1443
  135SAPE  H15R14628   6.334   1.150   8.616  1.4147 -0.7683  0.0007
  135SAPE  C21614629   6.495   1.273   8.573 -1.2099  0.1043  0.1836
  135SAPE  H16R14630   6.598   1.253   8.608 -0.9176  0.1088 -0.6537
  135SAPE  H16S14631   6.495   1.384   8.579  1.1071  0.0842  1.6180
  135SAPE  C21714632   6.479   1.230   8.424 -0.0380 -0.1027  0.1045
  135SAPE  H17R14633   6.536   1.296   8.356 -1.5330  0.8073 -0.3207
  135SAPE  H17S14634   6.371   1.252   8.409 -0.0421  0.6073  1.0722
  135SAPE  C21814635   6.517   1.082   8.395  0.3936 -0.3151  0.1135
  135SAPE  H18R14636   6.441   1.026   8.454  0.0773 -0.7927 -0.7393
  135SAPE  H18S14637   6.623   1.077   8.428  1.7752  1.3447 -3.5219
  135SAPE  C21914638   6.505   1.048   8.246 -0.7640 -0.7322 -0.2023
  135SAPE  H19R14639   6.556   1.134   8.198  0.0452 -0.2203  1.5036
  135SAPE  H19S14640   6.398   1.060   8.218 -0.6042 -2.5298 -1.7773
  135SAPE  C22014641   6.555   0.914   8.203  0.0026  0.9538 -0.1504
  135SAPE  H20R14642   6.522   0.830   8.268  0.4239  0.3164 -0.7450
  135SAPE  H20S14643   6.664   0.905   8.186  0.1070 -2.4852  1.5671
  135SAPE  H20T14644   6.512   0.879   8.107 -0.1666 -1.6810  0.8045
  135SAPE   C3314645   6.837   0.743  10.406 -0.5531 -0.0746  0.5551
  135SAPE   H3X14646   6.848   0.637  10.439  0.3358 -0.0890  0.2342
  135SAPE   H3Y14647   6.926   0.792  10.451  0.5416  0.1430 -1.7351
  135SAPE   C3414648   6.853   0.747  10.257  0.7797  0.1681  0.0077
  135SAPE   H4X14649   6.769   0.696  10.205  1.3053  0.2514 -0.9655
  135SAPE   H4Y14650   6.944   0.683  10.244  1.1409  0.8959 -1.1780
  135SAPE   C3514651   6.893   0.889  10.200  0.0632 -0.0473 -0.0108
  135SAPE   H5X14652   6.963   0.930  10.276  2.3096 -3.5365  0.0348
  135SAPE   H5Y14653   6.804   0.955  10.196 -0.6772 -0.9140  1.5118
  135SAPE   C3614654   6.949   0.868  10.058 -0.0738  0.2024 -0.0535
  135SAPE   H6X14655   6.877   0.885   9.975 -2.1091 -4.6195  0.4332
  135SAPE   H6Y14656   6.985   0.763  10.053 -1.2009 -0.3157  1.7367
  135SAPE   C3714657   7.070   0.965  10.037  0.2270  0.5172  0.0001
  135SAPE   H7X14658   7.144   0.948  10.118 -0.4321  0.1781  0.5413
  135SAPE   H7Y14659   7.038   1.071  10.037 -2.3115 -0.1528  1.7469
  135SAPE   C3814660   7.129   0.929   9.912 -0.5507  0.0579 -0.2257
  135SAPE   H8X14661   7.067   0.963   9.826 -1.7141 -0.7422  0.2802
  135SAPE   H8Y14662   7.134   0.820   9.891 -0.0865  0.3377 -1.7376
  135SAPE   C3914663   7.265   0.989   9.902  0.6124  0.0287  0.6474
  135SAPE   H9X14664   7.328   0.930   9.972 -0.0417 -0.0173  1.2067
  135SAPE   H9Y14665   7.267   1.092   9.944  2.4925  0.5929 -0.6890
  135SAPE  C31014666   7.337   0.988   9.765  1.3306  0.0829  0.1227
  135SAPE  H10X14667   7.261   1.012   9.687  1.6224 -3.7946 -1.5754
  135SAPE  H10Y14668   7.367   0.887   9.729  1.6838  0.5351 -0.8742
  135SAPE  C31114669   7.446   1.095   9.758 -0.3224 -0.1464  0.8817
  135SAPE  H11X14670   7.519   1.062   9.835  0.0174 -0.0614  0.5947
  135SAPE  H11Y14671   7.406   1.198   9.770  1.7584  0.9582 -0.8328
  135SAPE  C31214672   7.518   1.110   9.620  0.5997 -0.1887  0.2213
  135SAPE  H12X14673   7.585   1.026   9.593 -0.8420 -1.0360 -0.8062
  135SAPE  H12Y14674   7.575   1.204   9.637  1.5171 -0.8393  0.8029
  135SAPE  C31314675   7.421   1.109   9.506 -0.2089 -0.0632 -0.3003
  135SAPE  H13X14676   7.348   1.188   9.532 -0.1213 -0.2453  0.5103
  135SAPE  H13Y14677   7.368   1.012   9.496 -2.1397  0.5657  2.7103
  135SAPE  C31414678   7.491   1.124   9.373 -0.8283  0.7346 -0.9567
  135SAPE  H14X14679   7.560   1.037   9.361  0.5020  1.4029  1.3587
  135SAPE  H14Y14680   7.551   1.217   9.365  1.0587 -0.4125 -0.8904
  135SAPE  C31514681   7.379   1.120   9.262  0.1993 -0.5516  0.0054
  135SAPE  H15X14682   7.306   1.202   9.280  2.0092  1.5685 -1.6974
  135SAPE  H15Y14683   7.338   1.018   9.280  1.9905 -0.8885  2.6317
  135SAPE  C31614684   7.410   1.110   9.114 -0.5482 -0.9194  0.2533
  135SAPE  H16X14685   7.318   1.071   9.066 -1.1186  0.3306  0.2882
  135SAPE  H16Y14686   7.495   1.039   9.100  1.6058  1.6987 -1.0663
  135SAPE  C31714687   7.445   1.251   9.053 -0.4507 -0.0115  0.5170
  135SAPE  H17X14688   7.517   1.306   9.117  0.0229  1.9109 -1.5446
  135SAPE  H17Y14689   7.356   1.318   9.055 -1.1399 -0.9042  0.6250
  135SAPE  C31814690   7.481   1.245   8.906 -0.5353 -0.4082  0.3060
  135SAPE  H18X14691   7.581   1.198   8.895  0.2673  1.3046 -0.1091
  135SAPE  H18Y14692   7.496   1.343   8.856 -0.4512 -1.4734 -1.8421
  135SAPE  H18Z14693   7.412   1.175   8.855 -0.6181 -0.4253  0.4407
  136SAPE     N14694   1.964   2.053  11.010  0.2757 -0.3720 -0.3109
  136SAPE   HN114695   2.062   2.021  11.003  0.5182  0.0753  0.8389
  136SAPE   HN214696   1.969   2.155  10.987 -0.5582 -0.3212 -0.3098
  136SAPE   HN314697   1.935   2.043  11.109 -1.9256  0.3307 -0.8148
  136SAPE   C1214698   1.874   1.966  10.931 -0.4598  0.0588  0.9530
  136SAPE  H12A14699   1.778   2.020  10.916 -0.8888 -0.6604  1.0423
  136SAPE  H12B14700   1.875   1.872  10.991  2.2379  1.1521  2.8291
  136SAPE   C1114701   1.949   1.921  10.801  0.0928 -0.4713  0.0967
  136SAPE  H11A14702   1.952   2.019  10.749  1.0746 -0.8139 -0.5155
  136SAPE  H11B14703   1.890   1.847  10.742 -0.8298  1.1224 -1.0561
  136SAPE     P14704   2.154   1.757  10.757  0.1222  0.0835  0.0291
  136SAPE   O1314705   2.300   1.784  10.762 -0.2624 -0.0291  0.1674
  136SAPE   O1414706   2.104   1.634  10.825  0.5161  0.1791 -0.3804
  136SAPE   O1214707   2.080   1.883  10.834 -0.0397  0.3367  0.0176
  136SAPE   O1114708   2.093   1.763  10.615 -0.4487 -0.2494 -0.0028
  136SAPE    C114709   2.123   1.854  10.515 -0.0032 -0.2333 -0.3917
  136SAPE    HA14710   2.025   1.897  10.486 -0.8601 -1.3898  0.6857
  136SAPE    HB14711   2.177   1.948  10.542 -0.7512  1.0290 -2.9248
  136SAPE    C214712   2.189   1.796  10.385  0.3708 -0.1149 -0.4101
  136SAPE    HS14713   2.188   1.871  10.303  0.3366 -2.9345 -3.1887
  136SAPE   O2114714   2.129   1.678  10.340 -0.2351  0.3641 -0.8699
  136SAPE   C2114715   2.019   1.693  10.269  0.1935 -0.0430  0.4802
  136SAPE   O2214716   1.954   1.795  10.261  0.0185 -0.5866  0.0639
  136SAPE   C2214717   1.992   1.565  10.198  0.4578 -0.1241 -0.0161
  136SAPE   H2R14718   2.065   1.552  10.115  2.1713  0.0017  1.4218
  136SAPE   H2S14719   2.008   1.478  10.264  2.7163  0.3084  0.0868
  136SAPE    C314720   2.340   1.773  10.412 -0.2205  0.5080 -0.3737
  136SAPE    HX14721   2.354   1.718  10.508  0.8572  0.3512 -0.6013
  136SAPE    HY14722   2.380   1.876  10.428  2.3968 -0.2024 -1.7343
  136SAPE   O3114723   2.396   1.718  10.292 -1.4056  0.5021  0.5179
  136SAPE   C3114724   2.436   1.591  10.303  0.0797 -0.4908 -0.1696
  136SAPE   O3214725   2.417   1.517  10.402 -0.7210  0.5955 -0.0990
  136SAPE   C3214726   2.493   1.548  10.168  0.4919  0.4116 -0.8326
  136SAPE   H2X14727   2.586   1.491  10.189 -1.0693 -1.2510  2.3194
  136SAPE   H2Y14728   2.516   1.635  10.103  1.5112  0.1022 -0.9039
  136SAPE   C2314729   1.844   1.557  10.140 -0.6036 -0.0536 -0.0779
  136SAPE   H3R14730   1.781   1.612  10.214 -2.2065 -0.4101 -1.1170
  136SAPE   H3S14731   1.805   1.453  10.153 -1.9019  0.3799 -0.2814
  136SAPE   C2414732   1.834   1.615   9.998  0.5745  0.2048  0.3781
  136SAPE   H4R14733   1.915   1.569   9.938  1.4200  0.9267  0.9274
  136SAPE   H4S14734   1.828   1.726  10.002  0.3047  0.2204 -0.4038
  136SAPE   C2514735   1.698   1.571   9.945 -0.0172  0.1582 -0.3809
  136SAPE   H5R14736   1.611   1.602  10.006  1.6407  1.1656  1.6093
  136SAPE   C2614737   1.679   1.500   9.832 -0.4270 -1.1952  0.0556
  136SAPE   H6R14738   1.574   1.475   9.810 -1.2491  1.7299  0.2891
  136SAPE   C2714739   1.777   1.447   9.734  0.3154  0.1573  0.1996
  136SAPE   H7R14740   1.749   1.341   9.717 -1.1340  0.1878  2.0327
  136SAPE   H7S14741   1.883   1.455   9.764  0.7677 -0.1145 -1.2395
  136SAPE   C2814742   1.778   1.513   9.598  0.3470 -0.6005 -0.2431
  136SAPE   H8R14743   1.807   1.619   9.604 -2.1544  0.0872  1.4383
  136SAPE   C2914744   1.732   1.469   9.481  0.2987  0.1334 -0.2815
  136SAPE   H9R14745   1.734   1.544   9.400  0.1113  1.5738  0.9972
  136SAPE  C21014746   1.660   1.337   9.444  0.1022  0.0457 -0.1274
  136SAPE  H10R14747   1.576   1.351   9.372 -0.3922 -0.1835  0.3940
  136SAPE  H10S14748   1.599   1.307   9.532  3.8405 -3.6805  1.5326
  136SAPE  C21114749   1.749   1.215   9.427  0.1911 -0.2232 -0.4580
  136SAPE  H11R14750   1.767   1.167   9.524 -1.4616 -0.4199 -0.2254
  136SAPE  C21214751   1.779   1.159   9.305  0.2814  0.3294 -0.1620
  136SAPE  H12R14752   1.849   1.074   9.307  1.4341  1.1586  3.4512
  136SAPE  C21314753   1.729   1.212   9.170  0.4937 -0.4801 -0.4279
  136SAPE  H13R14754   1.632   1.263   9.190  1.0681  1.1573 -1.5852
  136SAPE  H13S14755   1.692   1.135   9.099  1.2558  0.1358 -1.5209
  136SAPE  C21414756   1.815   1.323   9.105  0.6898  0.0378 -0.1161
  136SAPE  H14R14757   1.884   1.371   9.176  0.0017 -1.0421  1.3129
  136SAPE  C21514758   1.822   1.357   8.973  0.3602  0.7624 -0.6757
  136SAPE  H15R14759   1.882   1.443   8.939 -2.5479  3.1290 -0.1926
  136SAPE  C21614760   1.737   1.297   8.872 -0.2579 -0.4687 -0.2291
  136SAPE  H16R14761   1.687   1.372   8.807  1.2356  0.5566 -0.2492
  136SAPE  H16S14762   1.655   1.242   8.924  1.5782 -2.4424  0.7022
  136SAPE  C21714763   1.814   1.203   8.774  0.4428 -0.1982 -0.1039
  136SAPE  H17R14764   1.735   1.147   8.719 -0.9934 -0.5695  2.2281
  136SAPE  H17S14765   1.887   1.137   8.825  1.8236  1.2862 -0.0780
  136SAPE  C21814766   1.897   1.287   8.666 -0.0145  0.1812 -0.2630
  136SAPE  H18R14767   1.953   1.362   8.726 -0.7698 -0.5140  1.3939
  136SAPE  H18S14768   1.828   1.346   8.602  2.1136 -1.3667 -4.3122
  136SAPE  C21914769   1.978   1.189   8.584 -0.1461  0.5169  0.1752
  136SAPE  H19R14770   1.914   1.115   8.531 -0.6359  1.6766 -0.9195
  136SAPE  H19S14771   2.035   1.139   8.665 -1.1353  1.4135  1.4524
  136SAPE  C22014772   2.071   1.244   8.474  0.4545 -0.8648 -0.4747
  136SAPE  H20R14773   2.172   1.197   8.480  1.3043  0.9837  0.9542
  136SAPE  H20S14774   2.103   1.350   8.489  0.6912 -0.8319 -1.1525
  136SAPE  H20T14775   2.026   1.228   8.374 -1.2437 -0.1432  0.1350
  136SAPE   C3314776   2.381   1.446  10.113 -0.4046  0.5084 -0.1057
  136SAPE   H3X14777   2.323   1.511  10.043  0.2069 -0.6645 -1.7647
  136SAPE   H3Y14778   2.318   1.400  10.191  1.1507 -1.8312 -0.1356
  136SAPE   C3414779   2.434   1.332  10.030 -0.1632 -0.0410  0.1042
  136SAPE   H4X14780   2.365   1.250  10.002  1.3897 -1.9714  1.6064
  136SAPE   H4Y14781   2.522   1.283  10.077  0.7873  0.5178 -1.0595
  136SAPE   C3514782   2.479   1.385   9.897  0.8639 -0.6278 -0.1684
  136SAPE   H5X14783   2.568   1.444   9.928 -0.4809  1.2488  0.2826
  136SAPE   H5Y14784   2.399   1.446   9.850  0.1189 -0.0827  1.7492
  136SAPE   C3614785   2.522   1.281   9.802 -0.2786 -0.6497 -0.4539
  136SAPE   H6X14786   2.445   1.205   9.777 -0.7356  0.5779 -3.1647
  136SAPE   H6Y14787   2.607   1.226   9.847 -2.1794 -0.5449  3.6733
  136SAPE   C3714788   2.579   1.349   9.677  0.1934 -0.3304 -0.0125
  136SAPE   H7X14789   2.690   1.352   9.684  0.1739 -1.8424  1.5145
  136SAPE   H7Y14790   2.534   1.450   9.664  1.5167  0.1501 -1.1496
  136SAPE   C3814791   2.552   1.275   9.550 -0.3901  0.0392  0.5118
  136SAPE   H8X14792   2.441   1.275   9.542 -0.3043  0.4464 -0.8820
  136SAPE   H8Y14793   2.595   1.174   9.566 -0.9468 -0.0530  1.5423
  136SAPE   C3914794   2.633   1.341   9.435  0.4874  0.2271 -0.5948
  136SAPE   H9X14795   2.720   1.385   9.488  0.4273 -1.9810  1.5247
  136SAPE   H9Y14796   2.575   1.431   9.407 -0.7758  0.1338  1.4647
  136SAPE  C31014797   2.660   1.262   9.315 -0.8097  0.3586  0.9362
  136SAPE  H10X14798   2.569   1.246   9.254  0.1236 -0.1437 -0.3727
  136SAPE  H10Y14799   2.680   1.153   9.322 -0.8845  0.1509 -1.4389
  136SAPE  C31114800   2.766   1.324   9.220  0.0541  0.3253  1.4159
  136SAPE  H11X14801   2.869   1.293   9.247 -0.5026 -1.6129  1.4547
  136SAPE  H11Y14802   2.764   1.435   9.215  1.8213  0.3121 -0.9356
  136SAPE  C31214803   2.735   1.281   9.074 -0.4357  0.3838  0.0838
  136SAPE  H12X14804   2.631   1.299   9.039 -0.8138 -2.2851 -0.4464
  136SAPE  H12Y14805   2.736   1.170   9.070  0.6045  0.3843  0.2377
  136SAPE  C31314806   2.825   1.336   8.963  0.0914  0.2276 -0.0512
  136SAPE  H13X14807   2.933   1.336   8.985  0.2064  1.6017 -0.5189
  136SAPE  H13Y14808   2.809   1.446   8.957  2.1981  0.6945  1.8206
  136SAPE  C31414809   2.789   1.271   8.831 -0.1162  0.0318  0.2010
  136SAPE  H14X14810   2.681   1.289   8.813  0.0310 -0.2597 -1.1546
  136SAPE  H14Y14811   2.802   1.160   8.836  0.9412  0.0553 -1.2563
  136SAPE  C31514812   2.873   1.331   8.718  0.2345 -0.2005  0.9122
  136SAPE  H15X14813   2.850   1.440   8.716 -1.2401 -0.4829  0.7545
  136SAPE  H15Y14814   2.818   1.302   8.626  0.7555 -1.1674  0.8974
  136SAPE  C31614815   3.019   1.290   8.728  1.4733 -0.3007  0.5487
  136SAPE  H16X14816   3.026   1.179   8.727 -0.6069 -0.4772 -0.0834
  136SAPE  H16Y14817   3.061   1.314   8.827 -0.3076 -0.7158  1.4398
  136SAPE  C31714818   3.107   1.344   8.621 -0.4883  0.4966  0.0032
  136SAPE  H17X14819   3.080   1.310   8.519  0.7528 -0.2736 -0.0901
  136SAPE  H17Y14820   3.203   1.291   8.639  1.5873  2.6969 -3.3818
  136SAPE  C31814821   3.132   1.491   8.633  0.4220  0.4970  1.0745
  136SAPE  H18X14822   3.211   1.514   8.559 -1.5083  0.7430 -1.0233
  136SAPE  H18Y14823   3.167   1.513   8.736  1.3041  2.0412  0.4748
  136SAPE  H18Z14824   3.045   1.553   8.602  1.2771  1.5620  0.7502
  137SAPE     N14825   0.256   3.543  10.670 -0.3931 -0.3380 -1.1105
  137SAPE   HN114826   0.295   3.598  10.749  0.1446 -2.0859 -0.1109
  137SAPE   HN214827   0.316   3.459  10.665 -1.0684 -0.8799 -0.4116
  137SAPE   HN314828   0.258   3.595  10.580  0.7438 -1.2918 -1.6546
  137SAPE   C1214829   0.116   3.505  10.706 -0.2736  0.1686 -0.8004
  137SAPE  H12A14830   0.122   3.451  10.804 -0.5259  1.4418 -0.0642
  137SAPE  H12B14831   0.078   3.441  10.624 -1.7073  0.4919 -0.4109
  137SAPE   C1114832   0.022   3.629  10.711  0.2058  0.2967  1.2938
  137SAPE  H11A14833  -0.065   3.609  10.777 -1.5190  0.4191 -0.8390
  137SAPE  H11B14834  -0.024   3.644  10.611  2.4820 -1.7835 -0.1930
  137SAPE     P14835   0.070   3.843  10.857 -0.3480  0.1762 -0.0712
  137SAPE   O1314836   0.009   3.773  10.975  0.1561  0.2353  0.2801
  137SAPE   O1414837   0.198   3.915  10.889 -0.0466  0.4570 -0.3053
  137SAPE   O1214838   0.101   3.747  10.745 -0.4135  0.5264  0.8410
  137SAPE   O1114839  -0.034   3.946  10.803 -0.0725 -0.4506  0.0991
  137SAPE    C114840  -0.106   3.925  10.684  0.1442 -0.1684  0.3093
  137SAPE    HA14841  -0.041   3.904  10.596 -0.6337 -0.4126 -0.2156
  137SAPE    HB14842  -0.179   3.842  10.694 -0.7987  0.5359 -0.5668
  137SAPE    C214843  -0.180   4.055  10.640 -0.6475  0.2265  0.7873
  137SAPE    HS14844  -0.260   4.081  10.712 -2.6950 -1.2553 -0.8265
  137SAPE   O2114845  -0.242   4.033  10.514  0.2140  0.1842  0.2649
  137SAPE   C2114846  -0.312   4.134  10.468  0.0475  0.1059  0.0507
  137SAPE   O2214847  -0.365   4.223  10.530 -0.5938  0.1319  0.2154
  137SAPE   C2214848  -0.351   4.105  10.324  0.0445 -0.7570 -0.6583
  137SAPE   H2R14849  -0.262   4.124  10.261 -0.3927  1.4540 -0.6873
  137SAPE   H2S14850  -0.395   4.004  10.311 -0.1550 -1.0254  1.6395
  137SAPE    C314851  -0.079   4.168  10.631  0.0682 -0.0829 -0.2938
  137SAPE    HX14852  -0.036   4.181  10.733 -0.0503  0.2189 -0.2803
  137SAPE    HY14853  -0.120   4.269  10.607  0.7843  0.6214  1.2871
  137SAPE   O3114854   0.032   4.124  10.542  0.1511 -0.1376 -0.4175
  137SAPE   C3114855   0.122   4.217  10.522 -0.2849 -0.4800  0.2074
  137SAPE   O3214856   0.127   4.331  10.569  0.7098 -0.5202  0.1435
  137SAPE   C3214857   0.237   4.167  10.440  0.4243 -0.0737  0.2126
  137SAPE   H2X14858   0.303   4.093  10.490  1.1658 -0.4757 -1.2679
  137SAPE   H2Y14859   0.287   4.258  10.400 -0.8309  0.6273  0.2130
  137SAPE   C2314860  -0.456   4.204  10.265 -0.8140  0.2180 -0.4491
  137SAPE   H3R14861  -0.450   4.312  10.292 -0.5059  0.3558 -1.0358
  137SAPE   H3S14862  -0.556   4.174  10.302 -0.7369  0.4330 -0.0653
  137SAPE   C2414863  -0.459   4.175  10.114 -0.6055 -0.8540 -0.3811
  137SAPE   H4R14864  -0.565   4.194  10.089  0.1539  1.5572 -2.1410
  137SAPE   H4S14865  -0.429   4.070  10.095  1.6572 -0.6128  1.3066
  137SAPE   C2514866  -0.373   4.266  10.025  0.0629  0.4017 -0.4890
  137SAPE   H5R14867  -0.327   4.352  10.077  0.7937  1.3685 -2.6206
  137SAPE   C2614868  -0.336   4.253   9.897  0.2544  0.3213 -0.0098
  137SAPE   H6R14869  -0.266   4.327   9.856 -0.2608  1.3088  0.8266
  137SAPE   C2714870  -0.366   4.135   9.812  0.5681  0.5268 -0.3523
  137SAPE   H7R14871  -0.376   4.045   9.876  1.4518  1.1130  0.6687
  137SAPE   H7S14872  -0.275   4.115   9.751 -1.7342 -0.8891 -3.5540
  137SAPE   C2814873  -0.495   4.147   9.743 -0.2341 -0.0805  0.8548
  137SAPE   H8R14874  -0.579   4.139   9.814 -1.1821 -1.6967 -0.3591
  137SAPE   C2914875  -0.518   4.187   9.616  0.2741  0.1384  0.3362
  137SAPE   H9R14876  -0.624   4.189   9.585  0.5157  2.2887 -0.5272
  137SAPE  C21014877  -0.424   4.209   9.504  0.5869  0.0662 -0.4045
  137SAPE  H10R14878  -0.331   4.261   9.535  0.2437  0.1901  0.4276
  137SAPE  H10S14879  -0.481   4.276   9.437  1.6083  1.5257  0.1372
  137SAPE  C21114880  -0.380   4.092   9.423 -0.3036 -0.2665  0.1413
  137SAPE  H11R14881  -0.447   4.005   9.432 -2.1518  1.1027  0.1720
  137SAPE  C21214882  -0.288   4.085   9.324 -0.4978 -0.4054 -0.3619
  137SAPE  H12R14883  -0.270   3.986   9.279 -1.7307 -0.2529 -1.2351
  137SAPE  C21314884  -0.206   4.203   9.275  0.7025  0.2770 -0.3768
  137SAPE  H13R14885  -0.144   4.237   9.360 -0.7327 -0.2622  0.9442
  137SAPE  H13S14886  -0.271   4.285   9.238  1.2131  1.5793  1.5074
  137SAPE  C21414887  -0.112   4.169   9.162  0.2349 -0.1978  0.1635
  137SAPE  H14R14888  -0.007   4.165   9.196 -0.1592 -0.8599  1.3680
  137SAPE  C21514889  -0.139   4.126   9.036  0.0993 -0.2020  0.0379
  137SAPE  H15R14890  -0.055   4.112   8.966 -0.0380 -1.0380  0.0344
  137SAPE  C21614891  -0.278   4.109   8.987  0.0957  0.3467  0.2202
  137SAPE  H16R14892  -0.358   4.120   9.063 -1.7273 -1.7537 -1.2785
  137SAPE  H16S14893  -0.296   4.013   8.934  0.6477 -0.1424  0.9021
  137SAPE  C21714894  -0.326   4.216   8.883  0.2131 -0.2181 -0.5233
  137SAPE  H17R14895  -0.270   4.189   8.791  2.7000 -1.5200  1.2385
  137SAPE  H17S14896  -0.298   4.317   8.918  1.9961 -0.9673  0.3526
  137SAPE  C21814897  -0.476   4.220   8.853  0.4468  0.0791  0.4859
  137SAPE  H18R14898  -0.538   4.264   8.935  0.9631  0.7621  0.5128
  137SAPE  H18S14899  -0.526   4.122   8.836 -0.5349  0.8485 -1.4054
  137SAPE  C21914900  -0.501   4.314   8.736 -0.6315 -0.3089  0.3748
  137SAPE  H19R14901  -0.462   4.289   8.635  0.5627 -0.6859  0.9097
  137SAPE  H19S14902  -0.446   4.404   8.771  0.8049 -0.2582 -1.8127
  137SAPE  C22014903  -0.649   4.348   8.718 -0.2735  0.1940  0.2292
  137SAPE  H20R14904  -0.664   4.417   8.632  1.4610  1.8212  1.1299
  137SAPE  H20S14905  -0.685   4.397   8.811 -2.0361 -1.9439  0.7438
  137SAPE  H20T14906  -0.715   4.261   8.700 -0.7388  0.0569  2.3076
  137SAPE   C3314907   0.181   4.095  10.309 -0.4117  0.1408 -0.4643
  137SAPE   H3X14908   0.124   4.007  10.343  1.4119 -0.8730  0.1030
  137SAPE   H3Y14909   0.266   4.049  10.254 -1.5903 -1.4013 -1.0430
  137SAPE   C3414910   0.099   4.186  10.216  0.0085 -0.1721 -0.2844
  137SAPE   H4X14911   0.167   4.260  10.169 -0.8280 -0.4300 -1.9641
  137SAPE   H4Y14912   0.017   4.234  10.274 -2.0841 -1.9986 -1.5514
  137SAPE   C3514913   0.034   4.109  10.094 -0.9744  0.6244 -0.3792
  137SAPE   H5X14914  -0.020   4.186  10.036 -1.4128 -0.7593 -1.8594
  137SAPE   H5Y14915  -0.040   4.030  10.117 -1.2495 -0.1572 -3.5170
  137SAPE   C3614916   0.128   4.046   9.995 -0.7655  0.6624 -0.0644
  137SAPE   H6X14917   0.161   3.943  10.021 -1.4840  0.6486  0.8294
  137SAPE   H6Y14918   0.221   4.107   9.995 -1.4827  1.7776  0.0278
  137SAPE   C3714919   0.066   4.037   9.851  0.0563  0.1442 -0.1101
  137SAPE   H7X14920   0.011   4.131   9.829 -1.3959 -0.7972 -0.6641
  137SAPE   H7Y14921  -0.014   3.960   9.854  2.3650 -2.3985  0.9715
  137SAPE   C3814922   0.172   3.991   9.750 -0.1753 -0.6350  0.9419
  137SAPE   H8X14923   0.209   3.895   9.794  0.5069 -1.1716 -0.7390
  137SAPE   H8Y14924   0.264   4.054   9.752 -0.1915 -0.5612 -0.2525
  137SAPE   C3914925   0.121   3.976   9.610  0.2363  0.2017  0.0502
  137SAPE   H9X14926   0.079   4.077   9.588 -1.5797 -0.1910  1.4778
  137SAPE   H9Y14927   0.043   3.898   9.598  2.0272 -2.4320  3.7297
  137SAPE  C31014928   0.232   3.937   9.508  0.0989  0.1363 -0.5890
  137SAPE  H10X14929   0.278   3.838   9.531  1.7390  1.1573  0.8108
  137SAPE  H10Y14930   0.304   4.018   9.532  0.7357 -0.5545 -0.0889
  137SAPE  C31114931   0.181   3.949   9.367  0.2886 -0.1127  0.0078
  137SAPE  H11X14932   0.172   4.057   9.339 -0.3573 -0.1056  0.2183
  137SAPE  H11Y14933   0.080   3.903   9.366 -0.5980  1.7072  0.3386
  137SAPE  C31214934   0.272   3.897   9.261 -0.4271  0.1558 -0.4553
  137SAPE  H12X14935   0.277   3.786   9.254  2.3080  0.0232  1.7360
  137SAPE  H12Y14936   0.371   3.939   9.289 -1.0131  2.0940 -1.0849
  137SAPE  C31314937   0.234   3.942   9.117  0.9477 -0.5582  0.3899
  137SAPE  H13X14938   0.227   4.052   9.133 -0.8042 -0.5775 -0.0044
  137SAPE  H13Y14939   0.138   3.903   9.077  0.7664 -1.2267  1.4389
  137SAPE  C31414940   0.344   3.914   9.015 -0.0689  0.0906  1.4735
  137SAPE  H14X14941   0.370   3.808   8.994 -1.0456  0.0561  0.3078
  137SAPE  H14Y14942   0.439   3.954   9.056 -1.0098  1.7930  2.1089
  137SAPE  C31514943   0.327   3.981   8.878  0.5296 -0.1131 -0.0481
  137SAPE  H15X14944   0.296   4.087   8.891  4.2183  1.2221 -0.9159
  137SAPE  H15Y14945   0.245   3.927   8.827 -0.8145  1.2567  0.5758
  137SAPE  C31614946   0.454   3.977   8.788  0.0026 -0.2538 -0.2823
  137SAPE  H16X14947   0.494   3.874   8.780 -0.5906 -0.8429  2.9783
  137SAPE  H16Y14948   0.528   4.046   8.834  0.6739 -0.0516 -1.6207
  137SAPE  C31714949   0.430   4.036   8.646  0.5070 -0.4855  0.3730
  137SAPE  H17X14950   0.519   4.002   8.589 -1.1312 -2.5788 -1.0939
  137SAPE  H17Y14951   0.438   4.147   8.655  1.1859 -0.5547  0.6672
  137SAPE  C31814952   0.305   4.009   8.571 -0.5995  0.1874  0.4373
  137SAPE  H18X14953   0.221   4.057   8.625 -0.8150  1.7310 -1.1756
  137SAPE  H18Y14954   0.291   3.900   8.560 -1.0084  0.3459 -0.7932
  137SAPE  H18Z14955   0.313   4.066   8.476  1.4042  5.0054  3.0987
  138SAPE     N14956   5.166   5.611  10.773 -0.2502 -0.3820  0.2865
  138SAPE   HN114957   5.132   5.706  10.797 -1.5144 -0.3862 -1.3550
  138SAPE   HN214958   5.259   5.612  10.820 -1.1287  0.6155  2.1032
  138SAPE   HN314959   5.179   5.608  10.670  1.7106 -1.2991  0.5086
  138SAPE   C1214960   5.095   5.496  10.827  0.7104  0.7287 -0.0452
  138SAPE  H12A14961   5.170   5.439  10.886 -0.7782 -1.0072  0.2518
  138SAPE  H12B14962   5.074   5.429  10.740  1.7726  0.4681 -0.1173
  138SAPE   C1114963   4.968   5.544  10.906 -0.0892 -0.0039  0.0126
  138SAPE  H11A14964   5.007   5.602  10.992  0.3092  2.0865 -1.4960
  138SAPE  H11B14965   4.905   5.459  10.940  0.5129 -1.0651 -1.3832
  138SAPE     P14966   4.776   5.571  10.723  0.0459  0.3921 -0.3571
  138SAPE   O1314967   4.833   5.473  10.631 -0.3920  0.0455 -0.1431
  138SAPE   O1414968   4.661   5.537  10.808 -0.0524 -0.1618 -0.3007
  138SAPE   O1214969   4.891   5.621  10.818 -0.0769  0.0265  0.1332
  138SAPE   O1114970   4.733   5.701  10.645 -0.1572  0.0389 -0.0905
  138SAPE    C114971   4.833   5.745  10.543 -0.2620 -0.5763 -0.2480
  138SAPE    HA14972   4.833   5.855  10.534  1.1504 -0.5953 -0.8269
  138SAPE    HB14973   4.939   5.721  10.570  0.1311 -0.6060 -1.7148
  138SAPE    C214974   4.800   5.698  10.399 -0.4107  0.5043  0.1240
  138SAPE    HS14975   4.807   5.587  10.394  0.0610  0.5533 -0.4604
  138SAPE   O2114976   4.907   5.751  10.316 -0.0106  0.0069 -0.7509
  138SAPE   C2114977   4.962   5.680  10.223  0.4327  0.7435 -0.0259
  138SAPE   O2214978   4.951   5.563  10.207  0.0914  0.2085  0.2980
  138SAPE   C2214979   5.073   5.759  10.151 -0.2524 -0.0868  0.1812
  138SAPE   H2R14980   5.058   5.869  10.164 -0.4654 -0.1131  0.1512
  138SAPE   H2S14981   5.173   5.729  10.191 -0.2518  1.7211  1.7265
  138SAPE    C314982   4.663   5.753  10.349 -0.6730 -0.5489  0.7968
  138SAPE    HX14983   4.656   5.864  10.341 -0.1445 -0.3576  2.4234
  138SAPE    HY14984   4.591   5.718  10.426 -1.3417 -1.7872 -0.3466
  138SAPE   O3114985   4.631   5.702  10.219  0.0117  0.2184 -0.1605
  138SAPE   C3114986   4.620   5.572  10.211 -0.1552 -0.0256  0.3041
  138SAPE   O3214987   4.596   5.496  10.303  0.2682  0.2867  0.0197
  138SAPE   C3214988   4.621   5.521  10.064  0.3294 -0.4426 -0.8415
  138SAPE   H2X14989   4.522   5.475  10.046  0.2984 -0.6861 -0.1102
  138SAPE   H2Y14990   4.697   5.439  10.065  1.5712  0.6104  1.5890
  138SAPE   C2314991   5.085   5.711  10.004 -0.2179 -0.4173 -1.1099
  138SAPE   H3R14992   4.981   5.716   9.963 -2.0695 -2.8330  2.6749
  138SAPE   H3S14993   5.117   5.605   9.997 -2.2776 -1.3414  1.4988
  138SAPE   C2414994   5.192   5.793   9.922 -0.0417  0.5775  0.2415
  138SAPE   H4R14995   5.282   5.738   9.955 -0.7768  0.4031  2.0518
  138SAPE   H4S14996   5.213   5.900   9.944  0.0602  0.7127 -0.4969
  138SAPE   C2514997   5.166   5.774   9.771  0.6299 -0.2795 -0.6439
  138SAPE   H5R14998   5.124   5.866   9.729 -0.0421 -0.3186 -0.0782
  138SAPE   C2614999   5.175   5.659   9.694 -0.5378 -0.0165 -0.5538
  138SAPE   H6R15000   5.135   5.658   9.592 -3.5766  2.9522  0.4246
  138SAPE   C2715001   5.218   5.523   9.753 -0.6602 -0.7074 -0.2318
  138SAPE   H7R15002   5.268   5.533   9.852 -0.2503  0.8241 -0.5563
  138SAPE   H7S15003   5.286   5.475   9.679 -1.8326  0.3551 -2.0743
  138SAPE   C2815004   5.107   5.428   9.763 -0.3730 -0.0352  0.1297
  138SAPE   H8R15005   5.035   5.454   9.841  0.6165 -0.6288  1.2860
  138SAPE   C2915006   5.077   5.325   9.674  0.0798 -0.4036  0.0586
  138SAPE   H9R15007   4.982   5.271   9.690 -0.1410 -0.2589 -0.7421
  138SAPE  C21015008   5.161   5.293   9.551  0.2712  0.1763 -0.2395
  138SAPE  H10R15009   5.250   5.240   9.591  2.3917  3.6139 -0.0192
  138SAPE  H10S15010   5.191   5.391   9.510 -1.4455  0.4878 -0.8198
  138SAPE  C21115011   5.088   5.231   9.435 -0.2644  0.2857  0.5672
  138SAPE  H11R15012   4.985   5.266   9.419  0.4921  1.7437 -1.4262
  138SAPE  C21215013   5.145   5.149   9.339  0.5259 -0.0842  0.2406
  138SAPE  H12R15014   5.081   5.126   9.253  2.0045 -0.0986 -0.9012
  138SAPE  C21315015   5.295   5.119   9.327  0.4198 -0.4502 -0.2570
  138SAPE  H13R15016   5.329   5.096   9.430  1.3237 -0.9845 -0.6545
  138SAPE  H13S15017   5.349   5.212   9.297  1.2122 -1.1033 -0.9005
  138SAPE  C21415018   5.314   5.002   9.234  0.0630  1.0612 -0.7423
  138SAPE  H14R15019   5.328   4.903   9.280  0.8221  0.5529 -2.0219
  138SAPE  C21515020   5.327   5.009   9.100 -0.7103 -0.2118  0.7488
  138SAPE  H15R15021   5.335   4.919   9.038  1.4806  0.9147 -0.6911
  138SAPE  C21615022   5.328   5.130   9.012  0.0208 -0.7304 -0.1013
  138SAPE  H16R15023   5.319   5.222   9.073 -1.1877 -0.8631 -0.0606
  138SAPE  H16S15024   5.240   5.125   8.945 -1.9751 -4.7411  2.4182
  138SAPE  C21715025   5.459   5.152   8.930 -0.0667  0.4172 -0.5589
  138SAPE  H17R15026   5.458   5.082   8.844 -0.8487  2.0606 -1.9225
  138SAPE  H17S15027   5.551   5.121   8.986 -0.6967 -1.6258 -0.5552
  138SAPE  C21815028   5.474   5.297   8.891 -0.2099 -0.4623 -0.0252
  138SAPE  H18R15029   5.513   5.363   8.971 -1.8143  1.5033 -0.7837
  138SAPE  H18S15030   5.373   5.333   8.860 -0.4437 -1.1283 -0.0713
  138SAPE  C21915031   5.556   5.310   8.756  0.9045  0.1633  0.3112
  138SAPE  H19R15032   5.501   5.242   8.686 -0.9574  0.1153  1.7401
  138SAPE  H19S15033   5.661   5.275   8.763  0.7197 -0.9428 -1.6169
  138SAPE  C22015034   5.550   5.446   8.685 -0.4252 -0.6471  0.1768
  138SAPE  H20R15035   5.450   5.469   8.641 -0.1407 -1.6181 -1.0471
  138SAPE  H20S15036   5.620   5.442   8.599  2.2534  1.7594  2.1134
  138SAPE  H20T15037   5.589   5.529   8.746 -1.7384  1.4898 -1.7216
  138SAPE   C3315038   4.668   5.628   9.957  0.0110  0.4813 -0.2326
  138SAPE   H3X15039   4.766   5.669   9.988 -0.1603  0.7349 -0.0205
  138SAPE   H3Y15040   4.593   5.710   9.952  1.1702  1.5482 -0.5191
  138SAPE   C3415041   4.711   5.559   9.825  0.2138 -0.5302  1.0777
  138SAPE   H4X15042   4.623   5.502   9.788 -1.2374  1.0361  1.9468
  138SAPE   H4Y15043   4.801   5.496   9.841  0.0629 -1.0406 -0.0091
  138SAPE   C3515044   4.761   5.646   9.703 -0.3597 -0.0713 -0.0224
  138SAPE   H5X15045   4.835   5.722   9.737 -0.6286  0.9623 -1.6276
  138SAPE   H5Y15046   4.681   5.699   9.648  0.2198 -0.1752 -0.9900
  138SAPE   C3615047   4.820   5.559   9.592  0.1876  0.0842  0.0603
  138SAPE   H6X15048   4.736   5.502   9.548  0.2723  2.5915 -3.8615
  138SAPE   H6Y15049   4.909   5.498   9.619 -0.1579 -0.2648  0.4170
  138SAPE   C3715050   4.874   5.651   9.477  0.3506  0.1609  0.0653
  138SAPE   H7X15051   4.932   5.735   9.519 -0.9472  0.3325  1.6072
  138SAPE   H7Y15052   4.777   5.686   9.435  0.3888 -0.4704 -0.5726
  138SAPE   C3815053   4.965   5.584   9.372  0.9115  0.3704  0.5053
  138SAPE   H8X15054   4.898   5.518   9.314  1.7977 -0.6863  0.6556
  138SAPE   H8Y15055   5.039   5.523   9.428  2.2714  1.5129  0.0358
  138SAPE   C3915056   5.021   5.685   9.275  0.0147 -0.0383  0.5188
  138SAPE   H9X15057   5.105   5.625   9.233 -1.6819 -3.3119  1.4045
  138SAPE   H9Y15058   5.070   5.775   9.317  0.5338  0.0850 -0.3153
  138SAPE  C31015059   4.944   5.718   9.146 -0.3427 -0.5458  0.5953
  138SAPE  H10X15060   4.938   5.638   9.070 -0.7128 -0.1930  0.2514
  138SAPE  H10Y15061   5.016   5.779   9.086 -0.4803  1.7448  2.5911
  138SAPE  C31115062   4.808   5.794   9.164  0.2592  0.2476  0.6586
  138SAPE  H11X15063   4.815   5.874   9.241 -0.0740 -0.0227  0.9746
  138SAPE  H11Y15064   4.736   5.719   9.203  0.7470 -0.8686 -0.5034
  138SAPE  C31215065   4.757   5.865   9.034 -0.0765  0.2192  0.1173
  138SAPE  H12X15066   4.831   5.942   9.002 -0.7409  0.4051 -1.0232
  138SAPE  H12Y15067   4.675   5.930   9.075  1.8184  2.0499  1.2129
  138SAPE  C31315068   4.726   5.786   8.914 -0.2971  0.0636 -0.0881
  138SAPE  H13X15069   4.638   5.723   8.940  0.2225 -0.4138  0.5347
  138SAPE  H13Y15070   4.803   5.712   8.883 -0.0475  0.1215  0.3908
  138SAPE  C31415071   4.687   5.882   8.800 -0.1253 -0.4824  0.8485
  138SAPE  H14X15072   4.778   5.919   8.749 -0.4754 -0.1234  0.4719
  138SAPE  H14Y15073   4.624   5.963   8.845 -1.0778 -1.0114  0.4894
  138SAPE  C31515074   4.607   5.808   8.695 -0.1881  0.5762 -0.5075
  138SAPE  H15X15075   4.508   5.774   8.731  0.5926  0.1409  1.3290
  138SAPE  H15Y15076   4.649   5.713   8.656 -0.8466 -0.0204  0.2168
  138SAPE  C31615077   4.579   5.895   8.575 -0.4449  0.0075 -0.5117
  138SAPE  H16X15078   4.672   5.925   8.521  0.5241 -1.8626  0.0215
  138SAPE  H16Y15079   4.521   5.987   8.598 -2.6061 -1.5992  0.8223
  138SAPE  C31715080   4.498   5.806   8.474 -0.3362 -0.7229 -0.5272
  138SAPE  H17X15081   4.448   5.875   8.403  1.7350  2.4919  0.9023
  138SAPE  H17Y15082   4.414   5.761   8.530 -1.3129  0.5874 -0.8958
  138SAPE  C31815083   4.586   5.720   8.385  0.6164 -0.2423 -0.0683
  138SAPE  H18X15084   4.633   5.642   8.449 -0.4919 -1.4887 -0.7311
  138SAPE  H18Y15085   4.659   5.787   8.334  0.3888  0.7669  0.8796
  138SAPE  H18Z15086   4.533   5.670   8.301  0.5590  3.2565 -2.3215
  139SAPE     N15087   3.486   1.512  10.754  0.3187  0.1714  0.7836
  139SAPE   HN115088   3.564   1.456  10.792 -2.3385 -2.4301  2.8378
  139SAPE   HN215089   3.525   1.608  10.741  1.8129 -0.3491  1.2848
  139SAPE   HN315090   3.410   1.521  10.825  0.0239 -0.4930  0.5607
  139SAPE   C1215091   3.432   1.456  10.631 -0.3641 -0.0202  0.3761
  139SAPE  H12A15092   3.386   1.361  10.666 -0.8374 -0.0529 -0.3136
  139SAPE  H12B15093   3.520   1.438  10.567  0.3023  0.6531  1.0926
  139SAPE   C1115094   3.319   1.541  10.574 -0.8366  0.1121  0.1706
  139SAPE  H11A15095   3.288   1.497  10.477  1.4630 -0.5125 -0.3311
  139SAPE  H11B15096   3.367   1.638  10.550  1.7484 -0.6709  1.8075
  139SAPE     P15097   3.093   1.476  10.707 -0.2492  0.0455 -0.0532
  139SAPE   O1315098   3.132   1.369  10.804 -0.1159 -0.4198 -0.0937
  139SAPE   O1415099   2.984   1.568  10.755 -0.4091  0.3738 -0.2413
  139SAPE   O1215100   3.220   1.565  10.676  0.3751  0.3555 -0.2150
  139SAPE   O1115101   3.047   1.421  10.571  0.5665  0.8912  0.3926
  139SAPE    C115102   2.919   1.368  10.550  0.3349 -0.5564  1.1767
  139SAPE    HA15103   2.920   1.263  10.512 -2.9225 -0.0282 -0.7821
  139SAPE    HB15104   2.848   1.373  10.636 -1.8957  2.8170 -0.6593
  139SAPE    C215105   2.837   1.442  10.440  0.3708 -0.1006  0.3237
  139SAPE    HS15106   2.729   1.423  10.455  0.3399  0.9138  1.5411
  139SAPE   O2115107   2.885   1.415  10.308 -0.1601 -0.4043  0.3738
  139SAPE   C2115108   2.858   1.296  10.257 -0.1276 -0.2198 -0.1465
  139SAPE   O2215109   2.793   1.205  10.303 -0.1468  0.0442 -0.2217
  139SAPE   C2215110   2.935   1.275  10.129  0.5858 -0.7156 -0.2066
  139SAPE   H2R15111   3.041   1.249  10.151  0.5534  0.1337  1.0314
  139SAPE   H2S15112   2.880   1.190  10.082 -0.8948  0.8140 -1.3882
  139SAPE    C315113   2.837   1.597  10.459  0.9446 -0.5830  0.0296
  139SAPE    HX15114   2.943   1.631  10.467  1.2017 -1.0587 -1.1427
  139SAPE    HY15115   2.784   1.602  10.556  1.4366 -2.0359  0.3971
  139SAPE   O3115116   2.758   1.669  10.360  0.0434 -0.7799 -0.2648
  139SAPE   C3115117   2.828   1.732  10.265  0.2794 -0.1950  0.4439
  139SAPE   O3215118   2.950   1.726  10.257 -0.2170 -0.2314  0.1161
  139SAPE   C3215119   2.753   1.812  10.175  0.1821 -0.2060  0.4164
  139SAPE   H2X15120   2.784   1.918  10.171  1.4406 -0.6005 -1.6594
  139SAPE   H2Y15121   2.643   1.810  10.189  0.0258 -0.8047 -0.7323
  139SAPE   C2315122   2.943   1.403  10.022  0.5642  0.3391 -0.0059
  139SAPE   H3R15123   3.002   1.483  10.071  2.7284 -1.4225  0.4338
  139SAPE   H3S15124   2.841   1.433   9.991  1.3339  2.1254 -0.9103
  139SAPE   C2415125   3.009   1.366   9.887 -0.1333  0.2783  0.0167
  139SAPE   H4R15126   3.022   1.456   9.824  2.8373  1.4635  2.1283
  139SAPE   H4S15127   2.936   1.302   9.832 -0.5578 -0.1590  1.0604
  139SAPE   C2515128   3.146   1.301   9.917 -0.9812  0.5470  0.3074
  139SAPE   H5R15129   3.197   1.350  10.001  0.3788 -0.3907  0.0711
  139SAPE   C2615130   3.210   1.200   9.846  0.1358 -0.1631 -0.3358
  139SAPE   H6R15131   3.314   1.175   9.873  0.5857  1.7536 -0.1526
  139SAPE   C2715132   3.148   1.137   9.719 -0.3951  0.5562  0.2701
  139SAPE   H7R15133   3.187   1.210   9.645 -1.3162 -0.5062 -1.3158
  139SAPE   H7S15134   3.037   1.130   9.724 -0.2979 -1.7995  0.0791
  139SAPE   C2815135   3.199   1.005   9.668  0.6115  0.3271 -0.4333
  139SAPE   H8R15136   3.203   0.934   9.751 -0.9127  0.3181 -0.3285
  139SAPE   C2915137   3.225   0.971   9.545 -0.2645  0.0850 -0.1023
  139SAPE   H9R15138   3.265   0.871   9.522  0.7952  0.4271  0.1963
  139SAPE  C21015139   3.214   1.056   9.420 -0.0641 -0.2626 -1.1354
  139SAPE  H10R15140   3.282   1.015   9.343  0.0018 -1.4274 -0.4772
  139SAPE  H10S15141   3.254   1.159   9.436 -0.4858 -0.1954 -0.4730
  139SAPE  C21115142   3.071   1.055   9.370  0.0423  0.4301  0.0716
  139SAPE  H11R15143   3.000   1.106   9.435  0.0492 -0.2292  0.6058
  139SAPE  C21215144   3.035   0.994   9.260  0.0970  0.6475 -0.0980
  139SAPE  H12R15145   2.932   1.015   9.225 -0.5490  2.5551  2.6045
  139SAPE  C21315146   3.119   0.911   9.162  0.5800  0.3840  0.5662
  139SAPE  H13R15147   3.082   0.806   9.155  1.9496 -0.0386 -1.0444
  139SAPE  H13S15148   3.224   0.904   9.198  0.1436  0.0198  1.8259
  139SAPE  C21415149   3.124   0.972   9.026  0.4917 -0.3765  0.1107
  139SAPE  H14R15150   3.215   1.030   9.007  0.5187  0.4497  2.4814
  139SAPE  C21515151   3.036   0.954   8.924  0.7206 -0.4141 -0.1431
  139SAPE  H15R15152   3.061   1.001   8.827  1.6041 -2.7591 -1.1174
  139SAPE  C21615153   2.910   0.867   8.918  0.7803  0.4839  0.8851
  139SAPE  H16R15154   2.817   0.924   8.893  1.3852  0.4516 -1.8067
  139SAPE  H16S15155   2.888   0.805   9.007  1.3663 -2.7293 -1.0607
  139SAPE  C21715156   2.922   0.757   8.808  1.0985  0.4060  0.9429
  139SAPE  H17R15157   3.027   0.720   8.814  1.7463  1.6777 -1.2427
  139SAPE  H17S15158   2.925   0.786   8.701 -0.3491 -2.5249  0.0057
  139SAPE  C21815159   2.821   0.639   8.830 -0.5609 -0.3352 -0.5456
  139SAPE  H18R15160   2.811   0.601   8.934  0.0173 -1.5834 -0.9241
  139SAPE  H18S15161   2.850   0.561   8.756 -0.5202  0.1512 -1.0451
  139SAPE  C21915162   2.677   0.690   8.798  0.1338 -0.7278  0.2189
  139SAPE  H19R15163   2.678   0.737   8.697 -0.9006 -0.6913  0.2222
  139SAPE  H19S15164   2.647   0.776   8.862 -1.1315 -1.6093  0.8588
  139SAPE  C22015165   2.566   0.586   8.810  0.1600  0.6941  0.6581
  139SAPE  H20R15166   2.461   0.618   8.789 -0.8187 -1.4131  2.0587
  139SAPE  H20S15167   2.571   0.538   8.910  0.4612  0.5184  0.5587
  139SAPE  H20T15168   2.582   0.504   8.737  0.5225 -0.0253  1.5247
  139SAPE   C3315169   2.786   1.764  10.033 -0.2842  0.1725 -0.3472
  139SAPE   H3X15170   2.738   1.664  10.025 -0.8894  0.2737  1.5662
  139SAPE   H3Y15171   2.893   1.761  10.005 -0.2290  0.5623 -0.1714
  139SAPE   C3415172   2.714   1.866   9.935 -0.2445  1.0869  0.6797
  139SAPE   H4X15173   2.719   1.971   9.968 -0.0240  0.8546  1.3887
  139SAPE   H4Y15174   2.605   1.847   9.925 -0.3362  2.2515 -1.1761
  139SAPE   C3515175   2.793   1.861   9.800  0.6558  0.3252  0.4055
  139SAPE   H5X15176   2.901   1.878   9.820  1.2118 -1.6836 -0.6538
  139SAPE   H5Y15177   2.750   1.945   9.741  0.1431  1.3195  2.1529
  139SAPE   C3615178   2.760   1.732   9.723 -0.1400  0.1670 -0.6565
  139SAPE   H6X15179   2.652   1.708   9.714  0.3329 -2.4949  0.1072
  139SAPE   H6Y15180   2.787   1.647   9.788 -1.9388 -0.9725 -1.3312
  139SAPE   C3715181   2.834   1.696   9.591 -0.2085  0.1138 -0.3817
  139SAPE   H7X15182   2.833   1.586   9.572  2.2492 -0.2977  1.4002
  139SAPE   H7Y15183   2.938   1.732   9.601 -0.6381  0.7388  2.8245
  139SAPE   C3815184   2.779   1.751   9.455 -0.2941 -0.2110 -0.2137
  139SAPE   H8X15185   2.766   1.860   9.466  1.4549  0.3833 -3.1278
  139SAPE   H8Y15186   2.689   1.696   9.418 -0.3244  0.1449 -0.6664
  139SAPE   C3915187   2.885   1.732   9.344 -0.2384 -0.5182  0.2923
  139SAPE   H9X15188   2.906   1.623   9.335 -1.2905 -0.9748  2.5442
  139SAPE   H9Y15189   2.982   1.778   9.370 -0.9783  0.9832  0.4836
  139SAPE  C31015190   2.836   1.774   9.201 -0.2113  0.3459  0.0053
  139SAPE  H10X15191   2.821   1.883   9.217 -1.1660 -0.1378  2.9790
  139SAPE  H10Y15192   2.738   1.731   9.170 -1.4574  3.3317 -0.5764
  139SAPE  C31115193   2.936   1.747   9.085  0.0796 -0.5671 -0.2573
  139SAPE  H11X15194   2.974   1.642   9.085  2.2089  0.0644 -3.5463
  139SAPE  H11Y15195   3.026   1.810   9.100 -1.1391  1.2276 -0.1290
  139SAPE  C31215196   2.872   1.791   8.949 -0.5766  0.4441  0.1929
  139SAPE  H12X15197   2.832   1.894   8.953  1.4200  1.2260  1.5515
  139SAPE  H12Y15198   2.788   1.724   8.919 -1.4985  0.9350  1.5736
  139SAPE  C31315199   2.978   1.780   8.835 -0.2299  0.3881 -0.7405
  139SAPE  H13X15200   2.995   1.672   8.813  2.0602  0.6285 -0.4531
  139SAPE  H13Y15201   3.069   1.833   8.872 -1.0400  1.1356  0.2294
  139SAPE  C31415202   2.945   1.852   8.705 -0.2365 -0.4132  0.3534
  139SAPE  H14X15203   3.028   1.823   8.638 -0.6080 -1.1375  0.1873
  139SAPE  H14Y15204   2.948   1.960   8.730  0.7183 -0.3852  0.1264
  139SAPE  C31515205   2.811   1.814   8.643 -0.1777 -0.2406  0.3580
  139SAPE  H15X15206   2.774   1.715   8.677 -0.1824 -0.8329 -1.3184
  139SAPE  H15Y15207   2.827   1.801   8.534 -0.1782 -3.3033  0.6532
  139SAPE  C31615208   2.693   1.912   8.662  0.0484  0.2778 -0.7372
  139SAPE  H16X15209   2.599   1.855   8.646  1.0263 -1.0554 -2.0007
  139SAPE  H16Y15210   2.667   1.950   8.763 -0.5075 -1.8118 -0.0529
  139SAPE  C31715211   2.718   2.037   8.573  0.6227 -0.1214 -0.2042
  139SAPE  H17X15212   2.827   2.051   8.562  0.8539 -1.2117  0.4764
  139SAPE  H17Y15213   2.673   2.127   8.620 -0.2955  0.0815 -1.4225
  139SAPE  C31815214   2.652   2.020   8.436  0.2562 -0.0540 -0.2877
  139SAPE  H18X15215   2.641   2.109   8.371  0.3125 -0.5717 -1.0214
  139SAPE  H18Y15216   2.550   1.977   8.447 -1.9592  4.0396 -2.5314
  139SAPE  H18Z15217   2.704   1.946   8.372 -1.0290 -1.5119  0.2647
  140SAPE     N15218   0.827   6.284  11.160 -0.1346 -0.6250 -0.7849
  140SAPE   HN115219   0.858   6.366  11.104 -1.4741  1.1407  0.9078
  140SAPE   HN215220   0.798   6.329  11.249 -0.1309  1.1132 -1.6226
  140SAPE   HN315221   0.906   6.226  11.193 -1.1113 -1.5857 -0.0760
  140SAPE   C1215222   0.733   6.184  11.092 -0.3442  0.0949  0.0413
  140SAPE  H12A15223   0.703   6.109  11.167  0.9483 -0.2866  0.1930
  140SAPE  H12B15224   0.788   6.141  11.006 -0.5677  2.7318 -1.5471
  140SAPE   C1115225   0.607   6.256  11.035 -0.2947 -0.4409 -0.0065
  140SAPE  H11A15226   0.578   6.321  11.121 -0.8841 -0.6357 -0.0529
  140SAPE  H11B15227   0.532   6.176  11.018 -0.4738 -0.0080 -1.3308
  140SAPE     P15228   0.545   6.328  10.797 -0.2914 -0.4505  0.2316
  140SAPE   O1315229   0.516   6.181  10.771 -0.1452 -0.0135  0.4321
  140SAPE   O1415230   0.436   6.420  10.815 -0.1139  0.4956 -0.1342
  140SAPE   O1215231   0.644   6.345  10.925  0.4367  0.5052  0.2102
  140SAPE   O1115232   0.634   6.381  10.673  0.5311  0.4934  0.1072
  140SAPE    C115233   0.766   6.319  10.647  0.2626 -0.5126 -0.0510
  140SAPE    HA15234   0.832   6.407  10.639  1.5419 -1.6378 -3.2910
  140SAPE    HB15235   0.796   6.256  10.734 -0.2205  0.4188  0.8059
  140SAPE    C215236   0.769   6.242  10.509 -0.1034  0.0315  0.6285
  140SAPE    HS15237   0.872   6.259  10.470 -0.4259  4.6168  1.2384
  140SAPE   O2115238   0.672   6.292  10.421 -0.1489 -0.4351 -0.3222
  140SAPE   C2115239   0.689   6.423  10.382  0.6275 -0.5775  0.1724
  140SAPE   O2215240   0.792   6.485  10.391  0.0742 -0.1676 -0.0049
  140SAPE   C2215241   0.555   6.474  10.333 -0.6081  0.4200  0.3937
  140SAPE   H2R15242   0.536   6.415  10.240  1.5721  0.1445  0.0670
  140SAPE   H2S15243   0.486   6.452  10.418  2.3850 -0.7590  2.6760
  140SAPE    C315244   0.732   6.089  10.536 -0.0721  0.1313 -0.0328
  140SAPE    HX15245   0.628   6.098  10.574  0.1501 -0.9437  0.9065
  140SAPE    HY15246   0.808   6.041  10.602  0.1604 -0.1140 -0.4777
  140SAPE   O3115247   0.725   6.020  10.409 -0.2163  0.3469  0.5125
  140SAPE   C3115248   0.667   5.899  10.421 -0.1436 -0.3605 -0.5372
  140SAPE   O3215249   0.647   5.840  10.524  0.3175  0.4976 -0.5011
  140SAPE   C3215250   0.643   5.844  10.284 -0.1680 -0.0443  0.0191
  140SAPE   H2X15251   0.562   5.908  10.242 -0.6472 -0.7767 -0.1740
  140SAPE   H2Y15252   0.598   5.744  10.296 -1.7151  0.5627 -0.4527
  140SAPE   C2315253   0.570   6.621  10.292  0.2901  0.0671 -0.8594
  140SAPE   H3R15254   0.661   6.630  10.229  1.8089  0.7579  1.3137
  140SAPE   H3S15255   0.575   6.681  10.385  3.1011  0.2103 -1.0055
  140SAPE   C2415256   0.448   6.674  10.209 -0.2732  0.4444 -0.2521
  140SAPE   H4R15257   0.375   6.702  10.288 -1.1111 -0.5705 -0.6561
  140SAPE   H4S15258   0.406   6.588  10.154  0.6075  0.8476 -1.6148
  140SAPE   C2515259   0.470   6.793  10.121  0.0970 -0.7831 -0.0768
  140SAPE   H5R15260   0.502   6.889  10.164  2.1998 -0.5284 -2.0134
  140SAPE   C2615261   0.437   6.799   9.989 -0.0644 -0.9499 -0.4297
  140SAPE   H6R15262   0.429   6.899   9.943  1.0591  0.5774  2.4558
  140SAPE   C2715263   0.380   6.691   9.899  0.1135 -0.1641  0.6417
  140SAPE   H7R15264   0.276   6.672   9.933  0.7589 -2.4286  1.5224
  140SAPE   H7S15265   0.425   6.595   9.932  2.1538  0.0754 -1.2159
  140SAPE   C2815266   0.395   6.730   9.749  0.6752  0.2812 -0.0788
  140SAPE   H8R15267   0.426   6.833   9.728  2.1301 -0.3252 -1.0496
  140SAPE   C2915268   0.372   6.642   9.650  0.1898 -0.5675  0.3139
  140SAPE   H9R15269   0.370   6.684   9.548  0.6339  2.6660  1.5235
  140SAPE  C21015270   0.340   6.496   9.669  0.2941  0.5888  0.0412
  140SAPE  H10R15271   0.389   6.465   9.764  0.1798  0.3906  0.0368
  140SAPE  H10S15272   0.404   6.444   9.595  1.0058  0.8411  0.4699
  140SAPE  C21115273   0.202   6.448   9.651 -0.8643  0.1373  0.0143
  140SAPE  H11R15274   0.132   6.503   9.715 -2.2198 -1.6154  0.0963
  140SAPE  C21215275   0.167   6.346   9.575  0.7398  0.8427  0.0695
  140SAPE  H12R15276   0.059   6.325   9.576  1.1372 -1.4589 -0.0130
  140SAPE  C21315277   0.253   6.258   9.493 -0.3266 -0.1409 -0.7665
  140SAPE  H13R15278   0.218   6.153   9.498 -1.5830  0.1899 -1.9529
  140SAPE  H13S15279   0.356   6.253   9.534 -1.3793  0.6358  2.1868
  140SAPE  C21415280   0.281   6.310   9.355  0.0618  0.6499 -0.1176
  140SAPE  H14R15281   0.332   6.408   9.352  0.6466  0.3517 -0.0643
  140SAPE  C21515282   0.254   6.257   9.234  0.6811  0.5179  0.3124
  140SAPE  H15R15283   0.261   6.316   9.141 -1.2092  0.0824 -0.1565
  140SAPE  C21615284   0.189   6.119   9.214 -0.5792  0.2656  0.1696
  140SAPE  H16R15285   0.111   6.122   9.135  0.7022 -0.4562 -1.1921
  140SAPE  H16S15286   0.135   6.076   9.300  0.5263 -2.3497 -0.3487
  140SAPE  C21715287   0.302   6.023   9.174  0.0867  0.2828 -0.5982
  140SAPE  H17R15288   0.251   5.927   9.151  0.9370 -0.5227  0.7491
  140SAPE  H17S15289   0.373   6.007   9.258  0.2541  1.2293 -0.5497
  140SAPE  C21815290   0.360   6.062   9.040 -0.3232 -0.1511  0.0570
  140SAPE  H18R15291   0.413   6.160   9.045 -2.3483  1.0582 -1.0096
  140SAPE  H18S15292   0.287   6.058   8.957 -1.3478  1.5640  0.8211
  140SAPE  C21915293   0.475   5.959   9.004  0.4957 -0.0524 -0.3617
  140SAPE  H19R15294   0.443   5.866   9.057 -0.2100  0.1153 -0.4770
  140SAPE  H19S15295   0.569   5.977   9.061  0.0850  1.7344 -0.1950
  140SAPE  C22015296   0.489   5.937   8.855  0.8039  0.1737 -0.1849
  140SAPE  H20R15297   0.551   6.018   8.810  0.7819  1.8443  2.5130
  140SAPE  H20S15298   0.386   5.936   8.814  0.2155  1.1732  1.1782
  140SAPE  H20T15299   0.545   5.842   8.844  0.6440  0.2411 -1.7705
  140SAPE   C3315300   0.770   5.831  10.189 -0.3516  0.5989  0.0714
  140SAPE   H3X15301   0.842   5.760  10.235  0.5925  0.9614 -0.8070
  140SAPE   H3Y15302   0.823   5.928  10.191  0.4463  0.1575  0.5411
  140SAPE   C3415303   0.737   5.794  10.043 -0.6295  0.4192 -0.2439
  140SAPE   H4X15304   0.658   5.867  10.014 -0.8469 -0.2230 -1.3537
  140SAPE   H4Y15305   0.696   5.691  10.030 -0.3067  0.0048  1.7636
  140SAPE   C3515306   0.851   5.819   9.947  0.1963 -0.8313 -0.5439
  140SAPE   H5X15307   0.880   5.916   9.992 -3.3627 -1.8013  4.7359
  140SAPE   H5Y15308   0.811   5.829   9.844 -0.7426 -1.0531 -0.2116
  140SAPE   C3615309   0.960   5.718   9.945 -0.5725  0.3167 -0.2446
  140SAPE   H6X15310   0.921   5.616   9.926  0.7197 -0.0479 -1.0650
  140SAPE   H6Y15311   1.010   5.718  10.044  1.0854 -2.0977 -0.9840
  140SAPE   C3715312   1.072   5.743   9.841  0.0860  0.5861 -0.1282
  140SAPE   H7X15313   1.129   5.832   9.875  3.0493 -0.6477 -1.4649
  140SAPE   H7Y15314   1.016   5.753   9.745  0.4606  2.9423 -0.1563
  140SAPE   C3815315   1.168   5.622   9.827 -0.3578 -0.3011 -0.3963
  140SAPE   H8X15316   1.107   5.530   9.809 -1.3521  0.0125  1.1553
  140SAPE   H8Y15317   1.224   5.600   9.920 -1.8656 -0.4745  0.5149
  140SAPE   C3915318   1.277   5.644   9.718 -0.0767  0.4544 -1.0571
  140SAPE   H9X15319   1.366   5.587   9.752  1.1846  3.7928  1.8018
  140SAPE   H9Y15320   1.302   5.751   9.730  3.5612 -0.5527  2.7888
  140SAPE  C31015321   1.235   5.626   9.577 -0.3575 -0.1341 -0.1562
  140SAPE  H10X15322   1.151   5.698   9.566 -0.1595 -0.1436 -2.0584
  140SAPE  H10Y15323   1.200   5.521   9.565 -0.4889 -0.0696 -0.3430
  140SAPE  C31115324   1.344   5.663   9.474 -0.3261  0.6689 -0.1498
  140SAPE  H11X15325   1.432   5.598   9.492 -0.8518 -0.1887 -0.5544
  140SAPE  H11Y15326   1.377   5.769   9.477  0.7543  0.4514 -2.3766
  140SAPE  C31215327   1.301   5.647   9.334  0.1821 -0.2548 -0.2193
  140SAPE  H12X15328   1.211   5.710   9.321  1.3825  1.3869 -1.0881
  140SAPE  H12Y15329   1.270   5.541   9.322  1.6265 -0.7077 -0.1939
  140SAPE  C31315330   1.403   5.673   9.230  0.2027 -0.7033 -0.5509
  140SAPE  H13X15331   1.484   5.602   9.256  1.9354  1.1166 -0.7336
  140SAPE  H13Y15332   1.454   5.772   9.234 -0.8795 -0.0079 -2.4694
  140SAPE  C31415333   1.359   5.660   9.084 -0.3572 -0.2208 -0.7032
  140SAPE  H14X15334   1.289   5.743   9.060  0.5669  0.6902 -0.2800
  140SAPE  H14Y15335   1.297   5.567   9.075 -1.1379  0.2016  0.1583
  140SAPE  C31515336   1.482   5.655   8.986 -0.5399  0.0707 -0.4060
  140SAPE  H15X15337   1.538   5.565   9.020  0.0222  0.9704  1.1153
  140SAPE  H15Y15338   1.542   5.748   8.993 -0.8937  0.2842 -0.1973
  140SAPE  C31615339   1.438   5.633   8.844 -0.3534  0.4365  0.4093
  140SAPE  H16X15340   1.394   5.729   8.808  2.1231  0.6778 -2.3972
  140SAPE  H16Y15341   1.352   5.565   8.831  0.1917  0.2485 -3.2605
  140SAPE  C31715342   1.557   5.600   8.741 -0.2569 -0.2322 -0.7954
  140SAPE  H17X15343   1.593   5.505   8.786 -0.7226  0.9059  2.2081
  140SAPE  H17Y15344   1.637   5.678   8.746 -0.8465  0.3736 -0.7233
  140SAPE  C31815345   1.516   5.567   8.601  0.3322 -0.2567 -0.5671
  140SAPE  H18X15346   1.460   5.658   8.569 -0.9796 -0.5493  0.8125
  140SAPE  H18Y15347   1.446   5.482   8.614  1.2713 -1.3402 -2.2677
  140SAPE  H18Z15348   1.594   5.522   8.535 -0.6302 -2.6776 -0.1433
  141SAPE     N15349   0.357   1.027  11.150 -0.0707  0.0130  0.2652
  141SAPE   HN115350   0.298   0.974  11.218  0.5009 -1.0978 -0.0756
  141SAPE   HN215351   0.404   1.104  11.202  2.2518 -1.2597  0.1929
  141SAPE   HN315352   0.284   1.071  11.091  0.8919  1.9748  0.4768
  141SAPE   C1215353   0.457   0.944  11.070 -0.0518  0.3792 -0.0113
  141SAPE  H12A15354   0.410   0.851  11.032  2.6029 -2.6134  3.3135
  141SAPE  H12B15355   0.531   0.918  11.149  0.6342  1.1816 -0.3749
  141SAPE   C1115356   0.540   1.028  10.972  0.1396  0.0762  0.2015
  141SAPE  H11A15357   0.483   1.041  10.877 -0.1017 -0.7797  0.2156
  141SAPE  H11B15358   0.632   0.972  10.944 -0.8931 -1.7989  0.3764
  141SAPE     P15359   0.716   1.216  11.023 -0.5295 -0.0402  0.0919
  141SAPE   O1315360   0.716   1.356  11.064  0.1998  0.4845 -0.1795
  141SAPE   O1415361   0.797   1.132  11.116 -0.0204  0.4174 -0.2704
  141SAPE   O1215362   0.561   1.160  11.020 -0.4349 -0.6243 -0.1973
  141SAPE   O1115363   0.759   1.210  10.872  0.0723 -0.0991 -0.2526
  141SAPE    C115364   0.727   1.302  10.769 -0.3613  0.6930  0.2821
  141SAPE    HA15365   0.738   1.405  10.811  2.0327  0.9055 -0.6908
  141SAPE    HB15366   0.807   1.296  10.692  0.6406  1.3078  1.2486
  141SAPE    C215367   0.595   1.276  10.702  0.0644 -0.3788  0.2449
  141SAPE    HS15368   0.522   1.260  10.784  0.7746  0.0468  0.9719
  141SAPE   O2115369   0.605   1.155  10.623 -0.4983 -0.0627 -0.3378
  141SAPE   C2115370   0.483   1.097  10.594 -0.0510 -0.2380  0.1624
  141SAPE   O2215371   0.376   1.139  10.630  0.3668  0.7668 -0.1529
  141SAPE   C2215372   0.510   0.980  10.501 -0.8939 -0.4976 -0.6022
  141SAPE   H2R15373   0.549   1.028  10.409  0.9940 -0.3772  0.2217
  141SAPE   H2S15374   0.583   0.913  10.551 -1.1813 -1.0024 -0.8548
  141SAPE    C315375   0.545   1.400  10.616  0.4144  0.0399 -1.2038
  141SAPE    HX15376   0.533   1.483  10.689 -0.9430 -0.6499 -0.5871
  141SAPE    HY15377   0.445   1.391  10.568 -0.6710  0.6759  0.7931
  141SAPE   O3115378   0.644   1.441  10.526 -0.9236 -0.3787 -0.2691
  141SAPE   C3115379   0.629   1.401  10.403 -0.3969 -0.5215 -0.1820
  141SAPE   O3215380   0.531   1.352  10.357  0.1382 -0.0247 -0.0899
  141SAPE   C3215381   0.761   1.430  10.329 -0.1067 -0.0442  0.0417
  141SAPE   H2X15382   0.838   1.407  10.405 -0.7995 -0.5004  0.6237
  141SAPE   H2Y15383   0.755   1.538  10.304  0.2652  0.3158  1.3978
  141SAPE   C2315384   0.388   0.893  10.472 -0.1461 -0.4452  0.0267
  141SAPE   H3R15385   0.304   0.952  10.430 -0.1904  0.1100  0.8633
  141SAPE   H3S15386   0.356   0.831  10.559  4.0363 -1.2169  1.2433
  141SAPE   C2415387   0.428   0.801  10.353  0.3299 -0.6274 -0.0994
  141SAPE   H4R15388   0.465   0.864  10.270  0.4785 -1.6949 -0.8566
  141SAPE   H4S15389   0.335   0.754  10.315 -0.6640  1.1744 -0.0213
  141SAPE   C2515390   0.533   0.703  10.385  0.3830  0.2265  0.7734
  141SAPE   H5R15391   0.500   0.617  10.444  1.0866 -1.3813 -1.0922
  141SAPE   C2615392   0.665   0.713  10.371 -0.1204  0.7262 -0.5808
  141SAPE   H6R15393   0.721   0.620  10.391  1.6361  2.3680  3.1243
  141SAPE   C2715394   0.752   0.812  10.302 -0.0212  0.1041  0.3498
  141SAPE   H7R15395   0.685   0.896  10.272 -0.4469  0.1597  1.4299
  141SAPE   H7S15396   0.798   0.769  10.211 -0.2026  2.1661 -0.7702
  141SAPE   C2815397   0.861   0.863  10.397 -0.2742 -0.7865 -0.2877
  141SAPE   H8R15398   0.838   0.842  10.502  1.9689 -1.6753  0.0888
  141SAPE   C2915399   0.981   0.920  10.362  0.0312  0.3077 -0.2201
  141SAPE   H9R15400   1.046   0.955  10.444 -0.7818  1.4826 -0.0518
  141SAPE  C21015401   1.030   0.931  10.217  0.0771  0.4867  0.0282
  141SAPE  H10R15402   1.017   1.036  10.181 -0.2078  0.8833  1.2510
  141SAPE  H10S15403   0.961   0.872  10.154  0.2817  0.3622 -0.0790
  141SAPE  C21115404   1.172   0.887  10.200  0.6431  0.5046  0.1780
  141SAPE  H11R15405   1.236   0.910  10.287 -0.9047 -1.0965  1.8430
  141SAPE  C21215406   1.218   0.840  10.082 -0.2374  0.2310  0.4577
  141SAPE  H12R15407   1.327   0.835  10.077  0.2395  4.8287  1.6391
  141SAPE  C21315408   1.147   0.819   9.949 -0.8054  0.0980  0.1288
  141SAPE  H13R15409   1.210   0.868   9.871 -1.7818  2.1139  0.5267
  141SAPE  H13S15410   1.054   0.879   9.949 -0.5734  0.4710 -0.2432
  141SAPE  C21415411   1.113   0.681   9.913  0.1903 -0.2109  0.0787
  141SAPE  H14R15412   1.083   0.627  10.004  0.2713  2.7716  2.0006
  141SAPE  C21515413   1.105   0.629   9.789 -0.0593 -0.1500  0.1459
  141SAPE  H15R15414   1.088   0.522   9.773  2.1258 -0.5607  0.1442
  141SAPE  C21615415   1.122   0.700   9.659  0.3575  0.8773  0.3645
  141SAPE  H16R15416   1.175   0.638   9.584  1.4913  3.3184 -0.9546
  141SAPE  H16S15417   1.192   0.784   9.677  1.4068  0.6667 -2.2655
  141SAPE  C21715418   0.996   0.755   9.600 -0.1764  0.5163  0.2218
  141SAPE  H17R15419   1.028   0.793   9.501  2.2753  0.3475  0.8825
  141SAPE  H17S15420   0.961   0.843   9.659  0.2782  0.3831  0.6967
  141SAPE  C21815421   0.876   0.657   9.577 -0.3436  0.1627  0.0556
  141SAPE  H18R15422   0.845   0.620   9.676  0.5109 -0.3505  0.1439
  141SAPE  H18S15423   0.904   0.570   9.514  0.1011  0.6859 -0.4862
  141SAPE  C21915424   0.756   0.728   9.515  0.0480 -1.2145  0.0869
  141SAPE  H19R15425   0.817   0.770   9.432  0.9386 -1.0728  0.8033
  141SAPE  H19S15426   0.722   0.811   9.580  1.1433 -1.7510  1.3813
  141SAPE  C22015427   0.635   0.648   9.482 -0.3436 -0.7856 -0.3610
  141SAPE  H20R15428   0.650   0.563   9.412  0.0478  0.0977 -1.3669
  141SAPE  H20S15429   0.558   0.713   9.435 -0.3987 -0.1096  0.6440
  141SAPE  H20T15430   0.596   0.603   9.576 -0.5712  3.0694  1.5835
  141SAPE   C3315431   0.777   1.340  10.211  0.2709  0.7746  0.4631
  141SAPE   H3X15432   0.688   1.351  10.146  1.3810  3.3039 -0.7324
  141SAPE   H3Y15433   0.782   1.233  10.242  0.9621  1.0924  1.4831
  141SAPE   C3415434   0.911   1.366  10.126  0.2705  0.0160 -0.6020
  141SAPE   H4X15435   0.995   1.358  10.198  0.7868 -0.0728 -1.2064
  141SAPE   H4Y15436   0.906   1.463  10.071  2.2747  0.9717  0.8033
  141SAPE   C3515437   0.917   1.264  10.009 -0.2590 -0.4372 -0.3384
  141SAPE   H5X15438   0.818   1.245   9.962  0.4144  1.3148 -2.7312
  141SAPE   H5Y15439   0.950   1.167  10.051 -0.4939  0.4697  2.1134
  141SAPE   C3615440   1.019   1.297   9.896  0.1209  0.0713  0.5308
  141SAPE   H6X15441   1.106   1.351   9.941  0.7570 -1.4657  1.1917
  141SAPE   H6Y15442   0.961   1.358   9.823 -0.5526 -3.4235 -2.0925
  141SAPE   C3715443   1.060   1.169   9.808 -0.1653  0.1750 -0.6257
  141SAPE   H7X15444   0.962   1.118   9.792  0.4170 -0.7227 -1.3932
  141SAPE   H7Y15445   1.103   1.094   9.878  0.9837  1.4498  0.0712
  141SAPE   C3815446   1.144   1.193   9.680 -0.2360 -0.0104  0.1237
  141SAPE   H8X15447   1.210   1.104   9.666 -0.0818 -0.3546  2.5638
  141SAPE   H8Y15448   1.208   1.283   9.692  0.0553 -0.2992  0.8756
  141SAPE   C3915449   1.043   1.202   9.567  0.4359 -0.2531  1.0168
  141SAPE   H9X15450   0.993   1.300   9.580  0.4573 -0.1699  0.5010
  141SAPE   H9Y15451   0.961   1.128   9.581  0.5225 -0.1401  2.1668
  141SAPE  C31015452   1.104   1.200   9.427  0.1951  0.3188  0.5753
  141SAPE  H10X15453   1.168   1.112   9.406  2.4793  1.9871  0.2437
  141SAPE  H10Y15454   1.177   1.281   9.409  0.2547  0.1705  0.1364
  141SAPE  C31115455   1.003   1.220   9.313  0.0710  0.2427  0.5500
  141SAPE  H11X15456   0.926   1.299   9.332 -0.3168  0.0400 -0.1601
  141SAPE  H11Y15457   0.943   1.128   9.299 -0.1062  0.4038  0.2531
  141SAPE  C31215458   1.071   1.257   9.181  0.1912  0.0939 -0.4741
  141SAPE  H12X15459   1.161   1.192   9.177 -0.0042 -0.1940 -0.2163
  141SAPE  H12Y15460   1.106   1.362   9.194 -0.3669  0.1733  0.4949
  141SAPE  C31315461   0.982   1.246   9.053 -0.4207 -0.5444  0.5492
  141SAPE  H13X15462   0.896   1.313   9.074  0.9156  1.1543  0.9006
  141SAPE  H13Y15463   0.939   1.145   9.041 -1.4864 -0.1578  1.0483
  141SAPE  C31415464   1.052   1.285   8.919  0.4901 -0.4490  0.6721
  141SAPE  H14X15465   1.081   1.392   8.927  0.0268 -0.2352 -0.4226
  141SAPE  H14Y15466   0.982   1.275   8.833  0.6340  0.5093  0.4361
  141SAPE  C31515467   1.173   1.203   8.882  0.1374  0.1078  0.9547
  141SAPE  H15X15468   1.158   1.093   8.878  2.1445 -0.1485 -0.6008
  141SAPE  H15Y15469   1.258   1.211   8.953  0.3717  1.4324  0.5674
  141SAPE  C31615470   1.239   1.257   8.747 -0.7904  0.3034  0.3033
  141SAPE  H16X15471   1.275   1.361   8.765 -0.4326  0.0785  0.9095
  141SAPE  H16Y15472   1.169   1.249   8.661 -0.9144  0.0943  0.4238
  141SAPE  C31715473   1.365   1.179   8.714  0.0544  0.4445  0.7235
  141SAPE  H17X15474   1.343   1.071   8.722  0.7943  0.3478  1.6135
  141SAPE  H17Y15475   1.438   1.210   8.792  0.1970  2.7241 -0.2214
  141SAPE  C31815476   1.410   1.207   8.569  0.0353  0.0509 -0.3165
  141SAPE  H18X15477   1.425   1.313   8.540  2.3948 -0.2682 -0.4558
  141SAPE  H18Y15478   1.327   1.168   8.506 -0.6925 -0.1516  0.7487
  141SAPE  H18Z15479   1.504   1.156   8.537  2.1957  3.2473  0.4718
  142SAPE     N15480   1.038   5.553  10.907  0.3834 -0.4866  0.6662
  142SAPE   HN115481   0.987   5.602  10.983 -1.2778 -0.8009 -0.2036
  142SAPE   HN215482   1.124   5.508  10.945  2.1197  1.6004 -0.5159
  142SAPE   HN315483   1.075   5.621  10.837  1.3270  1.3396  2.8126
  142SAPE   C1215484   0.946   5.453  10.845 -0.3460  0.0496  0.6485
  142SAPE  H12A15485   0.870   5.516  10.794  2.3699  2.9757 -0.1729
  142SAPE  H12B15486   0.894   5.393  10.923 -0.8379 -0.4748 -0.0677
  142SAPE   C1115487   1.023   5.358  10.753 -0.1529  0.6628  0.2132
  142SAPE  H11A15488   1.063   5.423  10.673  0.6369  1.2304  1.0454
  142SAPE  H11B15489   0.939   5.299  10.710 -0.8473  1.1601  0.8639
  142SAPE     P15490   1.168   5.146  10.792 -0.1282  0.4088 -0.1886
  142SAPE   O1315491   1.288   5.109  10.871 -0.1092  0.0338  0.2181
  142SAPE   O1415492   1.051   5.059  10.796  0.6454  0.0273  0.1378
  142SAPE   O1215493   1.116   5.288  10.837  0.4177  0.5283  0.2467
  142SAPE   O1115494   1.208   5.170  10.639 -0.4699  0.3950  0.1618
  142SAPE    C115495   1.326   5.252  10.612  0.2595  0.2365  1.3102
  142SAPE    HA15496   1.301   5.360  10.623  0.2697  0.4198 -0.2589
  142SAPE    HB15497   1.415   5.233  10.676  0.6763 -0.1267  0.6405
  142SAPE    C215498   1.374   5.222  10.460  0.0328  0.3711  0.3401
  142SAPE    HS15499   1.440   5.310  10.447 -2.2789  1.9005 -2.1336
  142SAPE   O2115500   1.267   5.207  10.363 -0.2585  0.7442  0.0011
  142SAPE   C2115501   1.220   5.318  10.325 -0.3284  0.1975  0.2261
  142SAPE   O2215502   1.232   5.429  10.377  0.3020 -0.2531  0.1818
  142SAPE   C2215503   1.141   5.294  10.198 -0.1210  0.2862  0.8557
  142SAPE   H2R15504   1.210   5.277  10.114 -2.0710 -0.4319 -0.6768
  142SAPE   H2S15505   1.076   5.205  10.214  0.1811 -0.2883 -0.9855
  142SAPE    C315506   1.462   5.090  10.448 -0.7620 -0.3860  1.3049
  142SAPE    HX15507   1.406   4.999  10.477  0.9092 -2.2317 -0.9330
  142SAPE    HY15508   1.549   5.101  10.516  0.4713 -2.9649  0.2620
  142SAPE   O3115509   1.532   5.081  10.319 -0.1136 -0.4667 -0.0844
  142SAPE   C3115510   1.452   5.025  10.226  0.4833  0.1471 -0.1585
  142SAPE   O3215511   1.344   4.983  10.251  0.1458 -0.4402  0.1014
  142SAPE   C3215512   1.517   5.031  10.091  0.2830  0.3973 -0.2410
  142SAPE   H2X15513   1.538   4.931  10.049 -0.6494  0.5905 -1.2082
  142SAPE   H2Y15514   1.618   5.079  10.094 -0.2316  1.5363 -0.4291
  142SAPE   C2315515   1.052   5.417  10.159 -0.1601 -0.6934 -0.1842
  142SAPE   H3R15516   1.114   5.497  10.112  0.9402 -1.4966 -0.1399
  142SAPE   H3S15517   0.990   5.446  10.246 -1.2544 -1.4892 -0.6796
  142SAPE   C2415518   0.934   5.373  10.061 -0.0601  0.1524 -0.1641
  142SAPE   H4R15519   0.864   5.457  10.041 -0.7731 -0.2539  0.5541
  142SAPE   H4S15520   0.869   5.299  10.113  0.1179 -1.6831 -2.3986
  142SAPE   C2515521   0.985   5.326   9.929 -0.2861  0.2260  0.1069
  142SAPE   H5R15522   1.087   5.286   9.932 -0.7171 -0.8625  0.9238
  142SAPE   C2615523   0.913   5.330   9.816 -0.0208 -0.6741  0.2941
  142SAPE   H6R15524   0.962   5.282   9.730  2.1794  0.8374  0.6295
  142SAPE   C2715525   0.763   5.373   9.810  0.6413  0.5772  0.2761
  142SAPE   H7R15526   0.749   5.481   9.791  0.3595  0.1345 -2.5021
  142SAPE   H7S15527   0.708   5.349   9.903 -0.7583  1.3566 -0.3271
  142SAPE   C2815528   0.696   5.288   9.709  0.0338 -0.1931 -0.0372
  142SAPE   H8R15529   0.638   5.202   9.745 -2.7397  1.6779  0.3335
  142SAPE   C2915530   0.702   5.314   9.579 -0.0836 -0.1568  1.3573
  142SAPE   H9R15531   0.646   5.242   9.517 -1.0373 -0.4879  2.5628
  142SAPE  C21015532   0.763   5.433   9.503 -0.0823  0.1728  0.3910
  142SAPE  H10R15533   0.838   5.478   9.573  1.1159  0.3579 -0.9678
  142SAPE  H10S15534   0.692   5.506   9.459  1.0065 -0.1239 -2.0042
  142SAPE  C21115535   0.853   5.373   9.396 -0.0416 -0.0453 -0.5763
  142SAPE  H11R15536   0.955   5.354   9.432 -1.3707 -1.6427  2.7349
  142SAPE  C21215537   0.817   5.342   9.270  0.2189 -0.0764 -0.2508
  142SAPE  H12R15538   0.891   5.299   9.201  0.9665 -1.8113  1.5408
  142SAPE  C21315539   0.689   5.372   9.201  0.4000  0.0489 -0.0995
  142SAPE  H13R15540   0.696   5.434   9.109 -2.7804 -1.3766 -1.4570
  142SAPE  H13S15541   0.626   5.426   9.275  1.7323 -0.7201  1.6746
  142SAPE  C21415542   0.617   5.245   9.162 -0.0282 -0.0663 -1.2586
  142SAPE  H14R15543   0.655   5.147   9.195  0.8602  0.8055  0.4473
  142SAPE  C21515544   0.493   5.244   9.099  0.2191 -0.5222 -0.1230
  142SAPE  H15R15545   0.441   5.149   9.078  0.1226 -0.6883  0.8431
  142SAPE  C21615546   0.423   5.367   9.039 -0.6744  0.2125  0.1790
  142SAPE  H16R15547   0.469   5.461   9.077  0.9639  0.9334 -3.2043
  142SAPE  H16S15548   0.316   5.369   9.067 -0.8356  0.9649 -0.4539
  142SAPE  C21715549   0.430   5.369   8.890  0.5790 -0.0920  0.3303
  142SAPE  H17R15550   0.379   5.279   8.850 -0.9824  0.3613  1.2202
  142SAPE  H17S15551   0.536   5.370   8.856  1.0802  0.2682  1.8358
  142SAPE  C21815552   0.356   5.485   8.839 -0.3392 -0.0752  0.0093
  142SAPE  H18R15553   0.420   5.572   8.866 -3.2959  1.7327  1.7229
  142SAPE  H18S15554   0.256   5.508   8.881 -0.5847  2.8217 -1.8817
  142SAPE  C21915555   0.331   5.481   8.687  0.6113 -0.4082  1.0064
  142SAPE  H19R15556   0.254   5.409   8.653  1.6069  0.0260 -2.5309
  142SAPE  H19S15557   0.425   5.446   8.640  0.4881  1.3262 -0.6545
  142SAPE  C22015558   0.291   5.622   8.640  0.1820  0.0748  0.1255
  142SAPE  H20R15559   0.357   5.704   8.675 -0.4442  0.1689  1.1161
  142SAPE  H20S15560   0.191   5.645   8.683 -0.5873 -1.1788 -0.9028
  142SAPE  H20T15561   0.277   5.621   8.529  0.8778  1.2655  0.0096
  142SAPE   C3315562   1.440   5.113   9.987 -0.1687  0.7382 -0.7486
  142SAPE   H3X15563   1.430   5.215  10.029  1.6755  0.5211  0.3691
  142SAPE   H3Y15564   1.341   5.071   9.960  0.2537  0.7450 -2.4146
  142SAPE   C3415565   1.506   5.114   9.847 -0.0077  0.3225  0.2071
  142SAPE   H4X15566   1.526   5.008   9.820  1.1323  0.4455  0.4836
  142SAPE   H4Y15567   1.606   5.162   9.857  0.2515 -0.0654 -0.4263
  142SAPE   C3515568   1.419   5.175   9.742 -0.1205 -0.2402 -0.5935
  142SAPE   H5X15569   1.407   5.283   9.767  1.4076 -0.6305  2.1290
  142SAPE   H5Y15570   1.313   5.144   9.752 -0.5091  0.5400 -1.9659
  142SAPE   C3615571   1.481   5.146   9.603  0.2419  0.7100 -0.3409
  142SAPE   H6X15572   1.476   5.036   9.593 -2.0650  0.3987  2.8385
  142SAPE   H6Y15573   1.591   5.155   9.594  0.3646 -1.4783 -1.8539
  142SAPE   C3715574   1.416   5.202   9.474 -0.0149 -0.0449  0.2668
  142SAPE   H7X15575   1.403   5.309   9.503  0.7226  0.8297 -2.3677
  142SAPE   H7Y15576   1.317   5.152   9.464 -1.4636  2.8592 -1.3066
  142SAPE   C3815577   1.504   5.180   9.357  0.4567 -0.3927 -0.0691
  142SAPE   H8X15578   1.512   5.072   9.332  1.3692 -0.4564  0.4607
  142SAPE   H8Y15579   1.602   5.223   9.386  0.6218 -0.2854 -0.7632
  142SAPE   C3915580   1.456   5.255   9.234  0.3094 -0.1437 -0.4100
  142SAPE   H9X15581   1.527   5.225   9.155 -0.6968  1.0284 -1.8046
  142SAPE   H9Y15582   1.462   5.366   9.229  0.3713 -0.2171 -3.0192
  142SAPE  C31015583   1.310   5.219   9.191 -0.0514 -0.2427  0.2354
  142SAPE  H10X15584   1.242   5.270   9.264  1.0750  0.0820  1.1021
  142SAPE  H10Y15585   1.300   5.109   9.194 -2.1659 -0.0963 -0.2035
  142SAPE  C31115586   1.273   5.264   9.052  0.3997  0.5997  0.4481
  142SAPE  H11X15587   1.232   5.366   9.066  1.7179  0.8979  2.5181
  142SAPE  H11Y15588   1.188   5.194   9.034  0.7865 -0.0135  0.9509
  142SAPE  C31215589   1.383   5.255   8.945  0.4676 -0.0051  0.1640
  142SAPE  H12X15590   1.448   5.169   8.972  1.7070  0.7974 -0.1654
  142SAPE  H12Y15591   1.440   5.350   8.951 -0.4129  0.9268 -3.4975
  142SAPE  C31315592   1.322   5.236   8.811 -0.4239  0.0887 -0.2379
  142SAPE  H13X15593   1.262   5.325   8.781 -0.3883 -0.1002 -0.8686
  142SAPE  H13Y15594   1.247   5.157   8.831  0.8876 -0.9660  0.7567
  142SAPE  C31415595   1.441   5.214   8.713  0.3267 -0.9604  0.1237
  142SAPE  H14X15596   1.508   5.129   8.741  1.8208 -1.0226 -3.1032
  142SAPE  H14Y15597   1.502   5.307   8.714  0.3525 -0.9737 -0.1991
  142SAPE  C31515598   1.384   5.176   8.573 -1.0329 -0.0887 -0.5667
  142SAPE  H15X15599   1.349   5.265   8.516  0.7674  0.8056 -0.3329
  142SAPE  H15Y15600   1.302   5.103   8.589 -0.9234 -0.4735 -1.7235
  142SAPE  C31615601   1.490   5.109   8.479  1.4536  0.8333  0.3263
  142SAPE  H16X15602   1.442   5.070   8.387  2.3735 -1.3768  0.6987
  142SAPE  H16Y15603   1.536   5.026   8.538  0.4159  0.0722  0.0852
  142SAPE  C31715604   1.598   5.198   8.418  0.4872  0.2238  0.0628
  142SAPE  H17X15605   1.655   5.255   8.494 -0.3482  0.7534  0.3085
  142SAPE  H17Y15606   1.554   5.279   8.355  1.5799  3.3487  2.9806
  142SAPE  C31815607   1.703   5.122   8.341 -0.6327 -0.5246 -0.4559
  142SAPE  H18X15608   1.772   5.197   8.295 -0.9581 -0.3517 -0.6681
  142SAPE  H18Y15609   1.660   5.067   8.255  0.6585 -0.8439 -0.9308
  142SAPE  H18Z15610   1.771   5.066   8.409 -0.4083 -0.8770 -0.9613
  143SAPE     N15611   1.483   0.087  10.777 -0.4176 -0.3016  0.2991
  143SAPE   HN115612   1.585   0.072  10.790 -0.2680  0.1483 -0.3041
  143SAPE   HN215613   1.461   0.048  10.684  2.7064  0.7599 -1.0202
  143SAPE   HN315614   1.464   0.190  10.781 -0.5738 -0.3207  0.0390
  143SAPE   C1215615   1.397   0.023  10.880 -0.0445  0.1662 -0.4469
  143SAPE  H12A15616   1.296   0.046  10.841 -0.5560 -0.8168  0.2265
  143SAPE  H12B15617   1.419   0.065  10.981  3.3735  1.0106 -1.4203
  143SAPE   C1115618   1.419  -0.132  10.882  0.5908  0.8669 -0.0348
  143SAPE  H11A15619   1.413  -0.176  10.780 -1.3647  0.8775  0.0331
  143SAPE  H11B15620   1.333  -0.164  10.945 -0.5500  0.3960 -1.7530
  143SAPE     P15621   1.573  -0.271  11.034  0.2004  0.0441 -0.4292
  143SAPE   O1315622   1.644  -0.221  11.157  0.3018  0.5302 -0.2761
  143SAPE   O1415623   1.448  -0.344  11.048  0.4435  0.2379 -0.8208
  143SAPE   O1215624   1.547  -0.145  10.936 -0.3287 -0.1894  0.0660
  143SAPE   O1115625   1.667  -0.353  10.937  0.1539 -0.0922 -0.1475
  143SAPE    C115626   1.804  -0.319  10.916  0.5512  0.3449  0.2550
  143SAPE    HA15627   1.811  -0.209  10.903 -0.2382  0.4344  0.5099
  143SAPE    HB15628   1.860  -0.349  11.008  1.1662 -2.2409 -0.8701
  143SAPE    C215629   1.875  -0.377  10.786  0.0807  0.1575 -0.4098
  143SAPE    HS15630   1.796  -0.371  10.707 -0.1008  2.3060 -0.1312
  143SAPE   O2115631   1.913  -0.516  10.801  0.3500  0.3356  0.4513
  143SAPE   C2115632   1.929  -0.586  10.678 -0.8796  0.5045 -0.4221
  143SAPE   O2215633   1.881  -0.554  10.569  0.5300  0.1975 -0.8737
  143SAPE   C2215634   2.024  -0.699  10.698  0.4715  0.1914  0.6635
  143SAPE   H2R15635   1.995  -0.753  10.791  1.2299 -1.3911  0.0203
  143SAPE   H2S15636   2.009  -0.778  10.621 -0.3874  0.1897  0.8199
  143SAPE    C315637   2.005  -0.290  10.754  0.1082  0.3151  0.7662
  143SAPE    HX15638   2.085  -0.318  10.826  1.3242 -0.7478 -0.9496
  143SAPE    HY15639   1.974  -0.184  10.769  1.5563  0.8665  0.0778
  143SAPE   O3115640   2.051  -0.321  10.623 -0.6748 -0.1044 -0.0349
  143SAPE   C3115641   1.979  -0.276  10.523 -0.5603 -0.4600 -0.2524
  143SAPE   O3215642   1.877  -0.208  10.533 -1.0750  0.2559  0.1904
  143SAPE   C3215643   2.047  -0.320  10.393  0.1304 -0.2500  0.0161
  143SAPE   H2X15644   2.108  -0.410  10.415 -2.3322 -2.3488 -1.1944
  143SAPE   H2Y15645   2.116  -0.236  10.369 -1.2433  0.6779 -0.8111
  143SAPE   C2315646   2.169  -0.655  10.717  0.2247 -0.8362 -0.7413
  143SAPE   H3R15647   2.216  -0.735  10.778  1.7530 -0.2125 -1.0730
  143SAPE   H3S15648   2.181  -0.564  10.780  0.3137  0.2544 -2.2630
  143SAPE   C2415649   2.250  -0.638  10.589  0.5686  0.4216  0.4478
  143SAPE   H4R15650   2.354  -0.604  10.607  0.1703  1.6381  0.5397
  143SAPE   H4S15651   2.199  -0.566  10.522  1.2752  1.4853  1.0339
  143SAPE   C2515652   2.255  -0.776  10.512  0.2092 -0.3957 -0.4198
  143SAPE   H5R15653   2.305  -0.853  10.572 -2.5699 -2.9028 -1.0398
  143SAPE   C2615654   2.220  -0.816  10.390 -0.0667  0.0600  0.1898
  143SAPE   H6R15655   2.247  -0.921  10.369  1.2662  0.4780 -0.2912
  143SAPE   C2715656   2.142  -0.746  10.285  0.1039  0.3149 -0.1045
  143SAPE   H7R15657   2.216  -0.717  10.208 -0.2977 -3.9722 -2.4103
  143SAPE   H7S15658   2.099  -0.657  10.336  0.0414 -0.0662  0.5279
  143SAPE   C2815659   2.026  -0.822  10.230  0.6484  0.3878  0.5667
  143SAPE   H8R15660   1.934  -0.819  10.289  0.9737 -0.0584  1.1062
  143SAPE   C2915661   2.021  -0.885  10.110 -0.1487 -0.0942  0.1168
  143SAPE   H9R15662   1.937  -0.947  10.076  1.1130  0.0919 -3.8260
  143SAPE  C21015663   2.149  -0.892  10.029  0.3313  0.1236  0.1803
  143SAPE  H10R15664   2.239  -0.917  10.090  0.8332  2.1635  0.3370
  143SAPE  H10S15665   2.172  -0.790   9.991  2.9653 -0.1782  0.7640
  143SAPE  C21115666   2.144  -0.986   9.909  0.5741 -0.6487 -0.1541
  143SAPE  H11R15667   2.140  -1.094   9.931 -1.5199 -0.9550 -1.6843
  143SAPE  C21215668   2.161  -0.955   9.783  0.1510  0.5217 -0.1407
  143SAPE  H12R15669   2.147  -1.035   9.709 -0.7205 -0.5557  1.1260
  143SAPE  C21315670   2.181  -0.829   9.707  0.3142 -0.3639  0.2664
  143SAPE  H13R15671   2.153  -0.742   9.770 -2.2247 -0.2814 -0.8577
  143SAPE  H13S15672   2.101  -0.813   9.632 -0.6759 -0.7462  1.2213
  143SAPE  C21415673   2.318  -0.802   9.654  0.5240  0.1589  0.6680
  143SAPE  H14R15674   2.384  -0.747   9.722 -0.2813 -0.0966  1.6778
  143SAPE  C21515675   2.358  -0.821   9.527 -0.6747  0.2310  0.3627
  143SAPE  H15R15676   2.467  -0.810   9.512 -0.9055 -0.3828 -2.2806
  143SAPE  C21615677   2.288  -0.879   9.411  0.6433  0.3011  0.2673
  143SAPE  H16R15678   2.200  -0.936   9.447  1.1601 -0.0222  1.0397
  143SAPE  H16S15679   2.358  -0.950   9.363  0.3291  0.5071 -0.5114
  143SAPE  C21715680   2.238  -0.769   9.313  0.2673 -0.2556 -0.1578
  143SAPE  H17R15681   2.323  -0.713   9.269  0.6331 -0.5653  0.1458
  143SAPE  H17S15682   2.176  -0.697   9.371  2.6183  1.7075  0.0747
  143SAPE  C21815683   2.159  -0.847   9.205  0.0671 -0.6907  0.1569
  143SAPE  H18R15684   2.067  -0.876   9.260 -0.1883  0.6840  0.4967
  143SAPE  H18S15685   2.217  -0.932   9.163  1.1730  0.1024  0.0532
  143SAPE  C21915686   2.123  -0.762   9.088 -0.2057 -0.3634 -0.6039
  143SAPE  H19R15687   2.207  -0.705   9.042  0.3667 -0.4591  0.3087
  143SAPE  H19S15688   2.058  -0.682   9.131  0.5944 -1.2389  2.4161
  143SAPE  C22015689   2.060  -0.833   8.974 -0.6212 -0.0964 -0.5483
  143SAPE  H20R15690   2.022  -0.756   8.904  0.8688  1.3097  0.1034
  143SAPE  H20S15691   1.985  -0.908   9.006 -0.3023  0.1281  0.7997
  143SAPE  H20T15692   2.141  -0.876   8.910 -0.1443  0.3720 -0.2727
  143SAPE   C3315693   1.958  -0.349  10.271  0.6067 -0.2328 -1.1400
  143SAPE   H3X15694   1.892  -0.260  10.261  0.5854 -0.2336 -1.0103
  143SAPE   H3Y15695   1.875  -0.420  10.292  0.9484 -0.3191 -0.0290
  143SAPE   C3415696   2.030  -0.382  10.143  0.1424  0.6015  0.3441
  143SAPE   H4X15697   2.056  -0.489  10.160  2.0986  1.1494  0.9526
  143SAPE   H4Y15698   2.113  -0.310  10.137  0.2134  0.3749 -2.4126
  143SAPE   C3515699   1.951  -0.356  10.008  0.2317 -0.2195  0.1256
  143SAPE   H5X15700   1.915  -0.251  10.006 -0.7193 -0.5387 -0.9925
  143SAPE   H5Y15701   1.870  -0.432  10.004  1.3892 -1.4412 -1.6903
  143SAPE   C3615702   2.041  -0.369   9.881 -0.0731 -0.0593  0.1667
  143SAPE   H6X15703   2.075  -0.474   9.893 -0.2489 -0.0101  1.1705
  143SAPE   H6Y15704   2.124  -0.295   9.881  0.8143 -0.9752  2.3743
  143SAPE   C3715705   1.956  -0.353   9.761 -0.7282  0.2018 -0.2209
  143SAPE   H7X15706   1.923  -0.247   9.769 -1.3314 -0.0555  1.0530
  143SAPE   H7Y15707   1.874  -0.428   9.765 -0.4261 -0.1690 -0.7466
  143SAPE   C3815708   2.043  -0.369   9.630 -0.4373 -0.1563 -0.0504
  143SAPE   H8X15709   2.094  -0.468   9.628 -0.9547 -0.4411 -2.4332
  143SAPE   H8Y15710   2.126  -0.296   9.635  0.2351 -0.4549 -3.8346
  143SAPE   C3915711   1.967  -0.351   9.496 -0.0876  0.4929  0.7029
  143SAPE   H9X15712   1.918  -0.251   9.493  0.8779  0.9498 -0.1648
  143SAPE   H9Y15713   1.886  -0.427   9.492  0.4625 -0.0666 -2.5829
  143SAPE  C31015714   2.055  -0.383   9.371  0.4741 -0.8253 -0.0305
  143SAPE  H10X15715   2.095  -0.486   9.379  0.6195 -1.0691 -2.9451
  143SAPE  H10Y15716   2.135  -0.306   9.368 -0.0975 -0.2791 -1.7507
  143SAPE  C31115717   1.964  -0.375   9.239 -0.1926  0.1589 -0.0887
  143SAPE  H11X15718   1.900  -0.285   9.254 -1.1722 -0.5817  0.2659
  143SAPE  H11Y15719   1.896  -0.461   9.253 -0.0949  0.4305  2.8026
  143SAPE  C31215720   2.046  -0.362   9.108 -0.2244  0.3648 -0.8131
  143SAPE  H12X15721   2.102  -0.456   9.088  0.2559 -0.1661  2.4468
  143SAPE  H12Y15722   2.113  -0.274   9.114 -2.0114  1.6676  1.8159
  143SAPE  C31315723   1.953  -0.321   8.998  0.4364 -0.3672  0.1112
  143SAPE  H13X15724   1.927  -0.215   9.018  0.8091 -0.1312 -0.6005
  143SAPE  H13Y15725   1.864  -0.387   8.990  0.3539 -0.5194  1.9273
  143SAPE  C31415726   2.019  -0.320   8.865 -0.5546  0.1570 -0.0113
  143SAPE  H14X15727   2.111  -0.259   8.878 -0.3263 -0.5537  2.0402
  143SAPE  H14Y15728   1.951  -0.272   8.791 -0.7120 -0.0547 -0.0057
  143SAPE  C31515729   2.066  -0.459   8.815  0.3488 -0.0844 -0.1168
  143SAPE  H15X15730   2.003  -0.545   8.847  0.9708 -1.3101 -1.9718
  143SAPE  H15Y15731   2.175  -0.468   8.835  0.4787  0.9180 -0.3348
  143SAPE  C31615732   2.064  -0.466   8.666 -0.0032  1.0414 -0.2817
  143SAPE  H16X15733   1.962  -0.455   8.624  0.1694 -0.8983 -1.2888
  143SAPE  H16Y15734   2.096  -0.563   8.623 -3.2433  1.2386 -3.5995
  143SAPE  C31715735   2.168  -0.378   8.594 -0.0562  0.1142 -0.4195
  143SAPE  H17X15736   2.263  -0.392   8.651 -1.1669  2.9318  2.4456
  143SAPE  H17Y15737   2.149  -0.271   8.619  2.2617  0.4626  0.1353
  143SAPE  C31815738   2.180  -0.418   8.453 -0.1302  0.2934 -0.6634
  143SAPE  H18X15739   2.243  -0.345   8.396 -2.6291  2.2773 -1.0831
  143SAPE  H18Y15740   2.077  -0.428   8.412  0.3511 -0.1045 -1.8082
  143SAPE  H18Z15741   2.228  -0.518   8.452 -0.8773 -0.0718 -1.2605
  144SAPE     N15742   6.624   4.951  10.929  0.6586 -0.3912  0.0202
  144SAPE   HN115743   6.550   4.905  10.987 -1.4460  2.3416 -0.2969
  144SAPE   HN215744   6.712   4.914  10.969  0.6745 -1.3800 -0.8591
  144SAPE   HN315745   6.618   5.054  10.940 -2.3416 -0.2692 -1.5824
  144SAPE   C1215746   6.627   4.904  10.786 -0.0484  0.5916 -0.2594
  144SAPE  H12A15747   6.660   4.799  10.777 -0.7860  0.2593  0.7351
  144SAPE  H12B15748   6.700   4.975  10.741 -1.8406  2.9757  0.3395
  144SAPE   C1115749   6.488   4.937  10.719 -0.5789  0.3260  0.3145
  144SAPE  H11A15750   6.409   4.902  10.789 -0.9341 -0.3859 -0.4268
  144SAPE  H11B15751   6.488   4.886  10.620  1.7092 -1.0744  0.9491
  144SAPE     P15752   6.340   5.155  10.726 -0.0280  0.1665  0.0615
  144SAPE   O1315753   6.259   5.099  10.838  0.9073 -0.2299  0.6346
  144SAPE   O1415754   6.374   5.297  10.736  0.2442 -0.6100 -0.0900
  144SAPE   O1215755   6.477   5.082  10.714  0.0900 -0.0350 -0.2362
  144SAPE   O1115756   6.262   5.126  10.593 -0.2299  0.1643  0.0196
  144SAPE    C115757   6.317   5.178  10.479  0.9192 -0.1287 -0.2069
  144SAPE    HA15758   6.264   5.274  10.464 -0.3556 -0.9093 -0.8581
  144SAPE    HB15759   6.427   5.191  10.482  0.8374  0.5278  0.3430
  144SAPE    C215760   6.288   5.098  10.353  0.5715 -0.2214  0.4833
  144SAPE    HS15761   6.306   5.167  10.267 -0.4517  1.8012  1.8039
  144SAPE   O2115762   6.151   5.048  10.351 -0.5276  0.4533 -0.0528
  144SAPE   C2115763   6.052   5.153  10.351 -0.2911  0.8456  0.2819
  144SAPE   O2215764   6.066   5.274  10.348  0.2212  0.0412 -0.4298
  144SAPE   C2215765   5.914   5.081  10.342 -0.4722 -0.7835  0.2868
  144SAPE   H2R15766   5.912   4.995  10.270 -2.1956 -0.0455 -0.6036
  144SAPE   H2S15767   5.886   5.044  10.443 -0.5745  2.4672  1.5525
  144SAPE    C315768   6.395   4.988  10.333 -0.1909  0.3106  0.1902
  144SAPE    HX15769   6.381   4.908  10.409 -0.4444  0.8433  0.7180
  144SAPE    HY15770   6.490   5.042  10.351 -0.7726  0.5145  3.1675
  144SAPE   O3115771   6.402   4.942  10.195  0.1776 -0.5469  0.3030
  144SAPE   C3115772   6.344   4.825  10.175  0.2203  0.1203  1.1606
  144SAPE   O3215773   6.315   4.744  10.258  0.2573  0.2271  0.0915
  144SAPE   C3215774   6.345   4.803  10.025  0.8796  0.1912  0.1659
  144SAPE   H2X15775   6.451   4.827  10.002  0.8757  0.0322 -0.0242
  144SAPE   H2Y15776   6.269   4.867   9.975 -0.3692 -0.9821  0.5073
  144SAPE   C2315777   5.800   5.177  10.293  0.0801 -0.2775 -0.2239
  144SAPE   H3R15778   5.781   5.261  10.364 -2.2846 -1.6649  0.8974
  144SAPE   H3S15779   5.708   5.115  10.297 -0.2674 -0.0072 -2.5147
  144SAPE   C2415780   5.823   5.217  10.143  0.1844  0.3522 -0.2159
  144SAPE   H4R15781   5.864   5.126  10.094  2.2077  1.3600 -0.4905
  144SAPE   H4S15782   5.900   5.297  10.145  1.0326 -0.4551 -0.1444
  144SAPE   C2515783   5.693   5.256  10.079 -0.3751 -0.1625  0.7787
  144SAPE   H5R15784   5.615   5.197  10.130  0.1440  0.5734  2.4776
  144SAPE   C2615785   5.672   5.336   9.975 -0.1380  0.2278 -0.2692
  144SAPE   H6R15786   5.566   5.345   9.948 -0.4000 -3.7284 -1.2516
  144SAPE   C2715787   5.778   5.396   9.891 -0.0172 -1.0189 -0.3983
  144SAPE   H7R15788   5.866   5.413   9.956  1.7733 -0.2024 -2.8986
  144SAPE   H7S15789   5.739   5.497   9.865 -0.3590 -1.2000 -0.5930
  144SAPE   C2815790   5.817   5.325   9.767  0.4770 -0.0596 -0.3694
  144SAPE   H8R15791   5.812   5.215   9.759  2.4792 -0.1265 -1.3730
  144SAPE   C2915792   5.876   5.394   9.665  0.1212 -0.2152  0.1814
  144SAPE   H9R15793   5.895   5.336   9.573 -0.9325 -4.4368  2.3857
  144SAPE  C21015794   5.904   5.544   9.661  0.4048  0.3959  0.1531
  144SAPE  H10R15795   5.811   5.591   9.700 -0.2953 -0.7931 -0.0456
  144SAPE  H10S15796   5.914   5.570   9.554 -2.3751  0.3301 -0.2130
  144SAPE  C21115797   6.027   5.592   9.734  0.3373  0.8262  0.0623
  144SAPE  H11R15798   6.012   5.610   9.841 -1.4544 -2.1807  0.4225
  144SAPE  C21215799   6.152   5.592   9.686  0.6207  0.4559  0.2047
  144SAPE  H12R15800   6.231   5.625   9.755  0.7683  0.3300  0.0979
  144SAPE  C21315801   6.193   5.544   9.550 -0.0478 -0.6477 -0.0066
  144SAPE  H13R15802   6.175   5.626   9.477  0.7862 -0.7358 -0.3289
  144SAPE  H13S15803   6.137   5.450   9.532 -0.1640 -0.8481  1.3377
  144SAPE  C21415804   6.338   5.496   9.521  0.3479  0.6149 -0.4949
  144SAPE  H14R15805   6.392   5.459   9.610 -0.2694  0.6338 -0.1086
  144SAPE  C21515806   6.406   5.486   9.400  0.2540 -0.0701  0.3222
  144SAPE  H15R15807   6.502   5.432   9.402 -0.7011 -1.8604 -0.8096
  144SAPE  C21615808   6.355   5.526   9.264 -0.0904 -0.1713  0.0381
  144SAPE  H16R15809   6.421   5.607   9.225  1.5941 -2.1564 -1.4251
  144SAPE  H16S15810   6.256   5.575   9.278  0.6825  1.3247  0.5471
  144SAPE  C21715811   6.338   5.417   9.157  0.4421 -0.8816 -0.2378
  144SAPE  H17R15812   6.271   5.457   9.078 -0.2887 -2.9854 -0.7754
  144SAPE  H17S15813   6.280   5.331   9.199 -0.4401 -1.1587 -1.9284
  144SAPE  C21815814   6.470   5.382   9.081 -0.8190  0.3595  0.0687
  144SAPE  H18R15815   6.538   5.344   9.161 -1.2163 -0.8208 -0.1460
  144SAPE  H18S15816   6.507   5.478   9.038 -1.2316 -0.3438 -1.9468
  144SAPE  C21915817   6.459   5.274   8.976 -0.0924  0.5835  0.1737
  144SAPE  H19R15818   6.459   5.172   9.020 -0.9373 -0.2418 -1.6337
  144SAPE  H19S15819   6.553   5.283   8.917 -0.6669  2.2542 -0.5338
  144SAPE  C22015820   6.344   5.290   8.876 -0.0969 -0.0314  0.0908
  144SAPE  H20R15821   6.359   5.221   8.791 -0.7333 -2.2603  1.6988
  144SAPE  H20S15822   6.319   5.391   8.836  0.4408  1.3845  3.0047
  144SAPE  H20T15823   6.251   5.252   8.923  0.1393  0.0990  0.6852
  144SAPE   C3315824   6.322   4.650   9.986 -0.1056 -0.3298  0.0826
  144SAPE   H3X15825   6.220   4.625  10.022  0.3895 -1.2631  0.8874
  144SAPE   H3Y15826   6.395   4.586  10.040  2.2681  0.7958 -1.5998
  144SAPE   C3415827   6.332   4.627   9.835 -0.7662 -0.0311 -0.0203
  144SAPE   H4X15828   6.286   4.714   9.783 -2.1882 -0.8863 -0.2530
  144SAPE   H4Y15829   6.272   4.538   9.808  0.1983 -0.9464  0.7615
  144SAPE   C3515830   6.478   4.608   9.799 -0.0888  0.1797  0.4927
  144SAPE   H5X15831   6.530   4.532   9.861  2.9460  0.6941 -1.2494
  144SAPE   H5Y15832   6.529   4.705   9.813  2.0494 -0.9170  0.7638
  144SAPE   C3615833   6.486   4.580   9.649  0.3600 -0.8777  1.0055
  144SAPE   H6X15834   6.437   4.662   9.593  1.5323 -0.8648 -0.0455
  144SAPE   H6Y15835   6.445   4.477   9.635  0.1004 -0.4940 -1.5814
  144SAPE   C3715836   6.632   4.572   9.601 -0.6231  0.4483 -0.2443
  144SAPE   H7X15837   6.677   4.482   9.647  1.3366  1.0264 -0.9269
  144SAPE   H7Y15838   6.686   4.662   9.637  0.8847  0.6309 -2.7195
  144SAPE   C3815839   6.649   4.553   9.452  0.5862  0.0132  0.2343
  144SAPE   H8X15840   6.607   4.647   9.411  1.2893 -0.1038 -0.7771
  144SAPE   H8Y15841   6.577   4.471   9.429  2.1610 -1.6321  0.9261
  144SAPE   C3915842   6.794   4.544   9.391 -0.5613 -0.0566 -0.2186
  144SAPE   H9X15843   6.839   4.446   9.414 -3.8929 -1.6038  0.3560
  144SAPE   H9Y15844   6.845   4.630   9.440  0.5152 -0.1693 -1.1047
  144SAPE  C31015845   6.801   4.571   9.245 -0.3469 -0.2043 -0.1786
  144SAPE  H10X15846   6.774   4.677   9.224  3.9698  1.0962 -0.0925
  144SAPE  H10Y15847   6.730   4.501   9.196 -0.6384  1.0293 -1.5678
  144SAPE  C31115848   6.940   4.558   9.185 -0.1344  0.6205 -0.3713
  144SAPE  H11X15849   6.961   4.449   9.190 -2.0820  0.2376  0.4172
  144SAPE  H11Y15850   7.016   4.615   9.243  0.5344 -1.4806  0.9370
  144SAPE  C31215851   6.941   4.602   9.035  0.3098  0.4822  0.6307
  144SAPE  H12X15852   7.046   4.598   9.000  0.3967  0.2523  0.9072
  144SAPE  H12Y15853   6.903   4.706   9.031  0.1367  0.4047 -3.1908
  144SAPE  C31315854   6.869   4.500   8.944  0.0465 -0.1297  0.6714
  144SAPE  H13X15855   6.759   4.502   8.963 -0.5328  0.7562 -2.2601
  144SAPE  H13Y15856   6.897   4.396   8.967  0.6681 -0.2698 -0.6295
  144SAPE  C31415857   6.896   4.530   8.793 -0.3493 -1.2405  0.4295
  144SAPE  H14X15858   7.005   4.516   8.780 -0.0865 -0.2262  1.3488
  144SAPE  H14Y15859   6.872   4.635   8.767  0.9517 -0.9465  0.3984
  144SAPE  C31515860   6.816   4.450   8.687 -0.3352  0.3941  0.1917
  144SAPE  H15X15861   6.857   4.481   8.588  1.2001  3.1373  1.5629
  144SAPE  H15Y15862   6.712   4.490   8.689  0.5963  3.0145  1.5611
  144SAPE  C31615863   6.827   4.295   8.699 -0.8281 -0.2429  0.4770
  144SAPE  H16X15864   6.773   4.266   8.792 -2.5724  0.9990 -0.0984
  144SAPE  H16Y15865   6.933   4.262   8.699  0.1963  2.6896  0.0520
  144SAPE  C31715866   6.772   4.224   8.578  0.3109  0.1311 -0.2857
  144SAPE  H17X15867   6.834   4.229   8.487  1.0079 -1.2081  0.0845
  144SAPE  H17Y15868   6.670   4.262   8.557 -0.0252 -0.6032 -0.0252
  144SAPE  C31815869   6.751   4.076   8.611 -0.8555 -0.3845 -0.4427
  144SAPE  H18X15870   6.723   4.063   8.718  0.7540  0.7055  0.1645
  144SAPE  H18Y15871   6.847   4.030   8.579 -0.1900 -1.5819  2.8548
  144SAPE  H18Z15872   6.670   4.034   8.547 -2.4095  1.0408  0.4954
  145SAPE     N15873   3.944   5.056  10.973 -0.1863 -0.3255  0.1717
  145SAPE   HN115874   3.973   4.988  11.047 -2.1978 -1.4580 -0.0250
  145SAPE   HN215875   4.014   5.133  10.968  0.4133 -0.9137 -0.8042
  145SAPE   HN315876   3.851   5.089  11.006  0.8113 -0.2759  3.2570
  145SAPE   C1215877   3.934   4.972  10.848  0.7661 -0.7363 -0.1729
  145SAPE  H12A15878   3.900   4.872  10.879 -0.2065 -0.2304  0.4207
  145SAPE  H12B15879   4.036   4.965  10.802  2.0836 -1.4151  2.6539
  145SAPE   C1115880   3.827   5.033  10.759 -0.1747 -0.2195 -0.4272
  145SAPE  H11A15881   3.814   4.981  10.661  2.1891  2.6347 -2.4418
  145SAPE  H11B15882   3.871   5.132  10.735 -3.3129  1.4800  0.2393
  145SAPE     P15883   3.582   4.944  10.830  0.2029 -0.0640  0.0359
  145SAPE   O1315884   3.626   4.812  10.884  0.1890 -0.1447  0.2743
  145SAPE   O1415885   3.474   4.994  10.916 -0.4725 -0.3983 -0.3732
  145SAPE   O1215886   3.702   5.052  10.833  0.0863  0.3189 -0.1330
  145SAPE   O1115887   3.541   4.940  10.678 -0.1804 -0.2302  0.3090
  145SAPE    C115888   3.484   5.059  10.617  0.2422  0.2378  0.1305
  145SAPE    HA15889   3.511   5.153  10.669  0.6045 -0.0473  0.4576
  145SAPE    HB15890   3.520   5.070  10.512  0.1373  1.6148  0.2256
  145SAPE    C215891   3.332   5.057  10.610 -0.2570 -0.1528 -0.1471
  145SAPE    HS15892   3.289   5.106  10.701 -1.5146  1.1645 -1.3887
  145SAPE   O2115893   3.284   4.917  10.586 -0.7081 -0.5187  0.1550
  145SAPE   C2115894   3.161   4.895  10.614  0.4978 -0.4041  0.9999
  145SAPE   O2215895   3.095   4.960  10.693 -0.0307 -0.5783  0.3595
  145SAPE   C2215896   3.117   4.784  10.521 -0.9159  0.1095  0.5811
  145SAPE   H2R15897   3.172   4.785  10.425 -2.5224  1.3192 -0.3717
  145SAPE   H2S15898   3.151   4.690  10.570  0.3431 -1.2041 -2.5367
  145SAPE    C315899   3.284   5.161  10.493 -0.1204  0.9267  0.0153
  145SAPE    HX15900   3.332   5.261  10.496 -0.3435  1.0544 -0.5377
  145SAPE    HY15901   3.176   5.176  10.512 -0.7243 -0.2455 -2.1427
  145SAPE   O3115902   3.295   5.097  10.365 -0.1739  0.0491  0.3289
  145SAPE   C3115903   3.211   5.155  10.273 -0.3489 -0.5507  0.0687
  145SAPE   O3215904   3.126   5.238  10.298 -0.0320 -0.2168  1.1532
  145SAPE   C3215905   3.245   5.093  10.136  0.9210 -0.5943 -0.3524
  145SAPE   H2X15906   3.241   4.983  10.151  1.7136 -0.8016 -1.5263
  145SAPE   H2Y15907   3.351   5.122  10.118  1.0923 -0.2276  1.0965
  145SAPE   C2315908   2.966   4.778  10.506  0.2445 -0.3020 -0.5667
  145SAPE   H3R15909   2.918   4.775  10.606  1.7537  1.5280  0.2714
  145SAPE   H3S15910   2.922   4.685  10.463  0.2913 -0.8785  0.6028
  145SAPE   C2415911   2.926   4.892  10.419  0.0662  0.2773 -0.2058
  145SAPE   H4R15912   2.980   4.894  10.322 -0.1048  0.7127 -0.2955
  145SAPE   H4S15913   2.965   4.984  10.468  0.3516  0.1721 -0.2345
  145SAPE   C2515914   2.778   4.901  10.409  0.9827  0.0006  0.1151
  145SAPE   H5R15915   2.726   4.953  10.491 -1.3126  0.4201 -1.5281
  145SAPE   C2615916   2.695   4.866  10.306 -0.3631  0.5980 -0.4881
  145SAPE   H6R15917   2.587   4.859  10.323 -0.3417 -0.3585 -0.6574
  145SAPE   C2715918   2.760   4.806  10.188 -0.3237  0.0384 -0.4116
  145SAPE   H7R15919   2.678   4.740  10.154 -2.5062  2.8589 -1.0183
  145SAPE   H7S15920   2.840   4.732  10.210 -0.8968 -0.4109  0.1835
  145SAPE   C2815921   2.806   4.905  10.085  0.5945  0.0343 -0.4571
  145SAPE   H8R15922   2.845   4.999  10.126 -0.1181  0.5321 -0.9015
  145SAPE   C2915923   2.793   4.896   9.954  0.2169 -0.6583  0.0523
  145SAPE   H9R15924   2.816   4.983   9.890 -0.6899 -1.2591 -1.1554
  145SAPE  C21015925   2.723   4.788   9.876 -0.3952  0.5407 -0.1349
  145SAPE  H10R15926   2.668   4.836   9.793  1.0647  0.9857 -0.8764
  145SAPE  H10S15927   2.665   4.717   9.939  0.2989  0.2264  0.1519
  145SAPE  C21115928   2.823   4.696   9.810 -0.3972 -0.5910 -0.8576
  145SAPE  H11R15929   2.901   4.654   9.875 -0.2449 -2.0974 -1.9601
  145SAPE  C21215930   2.814   4.648   9.685 -0.2321 -0.4059  0.4025
  145SAPE  H12R15931   2.887   4.570   9.658 -1.0606 -0.7821 -0.8550
  145SAPE  C21315932   2.703   4.685   9.590  0.4144  0.3356 -0.0247
  145SAPE  H13R15933   2.720   4.792   9.566  1.6866  0.0418 -0.5135
  145SAPE  H13S15934   2.610   4.674   9.650 -0.5783 -0.1234 -1.5778
  145SAPE  C21415935   2.665   4.596   9.473  0.5980 -0.0143 -0.8045
  145SAPE  H14R15936   2.660   4.493   9.512  1.2670  0.8569  1.7742
  145SAPE  C21515937   2.631   4.631   9.348  0.0956  0.1329 -0.5078
  145SAPE  H15R15938   2.615   4.549   9.276 -2.3840 -1.1377  1.2886
  145SAPE  C21615939   2.615   4.775   9.301 -0.1804  0.6106  0.2404
  145SAPE  H16R15940   2.634   4.850   9.381  0.3901  3.0556 -2.0515
  145SAPE  H16S15941   2.514   4.802   9.263 -0.1376  0.5886  0.1097
  145SAPE  C21715942   2.720   4.815   9.193  0.4601 -0.8507 -0.6226
  145SAPE  H17R15943   2.819   4.785   9.233  1.4633 -0.0932 -2.3923
  145SAPE  H17S15944   2.702   4.925   9.189 -2.7974 -1.1502  1.9974
  145SAPE  C21815945   2.695   4.760   9.049 -0.0046 -0.1815  0.1503
  145SAPE  H18R15946   2.588   4.753   9.021 -0.5912  2.0679  1.5233
  145SAPE  H18S15947   2.729   4.655   9.054  0.2869 -0.0190  2.4915
  145SAPE  C21915948   2.765   4.828   8.934 -0.1741 -0.3260  0.4589
  145SAPE  H19R15949   2.862   4.865   8.974 -1.1932 -0.6168  3.4224
  145SAPE  H19S15950   2.701   4.915   8.908 -0.0561  0.0359  1.3387
  145SAPE  C22015951   2.783   4.740   8.805 -0.6424 -0.2314 -0.0200
  145SAPE  H20R15952   2.824   4.641   8.836  2.2150  0.6558 -0.6054
  145SAPE  H20S15953   2.843   4.783   8.721 -0.4698 -3.4857 -1.7449
  145SAPE  H20T15954   2.681   4.725   8.764 -0.4997 -1.8520  0.1219
  145SAPE   C3315955   3.148   5.128  10.025  0.6225 -0.1636  0.0938
  145SAPE   H3X15956   3.135   5.239  10.022  0.8036 -0.1601 -0.6054
  145SAPE   H3Y15957   3.049   5.077  10.028  1.0048 -0.8943  0.4362
  145SAPE   C3415958   3.208   5.080   9.888 -0.4687  0.1466 -0.1766
  145SAPE   H4X15959   3.313   5.115   9.873 -0.4664  0.1708 -0.1027
  145SAPE   H4Y15960   3.146   5.118   9.803  1.1445 -0.0390 -1.4948
  145SAPE   C3515961   3.207   4.930   9.875 -0.4579  0.0728  0.8591
  145SAPE   H5X15962   3.113   4.887   9.916 -0.4464 -0.7647  0.0137
  145SAPE   H5Y15963   3.287   4.907   9.949 -0.6712 -0.3786  0.9505
  145SAPE   C3615964   3.248   4.877   9.739 -0.0831  0.2317  0.3471
  145SAPE   H6X15965   3.296   4.778   9.754 -0.8613 -0.0840  0.8095
  145SAPE   H6Y15966   3.324   4.935   9.682 -1.8587  0.1294 -2.3352
  145SAPE   C3715967   3.126   4.881   9.637  0.6942  0.6868 -0.0595
  145SAPE   H7X15968   3.075   4.978   9.651  0.0502  0.1168  2.0215
  145SAPE   H7Y15969   3.048   4.809   9.671  0.9083  0.7281  0.5324
  145SAPE   C3815970   3.154   4.838   9.490  0.3276  0.0552  0.4104
  145SAPE   H8X15971   3.218   4.747   9.494  1.5335  0.8757  0.0230
  145SAPE   H8Y15972   3.214   4.907   9.428  1.0228 -2.0743 -1.4086
  145SAPE   C3915973   3.033   4.794   9.405 -0.6398 -0.5564 -0.6899
  145SAPE   H9X15974   2.966   4.883   9.399  1.6368  1.2867 -0.4416
  145SAPE   H9Y15975   2.982   4.725   9.475  0.1510 -0.0990  0.3552
  145SAPE  C31015976   3.082   4.749   9.270  0.2068  0.7319  0.3536
  145SAPE  H10X15977   3.002   4.693   9.217  0.2082  1.9808 -1.0323
  145SAPE  H10Y15978   3.163   4.674   9.279  0.3754  0.5205 -2.0599
  145SAPE  C31115979   3.116   4.850   9.163 -0.4896  0.0421  0.2828
  145SAPE  H11X15980   3.219   4.887   9.184  0.5643 -1.7520 -1.4091
  145SAPE  H11Y15981   3.037   4.928   9.170 -0.3712  0.1292  0.6609
  145SAPE  C31215982   3.118   4.791   9.020 -0.1951  0.3789  0.1192
  145SAPE  H12X15983   3.016   4.749   9.004 -0.6432  0.5322  2.2707
  145SAPE  H12Y15984   3.190   4.706   9.017 -0.6167  0.0321 -0.4671
  145SAPE  C31315985   3.157   4.895   8.916  0.6615  0.3687 -0.3590
  145SAPE  H13X15986   3.260   4.927   8.944  1.0992 -2.6060  1.9051
  145SAPE  H13Y15987   3.082   4.977   8.911  0.1450 -0.1697 -2.0585
  145SAPE  C31415988   3.176   4.833   8.771  0.7637 -0.2521 -0.8842
  145SAPE  H14X15989   3.072   4.821   8.734  0.1658  2.3152 -0.2297
  145SAPE  H14Y15990   3.225   4.733   8.778  1.7399  0.1210 -2.1495
  145SAPE  C31515991   3.272   4.909   8.689  0.0043  0.3395 -1.0844
  145SAPE  H15X15992   3.302   4.842   8.605  0.6044 -0.2821 -0.3899
  145SAPE  H15Y15993   3.370   4.928   8.739 -0.9816  0.3799  0.9424
  145SAPE  C31615994   3.224   5.044   8.633  0.4124  0.0670  0.6181
  145SAPE  H16X15995   3.314   5.092   8.589  0.0373 -0.6605 -1.0132
  145SAPE  H16Y15996   3.189   5.112   8.714 -1.3525 -1.1244  0.9043
  145SAPE  C31715997   3.110   5.032   8.536 -0.0783  0.1674  0.6037
  145SAPE  H17X15998   3.087   5.133   8.498  0.6101 -0.7210 -2.4849
  145SAPE  H17Y15999   3.029   4.981   8.592  0.6090 -0.5305  0.9923
  145SAPE  C31816000   3.131   4.944   8.411 -0.8267  0.5536  0.3666
  145SAPE  H18X16001   3.037   4.921   8.355 -0.4414 -0.6327  0.1816
  145SAPE  H18Y16002   3.165   4.843   8.441 -0.1720  0.5007 -0.4997
  145SAPE  H18Z16003   3.210   4.986   8.345 -2.3349  0.9038 -1.3339
  146SAPE     N16004   2.987   4.597  11.134 -0.1876 -0.2508  0.6219
  146SAPE   HN116005   3.061   4.616  11.063  0.4715  0.9776  1.5970
  146SAPE   HN216006   2.892   4.610  11.094 -1.0870 -1.2073  2.3182
  146SAPE   HN316007   2.984   4.666  11.212 -0.5428 -1.4720  1.7285
  146SAPE   C1216008   2.977   4.461  11.194  0.2019 -0.2447 -0.0751
  146SAPE  H12A16009   2.955   4.474  11.302  0.5045  0.7763 -0.1245
  146SAPE  H12B16010   3.074   4.406  11.192 -0.3690 -1.2648 -0.8620
  146SAPE   C1116011   2.874   4.373  11.123 -0.8634  0.0105  0.3338
  146SAPE  H11A16012   2.882   4.280  11.183 -1.5550  0.4248  1.0956
  146SAPE  H11B16013   2.919   4.354  11.023  1.4342 -0.0101  1.2993
  146SAPE     P16014   2.694   4.502  10.993 -0.0620  0.0836 -0.2159
  146SAPE   O1316015   2.553   4.492  11.003  0.4198 -0.3229  0.2866
  146SAPE   O1416016   2.751   4.639  10.992  0.0860  0.4772  0.7468
  146SAPE   O1216017   2.744   4.424  11.118 -0.1436  0.3790 -0.5988
  146SAPE   O1116018   2.747   4.413  10.876 -0.3201 -0.2341  0.1448
  146SAPE    C116019   2.841   4.466  10.780  0.5901  0.5387 -0.2727
  146SAPE    HA16020   2.870   4.572  10.799 -1.7737  1.0927  0.6125
  146SAPE    HB16021   2.937   4.411  10.791  0.6821  0.7257 -0.1292
  146SAPE    C216022   2.778   4.448  10.635 -0.4643  0.2144 -0.0732
  146SAPE    HS16023   2.729   4.348  10.623  2.1243 -1.2766  0.9184
  146SAPE   O2116024   2.881   4.443  10.541  0.2812 -0.3543  0.3380
  146SAPE   C2116025   2.969   4.342  10.549  0.8359 -0.2605  0.9029
  146SAPE   O2216026   2.959   4.245  10.619 -0.3086  0.3829 -0.2393
  146SAPE   C2216027   3.072   4.366  10.439  0.5955  0.2309 -0.1169
  146SAPE   H2R16028   3.128   4.449  10.487 -0.1907 -0.5444  2.3255
  146SAPE   H2S16029   3.139   4.278  10.437  0.2289 -0.1930  2.4771
  146SAPE    C316030   2.683   4.566  10.612 -0.3393  0.6966  0.8415
  146SAPE    HX16031   2.737   4.663  10.613  0.4088  0.3237 -0.7719
  146SAPE    HY16032   2.611   4.582  10.696  0.1238 -0.2527  1.4354
  146SAPE   O3116033   2.617   4.557  10.486  0.8581 -0.4957 -0.3018
  146SAPE   C3116034   2.509   4.476  10.473 -0.2482 -0.3521 -0.7421
  146SAPE   O3216035   2.465   4.400  10.559 -0.3638  0.0555  0.2531
  146SAPE   C3216036   2.448   4.497  10.338 -0.4692 -0.2221 -0.2805
  146SAPE   H2X16037   2.409   4.402  10.297 -1.5788  1.2448 -2.9132
  146SAPE   H2Y16038   2.529   4.533  10.269 -0.5561  1.7761  0.5827
  146SAPE   C2316039   3.011   4.406  10.307 -0.5020  0.2200 -0.7525
  146SAPE   H3R16040   2.916   4.462  10.321 -2.5906 -3.5496  1.9705
  146SAPE   H3S16041   2.981   4.318  10.247 -2.4375 -0.4749  1.1193
  146SAPE   C2416042   3.101   4.498  10.226 -0.5709 -0.5156  0.0806
  146SAPE   H4R16043   3.204   4.458  10.217  0.0451  1.1197 -0.5343
  146SAPE   H4S16044   3.111   4.594  10.281 -0.6229 -0.8419  0.6664
  146SAPE   C2516045   3.052   4.537  10.088 -0.6102 -0.4030 -0.0194
  146SAPE   H5R16046   2.958   4.594  10.095 -0.4285 -0.2567  1.6742
  146SAPE   C2616047   3.092   4.500   9.963 -0.3046  0.7197 -0.4854
  146SAPE   H6R16048   3.039   4.536   9.874 -0.4023  0.9926 -0.3156
  146SAPE   C2716049   3.211   4.409   9.946 -0.2004  0.0847  0.3916
  146SAPE   H7R16050   3.256   4.369  10.039  1.4213 -1.1066 -0.8362
  146SAPE   H7S16051   3.287   4.468   9.890 -1.6560  0.8557 -0.8533
  146SAPE   C2816052   3.179   4.286   9.865  0.3279 -0.2503 -0.0666
  146SAPE   H8R16053   3.131   4.204   9.921 -0.9358  0.3397 -0.2660
  146SAPE   C2916054   3.195   4.276   9.733 -0.1555 -0.7583  0.0663
  146SAPE   H9R16055   3.161   4.182   9.688 -2.3561 -0.4208  0.9368
  146SAPE  C21016056   3.254   4.383   9.636 -0.0054  0.0994 -0.3351
  146SAPE  H10R16057   3.342   4.337   9.586 -1.8422 -0.9402 -2.8317
  146SAPE  H10S16058   3.294   4.471   9.691 -0.0874  0.0564 -0.2074
  146SAPE  C21116059   3.162   4.426   9.525 -0.1352  0.0894  0.0621
  146SAPE  H11R16060   3.090   4.504   9.552 -1.2850 -1.2003  0.8629
  146SAPE  C21216061   3.152   4.376   9.402 -0.6434  0.5611 -0.4988
  146SAPE  H12R16062   3.077   4.413   9.331 -0.7570  0.2881 -0.5224
  146SAPE  C21316063   3.246   4.269   9.343  0.3048 -0.7417 -0.1377
  146SAPE  H13R16064   3.178   4.215   9.275 -1.4362  2.1695 -0.8643
  146SAPE  H13S16065   3.276   4.198   9.423  0.1535  0.3971  0.9726
  146SAPE  C21416066   3.365   4.307   9.261  0.2411  0.2766 -0.7481
  146SAPE  H14R16067   3.462   4.307   9.311 -0.2894 -1.3001  0.3564
  146SAPE  C21516068   3.363   4.359   9.139 -0.1615 -0.2504 -0.0460
  146SAPE  H15R16069   3.459   4.381   9.090  0.3878 -2.3342 -0.0126
  146SAPE  C21616070   3.242   4.388   9.056  0.1553  0.1112 -0.2180
  146SAPE  H16R16071   3.187   4.474   9.101 -0.4685 -0.9852  1.2326
  146SAPE  H16S16072   3.167   4.305   9.058 -0.8411  0.9916  0.9021
  146SAPE  C21716073   3.271   4.407   8.906 -0.4143 -0.3003 -0.1347
  146SAPE  H17R16074   3.317   4.316   8.861  0.0218  0.9591 -2.4063
  146SAPE  H17S16075   3.341   4.491   8.884  3.2843 -3.6076 -2.3415
  146SAPE  C21816076   3.134   4.427   8.832 -0.3701 -0.2166 -0.4527
  146SAPE  H18R16077   3.092   4.527   8.859 -0.7031 -0.6506  0.7003
  146SAPE  H18S16078   3.060   4.353   8.870 -0.3085  0.4150  0.9957
  146SAPE  C21916079   3.142   4.429   8.683  0.8117 -0.5588 -0.0193
  146SAPE  H19R16080   3.169   4.329   8.644  0.8119 -0.9155  0.8788
  146SAPE  H19S16081   3.218   4.499   8.641 -0.8039 -0.7271 -3.5720
  146SAPE  C22016082   3.012   4.465   8.609 -0.0362 -0.1596 -0.4791
  146SAPE  H20R16083   2.970   4.565   8.631 -0.3433 -0.3411 -0.2473
  146SAPE  H20S16084   2.932   4.390   8.622  0.5326 -1.0691 -1.9360
  146SAPE  H20T16085   3.035   4.462   8.500  0.8706 -1.9902 -0.2765
  146SAPE   C3316086   2.339   4.601  10.347 -0.6689  0.0735 -0.4994
  146SAPE   H3X16087   2.380   4.704  10.350  1.5824 -0.7157 -1.7318
  146SAPE   H3Y16088   2.271   4.576  10.431  0.0206 -1.3949 -0.3533
  146SAPE   C3416089   2.263   4.600  10.212  0.8087 -0.4857  0.0833
  146SAPE   H4X16090   2.166   4.651  10.232  1.4559  0.1365  1.8672
  146SAPE   H4Y16091   2.240   4.495  10.183  2.5194 -0.5901 -1.0692
  146SAPE   C3516092   2.326   4.666  10.089 -0.0558  1.2062 -0.0156
  146SAPE   H5X16093   2.430   4.631  10.074 -0.2221  0.2285  1.0027
  146SAPE   H5Y16094   2.335   4.773  10.118 -1.6214  0.9907  1.3773
  146SAPE   C3616095   2.259   4.645   9.956  0.5267 -0.3505 -0.2011
  146SAPE   H6X16096   2.308   4.716   9.886  1.9091 -1.7160 -0.6683
  146SAPE   H6Y16097   2.150   4.656   9.974  0.6473 -1.2393  1.1970
  146SAPE   C3716098   2.278   4.506   9.892  0.5016 -0.6886 -0.0593
  146SAPE   H7X16099   2.245   4.432   9.967 -1.0967  1.8881  1.9403
  146SAPE   H7Y16100   2.385   4.494   9.863  0.8577  2.4841 -0.4341
  146SAPE   C3816101   2.191   4.491   9.764  0.2200 -0.3215 -0.8048
  146SAPE   H8X16102   2.084   4.515   9.780 -0.1719 -0.8175 -2.4871
  146SAPE   H8Y16103   2.188   4.384   9.735  2.4595 -1.1606  1.5731
  146SAPE   C3916104   2.243   4.566   9.640  0.2831  0.1810 -0.6579
  146SAPE   H9X16105   2.350   4.540   9.625  0.6206  1.0803  0.0724
  146SAPE   H9Y16106   2.245   4.676   9.656 -0.1738  0.5992 -3.0763
  146SAPE  C31016107   2.161   4.555   9.512  0.4617  1.0566  0.2195
  146SAPE  H10X16108   2.058   4.590   9.538  0.1468 -0.5465  1.2996
  146SAPE  H10Y16109   2.164   4.449   9.480  1.2423  1.2824 -0.5010
  146SAPE  C31116110   2.222   4.635   9.396  0.4548 -0.1456 -0.6441
  146SAPE  H11X16111   2.330   4.611   9.387 -0.1015 -3.4979  0.1212
  146SAPE  H11Y16112   2.220   4.743   9.423 -2.0370 -0.5354  1.2078
  146SAPE  C31216113   2.146   4.609   9.263  0.5025 -0.0419 -0.2162
  146SAPE  H12X16114   2.058   4.676   9.272 -0.9019 -1.3055 -3.1666
  146SAPE  H12Y16115   2.121   4.501   9.257  1.2824 -0.2640  0.4122
  146SAPE  C31316116   2.238   4.647   9.148 -0.1383  0.0301 -0.1891
  146SAPE  H13X16117   2.335   4.592   9.147  1.6335  2.9305  0.5583
  146SAPE  H13Y16118   2.258   4.752   9.179  2.0868 -0.3988 -0.0257
  146SAPE  C31416119   2.170   4.647   9.012  0.6664  0.2956 -0.3414
  146SAPE  H14X16120   2.087   4.721   9.005 -2.2148 -2.5849  0.8153
  146SAPE  H14Y16121   2.137   4.544   8.989 -3.4210  1.0805  1.0896
  146SAPE  C31516122   2.257   4.683   8.903 -0.6511 -0.1805  0.1608
  146SAPE  H15X16123   2.206   4.660   8.807  0.4172  1.7376 -0.9323
  146SAPE  H15Y16124   2.356   4.633   8.916  0.0762  0.5052 -2.1551
  146SAPE  C31616125   2.278   4.839   8.893 -0.6478  0.0979 -0.6669
  146SAPE  H16X16126   2.331   4.870   8.985 -0.1390  1.6577 -1.4562
  146SAPE  H16Y16127   2.191   4.905   8.909 -0.5644  0.1093 -0.2351
  146SAPE  C31716128   2.358   4.870   8.765  0.9333 -0.0357 -0.0230
  146SAPE  H17X16129   2.331   4.801   8.682  2.7435 -0.1851 -0.5525
  146SAPE  H17Y16130   2.459   4.831   8.793  0.4891 -2.2214 -1.2161
  146SAPE  C31816131   2.371   5.021   8.742  0.6897  0.3187 -0.1763
  146SAPE  H18X16132   2.416   5.036   8.642 -0.0768  1.9158 -0.3084
  146SAPE  H18Y16133   2.444   5.055   8.818  0.6300 -0.6469  0.3321
  146SAPE  H18Z16134   2.277   5.077   8.764  2.4451  2.8268  1.5280
  147SAPE     N16135   4.227   4.349   6.302  1.0172  0.1787 -0.1667
  147SAPE   HN116136   4.234   4.385   6.399  2.0183  0.0508 -0.1825
  147SAPE   HN216137   4.272   4.422   6.243  0.8326  0.9657  0.6525
  147SAPE   HN316138   4.127   4.353   6.273  0.7233 -2.3883  0.3121
  147SAPE   C1216139   4.288   4.215   6.310  0.6500 -0.1531 -0.5643
  147SAPE  H12A16140   4.227   4.162   6.386  3.1722  0.4974  2.0990
  147SAPE  H12B16141   4.392   4.225   6.349  0.4607 -1.2738  0.2549
  147SAPE   C1116142   4.285   4.133   6.180 -0.0409 -1.1475 -0.2310
  147SAPE  H11A16143   4.335   4.034   6.188  0.8593 -0.8530 -1.8889
  147SAPE  H11B16144   4.356   4.184   6.112 -1.3196  0.6916 -0.2633
  147SAPE     P16145   4.064   4.001   6.154  0.0730 -0.7562  0.0966
  147SAPE   O1316146   3.919   4.045   6.173 -0.5478 -0.5428  0.2826
  147SAPE   O1416147   4.097   3.907   6.050 -0.2057  0.2750  0.8576
  147SAPE   O1216148   4.155   4.127   6.131 -0.5787  0.0685 -0.6761
  147SAPE   O1116149   4.114   3.946   6.295 -0.0267 -0.4398  0.1100
  147SAPE    C116150   4.061   3.832   6.365  0.1789 -0.1418  0.5375
  147SAPE    HA16151   3.952   3.816   6.350  0.3844  0.0913 -1.5603
  147SAPE    HB16152   4.113   3.738   6.333  1.3933  0.4708  0.6471
  147SAPE    C216153   4.089   3.837   6.512  0.1154 -0.3837  0.4368
  147SAPE    HS16154   4.067   3.735   6.551 -1.5189 -0.8502 -1.5338
  147SAPE   O2116155   4.006   3.940   6.574 -0.0432 -0.2767  0.2235
  147SAPE   C2116156   3.884   3.906   6.602  0.5511 -0.1960  0.7026
  147SAPE   O2216157   3.837   3.793   6.589 -0.3684 -0.2735  0.5236
  147SAPE   C2216158   3.820   4.008   6.697  0.4886 -0.5703 -1.1620
  147SAPE   H2R16159   3.902   4.076   6.727  0.2548 -0.8572  0.2130
  147SAPE   H2S16160   3.741   4.074   6.654  1.3013  0.8057 -0.5912
  147SAPE    C316161   4.239   3.866   6.559 -0.0420  0.1444 -0.7821
  147SAPE    HX16162   4.286   3.960   6.524  1.1731  0.0595  0.5136
  147SAPE    HY16163   4.302   3.788   6.510  1.3872  0.8049 -0.0614
  147SAPE   O3116164   4.261   3.825   6.698  0.7620  0.2642  1.1102
  147SAPE   C3116165   4.297   3.927   6.772  0.6730  0.2319  0.1411
  147SAPE   O3216166   4.318   4.037   6.736  0.3430 -0.2726 -0.1339
  147SAPE   C3216167   4.288   3.885   6.926  0.4312  0.4353  0.1662
  147SAPE   H2X16168   4.351   3.795   6.945  1.0013  0.6638 -0.6259
  147SAPE   H2Y16169   4.179   3.868   6.934 -0.0314  2.1973 -1.6767
  147SAPE   C2316170   3.754   3.958   6.830 -0.4077 -0.9385 -0.2295
  147SAPE   H3R16171   3.699   3.865   6.806 -5.3446  1.7988 -0.8213
  147SAPE   H3S16172   3.678   4.029   6.868 -0.3073 -1.2138  0.4964
  147SAPE   C2416173   3.864   3.924   6.931 -0.8798 -0.5310 -0.4418
  147SAPE   H4R16174   3.939   3.873   6.867  1.3209  0.5495  1.1271
  147SAPE   H4S16175   3.817   3.849   6.999  0.0126  1.0291  2.0522
  147SAPE   C2516176   3.931   4.021   7.027 -0.2469 -0.5494  0.0396
  147SAPE   H5R16177   4.014   4.082   6.989 -0.6959 -0.2513 -0.4792
  147SAPE   C2616178   3.886   4.051   7.154  0.2430 -0.2262 -0.6516
  147SAPE   H6R16179   3.938   4.122   7.220 -0.8513 -1.2952  1.4512
  147SAPE   C2716180   3.759   4.003   7.234 -0.4118  0.1737 -0.1479
  147SAPE   H7R16181   3.684   3.976   7.156  3.0923 -1.5192 -3.2948
  147SAPE   H7S16182   3.714   4.088   7.288 -0.7228 -1.2315  1.9345
  147SAPE   C2816183   3.777   3.887   7.330  0.0632  0.4936  0.1269
  147SAPE   H8R16184   3.796   3.792   7.278 -1.4817 -1.2249  2.5232
  147SAPE   C2916185   3.784   3.885   7.464  0.4293  0.6647 -0.1616
  147SAPE   H9R16186   3.795   3.788   7.515  0.6985  0.2988 -0.9010
  147SAPE  C21016187   3.785   4.007   7.557 -0.6754 -0.1903  0.2657
  147SAPE  H10R16188   3.683   4.015   7.598 -1.2538 -0.0151 -1.1514
  147SAPE  H10S16189   3.802   4.094   7.490  0.5660 -2.0268 -1.9506
  147SAPE  C21116190   3.890   3.990   7.666  0.0494  0.6121 -0.0032
  147SAPE  H11R16191   3.987   4.036   7.642  0.6823  0.4710  2.1068
  147SAPE  C21216192   3.866   3.930   7.785 -0.3692 -0.3988 -0.2911
  147SAPE  H12R16193   3.953   3.931   7.853  0.9500  2.0359 -1.8702
  147SAPE  C21316194   3.738   3.870   7.822  0.3643 -0.3054  0.5061
  147SAPE  H13R16195   3.753   3.769   7.866 -2.3515 -0.7106  0.7020
  147SAPE  H13S16196   3.683   3.852   7.727  2.1692  0.4842 -0.7322
  147SAPE  C21416197   3.659   3.962   7.913 -0.2349 -0.3266  0.4744
  147SAPE  H14R16198   3.568   4.006   7.870  1.2961  2.8184  0.1650
  147SAPE  C21516199   3.683   3.981   8.043 -0.6029  0.3237  0.4721
  147SAPE  H15R16200   3.613   4.042   8.102  0.5684  2.5968 -0.3644
  147SAPE  C21616201   3.802   3.929   8.125  0.6621  0.0492 -0.7978
  147SAPE  H16R16202   3.903   3.946   8.082  2.5139 -2.9963  1.8565
  147SAPE  H16S16203   3.796   3.819   8.139  1.0377  0.1847  0.5419
  147SAPE  C21716204   3.805   3.988   8.272 -0.0503 -0.0345  0.1275
  147SAPE  H17R16205   3.718   3.962   8.335  1.9807  0.2763  3.2741
  147SAPE  H17S16206   3.798   4.099   8.269 -1.0836 -0.1059 -1.6092
  147SAPE  C21816207   3.930   3.951   8.352  0.4354  0.1968  0.3984
  147SAPE  H18R16208   4.028   3.982   8.309  0.8583  0.2162  1.3524
  147SAPE  H18S16209   3.933   3.842   8.370 -0.0732  0.1091 -0.0205
  147SAPE  C21916210   3.929   4.005   8.495 -0.4335 -0.2532  0.5485
  147SAPE  H19R16211   4.018   3.958   8.543  0.3628  1.8922  1.3125
  147SAPE  H19S16212   3.832   3.977   8.541 -0.3062  0.0683  1.0238
  147SAPE  C22016213   3.949   4.155   8.514  0.0822  0.3522  0.2497
  147SAPE  H20R16214   4.049   4.192   8.480 -0.4195  0.9508 -0.6041
  147SAPE  H20S16215   3.948   4.177   8.623  3.4454  1.4841  0.1839
  147SAPE  H20T16216   3.867   4.209   8.462  2.5362  1.1418 -3.2565
  147SAPE   C3316217   4.326   4.003   7.013 -0.5981  0.0757  0.2340
  147SAPE   H3X16218   4.271   4.095   6.983  0.0008 -0.0157 -1.2439
  147SAPE   H3Y16219   4.435   4.019   7.006 -0.6764  0.5773  0.0959
  147SAPE   C3416220   4.282   3.956   7.150 -0.1211 -0.3365 -0.8530
  147SAPE   H4X16221   4.302   3.847   7.153 -1.2608 -0.5312  0.2501
  147SAPE   H4Y16222   4.172   3.963   7.155  0.0133  1.3777  2.2885
  147SAPE   C3516223   4.330   4.036   7.270  0.0192  0.3248  0.1558
  147SAPE   H5X16224   4.281   4.135   7.257 -0.3544  0.0357 -0.6761
  147SAPE   H5Y16225   4.441   4.036   7.281 -0.2221 -1.2678  4.4333
  147SAPE   C3616226   4.299   3.968   7.404 -0.6537  0.1930  0.0475
  147SAPE   H6X16227   4.366   3.880   7.408  0.7826  1.2765  0.8225
  147SAPE   H6Y16228   4.196   3.928   7.406 -0.3840 -0.5452  2.9726
  147SAPE   C3716229   4.300   4.066   7.532 -0.2432  0.2949  0.2319
  147SAPE   H7X16230   4.234   4.155   7.528  1.1183  1.3558  0.8609
  147SAPE   H7Y16231   4.400   4.113   7.523 -0.9282  1.5917 -1.1015
  147SAPE   C3816232   4.267   3.994   7.655 -0.7664 -0.3931  0.0501
  147SAPE   H8X16233   4.324   3.899   7.655 -0.8125 -0.4308 -0.6552
  147SAPE   H8Y16234   4.159   3.968   7.653 -1.3468  1.8287  0.0782
  147SAPE   C3916235   4.303   4.082   7.772  0.2480 -0.0901 -0.7399
  147SAPE   H9X16236   4.258   4.180   7.744 -2.5130 -0.3243  2.3130
  147SAPE   H9Y16237   4.414   4.087   7.774  0.2572 -0.5863  0.5932
  147SAPE  C31016238   4.255   4.037   7.907 -0.2999  0.0892 -0.2694
  147SAPE  H10X16239   4.144   4.043   7.907 -0.3420  0.8741 -3.2089
  147SAPE  H10Y16240   4.301   4.115   7.972  1.4099 -1.1094  0.0225
  147SAPE  C31116241   4.295   3.896   7.949  0.3466  0.6307  0.2004
  147SAPE  H11X16242   4.405   3.880   7.953  0.0771 -1.9006 -0.6033
  147SAPE  H11Y16243   4.252   3.824   7.875 -2.9260  1.6537  0.9605
  147SAPE  C31216244   4.253   3.868   8.090  0.0233  0.6597  0.1504
  147SAPE  H12X16245   4.143   3.851   8.087 -0.1186  1.5446  0.3416
  147SAPE  H12Y16246   4.277   3.952   8.158  3.3820 -1.1381  1.3942
  147SAPE  C31316247   4.319   3.745   8.149  0.5803  0.9709 -0.2263
  147SAPE  H13X16248   4.427   3.761   8.172  1.0802 -1.5957 -0.4523
  147SAPE  H13Y16249   4.323   3.668   8.068  0.8904  1.6363 -0.8584
  147SAPE  C31416250   4.252   3.691   8.278  0.0348 -0.7634  0.8213
  147SAPE  H14X16251   4.297   3.591   8.295  0.8587 -0.3534  1.1456
  147SAPE  H14Y16252   4.145   3.680   8.250  0.0792  0.1682  0.2183
  147SAPE  C31516253   4.257   3.786   8.401 -0.1413 -0.6819  0.5945
  147SAPE  H15X16254   4.200   3.875   8.367  2.3728  0.4614 -0.9275
  147SAPE  H15Y16255   4.362   3.808   8.430  0.4621 -1.9389 -0.5020
  147SAPE  C31616256   4.183   3.718   8.516  0.0934 -0.2189  0.3928
  147SAPE  H16X16257   4.083   3.683   8.482  0.3809 -1.7322  1.0405
  147SAPE  H16Y16258   4.171   3.793   8.597 -2.4086  1.5602 -1.4561
  147SAPE  C31716259   4.252   3.590   8.568 -0.1018  0.5857  0.5044
  147SAPE  H17X16260   4.353   3.616   8.606  1.1577 -2.6297 -0.3471
  147SAPE  H17Y16261   4.260   3.520   8.482 -0.1205  3.6624 -2.2249
  147SAPE  C31816262   4.182   3.505   8.670 -0.0447 -0.1578  0.0340
  147SAPE  H18X16263   4.178   3.556   8.769  1.9201 -0.7672  0.4576
  147SAPE  H18Y16264   4.234   3.409   8.686  0.9315  0.7408  2.8846
  147SAPE  H18Z16265   4.079   3.499   8.628  0.3991  1.9076 -1.5694
  148SAPE     N16266   3.868   6.842   6.383 -0.2385 -0.0263  0.0498
  148SAPE   HN116267   3.839   6.841   6.283 -1.0376  2.0087  0.2054
  148SAPE   HN216268   3.923   6.756   6.403  1.3592  0.5452 -1.6593
  148SAPE   HN316269   3.779   6.843   6.437 -1.5150  1.1014 -1.9653
  148SAPE   C1216270   3.946   6.968   6.410  0.3481 -0.0751  0.5547
  148SAPE  H12A16271   3.974   6.978   6.517  0.7285  0.8574  0.3796
  148SAPE  H12B16272   3.876   7.053   6.399  0.6810  0.0855 -0.4944
  148SAPE   C1116273   4.074   6.966   6.346 -0.7977  0.5387 -1.1332
  148SAPE  H11A16274   4.132   7.060   6.358 -0.3505  0.2406 -0.9125
  148SAPE  H11B16275   4.074   6.932   6.240  2.1523 -3.7485 -0.0362
  148SAPE     P16276   4.192   6.732   6.332 -0.1213  0.1525 -0.4302
  148SAPE   O1316277   4.071   6.674   6.271 -0.2923  0.0147  0.1069
  148SAPE   O1416278   4.303   6.775   6.247 -0.0320 -0.3058 -0.1036
  148SAPE   O1216279   4.148   6.864   6.415  0.1255  0.1563  0.0428
  148SAPE   O1116280   4.254   6.636   6.442  0.6843 -0.4889 -0.1797
  148SAPE    C116281   4.357   6.688   6.531 -1.0601 -0.6531 -0.2050
  148SAPE    HA16282   4.455   6.660   6.486 -1.6009 -0.8641 -1.2820
  148SAPE    HB16283   4.363   6.797   6.549 -1.0462 -0.6963  0.0451
  148SAPE    C216284   4.363   6.619   6.673 -0.0442  0.1573  0.0198
  148SAPE    HS16285   4.447   6.662   6.733  0.2298 -0.4095  0.0526
  148SAPE   O2116286   4.383   6.480   6.648  0.3342 -0.1589  0.0654
  148SAPE   C2116287   4.427   6.410   6.747 -0.1054 -0.2155  0.4335
  148SAPE   O2216288   4.482   6.449   6.848 -0.5012 -0.1759 -0.0863
  148SAPE   C2216289   4.424   6.265   6.710  0.0128  0.4876  0.3151
  148SAPE   H2R16290   4.387   6.255   6.605 -0.0856  0.9209  0.3075
  148SAPE   H2S16291   4.530   6.233   6.700 -0.2236 -1.0038  2.0279
  148SAPE    C316292   4.230   6.651   6.763 -0.3029  0.0287  0.3988
  148SAPE    HX16293   4.154   6.595   6.705 -1.0115  0.2392  1.1198
  148SAPE    HY16294   4.210   6.759   6.749  0.4065 -0.0970 -2.0122
  148SAPE   O3116295   4.244   6.605   6.897 -0.3579 -0.5466  0.2957
  148SAPE   C3116296   4.321   6.678   6.979 -0.8093 -0.2475  0.4623
  148SAPE   O3216297   4.369   6.787   6.957 -0.1646  0.7411 -0.3493
  148SAPE   C3216298   4.324   6.609   7.111  0.2767  0.1456 -1.1333
  148SAPE   H2X16299   4.363   6.505   7.101 -1.8502 -1.0973  1.7857
  148SAPE   H2Y16300   4.227   6.612   7.165  0.7777  2.2623 -0.2482
  148SAPE   C2316301   4.364   6.159   6.813  0.1089  0.3719  1.0692
  148SAPE   H3R16302   4.379   6.182   6.921  2.1496  0.1223  0.8830
  148SAPE   H3S16303   4.411   6.064   6.780  2.8760  2.1432 -0.5247
  148SAPE   C2416304   4.211   6.148   6.793 -0.2442 -0.0393  0.3276
  148SAPE   H4R16305   4.180   6.049   6.834 -0.6400 -0.8989 -1.8807
  148SAPE   H4S16306   4.194   6.146   6.683  0.3658 -0.4864  0.2321
  148SAPE   C2516307   4.130   6.259   6.838  0.6651 -0.8901  0.0285
  148SAPE   H5R16308   4.143   6.355   6.786  0.7860 -1.6896 -1.4556
  148SAPE   C2616309   4.050   6.255   6.945 -0.6868  0.3209 -0.9466
  148SAPE   H6R16310   3.982   6.340   6.963 -0.7371  0.5499 -2.1322
  148SAPE   C2716311   4.053   6.142   7.050 -0.0608 -0.2982 -0.8806
  148SAPE   H7R16312   4.031   6.048   6.995 -1.1330 -0.2262 -0.6021
  148SAPE   H7S16313   3.966   6.157   7.118 -0.6262 -0.6318 -1.5187
  148SAPE   C2816314   4.184   6.119   7.125  0.5845 -0.0789  0.1449
  148SAPE   H8R16315   4.266   6.080   7.064 -0.8199 -0.7465 -1.3951
  148SAPE   C2916316   4.200   6.150   7.254 -0.1749 -0.5813  0.2065
  148SAPE   H9R16317   4.296   6.117   7.297  1.4841  1.4842 -1.6849
  148SAPE  C21016318   4.112   6.219   7.350  0.1548  0.5709  0.1825
  148SAPE  H10R16319   4.005   6.226   7.319 -0.4324 -0.8030  1.7753
  148SAPE  H10S16320   4.151   6.322   7.358 -0.2383  0.7781 -0.4390
  148SAPE  C21116321   4.111   6.152   7.486  0.3096 -0.2198  0.1592
  148SAPE  H11R16322   4.048   6.063   7.494 -0.8818  0.6132  0.2702
  148SAPE  C21216323   4.187   6.196   7.592 -0.0040  0.1813  0.0399
  148SAPE  H12R16324   4.198   6.140   7.686  1.3382  0.9039  0.3426
  148SAPE  C21316325   4.271   6.321   7.610 -0.1372  0.0794  0.3062
  148SAPE  H13R16326   4.286   6.365   7.509 -3.1612  1.9867  0.5350
  148SAPE  H13S16327   4.372   6.292   7.644  0.6220 -0.8919 -2.5037
  148SAPE  C21416328   4.203   6.418   7.704  0.6740 -0.2845  0.1565
  148SAPE  H14R16329   4.131   6.483   7.652  0.2622 -0.5810  0.3503
  148SAPE  C21516330   4.215   6.439   7.839  0.1830 -0.6778  0.3859
  148SAPE  H15R16331   4.160   6.527   7.876  1.2415  0.3398 -0.3901
  148SAPE  C21616332   4.298   6.360   7.939  0.3981  0.6435  0.2679
  148SAPE  H16R16333   4.386   6.420   7.971  0.9093  0.5786 -0.9662
  148SAPE  H16S16334   4.342   6.267   7.896  0.2146  1.2865 -1.3819
  148SAPE  C21716335   4.229   6.321   8.073  0.9550 -0.5539  0.4366
  148SAPE  H17R16336   4.151   6.242   8.066  0.4459 -0.3876  3.1509
  148SAPE  H17S16337   4.190   6.421   8.103  0.9481 -0.0154 -1.2388
  148SAPE  C21816338   4.340   6.271   8.167  0.6169  0.1900 -0.8806
  148SAPE  H18R16339   4.410   6.355   8.189  2.0598 -0.6179 -2.2054
  148SAPE  H18S16340   4.407   6.195   8.121  2.1188 -0.6749  2.4054
  148SAPE  C21916341   4.276   6.229   8.297 -0.2136  0.0277  0.9000
  148SAPE  H19R16342   4.363   6.195   8.357 -0.1584 -2.7234 -0.5883
  148SAPE  H19S16343   4.226   6.134   8.270 -2.3162  1.2683  0.1769
  148SAPE  C22016344   4.184   6.327   8.379  0.3662  0.3574  0.1094
  148SAPE  H20R16345   4.243   6.419   8.397  0.0733  0.4866  0.4373
  148SAPE  H20S16346   4.150   6.293   8.479 -1.4021  1.6419 -0.0116
  148SAPE  H20T16347   4.101   6.350   8.310  1.7319  1.5175 -1.2070
  148SAPE   C3316348   4.413   6.694   7.208  0.0290  0.2827 -0.3564
  148SAPE   H3X16349   4.398   6.803   7.218  0.7282  0.3080  0.5877
  148SAPE   H3Y16350   4.517   6.694   7.169  0.9975  2.6246  1.9381
  148SAPE   C3416351   4.415   6.635   7.346  0.2819  0.5920 -0.3821
  148SAPE   H4X16352   4.421   6.524   7.342  2.9217  0.7014 -3.2216
  148SAPE   H4Y16353   4.320   6.657   7.399  0.5408 -2.5829  1.6594
  148SAPE   C3516354   4.533   6.686   7.440 -0.0178  0.9264 -0.5721
  148SAPE   H5X16355   4.517   6.794   7.462 -0.3461  0.5201  1.3957
  148SAPE   H5Y16356   4.631   6.670   7.390  1.4873  1.3275  2.0744
  148SAPE   C3616357   4.543   6.611   7.572 -0.9376 -0.7392  0.4546
  148SAPE   H6X16358   4.580   6.508   7.551 -0.9088 -0.3312 -1.6532
  148SAPE   H6Y16359   4.439   6.601   7.612 -1.9051  1.0034 -1.4391
  148SAPE   C3716360   4.640   6.679   7.663  0.3065 -0.5008 -0.2111
  148SAPE   H7X16361   4.622   6.787   7.681  4.5060 -0.0485  2.4440
  148SAPE   H7Y16362   4.746   6.680   7.632  0.2892  0.6834 -0.2718
  148SAPE   C3816363   4.647   6.630   7.806 -0.6658  0.3509  0.2836
  148SAPE   H8X16364   4.546   6.618   7.851 -1.9944 -0.1221 -2.5682
  148SAPE   H8Y16365   4.703   6.700   7.871 -0.7161  0.8123 -0.1593
  148SAPE   C3916366   4.704   6.486   7.811 -0.7831  0.0316  0.8026
  148SAPE   H9X16367   4.806   6.487   7.766  0.0375 -1.2617  2.4810
  148SAPE   H9Y16368   4.633   6.426   7.751 -3.1465 -0.3982  3.7638
  148SAPE  C31016369   4.700   6.421   7.948  0.2279 -0.1811  0.9524
  148SAPE  H10X16370   4.694   6.310   7.943 -2.2689 -0.1631  1.9051
  148SAPE  H10Y16371   4.598   6.440   7.988 -0.9110 -1.2911 -1.2371
  148SAPE  C31116372   4.804   6.446   8.064 -0.0803  0.2820 -0.8339
  148SAPE  H11X16373   4.809   6.556   8.080  1.6399  0.0263  0.6850
  148SAPE  H11Y16374   4.902   6.399   8.043 -0.5416 -1.5761  0.8558
  148SAPE  C31216375   4.753   6.376   8.196 -0.3532 -0.8602 -0.0317
  148SAPE  H12X16376   4.758   6.267   8.177 -1.4418 -0.9850  0.3718
  148SAPE  H12Y16377   4.645   6.396   8.211 -0.0771 -1.4522  3.3859
  148SAPE  C31316378   4.837   6.417   8.321  0.2590  0.1523 -0.3289
  148SAPE  H13X16379   4.861   6.525   8.320 -0.2564  0.2751  0.1594
  148SAPE  H13Y16380   4.932   6.360   8.313  1.3859  1.8900  0.1373
  148SAPE  C31416381   4.769   6.411   8.460  0.3362  0.0445  0.6644
  148SAPE  H14X16382   4.742   6.304   8.470  1.2977 -0.2312  0.3791
  148SAPE  H14Y16383   4.673   6.468   8.461  0.5695  0.4625  2.4015
  148SAPE  C31516384   4.860   6.467   8.571  0.0069 -0.3126 -0.2972
  148SAPE  H15X16385   4.858   6.578   8.580 -0.3384 -0.2328 -1.2386
  148SAPE  H15Y16386   4.963   6.428   8.557  0.7788  0.8058  1.8433
  148SAPE  C31616387   4.808   6.423   8.708 -0.8246  0.1262 -0.0022
  148SAPE  H16X16388   4.709   6.466   8.733 -0.8527 -0.5922  1.1909
  148SAPE  H16Y16389   4.882   6.458   8.783 -1.4675 -1.5442  1.4947
  148SAPE  C31716390   4.811   6.272   8.744  0.4094  0.6448  0.2887
  148SAPE  H17X16391   4.918   6.241   8.742  0.5276  1.0634 -0.2268
  148SAPE  H17Y16392   4.758   6.209   8.670 -2.4309 -0.4076  3.0082
  148SAPE  C31816393   4.754   6.256   8.887 -0.1522  0.0974 -0.4035
  148SAPE  H18X16394   4.643   6.252   8.886 -0.1462 -2.0317 -2.5920
  148SAPE  H18Y16395   4.804   6.329   8.954  1.2810 -0.7058 -0.5452
  148SAPE  H18Z16396   4.792   6.157   8.920  0.3592 -1.2543 -4.4608
  149SAPE     N16397   4.330   2.102   6.038 -1.0368  0.3570  0.5392
  149SAPE   HN116398   4.319   2.167   5.958  2.9507  0.9512  0.2658
  149SAPE   HN216399   4.328   2.151   6.129  0.0410 -1.6323  1.7235
  149SAPE   HN316400   4.423   2.054   6.040 -1.3272 -0.4818 -2.1371
  149SAPE   C1216401   4.227   1.992   6.034 -0.0673  0.7744  0.1900
  149SAPE  H12A16402   4.278   1.900   6.070  0.4477  2.5828  4.7408
  149SAPE  H12B16403   4.203   1.982   5.926  0.8499 -1.5782  0.1401
  149SAPE   C1116404   4.104   2.001   6.116 -0.6244  0.4661 -0.3371
  149SAPE  H11A16405   4.131   1.997   6.224 -0.2916 -2.6144 -0.4498
  149SAPE  H11B16406   4.040   1.912   6.096  1.0422 -0.0018 -4.3560
  149SAPE     P16407   4.025   2.249   6.176  0.2296 -0.1713 -0.1416
  149SAPE   O1316408   4.163   2.295   6.192 -0.1031  0.3512 -0.1447
  149SAPE   O1416409   3.921   2.332   6.109 -0.3162  0.0686 -0.2503
  149SAPE   O1216410   4.030   2.120   6.089  0.2456  0.2768 -0.4912
  149SAPE   O1116411   3.968   2.192   6.310 -0.2968 -0.0536  0.2759
  149SAPE    C116412   3.846   2.115   6.303  0.2403  0.1889  0.3849
  149SAPE    HA16413   3.759   2.184   6.297 -0.2495 -0.0841  3.0513
  149SAPE    HB16414   3.839   2.044   6.218 -2.3367 -0.9377  1.4275
  149SAPE    C216415   3.826   2.042   6.438 -0.2476  0.3950 -0.4089
  149SAPE    HS16416   3.733   1.981   6.433 -0.8428  1.2130  0.3456
  149SAPE   O2116417   3.818   2.135   6.552  0.3373 -0.3615  0.0013
  149SAPE   C2116418   3.725   2.229   6.554 -0.0703 -0.2455 -0.0465
  149SAPE   O2216419   3.632   2.231   6.477  0.4649 -0.2436 -0.1892
  149SAPE   C2216420   3.754   2.343   6.659 -0.0804  0.4630  0.3443
  149SAPE   H2R16421   3.858   2.328   6.695  0.1058  1.8992  0.4677
  149SAPE   H2S16422   3.745   2.444   6.614  3.5086  1.4002  1.3575
  149SAPE    C316423   3.936   1.947   6.471 -0.8880  0.3480  0.6056
  149SAPE    HX16424   4.027   2.010   6.483 -0.6384  0.1443 -0.1849
  149SAPE    HY16425   3.941   1.884   6.380 -0.1744  2.3251 -0.7959
  149SAPE   O3116426   3.906   1.869   6.593 -0.2022 -0.1228  0.3924
  149SAPE   C3116427   4.000   1.866   6.684 -0.4074  0.1944  0.2112
  149SAPE   O3216428   4.108   1.917   6.676 -0.0841 -0.6058  0.3473
  149SAPE   C3216429   3.941   1.795   6.811  0.6654 -0.1718  0.9385
  149SAPE   H2X16430   3.917   1.693   6.777  0.1778  0.9617 -2.4976
  149SAPE   H2Y16431   3.842   1.839   6.832 -0.9471 -3.6989  1.3733
  149SAPE   C2316432   3.655   2.324   6.779  0.0451  0.1548  0.7842
  149SAPE   H3R16433   3.552   2.339   6.742  0.3376 -0.6150 -0.4383
  149SAPE   H3S16434   3.677   2.402   6.854  2.3370  0.3735 -0.0221
  149SAPE   C2416435   3.667   2.182   6.833 -0.1603  0.0895  0.2487
  149SAPE   H4R16436   3.651   2.105   6.754 -0.1754 -3.6575  3.6376
  149SAPE   H4S16437   3.578   2.172   6.898 -2.7644  1.2553 -2.8414
  149SAPE   C2516438   3.803   2.151   6.894 -0.4016  0.0789  0.7445
  149SAPE   H5R16439   3.878   2.172   6.816  0.6583  1.4816  2.0758
  149SAPE   C2616440   3.842   2.097   7.011  0.1361 -0.0608  0.0800
  149SAPE   H6R16441   3.949   2.082   7.029  0.0697 -3.1632 -1.5063
  149SAPE   C2716442   3.755   2.048   7.117 -0.0367  0.1159 -0.4574
  149SAPE   H7R16443   3.815   1.982   7.184 -1.1729 -0.5758 -0.0977
  149SAPE   H7S16444   3.681   1.979   7.071 -0.5183  0.7764 -0.6882
  149SAPE   C2816445   3.688   2.169   7.189  1.1716 -0.7336  0.4758
  149SAPE   H8R16446   3.658   2.248   7.118  1.7222  0.4609  1.5301
  149SAPE   C2916447   3.651   2.189   7.320  0.2984 -0.9016  0.7812
  149SAPE   H9R16448   3.620   2.290   7.353 -1.1424 -1.0034 -0.1883
  149SAPE  C21016449   3.679   2.079   7.423  0.7547  0.3162  0.3187
  149SAPE  H10R16450   3.722   2.133   7.510  0.2931 -0.2624  0.9151
  149SAPE  H10S16451   3.769   2.020   7.399  1.9383  0.6367  3.4494
  149SAPE  C21116452   3.555   2.002   7.462 -0.6627 -0.7809  0.0716
  149SAPE  H11R16453   3.486   1.984   7.378  1.3961  1.9294 -2.3958
  149SAPE  C21216454   3.531   1.954   7.588  0.1755  0.1476 -0.0338
  149SAPE  H12R16455   3.437   1.900   7.611  1.9591 -2.7853  0.9263
  149SAPE  C21316456   3.625   1.973   7.711 -0.2015 -0.4873 -0.5219
  149SAPE  H13R16457   3.563   1.969   7.804 -1.9655 -0.8184 -1.6666
  149SAPE  H13S16458   3.659   2.078   7.703 -1.2965 -0.2133 -1.9960
  149SAPE  C21416459   3.741   1.878   7.715 -0.4667  0.0998  0.2610
  149SAPE  H14R16460   3.798   1.865   7.622  1.9296 -0.1055  1.6882
  149SAPE  C21516461   3.776   1.792   7.811 -1.0853  0.4812 -0.0028
  149SAPE  H15R16462   3.868   1.732   7.810  0.3648  2.5105 -2.8042
  149SAPE  C21616463   3.705   1.785   7.945 -0.4401  0.0961  0.3630
  149SAPE  H16R16464   3.672   1.680   7.962  0.8736 -0.8929 -2.6458
  149SAPE  H16S16465   3.610   1.842   7.942 -0.4643  0.0143 -1.0104
  149SAPE  C21716466   3.796   1.813   8.071  0.3025 -0.4590  1.0045
  149SAPE  H17R16467   3.847   1.911   8.060 -1.8922  0.5726 -0.7140
  149SAPE  H17S16468   3.880   1.740   8.061  0.6294 -0.0160  0.3744
  149SAPE  C21816469   3.722   1.792   8.204 -0.2194 -0.5136  0.1148
  149SAPE  H18R16470   3.690   1.688   8.226 -0.1627 -0.7148 -0.6974
  149SAPE  H18S16471   3.624   1.841   8.188  0.1078 -0.2980 -1.3765
  149SAPE  C21916472   3.792   1.851   8.326 -0.3230  0.4198  0.7964
  149SAPE  H19R16473   3.876   1.783   8.354  2.1732  2.9286 -0.0731
  149SAPE  H19S16474   3.724   1.846   8.414 -2.0164  0.8722 -0.4370
  149SAPE  C22016475   3.836   1.998   8.319  0.3608 -0.5016  0.3649
  149SAPE  H20R16476   3.746   2.064   8.321 -0.2027 -1.2438  0.2042
  149SAPE  H20S16477   3.895   2.023   8.228  3.6780 -0.9336  2.2435
  149SAPE  H20T16478   3.898   2.031   8.405  0.0872  0.7979  0.0927
  149SAPE   C3316479   4.041   1.802   6.928 -0.2191  0.0220 -0.1296
  149SAPE   H3X16480   4.067   1.908   6.945  1.3072 -0.4230  0.4697
  149SAPE   H3Y16481   4.131   1.745   6.896 -2.0569 -1.9487 -2.2556
  149SAPE   C3416482   3.983   1.739   7.054 -0.3027  0.1894 -0.2832
  149SAPE   H4X16483   3.969   1.631   7.035 -1.5044  0.4109 -0.7270
  149SAPE   H4Y16484   3.880   1.775   7.074 -0.1467 -0.5508  2.1906
  149SAPE   C3516485   4.062   1.765   7.190 -0.1926 -0.1395  0.3551
  149SAPE   H5X16486   4.075   1.872   7.215  1.7342 -0.3697  0.4538
  149SAPE   H5Y16487   4.157   1.709   7.199  0.7567  1.2413 -0.7383
  149SAPE   C3616488   3.972   1.714   7.303  0.2057 -0.4369 -0.0590
  149SAPE   H6X16489   3.943   1.610   7.275  1.6992 -0.7004 -0.7533
  149SAPE   H6Y16490   3.877   1.770   7.314  1.2204  1.2707  0.3822
  149SAPE   C3716491   4.046   1.711   7.443  0.1676 -0.4116  1.1015
  149SAPE   H7X16492   4.031   1.811   7.488 -1.0935 -0.0423 -0.0533
  149SAPE   H7Y16493   4.149   1.671   7.437  0.8093  0.7990  3.0550
  149SAPE   C3816494   3.984   1.601   7.530  0.3484 -0.1557 -0.6694
  149SAPE   H8X16495   3.976   1.502   7.480  2.5432 -0.9848  0.4764
  149SAPE   H8Y16496   3.883   1.627   7.569  1.0615  0.5326  0.8260
  149SAPE   C3916497   4.069   1.560   7.650  0.0170  0.2427 -0.2470
  149SAPE   H9X16498   4.084   1.646   7.719  0.7243  0.3138 -0.4831
  149SAPE   H9Y16499   4.166   1.523   7.612 -0.8594  0.1090 -2.4916
  149SAPE  C31016500   3.990   1.468   7.738 -0.6731  0.3462 -0.8306
  149SAPE  H10X16501   3.967   1.370   7.691 -1.6903 -0.8375  1.9005
  149SAPE  H10Y16502   3.897   1.521   7.768 -0.5602  0.9718 -1.5525
  149SAPE  C31116503   4.070   1.432   7.871 -0.3046  0.2370 -0.1209
  149SAPE  H11X16504   4.095   1.534   7.907 -0.3533  1.7606 -3.8903
  149SAPE  H11Y16505   4.170   1.391   7.843 -0.0185  0.7325  0.1631
  149SAPE  C31216506   4.003   1.348   7.979  0.0379  0.1062 -0.2556
  149SAPE  H12X16507   4.077   1.325   8.059 -0.2194 -1.2098 -0.3780
  149SAPE  H12Y16508   3.959   1.254   7.940  1.6088 -1.5048  1.6104
  149SAPE  C31316509   3.898   1.430   8.046 -0.0861 -0.4269  0.1663
  149SAPE  H13X16510   3.827   1.459   7.966  1.1050 -1.3549 -1.2847
  149SAPE  H13Y16511   3.923   1.525   8.099 -2.6409  0.4450 -0.0550
  149SAPE  C31416512   3.807   1.353   8.144 -0.0370  0.7227 -0.3159
  149SAPE  H14X16513   3.798   1.256   8.091 -0.0331  1.3503 -1.5134
  149SAPE  H14Y16514   3.703   1.390   8.154 -0.2540  0.4722 -1.4920
  149SAPE  C31516515   3.872   1.352   8.286  0.2536 -0.6152 -0.3958
  149SAPE  H15X16516   3.896   1.452   8.327 -1.6438 -0.6673  0.9836
  149SAPE  H15Y16517   3.964   1.290   8.278 -0.6146 -2.0625  0.2910
  149SAPE  C31616518   3.776   1.288   8.391  0.2314  0.1030  0.2600
  149SAPE  H16X16519   3.847   1.264   8.473  1.7793  1.6353 -0.5774
  149SAPE  H16Y16520   3.737   1.190   8.357  1.4419  0.1142 -1.2719
  149SAPE  C31716521   3.659   1.381   8.440 -0.7885  0.8574  0.1043
  149SAPE  H17X16522   3.574   1.381   8.369 -1.0029  1.8875  0.3533
  149SAPE  H17Y16523   3.688   1.487   8.452  1.8423  0.2855 -0.4878
  149SAPE  C31816524   3.602   1.333   8.578 -0.2142 -0.0424  0.7059
  149SAPE  H18X16525   3.512   1.392   8.606 -1.6053 -1.4332 -0.6252
  149SAPE  H18Y16526   3.682   1.353   8.653 -1.0713  1.3986  1.2861
  149SAPE  H18Z16527   3.581   1.224   8.582 -0.0728 -0.0401  1.8672
  150SAPE     N16528   1.640   2.736   6.172  0.1834  0.1812  0.0236
  150SAPE   HN116529   1.725   2.677   6.180  0.0770 -0.3713 -2.2939
  150SAPE   HN216530   1.604   2.733   6.074  0.9227  1.7082 -0.3390
  150SAPE   HN316531   1.680   2.832   6.185  1.6348 -0.1074 -1.8530
  150SAPE   C1216532   1.539   2.722   6.285 -0.5786  0.3927  0.2505
  150SAPE  H12A16533   1.516   2.616   6.307  0.8459 -0.0531 -0.2731
  150SAPE  H12B16534   1.451   2.778   6.247  1.1496  3.4755  0.4509
  150SAPE   C1116535   1.589   2.795   6.411  0.2319  0.9609  0.2003
  150SAPE  H11A16536   1.683   2.747   6.447 -0.1539 -1.8868 -2.1915
  150SAPE  H11B16537   1.518   2.776   6.494 -0.3416  2.3416  0.0518
  150SAPE     P16538   1.707   3.021   6.460 -0.2101  0.0726 -0.4701
  150SAPE   O1316539   1.829   2.999   6.388  0.2610  0.3478  0.2432
  150SAPE   O1416540   1.658   3.161   6.457 -0.1684  0.1793 -1.3087
  150SAPE   O1216541   1.604   2.932   6.384  0.1481  0.1173 -0.6190
  150SAPE   O1116542   1.725   2.963   6.604  0.1531 -1.3227 -0.4030
  150SAPE    C116543   1.607   2.973   6.690 -0.0407  0.8105 -0.3566
  150SAPE    HA16544   1.513   2.990   6.632  0.8792 -0.5735 -2.4028
  150SAPE    HB16545   1.581   2.880   6.745 -0.5733  2.0221  1.5436
  150SAPE    C216546   1.622   3.081   6.805  0.2706 -0.4927  0.0119
  150SAPE    HS16547   1.636   3.182   6.760 -1.9824  0.4425  1.2319
  150SAPE   O2116548   1.740   3.038   6.877 -0.1292 -0.4252 -0.2003
  150SAPE   C2116549   1.809   3.141   6.935  0.4338 -0.2658 -0.1413
  150SAPE   O2216550   1.773   3.255   6.939  0.9806  0.2103  0.2759
  150SAPE   C2216551   1.943   3.088   7.003 -0.2705 -0.7605 -0.1104
  150SAPE   H2R16552   2.025   3.100   6.928  0.4283  0.3219  0.7839
  150SAPE   H2S16553   1.979   3.148   7.089 -0.8326 -2.0308  1.0363
  150SAPE    C316554   1.495   3.083   6.897  0.1342 -0.4118 -0.2562
  150SAPE    HX16555   1.467   2.979   6.924  0.7666 -0.2148  1.2693
  150SAPE    HY16556   1.417   3.114   6.825 -1.8931 -2.2089  1.0442
  150SAPE   O3116557   1.509   3.158   7.020  0.1251 -0.4305 -0.1603
  150SAPE   C3116558   1.490   3.292   7.009 -0.0875 -0.1327 -0.3042
  150SAPE   O3216559   1.461   3.345   6.901  0.4458 -0.4000  0.3998
  150SAPE   C3216560   1.507   3.365   7.140  0.2606 -0.0606  0.1881
  150SAPE   H2X16561   1.462   3.466   7.130  0.3550  0.0567  0.8546
  150SAPE   H2Y16562   1.616   3.372   7.161  0.6387 -3.3803 -0.1264
  150SAPE   C2316563   1.918   2.936   7.046 -0.3538 -0.9333 -0.4907
  150SAPE   H3R16564   1.901   2.865   6.962 -0.1798  1.0817 -2.3165
  150SAPE   H3S16565   1.821   2.945   7.099 -0.7818  1.1743 -1.5010
  150SAPE   C2416566   2.023   2.878   7.140 -0.4537  0.1178  0.8233
  150SAPE   H4R16567   2.042   2.940   7.230 -0.1772  0.1089  0.7733
  150SAPE   H4S16568   2.119   2.883   7.083 -0.0203  2.0400  1.6652
  150SAPE   C2516569   1.982   2.734   7.174  0.0218 -0.7955 -0.7713
  150SAPE   H5R16570   1.945   2.685   7.083  0.4390  0.0156 -1.3952
  150SAPE   C2616571   2.023   2.658   7.278  0.2151 -0.7302  0.3127
  150SAPE   H6R16572   1.991   2.555   7.297 -1.7119 -0.3164 -0.5408
  150SAPE   C2716573   2.100   2.706   7.395 -0.2585  0.5660  0.4935
  150SAPE   H7R16574   2.173   2.784   7.365  0.6929  0.0234  1.3436
  150SAPE   H7S16575   2.163   2.624   7.435 -1.0776  0.4220  1.5270
  150SAPE   C2816576   2.014   2.761   7.504 -0.0859 -0.4967 -0.4683
  150SAPE   H8R16577   1.937   2.838   7.487  1.8899  1.9864  1.0183
  150SAPE   C2916578   2.036   2.743   7.632 -0.8883  0.3839 -0.6494
  150SAPE   H9R16579   1.976   2.799   7.705  2.5719  2.5083  0.7952
  150SAPE  C21016580   2.138   2.653   7.691 -0.1059  0.4464 -0.7182
  150SAPE  H10R16581   2.229   2.717   7.688  1.3547 -1.5861 -1.1781
  150SAPE  H10S16582   2.145   2.560   7.631  2.0365 -0.4999  0.8764
  150SAPE  C21116583   2.101   2.602   7.831  0.2337  0.0185  0.3291
  150SAPE  H11R16584   2.024   2.523   7.838  3.2375 -3.1039  0.8821
  150SAPE  C21216585   2.169   2.631   7.945  0.1000 -0.2112 -0.2007
  150SAPE  H12R16586   2.129   2.595   8.041  0.6144  0.1927  0.1698
  150SAPE  C21316587   2.282   2.728   7.959 -0.1963 -0.7697  0.4061
  150SAPE  H13R16588   2.246   2.828   7.994  1.1860 -0.1507  0.1462
  150SAPE  H13S16589   2.318   2.746   7.855 -2.2999 -3.5758 -0.9345
  150SAPE  C21416590   2.390   2.684   8.058  0.0600  0.5661 -0.3645
  150SAPE  H14R16591   2.480   2.662   7.999 -0.7279  1.6598 -2.0101
  150SAPE  C21516592   2.381   2.652   8.188  0.0363  0.9050  0.2105
  150SAPE  H15R16593   2.471   2.618   8.240 -1.2195  0.9842  2.5900
  150SAPE  C21616594   2.256   2.662   8.281 -0.2795 -0.1934  0.5866
  150SAPE  H16R16595   2.229   2.561   8.317 -0.5770 -1.3738 -2.6111
  150SAPE  H16S16596   2.174   2.697   8.215  1.5934  0.8548 -1.3312
  150SAPE  C21716597   2.276   2.749   8.406  0.4743 -0.5749 -0.4507
  150SAPE  H17R16598   2.182   2.754   8.465  0.7699 -3.0631  0.3434
  150SAPE  H17S16599   2.304   2.854   8.384 -0.6954 -0.6897 -2.8413
  150SAPE  C21816600   2.389   2.696   8.493 -0.4608 -0.0217 -0.0813
  150SAPE  H18R16601   2.488   2.696   8.444  0.9077 -1.4999  2.4814
  150SAPE  H18S16602   2.388   2.586   8.506 -0.5412 -0.1304 -0.9504
  150SAPE  C21916603   2.391   2.762   8.636 -0.2137  0.2079  0.8973
  150SAPE  H19R16604   2.362   2.869   8.621  1.5111  0.6222  0.2402
  150SAPE  H19S16605   2.496   2.754   8.671  0.9421  3.5929 -1.1777
  150SAPE  C22016606   2.299   2.690   8.736 -0.4536  0.5527 -0.1846
  150SAPE  H20R16607   2.290   2.745   8.832 -0.7120 -1.9450  1.2996
  150SAPE  H20S16608   2.341   2.590   8.759 -0.9586  0.1468 -0.9834
  150SAPE  H20T16609   2.197   2.668   8.696 -1.6831 -2.2183  3.8253
  150SAPE   C3316610   1.419   3.300   7.244 -0.4220  0.0579  0.1543
  150SAPE   H3X16611   1.442   3.193   7.261  0.6083  0.5258  1.9872
  150SAPE   H3Y16612   1.313   3.295   7.213 -0.1506 -1.3399 -0.6156
  150SAPE   C3416613   1.429   3.363   7.384 -0.6465 -0.4609  0.1721
  150SAPE   H4X16614   1.511   3.320   7.446 -0.4490 -1.4122 -0.7022
  150SAPE   H4Y16615   1.337   3.339   7.441  0.7532 -0.7410  2.4297
  150SAPE   C3516616   1.448   3.520   7.393  0.0315 -0.7139  0.0911
  150SAPE   H5X16617   1.353   3.560   7.352  0.4191  1.2995  1.0145
  150SAPE   H5Y16618   1.528   3.576   7.340 -1.2293 -0.4119 -1.5875
  150SAPE   C3616619   1.467   3.568   7.541 -0.4674  0.4793 -0.1433
  150SAPE   H6X16620   1.547   3.510   7.592 -2.1669 -0.3019  1.7629
  150SAPE   H6Y16621   1.376   3.535   7.595  1.6968 -1.0837  2.8747
  150SAPE   C3716622   1.481   3.720   7.568  0.5392  0.3341  0.2865
  150SAPE   H7X16623   1.384   3.771   7.548  0.9652  2.5924  3.2090
  150SAPE   H7Y16624   1.557   3.772   7.505  1.1870  0.5872  1.2618
  150SAPE   C3816625   1.504   3.750   7.716 -0.1963 -0.2118 -0.3333
  150SAPE   H8X16626   1.607   3.718   7.744 -0.9821 -1.6326  1.0645
  150SAPE   H8Y16627   1.430   3.706   7.786  1.1070  1.1737  2.0927
  150SAPE   C3916628   1.490   3.896   7.747  0.7107  0.3886  0.0904
  150SAPE   H9X16629   1.384   3.923   7.726  1.0754  1.3284 -0.6132
  150SAPE   H9Y16630   1.555   3.954   7.679  0.1121 -2.4821 -3.2506
  150SAPE  C31016631   1.510   3.928   7.891  0.0638  0.7875 -0.2517
  150SAPE  H10X16632   1.602   3.877   7.928 -0.5507 -0.6810 -0.6612
  150SAPE  H10Y16633   1.429   3.882   7.951 -1.0063  1.4226 -1.1649
  150SAPE  C31116634   1.527   4.081   7.908  0.0601  0.0999 -0.5628
  150SAPE  H11X16635   1.433   4.140   7.893 -2.1169 -2.9237  0.2311
  150SAPE  H11Y16636   1.606   4.130   7.847  0.6967 -1.1039 -0.7204
  150SAPE  C31216637   1.573   4.128   8.044  0.1658  0.2049  0.5214
  150SAPE  H12X16638   1.644   4.056   8.089 -0.0875 -1.2756 -1.3591
  150SAPE  H12Y16639   1.480   4.111   8.103  0.1972 -2.3578 -0.0451
  150SAPE  C31316640   1.590   4.284   8.048  0.2520  0.7290  0.2565
  150SAPE  H13X16641   1.499   4.315   7.993 -1.2443 -3.8492 -0.2823
  150SAPE  H13Y16642   1.683   4.313   7.995  1.0330  0.8168  1.6436
  150SAPE  C31416643   1.605   4.334   8.191 -0.1734 -0.2386  0.8429
  150SAPE  H14X16644   1.684   4.268   8.234  0.9652 -0.0495 -0.8611
  150SAPE  H14Y16645   1.508   4.323   8.244  0.9336 -3.3566  2.4811
  150SAPE  C31516646   1.648   4.483   8.190  0.5021 -0.1988  0.6227
  150SAPE  H15X16647   1.577   4.538   8.125  1.5768  1.3183  0.6851
  150SAPE  H15Y16648   1.749   4.502   8.148  0.0908  1.8788  0.4639
  150SAPE  C31616649   1.638   4.556   8.324 -0.0479 -0.3666 -0.4764
  150SAPE  H16X16650   1.719   4.631   8.336 -0.5091  0.3561 -1.6024
  150SAPE  H16Y16651   1.662   4.492   8.411  2.9718  2.0453  0.6608
  150SAPE  C31716652   1.505   4.625   8.361  0.0273 -0.8306 -0.6988
  150SAPE  H17X16653   1.506   4.659   8.467 -2.4407  0.3612 -0.9865
  150SAPE  H17Y16654   1.418   4.556   8.373 -0.6229 -0.0453 -0.7796
  150SAPE  C31816655   1.469   4.752   8.282 -0.2670  0.4116 -0.3402
  150SAPE  H18X16656   1.543   4.829   8.312 -3.1085  2.1735  2.7169
  150SAPE  H18Y16657   1.369   4.792   8.309  0.5343  1.6049  1.0110
  150SAPE  H18Z16658   1.473   4.718   8.176  0.9345 -0.4537 -0.0415
  151SAPE     N16659   4.894   0.318   6.454 -0.0687 -0.3884 -0.2508
  151SAPE   HN116660   4.923   0.339   6.552 -0.0728 -0.7542 -0.1710
  151SAPE   HN216661   4.866   0.407   6.409  0.2016  0.5916  1.4135
  151SAPE   HN316662   4.807   0.260   6.457 -1.7738  1.9400 -1.4497
  151SAPE   C1216663   5.004   0.242   6.385 -0.0387 -0.2601  0.0450
  151SAPE  H12A16664   4.968   0.208   6.286 -0.6247  0.2386  0.0794
  151SAPE  H12B16665   5.019   0.152   6.447  1.0730 -0.5760 -0.6618
  151SAPE   C1116666   5.125   0.339   6.378  0.7030  0.0305  0.0631
  151SAPE  H11A16667   5.212   0.282   6.338 -0.8217 -1.7439 -0.8791
  151SAPE  H11B16668   5.158   0.365   6.481  2.3371  0.2218 -0.4782
  151SAPE     P16669   5.172   0.566   6.249  0.1479 -0.5369 -0.3911
  151SAPE   O1316670   5.283   0.503   6.180 -0.7228 -0.3576  0.0068
  151SAPE   O1416671   5.092   0.668   6.173  0.1142 -0.0565  0.1094
  151SAPE   O1216672   5.081   0.453   6.302  0.4886  0.5784  0.2179
  151SAPE   O1116673   5.236   0.634   6.384 -0.3615  0.5691  0.2013
  151SAPE    C116674   5.160   0.716   6.489  0.6175  1.2511  0.4251
  151SAPE    HA16675   5.064   0.745   6.443 -0.2806 -1.6992  0.2547
  151SAPE    HB16676   5.133   0.649   6.573 -1.6877 -0.1014 -1.2760
  151SAPE    C216677   5.222   0.850   6.550  0.5780  0.7827  0.2805
  151SAPE    HS16678   5.260   0.911   6.466  2.4984  1.0188  1.2688
  151SAPE   O2116679   5.329   0.801   6.625 -0.3612  0.7941  0.0746
  151SAPE   C2116680   5.422   0.892   6.644  0.2502 -0.4606 -0.2550
  151SAPE   O2216681   5.418   1.009   6.603  0.3618 -0.0172  0.6337
  151SAPE   C2216682   5.535   0.829   6.721 -0.9697  0.3327 -1.3617
  151SAPE   H2R16683   5.535   0.719   6.707 -0.8635  0.0260  0.6886
  151SAPE   H2S16684   5.620   0.871   6.664  0.0198 -0.9788 -0.8948
  151SAPE    C316685   5.120   0.934   6.626 -0.2194  0.1620 -0.3378
  151SAPE    HX16686   5.032   0.979   6.575 -0.9611  0.1148  0.8600
  151SAPE    HY16687   5.182   1.017   6.666 -1.0335  0.9759 -0.7336
  151SAPE   O3116688   5.071   0.861   6.745  0.2021  0.4700  0.1728
  151SAPE   C3116689   4.963   0.902   6.809  0.8004  1.3522 -0.6169
  151SAPE   O3216690   4.880   0.992   6.782  0.3498  0.3236 -0.3537
  151SAPE   C3216691   4.960   0.808   6.929 -0.5355  0.8256 -0.4008
  151SAPE   H2X16692   5.060   0.821   6.976 -0.1539 -0.8698 -0.6674
  151SAPE   H2Y16693   4.961   0.702   6.896 -0.5847  0.9066 -0.6679
  151SAPE   C2316694   5.519   0.859   6.873  0.0315 -1.0216  0.2174
  151SAPE   H3R16695   5.512   0.968   6.897  1.2961 -0.7584 -0.4903
  151SAPE   H3S16696   5.617   0.834   6.918  2.8364  3.3973 -2.6033
  151SAPE   C2416697   5.399   0.780   6.940 -0.0610  0.2816 -0.0799
  151SAPE   H4R16698   5.315   0.784   6.867 -0.5405  1.5246  0.5123
  151SAPE   H4S16699   5.377   0.832   7.035 -0.9599 -1.1452  0.5209
  151SAPE   C2516700   5.429   0.633   6.962 -0.6472  0.4643  0.1631
  151SAPE   H5R16701   5.417   0.568   6.874 -0.7735  2.2237 -1.1757
  151SAPE   C2616702   5.497   0.590   7.074  0.0501 -0.2257  0.0921
  151SAPE   H6R16703   5.523   0.485   7.092  0.4110  0.0386  1.1526
  151SAPE   C2716704   5.558   0.677   7.182  0.0088  0.1810 -0.4679
  151SAPE   H7R16705   5.474   0.718   7.242 -0.0810 -3.4331  2.2064
  151SAPE   H7S16706   5.604   0.766   7.135 -0.6684  1.4018  1.1276
  151SAPE   C2816707   5.669   0.610   7.264 -0.9482  0.8954 -0.2148
  151SAPE   H8R16708   5.726   0.528   7.218 -1.8298 -0.0863  0.3948
  151SAPE   C2916709   5.700   0.630   7.394  0.1733 -0.3784  0.3067
  151SAPE   H9R16710   5.789   0.587   7.442  1.3675  2.3412  0.6999
  151SAPE  C21016711   5.617   0.721   7.479 -0.5790  0.4980  0.3529
  151SAPE  H10R16712   5.546   0.653   7.532 -0.6978  1.2096  1.1118
  151SAPE  H10S16713   5.554   0.794   7.423  3.4337  2.1315 -2.4965
  151SAPE  C21116714   5.691   0.782   7.594  0.0469  0.0292  0.6743
  151SAPE  H11R16715   5.800   0.788   7.594  0.0821  2.8270  4.6198
  151SAPE  C21216716   5.637   0.841   7.696  0.0119  0.3070  0.2080
  151SAPE  H12R16717   5.695   0.905   7.764 -0.8977  1.1569  0.2090
  151SAPE  C21316718   5.487   0.859   7.715  0.3974 -0.6488 -0.0298
  151SAPE  H13R16719   5.459   0.806   7.808  1.3699 -2.0455 -0.5110
  151SAPE  H13S16720   5.428   0.800   7.642  0.6061  0.2732 -0.9769
  151SAPE  C21416721   5.454   1.004   7.728  0.0139 -0.2048  0.3237
  151SAPE  H14R16722   5.464   1.057   7.824  3.0465 -0.4761  0.2731
  151SAPE  C21516723   5.400   1.082   7.633 -0.1598  1.3092 -0.5027
  151SAPE  H15R16724   5.370   1.185   7.655 -1.7873  1.2105 -2.0358
  151SAPE  C21616725   5.371   1.034   7.496 -0.3781  0.0046  0.3250
  151SAPE  H16R16726   5.303   0.947   7.489 -0.9748  0.4973 -0.1121
  151SAPE  H16S16727   5.460   0.988   7.448 -0.3194  0.3015  0.1449
  151SAPE  C21716728   5.308   1.139   7.397  0.0621 -0.4523 -0.5353
  151SAPE  H17R16729   5.369   1.231   7.381 -1.8641  1.0174  0.1867
  151SAPE  H17S16730   5.207   1.169   7.431  0.7879 -1.3533  2.7739
  151SAPE  C21816731   5.293   1.076   7.261  0.1411  0.1974  0.6422
  151SAPE  H18R16732   5.215   0.998   7.274  0.6578 -0.2816  0.9485
  151SAPE  H18S16733   5.387   1.028   7.225 -0.9204 -0.1613 -1.7977
  151SAPE  C21916734   5.253   1.177   7.156  1.0362  0.2179 -0.4182
  151SAPE  H19R16735   5.343   1.231   7.118  0.4364 -0.2410 -2.6233
  151SAPE  H19S16736   5.183   1.246   7.208  0.8201 -0.1894 -0.1666
  151SAPE  C22016737   5.185   1.117   7.036  0.0244  0.1838 -0.4504
  151SAPE  H20R16738   5.240   1.038   6.980 -1.4866  0.6993 -2.8110
  151SAPE  H20S16739   5.082   1.076   7.048  0.1681 -0.5161 -1.4611
  151SAPE  H20T16740   5.163   1.187   6.953 -0.4346 -0.6656 -1.0694
  151SAPE   C3316741   4.847   0.840   7.028 -0.2994  0.1554 -0.3060
  151SAPE   H3X16742   4.744   0.841   6.987 -1.2771  0.0142  1.9832
  151SAPE   H3Y16743   4.861   0.943   7.067 -1.5983 -0.3704  1.6988
  151SAPE   C3416744   4.852   0.742   7.145 -0.2976  0.0417 -0.1227
  151SAPE   H4X16745   4.835   0.639   7.104 -1.4817  0.4833 -0.8136
  151SAPE   H4Y16746   4.756   0.762   7.197 -1.0020  1.0171 -1.6985
  151SAPE   C3516747   4.980   0.749   7.221 -0.1283 -0.1751 -0.4670
  151SAPE   H5X16748   5.004   0.847   7.268  1.1855 -1.9485  2.8577
  151SAPE   H5Y16749   5.061   0.702   7.161 -0.3675 -0.7740 -0.3187
  151SAPE   C3616750   4.969   0.651   7.337  0.0744  0.0700 -0.8457
  151SAPE   H6X16751   4.962   0.548   7.295  0.3797  0.0113 -0.7570
  151SAPE   H6Y16752   4.883   0.685   7.399  0.8752  2.0604 -0.7365
  151SAPE   C3716753   5.101   0.664   7.418 -0.3573  0.6672 -0.2072
  151SAPE   H7X16754   5.114   0.765   7.462  0.0512  0.7080 -0.4085
  151SAPE   H7Y16755   5.193   0.630   7.365  0.4276 -1.7608  2.4184
  151SAPE   C3816756   5.095   0.576   7.545 -0.9590 -0.2554 -1.1614
  151SAPE   H8X16757   5.083   0.466   7.531 -3.1554 -0.2577  0.2008
  151SAPE   H8Y16758   5.008   0.604   7.608 -0.3420 -1.1197  0.1015
  151SAPE   C3916759   5.219   0.593   7.636  0.3326 -0.3066  0.3213
  151SAPE   H9X16760   5.233   0.690   7.687 -0.4272  0.0135 -0.0626
  151SAPE   H9Y16761   5.310   0.582   7.574  1.9089  1.2268  2.2529
  151SAPE  C31016762   5.226   0.494   7.745 -0.2019  0.1148 -0.6672
  151SAPE  H10X16763   5.207   0.390   7.710  2.4411 -0.5736 -0.2760
  151SAPE  H10Y16764   5.170   0.523   7.836  1.2442 -0.4023  0.4189
  151SAPE  C31116765   5.372   0.486   7.803 -0.1057 -0.7372 -0.0649
  151SAPE  H11X16766   5.404   0.592   7.816 -0.2210 -0.4318 -1.9996
  151SAPE  H11Y16767   5.437   0.440   7.726 -0.7066 -2.2313  0.2906
  151SAPE  C31216768   5.390   0.409   7.938  0.2210  0.7076 -0.2940
  151SAPE  H12X16769   5.497   0.400   7.966 -0.4565 -0.8249  2.1296
  151SAPE  H12Y16770   5.345   0.308   7.932  0.2102  0.1855  4.5316
  151SAPE  C31316771   5.325   0.465   8.068 -0.7962  0.0370 -0.0089
  151SAPE  H13X16772   5.374   0.421   8.157  1.0391 -1.8880 -1.8495
  151SAPE  H13Y16773   5.216   0.444   8.073 -0.5832 -1.2899 -0.6845
  151SAPE  C31416774   5.338   0.618   8.077 -0.1452  1.0286 -0.0060
  151SAPE  H14X16775   5.268   0.655   8.156  1.0436  1.6595  0.7722
  151SAPE  H14Y16776   5.305   0.651   7.977 -0.3010  0.1983 -0.2337
  151SAPE  C31516777   5.483   0.660   8.103  0.2850  0.2653 -0.2192
  151SAPE  H15X16778   5.540   0.631   8.012 -1.1744 -1.5336 -0.6178
  151SAPE  H15Y16779   5.524   0.601   8.188 -1.2827  1.5167  1.4873
  151SAPE  C31616780   5.502   0.812   8.138  0.9353  0.0157  0.1697
  151SAPE  H16X16781   5.436   0.829   8.226 -0.6625  2.5830 -1.3733
  151SAPE  H16Y16782   5.455   0.867   8.054 -1.6287  0.0363  1.5199
  151SAPE  C31716783   5.637   0.870   8.173 -0.4809 -0.7862 -0.3132
  151SAPE  H17X16784   5.631   0.981   8.172  0.8698 -0.6900 -1.1890
  151SAPE  H17Y16785   5.711   0.848   8.092  1.4465  3.0513  0.1711
  151SAPE  C31816786   5.694   0.820   8.301  0.0667 -0.4843  0.5044
  151SAPE  H18X16787   5.788   0.875   8.324 -0.2926  1.6263 -2.5166
  151SAPE  H18Y16788   5.717   0.712   8.298  1.7932 -0.1535 -3.0125
  151SAPE  H18Z16789   5.620   0.832   8.383 -0.0434  1.7024  0.1680
  152SAPE     N16790   0.853   5.543   6.026  0.3131  0.4784 -0.0617
  152SAPE   HN116791   0.769   5.604   6.033 -0.3163 -0.1901 -1.3511
  152SAPE   HN216792   0.864   5.497   5.933 -1.0462 -0.4192  0.1874
  152SAPE   HN316793   0.841   5.464   6.092 -0.7922  0.5424 -0.1585
  152SAPE   C1216794   0.969   5.621   6.073 -0.2076 -0.2918 -0.7344
  152SAPE  H12A16795   0.957   5.647   6.181 -1.5012 -1.5140 -0.5524
  152SAPE  H12B16796   0.980   5.704   6.000 -0.0837 -0.4207 -0.8646
  152SAPE   C1116797   1.101   5.547   6.043 -0.9503  0.2843 -0.8632
  152SAPE  H11A16798   1.191   5.609   6.065  0.3744 -1.5130 -1.0588
  152SAPE  H11B16799   1.105   5.528   5.933 -1.5478 -2.5625 -0.4629
  152SAPE     P16800   1.199   5.302   6.086 -0.5201  0.0724  0.6382
  152SAPE   O1316801   1.137   5.183   6.026  0.3564 -0.0941  0.2986
  152SAPE   O1416802   1.314   5.353   6.015  0.3519 -0.2874 -0.3121
  152SAPE   O1216803   1.098   5.425   6.109  0.1152  0.6153  0.2736
  152SAPE   O1116804   1.252   5.268   6.232 -0.3426 -0.3369 -0.4819
  152SAPE    C116805   1.231   5.367   6.335  0.4897 -0.7115  0.1738
  152SAPE    HA16806   1.317   5.361   6.405  0.1216 -1.2152  0.5948
  152SAPE    HB16807   1.236   5.472   6.300  2.7955 -0.2745  1.5908
  152SAPE    C216808   1.107   5.360   6.434  0.0194 -0.7713  0.9535
  152SAPE    HS16809   1.018   5.381   6.372  1.9773  0.9939 -1.4691
  152SAPE   O2116810   1.129   5.455   6.552  0.4272  0.1293 -0.6419
  152SAPE   C2116811   1.112   5.573   6.529  0.6103 -0.2481  0.5017
  152SAPE   O2216812   1.084   5.630   6.425  0.3788  0.2097  0.4151
  152SAPE   C2216813   1.150   5.653   6.653  0.4161 -0.0549  0.1415
  152SAPE   H2R16814   1.099   5.629   6.748  2.6379 -1.9389  0.9834
  152SAPE   H2S16815   1.260   5.636   6.661  0.2818 -3.2630 -2.3872
  152SAPE    C316816   1.094   5.214   6.491  0.2716 -0.1271  0.1195
  152SAPE    HX16817   1.197   5.175   6.503  0.7801  1.1179 -0.0705
  152SAPE    HY16818   1.052   5.151   6.410  0.8421  1.2332 -1.2933
  152SAPE   O3116819   1.026   5.207   6.619  0.4889  0.2502 -0.1483
  152SAPE   C3116820   0.889   5.231   6.613 -0.8954 -0.3997 -0.7433
  152SAPE   O3216821   0.831   5.276   6.522 -0.4003  0.0002 -0.1220
  152SAPE   C3216822   0.820   5.214   6.751 -0.0609 -0.6330  0.3664
  152SAPE   H2X16823   0.857   5.296   6.816  2.2451 -0.5595 -0.9097
  152SAPE   H2Y16824   0.856   5.118   6.796  1.7176 -0.3097 -0.2753
  152SAPE   C2316825   1.128   5.802   6.626  0.0079  0.2915 -0.9407
  152SAPE   H3R16826   1.021   5.820   6.604 -0.0562  1.4872  0.1629
  152SAPE   H3S16827   1.185   5.818   6.532 -0.9039 -3.5898 -2.3285
  152SAPE   C2416828   1.169   5.892   6.743  0.0883 -0.9256 -0.8230
  152SAPE   H4R16829   1.128   5.859   6.841  1.6532 -0.1688  0.1181
  152SAPE   H4S16830   1.146   5.996   6.710  1.8986 -0.7762 -1.6995
  152SAPE   C2516831   1.321   5.891   6.761  0.2905  0.1743 -0.3616
  152SAPE   H5R16832   1.369   5.886   6.662 -0.5628  1.3417 -0.8530
  152SAPE   C2616833   1.394   5.857   6.872  0.2493 -0.6565 -0.3928
  152SAPE   H6R16834   1.502   5.871   6.858  0.0350  0.1499 -1.3405
  152SAPE   C2716835   1.347   5.823   7.008  0.3463 -0.7458 -0.4875
  152SAPE   H7R16836   1.266   5.895   7.034  1.4203  0.5426 -0.5954
  152SAPE   H7S16837   1.434   5.845   7.074 -0.8821  0.7031  0.7328
  152SAPE   C2816838   1.293   5.688   7.033  0.1241 -0.2350  1.2777
  152SAPE   H8R16839   1.337   5.610   6.969 -0.5644  0.4570 -0.0905
  152SAPE   C2916840   1.217   5.653   7.139 -0.0474 -0.0953 -0.3542
  152SAPE   H9R16841   1.195   5.545   7.149 -0.3636 -0.0677 -0.7267
  152SAPE  C21016842   1.170   5.738   7.262 -0.2709 -0.0708  0.1958
  152SAPE  H10R16843   1.059   5.740   7.254 -0.1740 -0.5192 -1.9044
  152SAPE  H10S16844   1.208   5.842   7.264 -2.0982  0.6164  2.0869
  152SAPE  C21116845   1.217   5.676   7.398  0.0608  0.1798  0.2352
  152SAPE  H11R16846   1.264   5.578   7.379 -0.7680 -0.0800 -0.5267
  152SAPE  C21216847   1.202   5.720   7.522  0.4115  0.0922 -0.4010
  152SAPE  H12R16848   1.234   5.659   7.608 -0.2847 -0.9657 -0.8717
  152SAPE  C21316849   1.123   5.844   7.565  0.0031 -0.0917  0.1603
  152SAPE  H13R16850   1.115   5.913   7.479 -0.6902  0.1660  0.4309
  152SAPE  H13S16851   1.184   5.900   7.639  1.3472 -1.2881  0.0090
  152SAPE  C21416852   0.984   5.818   7.624  0.3251 -0.3456 -0.3929
  152SAPE  H14R16853   0.924   5.749   7.563 -0.2277  0.2412 -0.5189
  152SAPE  C21516854   0.929   5.853   7.741 -0.3919  0.5903 -0.4042
  152SAPE  H15R16855   0.820   5.845   7.754 -0.7364  2.1398 -1.9674
  152SAPE  C21616856   0.993   5.932   7.849  0.4058  0.6297  0.0739
  152SAPE  H16R16857   0.952   6.035   7.851 -1.5623 -0.0542 -1.4703
  152SAPE  H16S16858   1.099   5.949   7.821  0.6841 -1.6328 -0.4693
  152SAPE  C21716859   0.988   5.861   7.986  0.2609  0.5681  0.0349
  152SAPE  H17R16860   1.086   5.810   7.996  1.7443  2.8526 -1.6729
  152SAPE  H17S16861   0.900   5.793   7.987 -0.2303  1.1973  0.2476
  152SAPE  C21816862   0.967   5.957   8.104 -0.2162  0.6361 -0.5469
  152SAPE  H18R16863   0.876   6.018   8.083  0.2080  1.6497  0.4947
  152SAPE  H18S16864   1.050   6.027   8.126  0.5825 -0.9651  1.9088
  152SAPE  C21916865   0.939   5.874   8.230  0.0140  0.6097  0.1218
  152SAPE  H19R16866   0.994   5.778   8.233 -2.8315 -1.1084  1.9215
  152SAPE  H19S16867   0.834   5.843   8.214  0.0755  0.4783 -0.0254
  152SAPE  C22016868   0.966   5.957   8.356 -0.4966  0.4630 -0.0599
  152SAPE  H20R16869   0.913   6.054   8.367 -0.8779  0.4155 -1.3029
  152SAPE  H20S16870   1.074   5.982   8.365 -0.3229  0.0581 -0.8603
  152SAPE  H20T16871   0.945   5.895   8.445  0.5222  1.3736  0.8456
  152SAPE   C3316872   0.672   5.226   6.748  0.4738  0.4475 -0.2106
  152SAPE   H3X16873   0.629   5.133   6.705  2.4381 -1.1227  1.0385
  152SAPE   H3Y16874   0.634   5.314   6.692 -0.8199 -0.6613 -1.1599
  152SAPE   C3416875   0.617   5.237   6.891  0.2260  0.1020  0.0957
  152SAPE   H4X16876   0.649   5.339   6.922 -1.6635  0.3827  1.3023
  152SAPE   H4Y16877   0.661   5.164   6.962 -2.5031  0.2987  2.1623
  152SAPE   C3516878   0.463   5.218   6.900  0.4992  0.1518 -0.5735
  152SAPE   H5X16879   0.446   5.122   6.847 -0.8470  1.4906 -2.7210
  152SAPE   H5Y16880   0.413   5.300   6.844  0.1685  1.2077  1.2025
  152SAPE   C3616881   0.413   5.218   7.049 -0.8907 -0.1607 -0.2885
  152SAPE   H6X16882   0.454   5.130   7.104 -0.4773  0.8894  1.1568
  152SAPE   H6Y16883   0.303   5.210   7.044 -0.8942  0.5665 -2.0186
  152SAPE   C3716884   0.445   5.357   7.118 -0.4702  0.4787  0.6185
  152SAPE   H7X16885   0.399   5.436   7.055  2.0478  0.5316 -1.3204
  152SAPE   H7Y16886   0.555   5.374   7.110 -0.7051  1.4663 -0.8424
  152SAPE   C3816887   0.386   5.382   7.259  0.2425  0.7895  0.0689
  152SAPE   H8X16888   0.413   5.487   7.282  1.8055 -0.4510  5.1560
  152SAPE   H8Y16889   0.437   5.313   7.329 -0.9248  0.8020  0.9630
  152SAPE   C3916890   0.235   5.372   7.259 -0.1557 -0.4342 -0.3189
  152SAPE   H9X16891   0.185   5.278   7.225  2.7048 -2.5883  0.9507
  152SAPE   H9Y16892   0.207   5.453   7.190  1.4650  0.4047 -0.0430
  152SAPE  C31016893   0.181   5.386   7.398 -0.2551 -0.0377 -0.1435
  152SAPE  H10X16894   0.249   5.444   7.463  2.4654  1.4374 -3.9376
  152SAPE  H10Y16895   0.185   5.281   7.432 -1.4512 -1.3061 -3.4603
  152SAPE  C31116896   0.031   5.421   7.396  0.0415 -0.0522  0.3991
  152SAPE  H11X16897  -0.025   5.361   7.321  0.0149  1.2670 -0.6734
  152SAPE  H11Y16898   0.017   5.522   7.352 -0.2451 -1.2608 -2.5012
  152SAPE  C31216899  -0.035   5.409   7.538 -0.6952 -0.2646  0.3668
  152SAPE  H12X16900  -0.129   5.468   7.540 -1.2080 -1.0956  1.0872
  152SAPE  H12Y16901   0.030   5.466   7.608 -0.4200 -0.2140  0.0739
  152SAPE  C31316902  -0.069   5.256   7.574  0.4876 -1.1214  0.3774
  152SAPE  H13X16903  -0.067   5.195   7.481  1.9834  0.4606 -0.6915
  152SAPE  H13Y16904  -0.165   5.245   7.628 -0.8028 -1.8648 -1.9104
  152SAPE  C31416905   0.042   5.199   7.663 -0.2349 -0.0322  0.4302
  152SAPE  H14X16906   0.134   5.205   7.600 -0.7119  1.9213 -0.1615
  152SAPE  H14Y16907   0.021   5.092   7.684  2.4787 -0.2686  2.5133
  152SAPE  C31516908   0.064   5.276   7.796 -0.2131 -0.2383 -0.3923
  152SAPE  H15X16909  -0.006   5.229   7.868 -0.6954  1.9731  0.6725
  152SAPE  H15Y16910   0.046   5.385   7.789 -3.2319 -0.5569  0.9647
  152SAPE  C31616911   0.212   5.270   7.835  1.0564  0.6008 -0.8124
  152SAPE  H16X16912   0.285   5.315   7.763 -1.3619  0.3798 -3.6180
  152SAPE  H16Y16913   0.227   5.160   7.828 -3.7081 -0.2505 -1.1664
  152SAPE  C31716914   0.257   5.299   7.981  0.6737 -0.9030  0.8226
  152SAPE  H17X16915   0.264   5.409   7.996 -1.0770 -0.5803 -0.4909
  152SAPE  H17Y16916   0.357   5.263   8.015  1.9112  1.0447 -0.4951
  152SAPE  C31816917   0.155   5.243   8.076 -0.1763 -0.5211 -0.3519
  152SAPE  H18X16918   0.065   5.305   8.056  1.0058  1.1388 -0.6303
  152SAPE  H18Y16919   0.198   5.250   8.178  1.1797 -0.9557 -0.8680
  152SAPE  H18Z16920   0.129   5.138   8.047  0.2956 -1.1424  1.3706
  153SAPE     N16921   5.271   5.886   6.206 -0.0291  0.6099 -0.0354
  153SAPE   HN116922   5.195   5.950   6.239  1.1015  2.5112 -0.8952
  153SAPE   HN216923   5.231   5.795   6.175  2.0199 -0.5826  0.6490
  153SAPE   HN316924   5.330   5.860   6.287 -1.4307  0.3250  0.9290
  153SAPE   C1216925   5.338   5.947   6.090 -0.5513  0.4193 -0.1805
  153SAPE  H12A16926   5.259   5.977   6.018 -1.0666  0.6205  0.4636
  153SAPE  H12B16927   5.409   5.875   6.044 -1.2729 -0.1331 -0.4465
  153SAPE   C1116928   5.427   6.065   6.137  0.3792 -0.7789 -0.1666
  153SAPE  H11A16929   5.360   6.152   6.150  0.5746 -0.9105  2.0976
  153SAPE  H11B16930   5.493   6.114   6.062 -1.7436  1.3425 -0.7603
  153SAPE     P16931   5.642   5.971   6.255 -0.0657 -0.6223  0.0971
  153SAPE   O1316932   5.627   5.833   6.215  0.4088  0.0561 -0.1137
  153SAPE   O1416933   5.727   6.060   6.177 -0.1036 -1.3039 -0.3411
  153SAPE   O1216934   5.496   6.036   6.269 -0.2707 -1.0827  0.3152
  153SAPE   O1116935   5.695   5.977   6.407  0.6058  0.0683  0.0337
  153SAPE    C116936   5.653   6.107   6.467 -0.1374  0.6763 -0.2837
  153SAPE    HA16937   5.670   6.192   6.398  1.5995  0.4875 -0.1495
  153SAPE    HB16938   5.550   6.094   6.506  0.0749 -0.9907 -0.1816
  153SAPE    C216939   5.737   6.121   6.599 -0.0274 -0.5828  0.1145
  153SAPE    HS16940   5.846   6.133   6.580  0.0432  0.2290  0.9985
  153SAPE   O2116941   5.698   6.006   6.681  0.5608 -0.2142 -0.4790
  153SAPE   C2116942   5.792   5.947   6.755  0.5146  1.0786  0.4885
  153SAPE   O2216943   5.905   5.991   6.766 -0.3289  0.6697 -0.1072
  153SAPE   C2216944   5.735   5.802   6.796 -0.2068 -1.3454  0.6100
  153SAPE   H2R16945   5.744   5.740   6.704  2.2003  1.7460 -1.4688
  153SAPE   H2S16946   5.797   5.766   6.880  2.3423  3.5887  1.2198
  153SAPE    C316947   5.691   6.252   6.672  0.6162 -0.0375  0.4196
  153SAPE    HX16948   5.583   6.244   6.696 -0.0855  1.1921 -1.9485
  153SAPE    HY16949   5.697   6.339   6.603 -0.9433  0.0798  0.4041
  153SAPE   O3116950   5.763   6.270   6.791 -0.3152 -0.2494 -0.6965
  153SAPE   C3116951   5.886   6.315   6.790 -0.7317 -0.3471  0.3681
  153SAPE   O3216952   5.953   6.345   6.694 -0.9774  0.3286 -0.4348
  153SAPE   C3216953   5.945   6.307   6.932 -0.2681 -0.0752 -0.1036
  153SAPE   H2X16954   5.893   6.243   7.007  2.9433 -0.8253  1.6898
  153SAPE   H2Y16955   5.949   6.411   6.972  0.8219 -0.0522 -0.2329
  153SAPE   C2316956   5.591   5.814   6.857  0.5681 -0.0184  0.2482
  153SAPE   H3R16957   5.552   5.709   6.858 -0.3708  0.3019 -0.7271
  153SAPE   H3S16958   5.541   5.861   6.769  3.2158  0.0461 -1.3305
  153SAPE   C2416959   5.564   5.887   6.995  0.0234 -0.2999  0.2773
  153SAPE   H4R16960   5.455   5.904   7.003  0.3189  1.1001  2.0928
  153SAPE   H4S16961   5.613   5.987   6.985  0.1017 -0.3716 -0.0638
  153SAPE   C2516962   5.623   5.804   7.113  0.6010 -0.7076 -0.0829
  153SAPE   H5R16963   5.541   5.736   7.140 -1.4577  1.5903 -0.1556
  153SAPE   C2616964   5.744   5.822   7.168 -0.1608  0.1269  0.3391
  153SAPE   H6R16965   5.783   5.759   7.249  1.6580 -0.5866 -1.0342
  153SAPE   C2716966   5.843   5.930   7.123 -0.1896  0.5773  0.4180
  153SAPE   H7R16967   5.822   6.018   7.187 -0.2356  1.2803 -0.5368
  153SAPE   H7S16968   5.826   5.957   7.016  1.9234 -0.3353 -0.2200
  153SAPE   C2816969   5.989   5.888   7.134 -0.3483 -0.2086 -0.8173
  153SAPE   H8R16970   6.038   5.869   7.038  1.7866 -2.1037  0.5277
  153SAPE   C2916971   6.069   5.899   7.244 -0.3563 -0.1989  0.0525
  153SAPE   H9R16972   6.174   5.869   7.255 -0.3235 -0.0831  0.0602
  153SAPE  C21016973   6.008   5.941   7.380 -0.8808  0.7839 -1.0233
  153SAPE  H10R16974   6.030   5.865   7.457  0.2070 -1.2604 -3.2246
  153SAPE  H10S16975   5.901   5.973   7.376 -0.7029  1.3447 -1.3683
  153SAPE  C21116976   6.076   6.065   7.434  0.4446  0.1029 -0.1215
  153SAPE  H11R16977   6.097   6.138   7.354  0.9352  0.6309  0.4849
  153SAPE  C21216978   6.135   6.093   7.553 -0.3807  0.0459  0.0720
  153SAPE  H12R16979   6.180   6.191   7.573  2.1638 -0.7746 -1.1257
  153SAPE  C21316980   6.144   6.006   7.682 -0.1822  0.1303  0.2256
  153SAPE  H13R16981   6.246   6.021   7.724  0.1105  0.2018 -0.4952
  153SAPE  H13S16982   6.141   5.901   7.648  0.1898  0.5302 -1.1327
  153SAPE  C21416983   6.041   6.046   7.788 -0.2823 -0.2925 -0.6012
  153SAPE  H14R16984   5.943   6.071   7.745 -0.5910 -0.1887  0.1497
  153SAPE  C21516985   6.065   6.047   7.919  0.5365 -0.0141  0.1522
  153SAPE  H15R16986   5.978   6.073   7.981 -0.1431 -1.6371 -0.0495
  153SAPE  C21616987   6.190   5.999   7.991 -0.7278 -0.3691  0.0287
  153SAPE  H16R16988   6.257   6.087   7.998  0.1724 -1.1573  2.3915
  153SAPE  H16S16989   6.242   5.919   7.935  2.0885  1.8252 -0.7048
  153SAPE  C21716990   6.165   5.944   8.128 -0.3611  0.0042 -0.2269
  153SAPE  H17R16991   6.136   6.016   8.207  2.9836 -0.1807  1.3160
  153SAPE  H17S16992   6.257   5.891   8.161 -0.1241 -0.3168 -1.3469
  153SAPE  C21816993   6.050   5.845   8.129  0.0865  0.0190 -0.0510
  153SAPE  H18R16994   6.074   5.766   8.055 -1.0467  1.0793 -1.6112
  153SAPE  H18S16995   5.955   5.887   8.089 -1.9079 -3.2661  0.8172
  153SAPE  C21916996   6.014   5.787   8.263 -0.0989  0.2859 -1.0802
  153SAPE  H19R16997   5.924   5.721   8.260  0.5679 -0.7330  0.1607
  153SAPE  H19S16998   5.997   5.868   8.337 -1.9871  1.6625 -2.9060
  153SAPE  C22016999   6.126   5.705   8.329 -0.0833 -0.0645  0.2356
  153SAPE  H20R17000   6.199   5.783   8.357 -0.9399  1.4537 -1.5474
  153SAPE  H20S17001   6.162   5.627   8.259  0.9184  1.6167 -1.1912
  153SAPE  H20T17002   6.100   5.650   8.422  1.5656 -0.2898  0.5975
  153SAPE   C3317003   6.085   6.234   6.941  0.4917 -0.1824  0.0461
  153SAPE   H3X17004   6.121   6.165   6.863 -1.0426  1.8580 -2.6360
  153SAPE   H3Y17005   6.087   6.175   7.035 -1.6030  2.1237  1.6811
  153SAPE   C3417006   6.204   6.334   6.963  0.4326  0.5954  0.2690
  153SAPE   H4X17007   6.177   6.432   6.918  2.5616  0.8570 -0.5399
  153SAPE   H4Y17008   6.288   6.286   6.908 -0.8683  0.7082 -1.9500
  153SAPE   C3517009   6.236   6.347   7.115 -0.3267  0.7402 -0.0290
  153SAPE   H5X17010   6.242   6.243   7.153 -0.3975  0.0439 -1.8760
  153SAPE   H5Y17011   6.150   6.401   7.162 -0.0329  1.8715 -0.7493
  153SAPE   C3617012   6.354   6.434   7.153 -0.1457  0.1451 -0.7393
  153SAPE   H6X17013   6.365   6.524   7.089 -0.9165  1.5667  1.0298
  153SAPE   H6Y17014   6.442   6.368   7.142 -0.7187 -0.6857 -0.4959
  153SAPE   C3717015   6.353   6.484   7.303 -0.0880 -1.1109 -0.7185
  153SAPE   H7X17016   6.257   6.537   7.322  1.8739  1.6756  2.5959
  153SAPE   H7Y17017   6.422   6.567   7.330 -2.2313  0.4952  0.1293
  153SAPE   C3817018   6.377   6.381   7.413 -0.3112  0.3177 -0.1909
  153SAPE   H8X17019   6.485   6.359   7.418 -0.4734 -0.3532  0.4597
  153SAPE   H8Y17020   6.325   6.285   7.393  0.9076 -0.8122  1.7549
  153SAPE   C3917021   6.347   6.428   7.557 -0.4142 -0.3636 -0.3454
  153SAPE   H9X17022   6.364   6.347   7.632 -1.5684 -0.4856 -0.2051
  153SAPE   H9Y17023   6.239   6.446   7.572 -0.5071 -1.2627  0.1691
  153SAPE  C31017024   6.421   6.558   7.601  0.4974  0.2170  0.0860
  153SAPE  H10X17025   6.401   6.646   7.537  2.4717  0.4718 -0.2639
  153SAPE  H10Y17026   6.532   6.547   7.593  0.4708 -1.8131  1.7175
  153SAPE  C31117027   6.383   6.603   7.737 -0.6184  0.6383  0.2455
  153SAPE  H11X17028   6.272   6.598   7.749 -0.6485  1.5041  0.3275
  153SAPE  H11Y17029   6.405   6.711   7.737 -2.4663  1.0694 -0.4636
  153SAPE  C31217030   6.459   6.537   7.856 -0.5414 -0.5717 -0.0879
  153SAPE  H12X17031   6.567   6.546   7.832 -0.1334 -1.8846  1.1296
  153SAPE  H12Y17032   6.436   6.428   7.858  0.0184 -0.7167 -0.7828
  153SAPE  C31317033   6.422   6.617   7.980 -0.8517 -0.2890 -0.5961
  153SAPE  H13X17034   6.311   6.621   7.982 -0.8311  2.9115 -1.0262
  153SAPE  H13Y17035   6.454   6.722   7.964 -2.0566  0.1802 -0.0545
  153SAPE  C31417036   6.491   6.564   8.105  0.6576 -0.2110 -0.9387
  153SAPE  H14X17037   6.599   6.547   8.088  0.7131 -0.6213 -0.2346
  153SAPE  H14Y17038   6.440   6.473   8.144 -1.4754  1.8961  1.6043
  153SAPE  C31517039   6.472   6.664   8.225  0.3092  0.4087  0.1612
  153SAPE  H15X17040   6.539   6.647   8.312 -0.3316 -1.3676  0.3490
  153SAPE  H15Y17041   6.364   6.665   8.252 -0.0477  2.2801 -1.1924
  153SAPE  C31617042   6.507   6.814   8.204  0.2355  0.4936  0.1042
  153SAPE  H16X17043   6.475   6.871   8.293 -1.1042  0.7795 -0.5425
  153SAPE  H16Y17044   6.446   6.846   8.117  0.2283  0.6947  0.1838
  153SAPE  C31717045   6.661   6.822   8.176  0.4667  0.0557 -0.5500
  153SAPE  H17X17046   6.689   6.925   8.144  1.1132  0.7900  2.0894
  153SAPE  H17Y17047   6.687   6.756   8.091  0.3513 -1.7496  0.7617
  153SAPE  C31817048   6.757   6.791   8.292 -0.0649 -0.1148  0.2577
  153SAPE  H18X17049   6.845   6.858   8.300 -1.0539  1.1573  0.7209
  153SAPE  H18Y17050   6.792   6.689   8.267 -0.1552  0.7845 -4.4439
  153SAPE  H18Z17051   6.705   6.791   8.391 -2.4532 -1.3506 -0.8983
  154SAPE     N17052   2.203   3.228   6.207 -0.0180  0.2377 -0.3122
  154SAPE   HN117053   2.187   3.286   6.123 -0.3781  3.2463  1.6893
  154SAPE   HN217054   2.295   3.180   6.215  0.1658  0.7375  0.7585
  154SAPE   HN317055   2.131   3.152   6.203  1.1047 -0.8174 -1.3107
  154SAPE   C1217056   2.167   3.312   6.328 -0.5761  0.3059 -0.0479
  154SAPE  H12A17057   2.110   3.248   6.398 -1.3120 -1.8310 -2.4282
  154SAPE  H12B17058   2.092   3.388   6.297  0.4660  1.5695  0.4428
  154SAPE   C1117059   2.298   3.379   6.378 -0.7270 -0.1425 -0.4537
  154SAPE  H11A17060   2.368   3.297   6.405 -0.0798 -0.0160 -1.6717
  154SAPE  H11B17061   2.258   3.432   6.467  0.1982  0.0520 -0.1455
  154SAPE     P17062   2.518   3.473   6.274  0.0812  0.0370 -0.2653
  154SAPE   O1317063   2.558   3.343   6.225  0.2412 -0.0107  0.0103
  154SAPE   O1417064   2.554   3.595   6.196  0.3853  0.4059  0.0273
  154SAPE   O1217065   2.358   3.475   6.280  0.0133 -0.9104 -0.1308
  154SAPE   O1117066   2.567   3.487   6.423  0.4343 -0.1609 -0.4457
  154SAPE    C117067   2.702   3.530   6.440 -0.4259 -0.0489 -0.4302
  154SAPE    HA17068   2.746   3.592   6.359  0.1940  0.9613  0.6430
  154SAPE    HB17069   2.718   3.595   6.529 -1.1873 -0.2637 -0.1316
  154SAPE    C217070   2.801   3.411   6.473  0.1549 -0.7290  0.4158
  154SAPE    HS17071   2.821   3.364   6.375 -1.0161 -0.5939  0.1023
  154SAPE   O2117072   2.750   3.305   6.555  0.1409 -0.0190 -0.0005
  154SAPE   C2117073   2.823   3.194   6.546 -0.7224  0.1729 -0.0951
  154SAPE   O2217074   2.916   3.175   6.465  0.8033 -0.2203 -0.1103
  154SAPE   C2217075   2.798   3.093   6.652  0.8682 -0.2387  0.7234
  154SAPE   H2R17076   2.706   3.127   6.704 -0.7055 -0.0508 -1.9926
  154SAPE   H2S17077   2.767   3.002   6.597  0.4945  0.7014 -0.6623
  154SAPE    C317078   2.931   3.472   6.537 -0.2510 -0.1817 -0.2292
  154SAPE    HX17079   2.959   3.564   6.482  0.8102  0.1331  0.7862
  154SAPE    HY17080   3.007   3.390   6.534  0.6624  0.6575 -0.9542
  154SAPE   O3117081   2.930   3.490   6.686  0.2752  0.1481  0.4743
  154SAPE   C3117082   2.911   3.611   6.732  0.7392 -0.4043 -0.4596
  154SAPE   O3217083   2.902   3.716   6.670 -0.7432  0.5607  0.5714
  154SAPE   C3217084   2.911   3.611   6.882  0.8695  0.1605 -0.5257
  154SAPE   H2X17085   2.998   3.668   6.920  1.0529 -1.1135  1.1189
  154SAPE   H2Y17086   2.929   3.510   6.924  4.4086  1.5001  1.6683
  154SAPE   C2317087   2.929   3.063   6.735  0.6255 -0.1984 -0.4484
  154SAPE   H3R17088   3.014   3.049   6.665  0.6648  4.0059 -1.5481
  154SAPE   H3S17089   2.906   2.967   6.786  0.6129  0.6762  1.2747
  154SAPE   C2417090   2.959   3.178   6.836 -0.5479  0.2359 -0.3805
  154SAPE   H4R17091   2.872   3.184   6.905  1.1512  0.9001  1.8340
  154SAPE   H4S17092   2.965   3.276   6.784  1.8571  0.5135  0.2652
  154SAPE   C2517093   3.086   3.144   6.916 -0.0701 -0.9448  0.2142
  154SAPE   H5R17094   3.177   3.145   6.854  0.8000  0.6575  1.4405
  154SAPE   C2617095   3.091   3.130   7.048 -1.0944 -0.1770 -0.0687
  154SAPE   H6R17096   3.190   3.117   7.095 -0.8853  0.9781 -0.1500
  154SAPE   C2717097   2.974   3.140   7.149 -0.5039  0.2902  0.5126
  154SAPE   H7R17098   2.946   3.034   7.166 -0.6619 -0.1165 -1.9642
  154SAPE   H7S17099   2.883   3.187   7.106  0.1153  2.8391  1.7711
  154SAPE   C2817100   3.012   3.208   7.281 -1.2330  0.6266  0.4328
  154SAPE   H8R17101   2.979   3.313   7.284 -0.2561  0.9390  0.6701
  154SAPE   C2917102   3.080   3.146   7.385  0.4147  0.0428  0.9994
  154SAPE   H9R17103   3.102   3.206   7.475  3.0728 -0.7815  0.9651
  154SAPE  C21017104   3.123   2.997   7.381  0.2559 -0.3079 -0.5877
  154SAPE  H10R17105   3.103   2.945   7.285  1.1272 -1.0976 -0.3602
  154SAPE  H10S17106   3.059   2.952   7.460 -0.1225 -0.0021 -0.7143
  154SAPE  C21117107   3.270   2.988   7.413  0.3677 -0.2721  0.1400
  154SAPE  H11R17108   3.332   3.032   7.334 -2.6493  1.7533 -1.2726
  154SAPE  C21217109   3.329   2.928   7.517  0.0699 -0.2870  0.2806
  154SAPE  H12R17110   3.437   2.931   7.536  0.0890  1.8384  0.0960
  154SAPE  C21317111   3.267   2.858   7.634 -0.3627 -0.4162 -0.0716
  154SAPE  H13R17112   3.339   2.794   7.688 -0.0421  0.5317  0.6464
  154SAPE  H13S17113   3.185   2.787   7.611  1.4914 -3.2793  1.6032
  154SAPE  C21417114   3.214   2.957   7.732  0.6692 -0.0500 -1.1804
  154SAPE  H14R17115   3.215   3.061   7.698  0.5806  0.4994  0.4352
  154SAPE  C21517116   3.164   2.923   7.853 -0.9601  0.6210  0.6790
  154SAPE  H15R17117   3.128   3.003   7.918 -2.3000 -0.2551  1.0585
  154SAPE  C21617118   3.159   2.785   7.911 -0.6254  0.4650  0.4201
  154SAPE  H16R17119   3.216   2.711   7.850  0.9112  2.9629 -1.3730
  154SAPE  H16S17120   3.050   2.768   7.925 -1.1874  3.5968  0.6484
  154SAPE  C21717121   3.216   2.784   8.052  0.2612 -0.2480 -0.4559
  154SAPE  H17R17122   3.310   2.842   8.054  0.4815 -0.5181  2.8768
  154SAPE  H17S17123   3.247   2.680   8.077  0.8345 -0.3994 -1.7391
  154SAPE  C21817124   3.127   2.833   8.164  0.3357  0.4994 -0.5767
  154SAPE  H18R17125   3.043   2.762   8.182  1.2627 -0.1512  1.4009
  154SAPE  H18S17126   3.087   2.936   8.148  0.3425  0.9070  1.7144
  154SAPE  C21917127   3.214   2.837   8.289  0.4744  0.0792 -0.3539
  154SAPE  H19R17128   3.309   2.892   8.276  0.1909  0.3725 -1.2306
  154SAPE  H19S17129   3.247   2.735   8.319  0.4249  0.3872  0.8048
  154SAPE  C22017130   3.143   2.892   8.413 -0.1318 -0.0445 -0.6539
  154SAPE  H20R17131   3.215   2.922   8.493  0.1132 -0.5551 -0.6788
  154SAPE  H20S17132   3.081   2.809   8.452 -1.1083  0.8947 -0.1588
  154SAPE  H20T17133   3.075   2.977   8.391  0.7766  0.9059  0.0597
  154SAPE   C3317134   2.793   3.683   6.955  0.2179 -0.1141 -0.3418
  154SAPE   H3X17135   2.705   3.615   6.948 -0.8917  1.1817  0.6406
  154SAPE   H3Y17136   2.780   3.786   6.917 -2.2478 -0.1429  0.2458
  154SAPE   C3417137   2.832   3.682   7.106 -0.4030 -0.2587  0.3569
  154SAPE   H4X17138   2.881   3.585   7.129 -1.7920 -1.0864 -0.0689
  154SAPE   H4Y17139   2.736   3.677   7.162 -1.9496  1.9094 -1.9202
  154SAPE   C3517140   2.923   3.793   7.151  0.6629  0.2377 -0.2559
  154SAPE   H5X17141   2.895   3.888   7.100  1.4735  1.0645  0.7798
  154SAPE   H5Y17142   3.026   3.774   7.115  0.8930  0.9117  0.0258
  154SAPE   C3617143   2.920   3.824   7.303 -1.0225 -0.2091 -0.0031
  154SAPE   H6X17144   2.820   3.846   7.347 -1.0054  0.8424 -0.4622
  154SAPE   H6Y17145   2.985   3.912   7.319 -0.1753 -0.8106 -0.0762
  154SAPE   C3717146   2.973   3.704   7.380 -0.4498  0.1069  0.3958
  154SAPE   H7X17147   3.067   3.662   7.338 -0.6153 -2.3742  2.2847
  154SAPE   H7Y17148   2.896   3.625   7.371 -0.8508  0.5845 -0.6102
  154SAPE   C3817149   3.002   3.735   7.526  0.1942  0.0692 -0.0692
  154SAPE   H8X17150   2.906   3.780   7.558  0.7919  1.5078 -0.2153
  154SAPE   H8Y17151   3.077   3.815   7.541 -0.1235  0.4619 -0.5412
  154SAPE   C3917152   3.025   3.602   7.610  0.1404  0.3374  0.2148
  154SAPE   H9X17153   3.126   3.569   7.579  0.3974  1.1410  0.1587
  154SAPE   H9Y17154   2.949   3.527   7.578  0.0648 -1.0151  3.2001
  154SAPE  C31017155   3.007   3.626   7.763  1.1289  0.4595  0.1144
  154SAPE  H10X17156   3.023   3.735   7.780  1.4252  0.6319 -1.1228
  154SAPE  H10Y17157   3.071   3.559   7.823  1.3160 -1.2666 -1.8961
  154SAPE  C31117158   2.856   3.586   7.805  0.6719 -0.1430  0.7817
  154SAPE  H11X17159   2.855   3.477   7.784 -0.2316 -0.3087  1.6420
  154SAPE  H11Y17160   2.781   3.641   7.743 -1.0177 -2.2668  0.8257
  154SAPE  C31217161   2.831   3.606   7.950  0.0757  0.0676  0.2735
  154SAPE  H12X17162   2.875   3.705   7.977  2.2601 -0.3988 -1.2839
  154SAPE  H12Y17163   2.883   3.529   8.010 -0.6731  0.1939  1.1063
  154SAPE  C31317164   2.684   3.598   7.992  0.9583 -0.3839 -0.7221
  154SAPE  H13X17165   2.627   3.506   7.969 -0.6529  0.2760  0.4326
  154SAPE  H13Y17166   2.625   3.674   7.935 -0.3135 -0.8564 -0.0907
  154SAPE  C31417167   2.664   3.621   8.149  0.0641  0.8805  0.1595
  154SAPE  H14X17168   2.702   3.724   8.165  0.8078  0.4646  1.2229
  154SAPE  H14Y17169   2.727   3.549   8.205 -0.3067  2.7415  3.1899
  154SAPE  C31517170   2.525   3.601   8.191 -0.6544  0.1544  0.1393
  154SAPE  H15X17171   2.491   3.496   8.179  0.9287 -0.4154  0.3914
  154SAPE  H15Y17172   2.470   3.664   8.118 -2.4153 -1.0415  0.3712
  154SAPE  C31617173   2.494   3.635   8.333 -0.0484 -0.1276  0.0537
  154SAPE  H16X17174   2.385   3.653   8.327  0.1092  0.6054 -0.8955
  154SAPE  H16Y17175   2.540   3.732   8.365 -0.7899  0.3189 -0.1986
  154SAPE  C31717176   2.527   3.529   8.442  0.5177 -0.1580  0.5122
  154SAPE  H17X17177   2.636   3.510   8.452  0.7153 -0.3355 -1.6072
  154SAPE  H17Y17178   2.476   3.435   8.412 -1.1380  0.5770  0.9219
  154SAPE  C31817179   2.478   3.583   8.573  0.3764  0.9820  0.6702
  154SAPE  H18X17180   2.371   3.612   8.569  0.1610  0.1348 -0.0208
  154SAPE  H18Y17181   2.537   3.673   8.597  0.0744  1.5453 -0.6324
  154SAPE  H18Z17182   2.504   3.514   8.656 -0.1597  0.4833  0.4322
  155SAPE     N17183   1.888   5.895   6.333  0.0810 -0.6462  0.4432
  155SAPE   HN117184   1.872   5.806   6.282  2.0012 -1.7197  1.6180
  155SAPE   HN217185   1.922   5.959   6.258  0.2310 -1.4374 -0.1845
  155SAPE   HN317186   1.964   5.877   6.401 -0.0573 -1.2053  0.4506
  155SAPE   C1217187   1.773   5.968   6.394  0.2979 -0.1423  0.8839
  155SAPE  H12A17188   1.707   6.006   6.313 -0.8271 -2.4020  0.6493
  155SAPE  H12B17189   1.819   6.040   6.464 -0.3977 -0.5799  1.8137
  155SAPE   C1117190   1.687   5.873   6.476  0.5906  0.4295 -0.1620
  155SAPE  H11A17191   1.631   5.925   6.557  0.5891 -1.8380  1.3760
  155SAPE  H11B17192   1.756   5.798   6.520  0.8258 -0.6098 -2.1561
  155SAPE     P17193   1.569   5.655   6.408  0.7322  0.2438 -0.0464
  155SAPE   O1317194   1.459   5.602   6.320  0.5797 -0.5253  0.0333
  155SAPE   O1417195   1.692   5.574   6.403  0.0767 -0.8694  0.1609
  155SAPE   O1217196   1.592   5.801   6.390 -0.1013 -0.1081  0.5000
  155SAPE   O1117197   1.520   5.652   6.548 -0.0435  0.3551 -0.0777
  155SAPE    C117198   1.587   5.610   6.667  0.1923 -0.5089 -1.2220
  155SAPE    HA17199   1.697   5.624   6.659  0.2285 -1.0495 -1.7677
  155SAPE    HB17200   1.555   5.683   6.745  0.3584 -1.1473 -0.5460
  155SAPE    C217201   1.566   5.457   6.712  0.8338 -0.4172  0.4357
  155SAPE    HS17202   1.569   5.403   6.615 -0.3174  1.4814 -0.7200
  155SAPE   O2117203   1.431   5.440   6.761 -0.0432 -0.3630  0.2670
  155SAPE   C2117204   1.386   5.316   6.761 -0.4912 -0.3666  0.1030
  155SAPE   O2217205   1.438   5.225   6.699 -0.3885  0.3239 -0.3071
  155SAPE   C2217206   1.259   5.315   6.849 -0.0947 -0.2108 -0.1626
  155SAPE   H2R17207   1.256   5.392   6.928 -0.2555 -0.6764  0.2882
  155SAPE   H2S17208   1.163   5.337   6.796  0.1902 -1.1087 -1.0874
  155SAPE    C317209   1.665   5.413   6.823 -0.1463 -0.7507  0.0794
  155SAPE    HX17210   1.766   5.414   6.777  0.6763  2.3240  1.6432
  155SAPE    HY17211   1.657   5.304   6.843  0.1309 -0.6389  0.8348
  155SAPE   O3117212   1.675   5.498   6.942  0.2984  0.0212  0.3388
  155SAPE   C3117213   1.615   5.451   7.051 -0.3867 -0.4683  0.0890
  155SAPE   O3217214   1.536   5.358   7.053  0.1123 -0.6324 -0.6116
  155SAPE   C3217215   1.645   5.535   7.176 -0.3245 -0.4767 -0.3222
  155SAPE   H2X17216   1.588   5.629   7.165 -0.0426 -0.3744 -0.9399
  155SAPE   H2Y17217   1.754   5.559   7.169 -0.2379 -1.1694 -1.7730
  155SAPE   C2317218   1.247   5.178   6.921 -0.2396 -0.2057 -0.2756
  155SAPE   H3R17219   1.349   5.140   6.945 -0.0230  0.1361 -0.6582
  155SAPE   H3S17220   1.197   5.104   6.855 -1.3971  0.4622 -0.1712
  155SAPE   C2417221   1.175   5.191   7.057 -0.6586 -0.4558 -0.4558
  155SAPE   H4R17222   1.245   5.246   7.124 -2.2719  0.0531  0.8700
  155SAPE   H4S17223   1.154   5.098   7.115  2.6720 -0.8021  0.4299
  155SAPE   C2517224   1.045   5.270   7.057  0.6840 -0.2891  0.5068
  155SAPE   H5R17225   0.993   5.274   6.960  0.9679  2.4170  0.4108
  155SAPE   C2617226   0.992   5.334   7.162 -0.2129  0.2279 -0.0114
  155SAPE   H6R17227   0.904   5.400   7.163  1.1069  2.1961  3.2362
  155SAPE   C2717228   1.062   5.339   7.299 -0.4059  1.4580  0.3843
  155SAPE   H7R17229   1.044   5.439   7.344  1.9983  2.6724 -1.0897
  155SAPE   H7S17230   1.173   5.334   7.290 -0.4121 -0.8342  0.9193
  155SAPE   C2817231   1.033   5.217   7.374 -0.0359 -0.0683 -0.6031
  155SAPE   H8R17232   0.964   5.141   7.333 -1.1660  0.3511  0.4363
  155SAPE   C2917233   1.077   5.194   7.500 -0.4692  0.6459 -0.0032
  155SAPE   H9R17234   1.050   5.108   7.563 -1.2065  1.7883  1.2996
  155SAPE  C21017235   1.155   5.292   7.584 -0.3543  0.0999 -0.3464
  155SAPE  H10R17236   1.248   5.332   7.539 -2.0826  2.6680 -1.8425
  155SAPE  H10S17237   1.194   5.229   7.667 -0.2052 -1.0995 -1.3016
  155SAPE  C21117238   1.075   5.411   7.642  0.4389 -0.3861 -1.2881
  155SAPE  H11R17239   1.026   5.469   7.562 -0.9556  2.1867  1.2272
  155SAPE  C21217240   1.048   5.449   7.772  0.6705  0.0497  0.0836
  155SAPE  H12R17241   0.984   5.537   7.789 -2.1811 -2.0229  0.8064
  155SAPE  C21317242   1.095   5.381   7.898 -0.7105  0.6640  1.1793
  155SAPE  H13R17243   1.169   5.443   7.953  2.0584 -0.9265 -0.5530
  155SAPE  H13S17244   1.141   5.285   7.869 -1.5376  0.5637  0.0999
  155SAPE  C21417245   0.990   5.342   7.999 -0.0676 -0.1735 -0.6883
  155SAPE  H14R17246   0.883   5.352   7.975 -0.7347  1.0359  2.3404
  155SAPE  C21517247   1.011   5.282   8.118 -0.4144  0.8612 -0.8481
  155SAPE  H15R17248   0.924   5.248   8.176  0.7563  0.2448  0.6079
  155SAPE  C21617249   1.147   5.245   8.180 -0.1449 -0.0724 -0.0464
  155SAPE  H16R17250   1.217   5.222   8.097 -0.6761  0.0011 -0.5145
  155SAPE  H16S17251   1.130   5.153   8.240 -1.2427  0.0421 -0.1548
  155SAPE  C21717252   1.195   5.360   8.279  0.1764  0.0663  1.0629
  155SAPE  H17R17253   1.194   5.453   8.219  1.8425  0.7936  2.1023
  155SAPE  H17S17254   1.303   5.342   8.298  0.2977  1.0428  1.3508
  155SAPE  C21817255   1.114   5.356   8.413  0.5042 -0.5140  0.7467
  155SAPE  H18R17256   1.139   5.257   8.457  2.0523 -1.6789 -2.4909
  155SAPE  H18S17257   1.006   5.364   8.392  0.6078  0.1836  0.4325
  155SAPE  C21917258   1.140   5.473   8.507 -0.5845  0.0348  0.3443
  155SAPE  H19R17259   1.248   5.498   8.504 -0.2501 -0.8831  2.6787
  155SAPE  H19S17260   1.108   5.442   8.609 -1.0824  0.2326  0.2526
  155SAPE  C22017261   1.061   5.600   8.472 -0.3751 -0.7944  1.0284
  155SAPE  H20R17262   1.102   5.690   8.524 -2.0366  1.3451 -1.1200
  155SAPE  H20S17263   0.951   5.593   8.475 -0.4904 -0.0113 -0.3545
  155SAPE  H20T17264   1.088   5.613   8.365  0.7865 -2.4988  1.0749
  155SAPE   C3317265   1.618   5.452   7.303 -0.2928 -1.3523  0.1436
  155SAPE   H3X17266   1.696   5.373   7.309  0.4016 -0.7318 -0.4748
  155SAPE   H3Y17267   1.513   5.418   7.305 -0.2952 -1.3270  0.5505
  155SAPE   C3417268   1.636   5.535   7.435  0.2837 -0.0228 -0.1525
  155SAPE   H4X17269   1.563   5.618   7.442  1.4868  0.9655  1.2879
  155SAPE   H4Y17270   1.735   5.586   7.430  0.6220 -0.7761 -1.9709
  155SAPE   C3517271   1.633   5.444   7.555 -0.1466  0.5318 -0.0429
  155SAPE   H5X17272   1.715   5.369   7.557 -1.3514 -0.8621 -1.2315
  155SAPE   H5Y17273   1.556   5.365   7.541 -0.1886  0.6088 -0.2586
  155SAPE   C3617274   1.625   5.520   7.685  0.3071 -0.5615  0.7246
  155SAPE   H6X17275   1.711   5.590   7.680 -0.1081 -0.1386 -1.1904
  155SAPE   H6Y17276   1.637   5.444   7.765  1.4829  0.0679  1.1744
  155SAPE   C3717277   1.510   5.608   7.713  0.1677 -0.5240  0.2770
  155SAPE   H7X17278   1.416   5.549   7.714 -0.4363  0.4067  1.4350
  155SAPE   H7Y17279   1.510   5.678   7.627  0.9745  0.0354  0.7170
  155SAPE   C3817280   1.516   5.698   7.838  0.8297  0.7829  0.5975
  155SAPE   H8X17281   1.437   5.775   7.826 -1.1047 -1.4298 -2.4852
  155SAPE   H8Y17282   1.616   5.744   7.851  0.4241  1.2832  2.1349
  155SAPE   C3917283   1.463   5.619   7.961 -0.2214 -0.1370 -0.7427
  155SAPE   H9X17284   1.525   5.535   8.000  1.9062  0.9867 -1.5826
  155SAPE   H9Y17285   1.357   5.594   7.939 -0.2864  0.4065 -1.0586
  155SAPE  C31017286   1.454   5.725   8.077  0.8685  0.7109  0.2238
  155SAPE  H10X17287   1.407   5.819   8.041  1.8600  1.5249  0.9912
  155SAPE  H10Y17288   1.554   5.743   8.122  1.2819 -2.1736  0.6739
  155SAPE  C31117289   1.366   5.672   8.192  0.5088  0.1223  0.1887
  155SAPE  H11X17290   1.398   5.568   8.215 -0.0567  0.0575  0.6970
  155SAPE  H11Y17291   1.260   5.668   8.161  1.1299  0.6995 -2.1956
  155SAPE  C31217292   1.371   5.764   8.314 -0.5926  0.9680  0.1463
  155SAPE  H12X17293   1.475   5.760   8.353  0.3359  2.5807 -1.9220
  155SAPE  H12Y17294   1.313   5.720   8.398  0.1882 -0.8886 -0.2283
  155SAPE  C31317295   1.343   5.911   8.272  0.6539  0.6024 -0.5046
  155SAPE  H13X17296   1.245   5.918   8.220  1.3876  1.2031 -1.8540
  155SAPE  H13Y17297   1.413   5.956   8.199  1.7879  2.6004  1.6570
  155SAPE  C31417298   1.354   5.991   8.399  0.2978 -0.4494 -0.8209
  155SAPE  H14X17299   1.279   5.948   8.469  0.4479  2.4640  1.3601
  155SAPE  H14Y17300   1.309   6.091   8.380 -0.1075 -0.0713  1.7424
  155SAPE  C31517301   1.497   6.016   8.454  0.0802 -0.0939  0.0183
  155SAPE  H15X17302   1.557   6.068   8.376  1.2954  0.6205  1.3729
  155SAPE  H15Y17303   1.554   5.921   8.459  1.7804  0.9264  1.1785
  155SAPE  C31617304   1.499   6.096   8.584 -0.2958  0.1471 -0.5722
  155SAPE  H16X17305   1.421   6.054   8.651  0.8463 -1.1080  0.0117
  155SAPE  H16Y17306   1.475   6.205   8.578 -1.4566 -0.1553 -1.7527
  155SAPE  C31717307   1.629   6.087   8.667 -0.4286  0.5264  0.2856
  155SAPE  H17X17308   1.717   6.133   8.617 -1.5466  1.7764 -0.6172
  155SAPE  H17Y17309   1.639   5.980   8.695 -0.8262  0.1933 -0.7916
  155SAPE  C31817310   1.619   6.167   8.796 -0.3164 -0.3843  0.0804
  155SAPE  H18X17311   1.548   6.112   8.861 -0.0429  0.5265  1.1815
  155SAPE  H18Y17312   1.591   6.274   8.782 -0.0367 -0.2980  0.1712
  155SAPE  H18Z17313   1.711   6.160   8.858 -1.4222  0.3298  1.8790
  156SAPE     N17314   0.911   2.991   6.227  0.1206 -0.1521 -0.2834
  156SAPE   HN117315   0.980   3.010   6.152  0.1618  3.2806  0.4834
  156SAPE   HN217316   0.965   2.976   6.315  0.5713 -0.8423 -0.6646
  156SAPE   HN317317   0.870   2.898   6.205  0.6535 -0.2421 -0.9420
  156SAPE   C1217318   0.811   3.110   6.216  0.4366  0.4909 -0.5166
  156SAPE  H12A17319   0.748   3.115   6.308  0.9530  0.9774 -0.1856
  156SAPE  H12B17320   0.753   3.078   6.127  0.9885 -2.8721  0.2113
  156SAPE   C1117321   0.894   3.234   6.211 -0.1292 -0.1279 -0.0214
  156SAPE  H11A17322   0.824   3.315   6.182 -0.8794 -0.5631  0.5611
  156SAPE  H11B17323   0.980   3.221   6.141  2.7869 -2.8970  3.6840
  156SAPE     P17324   1.091   3.300   6.372 -0.0115 -0.1465 -0.2898
  156SAPE   O1317325   1.166   3.185   6.428 -0.0638  0.1820 -0.1491
  156SAPE   O1417326   1.145   3.368   6.248  0.0528 -0.3326  0.0786
  156SAPE   O1217327   0.947   3.256   6.344 -0.4674 -1.0664 -0.1564
  156SAPE   O1117328   1.084   3.412   6.488  0.3617 -0.2197  0.4333
  156SAPE    C117329   0.960   3.485   6.506  0.3336 -0.0752 -0.2708
  156SAPE    HA17330   0.990   3.590   6.527 -2.2968  0.5506  0.7728
  156SAPE    HB17331   0.904   3.495   6.410  1.4730  0.4807 -0.8901
  156SAPE    C217332   0.869   3.427   6.617  0.0276 -0.1162  0.4755
  156SAPE    HS17333   0.808   3.510   6.660 -1.4151 -0.6233 -0.5064
  156SAPE   O2117334   0.954   3.376   6.721  0.0564 -0.5780 -0.5053
  156SAPE   C2117335   1.011   3.475   6.796 -0.9256  0.3348 -0.0252
  156SAPE   O2217336   0.982   3.589   6.797 -0.1672 -0.1814 -0.1362
  156SAPE   C2217337   1.129   3.424   6.872  0.3301 -0.0419 -0.5878
  156SAPE   H2R17338   1.175   3.345   6.809  0.5154  1.1717 -2.0154
  156SAPE   H2S17339   1.201   3.505   6.897  1.5098 -1.4840  0.9669
  156SAPE    C317340   0.771   3.312   6.571  0.2292 -0.0115 -0.4368
  156SAPE    HX17341   0.833   3.220   6.580 -2.1759 -1.7352 -0.4489
  156SAPE    HY17342   0.731   3.319   6.468 -1.3366 -3.9597 -0.2768
  156SAPE   O3117343   0.671   3.273   6.666 -0.0486  0.0182 -0.1733
  156SAPE   C3117344   0.571   3.365   6.690  0.1832 -0.5563  0.3256
  156SAPE   O3217345   0.561   3.472   6.630  0.1736  0.4667 -0.6884
  156SAPE   C3217346   0.488   3.322   6.803 -0.0598 -0.1632  0.1135
  156SAPE   H2X17347   0.492   3.212   6.814 -0.8747 -0.0879  1.2242
  156SAPE   H2Y17348   0.383   3.345   6.777  0.3879 -1.7910 -3.9344
  156SAPE   C2317349   1.097   3.367   7.013  0.8890  0.5668  0.5033
  156SAPE   H3R17350   1.181   3.301   7.043  1.9078  1.8731  0.5853
  156SAPE   H3S17351   1.009   3.300   7.025  1.6421 -0.1872  2.1983
  156SAPE   C2417352   1.083   3.475   7.131  0.2747  0.4236 -0.2512
  156SAPE   H4R17353   1.002   3.542   7.095  0.1895 -0.2848 -1.4195
  156SAPE   H4S17354   1.178   3.533   7.142  0.3337  0.3244 -0.2407
  156SAPE   C2517355   1.053   3.403   7.263 -0.4098  0.0872  0.4824
  156SAPE   H5R17356   1.063   3.293   7.263  0.0268  0.1177  1.1748
  156SAPE   C2617357   1.029   3.466   7.378 -0.2231  0.5479 -0.0756
  156SAPE   H6R17358   1.020   3.409   7.472 -0.5376 -0.1757 -0.5425
  156SAPE   C2717359   1.037   3.614   7.404  0.5028 -0.0665 -0.3222
  156SAPE   H7R17360   1.047   3.662   7.304  0.9828 -0.2434 -0.3646
  156SAPE   H7S17361   1.140   3.630   7.444  1.4722  1.0364 -2.9991
  156SAPE   C2817362   0.921   3.668   7.491 -0.1138 -0.2916  0.2308
  156SAPE   H8R17363   0.834   3.687   7.428 -0.5681  0.1894  0.9876
  156SAPE   C2917364   0.911   3.686   7.624 -0.5518 -0.0288 -0.5961
  156SAPE   H9R17365   0.825   3.738   7.668 -1.8192 -2.1573 -0.4558
  156SAPE  C21017366   1.015   3.653   7.731  0.6740  0.6719 -0.0953
  156SAPE  H10R17367   1.078   3.563   7.716  1.1329  0.9140  0.3391
  156SAPE  H10S17368   0.964   3.609   7.819  1.6988 -0.6546 -0.1255
  156SAPE  C21117369   1.107   3.766   7.759 -0.1648  0.5340 -0.4694
  156SAPE  H11R17370   1.182   3.783   7.679  2.7584 -1.5513  1.6177
  156SAPE  C21217371   1.111   3.845   7.869  0.7097 -0.0236  0.6091
  156SAPE  H12R17372   1.186   3.925   7.879 -0.0031  1.5403 -3.9210
  156SAPE  C21317373   1.021   3.823   7.993 -0.3604 -0.9272  0.5068
  156SAPE  H13R17374   0.984   3.719   7.981 -1.2260 -0.6171  0.4695
  156SAPE  H13S17375   0.929   3.883   7.976 -0.0762 -0.8298 -0.7712
  156SAPE  C21417376   1.089   3.858   8.123  0.8566 -0.1798  0.3176
  156SAPE  H14R17377   1.152   3.949   8.123 -2.4940  2.3546  1.8741
  156SAPE  C21517378   1.067   3.788   8.228  0.8607 -0.7261  0.6663
  156SAPE  H15R17379   1.123   3.816   8.318  2.9830 -1.3425 -0.3917
  156SAPE  C21617380   0.984   3.661   8.254  0.1404 -0.5270  0.5453
  156SAPE  H16R17381   1.057   3.591   8.301  1.3194 -0.9842 -1.8133
  156SAPE  H16S17382   0.945   3.617   8.160  1.9254 -0.2237 -0.3796
  156SAPE  C21717383   0.873   3.687   8.347  0.5567  0.0649 -0.1251
  156SAPE  H17R17384   0.900   3.765   8.422  0.7436  0.2852 -0.4179
  156SAPE  H17S17385   0.838   3.595   8.399 -0.0189 -0.0114 -0.6372
  156SAPE  C21817386   0.747   3.750   8.285 -0.1014 -0.2627 -0.4985
  156SAPE  H18R17387   0.717   3.682   8.203  1.4943  0.3087 -1.6182
  156SAPE  H18S17388   0.765   3.849   8.238  0.2245  0.1947  0.5572
  156SAPE  C21917389   0.639   3.774   8.387 -0.1619 -0.4122 -0.4638
  156SAPE  H19R17390   0.671   3.857   8.454  0.0869  0.7488 -1.9607
  156SAPE  H19S17391   0.613   3.683   8.444 -1.7465 -0.4114 -1.1430
  156SAPE  C22017392   0.510   3.799   8.307  0.2544  0.2951 -0.1402
  156SAPE  H20R17393   0.524   3.878   8.230  1.7298 -1.0991 -1.3804
  156SAPE  H20S17394   0.431   3.830   8.378  0.7495  1.2873 -0.0120
  156SAPE  H20T17395   0.479   3.711   8.246  2.3100  1.5242 -3.2487
  156SAPE   C3317396   0.515   3.403   6.929 -0.6879 -0.1658  0.3438
  156SAPE   H3X17397   0.429   3.399   6.999  0.1172  0.7922  1.4358
  156SAPE   H3Y17398   0.529   3.511   6.906 -0.5771 -0.2045  0.2274
  156SAPE   C3417399   0.640   3.353   7.009 -0.3375 -0.2634 -0.1652
  156SAPE   H4X17400   0.724   3.353   6.937  0.1919  1.0186  0.4185
  156SAPE   H4Y17401   0.627   3.250   7.048  3.8354 -0.1450  2.2255
  156SAPE   C3517402   0.675   3.440   7.126  0.1181 -0.2249  0.3088
  156SAPE   H5X17403   0.707   3.539   7.086 -1.8302 -0.7286 -2.9038
  156SAPE   H5Y17404   0.757   3.388   7.180  1.4444  1.4345 -0.0449
  156SAPE   C3617405   0.568   3.446   7.232  1.3762  0.5794  0.0510
  156SAPE   H6X17406   0.523   3.347   7.258  0.4992  0.3414 -2.1658
  156SAPE   H6Y17407   0.484   3.502   7.186  2.3193  1.8320 -0.1707
  156SAPE   C3717408   0.610   3.534   7.348  0.4120 -1.5570 -0.2456
  156SAPE   H7X17409   0.647   3.634   7.319  1.5842 -1.5681  1.0631
  156SAPE   H7Y17410   0.707   3.492   7.382  0.4976  0.8451  2.9433
  156SAPE   C3817411   0.514   3.541   7.464  0.0737 -0.1870  0.0969
  156SAPE   H8X17412   0.458   3.447   7.480 -0.4375 -0.3835 -2.4572
  156SAPE   H8Y17413   0.435   3.617   7.445  1.8779  1.8639  0.3259
  156SAPE   C3917414   0.587   3.575   7.594  0.1743  0.3350  0.0369
  156SAPE   H9X17415   0.604   3.685   7.592  0.7254  0.2587  0.3586
  156SAPE   H9Y17416   0.683   3.521   7.600  0.8642  1.4664 -0.4648
  156SAPE  C31017417   0.501   3.549   7.722 -0.4455 -0.2990  0.4203
  156SAPE  H10X17418   0.507   3.440   7.742 -1.8967 -0.2597  1.2188
  156SAPE  H10Y17419   0.396   3.572   7.693 -0.5049 -0.3061  0.6289
  156SAPE  C31117420   0.550   3.623   7.853  0.7271 -0.0544  0.2493
  156SAPE  H11X17421   0.524   3.731   7.850 -2.1506 -0.6828 -1.1732
  156SAPE  H11Y17422   0.659   3.606   7.851  0.7691  0.0395  1.4599
  156SAPE  C31217423   0.498   3.550   7.976 -0.4343  0.1099 -0.4790
  156SAPE  H12X17424   0.563   3.584   8.060  0.0093  1.6108 -1.3882
  156SAPE  H12Y17425   0.508   3.440   7.968  0.4046 -0.2358  3.2181
  156SAPE  C31317426   0.354   3.590   8.012 -0.7257 -0.3377 -0.2203
  156SAPE  H13X17427   0.282   3.574   7.929 -0.7560 -3.7687  0.3518
  156SAPE  H13Y17428   0.343   3.698   8.034  0.6291 -0.1546 -0.3222
  156SAPE  C31417429   0.314   3.526   8.143 -0.2398 -0.0648 -0.0426
  156SAPE  H14X17430   0.405   3.532   8.207  0.6858 -0.3364 -1.2984
  156SAPE  H14Y17431   0.304   3.416   8.131  1.4072 -0.3118  0.5157
  156SAPE  C31517432   0.183   3.575   8.213  0.6509 -0.1937 -0.3334
  156SAPE  H15X17433   0.103   3.603   8.142  0.6923  0.5192 -0.1174
  156SAPE  H15Y17434   0.201   3.670   8.269 -0.5176 -0.3176  0.2875
  156SAPE  C31617435   0.121   3.467   8.305  0.8838 -0.1384  0.2141
  156SAPE  H16X17436   0.175   3.477   8.402 -1.3748 -0.7864  1.6295
  156SAPE  H16Y17437   0.145   3.365   8.267  1.3519 -0.7757  2.1091
  156SAPE  C31717438  -0.036   3.473   8.322 -0.7282  0.3554  0.2473
  156SAPE  H17X17439  -0.082   3.383   8.368  1.5940 -1.2809 -0.4469
  156SAPE  H17Y17440  -0.091   3.470   8.226 -0.4687  1.7212  0.0355
  156SAPE  C31817441  -0.068   3.600   8.402  0.4403  0.1314  0.3245
  156SAPE  H18X17442  -0.008   3.597   8.495 -1.0342  1.7125  1.3766
  156SAPE  H18Y17443  -0.172   3.614   8.437  0.7973  0.1424  1.4329
  156SAPE  H18Z17444  -0.049   3.696   8.349  1.1443  0.3664  0.9836
  157SAPE     N17445   0.505   6.204   6.212  0.5482  0.1526  0.1569
  157SAPE   HN117446   0.557   6.143   6.146  1.3797  1.5367 -0.5278
  157SAPE   HN217447   0.413   6.231   6.172  0.6707 -0.7516 -0.7660
  157SAPE   HN317448   0.560   6.285   6.248 -1.5497  0.6372  2.5847
  157SAPE   C1217449   0.469   6.119   6.332  0.3375  0.1628  0.7015
  157SAPE  H12A17450   0.386   6.173   6.383 -0.7066  0.2828 -1.0175
  157SAPE  H12B17451   0.556   6.122   6.401 -0.5226 -0.7927  1.8701
  157SAPE   C1117452   0.437   5.974   6.290 -0.6214  0.1575 -0.4168
  157SAPE  H11A17453   0.360   5.983   6.211 -0.4639 -0.6863 -0.6770
  157SAPE  H11B17454   0.388   5.914   6.369  0.0260  0.7179  0.4212
  157SAPE     P17455   0.544   5.786   6.138  0.2448  0.0919 -0.6254
  157SAPE   O1317456   0.438   5.811   6.037 -0.1332 -0.3812  0.5377
  157SAPE   O1417457   0.679   5.749   6.086 -0.2803 -0.3326  0.3518
  157SAPE   O1217458   0.547   5.916   6.223  0.1506 -0.0755  0.2553
  157SAPE   O1117459   0.496   5.677   6.245 -0.4828 -0.5083  0.8580
  157SAPE    C117460   0.588   5.596   6.319  0.0635 -0.0147  0.3049
  157SAPE    HA17461   0.528   5.525   6.380 -0.4280  0.1385  0.0030
  157SAPE    HB17462   0.655   5.536   6.254 -0.8055  0.0595 -0.6811
  157SAPE    C217463   0.668   5.681   6.425 -0.0146 -0.8626 -0.6631
  157SAPE    HS17464   0.587   5.726   6.487  0.2880 -2.2604  0.8145
  157SAPE   O2117465   0.756   5.774   6.364 -0.0778 -0.0831  0.6218
  157SAPE   C2117466   0.774   5.894   6.420 -0.1347 -0.1455  0.5029
  157SAPE   O2217467   0.721   5.936   6.521 -0.0636 -0.3026 -0.0516
  157SAPE   C2217468   0.879   5.968   6.326  0.0404  0.1919  0.1747
  157SAPE   H2R17469   0.979   5.927   6.353 -0.1476 -0.4823 -0.1487
  157SAPE   H2S17470   0.856   5.941   6.221 -0.0510  0.1000  0.2181
  157SAPE    C317471   0.764   5.595   6.517 -0.7427 -0.0805 -0.8171
  157SAPE    HX17472   0.841   5.549   6.451 -2.1775 -2.7565 -0.7641
  157SAPE    HY17473   0.716   5.504   6.559 -0.0957  0.0600  0.2600
  157SAPE   O3117474   0.815   5.663   6.627 -0.3422  0.2215 -0.5079
  157SAPE   C3117475   0.726   5.685   6.726 -0.3037  0.0117  0.2612
  157SAPE   O3217476   0.611   5.651   6.726  0.0078  0.1992 -0.1986
  157SAPE   C3217477   0.786   5.785   6.826  0.0043 -0.0112  0.0252
  157SAPE   H2X17478   0.746   5.885   6.798 -0.0555 -0.0341  0.0294
  157SAPE   H2Y17479   0.896   5.786   6.814  0.2288 -3.5938  0.8362
  157SAPE   C2317480   0.878   6.117   6.339 -0.3353 -0.9024 -0.8181
  157SAPE   H3R17481   0.780   6.151   6.380  0.6356  0.8966  0.1814
  157SAPE   H3S17482   0.906   6.166   6.243  1.3316 -0.5263 -0.1779
  157SAPE   C2417483   0.987   6.169   6.438  0.3763  0.8754  0.3973
  157SAPE   H4R17484   1.084   6.146   6.390 -0.6516  0.5567 -1.6610
  157SAPE   H4S17485   0.979   6.117   6.536  1.0380  2.2660  1.2171
  157SAPE   C2517486   0.976   6.319   6.465 -0.4667  0.1536  0.9327
  157SAPE   H5R17487   1.011   6.379   6.380 -0.0437  0.3858  1.2672
  157SAPE   C2617488   0.951   6.378   6.581 -0.2147  0.1728 -0.2606
  157SAPE   H6R17489   0.941   6.487   6.571 -0.3592  0.1698 -0.1505
  157SAPE   C2717490   0.930   6.310   6.723 -0.0613 -0.1117  0.4569
  157SAPE   H7R17491   0.956   6.373   6.810 -0.4344 -1.9391  1.9483
  157SAPE   H7S17492   0.997   6.222   6.728 -0.2209 -0.2408  0.3153
  157SAPE   C2817493   0.785   6.253   6.734 -0.4602 -0.7366  0.3106
  157SAPE   H8R17494   0.717   6.253   6.647 -1.1444 -0.8089  0.8359
  157SAPE   C2917495   0.731   6.214   6.852  0.5536  0.5528 -0.0796
  157SAPE   H9R17496   0.623   6.193   6.863  0.8111 -0.5416  0.5395
  157SAPE  C21017497   0.798   6.216   6.991  0.3989 -0.4610  1.1221
  157SAPE  H10R17498   0.717   6.185   7.061 -0.8770  0.6494  0.1879
  157SAPE  H10S17499   0.826   6.322   7.010  2.2655 -1.1436  2.4829
  157SAPE  C21117500   0.923   6.128   7.022  0.4195 -0.3137  0.5844
  157SAPE  H11R17501   0.962   6.068   6.938  1.3768  0.8266  0.1817
  157SAPE  C21217502   0.991   6.125   7.140 -0.3663  0.2513  0.5402
  157SAPE  H12R17503   1.082   6.065   7.151  1.1664  2.7382  2.5367
  157SAPE  C21317504   0.948   6.206   7.260  0.2303  0.0008  0.4774
  157SAPE  H13R17505   0.850   6.256   7.260 -0.0603 -0.4463 -2.2303
  157SAPE  H13S17506   1.023   6.287   7.269  0.7361 -0.3384 -0.5275
  157SAPE  C21417507   0.969   6.134   7.389 -0.3651 -0.8596 -0.3220
  157SAPE  H14R17508   0.980   6.026   7.376  1.3825 -1.0642  2.0197
  157SAPE  C21517509   0.988   6.189   7.512  0.1929 -0.2786 -0.2097
  157SAPE  H15R17510   1.020   6.119   7.592 -1.8194  1.1749  1.9914
  157SAPE  C21617511   0.976   6.336   7.554  0.3060  0.2294 -0.0543
  157SAPE  H16R17512   0.914   6.383   7.474  0.8519 -0.1379 -0.6954
  157SAPE  H16S17513   1.074   6.387   7.559  1.1933 -1.2774 -1.2568
  157SAPE  C21717514   0.908   6.377   7.688  0.5829  0.5872  0.7004
  157SAPE  H17R17515   0.904   6.488   7.683 -3.2580  0.6545  1.6188
  157SAPE  H17S17516   0.975   6.346   7.771  1.3225 -0.8194 -0.3964
  157SAPE  C21817517   0.769   6.317   7.700 -0.2876 -0.3987 -0.4524
  157SAPE  H18R17518   0.768   6.208   7.679  4.2961 -0.7456  0.1059
  157SAPE  H18S17519   0.702   6.385   7.643 -0.0845  0.5430  0.3959
  157SAPE  C21917520   0.715   6.333   7.848 -0.4549 -0.6292  0.1843
  157SAPE  H19R17521   0.803   6.306   7.910 -1.0700  0.7241  1.7272
  157SAPE  H19S17522   0.636   6.259   7.873 -0.8677 -0.5129 -0.7110
  157SAPE  C22017523   0.677   6.475   7.872  0.0943 -0.7551  0.9704
  157SAPE  H20R17524   0.746   6.558   7.848 -1.7063 -0.0366 -2.2830
  157SAPE  H20S17525   0.666   6.490   7.982  1.4879  0.0260  1.0311
  157SAPE  H20T17526   0.580   6.494   7.822  0.8534 -0.4028 -0.4092
  157SAPE   C3317527   0.731   5.776   6.978 -0.5588 -0.2333  0.6666
  157SAPE   H3X17528   0.621   5.755   6.976 -1.0111  1.8212 -2.1477
  157SAPE   H3Y17529   0.749   5.875   7.025 -0.8041 -0.0094  0.3024
  157SAPE   C3417530   0.803   5.673   7.061 -0.0261 -0.6052  1.0643
  157SAPE   H4X17531   0.911   5.692   7.076  0.0043 -0.6575  0.9168
  157SAPE   H4Y17532   0.798   5.579   7.001  0.7220  0.7928 -1.3304
  157SAPE   C3517533   0.733   5.640   7.201  0.9368  0.1334 -0.1070
  157SAPE   H5X17534   0.747   5.534   7.230  0.4816  0.1978  0.3599
  157SAPE   H5Y17535   0.626   5.647   7.172  0.5472 -2.1672  0.5640
  157SAPE   C3617536   0.764   5.746   7.308 -0.2328 -0.0389  0.2016
  157SAPE   H6X17537   0.766   5.848   7.263 -3.5688  0.4455  0.8663
  157SAPE   H6Y17538   0.868   5.725   7.338  0.1893 -1.3066 -1.9439
  157SAPE   C3717539   0.669   5.722   7.425 -0.9164  0.0266 -0.5098
  157SAPE   H7X17540   0.570   5.763   7.393 -0.7112  1.7568  0.9116
  157SAPE   H7Y17541   0.708   5.792   7.502  1.6975 -2.1324  0.2726
  157SAPE   C3817542   0.657   5.565   7.470  0.2386 -0.4241 -0.3935
  157SAPE   H8X17543   0.764   5.541   7.488  0.2759  0.3748  0.5907
  157SAPE   H8Y17544   0.625   5.499   7.387 -1.6243 -0.7116  0.4884
  157SAPE   C3917545   0.575   5.541   7.599 -0.3875 -0.2148  0.2229
  157SAPE   H9X17546   0.551   5.432   7.606  0.3794 -0.4350 -0.3724
  157SAPE   H9Y17547   0.477   5.593   7.594 -0.4246 -0.3743 -1.0322
  157SAPE  C31017548   0.649   5.589   7.724 -0.0129 -0.5401 -0.2000
  157SAPE  H10X17549   0.656   5.699   7.719 -1.1820 -0.5031 -1.2580
  157SAPE  H10Y17550   0.750   5.543   7.715  0.7942  0.5033  2.4061
  157SAPE  C31117551   0.575   5.544   7.853 -0.2931 -0.0468  0.0035
  157SAPE  H11X17552   0.549   5.437   7.838 -0.0683 -0.0900 -0.0868
  157SAPE  H11Y17553   0.478   5.598   7.867 -0.2800 -0.2623  1.0123
  157SAPE  C31217554   0.668   5.576   7.976 -0.1176 -0.1901  0.1539
  157SAPE  H12X17555   0.693   5.684   7.986 -1.5262  0.2386 -0.6297
  157SAPE  H12Y17556   0.768   5.530   7.965 -0.1256 -0.2311  0.2545
  157SAPE  C31317557   0.615   5.519   8.105  0.2616 -1.3637 -0.1966
  157SAPE  H13X17558   0.704   5.497   8.167  0.4521 -0.6227 -0.1973
  157SAPE  H13Y17559   0.579   5.414   8.095 -0.6647 -1.0991  0.2370
  157SAPE  C31417560   0.510   5.614   8.171  0.7151 -0.0836  0.2933
  157SAPE  H14X17561   0.439   5.545   8.222  0.7216 -1.1799 -1.1098
  157SAPE  H14Y17562   0.457   5.659   8.084  0.6916 -1.0300 -0.1972
  157SAPE  C31517563   0.556   5.709   8.276 -0.1990  0.0963 -0.5685
  157SAPE  H15X17564   0.486   5.791   8.306 -0.3088 -0.5529  1.0583
  157SAPE  H15Y17565   0.644   5.760   8.232  0.0179  0.0274 -0.2209
  157SAPE  C31617566   0.586   5.636   8.410 -0.7820 -0.1651  0.3083
  157SAPE  H16X17567   0.639   5.540   8.392 -0.7718 -0.0021 -0.5803
  157SAPE  H16Y17568   0.495   5.603   8.464 -0.5175 -4.2662 -1.3690
  157SAPE  C31717569   0.668   5.722   8.510 -0.2100 -0.3703  0.1267
  157SAPE  H17X17570   0.610   5.815   8.524 -2.5239 -1.5567 -0.9860
  157SAPE  H17Y17571   0.760   5.764   8.463 -1.8570  0.0600 -2.9826
  157SAPE  C31817572   0.685   5.647   8.644  0.0649  0.2533 -0.6850
  157SAPE  H18X17573   0.589   5.606   8.683  0.2376  0.0089 -0.5130
  157SAPE  H18Y17574   0.728   5.719   8.717 -0.5348 -0.6855  0.6432
  157SAPE  H18Z17575   0.754   5.562   8.627 -1.1023 -0.5815 -1.4048
  158SAPE     N17576   5.229   3.284   5.881  0.0575  0.2412 -0.6256
  158SAPE   HN117577   5.141   3.324   5.918  0.7729 -0.8788  2.6032
  158SAPE   HN217578   5.286   3.365   5.849  3.3576 -1.5240  0.3147
  158SAPE   HN317579   5.212   3.217   5.803 -0.6286  0.4191 -0.6311
  158SAPE   C1217580   5.298   3.230   6.000  0.2641 -0.2691 -0.4144
  158SAPE  H12A17581   5.262   3.125   6.002  1.0262 -0.5601 -1.4942
  158SAPE  H12B17582   5.262   3.291   6.085  3.1592  1.5164 -0.3382
  158SAPE   C1117583   5.446   3.248   5.968  0.3132 -0.0950  0.0183
  158SAPE  H11A17584   5.472   3.179   5.884  1.2822 -0.8147  0.8858
  158SAPE  H11B17585   5.508   3.206   6.050 -0.0932  0.5363  0.6523
  158SAPE     P17586   5.512   3.476   6.061  0.0347  0.1293  0.2340
  158SAPE   O1317587   5.650   3.469   6.081 -0.2175 -0.4092  0.3424
  158SAPE   O1417588   5.466   3.618   6.046  0.3269  0.0145 -0.0224
  158SAPE   O1217589   5.481   3.384   5.936 -0.2215 -0.0935  0.2882
  158SAPE   O1117590   5.436   3.419   6.178 -0.2194  0.1432  0.3376
  158SAPE    C117591   5.339   3.491   6.246  0.3315  0.4745 -0.2722
  158SAPE    HA17592   5.264   3.533   6.175 -0.1227  0.2389  0.0600
  158SAPE    HB17593   5.274   3.419   6.300 -0.5609  2.1193  0.9461
  158SAPE    C217594   5.403   3.599   6.345 -0.4465  1.3269 -0.7292
  158SAPE    HS17595   5.450   3.667   6.271 -0.7276  1.0028 -1.2136
  158SAPE   O2117596   5.506   3.531   6.429  0.0308 -0.1851 -0.0438
  158SAPE   C2117597   5.582   3.615   6.496 -0.1040 -0.1035  0.2606
  158SAPE   O2217598   5.584   3.736   6.482 -0.5295 -0.1118 -0.0753
  158SAPE   C2217599   5.666   3.551   6.606 -0.3103  0.2611  0.5879
  158SAPE   H2R17600   5.676   3.443   6.583 -1.4484  0.4970 -1.1912
  158SAPE   H2S17601   5.767   3.597   6.600  0.1632 -0.9273 -1.8410
  158SAPE    C317602   5.298   3.670   6.428 -0.6668  0.5123 -0.0950
  158SAPE    HX17603   5.228   3.717   6.355 -1.9388 -0.5972  0.3872
  158SAPE    HY17604   5.341   3.761   6.476  2.9581 -0.2901 -1.4491
  158SAPE   O3117605   5.239   3.584   6.524 -0.1023 -0.1541  0.5180
  158SAPE   C3117606   5.108   3.595   6.548 -0.3005  0.4011  0.0821
  158SAPE   O3217607   5.029   3.676   6.498  0.0293 -0.0947  0.1257
  158SAPE   C3217608   5.065   3.483   6.642 -0.3220 -0.9540 -0.0767
  158SAPE   H2X17609   5.153   3.432   6.685 -1.0069 -0.0042  2.6951
  158SAPE   H2Y17610   4.987   3.422   6.592 -0.0153 -2.9369  1.7126
  158SAPE   C2317611   5.600   3.584   6.741  0.2468 -0.5400  0.5515
  158SAPE   H3R17612   5.554   3.685   6.746 -0.7353 -0.9214 -0.3234
  158SAPE   H3S17613   5.671   3.577   6.826 -0.0432  2.9514  1.2581
  158SAPE   C2417614   5.474   3.505   6.788 -1.1503 -0.3434  0.5093
  158SAPE   H4R17615   5.409   3.503   6.698  2.0421  3.6376 -2.2291
  158SAPE   H4S17616   5.428   3.576   6.859 -0.3566  0.7232 -0.0260
  158SAPE   C2517617   5.520   3.375   6.849 -0.1983  0.3746  0.0128
  158SAPE   H5R17618   5.578   3.300   6.794  0.3471 -0.1803  1.3001
  158SAPE   C2617619   5.524   3.347   6.978 -0.3749  0.4965  0.9450
  158SAPE   H6R17620   5.554   3.244   7.005  0.5879  0.6765  0.6013
  158SAPE   C2717621   5.482   3.440   7.086  0.0760  0.4405 -0.4318
  158SAPE   H7R17622   5.403   3.385   7.141 -2.2362  1.0157 -2.9383
  158SAPE   H7S17623   5.425   3.532   7.060 -0.8447 -0.4470 -1.6715
  158SAPE   C2817624   5.594   3.470   7.176 -0.3566  0.2876  0.0332
  158SAPE   H8R17625   5.693   3.463   7.128 -0.0455  0.3653  0.6566
  158SAPE   C2917626   5.590   3.508   7.305 -0.5869  0.5979  0.9885
  158SAPE   H9R17627   5.687   3.537   7.347  0.1859 -3.9184  2.8988
  158SAPE  C21017628   5.470   3.544   7.390  0.0591  0.2932 -0.1992
  158SAPE  H10R17629   5.384   3.574   7.326 -1.8679 -2.5030  0.8507
  158SAPE  H10S17630   5.499   3.633   7.450  1.2987 -0.1524 -0.1202
  158SAPE  C21117631   5.414   3.442   7.486 -0.5686 -0.3738  0.2655
  158SAPE  H11R17632   5.391   3.342   7.445 -2.2717  0.2578 -0.4187
  158SAPE  C21217633   5.379   3.463   7.611 -0.3435 -0.8825 -0.1524
  158SAPE  H12R17634   5.350   3.377   7.674 -1.6263 -0.7641 -0.5469
  158SAPE  C21317635   5.407   3.587   7.692 -0.0901 -0.7351  0.0164
  158SAPE  H13R17636   5.309   3.612   7.737  0.2821  1.7621 -0.4330
  158SAPE  H13S17637   5.431   3.670   7.622  2.2352 -4.3947 -3.9923
  158SAPE  C21417638   5.524   3.572   7.789  0.3290  0.2148  0.1454
  158SAPE  H14R17639   5.626   3.573   7.747 -0.1582 -1.1585 -1.1293
  158SAPE  C21517640   5.514   3.559   7.922  1.0456 -0.1041  0.3387
  158SAPE  H15R17641   5.605   3.557   7.984  0.5937  2.3682  1.2080
  158SAPE  C21617642   5.390   3.564   8.011  0.3671 -0.4488  0.0423
  158SAPE  H16R17643   5.301   3.600   7.954  1.0399  0.9331 -0.1795
  158SAPE  H16S17644   5.408   3.632   8.096  0.1294 -1.1167  0.6389
  158SAPE  C21717645   5.354   3.434   8.071 -0.4120  0.0807  0.1652
  158SAPE  H17R17646   5.446   3.400   8.124  0.1501 -0.7304 -1.2908
  158SAPE  H17S17647   5.339   3.357   7.992  0.8356  1.6687 -1.7118
  158SAPE  C21817648   5.234   3.452   8.167  0.0378  0.3328 -0.1796
  158SAPE  H18R17649   5.189   3.352   8.184 -2.2845  1.6513  2.1055
  158SAPE  H18S17650   5.148   3.502   8.117 -0.9928  0.9042  2.0459
  158SAPE  C21917651   5.257   3.549   8.296 -0.0139  0.4116  0.2196
  158SAPE  H19R17652   5.279   3.653   8.264 -0.6040 -0.0460 -1.8034
  158SAPE  H19S17653   5.348   3.500   8.338 -1.1306 -4.0753 -1.9545
  158SAPE  C22017654   5.145   3.558   8.395  0.2789  0.2420  0.2112
  158SAPE  H20R17655   5.107   3.454   8.401  1.4543 -0.2682 -0.7527
  158SAPE  H20S17656   5.063   3.624   8.361  0.8952  1.3767  0.8677
  158SAPE  H20T17657   5.178   3.608   8.489 -0.9262  0.3064  0.6155
  158SAPE   C3317658   4.995   3.533   6.770 -0.4891 -0.0994 -0.0275
  158SAPE   H3X17659   4.896   3.574   6.740 -0.9494 -1.8386 -1.0450
  158SAPE   H3Y17660   5.052   3.613   6.821 -2.4472  0.1586  1.9268
  158SAPE   C3417661   4.972   3.425   6.880 -0.2558  0.1108  0.6000
  158SAPE   H4X17662   5.067   3.367   6.889  0.3945  0.4394 -2.8043
  158SAPE   H4Y17663   4.909   3.345   6.837 -1.0568  0.5461  0.9567
  158SAPE   C3517664   4.926   3.471   7.020  0.5151  0.2870  0.3785
  158SAPE   H5X17665   4.878   3.386   7.072 -1.8905  1.7977  0.7558
  158SAPE   H5Y17666   4.862   3.560   7.000  0.1752 -0.2389 -0.9963
  158SAPE   C3617667   5.049   3.491   7.106  0.4424 -0.2713  0.2057
  158SAPE   H6X17668   5.118   3.571   7.070  0.6489 -0.8442 -0.7083
  158SAPE   H6Y17669   5.110   3.399   7.120 -0.8820 -1.1273  0.5168
  158SAPE   C3717670   5.010   3.532   7.249  0.9634 -0.4875  0.1465
  158SAPE   H7X17671   5.092   3.599   7.285  0.6819  1.1244 -1.9701
  158SAPE   H7Y17672   4.930   3.610   7.253  1.8114  0.4346  4.4958
  158SAPE   C3817673   4.988   3.427   7.351  0.5950  0.7827  0.2962
  158SAPE   H8X17674   5.077   3.369   7.382  1.9489  2.4549 -0.2899
  158SAPE   H8Y17675   4.918   3.352   7.307  2.3127 -0.8216  0.1697
  158SAPE   C3917676   4.914   3.480   7.473  0.3191 -0.1651  0.2115
  158SAPE   H9X17677   4.862   3.399   7.530  0.6310  0.6989  1.7739
  158SAPE   H9Y17678   4.841   3.559   7.445  1.1721 -0.3797 -3.0038
  158SAPE  C31017679   5.000   3.552   7.580 -0.5687 -0.0594 -0.8528
  158SAPE  H10X17680   5.023   3.655   7.545 -0.5369  0.6860  1.2666
  158SAPE  H10Y17681   5.095   3.496   7.594  1.3439  2.9105 -1.1603
  158SAPE  C31117682   4.914   3.568   7.708 -0.7950 -0.1088 -0.0290
  158SAPE  H11X17683   4.914   3.480   7.776 -0.4022  1.4729  2.1097
  158SAPE  H11Y17684   4.809   3.587   7.675 -1.4476 -0.3854  1.7303
  158SAPE  C31217685   4.950   3.691   7.794  0.2901 -0.4692  0.5997
  158SAPE  H12X17686   4.949   3.781   7.729  0.1377 -0.0187  1.2182
  158SAPE  H12Y17687   5.050   3.673   7.838  1.5352 -1.8019 -2.4490
  158SAPE  C31317688   4.838   3.732   7.891  0.8340  0.2833 -0.1229
  158SAPE  H13X17689   4.743   3.749   7.836  0.7919  0.3156 -0.0410
  158SAPE  H13Y17690   4.868   3.826   7.943  1.7675 -0.7557  1.2904
  158SAPE  C31417691   4.830   3.626   8.005  0.4790  0.4066  0.7077
  158SAPE  H14X17692   4.939   3.609   8.021  0.5273  0.9034  0.9191
  158SAPE  H14Y17693   4.764   3.547   7.962  0.2948  0.9767 -0.0788
  158SAPE  C31517694   4.765   3.685   8.130 -0.3740  0.0803 -0.8660
  158SAPE  H15X17695   4.667   3.730   8.102 -0.3041  1.9573  1.5222
  158SAPE  H15Y17696   4.831   3.770   8.158 -0.7806  0.2211 -0.3106
  158SAPE  C31617697   4.761   3.590   8.246  0.8422 -0.1105  0.1888
  158SAPE  H16X17698   4.762   3.649   8.340  1.9961  1.5526 -0.7926
  158SAPE  H16Y17699   4.866   3.554   8.246  0.1090 -2.3916  1.1162
  158SAPE  C31717700   4.645   3.490   8.248  0.2916 -0.3415  0.6787
  158SAPE  H17X17701   4.642   3.425   8.158  0.6794  0.6211 -0.0439
  158SAPE  H17Y17702   4.547   3.542   8.254 -0.1496 -1.1202  0.4003
  158SAPE  C31817703   4.646   3.393   8.376 -0.6154 -0.4503  0.0716
  158SAPE  H18X17704   4.566   3.317   8.366 -0.1729 -0.8537 -0.4788
  158SAPE  H18Y17705   4.651   3.455   8.468  2.7923 -1.7375  0.9004
  158SAPE  H18Z17706   4.737   3.329   8.373 -0.3308 -0.0197 -0.9623
  159SAPE     N17707   6.338   4.732   6.124 -0.3668  0.0207 -0.4604
  159SAPE   HN117708   6.407   4.685   6.062 -0.0000  0.0329 -0.0659
  159SAPE   HN217709   6.378   4.739   6.220  1.9744  0.8863 -1.4180
  159SAPE   HN317710   6.252   4.676   6.139 -1.8433  2.6991  2.2174
  159SAPE   C1217711   6.315   4.874   6.065  0.6983  0.3295 -0.4114
  159SAPE  H12A17712   6.233   4.854   5.993 -2.3538  1.3585  2.4763
  159SAPE  H12B17713   6.414   4.915   6.038  1.2157 -1.8812 -2.1163
  159SAPE   C1117714   6.250   4.953   6.187  0.0108 -0.1313  0.5738
  159SAPE  H11A17715   6.328   4.992   6.256 -0.1829  0.2970  0.5545
  159SAPE  H11B17716   6.186   4.886   6.249 -0.4174  1.1442  1.5566
  159SAPE     P17717   6.033   5.100   6.176 -0.4008 -0.1489 -0.3984
  159SAPE   O1317718   5.994   5.230   6.113 -0.1787 -0.4881 -0.2325
  159SAPE   O1417719   5.950   4.981   6.139  0.1321 -0.6462 -0.0817
  159SAPE   O1217720   6.190   5.073   6.139 -0.3746 -0.2878  0.3726
  159SAPE   O1117721   6.041   5.115   6.332 -0.0444 -0.1490 -0.3849
  159SAPE    C117722   5.919   5.144   6.404  0.1738  0.5518 -0.6268
  159SAPE    HA17723   5.872   5.237   6.364  2.2862  0.8566 -2.6234
  159SAPE    HB17724   5.844   5.063   6.392  0.2973  0.5982 -1.8466
  159SAPE    C217725   5.943   5.166   6.558  0.8117  0.0575 -0.0557
  159SAPE    HS17726   6.003   5.260   6.562  0.8843 -0.0116  0.9132
  159SAPE   O2117727   6.015   5.054   6.610  0.1661  0.1447  0.1106
  159SAPE   C2117728   6.112   5.085   6.695 -1.2888 -0.2932  0.2263
  159SAPE   O2217729   6.130   5.196   6.744 -0.2850  0.6703 -0.2880
  159SAPE   C2217730   6.201   4.957   6.726  0.5092 -0.1454 -0.4376
  159SAPE   H2R17731   6.135   4.870   6.748  0.5873  0.3044  1.7312
  159SAPE   H2S17732   6.242   4.928   6.627 -0.8699  1.2109 -1.4740
  159SAPE    C317733   5.805   5.187   6.626  0.5337 -0.0356  0.0162
  159SAPE    HX17734   5.763   5.084   6.619  0.2226 -0.1811  2.9066
  159SAPE    HY17735   5.743   5.264   6.576 -0.0001 -1.2358 -1.2317
  159SAPE   O3117736   5.812   5.211   6.775 -1.0073 -0.0713  0.2612
  159SAPE   C3117737   5.850   5.334   6.801  0.1859  0.2469 -0.5059
  159SAPE   O3217738   5.846   5.429   6.721  0.8602  0.2833 -0.2696
  159SAPE   C3217739   5.897   5.341   6.943 -0.9891  0.1591 -0.5581
  159SAPE   H2X17740   5.999   5.297   6.937 -1.9054 -2.1023 -0.6108
  159SAPE   H2Y17741   5.836   5.264   6.995 -1.0936  0.5896 -0.0310
  159SAPE   C2317742   6.314   4.969   6.832 -0.3065  0.3815  0.1860
  159SAPE   H3R17743   6.271   5.015   6.924 -0.8751 -0.2692  0.2611
  159SAPE   H3S17744   6.381   5.047   6.790  0.8226  0.8310  2.6294
  159SAPE   C2417745   6.384   4.839   6.869  0.7438  0.1879  0.2324
  159SAPE   H4R17746   6.473   4.862   6.933 -1.4251  1.2775  3.0595
  159SAPE   H4S17747   6.433   4.795   6.780 -0.7217  0.6961 -0.8679
  159SAPE   C2517748   6.292   4.736   6.931  0.1784  0.4136  0.3720
  159SAPE   H5R17749   6.227   4.688   6.856  1.5535 -0.9066 -0.0188
  159SAPE   C2617750   6.274   4.704   7.060 -0.1346  0.5583 -0.7372
  159SAPE   H6R17751   6.196   4.635   7.095  0.8092  0.8347  2.2421
  159SAPE   C2717752   6.356   4.761   7.171 -0.4194  1.1095 -0.7580
  159SAPE   H7R17753   6.290   4.814   7.243 -1.9325 -0.0431 -1.2493
  159SAPE   H7S17754   6.438   4.831   7.143 -0.0369  0.8347 -0.3488
  159SAPE   C2817755   6.420   4.646   7.247  0.1164  0.8563 -0.4027
  159SAPE   H8R17756   6.442   4.563   7.178 -0.8560  1.7825 -1.8881
  159SAPE   C2917757   6.449   4.644   7.378 -0.1679 -0.0662 -0.6544
  159SAPE   H9R17758   6.479   4.550   7.426 -0.1256 -0.1817 -0.9037
  159SAPE  C21017759   6.431   4.760   7.470  1.0293 -0.3872 -0.1074
  159SAPE  H10R17760   6.353   4.750   7.548  0.9593  0.9465  0.0067
  159SAPE  H10S17761   6.399   4.852   7.417 -1.3797 -0.3919  1.2272
  159SAPE  C21117762   6.565   4.799   7.532  0.0900  0.5268 -0.0015
  159SAPE  H11R17763   6.641   4.800   7.452 -2.0298  1.7002 -2.1381
  159SAPE  C21217764   6.593   4.852   7.652  0.2850  0.2331  0.5131
  159SAPE  H12R17765   6.692   4.896   7.668  0.0562  0.3584  1.7073
  159SAPE  C21317766   6.498   4.880   7.769  0.2024 -0.0819 -0.0781
  159SAPE  H13R17767   6.388   4.872   7.755 -0.8622 -0.9422  5.9072
  159SAPE  H13S17768   6.501   4.989   7.792 -1.0577  0.3301 -1.6147
  159SAPE  C21417769   6.514   4.790   7.883 -0.5052 -0.1036  0.5089
  159SAPE  H14R17770   6.558   4.691   7.869  1.0762  0.3660  1.8635
  159SAPE  C21517771   6.480   4.824   8.010 -0.2046 -0.4778  0.2398
  159SAPE  H15R17772   6.503   4.749   8.087  0.2233 -0.1461  0.4391
  159SAPE  C21617773   6.437   4.961   8.060 -0.2097  0.6028 -1.1074
  159SAPE  H16R17774   6.402   5.018   7.971  1.5237  0.5369 -1.8697
  159SAPE  H16S17775   6.529   5.008   8.101  0.2717 -2.5023  1.9069
  159SAPE  C21717776   6.319   4.947   8.157  0.3420  0.7081  0.3032
  159SAPE  H17R17777   6.303   5.050   8.194  1.5882  1.1621 -0.3750
  159SAPE  H17S17778   6.358   4.885   8.241  2.3298  0.4079 -0.7692
  159SAPE  C21817779   6.184   4.887   8.097 -0.2638 -0.2136 -0.5133
  159SAPE  H18R17780   6.215   4.797   8.041  0.4965  0.1479 -0.6941
  159SAPE  H18S17781   6.148   4.960   8.022  5.4420  1.4470 -2.1747
  159SAPE  C21917782   6.079   4.855   8.200  0.4443 -0.1529  0.3026
  159SAPE  H19R17783   6.114   4.776   8.270 -0.1411 -0.7499 -0.0693
  159SAPE  H19S17784   5.986   4.813   8.156  0.7958  0.1661 -0.7745
  159SAPE  C22017785   6.032   4.969   8.287  0.1196 -0.2640  0.1437
  159SAPE  H20R17786   6.115   4.997   8.354  0.7949 -0.6304 -0.5296
  159SAPE  H20S17787   5.934   4.949   8.335 -0.5325  4.3927  1.2246
  159SAPE  H20T17788   6.017   5.064   8.230  1.5561 -0.0014  0.1864
  159SAPE   C3317789   5.884   5.479   7.007  0.6458 -0.9073  0.1976
  159SAPE   H3X17790   5.782   5.521   6.989  1.7033  2.4112  1.4068
  159SAPE   H3Y17791   5.946   5.554   6.954 -2.6616 -0.2354 -3.2004
  159SAPE   C3417792   5.931   5.486   7.147  0.3808  0.0042 -0.8407
  159SAPE   H4X17793   5.926   5.596   7.162 -0.3777 -0.0700 -0.5009
  159SAPE   H4Y17794   6.033   5.443   7.158  1.9047  3.4324  0.0069
  159SAPE   C3517795   5.836   5.412   7.244 -0.1450 -0.3114 -0.2071
  159SAPE   H5X17796   5.844   5.302   7.227  0.0317 -0.5958  1.5257
  159SAPE   H5Y17797   5.732   5.447   7.258 -0.9564 -2.5554 -0.1359
  159SAPE   C3617798   5.888   5.429   7.395 -0.5552 -0.2462  0.0708
  159SAPE   H6X17799   5.996   5.403   7.401  0.2258  2.6015 -0.1508
  159SAPE   H6Y17800   5.835   5.363   7.467  0.2842 -2.0878 -0.9236
  159SAPE   C3717801   5.876   5.577   7.444 -0.4165  0.3044  0.1319
  159SAPE   H7X17802   5.768   5.596   7.460  0.0319  2.2366  1.2100
  159SAPE   H7Y17803   5.923   5.643   7.368  1.8201  0.2958  1.3994
  159SAPE   C3817804   5.959   5.608   7.567 -0.6148 -0.2226 -0.4378
  159SAPE   H8X17805   5.970   5.719   7.572 -0.0722  0.0677 -4.6023
  159SAPE   H8Y17806   6.059   5.563   7.553 -1.7420 -2.1656 -3.0898
  159SAPE   C3917807   5.894   5.553   7.696  0.8917  0.3804 -0.5326
  159SAPE   H9X17808   5.884   5.442   7.687 -1.9873 -0.0176  4.3688
  159SAPE   H9Y17809   5.788   5.583   7.710  0.3543 -1.8858  0.7129
  159SAPE  C31017810   5.966   5.590   7.822  0.9200 -0.3659 -1.1089
  159SAPE  H10X17811   5.974   5.699   7.843  1.3134 -0.7450  0.9404
  159SAPE  H10Y17812   6.070   5.551   7.823  1.2545 -0.1459  4.8175
  159SAPE  C31117813   5.906   5.533   7.949  0.8896 -0.8339 -0.1497
  159SAPE  H11X17814   5.804   5.576   7.962  0.6864 -0.7187 -1.9273
  159SAPE  H11Y17815   5.975   5.581   8.022 -0.0009  1.5847 -0.7842
  159SAPE  C31217816   5.914   5.379   7.953 -0.9841 -0.2999  0.4774
  159SAPE  H12X17817   6.018   5.344   7.936 -1.1900 -0.7506  0.1275
  159SAPE  H12Y17818   5.859   5.326   7.872 -1.4814 -0.3978  0.8733
  159SAPE  C31317819   5.877   5.324   8.090 -0.4656  0.1078  0.2282
  159SAPE  H13X17820   5.904   5.216   8.098  2.0501  0.5383 -1.1459
  159SAPE  H13Y17821   5.774   5.356   8.115 -0.3013  0.2704  0.6961
  159SAPE  C31417822   5.981   5.375   8.189 -0.3130 -0.5994  0.2567
  159SAPE  H14X17823   5.979   5.486   8.188  1.2760 -0.5224 -1.6167
  159SAPE  H14Y17824   6.085   5.343   8.166 -0.1062 -0.3699  0.8711
  159SAPE  C31517825   5.945   5.336   8.330 -1.0933  0.8512  0.2193
  159SAPE  H15X17826   5.909   5.231   8.325 -1.8483  1.1477 -2.3102
  159SAPE  H15Y17827   5.854   5.391   8.363 -2.8739 -0.9424 -1.3979
  159SAPE  C31617828   6.060   5.349   8.429 -0.0347 -0.2406 -0.7271
  159SAPE  H16X17829   6.081   5.456   8.448 -1.2147  0.1037 -1.2639
  159SAPE  H16Y17830   6.149   5.302   8.381  0.3422 -0.7619  0.4495
  159SAPE  C31717831   6.021   5.294   8.567  0.2784 -0.4241 -0.5740
  159SAPE  H17X17832   6.117   5.294   8.622 -0.2783  0.4075  0.4328
  159SAPE  H17Y17833   5.985   5.190   8.551 -1.5099 -0.6202  3.4526
  159SAPE  C31817834   5.921   5.373   8.649  0.7142 -0.1498  0.0801
  159SAPE  H18X17835   5.902   5.331   8.750 -2.2602  2.0578  0.5650
  159SAPE  H18Y17836   5.824   5.386   8.595  0.0672  4.1150  1.9411
  159SAPE  H18Z17837   5.954   5.478   8.655 -0.1363  0.0894  0.8086
  160SAPE     N17838   0.214   5.653   6.237 -0.2348 -0.1485 -0.4722
  160SAPE   HN117839   0.134   5.596   6.201  1.3215 -1.1241 -2.6444
  160SAPE   HN217840   0.186   5.753   6.240  0.9167  0.1778 -0.1453
  160SAPE   HN317841   0.297   5.631   6.178 -1.4125 -3.1156 -1.2410
  160SAPE   C1217842   0.241   5.614   6.382 -0.4310 -0.2972 -0.1997
  160SAPE  H12A17843   0.288   5.697   6.439 -1.3348 -0.2695  0.5207
  160SAPE  H12B17844   0.311   5.528   6.376  0.9159  0.8594 -2.2192
  160SAPE   C1117845   0.119   5.567   6.448  0.0222 -0.0657  0.5202
  160SAPE  H11A17846   0.036   5.641   6.440  2.0660  2.1227 -2.4174
  160SAPE  H11B17847   0.135   5.555   6.557  1.8966  0.2193  0.3123
  160SAPE     P17848  -0.046   5.420   6.302 -0.4607  0.4476  0.2232
  160SAPE   O1317849  -0.026   5.525   6.204 -0.7451 -0.0668 -0.3185
  160SAPE   O1417850  -0.039   5.280   6.248  0.0169  0.3625 -0.5088
  160SAPE   O1217851   0.078   5.435   6.400  0.3904 -0.1192  0.2188
  160SAPE   O1117852  -0.182   5.451   6.381  0.3595  0.2332 -0.3195
  160SAPE    C117853  -0.270   5.342   6.429 -0.1516 -0.2386 -0.2279
  160SAPE    HA17854  -0.367   5.336   6.375  0.1571  0.2362 -0.8431
  160SAPE    HB17855  -0.216   5.246   6.437  1.4411  0.7063  1.0070
  160SAPE    C217856  -0.307   5.394   6.575 -0.3406 -0.0262  0.0057
  160SAPE    HS17857  -0.350   5.496   6.570  0.7682  0.6484  2.6444
  160SAPE   O2117858  -0.180   5.385   6.650  0.6194 -0.2270  0.0786
  160SAPE   C2117859  -0.167   5.473   6.747 -0.5494 -0.1604 -0.4603
  160SAPE   O2217860  -0.235   5.574   6.767  0.0023  0.1972 -0.7542
  160SAPE   C2217861  -0.034   5.447   6.815 -0.1889  0.1583  0.0942
  160SAPE   H2R17862  -0.007   5.340   6.805 -0.0557  0.3368 -1.7870
  160SAPE   H2S17863   0.040   5.496   6.748 -0.4422 -2.4179 -2.2631
  160SAPE    C317864  -0.410   5.302   6.646  0.2865 -0.4211  0.1326
  160SAPE    HX17865  -0.368   5.200   6.638 -2.0362 -1.7426  2.8470
  160SAPE    HY17866  -0.497   5.293   6.578  1.2924  1.7672 -1.5693
  160SAPE   O3117867  -0.443   5.342   6.782  0.0949  0.0772  0.5889
  160SAPE   C3117868  -0.549   5.433   6.778  0.3279 -0.2821 -0.3990
  160SAPE   O3217869  -0.600   5.479   6.673 -0.4127 -0.3359  0.0543
  160SAPE   C3217870  -0.583   5.474   6.920 -0.3411 -1.0937 -0.9719
  160SAPE   H2X17871  -0.584   5.385   6.986  0.4536 -0.9029 -0.6795
  160SAPE   H2Y17872  -0.691   5.499   6.915 -0.0082  0.3554 -1.4190
  160SAPE   C2317873  -0.017   5.509   6.965  0.6108  0.1094 -0.2945
  160SAPE   H3R17874   0.059   5.458   7.029  3.3915  2.7361 -1.2400
  160SAPE   H3S17875  -0.114   5.497   7.017  1.6178 -0.8449  1.4894
  160SAPE   C2417876   0.006   5.663   6.969 -0.2038 -0.0700 -0.7235
  160SAPE   H4R17877  -0.025   5.706   7.066 -2.0059 -1.8124 -0.4582
  160SAPE   H4S17878  -0.063   5.713   6.897  0.7929  1.1770 -0.8378
  160SAPE   C2517879   0.149   5.694   6.926 -0.2431  0.4734 -0.5375
  160SAPE   H5R17880   0.160   5.688   6.816  0.3561  2.1292 -0.5928
  160SAPE   C2617881   0.253   5.725   7.001  0.2964 -0.6741  0.3284
  160SAPE   H6R17882   0.352   5.741   6.955 -0.5333 -2.2902 -2.2949
  160SAPE   C2717883   0.241   5.738   7.149  0.4588 -0.3271 -0.2479
  160SAPE   H7R17884   0.262   5.640   7.196 -1.1676 -0.4127  0.3340
  160SAPE   H7S17885   0.134   5.754   7.174 -0.3921 -1.4633 -2.7456
  160SAPE   C2817886   0.321   5.845   7.214 -0.5327  0.8600  0.0442
  160SAPE   H8R17887   0.430   5.837   7.208 -0.5076 -0.0630  1.3879
  160SAPE   C2917888   0.273   5.952   7.283  0.0167 -0.0612 -0.0791
  160SAPE   H9R17889   0.343   6.025   7.326 -0.0570 -0.5992  1.0145
  160SAPE  C21017890   0.132   6.000   7.312  0.4082  0.2428  0.3549
  160SAPE  H10R17891   0.055   5.925   7.285 -1.1765  1.5696  0.9820
  160SAPE  H10S17892   0.099   6.095   7.264 -1.0121 -0.5274 -0.2453
  160SAPE  C21117893   0.109   6.032   7.461 -0.2848  0.7948 -0.7075
  160SAPE  H11R17894   0.114   6.140   7.483 -2.4252  1.0471 -1.2592
  160SAPE  C21217895   0.088   5.949   7.567  0.1487  0.1227 -0.0287
  160SAPE  H12R17896   0.068   5.991   7.666  0.1483  0.5329 -0.2019
  160SAPE  C21317897   0.072   5.801   7.554 -0.1742  0.2692 -0.5263
  160SAPE  H13R17898   0.098   5.779   7.449 -0.7852  1.8907 -1.0528
  160SAPE  H13S17899  -0.033   5.771   7.572  0.5454 -1.0873  1.9759
  160SAPE  C21417900   0.165   5.734   7.652  0.6794  0.1466  0.7170
  160SAPE  H14R17901   0.270   5.720   7.623  0.6085 -2.8258  1.5419
  160SAPE  C21517902   0.132   5.708   7.779  0.4313  0.9681  0.3161
  160SAPE  H15R17903   0.201   5.675   7.857 -0.8216  0.5131  1.2593
  160SAPE  C21617904  -0.005   5.721   7.838 -0.4205 -1.3552  0.2828
  160SAPE  H16R17905  -0.061   5.625   7.843 -1.5895 -0.6704  0.6862
  160SAPE  H16S17906  -0.070   5.786   7.776 -1.1618 -0.7036  1.7038
  160SAPE  C21717907  -0.018   5.776   7.987 -0.0376 -0.3740  0.4065
  160SAPE  H17R17908  -0.125   5.762   8.014  0.2320 -1.2812  1.0507
  160SAPE  H17S17909  -0.002   5.886   7.995  0.8039 -0.4534 -0.0846
  160SAPE  C21817910   0.069   5.705   8.095  0.2401  0.1433  0.2549
  160SAPE  H18R17911   0.176   5.727   8.074  0.3921 -2.4104 -2.2427
  160SAPE  H18S17912   0.054   5.598   8.072  1.1526  0.6040 -3.0259
  160SAPE  C21917913   0.029   5.731   8.247 -0.1859  0.4690 -0.4522
  160SAPE  H19R17914  -0.082   5.738   8.243 -0.2651  1.6463  2.0388
  160SAPE  H19S17915   0.066   5.835   8.261 -0.9924  0.4540  2.4984
  160SAPE  C22017916   0.093   5.628   8.342  0.1034  0.1602 -0.4318
  160SAPE  H20R17917   0.203   5.639   8.336 -0.0412  1.3416 -1.2684
  160SAPE  H20S17918   0.089   5.519   8.321 -1.5368  0.2635 -0.7985
  160SAPE  H20T17919   0.068   5.646   8.449 -1.1235  1.3624 -0.8895
  160SAPE   C3317920  -0.503   5.585   6.989 -0.1104  0.3436  0.7803
  160SAPE   H3X17921  -0.467   5.662   6.918  1.2063 -1.0978 -0.1775
  160SAPE   H3Y17922  -0.413   5.540   7.037  0.1803 -1.9082 -1.6635
  160SAPE   C3417923  -0.582   5.654   7.099 -0.1337  0.3421 -0.1621
  160SAPE   H4X17924  -0.687   5.619   7.087 -0.6459 -0.2616  4.2578
  160SAPE   H4Y17925  -0.572   5.764   7.089  0.8225  0.1359 -1.7901
  160SAPE   C3517926  -0.534   5.607   7.244  0.4870 -0.4729  0.0383
  160SAPE   H5X17927  -0.510   5.499   7.235  1.5116 -0.4667  2.1132
  160SAPE   H5Y17928  -0.622   5.617   7.312 -0.8570 -1.9531 -1.3961
  160SAPE   C3617929  -0.406   5.683   7.297  0.9123  0.1640 -0.0749
  160SAPE   H6X17930  -0.433   5.790   7.315  0.1380  0.3093 -1.8358
  160SAPE   H6Y17931  -0.345   5.693   7.204 -0.6950  1.0584 -1.0832
  160SAPE   C3717932  -0.332   5.617   7.414  0.2783  0.5053 -0.9590
  160SAPE   H7X17933  -0.225   5.647   7.423  0.2851  0.1044  0.4336
  160SAPE   H7Y17934  -0.334   5.506   7.405 -1.0978  0.3426  0.7670
  160SAPE   C3817935  -0.406   5.628   7.548 -0.0494 -0.0701  0.2001
  160SAPE   H8X17936  -0.516   5.615   7.554 -0.0940  0.7299  1.5857
  160SAPE   H8Y17937  -0.396   5.736   7.571  1.4326 -0.1964  0.2421
  160SAPE   C3917938  -0.345   5.551   7.669 -0.2115 -0.0370  0.6312
  160SAPE   H9X17939  -0.239   5.576   7.688  0.3091 -1.8196  0.2490
  160SAPE   H9Y17940  -0.339   5.441   7.651  3.3851 -0.0422  1.1071
  160SAPE  C31017941  -0.418   5.577   7.798  0.8236  0.0023  0.3514
  160SAPE  H10X17942  -0.526   5.595   7.783  1.4789  1.9150 -3.2160
  160SAPE  H10Y17943  -0.381   5.671   7.844 -2.5738  0.5622  2.2399
  160SAPE  C31117944  -0.392   5.468   7.905 -0.4653 -0.2878  0.6517
  160SAPE  H11X17945  -0.282   5.455   7.903 -0.1295  2.0519 -1.9591
  160SAPE  H11Y17946  -0.433   5.371   7.867  0.7141 -0.9203  0.9555
  160SAPE  C31217947  -0.443   5.504   8.046 -0.0778 -0.3850  0.0266
  160SAPE  H12X17948  -0.552   5.527   8.050  0.1800  0.8862  0.3001
  160SAPE  H12Y17949  -0.387   5.590   8.089 -0.6137 -0.6587  1.3239
  160SAPE  C31317950  -0.399   5.393   8.154 -0.6518 -0.3090 -0.2076
  160SAPE  H13X17951  -0.295   5.365   8.129 -1.1641 -2.3534 -0.1896
  160SAPE  H13Y17952  -0.471   5.310   8.139  1.2060 -2.4260  1.7771
  160SAPE  C31417953  -0.426   5.434   8.297  0.5654  0.8217  0.2644
  160SAPE  H14X17954  -0.421   5.339   8.354 -0.2999  0.1037 -0.8106
  160SAPE  H14Y17955  -0.529   5.476   8.303  1.1945  2.3457  1.1137
  160SAPE  C31517956  -0.332   5.549   8.349  0.1606  0.0564 -0.8701
  160SAPE  H15X17957  -0.357   5.635   8.283  1.6036  0.6953 -0.6225
  160SAPE  H15Y17958  -0.232   5.514   8.316  0.7780  0.0408  0.9339
  160SAPE  C31617959  -0.337   5.600   8.494  0.2573 -0.1409 -0.4300
  160SAPE  H16X17960  -0.434   5.652   8.513  0.0940 -0.0471 -1.4695
  160SAPE  H16Y17961  -0.266   5.684   8.508  1.7249 -1.4516  0.4312
  160SAPE  C31717962  -0.325   5.502   8.607  0.1554  0.0486 -0.4030
  160SAPE  H17X17963  -0.389   5.412   8.607 -0.6068  0.5292  1.7307
  160SAPE  H17Y17964  -0.364   5.563   8.691 -0.1820  0.8425 -1.1260
  160SAPE  C31817965  -0.177   5.467   8.637 -0.5915  0.8317 -0.4242
  160SAPE  H18X17966  -0.167   5.407   8.730  0.0229  1.3668 -0.1337
  160SAPE  H18Y17967  -0.108   5.555   8.639 -0.3330  0.6149  0.8364
  160SAPE  H18Z17968  -0.152   5.396   8.555 -0.1903  1.1479 -0.5831
  161SOPE     N17969   6.596   2.292  10.449 -0.3657 -0.0208  0.2669
  161SOPE   HN117970   6.579   2.190  10.459  3.3343 -0.6673  1.5597
  161SOPE   HN217971   6.529   2.343  10.510 -0.5116  0.5376 -0.3511
  161SOPE   HN317972   6.580   2.320  10.350 -3.0277 -3.0824 -0.3538
  161SOPE   C1217973   6.735   2.329  10.483 -0.8558 -0.0862  0.0610
  161SOPE  H12A17974   6.802   2.258  10.431  0.4488  1.8518 -1.0302
  161SOPE  H12B17975   6.749   2.322  10.593  0.4715 -1.3302 -0.1505
  161SOPE   C1117976   6.769   2.470  10.440 -0.5179  0.1765 -0.0410
  161SOPE  H11A17977   6.786   2.454  10.331 -0.2460 -3.2578  0.4127
  161SOPE  H11B17978   6.869   2.509  10.469 -0.9185  0.2216  1.3605
  161SOPE     P17979   6.673   2.632  10.609 -0.1708  0.0938 -0.0322
  161SOPE   O1317980   6.676   2.533  10.721  0.6449 -0.2556  0.0560
  161SOPE   O1417981   6.558   2.728  10.619  0.1180 -0.3371  0.4092
  161SOPE   O1217982   6.667   2.559  10.473 -0.0988 -0.0595 -0.7600
  161SOPE   O1117983   6.813   2.706  10.602  0.2627 -0.6522  0.1619
  161SOPE    C117984   6.822   2.824  10.514  0.3335 -0.5080  0.2967
  161SOPE    HA17985   6.921   2.869  10.540  0.5027 -0.7399  0.0599
  161SOPE    HB17986   6.743   2.901  10.523  1.6734  0.8366  1.1073
  161SOPE    C217987   6.841   2.794  10.362  0.0439  0.2696  0.3108
  161SOPE    HS17988   6.760   2.727  10.326  1.8402 -0.8353 -1.9375
  161SOPE   O2117989   6.968   2.733  10.335  0.0790  0.1027 -0.6339
  161SOPE   C2117990   6.972   2.650  10.228  0.0729 -0.4952  0.0613
  161SOPE   O2217991   6.882   2.621  10.157  0.5167 -0.6084 -0.2023
  161SOPE   C2217992   7.124   2.601  10.216  0.2471  0.0748 -0.5004
  161SOPE   H2R17993   7.117   2.495  10.249 -0.0808  0.8526  2.2274
  161SOPE   H2S17994   7.182   2.664  10.287  1.0050  0.9315 -1.8308
  161SOPE    C317995   6.825   2.924  10.277 -0.1581  0.4228 -0.0399
  161SOPE    HX17996   6.907   2.998  10.286 -0.5160  0.8810 -0.4910
  161SOPE    HY17997   6.740   2.972  10.331 -1.0103 -1.3090  0.2329
  161SOPE   O3117998   6.787   2.893  10.141  0.2122 -0.0978 -0.5067
  161SOPE   C3117999   6.883   2.897  10.051  0.0257  0.2158  0.7445
  161SOPE   O3218000   7.001   2.928  10.073  0.5318  0.1214  0.2355
  161SOPE   C3218001   6.828   2.845   9.917  0.0717  0.2126  0.7016
  161SOPE   H2X18002   6.723   2.876   9.895 -0.6898 -2.9009 -0.5935
  161SOPE   H2Y18003   6.833   2.734   9.912  0.5891  0.2688 -0.1735
  161SOPE   C2318004   7.176   2.611  10.078 -0.3683  0.0575 -0.5643
  161SOPE   H3R18005   7.183   2.717  10.047 -2.2495  0.2282 -0.5024
  161SOPE   H3S18006   7.109   2.567  10.001 -1.5421  1.9599 -0.6775
  161SOPE   C2418007   7.322   2.545  10.065 -0.1846 -0.5941  0.0652
  161SOPE   H4R18008   7.372   2.572  10.161  0.6077 -0.9450 -0.2387
  161SOPE   H4S18009   7.313   2.434  10.062 -0.3202 -0.5850 -2.6824
  161SOPE   C2518010   7.404   2.589   9.943  0.2309  0.3162 -1.1492
  161SOPE   H5R18011   7.448   2.686   9.974  1.6770 -0.7917  0.4371
  161SOPE   H5S18012   7.491   2.521   9.935  0.8673  0.6565  1.9019
  161SOPE   C2618013   7.323   2.596   9.817  0.0246  0.2555 -0.4907
  161SOPE   H6R18014   7.229   2.654   9.819 -0.6023 -0.6472 -2.1556
  161SOPE   H6S18015   7.387   2.645   9.741  3.3871 -0.3818  1.6805
  161SOPE   C2718016   7.298   2.463   9.751 -0.1775 -0.0670  0.0743
  161SOPE   H7R18017   7.392   2.412   9.724  0.2896  1.4731 -1.3260
  161SOPE   H7S18018   7.240   2.404   9.827 -0.6351  0.7303  0.3604
  161SOPE   C2818019   7.208   2.484   9.621  0.6799  0.5627 -0.2814
  161SOPE   H8R18020   7.134   2.558   9.659  0.1751  0.1500 -0.4463
  161SOPE   H8S18021   7.257   2.544   9.541  0.7986 -2.2679 -2.4992
  161SOPE   C2918022   7.155   2.349   9.579  0.7105 -0.3364 -0.0219
  161SOPE   H9118023   7.081   2.302   9.646 -1.4906  0.7633 -1.5642
  161SOPE  C21018024   7.176   2.303   9.456 -0.4831  0.0367  0.1904
  161SOPE  H10118025   7.124   2.208   9.437  0.1640 -0.3494  0.2780
  161SOPE  C21118026   7.247   2.373   9.341 -0.5954  0.3482 -0.8878
  161SOPE  H11R18027   7.305   2.299   9.282 -0.4677 -1.5045  1.4064
  161SOPE  H11S18028   7.326   2.441   9.378  1.8587 -1.6190 -2.2726
  161SOPE  C21218029   7.138   2.452   9.274 -0.5629 -0.2900 -0.0428
  161SOPE  H12R18030   7.176   2.544   9.225 -0.4165  1.3151  2.8220
  161SOPE  H12S18031   7.064   2.499   9.342 -1.0952 -2.1635  0.7476
  161SOPE  C21318032   7.072   2.362   9.162  0.5611 -0.3525 -0.1296
  161SOPE  H13R18033   7.017   2.277   9.208 -0.8950 -0.7143 -2.3587
  161SOPE  H13S18034   7.152   2.312   9.104  1.3382  0.1918  0.4541
  161SOPE  C21418035   6.976   2.440   9.077  0.5742 -0.3287  0.7579
  161SOPE  H14R18036   7.037   2.506   9.013  1.1399 -0.7343  0.8679
  161SOPE  H14S18037   6.903   2.507   9.127 -1.9799 -0.6023 -2.3435
  161SOPE  C21518038   6.880   2.340   9.011  0.4991  0.5920 -0.3048
  161SOPE  H15R18039   6.816   2.300   9.093  1.5760  0.2237  0.3781
  161SOPE  H15S18040   6.936   2.257   8.962 -0.7262  0.2968 -1.2520
  161SOPE  C21618041   6.793   2.418   8.919 -0.9833  0.6246 -0.0856
  161SOPE  H16R18042   6.859   2.486   8.862 -1.0201  0.5593 -0.2072
  161SOPE  H16S18043   6.728   2.485   8.980  0.8588  1.1324  1.3867
  161SOPE  C21718044   6.708   2.333   8.819 -0.0499 -0.4064  0.1045
  161SOPE  H17R18045   6.629   2.407   8.795  1.5422  2.0907  2.0560
  161SOPE  H17S18046   6.678   2.245   8.881 -2.2326 -0.6330 -1.1697
  161SOPE  C21818047   6.791   2.286   8.703  0.0154  0.2683 -0.1472
  161SOPE  H18R18048   6.734   2.274   8.608  0.2252  0.0427 -0.2454
  161SOPE  H18S18049   6.852   2.195   8.722  2.0771  1.4541 -0.6994
  161SOPE  H18T18050   6.869   2.360   8.674  0.9976 -1.8024 -3.2720
  161SOPE   C3318051   6.923   2.896   9.805 -0.6311  0.3082  0.0596
  161SOPE   H3X18052   7.025   2.864   9.835 -0.9760 -2.9384 -1.8589
  161SOPE   H3Y18053   6.928   3.006   9.788 -2.2800  0.8888  2.7374
  161SOPE   C3418054   6.907   2.831   9.666 -0.1211  0.7452  0.2119
  161SOPE   H4X18055   6.803   2.841   9.629  0.1823  0.7032 -0.6722
  161SOPE   H4Y18056   6.938   2.725   9.683 -1.8509  0.5564  2.5736
  161SOPE   C3518057   6.997   2.891   9.561 -0.6261  0.4654  0.8285
  161SOPE   H5X18058   7.100   2.898   9.600  0.1725  0.2615 -1.1413
  161SOPE   H5Y18059   6.965   2.995   9.535  1.2469  0.7536 -0.4945
  161SOPE   C3618060   7.000   2.808   9.426  0.3053  0.3808  0.7958
  161SOPE   H6X18061   6.896   2.781   9.397  0.4601  1.5355 -0.9813
  161SOPE   H6Y18062   7.058   2.717   9.454  0.9708 -0.2675 -2.2913
  161SOPE   C3718063   7.071   2.887   9.311 -0.0655 -1.2336 -0.6914
  161SOPE   H7X18064   7.178   2.891   9.338 -0.4142  1.4216  0.6584
  161SOPE   H7Y18065   7.049   2.996   9.305  0.0703 -0.9994  1.9533
  161SOPE   C3818066   7.061   2.823   9.169  0.5613 -0.2055 -0.3508
  161SOPE   H8X18067   6.958   2.833   9.129 -0.3667 -0.4672  1.8258
  161SOPE   H8Y18068   7.067   2.713   9.178  0.6319 -0.1466  0.4155
  161SOPE   C3918069   7.176   2.864   9.071 -0.1294  0.3500 -0.1892
  161SOPE   H9X18070   7.163   2.801   8.981 -0.2034  0.4753 -0.2653
  161SOPE   H9Y18071   7.280   2.846   9.107  1.2311  2.1519 -2.8613
  161SOPE  C31018072   7.168   3.012   9.043  0.3672  0.2425  0.3141
  161SOPE  H10X18073   7.233   3.064   9.116  1.2134  1.7512 -1.4213
  161SOPE  H10Y18074   7.060   3.032   9.064 -0.3847 -3.0578  0.1119
  161SOPE  C31118075   7.201   3.052   8.897  0.1459  0.2204  0.1123
  161SOPE  H11X18076   7.192   3.163   8.899 -3.4865  0.0397  1.0568
  161SOPE  H11Y18077   7.117   3.017   8.833  1.1040  0.3754 -1.2862
  161SOPE  C31218078   7.331   2.997   8.845 -0.4175  0.5133 -0.0982
  161SOPE  H12X18079   7.315   2.888   8.836 -0.0312  0.1858  2.4654
  161SOPE  H12Y18080   7.418   3.013   8.911 -0.0941  1.6567 -0.7701
  161SOPE  C31318081   7.361   3.054   8.703 -0.1421 -0.1936 -0.0769
  161SOPE  H13X18082   7.453   3.006   8.662  0.5703  0.8842  0.2036
  161SOPE  H13Y18083   7.383   3.163   8.705  1.4011 -0.4872  0.4196
  161SOPE  C31418084   7.253   3.034   8.597  0.1043  0.4230  0.6079
  161SOPE  H14X18085   7.169   3.106   8.606 -0.4518  0.2066 -2.0734
  161SOPE  H14Y18086   7.209   2.933   8.611  0.4970  0.3724  1.5603
  161SOPE  C31518087   7.300   3.034   8.450  0.9226 -0.1732  0.2030
  161SOPE  H15X18088   7.212   2.993   8.395  0.8188  0.0661  0.1922
  161SOPE  H15Y18089   7.380   2.960   8.428  0.0610 -1.0039 -0.2234
  161SOPE  C31618090   7.342   3.177   8.417 -0.0382  0.0907 -0.0109
  161SOPE  H16X18091   7.413   3.207   8.497  0.1984 -0.4970  0.0019
  161SOPE  H16Y18092   7.250   3.238   8.435  0.5150  0.3969  2.0731
  161SOPE  C31718093   7.399   3.189   8.282  0.5430 -0.2878  0.5076
  161SOPE  H17X18094   7.327   3.170   8.199  2.3862 -3.8460 -0.4705
  161SOPE  H17Y18095   7.476   3.113   8.259  1.6046  1.2247 -1.2869
  161SOPE  C31818096   7.479   3.317   8.256 -0.4127  0.3270 -0.5369
  161SOPE  H18X18097   7.524   3.317   8.155  0.6615 -0.6832 -0.0876
  161SOPE  H18Y18098   7.558   3.343   8.330  1.9282 -2.5342 -1.8442
  161SOPE  H18Z18099   7.403   3.398   8.250 -0.3608  0.3821 -0.4569
  162SOPE     N18100   4.536   6.416  10.642 -0.0759  0.4429  0.3073
  162SOPE   HN118101   4.492   6.337  10.591 -0.1779  0.9869 -0.4664
  162SOPE   HN218102   4.611   6.374  10.701 -0.0477 -0.1928 -0.1700
  162SOPE   HN318103   4.473   6.463  10.710 -0.1282  0.5147  0.2086
  162SOPE   C1218104   4.590   6.523  10.554  0.2299 -0.6403  0.8425
  162SOPE  H12A18105   4.631   6.479  10.460  3.3028  0.1091  1.7376
  162SOPE  H12B18106   4.681   6.556  10.608  1.2456  1.6562 -2.0109
  162SOPE   C1118107   4.484   6.636  10.541 -0.2347  1.0136 -0.1104
  162SOPE  H11A18108   4.384   6.596  10.517 -0.0751 -0.1136  1.0202
  162SOPE  H11B18109   4.519   6.711  10.467  0.0799  2.5484  1.5052
  162SOPE     P18110   4.583   6.799  10.726 -0.4554  0.1642  0.3568
  162SOPE   O1318111   4.690   6.717  10.793  0.1714 -0.1537  0.2291
  162SOPE   O1418112   4.522   6.905  10.807  0.0679  0.2191  0.3565
  162SOPE   O1218113   4.479   6.701  10.669  0.5883 -0.3944 -0.1278
  162SOPE   O1118114   4.647   6.862  10.602 -0.3267  0.5252  0.2890
  162SOPE    C118115   4.580   6.963  10.526 -0.3613  0.2729 -0.3144
  162SOPE    HA18116   4.600   7.063  10.569 -0.6176  0.2100 -0.0499
  162SOPE    HB18117   4.470   6.956  10.513 -0.3071  1.0787 -1.3185
  162SOPE    C218118   4.641   6.979  10.381 -0.9372  0.6221 -0.6720
  162SOPE    HS18119   4.595   6.909  10.308 -1.0527 -1.2785  1.1190
  162SOPE   O2118120   4.778   6.946  10.381  0.2980 -0.5138 -0.2738
  162SOPE   C2118121   4.819   6.820  10.374  0.0814 -0.0825 -0.5478
  162SOPE   O2218122   4.739   6.730  10.353 -0.8219 -0.4779  0.7200
  162SOPE   C2218123   4.965   6.818  10.420 -0.0862  0.1957  0.0459
  162SOPE   H2R18124   4.954   6.823  10.530 -4.3287 -2.0208 -0.0684
  162SOPE   H2S18125   5.016   6.909  10.382  1.7949 -0.0356  1.8737
  162SOPE    C318126   4.635   7.121  10.327  0.3021 -0.7391 -0.0913
  162SOPE    HX18127   4.702   7.187  10.387  1.0788  1.1311 -2.8278
  162SOPE    HY18128   4.529   7.154  10.329  0.6957  0.6584 -1.0123
  162SOPE   O3118129   4.684   7.140  10.192 -0.1337  0.2042  0.1657
  162SOPE   C3118130   4.590   7.119  10.090  0.5640 -0.5629  0.4969
  162SOPE   O3218131   4.476   7.088  10.111  0.3012 -0.0106  0.4157
  162SOPE   C3218132   4.645   7.155   9.950 -0.5684 -0.2606 -0.0462
  162SOPE   H2X18133   4.700   7.062   9.924  1.7121  1.5480 -2.0880
  162SOPE   H2Y18134   4.716   7.240   9.959  0.6976 -1.0297 -2.0392
  162SOPE   C2318135   5.028   6.686  10.371 -0.0333 -0.3222  0.4883
  162SOPE   H3R18136   4.969   6.595  10.396  0.9489 -1.4066 -0.9345
  162SOPE   H3S18137   5.132   6.684  10.410  0.3054  1.8361 -0.1560
  162SOPE   C2418138   5.044   6.692  10.218  0.5788  0.3250 -0.4240
  162SOPE   H4R18139   5.056   6.593  10.170 -0.7920  0.4654 -1.1091
  162SOPE   H4S18140   4.955   6.741  10.172 -0.5413  0.9159  2.2060
  162SOPE   C2518141   5.159   6.786  10.171 -0.1327  0.1526  0.0271
  162SOPE   H5R18142   5.144   6.895  10.189  1.0518  0.4700 -0.7408
  162SOPE   H5S18143   5.247   6.773  10.238 -0.7917 -1.0206  0.7009
  162SOPE   C2618144   5.209   6.781  10.024  1.2080  0.1348  0.0856
  162SOPE   H6R18145   5.247   6.677  10.013 -2.3219 -1.3457  0.3731
  162SOPE   H6S18146   5.129   6.799   9.950  0.4040  1.8444  1.2907
  162SOPE   C2718147   5.321   6.875   9.982  0.4563 -0.1795 -0.1380
  162SOPE   H7R18148   5.275   6.976   9.978 -0.4126 -0.5733 -0.4071
  162SOPE   H7S18149   5.398   6.881  10.062 -0.8358 -0.4554  1.1642
  162SOPE   C2818150   5.379   6.842   9.848 -0.4435  0.4093  0.4933
  162SOPE   H8R18151   5.423   6.741   9.839 -0.8367  0.3498 -1.0019
  162SOPE   H8S18152   5.304   6.844   9.767 -1.4601  0.0647  1.4163
  162SOPE   C2918153   5.485   6.949   9.799 -0.1692  0.0173  0.9972
  162SOPE   H9118154   5.546   6.996   9.878  2.2423  0.4426 -0.9788
  162SOPE  C21018155   5.497   7.010   9.676  0.3269  0.2852 -0.0740
  162SOPE  H10118156   5.585   7.073   9.657  0.5360 -0.3974 -1.5254
  162SOPE  C21118157   5.414   6.986   9.551 -0.2528  0.9470 -0.5167
  162SOPE  H11R18158   5.398   6.877   9.558  0.4510  0.9190  0.8554
  162SOPE  H11S18159   5.474   7.000   9.459  2.3631 -2.2803  0.5190
  162SOPE  C21218160   5.284   7.056   9.552 -0.0844  0.0118  0.5212
  162SOPE  H12R18161   5.298   7.163   9.580  0.0414 -0.4028  2.1317
  162SOPE  H12S18162   5.222   7.007   9.630  0.1160  0.6880  1.1149
  162SOPE  C21318163   5.208   7.048   9.423  0.4473  0.5516 -0.2889
  162SOPE  H13R18164   5.100   7.052   9.448  0.1155 -2.7496 -0.7820
  162SOPE  H13S18165   5.230   6.947   9.383 -1.1878 -0.3279  0.9510
  162SOPE  C21418166   5.229   7.159   9.323  0.3167 -0.5417 -0.3049
  162SOPE  H14R18167   5.208   7.262   9.360  1.2078  0.4563 -2.4147
  162SOPE  H14S18168   5.152   7.144   9.244 -1.5183 -0.8861  1.4686
  162SOPE  C21518169   5.364   7.154   9.251 -0.2390  0.9335  0.0370
  162SOPE  H15R18170   5.372   7.055   9.201 -2.3002  1.6083 -1.7815
  162SOPE  H15S18171   5.455   7.169   9.314  2.0287 -0.1376 -2.7486
  162SOPE  C21618172   5.391   7.264   9.143  0.3765 -0.3894  0.6416
  162SOPE  H16R18173   5.498   7.261   9.111 -0.2905  0.5442 -1.8993
  162SOPE  H16S18174   5.364   7.356   9.199 -0.2296 -1.4275  2.0799
  162SOPE  C21718175   5.297   7.249   9.021 -0.0802 -0.1641  0.1568
  162SOPE  H17R18176   5.289   7.350   8.975  2.0209  0.5759  1.2652
  162SOPE  H17S18177   5.196   7.216   9.053  0.4968 -0.6794  1.5485
  162SOPE  C21818178   5.362   7.154   8.923 -0.4098  0.7715  0.3501
  162SOPE  H18R18179   5.299   7.140   8.833 -1.8290 -2.1485  1.6590
  162SOPE  H18S18180   5.380   7.049   8.956  0.2340  0.0129 -2.2255
  162SOPE  H18T18181   5.461   7.196   8.896 -0.1234 -0.0545  0.1048
  162SOPE   C3318182   4.527   7.185   9.852 -0.7658  0.0485 -0.2850
  162SOPE   H3X18183   4.488   7.283   9.887  0.8730  1.1913 -1.4713
  162SOPE   H3Y18184   4.447   7.108   9.850 -0.3051 -0.4283 -0.7544
  162SOPE   C3418185   4.579   7.223   9.708  0.0428  0.4926 -0.5504
  162SOPE   H4X18186   4.610   7.135   9.648  2.7797  1.6034 -0.9277
  162SOPE   H4Y18187   4.661   7.296   9.726 -0.3661  1.4307 -2.3401
  162SOPE   C3518188   4.464   7.279   9.625  0.1326  0.3917 -0.1200
  162SOPE   H5X18189   4.421   7.355   9.693 -0.4478  0.7961 -0.9211
  162SOPE   H5Y18190   4.397   7.199   9.588 -1.8219  1.6189  0.5970
  162SOPE   C3618191   4.509   7.365   9.502 -0.0282 -0.3672 -0.0655
  162SOPE   H6X18192   4.557   7.294   9.432 -1.5625 -0.9292 -0.5755
  162SOPE   H6Y18193   4.591   7.435   9.531 -0.3247 -0.4602  1.0333
  162SOPE   C3718194   4.390   7.425   9.431 -0.5064 -0.2144  0.7869
  162SOPE   H7X18195   4.426   7.498   9.354 -3.1926  0.8630  0.4416
  162SOPE   H7Y18196   4.334   7.489   9.502  2.2343  2.5699  0.6330
  162SOPE   C3818197   4.302   7.320   9.362  0.7726  0.2575  0.6014
  162SOPE   H8X18198   4.225   7.366   9.296  0.9739 -1.5965 -1.0226
  162SOPE   H8Y18199   4.247   7.268   9.443 -0.5606  1.0240  0.2221
  162SOPE   C3918200   4.377   7.216   9.273 -0.1611 -0.3732  0.8397
  162SOPE   H9X18201   4.446   7.148   9.327  0.2393  0.0337  0.8487
  162SOPE   H9Y18202   4.428   7.272   9.192 -0.1544 -2.2689 -0.5279
  162SOPE  C31018203   4.278   7.118   9.200 -0.7460  0.7714  0.2126
  162SOPE  H10X18204   4.200   7.188   9.163 -0.7592  0.8974  0.4773
  162SOPE  H10Y18205   4.237   7.058   9.284 -2.8145  1.6984 -0.0861
  162SOPE  C31118206   4.337   7.014   9.089  0.4654 -0.4629 -0.2063
  162SOPE  H11X18207   4.249   6.957   9.052  1.3626 -1.3658 -0.9895
  162SOPE  H11Y18208   4.398   6.931   9.130 -1.5938 -1.9848 -0.0588
  162SOPE  C31218209   4.395   7.086   8.970  0.1872 -0.3211 -0.0719
  162SOPE  H12X18210   4.499   7.118   8.995  0.3171 -1.2134  0.5912
  162SOPE  H12Y18211   4.350   7.179   8.931  0.1686 -0.8160 -1.3087
  162SOPE  C31318212   4.423   6.981   8.861 -0.2042  0.0238  1.0633
  162SOPE  H13X18213   4.340   6.919   8.822  1.6068 -1.6572 -0.3436
  162SOPE  H13Y18214   4.482   6.898   8.906 -0.4080 -1.3938 -1.1356
  162SOPE  C31418215   4.487   7.028   8.727 -0.0163 -0.7276 -0.3312
  162SOPE  H14X18216   4.498   6.942   8.658 -0.2937 -0.4786 -0.6875
  162SOPE  H14Y18217   4.593   7.059   8.740 -0.6439  1.0318  1.1498
  162SOPE  C31518218   4.411   7.141   8.654 -0.3120  0.5428 -0.0594
  162SOPE  H15X18219   4.400   7.223   8.729  0.8301 -1.8150  2.8779
  162SOPE  H15Y18220   4.308   7.109   8.628  0.5403 -1.8213 -0.7417
  162SOPE  C31618221   4.494   7.187   8.535  0.1126 -0.6524  0.2116
  162SOPE  H16X18222   4.535   7.094   8.492  2.6862  0.3759  0.2585
  162SOPE  H16Y18223   4.572   7.248   8.585 -0.2325 -1.3964  1.7075
  162SOPE  C31718224   4.407   7.262   8.429  0.5110  0.5272  0.3432
  162SOPE  H17X18225   4.362   7.355   8.468  0.2795 -0.1397  1.7383
  162SOPE  H17Y18226   4.324   7.194   8.401  0.5382  0.9155 -0.6989
  162SOPE  C31818227   4.499   7.305   8.310 -0.2271 -0.2031 -0.1216
  162SOPE  H18X18228   4.447   7.388   8.257 -1.9900 -0.6002  0.9228
  162SOPE  H18Y18229   4.505   7.217   8.243  2.5418 -0.4528  0.3474
  162SOPE  H18Z18230   4.598   7.337   8.348  0.3138 -1.4041 -0.4652
  163SOPE     N18231   4.719   4.514  11.051  0.0215  0.0659 -0.4359
  163SOPE   HN118232   4.639   4.507  10.985 -1.1205  0.7849  0.8121
  163SOPE   HN218233   4.803   4.487  10.997  0.9678  0.4598  0.7738
  163SOPE   HN318234   4.704   4.456  11.136  1.0580  3.0763  2.0274
  163SOPE   C1218235   4.746   4.660  11.088 -0.7277 -0.3585 -0.3224
  163SOPE  H12A18236   4.851   4.671  11.124 -0.2180  0.7029 -2.0116
  163SOPE  H12B18237   4.679   4.689  11.171 -0.9270  0.1415 -0.6498
  163SOPE   C1118238   4.726   4.740  10.958  0.2385  0.7002  0.1539
  163SOPE  H11A18239   4.782   4.692  10.875 -1.5574  0.3107 -0.8791
  163SOPE  H11B18240   4.779   4.836  10.977  0.4332  0.8468 -1.0926
  163SOPE     P18241   4.526   4.833  10.814  0.6207 -0.1861 -0.1780
  163SOPE   O1318242   4.623   4.882  10.718 -0.2759 -0.5347 -0.4607
  163SOPE   O1418243   4.439   4.940  10.878  0.2134 -0.2446  0.2266
  163SOPE   O1218244   4.593   4.757  10.932  0.6513  0.0435  0.7623
  163SOPE   O1118245   4.434   4.721  10.742 -0.0788 -0.4817 -0.3186
  163SOPE    C118246   4.310   4.742  10.675 -0.4439  0.3027  0.7427
  163SOPE    HA18247   4.235   4.810  10.720 -0.9510 -0.0818  0.4790
  163SOPE    HB18248   4.265   4.642  10.658 -1.2526  0.8183 -0.2402
  163SOPE    C218249   4.324   4.790  10.521 -0.3403  0.9614 -0.1975
  163SOPE    HS18250   4.381   4.885  10.523  1.2533  0.0515 -0.1431
  163SOPE   O2118251   4.198   4.804  10.456  0.4125  0.1966 -0.3395
  163SOPE   C2118252   4.130   4.925  10.477  0.1235 -0.5089  0.3803
  163SOPE   O2218253   4.167   5.015  10.545 -0.0529 -0.1731 -0.3420
  163SOPE   C2218254   3.997   4.916  10.403 -0.3426 -0.0477  0.0738
  163SOPE   H2R18255   3.914   4.954  10.467  0.2411  2.7816 -0.7221
  163SOPE   H2S18256   3.982   4.807  10.388 -0.4860 -0.4137  2.3938
  163SOPE    C318257   4.407   4.691  10.433 -0.1367 -0.0275  0.2914
  163SOPE    HX18258   4.369   4.587  10.437 -1.8183  0.4682 -1.3587
  163SOPE    HY18259   4.511   4.686  10.473  0.3177  0.9409 -0.7027
  163SOPE   O3118260   4.409   4.736  10.289 -0.2576  0.3000  0.3898
  163SOPE   C3118261   4.344   4.670  10.200  0.0540 -0.0193 -0.3113
  163SOPE   O3218262   4.257   4.587  10.231  0.0342 -0.1827 -0.5180
  163SOPE   C3218263   4.389   4.705  10.060 -0.2142  0.5258  0.3786
  163SOPE   H2X18264   4.500   4.699  10.049  0.2153  3.7183  1.7282
  163SOPE   H2Y18265   4.356   4.810  10.041 -1.3265 -0.0741 -1.1497
  163SOPE   C2318266   3.974   5.008  10.272  0.3919 -0.1432 -0.2653
  163SOPE   H3R18267   4.008   5.114  10.281 -0.3231  0.5068 -3.6948
  163SOPE   H3S18268   3.865   5.010  10.249 -0.2238 -1.3090  2.2258
  163SOPE   C2418269   4.052   4.943  10.156  0.6181 -0.3082 -0.0361
  163SOPE   H4R18270   4.159   4.965  10.174  0.2586  1.7168 -0.2314
  163SOPE   H4S18271   4.030   4.836  10.177 -1.0142 -0.1411 -0.7161
  163SOPE   C2518272   4.015   5.022  10.025 -0.3652  0.2143 -0.4216
  163SOPE   H5R18273   3.912   4.992   9.998 -0.8942  1.3613  0.2516
  163SOPE   H5S18274   4.018   5.129  10.055  0.9441  0.1498 -0.2531
  163SOPE   C2618275   4.100   4.980   9.903 -0.1375 -0.1105  0.2465
  163SOPE   H6R18276   4.206   5.011   9.917 -0.4438  0.7541  0.7636
  163SOPE   H6S18277   4.095   4.869   9.901  0.1897 -0.1208  0.1275
  163SOPE   C2718278   4.039   5.040   9.777 -0.4181  0.1243 -0.8081
  163SOPE   H7R18279   3.938   4.995   9.770  1.1628 -4.3359  1.4173
  163SOPE   H7S18280   4.031   5.151   9.786  0.3794  0.3081 -2.0434
  163SOPE   C2818281   4.129   4.999   9.660  0.3927  0.3714  0.2958
  163SOPE   H8R18282   4.235   5.023   9.681  0.2986 -1.2456  3.0987
  163SOPE   H8S18283   4.111   4.891   9.638  0.3049  0.8816 -2.6307
  163SOPE   C2918284   4.098   5.083   9.543 -0.6503 -0.4775  0.3003
  163SOPE   H9118285   4.112   5.191   9.551  1.5372 -0.5222 -1.8613
  163SOPE  C21018286   4.057   5.039   9.418 -0.4186 -0.0999 -0.0702
  163SOPE  H10118287   4.037   5.113   9.339 -1.8353  1.0487  1.2860
  163SOPE  C21118288   4.047   4.897   9.365 -0.0548 -0.0176 -0.3078
  163SOPE  H11R18289   3.963   4.893   9.293  0.5685 -3.2748 -1.0281
  163SOPE  H11S18290   4.020   4.822   9.442 -0.4241 -0.3252 -0.7333
  163SOPE  C21218291   4.165   4.841   9.289 -0.6725 -0.0615  0.1509
  163SOPE  H12R18292   4.242   4.833   9.369 -0.5737 -0.3162  0.0334
  163SOPE  H12S18293   4.196   4.912   9.209  2.7352 -0.2919  1.0822
  163SOPE  C21318294   4.134   4.705   9.221 -0.5266 -0.1129 -0.2884
  163SOPE  H13R18295   4.037   4.710   9.167 -0.2296 -2.5815 -1.1439
  163SOPE  H13S18296   4.122   4.632   9.304 -2.2542  1.0836  0.5928
  163SOPE  C21418297   4.240   4.646   9.124  0.7112  0.4349 -0.1023
  163SOPE  H14R18298   4.180   4.563   9.082  2.2366  0.1322 -1.8545
  163SOPE  H14S18299   4.312   4.598   9.193 -0.7480 -1.6084  0.0852
  163SOPE  C21518300   4.292   4.730   9.010  0.0753  0.4651  0.0820
  163SOPE  H15R18301   4.380   4.679   8.966 -0.4446 -0.9036  0.5497
  163SOPE  H15S18302   4.330   4.828   9.044 -0.4332  0.5411  0.4552
  163SOPE  C21618303   4.172   4.763   8.910  0.5341 -0.0213 -0.4939
  163SOPE  H16R18304   4.096   4.827   8.959  2.4804  0.9878  1.4163
  163SOPE  H16S18305   4.125   4.668   8.875 -0.7390 -0.1120  1.2870
  163SOPE  C21718306   4.223   4.846   8.790  0.0856 -0.1305 -0.3141
  163SOPE  H17R18307   4.133   4.857   8.725 -2.0901 -1.0687  2.3289
  163SOPE  H17S18308   4.298   4.795   8.725  0.8841  0.5994  0.0290
  163SOPE  C21818309   4.282   4.991   8.817 -0.5592 -0.3736  0.2765
  163SOPE  H18R18310   4.383   4.982   8.862 -0.1323  0.3852 -0.5006
  163SOPE  H18S18311   4.224   5.052   8.890  2.7879  2.3596  0.9407
  163SOPE  H18T18312   4.287   5.037   8.716 -4.1172 -1.5874 -0.6065
  163SOPE   C3318313   4.323   4.608   9.955 -0.3092 -0.4374  0.0406
  163SOPE   H3X18314   4.215   4.636   9.961  0.2626  1.6796  2.2437
  163SOPE   H3Y18315   4.329   4.501   9.983  4.3315 -0.1945  0.8277
  163SOPE   C3418316   4.387   4.603   9.815 -0.5789 -0.4429  0.2792
  163SOPE   H4X18317   4.336   4.523   9.757  1.1310  0.4366 -2.7009
  163SOPE   H4Y18318   4.489   4.561   9.830 -1.7649 -3.8208 -0.1968
  163SOPE   C3518319   4.381   4.736   9.729  0.5753  0.6937  0.1125
  163SOPE   H5X18320   4.397   4.820   9.800  2.6084  0.7938 -0.4079
  163SOPE   H5Y18321   4.274   4.743   9.698  0.2200 -2.2491  0.3840
  163SOPE   C3618322   4.482   4.752   9.611  0.2885 -0.2317 -0.2078
  163SOPE   H6X18323   4.584   4.769   9.651 -0.7263  1.5901  1.8520
  163SOPE   H6Y18324   4.442   4.839   9.555 -0.0770 -1.4098 -1.8407
  163SOPE   C3718325   4.478   4.622   9.521  0.0943 -0.2497  0.8490
  163SOPE   H7X18326   4.370   4.596   9.526  0.2110 -0.6610  1.3268
  163SOPE   H7Y18327   4.523   4.539   9.579 -0.1872 -0.2391  1.0884
  163SOPE   C3818328   4.519   4.657   9.377 -0.1366 -0.5310 -0.1098
  163SOPE   H8X18329   4.451   4.734   9.335  0.5887 -0.2481 -0.7879
  163SOPE   H8Y18330   4.513   4.562   9.320 -0.1256 -0.4608 -0.2296
  163SOPE   C3918331   4.662   4.703   9.366 -0.7990  0.0589 -0.0615
  163SOPE   H9X18332   4.738   4.627   9.393  0.3293  0.9053 -0.7761
  163SOPE   H9Y18333   4.688   4.788   9.433 -1.1552 -1.4848  2.1478
  163SOPE  C31018334   4.712   4.752   9.229 -0.0323 -0.2080  0.6790
  163SOPE  H10X18335   4.659   4.844   9.194  2.9717  0.9743 -1.1173
  163SOPE  H10Y18336   4.706   4.671   9.153 -0.5870 -0.3834  0.8977
  163SOPE  C31118337   4.866   4.788   9.240 -0.1801  0.2465  0.0288
  163SOPE  H11X18338   4.931   4.698   9.242  0.2915  0.5137 -1.4651
  163SOPE  H11Y18339   4.889   4.847   9.331 -3.4963  0.1033  1.0834
  163SOPE  C31218340   4.912   4.880   9.122 -0.2796  0.6249 -0.0322
  163SOPE  H12X18341   5.018   4.913   9.134  0.4971 -1.9201  0.8055
  163SOPE  H12Y18342   4.849   4.969   9.140  0.5838  0.8878  1.9315
  163SOPE  C31318343   4.887   4.833   8.978 -0.1773  1.2193  0.4052
  163SOPE  H13X18344   4.779   4.848   8.956  0.2750  1.1108 -2.1909
  163SOPE  H13Y18345   4.903   4.723   8.971 -3.1327  0.8234 -2.4950
  163SOPE  C31418346   4.961   4.906   8.864  0.5683 -0.0779  0.4492
  163SOPE  H14X18347   5.071   4.917   8.878  0.3783  0.7369  1.3110
  163SOPE  H14Y18348   4.938   5.014   8.863 -0.3551 -0.2561  1.1707
  163SOPE  C31518349   4.925   4.843   8.722  0.1315  0.3339  0.1720
  163SOPE  H15X18350   4.815   4.857   8.726  0.0085  1.2714 -3.2159
  163SOPE  H15Y18351   4.966   4.741   8.708 -1.9778 -0.6324  0.6696
  163SOPE  C31618352   4.987   4.939   8.613  0.0136 -0.1465 -0.5066
  163SOPE  H16X18353   5.019   4.883   8.523 -1.9525  0.8776 -1.9232
  163SOPE  H16Y18354   5.080   4.982   8.656 -0.0252  0.7204 -1.2632
  163SOPE  C31718355   4.888   5.050   8.566 -0.0369  0.4952 -0.8583
  163SOPE  H17X18356   4.841   5.118   8.640 -1.7154 -1.1264 -0.3652
  163SOPE  H17Y18357   4.792   5.009   8.528 -0.2228  3.3687 -3.8907
  163SOPE  C31818358   4.957   5.134   8.450  0.1650 -0.0077  0.3846
  163SOPE  H18X18359   5.062   5.161   8.471  0.3104  1.5189 -2.0291
  163SOPE  H18Y18360   4.896   5.225   8.432 -0.7009 -0.9923 -2.0987
  163SOPE  H18Z18361   4.947   5.079   8.354 -0.5337  1.0034 -0.1348
  164SOPE     N18362   1.320   3.741  11.089  0.2026  0.3866 -0.2380
  164SOPE   HN118363   1.403   3.773  11.144  2.2070 -0.6344 -2.5155
  164SOPE   HN218364   1.304   3.808  11.010  0.0654 -0.7210 -1.1693
  164SOPE   HN318365   1.237   3.747  11.152 -0.6052  0.5194 -1.2952
  164SOPE   C1218366   1.337   3.608  11.029  0.0498  0.0247  0.3585
  164SOPE  H12A18367   1.237   3.574  10.996 -0.2463 -0.9719  2.1811
  164SOPE  H12B18368   1.369   3.542  11.112  2.4852  1.1736  0.4399
  164SOPE   C1118369   1.435   3.606  10.915  0.2681  0.4709  0.7453
  164SOPE  H11A18370   1.534   3.651  10.938  1.3117  0.0260 -2.3776
  164SOPE  H11B18371   1.402   3.663  10.827 -0.1060  1.3953  1.4720
  164SOPE     P18372   1.367   3.391  10.776  0.0730 -0.1194 -0.1009
  164SOPE   O1318373   1.266   3.486  10.731  0.1190  0.2775  0.4670
  164SOPE   O1418374   1.326   3.261  10.829  0.3795  0.0372  0.5965
  164SOPE   O1218375   1.459   3.462  10.883  0.2821  0.2015 -0.1725
  164SOPE   O1118376   1.469   3.361  10.658  0.5834 -0.2176 -0.8560
  164SOPE    C118377   1.554   3.248  10.647  0.1721  0.7837  0.2370
  164SOPE    HA18378   1.565   3.173  10.728 -0.0893 -0.4261 -0.8262
  164SOPE    HB18379   1.660   3.280  10.634 -0.1230  1.2288 -1.3526
  164SOPE    C218380   1.517   3.162  10.508  0.4717 -0.7416  0.2890
  164SOPE    HS18381   1.612   3.111  10.482  1.0468  0.0891  0.7048
  164SOPE   O2118382   1.480   3.260  10.400  0.3772 -0.0607 -1.0946
  164SOPE   C2118383   1.578   3.316  10.352 -0.5426  0.7012  0.6856
  164SOPE   O2218384   1.694   3.310  10.383  0.3018 -0.1718  0.1521
  164SOPE   C2218385   1.520   3.416  10.251  0.1670  0.0212  0.4568
  164SOPE   H2R18386   1.467   3.486  10.319 -1.6727 -2.9789  2.3495
  164SOPE   H2S18387   1.440   3.359  10.200 -2.0353  2.0559  1.4167
  164SOPE    C318388   1.399   3.065  10.531 -0.0223  0.1482 -0.6538
  164SOPE    HX18389   1.301   3.119  10.538 -0.0959 -0.1374  0.6219
  164SOPE    HY18390   1.420   3.032  10.634  0.2449  0.7529 -0.5114
  164SOPE   O3118391   1.390   2.963  10.427 -0.1835 -0.0282  0.4958
  164SOPE   C3118392   1.427   2.844  10.458 -0.1868  0.3601  0.2037
  164SOPE   O3218393   1.488   2.807  10.557 -0.0203 -0.5235 -0.6486
  164SOPE   C3218394   1.346   2.747  10.359 -0.3548 -0.0306 -0.1841
  164SOPE   H2X18395   1.246   2.794  10.347 -0.6347 -1.0663 -2.3701
  164SOPE   H2Y18396   1.329   2.655  10.419  1.4899 -0.1881  0.1732
  164SOPE   C2318397   1.624   3.508  10.174 -0.0932 -0.5525 -0.7077
  164SOPE   H3R18398   1.711   3.526  10.240 -1.0664  2.0946 -0.0482
  164SOPE   H3S18399   1.583   3.606  10.140  0.4482 -1.2369 -3.6148
  164SOPE   C2418400   1.678   3.449  10.036 -0.1194  0.1048  0.5702
  164SOPE   H4R18401   1.746   3.523   9.987 -0.4200 -0.7212 -1.1648
  164SOPE   H4S18402   1.732   3.356  10.063  1.0346  0.7853  0.6883
  164SOPE   C2518403   1.569   3.415   9.936  0.2631 -0.0749  0.3597
  164SOPE   H5R18404   1.487   3.356   9.981  2.4293 -2.5768  1.3320
  164SOPE   H5S18405   1.523   3.512   9.907 -1.6912 -1.2457 -0.6556
  164SOPE   C2618406   1.627   3.357   9.803  0.0135  0.3019  0.2771
  164SOPE   H6R18407   1.730   3.318   9.815  0.3863  0.3514 -2.3611
  164SOPE   H6S18408   1.556   3.278   9.770 -0.5901  1.1138 -0.4039
  164SOPE   C2718409   1.646   3.466   9.696  0.1018 -0.3072 -0.2285
  164SOPE   H7R18410   1.548   3.519   9.694 -1.4077 -2.5670  3.2122
  164SOPE   H7S18411   1.726   3.536   9.729  2.1462 -2.4116 -0.5021
  164SOPE   C2818412   1.692   3.422   9.558  0.9839 -0.0328  0.9626
  164SOPE   H8R18413   1.793   3.381   9.578  1.3145 -0.5109 -1.4032
  164SOPE   H8S18414   1.627   3.340   9.521  0.9958  0.7079 -0.7947
  164SOPE   C2918415   1.703   3.530   9.448  0.2733 -0.2470  0.2865
  164SOPE   H9118416   1.742   3.630   9.470  1.1428 -0.2943 -0.9294
  164SOPE  C21018417   1.670   3.510   9.318 -0.3843  0.0656  0.4592
  164SOPE  H10118418   1.681   3.597   9.252 -1.1841  0.1757  0.4643
  164SOPE  C21118419   1.617   3.388   9.246  0.0010  0.5900  0.7644
  164SOPE  H11R18420   1.506   3.386   9.238  0.1002 -2.8126 -3.1506
  164SOPE  H11S18421   1.628   3.295   9.306 -0.1558 -0.8920 -1.3782
  164SOPE  C21218422   1.671   3.381   9.105 -0.1472 -0.0045  0.7409
  164SOPE  H12R18423   1.682   3.273   9.078  0.2593  0.3100 -0.3933
  164SOPE  H12S18424   1.781   3.391   9.093 -0.0589 -2.5253 -1.6515
  164SOPE  C21318425   1.610   3.464   8.995  0.2654 -0.1104  0.9780
  164SOPE  H13R18426   1.666   3.559   8.985  1.5787 -1.0633 -1.7858
  164SOPE  H13S18427   1.506   3.492   9.023 -0.3782 -1.6399  0.2236
  164SOPE  C21418428   1.616   3.387   8.865  0.0411 -0.5056 -0.1880
  164SOPE  H14R18429   1.587   3.281   8.876  1.1042 -0.7992 -0.0883
  164SOPE  H14S18430   1.725   3.386   8.842  0.1981  2.2038  0.0392
  164SOPE  C21518431   1.541   3.451   8.745 -0.6194  0.2354  0.0341
  164SOPE  H15R18432   1.540   3.561   8.763  1.8298  0.0486  1.7298
  164SOPE  H15S18433   1.434   3.420   8.745 -1.6726  2.9828 -3.9827
  164SOPE  C21618434   1.594   3.405   8.603 -0.3904  0.3964 -0.4969
  164SOPE  H16R18435   1.615   3.296   8.610 -0.7386  0.4055  0.7741
  164SOPE  H16S18436   1.696   3.446   8.587 -0.1307  0.8802  1.9974
  164SOPE  C21718437   1.494   3.445   8.492 -0.3766  0.3902 -0.5098
  164SOPE  H17R18438   1.394   3.407   8.521 -0.6834  1.8383  0.4603
  164SOPE  H17S18439   1.524   3.388   8.402  0.1459 -0.8896  0.4441
  164SOPE  C21818440   1.480   3.597   8.465  0.4715 -0.6839 -0.1749
  164SOPE  H18R18441   1.574   3.635   8.421 -0.4363  3.6729  1.1527
  164SOPE  H18S18442   1.467   3.664   8.552  0.8140  0.0951 -0.7172
  164SOPE  H18T18443   1.405   3.613   8.385 -0.4039  0.8512  0.8863
  164SOPE   C3318444   1.423   2.723  10.231 -0.1564  0.1824  0.2611
  164SOPE   H3X18445   1.397   2.622  10.192 -1.0129  1.3046 -2.3154
  164SOPE   H3Y18446   1.533   2.724  10.252  0.1206 -1.6996 -0.8681
  164SOPE   C3418447   1.398   2.829  10.123  0.3177 -0.0280 -0.7223
  164SOPE   H4X18448   1.444   2.922  10.161 -0.3114  0.2908 -0.7349
  164SOPE   H4Y18449   1.288   2.846  10.121  0.6180  2.3724  0.2315
  164SOPE   C3518450   1.451   2.797   9.982  0.2817 -0.1736  0.5189
  164SOPE   H5X18451   1.422   2.690   9.968 -2.3323  0.6012 -0.4795
  164SOPE   H5Y18452   1.561   2.784   9.994  0.0982  0.1829  2.8876
  164SOPE   C3618453   1.424   2.899   9.875 -0.2131  0.1548  0.4720
  164SOPE   H6X18454   1.474   2.994   9.901 -1.4422 -0.0068  3.9784
  164SOPE   H6Y18455   1.318   2.924   9.854 -0.1542 -1.2840 -2.0084
  164SOPE   C3718456   1.476   2.861   9.737  0.0302  0.2103  0.2805
  164SOPE   H7X18457   1.449   2.758   9.703  1.6949  0.2284 -1.3063
  164SOPE   H7Y18458   1.587   2.862   9.732  0.0866  2.3138  1.1885
  164SOPE   C3818459   1.424   2.962   9.628 -0.1070 -0.0401 -0.2782
  164SOPE   H8X18460   1.448   3.056   9.682 -0.4909 -0.8566  1.3803
  164SOPE   H8Y18461   1.314   2.953   9.636 -0.0735 -0.3458 -0.1586
  164SOPE   C3918462   1.461   2.940   9.484 -0.0699 -0.3338  0.1869
  164SOPE   H9X18463   1.431   2.839   9.449  1.6071 -0.7520 -0.1206
  164SOPE   H9Y18464   1.570   2.935   9.466 -0.3628  0.9491 -2.4331
  164SOPE  C31018465   1.405   3.041   9.386  0.6346 -0.6412  0.7828
  164SOPE  H10X18466   1.444   3.144   9.398  2.1389 -1.2744  1.6184
  164SOPE  H10Y18467   1.295   3.041   9.400  0.4092 -3.5762 -0.2576
  164SOPE  C31118468   1.416   2.995   9.240 -0.0771  0.3744  0.2590
  164SOPE  H11X18469   1.360   2.899   9.229  0.2727 -0.0196  1.7194
  164SOPE  H11Y18470   1.523   2.965   9.233 -0.5093 -1.0785 -0.9141
  164SOPE  C31218471   1.371   3.089   9.133  0.2398 -0.0078 -0.1223
  164SOPE  H12X18472   1.395   3.194   9.161  0.7235 -0.7064  2.2678
  164SOPE  H12Y18473   1.260   3.091   9.133  0.1853  0.6018  2.4327
  164SOPE  C31318474   1.421   3.052   8.990  0.5845  0.0133  0.0427
  164SOPE  H13X18475   1.394   2.946   8.969  0.9147 -0.4314  1.7364
  164SOPE  H13Y18476   1.531   3.052   8.977  0.5166 -0.9803 -0.6468
  164SOPE  C31418477   1.346   3.150   8.890 -0.2834  0.3391 -0.4359
  164SOPE  H14X18478   1.373   3.250   8.929 -0.8758 -0.0611  1.0649
  164SOPE  H14Y18479   1.240   3.129   8.916  0.3947  0.0444  2.4728
  164SOPE  C31518480   1.359   3.122   8.743 -0.1633  0.9675 -0.4992
  164SOPE  H15X18481   1.457   3.163   8.709  0.5964 -0.7035 -0.4035
  164SOPE  H15Y18482   1.275   3.175   8.693 -1.3883  0.1875  0.6770
  164SOPE  C31618483   1.342   2.972   8.703 -0.1165  0.4740 -0.6220
  164SOPE  H16X18484   1.246   2.938   8.747 -0.4195  0.0398 -1.5797
  164SOPE  H16Y18485   1.420   2.914   8.757 -0.2411 -0.5947 -1.5375
  164SOPE  C31718486   1.346   2.951   8.553  0.2391  0.0176 -1.0108
  164SOPE  H17X18487   1.274   3.011   8.495 -0.7201 -1.7850 -1.7683
  164SOPE  H17Y18488   1.323   2.844   8.534 -0.4059  0.1668 -1.0837
  164SOPE  C31818489   1.491   2.966   8.501 -0.5686 -0.1720  0.5889
  164SOPE  H18X18490   1.491   2.941   8.393  0.4532  0.4426  0.4408
  164SOPE  H18Y18491   1.556   2.896   8.558 -1.8359 -1.4798  0.5129
  164SOPE  H18Z18492   1.520   3.071   8.522 -2.5675  0.7343 -0.8045
  165SOPE     N18493   5.887   3.701  10.842  0.2624  0.1752  0.8106
  165SOPE   HN118494   5.866   3.608  10.883  0.7736 -0.8619 -1.1364
  165SOPE   HN218495   5.877   3.694  10.738  0.5828 -1.5749  0.8665
  165SOPE   HN318496   5.977   3.745  10.870  0.0343  0.5921  0.8840
  165SOPE   C1218497   5.796   3.804  10.900  0.1027 -0.6873  0.1707
  165SOPE  H12A18498   5.828   3.910  10.894 -1.3364 -0.2831 -1.0801
  165SOPE  H12B18499   5.777   3.780  11.007 -2.4132 -0.1042 -0.0676
  165SOPE   C1118500   5.667   3.807  10.818 -0.1934  0.2092  0.1590
  165SOPE  H11A18501   5.693   3.812  10.710  2.6682 -0.7525  0.7289
  165SOPE  H11B18502   5.612   3.894  10.862 -2.3253 -1.1521  0.3508
  165SOPE     P18503   5.459   3.659  10.775  0.0818 -0.0060 -0.0240
  165SOPE   O1318504   5.362   3.724  10.872 -0.2177  0.2026  0.7438
  165SOPE   O1418505   5.440   3.510  10.758 -0.4808  0.7134 -0.0418
  165SOPE   O1218506   5.595   3.685  10.838 -0.1933 -0.0898  0.1080
  165SOPE   O1118507   5.456   3.732  10.630 -0.0144  0.3330  0.2649
  165SOPE    C118508   5.332   3.781  10.587  0.5369  0.3619  0.1831
  165SOPE    HA18509   5.348   3.863  10.514 -2.5732  1.4580  0.5679
  165SOPE    HB18510   5.272   3.825  10.670  0.4485  0.5193  0.0380
  165SOPE    C218511   5.242   3.681  10.520  0.2471  0.3093 -0.6648
  165SOPE    HS18512   5.244   3.591  10.584 -0.5466 -0.3569 -1.5406
  165SOPE   O2118513   5.308   3.645  10.393 -0.0155 -0.2741  0.5107
  165SOPE   C2118514   5.249   3.545  10.323 -1.2335  0.1117 -0.7799
  165SOPE   O2218515   5.178   3.463  10.373 -0.1659 -0.2756  0.8297
  165SOPE   C2218516   5.278   3.558  10.176  0.0040 -0.0798  0.9119
  165SOPE   H2R18517   5.377   3.607  10.163 -0.6131  0.8794 -0.4316
  165SOPE   H2S18518   5.200   3.631  10.144 -0.3749 -0.8069  0.1640
  165SOPE    C318519   5.094   3.726  10.511 -0.2739 -0.1719  1.3851
  165SOPE    HX18520   5.044   3.708  10.609  0.6791  1.1406  2.1492
  165SOPE    HY18521   5.048   3.665  10.430 -0.4564  1.2834  0.3543
  165SOPE   O3118522   5.082   3.870  10.480 -0.3691 -0.3280  0.4324
  165SOPE   C3118523   5.055   3.903  10.356 -0.0946 -0.5870  0.0112
  165SOPE   O3218524   5.030   3.822  10.265 -0.0185 -0.3989 -0.4432
  165SOPE   C3218525   5.042   4.059  10.340 -0.4695  0.4064  0.9160
  165SOPE   H2X18526   5.133   4.102  10.387  2.4889 -3.6665 -0.5422
  165SOPE   H2Y18527   4.959   4.106  10.397 -0.8880  2.6288 -1.3206
  165SOPE   C2318528   5.245   3.433  10.093 -0.1246 -0.1350  1.7513
  165SOPE   H3R18529   5.134   3.429  10.089 -0.2095  2.1427  0.2844
  165SOPE   H3S18530   5.284   3.338  10.137 -1.7117 -1.2635  0.8590
  165SOPE   C2418531   5.309   3.453   9.950 -0.0886 -0.0078  0.0568
  165SOPE   H4R18532   5.408   3.502   9.957 -0.7060  1.0024  2.5694
  165SOPE   H4S18533   5.332   3.361   9.892  2.0430  0.9204 -0.6607
  165SOPE   C2518534   5.215   3.537   9.869 -0.9734  0.1151 -0.4378
  165SOPE   H5R18535   5.112   3.519   9.907 -1.1400  0.6746 -0.6160
  165SOPE   H5S18536   5.234   3.644   9.889 -0.7492 -0.0334  0.1454
  165SOPE   C2618537   5.234   3.540   9.719  0.1860  0.6079 -0.8276
  165SOPE   H6R18538   5.343   3.550   9.697  1.2140 -2.7117  1.8906
  165SOPE   H6S18539   5.202   3.437   9.695 -0.9258  0.6078  0.5452
  165SOPE   C2718540   5.146   3.656   9.668 -0.1181  0.0382  0.0335
  165SOPE   H7R18541   5.053   3.669   9.727 -1.0982  4.6597 -2.0487
  165SOPE   H7S18542   5.200   3.752   9.680  0.1694 -0.2483  1.0978
  165SOPE   C2818543   5.117   3.650   9.520  0.6815 -0.4701  0.2378
  165SOPE   H8R18544   5.059   3.562   9.486 -2.0211  0.1564  2.8859
  165SOPE   H8S18545   5.057   3.742   9.500 -0.7876 -1.2731  0.8325
  165SOPE   C2918546   5.242   3.660   9.436 -0.2244  0.1436 -0.0179
  165SOPE   H9118547   5.338   3.654   9.490  0.0714 -2.9114 -0.7005
  165SOPE  C21018548   5.250   3.647   9.303 -0.0770 -0.1572 -0.5944
  165SOPE  H10118549   5.354   3.634   9.267  0.3280  0.5652  0.2679
  165SOPE  C21118550   5.140   3.614   9.210  0.1014  0.3178  0.2392
  165SOPE  H11R18551   5.040   3.612   9.259 -0.0443  1.5810  0.0476
  165SOPE  H11S18552   5.165   3.517   9.163 -1.1665  0.4575 -0.7759
  165SOPE  C21218553   5.121   3.709   9.095 -0.4564  0.2444 -0.0605
  165SOPE  H12R18554   5.218   3.753   9.064 -1.8357  3.6713  0.0384
  165SOPE  H12S18555   5.079   3.801   9.142  0.4073  0.2503  0.7342
  165SOPE  C21318556   5.038   3.664   8.978 -0.8595  0.3101 -0.7472
  165SOPE  H13R18557   4.932   3.659   9.009 -0.9441  2.8422 -0.4448
  165SOPE  H13S18558   5.075   3.561   8.958 -1.3886 -0.7632  3.0599
  165SOPE  C21418559   5.045   3.744   8.846  0.7812  1.0021  0.6016
  165SOPE  H14R18560   4.955   3.715   8.788  2.1575 -0.8690 -0.7030
  165SOPE  H14S18561   5.131   3.704   8.787  0.9028  2.1062  0.0044
  165SOPE  C21518562   5.062   3.898   8.869 -0.7543  0.5677 -0.3007
  165SOPE  H15R18563   5.149   3.915   8.936 -2.7221 -1.0927  2.9479
  165SOPE  H15S18564   4.979   3.946   8.926  1.6736  2.0428  2.2564
  165SOPE  C21618565   5.074   3.971   8.732  0.0259 -0.5355  0.4717
  165SOPE  H16R18566   5.051   4.075   8.762  3.9096  0.2939  1.1581
  165SOPE  H16S18567   5.007   3.929   8.654  0.0081 -0.1008  0.2514
  165SOPE  C21718568   5.213   3.959   8.663 -0.6054  0.8695 -0.6200
  165SOPE  H17R18569   5.215   4.004   8.562  0.2053  0.4533 -0.7979
  165SOPE  H17S18570   5.228   3.849   8.660 -3.8971  0.3461 -3.4730
  165SOPE  C21818571   5.310   4.031   8.746  0.1947  0.5768  0.4040
  165SOPE  H18R18572   5.274   4.135   8.759 -0.7798  0.4984 -1.2852
  165SOPE  H18S18573   5.406   4.045   8.692 -0.4223 -2.1369 -1.6081
  165SOPE  H18T18574   5.320   3.995   8.850  0.2484  0.2608  0.2888
  165SOPE   C3318575   5.036   4.112  10.188  0.2844  0.2214 -0.0683
  165SOPE   H3X18576   5.025   4.223  10.186  2.3690  0.5054  1.4224
  165SOPE   H3Y18577   4.945   4.071  10.138  0.1232 -0.8487  1.0504
  165SOPE   C3418578   5.159   4.071  10.105  0.1127 -0.0477  0.4611
  165SOPE   H4X18579   5.199   3.968  10.116 -0.0984 -0.8634 -4.3114
  165SOPE   H4Y18580   5.238   4.145  10.128  0.7803 -0.2781 -1.0057
  165SOPE   C3518581   5.110   4.062   9.962 -0.4614 -0.1724  0.4093
  165SOPE   H5X18582   5.036   4.138   9.929 -0.0617 -0.3961 -1.1261
  165SOPE   H5Y18583   5.048   3.970   9.950  0.2589 -0.3594 -3.2825
  165SOPE   C3618584   5.228   4.057   9.856 -0.3402  0.3303 -0.4093
  165SOPE   H6X18585   5.279   3.965   9.893 -2.1026 -0.7070 -0.4481
  165SOPE   H6Y18586   5.280   4.153   9.877  0.7779 -0.5685  1.1570
  165SOPE   C3718587   5.182   4.047   9.708 -0.3701 -0.0767  0.6252
  165SOPE   H7X18588   5.105   4.126   9.693 -0.0244  0.2448  0.5162
  165SOPE   H7Y18589   5.136   3.948   9.691  1.4338 -0.2871 -4.9556
  165SOPE   C3818590   5.295   4.063   9.607  0.2675 -0.1379 -0.3868
  165SOPE   H8X18591   5.360   3.973   9.600  0.5649  0.0182  0.2394
  165SOPE   H8Y18592   5.359   4.149   9.637 -1.9790  0.7885  2.0928
  165SOPE   C3918593   5.237   4.091   9.466 -0.0862 -0.1505  0.5193
  165SOPE   H9X18594   5.182   4.187   9.474  1.7319  1.2010 -1.8823
  165SOPE   H9Y18595   5.180   4.001   9.435 -0.9642  0.8859 -1.0326
  165SOPE  C31018596   5.348   4.121   9.360  0.6838 -0.1596 -0.4715
  165SOPE  H10X18597   5.419   4.036   9.361  0.2854 -0.5145 -1.6507
  165SOPE  H10Y18598   5.386   4.224   9.377 -1.1555  0.4421  0.2307
  165SOPE  C31118599   5.291   4.111   9.221  0.0759 -0.4072 -0.0266
  165SOPE  H11X18600   5.253   4.007   9.213 -2.0792  0.1839  1.5347
  165SOPE  H11Y18601   5.383   4.119   9.159 -0.7512 -0.2746 -1.2647
  165SOPE  C31218602   5.186   4.212   9.188  0.4859 -0.1191 -0.3763
  165SOPE  H12X18603   5.109   4.212   9.268  0.3688  2.0654 -0.4404
  165SOPE  H12Y18604   5.134   4.181   9.095  2.3232 -0.5056 -1.2997
  165SOPE  C31318605   5.247   4.349   9.160  0.8149 -0.0097 -0.3106
  165SOPE  H13X18606   5.319   4.334   9.077 -0.9587 -1.5791 -1.6433
  165SOPE  H13Y18607   5.301   4.394   9.246 -0.4185  2.3230 -0.6861
  165SOPE  C31418608   5.137   4.446   9.113  0.1533  0.0485 -0.0199
  165SOPE  H14X18609   5.070   4.469   9.198 -0.4883  1.4458 -0.8597
  165SOPE  H14Y18610   5.073   4.405   9.032 -0.8782 -0.1294  0.8658
  165SOPE  C31518611   5.195   4.583   9.057 -0.3481 -0.9333  0.7591
  165SOPE  H15X18612   5.281   4.628   9.111 -2.0233  3.0914  0.4418
  165SOPE  H15Y18613   5.112   4.656   9.042 -0.9207 -1.6974  0.1251
  165SOPE  C31618614   5.256   4.554   8.916 -0.1700 -0.2506  0.2036
  165SOPE  H16X18615   5.201   4.474   8.861 -0.2266 -0.2770  0.2991
  165SOPE  H16Y18616   5.360   4.516   8.926 -0.8682 -2.1314  0.6084
  165SOPE  C31718617   5.256   4.671   8.823 -0.0812 -0.1607 -0.3594
  165SOPE  H17X18618   5.294   4.759   8.879 -0.6799  0.8768 -1.5324
  165SOPE  H17Y18619   5.156   4.711   8.793 -0.4750  0.0449  1.1296
  165SOPE  C31818620   5.349   4.657   8.703 -0.0825  0.0533 -0.2752
  165SOPE  H18X18621   5.328   4.563   8.647  1.4191 -1.4744  1.5953
  165SOPE  H18Y18622   5.458   4.653   8.725  0.1982  1.5966 -1.2308
  165SOPE  H18Z18623   5.350   4.739   8.628 -1.5003 -1.4721 -2.0507
  166SOPE     N18624   4.700   4.008  10.914 -0.3479  0.9656 -0.7249
  166SOPE   HN118625   4.620   3.943  10.930 -1.1917  2.3259  1.0079
  166SOPE   HN218626   4.785   3.970  10.959 -0.3187  0.7822 -0.9369
  166SOPE   HN318627   4.672   4.085  10.978 -1.8702 -1.5200  1.8470
  166SOPE   C1218628   4.727   4.050  10.769  0.1082 -0.2685 -0.1529
  166SOPE  H12A18629   4.651   4.126  10.741 -1.2548 -1.8813 -0.9630
  166SOPE  H12B18630   4.710   3.965  10.700 -0.0469  1.0059 -1.7464
  166SOPE   C1118631   4.865   4.111  10.769  0.1808 -0.0283 -0.4620
  166SOPE  H11A18632   4.889   4.133  10.663 -0.0803  2.3618 -0.0865
  166SOPE  H11B18633   4.941   4.047  10.819  0.2155  1.0940  0.9933
  166SOPE     P18634   4.959   4.352  10.819 -0.1346 -0.4553 -0.2821
  166SOPE   O1318635   5.102   4.304  10.824  0.5042  0.2416 -0.1437
  166SOPE   O1418636   4.927   4.464  10.907 -0.0808  0.1675 -0.1201
  166SOPE   O1218637   4.862   4.231  10.845 -0.7463  0.2414 -0.3643
  166SOPE   O1118638   4.915   4.383  10.665  0.1069  0.1589 -0.5566
  166SOPE    C118639   5.013   4.417  10.564  0.0602 -0.7325  0.2371
  166SOPE    HA18640   4.970   4.394  10.464 -0.8236  0.6435  0.2685
  166SOPE    HB18641   5.111   4.366  10.565  0.8054  0.6001  2.3292
  166SOPE    C218642   5.043   4.565  10.559  0.4739  0.0519  0.0725
  166SOPE    HS18643   5.071   4.593  10.663  2.0150  0.4925 -0.4370
  166SOPE   O2118644   4.925   4.633  10.520  0.2816  0.2488 -0.9007
  166SOPE   C2118645   4.926   4.766  10.520  0.3499  0.1162 -0.2856
  166SOPE   O2218646   5.006   4.841  10.574  0.6594  0.5770 -0.2654
  166SOPE   C2218647   4.809   4.818  10.442  0.1619  0.3411  0.2415
  166SOPE   H2R18648   4.715   4.795  10.498  0.4039 -0.8508  0.1692
  166SOPE   H2S18649   4.807   4.763  10.346  0.1929  0.8306 -0.0432
  166SOPE    C318650   5.166   4.597  10.470 -0.1740 -0.7313 -0.4156
  166SOPE    HX18651   5.250   4.549  10.525  0.5703 -0.1317 -1.0089
  166SOPE    HY18652   5.181   4.707  10.464 -3.0793 -0.2096  0.2387
  166SOPE   O3118653   5.144   4.535  10.337  0.2928 -0.1025  0.0322
  166SOPE   C3118654   5.244   4.561  10.260  0.4282 -0.3936  0.1006
  166SOPE   O3218655   5.353   4.607  10.299 -0.3055  0.6640  0.1204
  166SOPE   C3218656   5.211   4.529  10.113 -0.1703  0.4021 -0.3296
  166SOPE   H2X18657   5.147   4.608  10.070 -0.3720  0.2302 -0.3444
  166SOPE   H2Y18658   5.165   4.428  10.109  1.5901 -0.6224  2.2159
  166SOPE   C2318659   4.814   4.964  10.395 -0.4591  0.6184  0.5361
  166SOPE   H3R18660   4.898   4.975  10.323 -1.0589  0.9709 -0.1227
  166SOPE   H3S18661   4.821   5.043  10.474  1.4748  0.6571  0.3776
  166SOPE   C2418662   4.700   4.984  10.295  0.6523 -0.0263  0.3741
  166SOPE   H4R18663   4.691   4.909  10.214  0.5753  3.3982 -3.0810
  166SOPE   H4S18664   4.602   4.995  10.347  0.9836  2.7255  0.5794
  166SOPE   C2518665   4.715   5.127  10.222 -0.0296 -0.3218 -0.0473
  166SOPE   H5R18666   4.608   5.147  10.200  0.1427 -0.5411 -1.1492
  166SOPE   H5S18667   4.749   5.198  10.301  0.7239 -0.3051 -0.3719
  166SOPE   C2618668   4.800   5.130  10.095  0.7164  0.3433  0.0033
  166SOPE   H6R18669   4.800   5.234  10.057  0.2605  1.0434  1.8246
  166SOPE   H6S18670   4.904   5.105  10.125  0.6606 -1.4510 -1.1435
  166SOPE   C2718671   4.740   5.045   9.984 -0.0963 -0.3937 -0.4761
  166SOPE   H7R18672   4.759   4.936  10.000 -1.2826 -0.3872  1.1576
  166SOPE   H7S18673   4.630   5.052   9.971  0.1316  1.5389 -1.8078
  166SOPE   C2818674   4.806   5.082   9.848 -0.3302 -0.1296  0.3497
  166SOPE   H8R18675   4.915   5.100   9.860  0.8135 -3.8560 -2.4772
  166SOPE   H8S18676   4.805   4.988   9.788  0.3710 -0.6224  1.0971
  166SOPE   C2918677   4.731   5.197   9.792 -0.7309 -1.1574  0.1620
  166SOPE   H9118678   4.728   5.293   9.847  2.8739 -0.4098 -0.6900
  166SOPE  C21018679   4.674   5.201   9.671 -0.5415 -0.3050 -0.0662
  166SOPE  H10118680   4.613   5.287   9.639 -0.1186 -0.0090 -0.0853
  166SOPE  C21118681   4.669   5.079   9.587  0.2748 -0.1571  0.0229
  166SOPE  H11R18682   4.598   5.014   9.643  0.8505 -1.0952 -0.3060
  166SOPE  H11S18683   4.773   5.040   9.579  0.1649 -0.6256  0.8330
  166SOPE  C21218684   4.607   5.098   9.449 -0.4877  0.0044 -0.4008
  166SOPE  H12R18685   4.511   5.148   9.472 -1.2637  0.1692 -3.5190
  166SOPE  H12S18686   4.589   4.993   9.416 -0.3239 -0.1309 -0.0614
  166SOPE  C21318687   4.682   5.179   9.342  0.0588 -0.3047  0.0189
  166SOPE  H13R18688   4.773   5.128   9.305  0.3368  0.5604 -0.5120
  166SOPE  H13S18689   4.695   5.283   9.379  1.7106 -0.9108  1.2680
  166SOPE  C21418690   4.601   5.191   9.213  0.4433 -0.1679  0.1459
  166SOPE  H14R18691   4.499   5.228   9.235  0.6299  1.4346 -1.4214
  166SOPE  H14S18692   4.587   5.091   9.168  2.9194 -0.6976  0.3932
  166SOPE  C21518693   4.662   5.303   9.115 -0.0128  0.5060  0.3963
  166SOPE  H15R18694   4.654   5.407   9.154  1.3660  0.6218  0.4276
  166SOPE  H15S18695   4.612   5.309   9.017 -1.3582  0.7322  1.0801
  166SOPE  C21618696   4.814   5.284   9.103 -0.1448 -0.4335  0.7237
  166SOPE  H16R18697   4.830   5.176   9.083 -0.3459 -0.4284  0.5308
  166SOPE  H16S18698   4.868   5.324   9.191 -0.2733  2.8827 -0.5480
  166SOPE  C21718699   4.869   5.352   8.975 -0.1064  0.5368 -0.3948
  166SOPE  H17R18700   4.852   5.462   8.979  1.4454  0.7974 -0.1836
  166SOPE  H17S18701   4.804   5.317   8.892  1.7933 -3.4741 -0.4220
  166SOPE  C21818702   5.016   5.320   8.954 -0.0347 -0.1208  0.9258
  166SOPE  H18R18703   5.077   5.371   9.031 -1.0720  3.4274 -0.3941
  166SOPE  H18S18704   5.059   5.345   8.855  2.6643 -1.1187  1.7640
  166SOPE  H18T18705   5.035   5.211   8.963  2.4763  0.0454 -1.1031
  166SOPE   C3318706   5.355   4.521  10.046 -0.3502  0.4418  0.6218
  166SOPE   H3X18707   5.420   4.451  10.103  0.4448  1.2839  0.7776
  166SOPE   H3Y18708   5.404   4.621  10.051  1.6218 -0.5380  2.5136
  166SOPE   C3418709   5.347   4.466   9.904  0.1159 -0.2120  0.6303
  166SOPE   H4X18710   5.302   4.551   9.848 -1.7567  0.6396  3.2043
  166SOPE   H4Y18711   5.268   4.388   9.907  0.5503 -0.6904 -0.2651
  166SOPE   C3518712   5.488   4.427   9.847 -0.3808 -0.5866 -0.3922
  166SOPE   H5X18713   5.516   4.345   9.916 -1.3614 -0.4220  0.2256
  166SOPE   H5Y18714   5.557   4.505   9.886 -1.7321 -0.0566  1.0585
  166SOPE   C3618715   5.486   4.422   9.691 -0.1982  0.0456 -0.4181
  166SOPE   H6X18716   5.441   4.516   9.651  0.3959 -0.3534 -2.0971
  166SOPE   H6Y18717   5.411   4.345   9.663 -0.8571  0.9247 -1.1455
  166SOPE   C3718718   5.632   4.384   9.639 -0.1376 -0.2120 -1.3716
  166SOPE   H7X18719   5.660   4.292   9.694 -2.0677  1.4413  2.8604
  166SOPE   H7Y18720   5.699   4.468   9.667  1.0724 -0.5930 -3.0086
  166SOPE   C3818721   5.644   4.393   9.487 -0.4817  0.6503 -0.6371
  166SOPE   H8X18722   5.564   4.329   9.445 -0.8305 -0.0534  0.9883
  166SOPE   H8Y18723   5.745   4.351   9.465 -1.0445 -0.5183 -1.1113
  166SOPE   C3918724   5.634   4.538   9.425 -0.6800  0.0347 -0.1179
  166SOPE   H9X18725   5.725   4.599   9.441  0.2723 -0.2085 -3.7367
  166SOPE   H9Y18726   5.545   4.586   9.470 -1.9575 -0.4582 -1.9954
  166SOPE  C31018727   5.638   4.526   9.268 -0.0048 -0.0964  0.0865
  166SOPE  H10X18728   5.554   4.469   9.224 -1.4826  3.3486 -1.9420
  166SOPE  H10Y18729   5.731   4.472   9.242  0.7734 -0.0238  2.4783
  166SOPE  C31118730   5.649   4.668   9.204  0.3308  0.3008 -0.0008
  166SOPE  H11X18731   5.735   4.713   9.258  0.9831 -0.9654  0.0652
  166SOPE  H11Y18732   5.556   4.726   9.223  0.4763  0.8055 -0.8187
  166SOPE  C31218733   5.678   4.671   9.053  0.5668 -0.0392  0.1173
  166SOPE  H12X18734   5.594   4.628   8.996  0.1469  0.3447  0.4407
  166SOPE  H12Y18735   5.777   4.624   9.032  1.4241  2.1444 -1.0600
  166SOPE  C31318736   5.690   4.817   9.004 -0.4253 -0.6779  1.0329
  166SOPE  H13X18737   5.769   4.864   9.066 -0.2308  0.2087  0.1449
  166SOPE  H13Y18738   5.595   4.872   9.025 -0.1287  0.1014  0.3833
  166SOPE  C31418739   5.744   4.835   8.869 -0.5180  0.0326  1.3349
  166SOPE  H14X18740   5.772   4.940   8.846  1.1668 -0.4613  1.0108
  166SOPE  H14Y18741   5.670   4.812   8.789 -0.6233 -0.5448  1.5965
  166SOPE  C31518742   5.870   4.748   8.835 -0.1043  0.1372  0.0744
  166SOPE  H15X18743   5.855   4.640   8.855  0.9575  0.0335  0.3732
  166SOPE  H15Y18744   5.955   4.773   8.902  1.0221  0.6460 -1.4663
  166SOPE  C31618745   5.920   4.776   8.687 -0.2571 -0.4276 -1.0737
  166SOPE  H16X18746   5.937   4.883   8.665 -0.2147 -0.3449 -0.6520
  166SOPE  H16Y18747   5.828   4.747   8.632 -0.8104 -1.5243  0.3534
  166SOPE  C31718748   6.028   4.679   8.645  0.0820 -0.3589 -0.7359
  166SOPE  H17X18749   6.045   4.670   8.536  0.5517 -1.6825 -0.5797
  166SOPE  H17Y18750   5.990   4.579   8.678  1.2240 -1.0436 -1.4393
  166SOPE  C31818751   6.161   4.721   8.702  0.1768  0.7463 -0.5816
  166SOPE  H18X18752   6.240   4.660   8.653  0.5661 -0.1902  1.1191
  166SOPE  H18Y18753   6.156   4.696   8.810  0.3837  0.2911 -0.6746
  166SOPE  H18Z18754   6.190   4.828   8.693  2.4097  0.2990  0.5982
  167SOPE     N18755   3.391   4.097   6.050  0.4728 -0.3702 -0.0301
  167SOPE   HN118756   3.415   4.151   6.135 -0.9325  2.0977 -1.1093
  167SOPE   HN218757   3.453   4.013   6.052  1.6387  0.4279 -1.0100
  167SOPE   HN318758   3.412   4.156   5.968 -0.1333 -2.9026 -2.1576
  167SOPE   C1218759   3.249   4.046   6.052  0.2982 -0.4704  0.4308
  167SOPE  H12A18760   3.240   3.995   5.954  0.9254 -1.8423  1.0624
  167SOPE  H12B18761   3.170   4.122   6.069  1.4195  1.0306 -0.8375
  167SOPE   C1118762   3.217   3.928   6.147 -0.5840  0.6064  0.1169
  167SOPE  H11A18763   3.112   3.891   6.136 -0.1754 -0.3934 -0.5674
  167SOPE  H11B18764   3.232   3.957   6.254  0.9361  1.8516 -0.4069
  167SOPE     P18765   3.319   3.701   6.209 -0.0109 -0.5950 -0.3620
  167SOPE   O1318766   3.414   3.597   6.158  0.5698  0.5797  0.1916
  167SOPE   O1418767   3.180   3.648   6.207 -0.0495 -0.1939 -0.7137
  167SOPE   O1218768   3.311   3.826   6.113  0.0700  0.4462 -0.3452
  167SOPE   O1118769   3.359   3.745   6.358  0.4569  0.0467 -0.2966
  167SOPE    C118770   3.490   3.781   6.391  0.2925 -0.2181 -0.0440
  167SOPE    HA18771   3.533   3.849   6.314 -1.3859  1.4569  0.4186
  167SOPE    HB18772   3.543   3.684   6.384  3.0985  1.0217  2.0507
  167SOPE    C218773   3.499   3.843   6.530 -0.5073  0.1476 -0.1515
  167SOPE    HS18774   3.609   3.841   6.549 -0.3577  0.9909 -0.8693
  167SOPE   O2118775   3.427   3.772   6.631  0.5778 -0.2316 -0.0308
  167SOPE   C2118776   3.449   3.643   6.646 -0.1493 -0.0600  0.0890
  167SOPE   O2218777   3.542   3.581   6.597 -0.5993 -0.1370 -0.1368
  167SOPE   C2218778   3.361   3.594   6.759  0.2884 -0.5144  0.0449
  167SOPE   H2R18779   3.361   3.483   6.764 -1.3753 -0.5887 -0.8008
  167SOPE   H2S18780   3.255   3.627   6.749  0.2943 -0.6075 -0.3180
  167SOPE    C318781   3.440   3.987   6.524  0.7468 -0.0418 -0.6782
  167SOPE    HX18782   3.342   3.997   6.472 -0.2546  1.0066  1.2971
  167SOPE    HY18783   3.512   4.045   6.462  2.4462  1.0818  2.1381
  167SOPE   O3118784   3.439   4.056   6.655  0.4746 -0.1021  0.0611
  167SOPE   C3118785   3.332   4.050   6.726  0.3157  0.8823  0.9258
  167SOPE   O3218786   3.231   3.984   6.699 -0.0703  0.1905 -0.0282
  167SOPE   C3218787   3.354   4.115   6.859 -0.1507 -0.1591  0.3231
  167SOPE   H2X18788   3.306   4.214   6.846 -1.5389 -0.8345  0.1208
  167SOPE   H2Y18789   3.463   4.132   6.877 -0.0078  1.2424 -1.6109
  167SOPE   C2318790   3.412   3.656   6.896 -0.2372  0.5339  0.2507
  167SOPE   H3R18791   3.403   3.766   6.895  0.3869  0.6078  1.1425
  167SOPE   H3S18792   3.519   3.626   6.892 -0.6637 -1.0898  0.2548
  167SOPE   C2418793   3.346   3.593   7.015 -0.4942 -0.4170 -0.2585
  167SOPE   H4R18794   3.243   3.624   7.044  0.5065 -0.1751  3.5897
  167SOPE   H4S18795   3.347   3.483   7.000 -0.0492 -0.3831 -0.4925
  167SOPE   C2518796   3.436   3.615   7.148 -0.1577 -0.4080  0.3200
  167SOPE   H5R18797   3.541   3.592   7.118 -0.7599  0.0229 -2.4697
  167SOPE   H5S18798   3.424   3.723   7.169 -4.3877 -0.5482 -0.4686
  167SOPE   C2618799   3.386   3.540   7.272  0.1045  0.0644 -0.2629
  167SOPE   H6R18800   3.280   3.563   7.298  0.3643  0.8902  0.0997
  167SOPE   H6S18801   3.395   3.430   7.259  0.1322 -0.2398  1.8556
  167SOPE   C2718802   3.479   3.561   7.393  0.1170 -0.1403  0.2984
  167SOPE   H7R18803   3.431   3.501   7.473  2.9842 -2.1091  0.6726
  167SOPE   H7S18804   3.581   3.519   7.380  0.1707  0.7642 -3.2236
  167SOPE   C2818805   3.497   3.709   7.433 -0.1703  0.0024  0.1575
  167SOPE   H8R18806   3.571   3.690   7.514 -0.8828 -0.6612  0.6610
  167SOPE   H8S18807   3.528   3.776   7.350 -2.6699 -0.5474 -1.3142
  167SOPE   C2918808   3.380   3.766   7.500  0.0484 -0.8816 -0.1341
  167SOPE   H9118809   3.297   3.808   7.441  0.1688 -1.6038 -0.8416
  167SOPE  C21018810   3.349   3.755   7.633 -0.2025 -0.4753  0.7123
  167SOPE  H10118811   3.262   3.809   7.673  1.1968  1.5669  1.2255
  167SOPE  C21118812   3.425   3.678   7.736  0.2100  0.4921 -0.0691
  167SOPE  H11R18813   3.529   3.718   7.745  0.2078  1.2631 -2.5508
  167SOPE  H11S18814   3.427   3.569   7.714 -1.2591  0.5888 -0.7681
  167SOPE  C21218815   3.357   3.697   7.874  0.4519 -0.2143 -0.0794
  167SOPE  H12R18816   3.253   3.657   7.874  0.2732 -0.1487  3.7416
  167SOPE  H12S18817   3.356   3.803   7.907  0.4912 -0.6073  1.2439
  167SOPE  C21318818   3.436   3.617   7.973  0.1636  0.3631  0.1662
  167SOPE  H13R18819   3.542   3.649   7.983  0.3115 -0.4851  1.5341
  167SOPE  H13S18820   3.427   3.507   7.960  0.0861  0.5974 -2.2077
  167SOPE  C21418821   3.387   3.647   8.120 -0.1020 -0.4770  0.9127
  167SOPE  H14R18822   3.410   3.753   8.141 -2.4101  0.1887  0.4088
  167SOPE  H14S18823   3.438   3.584   8.196  1.1087  1.0150  1.3783
  167SOPE  C21518824   3.238   3.637   8.144  1.3476  0.3765 -0.5240
  167SOPE  H15R18825   3.206   3.531   8.138 -3.5042  1.4842  1.0797
  167SOPE  H15S18826   3.175   3.685   8.065 -1.4129 -0.7157  0.9045
  167SOPE  C21618827   3.185   3.694   8.276  0.5548 -0.7719  0.5329
  167SOPE  H16R18828   3.202   3.804   8.278  1.7217 -0.8938 -0.7607
  167SOPE  H16S18829   3.244   3.662   8.364 -0.1637  1.0224  1.7439
  167SOPE  C21718830   3.035   3.674   8.310  0.1129  0.0125  0.0060
  167SOPE  H17R18831   3.006   3.568   8.329 -2.1115  0.7858  1.3011
  167SOPE  H17S18832   2.970   3.692   8.222 -0.9374 -0.4347  0.6778
  167SOPE  C21818833   2.987   3.754   8.430  0.7275 -0.8470 -0.3255
  167SOPE  H18R18834   2.984   3.861   8.400 -0.5419 -0.8645 -0.3317
  167SOPE  H18S18835   3.045   3.743   8.524 -1.1518 -0.2195  0.9428
  167SOPE  H18T18836   2.882   3.720   8.443 -0.4607  1.1190 -3.6380
  167SOPE   C3318837   3.290   4.051   6.977 -0.6703  0.3748  0.2492
  167SOPE   H3X18838   3.316   3.944   6.988 -0.9439  0.4148  1.4948
  167SOPE   H3Y18839   3.180   4.066   6.968 -0.4194  2.6129  0.2735
  167SOPE   C3418840   3.338   4.128   7.102 -0.5220  0.0597 -1.0773
  167SOPE   H4X18841   3.337   4.238   7.094  0.2393  0.2000  0.4394
  167SOPE   H4Y18842   3.447   4.112   7.122 -1.0117 -0.9317  1.1699
  167SOPE   C3518843   3.252   4.096   7.222  0.0621 -0.1924  0.6348
  167SOPE   H5X18844   3.225   3.989   7.231 -1.9417  0.3002  1.0597
  167SOPE   H5Y18845   3.159   4.144   7.185  0.8466  1.7440  1.0244
  167SOPE   C3618846   3.281   4.168   7.349 -0.4009 -0.4256  0.6701
  167SOPE   H6X18847   3.209   4.133   7.426 -2.5819 -0.3552 -1.2487
  167SOPE   H6Y18848   3.243   4.269   7.325 -1.8700 -1.0346  0.3453
  167SOPE   C3718849   3.434   4.160   7.393  0.2266  0.4312  0.1580
  167SOPE   H7X18850   3.495   4.208   7.314 -0.9270  0.0693 -0.9793
  167SOPE   H7Y18851   3.455   4.052   7.403  0.7653  0.2953 -1.9455
  167SOPE   C3818852   3.447   4.242   7.524 -0.2176 -1.0055  0.0855
  167SOPE   H8X18853   3.405   4.343   7.506 -1.4530 -1.3876  0.7026
  167SOPE   H8Y18854   3.557   4.253   7.519 -0.0501 -2.8637 -2.8231
  167SOPE   C3918855   3.394   4.167   7.643 -0.0622 -0.7380  0.3205
  167SOPE   H9X18856   3.449   4.071   7.651  2.1621  0.2398 -1.8764
  167SOPE   H9Y18857   3.287   4.137   7.633  0.2071 -1.8009  0.4495
  167SOPE  C31018858   3.415   4.240   7.774  0.4813  0.4149  0.4050
  167SOPE  H10X18859   3.373   4.343   7.764 -0.2008  0.0358 -0.9566
  167SOPE  H10Y18860   3.523   4.252   7.795  0.3997  2.5043 -0.1520
  167SOPE  C31118861   3.338   4.175   7.890  0.6215 -0.0080  0.0007
  167SOPE  H11X18862   3.389   4.084   7.929  1.1563  0.7016  0.9975
  167SOPE  H11Y18863   3.232   4.160   7.860  0.5918 -3.1343  1.2972
  167SOPE  C31218864   3.347   4.266   8.019 -0.0524  0.3150  0.0370
  167SOPE  H12X18865   3.323   4.370   7.988  0.5771  0.2250 -0.8011
  167SOPE  H12Y18866   3.452   4.252   8.052  0.2672 -0.6438 -1.2928
  167SOPE  C31318867   3.271   4.221   8.148 -0.5803 -0.7834 -0.2151
  167SOPE  H13X18868   3.292   4.303   8.221  0.9515 -1.1682 -0.1827
  167SOPE  H13Y18869   3.324   4.136   8.195  2.8884  1.9192  1.2247
  167SOPE  C31418870   3.126   4.202   8.129  0.3626 -0.1259  0.3910
  167SOPE  H14X18871   3.113   4.112   8.065  0.6215  1.0577 -1.4191
  167SOPE  H14Y18872   3.062   4.274   8.073 -1.2546 -1.6114  0.2399
  167SOPE  C31518873   3.057   4.156   8.258 -0.1541  0.1377  0.5292
  167SOPE  H15X18874   3.054   4.238   8.333  0.8123 -1.9146  2.9810
  167SOPE  H15Y18875   3.117   4.076   8.307  0.5043 -0.4004 -1.0770
  167SOPE  C31618876   2.911   4.122   8.235  0.7874  0.1283  0.1637
  167SOPE  H16X18877   2.901   4.032   8.171  3.8376  0.6971 -1.3162
  167SOPE  H16Y18878   2.863   4.210   8.187  1.2697 -0.5304 -1.6158
  167SOPE  C31718879   2.842   4.104   8.375  0.4263 -0.1128 -0.5024
  167SOPE  H17X18880   2.922   4.076   8.446  2.3840 -2.0891 -3.2396
  167SOPE  H17Y18881   2.765   4.024   8.383  0.8630 -0.4320  0.7501
  167SOPE  C31818882   2.773   4.241   8.412 -0.4765  0.0801  0.1331
  167SOPE  H18X18883   2.840   4.329   8.401  0.4810 -0.6474 -0.0416
  167SOPE  H18Y18884   2.746   4.232   8.519  0.7963  0.1568  0.4772
  167SOPE  H18Z18885   2.679   4.257   8.357 -1.4083  0.8216  1.8712
  168SOPE     N18886   3.565   4.775   6.049  0.5030 -0.3362  0.2270
  168SOPE   HN118887   3.547   4.842   5.972  0.2506 -0.9841 -0.2925
  168SOPE   HN218888   3.609   4.832   6.124  1.0738 -0.1520 -0.2414
  168SOPE   HN318889   3.613   4.687   6.021 -1.9403 -2.1414  1.3157
  168SOPE   C1218890   3.437   4.722   6.116 -0.1523  0.1561 -0.0833
  168SOPE  H12A18891   3.343   4.771   6.084  0.9632  2.7808  0.3788
  168SOPE  H12B18892   3.451   4.735   6.225 -1.0000 -1.8137  0.2985
  168SOPE   C1118893   3.427   4.568   6.096  0.1041 -0.7551 -0.6879
  168SOPE  H11A18894   3.422   4.541   5.988 -3.7706  0.4577 -0.9684
  168SOPE  H11B18895   3.328   4.526   6.126 -0.9124  0.9058 -1.5319
  168SOPE     P18896   3.528   4.402   6.287 -0.1544 -0.2074  0.7914
  168SOPE   O1318897   3.670   4.381   6.328 -0.3240 -0.3456  0.2850
  168SOPE   O1418898   3.459   4.278   6.247 -0.0319 -0.3708  0.6945
  168SOPE   O1218899   3.542   4.505   6.157 -0.3148  0.0565  0.1271
  168SOPE   O1118900   3.448   4.479   6.397 -0.8819  0.3440 -0.0867
  168SOPE    C118901   3.504   4.584   6.470  0.5059 -0.4269  0.9185
  168SOPE    HA18902   3.527   4.674   6.410  1.9289  0.9450  3.3864
  168SOPE    HB18903   3.604   4.551   6.505  0.2275 -1.0454  1.1444
  168SOPE    C218904   3.410   4.628   6.583  0.0737  0.8651 -0.2873
  168SOPE    HS18905   3.423   4.739   6.581 -1.0648  1.1063  2.1222
  168SOPE   O2118906   3.457   4.564   6.702 -0.3870 -0.2841 -0.3160
  168SOPE   C2118907   3.448   4.631   6.813 -0.1200 -0.1089 -0.7367
  168SOPE   O2218908   3.405   4.744   6.831  0.1551 -0.4278 -0.3704
  168SOPE   C2218909   3.528   4.541   6.919 -0.3277 -0.1979  0.2105
  168SOPE   H2R18910   3.637   4.536   6.897 -0.3004 -1.7854  0.5532
  168SOPE   H2S18911   3.481   4.441   6.907 -1.4092  0.2097  0.9298
  168SOPE    C318912   3.264   4.593   6.555  1.0936 -0.2698  0.6285
  168SOPE    HX18913   3.245   4.483   6.549  0.5197 -0.1213 -0.4410
  168SOPE    HY18914   3.239   4.627   6.453 -0.3922 -2.2509  0.2783
  168SOPE   O3118915   3.197   4.652   6.671  0.1167 -0.3775  0.2167
  168SOPE   C3118916   3.168   4.783   6.648 -0.3226 -0.0143  0.4471
  168SOPE   O3218917   3.186   4.834   6.541  0.6270  0.5255  0.0411
  168SOPE   C3218918   3.102   4.844   6.773 -0.9320  0.2936 -0.9934
  168SOPE   H2X18919   3.181   4.886   6.839 -1.3424 -1.5214  0.7506
  168SOPE   H2Y18920   3.060   4.759   6.831  0.9244 -2.1963 -3.0261
  168SOPE   C2318921   3.505   4.592   7.063  0.1162 -0.5461  0.6792
  168SOPE   H3R18922   3.400   4.564   7.086 -0.0344 -0.3616  0.2399
  168SOPE   H3S18923   3.518   4.702   7.073  0.6163 -0.6843  1.6303
  168SOPE   C2418924   3.589   4.519   7.168  0.5118  0.4523 -0.3095
  168SOPE   H4R18925   3.582   4.408   7.169 -1.1490  0.5043 -1.0220
  168SOPE   H4S18926   3.688   4.539   7.123 -0.1662  1.6734 -1.3237
  168SOPE   C2518927   3.578   4.571   7.307  0.4534 -0.3738 -0.0787
  168SOPE   H5R18928   3.598   4.680   7.310  2.7145 -0.6777 -1.3777
  168SOPE   H5S18929   3.473   4.559   7.341 -0.0492 -1.7344 -1.9400
  168SOPE   C2618930   3.678   4.499   7.400  0.4275 -0.4489  0.1566
  168SOPE   H6R18931   3.646   4.393   7.388 -0.5220 -0.0649 -0.8901
  168SOPE   H6S18932   3.783   4.508   7.362 -0.1588  1.0248 -1.2335
  168SOPE   C2718933   3.668   4.552   7.540  0.3387 -0.6653  0.3741
  168SOPE   H7R18934   3.662   4.663   7.539 -0.8627 -0.7179 -0.5105
  168SOPE   H7S18935   3.571   4.517   7.582  1.4393 -0.1066  3.6458
  168SOPE   C2818936   3.789   4.507   7.625  0.0914  0.2664  0.1097
  168SOPE   H8R18937   3.888   4.515   7.575 -0.0978 -1.1973 -0.5248
  168SOPE   H8S18938   3.792   4.584   7.706  2.2412 -1.4642  1.8179
  168SOPE   C2918939   3.774   4.374   7.679 -0.7193 -0.0460 -0.1112
  168SOPE   H9118940   3.772   4.299   7.598  0.2986  0.1483 -0.3403
  168SOPE  C21018941   3.776   4.343   7.816 -0.2691 -0.0568 -0.0881
  168SOPE  H10118942   3.759   4.237   7.838  1.0585 -0.1138  0.7280
  168SOPE  C21118943   3.790   4.420   7.943 -0.6040 -0.4137 -0.2605
  168SOPE  H11R18944   3.688   4.428   7.986 -1.1003 -1.0725 -1.2896
  168SOPE  H11S18945   3.818   4.527   7.932  0.4722 -0.3287  2.5926
  168SOPE  C21218946   3.877   4.359   8.048  0.2036  0.9623  0.2402
  168SOPE  H12R18947   3.854   4.251   8.058  3.4176  0.0534 -0.9446
  168SOPE  H12S18948   3.854   4.406   8.146 -3.0035  0.6005 -0.2097
  168SOPE  C21318949   4.025   4.370   8.010  0.4722  0.3438  0.4839
  168SOPE  H13R18950   4.046   4.478   7.999 -1.1325  0.6903  0.5486
  168SOPE  H13S18951   4.035   4.308   7.918  2.1029  1.0611  0.1526
  168SOPE  C21418952   4.113   4.310   8.120 -0.1997  0.3057  0.0173
  168SOPE  H14R18953   4.190   4.248   8.070  1.0716  1.9182 -0.1215
  168SOPE  H14S18954   4.055   4.255   8.197  2.6679 -0.3544  1.8693
  168SOPE  C21518955   4.192   4.420   8.192 -0.1978 -0.3115  0.1531
  168SOPE  H15R18956   4.250   4.476   8.116 -0.3069  1.1055  1.0739
  168SOPE  H15S18957   4.256   4.373   8.270  0.2005  0.9885  0.6425
  168SOPE  C21618958   4.111   4.524   8.272  0.0312 -0.2699 -0.2068
  168SOPE  H16R18959   4.016   4.541   8.217 -0.7037  0.2034  1.1546
  168SOPE  H16S18960   4.165   4.621   8.268  0.4341 -0.5346 -1.3592
  168SOPE  C21718961   4.087   4.502   8.423  0.4108 -0.0874 -0.0915
  168SOPE  H17R18962   4.184   4.487   8.475 -1.3687 -0.5011  3.4215
  168SOPE  H17S18963   4.035   4.404   8.429  0.4761 -0.2563 -1.8762
  168SOPE  C21818964   4.001   4.610   8.482 -0.6773  0.3753 -0.0683
  168SOPE  H18R18965   3.973   4.578   8.584  0.2881  0.6992  0.3047
  168SOPE  H18S18966   3.899   4.627   8.440 -0.9701 -0.7830  0.1442
  168SOPE  H18T18967   4.065   4.701   8.485 -0.0317 -0.0975  0.8076
  168SOPE   C3318968   3.001   4.949   6.740  0.6185  0.6829 -0.4548
  168SOPE   H3X18969   2.945   4.908   6.653  2.0723  1.7384 -1.9589
  168SOPE   H3Y18970   3.056   5.038   6.703  0.6932  1.2036  0.8447
  168SOPE   C3418971   2.911   4.992   6.861 -0.2990 -0.5258  0.4663
  168SOPE   H4X18972   2.831   5.062   6.830  0.3941  0.8370  1.6311
  168SOPE   H4Y18973   2.981   5.041   6.932 -0.3725  1.9843 -1.0625
  168SOPE   C3518974   2.833   4.879   6.924 -0.1729 -0.1735 -0.5206
  168SOPE   H5X18975   2.896   4.796   6.962 -2.5071 -1.5958  0.4941
  168SOPE   H5Y18976   2.772   4.824   6.849  0.9930 -1.8587 -0.3013
  168SOPE   C3618977   2.742   4.932   7.035  0.1899  0.2211 -0.0118
  168SOPE   H6X18978   2.642   4.887   7.012 -0.1655  1.1184 -0.2579
  168SOPE   H6Y18979   2.731   5.042   7.021 -1.7126  0.1494  0.6385
  168SOPE   C3718980   2.780   4.881   7.168 -0.4424 -0.0600  0.1028
  168SOPE   H7X18981   2.883   4.913   7.197 -0.5422  3.8011 -2.9215
  168SOPE   H7Y18982   2.794   4.772   7.150 -0.8545 -0.0672 -0.1722
  168SOPE   C3818983   2.679   4.910   7.283  0.1266 -0.4903 -0.5805
  168SOPE   H8X18984   2.579   4.875   7.251 -0.5717  0.6881  0.2589
  168SOPE   H8Y18985   2.672   5.020   7.291 -0.4230 -0.5345 -0.4396
  168SOPE   C3918986   2.721   4.857   7.420  0.5081 -0.0501  0.2169
  168SOPE   H9X18987   2.816   4.911   7.437 -0.3030  1.4395  0.1802
  168SOPE   H9Y18988   2.736   4.747   7.416 -2.9724 -0.6261 -2.2289
  168SOPE  C31018989   2.622   4.897   7.531  0.3914 -0.4452  0.0037
  168SOPE  H10X18990   2.518   4.884   7.494  1.0015 -0.8056 -1.6781
  168SOPE  H10Y18991   2.647   5.002   7.558  0.1081 -0.0205 -1.3088
  168SOPE  C31118992   2.633   4.822   7.663  0.0443  0.1097 -0.4172
  168SOPE  H11X18993   2.742   4.814   7.681  0.2457  2.7978 -0.0623
  168SOPE  H11Y18994   2.597   4.717   7.666  0.2650  0.0600  1.3027
  168SOPE  C31218995   2.564   4.900   7.776 -0.2894 -0.4861 -0.7550
  168SOPE  H12X18996   2.456   4.914   7.754 -1.1674 -4.9473 -0.1164
  168SOPE  H12Y18997   2.603   5.004   7.781  2.4323 -1.5065  1.9670
  168SOPE  C31318998   2.582   4.839   7.916 -0.0750  0.2195 -0.1753
  168SOPE  H13X18999   2.563   4.730   7.904  0.7542 -0.0075  0.4466
  168SOPE  H13Y19000   2.508   4.884   7.986 -1.1671 -0.4492 -0.8831
  168SOPE  C31419001   2.722   4.843   7.978  0.0636 -0.6305  0.0699
  168SOPE  H14X19002   2.781   4.921   7.926 -0.2200 -1.6358 -1.8523
  168SOPE  H14Y19003   2.772   4.747   7.951  1.6893 -0.2827  1.6575
  168SOPE  C31519004   2.720   4.848   8.132  0.2569  0.7698  0.2070
  168SOPE  H15X19005   2.704   4.950   8.174 -0.2620  0.6152  0.3915
  168SOPE  H15Y19006   2.820   4.818   8.169  1.0204 -0.6752 -2.7337
  168SOPE  C31619007   2.610   4.762   8.199  0.5004  0.3339 -0.4429
  168SOPE  H16X19008   2.621   4.655   8.170 -0.3547  0.0946  0.0554
  168SOPE  H16Y19009   2.510   4.800   8.168 -0.0971  0.8096  1.8244
  168SOPE  C31719010   2.603   4.777   8.356  0.0742  0.0044  0.1789
  168SOPE  H17X19011   2.609   4.886   8.375 -0.8884 -0.1909  1.7875
  168SOPE  H17Y19012   2.696   4.738   8.403  0.6383  0.8019 -0.2544
  168SOPE  C31819013   2.476   4.714   8.433 -0.2326  0.4659  0.0465
  168SOPE  H18X19014   2.378   4.745   8.393 -0.4823 -0.2199  0.1116
  168SOPE  H18Y19015   2.491   4.743   8.540  0.3253 -2.4828  0.8688
  168SOPE  H18Z19016   2.466   4.603   8.426 -2.9423  0.5054  1.6970
  169SOPE     N19017   2.334   6.706   6.002  0.5070 -0.1976 -0.7819
  169SOPE   HN119018   2.370   6.684   5.907  2.2645 -1.2979  0.0830
  169SOPE   HN219019   2.306   6.612   6.038  0.2333  0.5458  1.0962
  169SOPE   HN319020   2.246   6.762   6.011  1.2959  0.8222  1.2752
  169SOPE   C1219021   2.439   6.774   6.088 -0.5460 -0.5270  0.4107
  169SOPE  H12A19022   2.435   6.880   6.052 -0.2346 -0.7861 -0.4136
  169SOPE  H12B19023   2.538   6.728   6.067 -0.2553  0.2073  0.1383
  169SOPE   C1119024   2.410   6.754   6.237  0.3570  0.3774 -0.0628
  169SOPE  H11A19025   2.495   6.796   6.293  1.5327 -0.7133 -0.9783
  169SOPE  H11B19026   2.409   6.646   6.264 -1.0752  0.4155  0.1236
  169SOPE     P19027   2.299   6.981   6.309 -0.1013 -0.1581 -0.1473
  169SOPE   O1319028   2.184   7.043   6.239 -0.2977  0.2215 -0.0358
  169SOPE   O1419029   2.436   7.041   6.291 -0.0314 -0.1419  0.3238
  169SOPE   O1219030   2.286   6.824   6.272 -0.1558 -0.5679  0.0274
  169SOPE   O1119031   2.276   6.977   6.459  0.2679  0.3702  0.1347
  169SOPE    C119032   2.163   6.923   6.523  0.3360 -0.2195  0.1034
  169SOPE    HA19033   2.186   6.826   6.572  2.1322 -0.4054 -0.9709
  169SOPE    HB19034   2.081   6.896   6.453  0.6924  0.1216 -0.4567
  169SOPE    C219035   2.111   7.031   6.621  1.0390  0.0734 -0.5376
  169SOPE    HS19036   2.074   7.111   6.553 -0.3220 -0.3060 -0.2878
  169SOPE   O2119037   2.227   7.074   6.702  0.1992  0.3645 -0.0567
  169SOPE   C2119038   2.226   7.207   6.735 -0.5381 -0.3101 -0.7713
  169SOPE   O2219039   2.155   7.295   6.687 -0.8432  0.1372  0.3714
  169SOPE   C2219040   2.326   7.233   6.851 -0.2927 -0.3490 -0.4310
  169SOPE   H2R19041   2.380   7.325   6.819  0.6993 -0.2458  1.3829
  169SOPE   H2S19042   2.398   7.149   6.857 -0.1836 -0.2041  0.5055
  169SOPE    C319043   1.993   6.985   6.711  0.4630  0.1886  0.0637
  169SOPE    HX19044   2.035   6.906   6.777 -0.0721  0.1481  0.3660
  169SOPE    HY19045   1.912   6.942   6.648 -0.0487  1.3852 -0.1143
  169SOPE   O3119046   1.946   7.081   6.806 -0.2918 -0.0403 -0.3037
  169SOPE   C3119047   1.850   7.167   6.768  0.4985 -0.8445 -0.2324
  169SOPE   O3219048   1.818   7.188   6.651 -0.0935  0.5734 -0.1316
  169SOPE   C3219049   1.777   7.237   6.883 -0.6850  0.0201 -0.1058
  169SOPE   H2X19050   1.672   7.204   6.890 -0.7413  0.4484  1.4396
  169SOPE   H2Y19051   1.773   7.346   6.862  1.5468  0.3886  0.9895
  169SOPE   C2319052   2.269   7.257   6.996 -0.3192  0.4064  0.4323
  169SOPE   H3R19053   2.194   7.181   7.025  0.1869  0.0611  0.8369
  169SOPE   H3S19054   2.211   7.352   6.989  0.3579  0.7368 -1.4589
  169SOPE   C2419055   2.375   7.267   7.105  0.1802  0.2460 -0.5968
  169SOPE   H4R19056   2.470   7.291   7.053  0.7190  0.0994  0.3086
  169SOPE   H4S19057   2.356   7.348   7.178  2.9156  0.2742  0.1968
  169SOPE   C2519058   2.394   7.142   7.187 -0.3896  0.1859 -0.0104
  169SOPE   H5R19059   2.383   7.047   7.130  2.7196  0.1829 -0.7991
  169SOPE   H5S19060   2.496   7.142   7.231 -0.0124 -1.5010 -0.8082
  169SOPE   C2619061   2.296   7.137   7.308  0.1591 -0.0368  0.0856
  169SOPE   H6R19062   2.315   7.227   7.371 -0.7823 -0.4866  1.0492
  169SOPE   H6S19063   2.189   7.150   7.281 -0.0978 -0.5591  0.7903
  169SOPE   C2719064   2.308   7.014   7.392 -0.3921  0.2108  0.4528
  169SOPE   H7R19065   2.211   7.011   7.445 -0.8825  0.4908 -0.4145
  169SOPE   H7S19066   2.307   6.933   7.316  2.0646  0.1900  0.3645
  169SOPE   C2819067   2.437   6.998   7.469  0.3358 -0.0978 -1.0057
  169SOPE   H8R19068   2.527   7.009   7.406  1.2266  0.4722  0.3223
  169SOPE   H8S19069   2.447   7.084   7.538  1.3184 -0.8046 -0.2465
  169SOPE   C2919070   2.439   6.867   7.536  0.5019 -0.2921 -0.1268
  169SOPE   H9119071   2.479   6.782   7.480  1.6913 -0.4402  0.8971
  169SOPE  C21019072   2.426   6.846   7.668 -0.6420  0.3376  0.0076
  169SOPE  H10119073   2.434   6.744   7.710 -1.8518  0.3124  0.2037
  169SOPE  C21119074   2.412   6.953   7.769 -0.3641  0.1649 -0.1831
  169SOPE  H11R19075   2.335   7.023   7.732  0.5731  0.9410 -0.7216
  169SOPE  H11S19076   2.505   7.012   7.780 -0.6887  0.3910  1.6580
  169SOPE  C21219077   2.375   6.912   7.911  0.3036  0.1828  0.7277
  169SOPE  H12R19078   2.279   6.857   7.909 -0.6318  1.7226 -1.6942
  169SOPE  H12S19079   2.355   7.005   7.967 -0.7907  0.1200  0.4687
  169SOPE  C21319080   2.476   6.826   7.982  0.1226  0.2484 -0.2866
  169SOPE  H13R19081   2.577   6.870   7.974  0.8875 -1.4210 -0.2196
  169SOPE  H13S19082   2.492   6.726   7.936  1.6225 -0.3047  1.3534
  169SOPE  C21419083   2.420   6.787   8.117 -0.6247  0.0143 -0.7893
  169SOPE  H14R19084   2.488   6.709   8.157 -1.1472  0.1124  0.3217
  169SOPE  H14S19085   2.320   6.742   8.099 -1.3675  1.9869 -1.9030
  169SOPE  C21519086   2.406   6.908   8.204 -0.9567 -0.0350  0.3146
  169SOPE  H15R19087   2.320   6.977   8.193 -2.1686 -1.6899 -1.1465
  169SOPE  H15S19088   2.504   6.960   8.207 -0.8834 -0.1846  0.6412
  169SOPE  C21619089   2.394   6.859   8.345 -0.3503  0.0722 -1.1533
  169SOPE  H16R19090   2.460   6.779   8.384 -0.5619  0.8861  1.0686
  169SOPE  H16S19091   2.291   6.833   8.379  0.2618  2.0615  2.9262
  169SOPE  C21719092   2.420   6.977   8.452  0.4899  0.6505  0.0225
  169SOPE  H17R19093   2.346   7.058   8.432 -0.4601 -0.5310 -1.6132
  169SOPE  H17S19094   2.516   7.017   8.415  0.4439 -0.6272 -1.6472
  169SOPE  C21819095   2.422   6.950   8.603 -0.4914  0.0655  0.4667
  169SOPE  H18R19096   2.456   7.043   8.652  0.1353  0.4457 -0.6509
  169SOPE  H18S19097   2.490   6.864   8.618  0.3538  0.8563  1.2801
  169SOPE  H18T19098   2.325   6.906   8.635  0.0156 -0.2001  1.6756
  169SOPE   C3319099   1.845   7.207   7.025 -0.8748 -0.5195  0.9696
  169SOPE   H3X19100   1.949   7.247   7.025 -1.0047 -0.1749  0.7359
  169SOPE   H3Y19101   1.836   7.100   7.053 -1.0517 -0.5566  0.7737
  169SOPE   C3419102   1.772   7.286   7.134 -0.3228  0.0768  0.1851
  169SOPE   H4X19103   1.760   7.389   7.094  0.1625 -0.8059 -2.4296
  169SOPE   H4Y19104   1.842   7.284   7.221  0.9286 -0.3060 -0.7979
  169SOPE   C3519105   1.627   7.241   7.157 -0.0838  0.2315 -0.5193
  169SOPE   H5X19106   1.609   7.132   7.156 -2.5518  0.5838 -0.0205
  169SOPE   H5Y19107   1.551   7.279   7.086 -1.3420 -0.1946  0.5549
  169SOPE   C3619108   1.593   7.285   7.300 -0.2046  0.2945 -0.0294
  169SOPE   H6X19109   1.650   7.217   7.367  0.7460  1.3680  0.2865
  169SOPE   H6Y19110   1.489   7.255   7.324  0.3222 -2.4317 -0.8962
  169SOPE   C3719111   1.628   7.426   7.342  0.4670 -0.4959  0.5112
  169SOPE   H7X19112   1.583   7.497   7.269  1.6187  0.8567  1.0456
  169SOPE   H7Y19113   1.737   7.450   7.344 -0.0177  2.0599 -0.1224
  169SOPE   C3819114   1.582   7.474   7.479 -0.1931 -0.1302 -0.4300
  169SOPE   H8X19115   1.556   7.581   7.462 -0.0605 -0.0924 -0.3962
  169SOPE   H8Y19116   1.491   7.419   7.511 -0.7946 -0.3436 -2.3904
  169SOPE   C3919117   1.696   7.471   7.584 -0.3276  0.1409 -0.5492
  169SOPE   H9X19118   1.758   7.558   7.554  0.7320 -1.5020 -3.4269
  169SOPE   H9Y19119   1.756   7.378   7.592  0.9348  0.9537 -0.3830
  169SOPE  C31019120   1.642   7.505   7.722 -0.2080  0.2608 -0.7284
  169SOPE  H10X19121   1.562   7.435   7.755  1.2812 -0.6703  1.1215
  169SOPE  H10Y19122   1.596   7.603   7.701 -1.6890  0.0534  1.1990
  169SOPE  C31119123   1.744   7.513   7.834 -0.7392 -0.6677  0.6986
  169SOPE  H11X19124   1.831   7.570   7.794 -1.9687 -0.7556 -2.3508
  169SOPE  H11Y19125   1.783   7.412   7.860 -1.2978 -0.2165  3.5444
  169SOPE  C31219126   1.684   7.564   7.962 -0.3422 -0.1659 -1.0257
  169SOPE  H12X19127   1.614   7.649   7.947  0.5305  0.5722 -0.9901
  169SOPE  H12Y19128   1.761   7.602   8.032 -0.5207  0.4515 -1.1539
  169SOPE  C31319129   1.614   7.455   8.049  0.7751 -0.7496  0.5039
  169SOPE  H13X19130   1.688   7.390   8.099  2.0426 -1.2155 -1.8098
  169SOPE  H13Y19131   1.540   7.399   7.987 -0.6237 -0.1927  1.6085
  169SOPE  C31419132   1.536   7.526   8.161 -0.1421 -0.2525  0.4940
  169SOPE  H14X19133   1.449   7.578   8.116 -0.3318 -0.5666  0.5004
  169SOPE  H14Y19134   1.598   7.602   8.214 -1.1291  1.3905 -0.5835
  169SOPE  C31519135   1.497   7.431   8.269  0.1360  0.3833 -0.7553
  169SOPE  H15X19136   1.582   7.388   8.327 -1.2810  0.0334  1.1462
  169SOPE  H15Y19137   1.442   7.353   8.212 -0.2886 -0.1887  0.4008
  169SOPE  C31619138   1.394   7.490   8.371  0.5506  0.6444  0.5872
  169SOPE  H16X19139   1.307   7.516   8.306 -0.0008 -1.8570  0.2504
  169SOPE  H16Y19140   1.438   7.583   8.412 -1.0123  1.9203 -0.4721
  169SOPE  C31719141   1.357   7.388   8.475 -0.1709 -0.3264 -0.4702
  169SOPE  H17X19142   1.438   7.376   8.550  0.9420  1.8976 -1.2185
  169SOPE  H17Y19143   1.342   7.286   8.433 -0.3551 -0.9727  1.0661
  169SOPE  C31819144   1.232   7.421   8.557  0.4553  0.0863 -0.1616
  169SOPE  H18X19145   1.242   7.531   8.569 -0.7096  0.2288 -0.3448
  169SOPE  H18Y19146   1.225   7.375   8.658  4.2371  0.8893  0.6109
  169SOPE  H18Z19147   1.136   7.400   8.504 -1.2896 -0.0572  2.8493
  170SOPE     N19148   2.542   0.443   6.362  0.1930 -0.3568  0.4351
  170SOPE   HN119149   2.490   0.360   6.327 -3.2382  1.7187  0.1314
  170SOPE   HN219150   2.585   0.492   6.281  1.4573 -2.9017 -0.5572
  170SOPE   HN319151   2.628   0.418   6.415  1.3131  0.6091 -0.8435
  170SOPE   C1219152   2.448   0.531   6.446 -0.1600  0.6218  0.9578
  170SOPE  H12A19153   2.497   0.631   6.455 -0.9197  1.0402  0.4967
  170SOPE  H12B19154   2.448   0.497   6.552 -0.2763  3.1612  1.8557
  170SOPE   C1119155   2.307   0.544   6.382  0.1800 -0.1195  0.3457
  170SOPE  H11A19156   2.249   0.611   6.449  2.5388  0.1513  2.2510
  170SOPE  H11B19157   2.260   0.443   6.384 -0.1950  0.0634  1.0515
  170SOPE     P19158   2.178   0.659   6.187 -0.0958 -0.5017 -0.0783
  170SOPE   O1319159   2.077   0.558   6.172  1.1450 -0.7944 -0.0865
  170SOPE   O1419160   2.221   0.728   6.064  0.1233  0.5515  0.5844
  170SOPE   O1219161   2.312   0.589   6.246  0.1885 -0.4047  0.0866
  170SOPE   O1119162   2.147   0.761   6.303 -0.8445 -0.3025  0.0208
  170SOPE    C119163   2.245   0.862   6.342 -0.0708  0.6263 -0.7042
  170SOPE    HA19164   2.287   0.906   6.249  0.2684  0.7732 -0.4850
  170SOPE    HB19165   2.334   0.820   6.394 -0.8874  1.0215  1.0837
  170SOPE    C219166   2.205   0.984   6.438  0.4759 -0.6950  0.2308
  170SOPE    HS19167   2.295   1.049   6.445 -0.2821  0.2326  1.8207
  170SOPE   O2119168   2.169   0.937   6.567  0.1164 -0.1820  0.5306
  170SOPE   C2119169   2.274   0.888   6.640  0.3586  0.0719  0.1080
  170SOPE   O2219170   2.392   0.904   6.612 -0.1306 -0.2459 -0.7288
  170SOPE   C2219171   2.218   0.791   6.749  0.0549 -0.7033  0.5430
  170SOPE   H2R19172   2.228   0.695   6.696  1.2773  0.2758 -1.0965
  170SOPE   H2S19173   2.111   0.813   6.770  0.0917  1.8050 -1.4141
  170SOPE    C319174   2.093   1.071   6.382 -0.6815 -0.2857  0.7915
  170SOPE    HX19175   2.017   1.013   6.325 -1.5019  3.6985 -2.6894
  170SOPE    HY19176   2.134   1.136   6.302  1.0203 -0.3897  1.5455
  170SOPE   O3119177   2.024   1.151   6.480 -0.3603 -0.5624  0.5839
  170SOPE   C3119178   2.084   1.262   6.524  0.0882 -0.0196 -0.1510
  170SOPE   O3219179   2.193   1.297   6.481  0.4100 -0.2520  0.1603
  170SOPE   C3219180   2.002   1.328   6.641  0.3006  0.0382 -0.1352
  170SOPE   H2X19181   1.897   1.321   6.605  0.6550  1.1541 -1.5009
  170SOPE   H2Y19182   2.030   1.434   6.659  2.9046 -0.4825 -0.6886
  170SOPE   C2319183   2.293   0.790   6.882 -0.8639 -0.0567  0.2420
  170SOPE   H3R19184   2.400   0.818   6.866 -1.2432  1.5729  0.3306
  170SOPE   H3S19185   2.293   0.690   6.929  1.5513 -0.7136 -0.9556
  170SOPE   C2419186   2.227   0.881   6.985 -0.0587  0.5136 -0.3532
  170SOPE   H4R19187   2.220   0.985   6.949 -1.6237  0.8362  0.7898
  170SOPE   H4S19188   2.130   0.837   7.016 -0.6180  1.9788  0.0441
  170SOPE   C2519189   2.303   0.892   7.117 -0.7969  0.4021  0.3744
  170SOPE   H5R19190   2.305   0.785   7.145 -0.0773 -0.9878 -4.1240
  170SOPE   H5S19191   2.408   0.915   7.088 -0.6877 -0.7912 -0.2319
  170SOPE   C2619192   2.246   1.006   7.209 -0.7736  0.3581  0.1338
  170SOPE   H6R19193   2.256   1.105   7.161 -0.1566  0.3735  0.2839
  170SOPE   H6S19194   2.140   0.976   7.216 -0.6594 -0.0934 -0.0176
  170SOPE   C2719195   2.314   1.016   7.349  0.9458 -0.0811 -0.2756
  170SOPE   H7R19196   2.425   1.015   7.341  1.1580 -0.7891  1.9791
  170SOPE   H7S19197   2.273   1.110   7.392  1.2560 -0.2339  0.3797
  170SOPE   C2819198   2.273   0.903   7.442  0.1658 -0.2547 -0.7496
  170SOPE   H8R19199   2.308   0.810   7.392  0.9339  0.4171 -1.5007
  170SOPE   H8S19200   2.332   0.920   7.535  0.1248  1.8287 -1.0553
  170SOPE   C2919201   2.128   0.895   7.459  0.6686  0.1022 -0.1332
  170SOPE   H9119202   2.073   0.980   7.415 -1.6498 -1.2613 -0.0322
  170SOPE  C21019203   2.054   0.809   7.534 -0.4507  0.2271 -0.1275
  170SOPE  H10119204   1.945   0.823   7.536 -0.4367  0.2814  0.3051
  170SOPE  C21119205   2.114   0.706   7.623  0.3765  0.2970  0.0051
  170SOPE  H11R19206   2.060   0.712   7.719  1.2531 -0.4420  0.5585
  170SOPE  H11S19207   2.221   0.716   7.651 -0.0657  2.0520  1.2988
  170SOPE  C21219208   2.087   0.556   7.587  0.0221 -0.2227 -0.2110
  170SOPE  H12R19209   2.115   0.526   7.484 -1.1102 -2.0451 -0.0478
  170SOPE  H12S19210   1.977   0.544   7.602  0.1579  0.0291  1.1922
  170SOPE  C21319211   2.162   0.462   7.688 -0.0515 -0.4054  0.2385
  170SOPE  H13R19212   2.263   0.501   7.712 -0.5960 -0.1980  2.4371
  170SOPE  H13S19213   2.179   0.373   7.624 -1.7356 -0.5847 -0.0036
  170SOPE  C21419214   2.077   0.427   7.809  1.1040 -0.3693 -1.4903
  170SOPE  H14R19215   1.981   0.381   7.777  0.7392  0.2684 -1.3050
  170SOPE  H14S19216   2.064   0.518   7.870 -1.6831 -1.3726 -0.4400
  170SOPE  C21519217   2.159   0.328   7.888 -0.0307  0.5188  0.0800
  170SOPE  H15R19218   2.266   0.350   7.870 -0.2574  0.7114 -1.1574
  170SOPE  H15S19219   2.137   0.222   7.864  0.8672  0.5878 -1.1366
  170SOPE  C21619220   2.123   0.338   8.040  0.3913  1.1900 -0.3166
  170SOPE  H16R19221   2.166   0.437   8.067  1.5866  0.4821  0.4943
  170SOPE  H16S19222   2.184   0.259   8.088 -1.8715 -1.7023 -1.8365
  170SOPE  C21719223   1.977   0.316   8.081  0.4929  0.0389  0.1953
  170SOPE  H17R19224   1.946   0.225   8.027 -1.2199  1.1689 -0.8424
  170SOPE  H17S19225   1.909   0.393   8.037  1.3340 -0.3410 -1.8742
  170SOPE  C21819226   1.951   0.303   8.226 -0.1977 -0.2757 -0.3333
  170SOPE  H18R19227   2.014   0.368   8.290  0.5484  0.0983 -1.4197
  170SOPE  H18S19228   1.978   0.201   8.259  2.9418  0.8768  0.9972
  170SOPE  H18T19229   1.846   0.324   8.255  0.2239  2.2566 -0.4207
  170SOPE   C3319230   2.010   1.245   6.771  0.3970 -0.0773  0.5944
  170SOPE   H3X19231   2.109   1.267   6.816 -0.2979 -0.1645  2.2856
  170SOPE   H3Y19232   1.990   1.137   6.757 -3.1797  0.1872  2.3420
  170SOPE   C3419233   1.903   1.281   6.875  0.2354 -0.7407  0.3468
  170SOPE   H4X19234   1.801   1.245   6.848 -1.4612  2.2887  2.1873
  170SOPE   H4Y19235   1.898   1.388   6.904 -0.2613 -0.9923  1.2064
  170SOPE   C3519236   1.931   1.215   7.011  0.0852  0.0231 -0.1228
  170SOPE   H5X19237   1.958   1.109   6.994 -0.4612 -0.2280  0.5285
  170SOPE   H5Y19238   1.833   1.230   7.063  0.8007  1.1721  0.9375
  170SOPE   C3619239   2.032   1.288   7.104  0.4798 -0.1672  0.9774
  170SOPE   H6X19240   2.006   1.395   7.096 -0.3012 -0.3120  1.4078
  170SOPE   H6Y19241   2.130   1.271   7.055 -1.4267 -2.0963 -2.6146
  170SOPE   C3719242   2.028   1.257   7.250  0.5534 -0.1905 -0.2648
  170SOPE   H7X19243   2.115   1.276   7.316 -0.5960  0.5509  1.0816
  170SOPE   H7Y19244   1.991   1.153   7.263 -2.2486  0.5115 -1.7529
  170SOPE   C3819245   1.917   1.337   7.324  0.7412 -0.1224  0.4962
  170SOPE   H8X19246   1.813   1.314   7.290  1.8429 -0.8847 -2.6562
  170SOPE   H8Y19247   1.937   1.444   7.302 -1.1154  0.8188  2.8792
  170SOPE   C3919248   1.917   1.319   7.475  0.0325 -0.2145  0.5803
  170SOPE   H9X19249   2.019   1.348   7.510  0.0138  0.8046 -0.1538
  170SOPE   H9Y19250   1.916   1.210   7.494  3.0303 -0.5148 -0.3892
  170SOPE  C31019251   1.808   1.385   7.564 -0.1644  0.0957 -0.1517
  170SOPE  H10X19252   1.709   1.382   7.513 -0.1224  1.7785 -0.3756
  170SOPE  H10Y19253   1.811   1.495   7.578 -1.0274 -0.0581  1.4778
  170SOPE  C31119254   1.780   1.325   7.708 -0.0142 -0.0929 -0.1793
  170SOPE  H11X19255   1.779   1.216   7.688  1.6337 -0.0108 -0.9037
  170SOPE  H11Y19256   1.681   1.357   7.746 -0.1964 -0.9973  0.1282
  170SOPE  C31219257   1.898   1.350   7.799 -0.7530 -0.9177 -0.0740
  170SOPE  H12X19258   1.887   1.444   7.858 -0.0595 -2.3629  2.5323
  170SOPE  H12Y19259   1.977   1.375   7.724  0.7126 -2.4451  0.8819
  170SOPE  C31319260   1.943   1.231   7.885  0.1873 -0.3482  0.3791
  170SOPE  H13X19261   1.977   1.144   7.825  0.6750 -1.0510  1.6425
  170SOPE  H13Y19262   1.852   1.209   7.945  0.6034  1.3889  1.7348
  170SOPE  C31419263   2.049   1.262   7.985  0.7813  0.0902  0.0071
  170SOPE  H14X19264   2.139   1.287   7.926 -0.1554  1.0446 -1.0601
  170SOPE  H14Y19265   2.061   1.172   8.051  0.7160 -0.0831 -0.2165
  170SOPE  C31519266   2.025   1.394   8.062  0.6083 -0.0760 -0.0912
  170SOPE  H15X19267   2.026   1.483   7.996 -0.9316 -0.3771 -0.5531
  170SOPE  H15Y19268   2.100   1.417   8.141 -0.5044 -2.0261  1.6435
  170SOPE  C31619269   1.891   1.394   8.141  0.3259  0.1387 -0.0281
  170SOPE  H16X19270   1.883   1.304   8.205  2.0290  0.6582  0.9982
  170SOPE  H16Y19271   1.817   1.387   8.059  0.3567  0.0986 -0.0522
  170SOPE  C31719272   1.859   1.515   8.222  0.3735 -0.0889  0.4265
  170SOPE  H17X19273   1.887   1.598   8.153 -0.8205 -0.4227 -0.4861
  170SOPE  H17Y19274   1.931   1.517   8.307 -0.7997  0.1186  1.4493
  170SOPE  C31819275   1.720   1.541   8.283 -0.0107  0.4348  0.0504
  170SOPE  H18X19276   1.641   1.530   8.205  0.2117  1.1795 -0.2822
  170SOPE  H18Y19277   1.707   1.634   8.341 -0.6224 -0.2484  1.0508
  170SOPE  H18Z19278   1.682   1.462   8.351 -4.9611  1.3628 -1.2145
  171SOPE     N19279   2.439   2.514   6.345 -0.7727  0.1643 -0.2507
  171SOPE   HN119280   2.513   2.468   6.402  0.1572  2.1074  0.2084
  171SOPE   HN219281   2.489   2.574   6.276  1.0468  0.7022  1.4337
  171SOPE   HN319282   2.379   2.569   6.410  0.1998  1.3676 -0.3314
  171SOPE   C1219283   2.355   2.403   6.294  0.0776 -0.2104 -1.1676
  171SOPE  H12A19284   2.409   2.344   6.217 -2.3726 -2.9303 -1.0153
  171SOPE  H12B19285   2.270   2.451   6.241  1.5090  1.2392 -2.2024
  171SOPE   C1119286   2.308   2.308   6.407  0.1159  0.2039  0.6501
  171SOPE  H11A19287   2.249   2.223   6.364  1.2218 -0.5522  0.5837
  171SOPE  H11B19288   2.241   2.364   6.475  0.9804 -0.0320  1.7207
  171SOPE     P19289   2.522   2.164   6.406  0.0467 -0.1758 -0.2469
  171SOPE   O1319290   2.639   2.252   6.374 -0.2506 -0.5323  0.1104
  171SOPE   O1419291   2.461   2.086   6.295 -0.1647  0.6344 -0.2290
  171SOPE   O1219292   2.419   2.255   6.482  0.4948  0.1342 -0.3127
  171SOPE   O1119293   2.556   2.066   6.525  0.2203  0.1781 -0.5263
  171SOPE    C119294   2.491   1.946   6.560  0.2469  0.4748  0.4173
  171SOPE    HA19295   2.548   1.912   6.649  0.6255  1.8835  0.7318
  171SOPE    HB19296   2.507   1.871   6.479  0.6277 -1.0834  1.8789
  171SOPE    C219297   2.337   1.961   6.590  0.6129  0.1321  0.3893
  171SOPE    HS19298   2.288   1.995   6.497  0.3552  1.7341  1.0725
  171SOPE   O2119299   2.301   2.049   6.699  0.0522 -0.0908  0.1929
  171SOPE   C2119300   2.189   2.120   6.683  0.5119  0.1305 -0.0143
  171SOPE   O2219301   2.108   2.103   6.597 -0.5183 -0.6565  0.7221
  171SOPE   C2219302   2.180   2.220   6.805  0.3987 -0.1767  0.1581
  171SOPE   H2R19303   2.226   2.312   6.764 -1.4539  1.1423  0.9138
  171SOPE   H2S19304   2.252   2.179   6.880 -1.0719 -1.9674  0.6780
  171SOPE    C319305   2.280   1.815   6.619 -0.2556  0.4838 -0.4030
  171SOPE    HX19306   2.338   1.751   6.548  0.4873 -1.1583  1.5683
  171SOPE    HY19307   2.174   1.804   6.589 -1.3393  0.3360  3.0027
  171SOPE   O3119308   2.300   1.764   6.749  0.7365 -0.3648  0.1896
  171SOPE   C3119309   2.194   1.789   6.832 -0.0091  0.0658 -0.9255
  171SOPE   O3219310   2.095   1.853   6.806 -0.1736  0.2499  0.5821
  171SOPE   C3219311   2.223   1.737   6.974  0.2870 -0.2168  0.6904
  171SOPE   H2X19312   2.332   1.745   6.996  0.3828  0.5815 -0.0056
  171SOPE   H2Y19313   2.194   1.630   6.985  0.4609 -0.5859 -1.8608
  171SOPE   C2319314   2.039   2.251   6.855 -0.2909  0.3649 -0.0644
  171SOPE   H3R19315   2.005   2.162   6.912  1.3711 -0.2515  0.0136
  171SOPE   H3S19316   1.972   2.274   6.769  0.7602  2.7598 -0.3197
  171SOPE   C2419317   2.040   2.374   6.944  0.6248 -0.0383  0.0730
  171SOPE   H4R19318   2.075   2.460   6.882 -1.4768 -1.2288 -2.9961
  171SOPE   H4S19319   1.934   2.381   6.975 -0.5195  1.4867 -3.5178
  171SOPE   C2519320   2.132   2.365   7.063 -0.3837 -0.6661 -0.8187
  171SOPE   H5R19321   2.240   2.362   7.037  0.1057  1.3356  0.7058
  171SOPE   H5S19322   2.111   2.461   7.115  0.7382 -1.8605  1.9865
  171SOPE   C2619323   2.089   2.240   7.145 -0.2934  0.5242 -0.3523
  171SOPE   H6R19324   1.992   2.264   7.194 -0.6123  1.6030 -1.4737
  171SOPE   H6S19325   2.076   2.146   7.087 -1.9303  1.7139 -2.0244
  171SOPE   C2719326   2.200   2.209   7.248 -0.3262  0.7304  0.9251
  171SOPE   H7R19327   2.189   2.105   7.286  0.6294  0.3564  0.2187
  171SOPE   H7S19328   2.298   2.210   7.196 -1.7747 -0.6172 -2.0918
  171SOPE   C2819329   2.197   2.309   7.368 -0.0264  0.3178 -0.6575
  171SOPE   H8R19330   2.208   2.410   7.323 -0.3598 -0.1872 -1.8982
  171SOPE   H8S19331   2.100   2.300   7.420  0.6185 -0.8119  0.4245
  171SOPE   C2919332   2.314   2.307   7.475  0.6742  0.0282 -0.0110
  171SOPE   H9119333   2.417   2.316   7.436  0.9561  0.2130  0.7528
  171SOPE  C21019334   2.298   2.286   7.607  0.1115  1.1257 -0.0599
  171SOPE  H10119335   2.385   2.286   7.675 -1.4234 -1.6553  2.1001
  171SOPE  C21119336   2.173   2.281   7.686 -0.0717 -0.5160 -0.2970
  171SOPE  H11R19337   2.082   2.308   7.627 -1.3318  0.8512  2.1159
  171SOPE  H11S19338   2.173   2.347   7.775 -2.4790 -1.4199  0.4614
  171SOPE  C21219339   2.150   2.137   7.752  0.3946 -0.5672 -0.3609
  171SOPE  H12R19340   2.239   2.130   7.817  0.1268  1.5892  0.3419
  171SOPE  H12S19341   2.148   2.071   7.663 -0.8810 -0.8791 -0.1152
  171SOPE  C21319342   2.009   2.117   7.810  0.0300 -0.5536  0.2258
  171SOPE  H13R19343   1.934   2.128   7.729  1.1497  0.8009 -0.6808
  171SOPE  H13S19344   1.992   2.196   7.886  0.9161  1.0203 -1.1543
  171SOPE  C21419345   2.003   1.971   7.856  0.5089 -0.4418 -0.4874
  171SOPE  H14R19346   2.099   1.949   7.907  0.5141  1.1608  0.2560
  171SOPE  H14S19347   2.001   1.909   7.764 -0.5789  1.2455 -1.6713
  171SOPE  C21519348   1.877   1.961   7.947 -0.1922 -0.1765  0.5575
  171SOPE  H15R19349   1.878   2.042   8.023  0.0563  2.3435 -1.9729
  171SOPE  H15S19350   1.893   1.868   8.006 -0.0463 -0.4839  0.0411
  171SOPE  C21619351   1.741   1.958   7.867 -0.3514 -0.7999  1.5178
  171SOPE  H16R19352   1.750   1.881   7.788  0.7684  1.0703 -0.3007
  171SOPE  H16S19353   1.726   2.052   7.810  0.8059 -0.4584  1.7396
  171SOPE  C21719354   1.618   1.941   7.954  0.4368  0.4766  0.7090
  171SOPE  H17R19355   1.523   1.952   7.896  0.0507 -2.5459  0.6205
  171SOPE  H17S19356   1.632   2.015   8.035 -3.0869  1.6573  0.4165
  171SOPE  C21819357   1.605   1.803   8.014  0.2010  0.6704  0.2020
  171SOPE  H18R19358   1.508   1.790   8.068 -0.3681 -1.1011 -1.1489
  171SOPE  H18S19359   1.690   1.782   8.083 -1.9092  0.2282  2.8830
  171SOPE  H18T19360   1.592   1.717   7.945 -2.1593  2.1847 -1.3865
  171SOPE   C3319361   2.148   1.819   7.074 -0.3459 -0.3905 -0.3859
  171SOPE   H3X19362   2.038   1.820   7.065 -0.4110 -1.6912  0.0822
  171SOPE   H3Y19363   2.198   1.919   7.077  3.8169 -2.2614  2.8375
  171SOPE   C3419364   2.184   1.789   7.224 -0.7989 -0.2379 -0.2634
  171SOPE   H4X19365   2.163   1.872   7.295 -1.3958 -2.3604  2.1652
  171SOPE   H4Y19366   2.295   1.781   7.225 -0.3916  3.1887 -2.1245
  171SOPE   C3519367   2.124   1.655   7.263 -0.4721  0.1357 -0.4766
  171SOPE   H5X19368   2.147   1.578   7.187  0.2135  1.0253 -1.1894
  171SOPE   H5Y19369   2.014   1.667   7.255 -0.4485 -0.5632 -2.2649
  171SOPE   C3619370   2.172   1.596   7.397 -0.5442 -0.1544 -0.2983
  171SOPE   H6X19371   2.279   1.566   7.401 -1.2429 -2.9465  0.1022
  171SOPE   H6Y19372   2.118   1.498   7.403  0.1025 -0.4330  2.0571
  171SOPE   C3719373   2.155   1.678   7.513  0.1190 -0.4267 -0.9765
  171SOPE   H7X19374   2.050   1.705   7.536  0.4963 -0.0696  0.4134
  171SOPE   H7Y19375   2.189   1.778   7.478 -0.5657  0.0146 -0.4037
  171SOPE   C3819376   2.234   1.630   7.637  0.1696 -0.5775 -0.3340
  171SOPE   H8X19377   2.342   1.623   7.610  0.1305 -3.1366 -0.0997
  171SOPE   H8Y19378   2.204   1.523   7.649 -0.3278 -0.2826  1.2085
  171SOPE   C3919379   2.213   1.713   7.763 -0.1071  0.3027  0.1248
  171SOPE   H9X19380   2.105   1.706   7.788 -0.7129  1.7240 -1.8149
  171SOPE   H9Y19381   2.240   1.821   7.758 -3.0067  1.2931  2.6339
  171SOPE  C31019382   2.279   1.657   7.886  0.4764  0.6031  0.0181
  171SOPE  H10X19383   2.388   1.659   7.864  0.0605  0.7680 -2.3933
  171SOPE  H10Y19384   2.243   1.552   7.884 -0.7815  0.9788  1.6240
  171SOPE  C31119385   2.252   1.736   8.019 -0.2123 -0.0934  0.0348
  171SOPE  H11X19386   2.143   1.746   8.033 -0.4462 -1.7938 -0.3177
  171SOPE  H11Y19387   2.299   1.837   8.017 -0.9861  0.3581  2.4240
  171SOPE  C31219388   2.302   1.658   8.146  0.1605  0.0931  0.3036
  171SOPE  H12X19389   2.413   1.657   8.147  0.2130  0.1676 -1.9831
  171SOPE  H12Y19390   2.265   1.553   8.142 -1.1056  0.4918  0.8684
  171SOPE  C31319391   2.252   1.718   8.276 -0.0464  0.4235  0.2151
  171SOPE  H13X19392   2.141   1.711   8.280 -0.1917  0.5603 -2.2932
  171SOPE  H13Y19393   2.278   1.825   8.290  1.0064 -0.0415  2.1282
  171SOPE  C31419394   2.303   1.640   8.401 -0.6943  0.4429  0.1220
  171SOPE  H14X19395   2.281   1.531   8.396 -1.7613  0.6266  0.5116
  171SOPE  H14Y19396   2.238   1.678   8.482 -0.7786 -1.0002  0.7632
  171SOPE  C31519397   2.452   1.666   8.428 -0.2835  0.2335 -0.1677
  171SOPE  H15X19398   2.472   1.773   8.449 -0.5376  0.0375  1.2083
  171SOPE  H15Y19399   2.516   1.627   8.347  0.8371  0.3920  0.6205
  171SOPE  C31619400   2.494   1.592   8.549 -0.7763 -0.4025 -1.2511
  171SOPE  H16X19401   2.602   1.610   8.566 -1.2713  0.7419  1.1177
  171SOPE  H16Y19402   2.498   1.482   8.535  0.8996 -0.9259  2.2726
  171SOPE  C31719403   2.412   1.632   8.678 -0.0219 -0.0449  0.0390
  171SOPE  H17X19404   2.312   1.583   8.674 -0.2037  0.3439 -0.2710
  171SOPE  H17Y19405   2.398   1.742   8.674  1.8268  0.2494  0.4889
  171SOPE  C31819406   2.482   1.590   8.808 -0.1889  0.0930  0.6418
  171SOPE  H18X19407   2.551   1.671   8.839 -1.0767  1.0458  0.1860
  171SOPE  H18Y19408   2.545   1.500   8.785  0.1430  0.5018 -0.0844
  171SOPE  H18Z19409   2.415   1.571   8.894  0.0400 -0.1776  0.7629
  172SOPE     N19410   1.216   6.761   6.372  0.5356 -0.0923 -0.3152
  172SOPE   HN119411   1.126   6.756   6.320 -0.8078  0.1673  1.8353
  172SOPE   HN219412   1.247   6.861   6.375 -0.9008  0.3595  1.6545
  172SOPE   HN319413   1.296   6.716   6.323  1.6632 -0.0221  1.3862
  172SOPE   C1219414   1.187   6.715   6.514 -0.1169 -0.5669  0.1471
  172SOPE  H12A19415   1.146   6.612   6.502  1.2293 -0.9565 -1.5922
  172SOPE  H12B19416   1.120   6.789   6.563 -2.6734 -1.8568 -1.1794
  172SOPE   C1119417   1.326   6.684   6.585  0.0487 -0.1921 -0.1640
  172SOPE  H11A19418   1.370   6.592   6.542 -0.8387 -0.9531  0.5055
  172SOPE  H11B19419   1.294   6.658   6.688 -1.5128  0.2376 -0.5119
  172SOPE     P19420   1.563   6.795   6.533  0.3219 -0.2161 -0.2030
  172SOPE   O1319421   1.610   6.936   6.518 -0.0567 -0.5826  0.4082
  172SOPE   O1419422   1.570   6.706   6.422  0.8028  0.0605 -0.1912
  172SOPE   O1219423   1.415   6.794   6.593 -0.4757  0.5980 -0.0749
  172SOPE   O1119424   1.648   6.732   6.638 -0.8188 -0.1307 -0.6494
  172SOPE    C119425   1.655   6.779   6.770  0.1312  0.1129  0.1895
  172SOPE    HA19426   1.628   6.887   6.775  2.3974  0.8268 -1.5777
  172SOPE    HB19427   1.756   6.781   6.815  0.5071 -0.9822 -0.5856
  172SOPE    C219428   1.566   6.695   6.860  0.0988  0.0098  0.1856
  172SOPE    HS19429   1.460   6.728   6.850  0.4071  1.2866  0.9460
  172SOPE   O2119430   1.606   6.693   6.995 -1.1867 -0.2117 -0.1061
  172SOPE   C2119431   1.595   6.812   7.058 -1.0171  0.3837 -0.3588
  172SOPE   O2219432   1.553   6.914   7.012  0.9998 -0.1302  0.4246
  172SOPE   C2219433   1.634   6.801   7.204  0.0823 -0.0683  0.6415
  172SOPE   H2R19434   1.647   6.904   7.243  0.3074  0.4790 -0.8100
  172SOPE   H2S19435   1.734   6.755   7.196  0.2634  0.2247  1.1755
  172SOPE    C319436   1.558   6.546   6.811  0.1837 -0.3580 -0.1774
  172SOPE    HX19437   1.660   6.501   6.815 -0.1411 -0.9965  2.0895
  172SOPE    HY19438   1.522   6.534   6.706 -1.3786 -1.7203  0.4656
  172SOPE   O3119439   1.461   6.474   6.888 -0.3228  0.5694 -0.5421
  172SOPE   C3119440   1.487   6.346   6.913  0.4492 -0.3400  0.2654
  172SOPE   O3219441   1.602   6.301   6.912 -0.1632  0.0608  0.3714
  172SOPE   C3219442   1.362   6.267   6.963 -0.2617 -0.6328 -0.3280
  172SOPE   H2X19443   1.320   6.220   6.871  0.1244  0.3974 -1.0532
  172SOPE   H2Y19444   1.286   6.341   6.998 -0.0340 -1.7475  2.8952
  172SOPE   C2319445   1.527   6.721   7.274 -0.4950  0.8026  0.3465
  172SOPE   H3R19446   1.588   6.665   7.348  1.6950  1.1578 -1.1129
  172SOPE   H3S19447   1.474   6.649   7.208  0.8732 -0.6615  0.7836
  172SOPE   C2419448   1.418   6.813   7.331 -0.2429  0.1653 -0.3106
  172SOPE   H4R19449   1.473   6.882   7.398 -0.5588 -0.9633  1.1614
  172SOPE   H4S19450   1.378   6.864   7.240 -0.1185 -0.3067 -0.6360
  172SOPE   C2519451   1.301   6.744   7.401  0.0448 -0.2383 -0.2903
  172SOPE   H5R19452   1.216   6.815   7.398  0.8078  0.7889  1.3643
  172SOPE   H5S19453   1.274   6.651   7.345  0.0638 -0.8757  0.7375
  172SOPE   C2619454   1.336   6.706   7.551  0.3216 -0.4955  0.1047
  172SOPE   H6R19455   1.408   6.622   7.551  0.4305 -0.4094  0.7541
  172SOPE   H6S19456   1.387   6.798   7.586 -1.1014  0.3263  0.0991
  172SOPE   C2719457   1.205   6.677   7.633 -0.9820  0.0289 -0.1589
  172SOPE   H7R19458   1.146   6.771   7.640  0.0142  0.7718 -1.3799
  172SOPE   H7S19459   1.140   6.598   7.589 -2.0380 -1.1064  3.1297
  172SOPE   C2819460   1.226   6.638   7.779  0.5845 -0.7308  0.1212
  172SOPE   H8R19461   1.285   6.546   7.795  0.4917 -0.9637 -0.7971
  172SOPE   H8S19462   1.292   6.715   7.826 -0.3591 -0.8634  1.7155
  172SOPE   C2919463   1.098   6.623   7.860 -0.3733 -0.4371 -0.2559
  172SOPE   H9119464   1.001   6.621   7.809 -0.4915  1.9547 -0.2180
  172SOPE  C21019465   1.100   6.610   7.995 -0.3731  0.1376 -0.4935
  172SOPE  H10119466   1.009   6.582   8.049 -0.2539 -3.6214 -1.9132
  172SOPE  C21119467   1.221   6.610   8.089  0.1298  0.1921  0.2476
  172SOPE  H11R19468   1.313   6.618   8.028  0.1622  0.0677  0.2799
  172SOPE  H11S19469   1.223   6.520   8.154  0.4557 -0.3762 -0.5332
  172SOPE  C21219470   1.223   6.734   8.181 -0.3961  0.4513 -1.2267
  172SOPE  H12R19471   1.214   6.831   8.127 -2.3782  0.2421 -1.3270
  172SOPE  H12S19472   1.324   6.732   8.227 -0.7144 -0.3542 -0.5483
  172SOPE  C21319473   1.116   6.729   8.285  0.0617  0.1737  0.2251
  172SOPE  H13R19474   1.013   6.739   8.244  0.4971  1.2340 -0.6569
  172SOPE  H13S19475   1.133   6.821   8.346  3.1490 -0.1334 -0.0373
  172SOPE  C21419476   1.127   6.617   8.393  0.1531 -0.0487 -0.1416
  172SOPE  H14R19477   1.223   6.649   8.440  0.4200  2.9588 -2.4225
  172SOPE  H14S19478   1.129   6.513   8.356  0.7643 -0.1191  0.0707
  172SOPE  C21519479   1.019   6.621   8.503 -0.0857 -0.1171  0.5807
  172SOPE  H15R19480   0.919   6.628   8.455  1.1323  1.1508 -2.0107
  172SOPE  H15S19481   1.030   6.716   8.560  1.1867  0.8958 -1.2639
  172SOPE  C21619482   1.012   6.519   8.623  0.4896  0.3749 -0.3112
  172SOPE  H16R19483   0.984   6.421   8.581 -2.0389  1.2211 -0.7798
  172SOPE  H16S19484   0.932   6.538   8.698  0.6036  0.0433 -0.1058
  172SOPE  C21719485   1.142   6.496   8.698 -0.1503 -0.4366 -0.3606
  172SOPE  H17R19486   1.171   6.596   8.735 -1.2536 -0.4389  0.5724
  172SOPE  H17S19487   1.216   6.452   8.629  1.1994  3.1085 -1.3863
  172SOPE  C21819488   1.133   6.391   8.810 -0.5321  0.1748 -0.7753
  172SOPE  H18R19489   1.125   6.287   8.770 -2.1338 -0.2200  0.4665
  172SOPE  H18S19490   1.050   6.419   8.878  0.0436 -0.8790  0.4019
  172SOPE  H18T19491   1.222   6.402   8.875 -1.3942 -0.5422  0.5674
  172SOPE   C3319492   1.405   6.171   7.073  1.2161 -0.5496 -0.5015
  172SOPE   H3X19493   1.500   6.127   7.037  2.1653  1.5033 -0.6538
  172SOPE   H3Y19494   1.324   6.096   7.087  0.9607 -0.1754  0.0935
  172SOPE   C3419495   1.423   6.246   7.206  0.1173 -0.4804 -0.4084
  172SOPE   H4X19496   1.360   6.338   7.213  0.6505 -0.1222 -0.2359
  172SOPE   H4Y19497   1.525   6.284   7.228 -0.3680  0.1084  0.9003
  172SOPE   C3519498   1.373   6.156   7.318  1.0580 -1.0158  0.1728
  172SOPE   H5X19499   1.426   6.060   7.330  1.4111 -0.4571  4.8658
  172SOPE   H5Y19500   1.269   6.128   7.292  0.3420  1.6240 -0.1073
  172SOPE   C3619501   1.385   6.232   7.450 -0.2036 -0.2347 -0.3488
  172SOPE   H6X19502   1.314   6.318   7.450 -1.7611 -1.4459 -1.4514
  172SOPE   H6Y19503   1.490   6.268   7.449  0.2546 -1.4149 -2.7822
  172SOPE   C3719504   1.358   6.146   7.570 -0.0964  0.2510 -0.5745
  172SOPE   H7X19505   1.432   6.064   7.584 -1.8986 -1.1369  1.4912
  172SOPE   H7Y19506   1.255   6.106   7.557  0.7950 -1.9827 -1.2073
  172SOPE   C3819507   1.358   6.227   7.698  0.1061 -0.2183 -0.3695
  172SOPE   H8X19508   1.296   6.316   7.672 -0.6087 -0.7552 -0.5310
  172SOPE   H8Y19509   1.463   6.256   7.717 -0.6443  1.5124  1.4902
  172SOPE   C3919510   1.338   6.128   7.809  0.4985  0.0216 -1.0741
  172SOPE   H9X19511   1.360   6.022   7.786  2.1562 -0.4325  1.9927
  172SOPE   H9Y19512   1.231   6.132   7.840  1.4922  3.1539  2.7020
  172SOPE  C31019513   1.416   6.140   7.940  0.8234 -0.9958  0.7035
  172SOPE  H10X19514   1.512   6.087   7.922  1.1550 -0.0618 -0.3657
  172SOPE  H10Y19515   1.358   6.073   8.008 -1.6873 -1.8959 -2.1172
  172SOPE  C31119516   1.442   6.284   7.991 -0.4632  0.0006  0.0150
  172SOPE  H11X19517   1.361   6.353   7.958  0.8372  1.5253 -0.1117
  172SOPE  H11Y19518   1.533   6.319   7.938 -0.4258 -0.5070 -0.2560
  172SOPE  C31219519   1.435   6.295   8.143 -0.4999  0.3422  0.0710
  172SOPE  H12X19520   1.452   6.195   8.188 -3.0599  0.1280  0.7324
  172SOPE  H12Y19521   1.330   6.312   8.174 -1.7348 -1.3690 -2.7319
  172SOPE  C31319522   1.516   6.415   8.198 -0.3708 -0.2076 -0.0561
  172SOPE  H13X19523   1.481   6.507   8.146  1.8960  0.3776 -0.6635
  172SOPE  H13Y19524   1.626   6.402   8.190 -0.3421 -0.3463  0.5212
  172SOPE  C31419525   1.494   6.431   8.349  0.2957 -0.0098 -0.1019
  172SOPE  H14X19526   1.511   6.333   8.399 -0.3681 -0.3823 -0.5865
  172SOPE  H14Y19527   1.389   6.466   8.354  0.5085  1.3164 -3.1134
  172SOPE  C31519528   1.597   6.518   8.415  0.6182 -0.2445 -0.2019
  172SOPE  H15X19529   1.600   6.623   8.380  0.9310 -0.2532 -0.2075
  172SOPE  H15Y19530   1.693   6.463   8.412  0.2023 -0.9550 -0.7133
  172SOPE  C31619531   1.556   6.535   8.563 -0.1555  0.7354 -0.8083
  172SOPE  H16X19532   1.567   6.437   8.614 -0.2094  0.8265 -0.6213
  172SOPE  H16Y19533   1.449   6.564   8.577  0.3753  2.6148 -0.3367
  172SOPE  C31719534   1.650   6.637   8.641  0.3258  0.0022 -0.3873
  172SOPE  H17X19535   1.642   6.738   8.595 -1.4396  0.0845  0.0298
  172SOPE  H17Y19536   1.753   6.602   8.621  1.1877  1.1130  1.8179
  172SOPE  C31819537   1.629   6.638   8.795  0.1300 -0.5574 -0.2978
  172SOPE  H18X19538   1.528   6.671   8.827  0.7122  0.4061  0.6230
  172SOPE  H18Y19539   1.698   6.714   8.839  0.6776 -0.6123 -1.0555
  172SOPE  H18Z19540   1.644   6.533   8.828 -2.6259 -0.7557  0.5633
  173SAPI   C1219541   3.713   0.732  10.679 -0.2280  0.5755  0.2673
  173SAPI    H219542   3.715   0.660  10.596 -2.2987 -0.0151  0.6640
  173SAPI    O219543   3.812   0.834  10.672 -0.3161  0.2408 -0.1619
  173SAPI   HO219544   3.896   0.789  10.660 -0.0365  0.0809  2.0392
  173SAPI   C1319545   3.574   0.782  10.677 -0.6153  0.6108 -0.4311
  173SAPI    H319546   3.503   0.697  10.684  0.4661 -0.2585  0.4381
  173SAPI    O319547   3.546   0.852  10.555 -0.3284  0.0719 -0.2713
  173SAPI   HO319548   3.612   0.920  10.539 -0.6478  0.5895  0.5331
  173SAPI   C1419549   3.549   0.870  10.800  0.0300 -0.5596 -0.4331
  173SAPI    H419550   3.616   0.959  10.796 -2.7989  1.6964 -1.6854
  173SAPI    O419551   3.419   0.932  10.800  0.3738  0.0914  0.2431
  173SAPI   HO419552   3.424   1.017  10.844 -0.2780 -0.5095  1.5087
  173SAPI   C1519553   3.574   0.792  10.931  0.7409 -0.1268  0.3505
  173SAPI    H519554   3.499   0.711  10.938  1.1326 -0.4344  1.1972
  173SAPI    O519555   3.551   0.866  11.047 -0.1864 -1.2662  0.6106
  173SAPI   HO519556   3.458   0.890  11.041 -0.3063 -2.0734 -1.6251
  173SAPI   C1619557   3.715   0.726  10.928  1.4239 -0.9571  0.2760
  173SAPI    H619558   3.788   0.808  10.937 -0.6171  1.1650 -1.4400
  173SAPI    O619559   3.728   0.635  11.035 -0.2746  0.0813 -0.4640
  173SAPI   HO619560   3.761   0.549  11.008  0.7680 -0.9973  3.5072
  173SAPI   C1119561   3.732   0.644  10.802  0.0726 -0.1570 -0.3821
  173SAPI    H119562   3.652   0.567  10.800  1.4513 -1.7854  1.8922
  173SAPI     P19563   3.910   0.442  10.853 -0.1535 -0.0100  0.7449
  173SAPI   O1319564   3.847   0.422  10.982  0.1543  0.4580  0.1552
  173SAPI   O1419565   4.060   0.441  10.855 -0.3181 -0.4478  0.0408
  173SAPI   O1219566   3.863   0.590  10.789  0.9144  0.0153 -0.2114
  173SAPI   O1119567   3.845   0.340  10.746  0.1767 -0.0099  0.3205
  173SAPI    C119568   3.735   0.264  10.796 -0.1018  0.1482 -0.0858
  173SAPI    HA19569   3.781   0.176  10.846  1.0551  0.2645 -0.8984
  173SAPI    HB19570   3.663   0.317  10.863 -0.9079 -0.6665 -0.2999
  173SAPI    C219571   3.647   0.188  10.695  0.3546 -0.6455 -0.0032
  173SAPI    HS19572   3.593   0.116  10.760 -0.1105  1.3184  1.9284
  173SAPI   O2119573   3.739   0.125  10.602 -0.0327  0.1036  0.0629
  173SAPI   C2119574   3.681   0.018  10.539 -0.1255 -1.3256  0.0224
  173SAPI   O2219575   3.568  -0.014  10.558 -0.2138  0.2923 -0.0676
  173SAPI   C2219576   3.784  -0.039  10.441  0.0235 -0.2111 -0.6408
  173SAPI   H2R19577   3.766  -0.003  10.338 -1.4585  1.4857  0.1662
  173SAPI   H2S19578   3.885  -0.009  10.476 -0.2034  0.6567 -0.7120
  173SAPI    C319579   3.544   0.281  10.630 -0.4929 -0.4912  0.1365
  173SAPI    HX19580   3.478   0.329  10.705  0.6547  1.0344  0.2066
  173SAPI    HY19581   3.478   0.211  10.575 -0.7740  0.1752 -0.3848
  173SAPI   O3119582   3.600   0.393  10.557 -0.7200  0.1180  0.0158
  173SAPI   C3119583   3.574   0.395  10.429 -0.3111  0.1161  0.6763
  173SAPI   O3219584   3.497   0.319  10.373 -0.2989  0.4445 -0.1886
  173SAPI   C3219585   3.654   0.503  10.358 -0.6146 -1.2183  0.2461
  173SAPI   H2X19586   3.759   0.512  10.394  0.3052  0.6279 -2.5612
  173SAPI   H2Y19587   3.592   0.592  10.385  1.2295 -0.0603  0.8887
  173SAPI   C2319588   3.776  -0.195  10.451 -0.2171 -0.2226  0.2386
  173SAPI   H3R19589   3.730  -0.229  10.547 -0.2651  0.5626  0.5040
  173SAPI   H3S19590   3.885  -0.212  10.469  0.2302  2.1152  0.0417
  173SAPI   C2419591   3.708  -0.263  10.333 -0.0263 -0.1236 -0.4156
  173SAPI   H4R19592   3.731  -0.371  10.347 -1.3683 -0.6092 -1.6308
  173SAPI   H4S19593   3.750  -0.232  10.234 -0.3720 -1.2463 -0.9349
  173SAPI   C2519594   3.562  -0.259  10.313  0.4638  0.1913 -0.2628
  173SAPI   H5R19595   3.514  -0.214  10.401 -0.1194  1.6936 -1.3040
  173SAPI   C2619596   3.498  -0.278  10.197  0.6421  0.4092 -0.6691
  173SAPI   H6R19597   3.389  -0.268  10.205  0.8153  0.6912  2.1387
  173SAPI   C2719598   3.574  -0.314  10.067 -0.7937  0.3819  0.1137
  173SAPI   H7R19599   3.514  -0.383  10.004 -0.9242  2.7172 -2.4952
  173SAPI   H7S19600   3.674  -0.358  10.088 -0.8830  1.0917  2.3004
  173SAPI   C2819601   3.586  -0.193   9.971  0.3126  0.1957  0.3765
  173SAPI   H8R19602   3.584  -0.095  10.021  0.3676 -0.1704  1.1043
  173SAPI   C2919603   3.586  -0.204   9.834  0.7879  0.7813 -0.6745
  173SAPI   H9R19604   3.579  -0.113   9.773  0.7217  0.0247 -1.8312
  173SAPI  C21019605   3.588  -0.330   9.755 -0.0020 -0.3380  0.8319
  173SAPI  H10R19606   3.481  -0.360   9.744 -0.3413  1.1971 -0.3672
  173SAPI  H10S19607   3.635  -0.407   9.821 -1.1610 -1.0919  0.8152
  173SAPI  C21119608   3.663  -0.339   9.619  0.2350 -0.0428 -0.5670
  173SAPI  H11R19609   3.768  -0.304   9.620 -0.4313  2.0335 -0.2686
  173SAPI  C21219610   3.609  -0.361   9.499 -0.2614  0.0543  0.1000
  173SAPI  H12R19611   3.674  -0.366   9.411  0.5814 -0.5283  0.7367
  173SAPI  C21319612   3.466  -0.403   9.468  0.0076 -0.0675  0.6165
  173SAPI  H13R19613   3.415  -0.305   9.453  1.8097  1.2043  2.1790
  173SAPI  H13S19614   3.409  -0.446   9.553  0.0853 -1.2639  0.0776
  173SAPI  C21419615   3.466  -0.496   9.350  0.0073 -0.4427 -0.5633
  173SAPI  H14R19616   3.453  -0.605   9.362  1.6969 -0.8962 -2.4151
  173SAPI  C21519617   3.461  -0.460   9.219  0.3583  0.1946  0.0286
  173SAPI  H15R19618   3.462  -0.538   9.141  1.3248  1.2043 -1.0038
  173SAPI  C21619619   3.458  -0.313   9.175  0.0187  0.4211  0.5765
  173SAPI  H16R19620   3.512  -0.256   9.253  1.2718 -0.8408  0.6683
  173SAPI  H16S19621   3.355  -0.274   9.188 -0.8222 -1.9453  1.5994
  173SAPI  C21719622   3.539  -0.276   9.052 -0.0954  0.0000  0.0463
  173SAPI  H17R19623   3.537  -0.166   9.039  1.3815 -0.0344 -0.6887
  173SAPI  H17S19624   3.488  -0.328   8.969  0.2301  1.0592 -0.8316
  173SAPI  C21819625   3.692  -0.299   9.056  0.8069 -0.4307 -0.0579
  173SAPI  H18R19626   3.712  -0.407   9.071  0.7687 -0.6506 -1.4935
  173SAPI  H18S19627   3.731  -0.257   9.152 -0.7880 -1.1818  0.9599
  173SAPI  C21919628   3.776  -0.243   8.937 -0.8748  0.5726  0.2431
  173SAPI  H19R19629   3.757  -0.134   8.934 -3.2067  0.4459  3.9429
  173SAPI  H19S19630   3.748  -0.299   8.845  1.0172  0.1148 -0.1031
  173SAPI  C22019631   3.927  -0.273   8.948  0.0884 -0.2158  0.1523
  173SAPI  H20R19632   3.950  -0.381   8.939 -0.8892 -0.6115  1.8472
  173SAPI  H20S19633   3.969  -0.231   9.042 -0.2628 -0.1388  0.2787
  173SAPI  H20T19634   3.981  -0.233   8.859 -1.2230 -1.7198 -1.3918
  173SAPI   C3319635   3.675   0.475  10.206  0.5266  0.2373  0.6074
  173SAPI   H3X19636   3.717   0.570  10.166 -0.3067  1.0957  1.6691
  173SAPI   H3Y19637   3.581   0.463  10.148  1.9161  0.6035 -1.8099
  173SAPI   C3419638   3.766   0.360  10.185 -0.6001  0.1930  0.1519
  173SAPI   H4X19639   3.740   0.263  10.231 -0.0285  1.0981  2.5155
  173SAPI   H4Y19640   3.870   0.389  10.211 -0.4943  0.2742 -0.3488
  173SAPI   C3519641   3.769   0.340  10.032  0.0534 -0.3490  0.0636
  173SAPI   H5X19642   3.804   0.439   9.998  0.2287 -1.0746 -1.9743
  173SAPI   H5Y19643   3.664   0.328   9.997  0.0773 -0.8341  0.1515
  173SAPI   C3619644   3.860   0.222   9.990  0.5407 -0.4621  0.0137
  173SAPI   H6X19645   3.816   0.129  10.031  0.1304 -1.2764 -2.1683
  173SAPI   H6Y19646   3.958   0.251  10.034 -0.7883  0.1713  2.8421
  173SAPI   C3719647   3.865   0.203   9.838 -0.2624 -0.6174  0.5872
  173SAPI   H7X19648   3.964   0.160   9.812 -0.8917 -2.1400  0.6039
  173SAPI   H7Y19649   3.852   0.301   9.788 -2.5526 -0.6113  1.1097
  173SAPI   C3819650   3.748   0.130   9.774 -0.0563 -0.5640 -0.6327
  173SAPI   H8X19651   3.656   0.190   9.796  1.0036  1.1443 -0.6619
  173SAPI   H8Y19652   3.745   0.027   9.815  0.9522 -0.5057 -0.4000
  173SAPI   C3919653   3.753   0.112   9.622 -0.4652  0.0294 -0.3112
  173SAPI   H9X19654   3.661   0.056   9.596 -0.4898  0.2856 -0.7880
  173SAPI   H9Y19655   3.850   0.060   9.610  0.1621  1.1746 -0.3593
  173SAPI  C31019656   3.762   0.248   9.543  1.2054  0.1544 -0.1099
  173SAPI  H10X19657   3.854   0.309   9.556  1.2140  1.0416 -3.4712
  173SAPI  H10Y19658   3.679   0.317   9.572  1.8684  1.8310 -1.9644
  173SAPI  C31119659   3.754   0.219   9.390  0.1557 -0.1482  0.2318
  173SAPI  H11X19660   3.744   0.318   9.341 -0.2013 -0.2923  0.0160
  173SAPI  H11Y19661   3.663   0.157   9.381 -0.4763  0.6849  0.7787
  173SAPI  C31219662   3.879   0.149   9.330  1.0614 -0.1503  0.5055
  173SAPI  H12X19663   3.899   0.057   9.388  0.4281  0.1259  1.1877
  173SAPI  H12Y19664   3.962   0.223   9.334  0.6250  0.3133  1.4905
  173SAPI  C31319665   3.847   0.089   9.190 -0.1433  0.1404 -0.2432
  173SAPI  H13X19666   3.771   0.009   9.205  0.9993 -0.5692  2.1805
  173SAPI  H13Y19667   3.937   0.034   9.157  0.1842  0.6326 -0.1804
  173SAPI  C31419668   3.804   0.194   9.080 -0.1213  0.5142 -0.2225
  173SAPI  H14X19669   3.720   0.256   9.117  0.1285  1.6659 -1.5072
  173SAPI  H14Y19670   3.764   0.132   8.997  0.2360  1.1073 -0.8498
  173SAPI  C31519671   3.917   0.286   9.030  0.1746 -0.3489 -0.3746
  173SAPI  H15X19672   4.000   0.231   8.980 -1.6435 -2.0551 -1.6658
  173SAPI  H15Y19673   3.964   0.326   9.122 -2.2953  1.3490  0.2376
  173SAPI  C31619674   3.858   0.395   8.935 -0.2532  0.4230  0.0291
  173SAPI  H16X19675   3.938   0.464   8.900  0.3967 -0.5665 -0.5023
  173SAPI  H16Y19676   3.788   0.461   8.989 -0.4877 -0.2239  0.5236
  173SAPI  C31719677   3.787   0.344   8.808  0.1790 -0.5036  0.7126
  173SAPI  H17X19678   3.767   0.431   8.740 -0.0515 -1.5618 -0.6207
  173SAPI  H17Y19679   3.689   0.292   8.805 -0.0748 -0.0267  0.6159
  173SAPI  C31819680   3.873   0.259   8.718  0.6061  0.0903  0.1117
  173SAPI  H18X19681   3.969   0.312   8.698 -0.3769  1.6333 -0.6967
  173SAPI  H18Y19682   3.814   0.244   8.625 -0.6380  0.2777  0.8492
  173SAPI  H18Z19683   3.884   0.163   8.773 -3.0987 -0.2671  0.5132
  174SAPI   C1219684   0.702   3.839  11.007 -0.6329  0.2971 -0.0313
  174SAPI    H219685   0.750   3.939  11.015  2.2341 -1.0171  0.5121
  174SAPI    O219686   0.785   3.733  11.058 -0.0991 -0.2863 -0.1253
  174SAPI   HO219687   0.834   3.693  10.986  0.7827 -0.8708  0.7805
  174SAPI   C1319688   0.581   3.857  11.094 -0.7909  0.0687 -0.0330
  174SAPI    H319689   0.526   3.941  11.047  0.4645  0.9797  0.0733
  174SAPI    O319690   0.618   3.902  11.227 -0.2463  0.3278 -0.3028
  174SAPI   HO319691   0.669   3.829  11.262  2.2561  1.5963 -1.0764
  174SAPI   C1419692   0.490   3.740  11.096  0.1073  0.3623  0.0648
  174SAPI    H419693   0.532   3.655  11.154 -0.8358  0.4771  0.9367
  174SAPI    O419694   0.373   3.768  11.166  0.7720 -0.3931 -0.0944
  174SAPI   HO419695   0.396   3.741  11.255 -3.0170 -0.1621  1.1725
  174SAPI   C1519696   0.455   3.696  10.957 -0.0724  0.0616 -0.3997
  174SAPI    H519697   0.394   3.777  10.912  0.0628 -0.1904 -1.0444
  174SAPI    O519698   0.373   3.574  10.954 -0.3882 -0.0631 -0.4683
  174SAPI   HO519699   0.305   3.581  11.021  1.4380  0.9507  1.4073
  174SAPI   C1619700   0.572   3.680  10.858 -0.4549  0.7105  0.6780
  174SAPI    H619701   0.640   3.596  10.879  0.6816  1.2372 -0.7057
  174SAPI    O619702   0.523   3.662  10.727 -0.5776  0.5199  0.0932
  174SAPI   HO619703   0.473   3.740  10.700 -0.7027 -0.1321 -1.7383
  174SAPI   C1119704   0.651   3.811  10.862  0.6289  0.2209 -0.8324
  174SAPI    H119705   0.587   3.894  10.824 -1.2825 -0.6169  0.3914
  174SAPI     P19706   0.858   3.904  10.701  0.0870 -0.5240  0.1651
  174SAPI   O1319707   0.984   3.836  10.659  0.0242 -0.1056 -0.0157
  174SAPI   O1419708   0.874   4.027  10.781  0.1095  0.6003  0.1675
  174SAPI   O1219709   0.769   3.793  10.786  0.3823 -0.4221  0.3483
  174SAPI   O1119710   0.773   3.940  10.575  0.1061  0.7594 -0.2184
  174SAPI    C119711   0.717   3.835  10.495 -0.1797 -0.3550  0.1903
  174SAPI    HA19712   0.784   3.747  10.492  0.8209  0.4022 -0.2667
  174SAPI    HB19713   0.618   3.808  10.537 -0.3964  1.2803  0.8203
  174SAPI    C219714   0.695   3.885  10.348 -0.0553  0.9181 -0.3650
  174SAPI    HS19715   0.622   3.819  10.297  0.9128 -0.4713 -0.0096
  174SAPI   O2119716   0.816   3.876  10.278  0.5844  0.4695 -0.7560
  174SAPI   C2119717   0.853   3.765  10.227  0.0857  0.6904 -0.6560
  174SAPI   O2219718   0.784   3.663  10.223  0.2846  0.1681  0.2900
  174SAPI   C2219719   0.987   3.777  10.169  0.3964 -0.5913  0.5745
  174SAPI   H2R19720   1.022   3.682  10.123  0.4952  0.1324 -0.9105
  174SAPI   H2S19721   0.983   3.848  10.084  1.7069 -1.6898 -0.4459
  174SAPI    C319722   0.631   4.022  10.337  0.3967  0.2228 -0.1776
  174SAPI    HX19723   0.706   4.098  10.370 -0.1175  0.6499  0.0132
  174SAPI    HY19724   0.540   4.020  10.400 -0.5560  2.2178 -1.3935
  174SAPI   O3119725   0.588   4.045  10.205  0.9584  0.2220  0.1293
  174SAPI   C3119726   0.562   4.176  10.175 -0.4649  0.7207  0.0825
  174SAPI   O3219727   0.564   4.265  10.254 -0.2775  0.0950  0.0991
  174SAPI   C3219728   0.530   4.203  10.026  0.3043 -0.4184 -0.7351
  174SAPI   H2X19729   0.614   4.268   9.996  1.4520 -2.1949 -1.5455
  174SAPI   H2Y19730   0.438   4.265  10.012  1.6261  1.8866  0.2031
  174SAPI   C2319731   1.093   3.820  10.274  0.4524  0.8123  0.2306
  174SAPI   H3R19732   1.118   3.737  10.344 -0.9173  1.9737  2.1834
  174SAPI   H3S19733   1.062   3.909  10.332  3.1453  0.6657  2.1143
  174SAPI   C2419734   1.223   3.859  10.201  0.4794 -0.1229 -0.9588
  174SAPI   H4R19735   1.287   3.900  10.282 -0.7051  0.4669 -0.2978
  174SAPI   H4S19736   1.191   3.945  10.139 -0.4195  0.4454  0.2430
  174SAPI   C2519737   1.291   3.742  10.140  0.4388  0.2050  0.3248
  174SAPI   H5R19738   1.322   3.671  10.218 -0.9783 -1.2257 -0.3521
  174SAPI   C2619739   1.324   3.725  10.010 -0.7248 -0.5896 -0.0210
  174SAPI   H6R19740   1.372   3.635   9.968  2.7499  1.1889 -0.2044
  174SAPI   C2719741   1.284   3.826   9.899 -0.3378  0.7857  0.0247
  174SAPI   H7R19742   1.180   3.865   9.908 -0.9862 -1.2149  2.3493
  174SAPI   H7S19743   1.266   3.759   9.812 -1.0487 -0.7919  1.3419
  174SAPI   C2819744   1.371   3.938   9.858  0.4640 -0.0750 -0.3157
  174SAPI   H8R19745   1.432   3.982   9.939  3.6108 -1.7576 -1.5659
  174SAPI   C2919746   1.384   3.982   9.730 -0.3299 -0.1650  0.4614
  174SAPI   H9R19747   1.459   4.060   9.710  1.4474 -1.9384 -0.0047
  174SAPI  C21019748   1.314   3.938   9.606  0.5783 -0.1873 -0.3827
  174SAPI  H10R19749   1.288   4.026   9.542 -1.0434 -0.8337 -0.6748
  174SAPI  H10S19750   1.214   3.898   9.633  1.2031 -0.9958  0.8012
  174SAPI  C21119751   1.393   3.840   9.523 -0.4231  0.2227  0.0854
  174SAPI  H11R19752   1.399   3.744   9.575  1.1026  1.3497  2.1585
  174SAPI  C21219753   1.437   3.867   9.397 -0.4657 -0.1109  0.2374
  174SAPI  H12R19754   1.489   3.791   9.338  0.3893  2.2021 -2.1832
  174SAPI  C21319755   1.422   3.998   9.322  0.0426  0.4367  0.4485
  174SAPI  H13R19756   1.512   4.012   9.259 -0.0830 -2.7644 -0.5839
  174SAPI  H13S19757   1.433   4.083   9.393  0.6979  0.2384  0.5953
  174SAPI  C21419758   1.290   4.007   9.246 -0.1709  0.6895  0.5169
  174SAPI  H14R19759   1.205   3.956   9.293  1.0517 -1.1142  0.8601
  174SAPI  C21519760   1.273   4.032   9.111 -0.6212 -0.4052 -0.6835
  174SAPI  H15R19761   1.174   4.043   9.066  0.2094  0.2563 -2.4392
  174SAPI  C21619762   1.394   4.071   9.022 -0.1190 -0.4024  0.1996
  174SAPI  H16R19763   1.450   4.148   9.078  1.4889  0.6075 -2.5609
  174SAPI  H16S19764   1.354   4.117   8.928  1.8624 -1.6399 -1.3269
  174SAPI  C21719765   1.487   3.954   8.989 -0.4739  0.4167 -0.0099
  174SAPI  H17R19766   1.432   3.883   8.923 -1.0652 -0.6051  1.5354
  174SAPI  H17S19767   1.521   3.909   9.085 -0.9161  1.0385  0.4469
  174SAPI  C21819768   1.608   4.004   8.917  0.2261 -0.2288  0.0087
  174SAPI  H18R19769   1.635   4.095   8.975  2.9425 -0.4595 -0.7419
  174SAPI  H18S19770   1.567   4.035   8.818 -1.4681 -0.9578  0.4415
  174SAPI  C21919771   1.724   3.911   8.897 -0.4991 -1.0350  0.2372
  174SAPI  H19R19772   1.697   3.856   8.805  0.6541  2.5912 -2.4788
  174SAPI  H19S19773   1.740   3.838   8.980 -0.7122 -2.6604 -1.1061
  174SAPI  C22019774   1.842   3.986   8.833  0.3681  0.0351  0.2060
  174SAPI  H20R19775   1.882   4.064   8.901 -0.2306  2.4956 -2.1167
  174SAPI  H20S19776   1.800   4.036   8.744 -0.9460 -0.0810  0.7346
  174SAPI  H20T19777   1.925   3.920   8.798 -0.8037 -2.1377  1.3375
  174SAPI   C3319778   0.543   4.093   9.929  0.0914 -0.1173  0.2281
  174SAPI   H3X19779   0.454   4.026   9.935  0.8016 -1.0200  1.0052
  174SAPI   H3Y19780   0.631   4.027   9.941  0.2386  0.2029  0.9088
  174SAPI   C3419781   0.549   4.142   9.782 -1.3326 -0.5164 -0.4715
  174SAPI   H4X19782   0.599   4.241   9.780 -0.6486 -0.8003  1.0446
  174SAPI   H4Y19783   0.441   4.157   9.758 -1.4141 -1.7899 -1.0357
  174SAPI   C3519784   0.612   4.043   9.701  0.8654  0.4070 -0.0843
  174SAPI   H5X19785   0.545   3.956   9.683  1.0087  0.5707 -1.4989
  174SAPI   H5Y19786   0.707   4.001   9.739  0.1866 -1.0243  0.0964
  174SAPI   C3619787   0.647   4.086   9.556  0.4069 -0.7133  0.1008
  174SAPI   H6X19788   0.723   4.167   9.562 -0.6304  0.2510  0.7610
  174SAPI   H6Y19789   0.558   4.116   9.497 -0.1205  0.2616  1.3313
  174SAPI   C3719790   0.723   3.984   9.463  0.0708  0.4745  0.0225
  174SAPI   H7X19791   0.667   3.888   9.468  1.6585 -0.4414  1.4904
  174SAPI   H7Y19792   0.827   3.967   9.500 -0.8318 -2.4218  1.5730
  174SAPI   C3819793   0.742   4.039   9.319  0.0320  0.6884 -0.0344
  174SAPI   H8X19794   0.809   4.127   9.331  0.2803  0.1852  3.3023
  174SAPI   H8Y19795   0.648   4.059   9.263  0.2154 -0.6982 -0.8995
  174SAPI   C3919796   0.829   3.933   9.241  0.0453 -1.0258 -0.2608
  174SAPI   H9X19797   0.798   3.833   9.279  1.1327 -0.9518  0.8891
  174SAPI   H9Y19798   0.936   3.940   9.267 -0.1832 -1.7646  0.9671
  174SAPI  C31019799   0.797   3.930   9.091 -0.3207 -0.0497  0.2222
  174SAPI  H10X19800   0.825   4.030   9.050 -2.5065  0.7184  0.4908
  174SAPI  H10Y19801   0.695   3.906   9.055  0.1146 -2.2897  0.3725
  174SAPI  C31119802   0.881   3.821   9.027  0.7469  0.1630 -0.1752
  174SAPI  H11X19803   0.837   3.729   9.073 -0.4489  1.8451  2.2821
  174SAPI  H11Y19804   0.986   3.834   9.059  0.5976 -0.8188  0.7858
  174SAPI  C31219805   0.870   3.816   8.873 -0.1131 -0.0182 -0.4076
  174SAPI  H12X19806   0.771   3.789   8.829 -0.1578 -2.9409  1.2690
  174SAPI  H12Y19807   0.943   3.737   8.845 -1.0806 -1.2600  0.4490
  174SAPI  C31319808   0.911   3.949   8.812 -0.0131  0.2287 -0.3460
  174SAPI  H13X19809   1.000   3.998   8.857 -0.2771  0.3045  0.1017
  174SAPI  H13Y19810   0.831   4.023   8.837  0.5160  0.0644  2.0668
  174SAPI  C31419811   0.927   3.942   8.661  0.4762  1.2597 -0.8342
  174SAPI  H14X19812   0.843   3.997   8.613 -0.2201 -0.8786 -2.2379
  174SAPI  H14Y19813   0.913   3.836   8.631  2.3540  0.4800  0.8301
  174SAPI  C31519814   1.059   3.998   8.603 -0.7486 -0.4736  0.6216
  174SAPI  H15X19815   1.075   4.101   8.643 -1.8411  0.3588 -0.9789
  174SAPI  H15Y19816   1.057   4.014   8.493 -1.6492 -0.4893  0.6286
  174SAPI  C31619817   1.179   3.911   8.622  0.3124  0.3222  0.0266
  174SAPI  H16X19818   1.171   3.813   8.571 -0.7901  0.8302 -0.8268
  174SAPI  H16Y19819   1.185   3.891   8.731 -0.6419 -0.3194 -0.0288
  174SAPI  C31719820   1.322   3.969   8.597  1.0476  0.1347 -0.3183
  174SAPI  H17X19821   1.390   3.918   8.667 -1.9424 -1.1356  1.9027
  174SAPI  H17Y19822   1.318   4.075   8.632  3.2381  0.2367 -0.2814
  174SAPI  C31819823   1.366   3.961   8.447  0.2039  0.1177 -0.2207
  174SAPI  H18X19824   1.344   3.865   8.397 -3.6802  0.8661 -0.2680
  174SAPI  H18Y19825   1.475   3.982   8.450 -0.0517  1.6007 -0.3562
  174SAPI  H18Z19826   1.317   4.042   8.388 -1.5121  0.6178  1.7703
  175SAPI   C1219827   2.829   2.424   6.169  0.2937 -0.1299 -0.4294
  175SAPI    H219828   2.804   2.468   6.267  3.0898  0.9782 -0.1116
  175SAPI    O219829   2.803   2.286   6.158  0.3758  0.2967  0.5972
  175SAPI   HO219830   2.751   2.260   6.234  1.4199  1.5146  1.7621
  175SAPI   C1319831   2.742   2.510   6.072 -0.4932  0.3473 -0.1078
  175SAPI    H319832   2.765   2.617   6.084 -1.5236  0.3395  2.6089
  175SAPI    O319833   2.604   2.499   6.103  1.0239 -0.0296 -0.2344
  175SAPI   HO319834   2.565   2.440   6.039 -0.6827  0.7322  0.0644
  175SAPI   C1419835   2.774   2.479   5.927 -0.3401 -0.6151  0.3890
  175SAPI    H419836   2.765   2.369   5.926  0.9148 -0.7282 -0.4125
  175SAPI    O419837   2.677   2.528   5.830 -0.1045 -0.2696  0.2958
  175SAPI   HO419838   2.708   2.611   5.793  1.2784  0.0585  2.0397
  175SAPI   C1519839   2.918   2.504   5.886  0.1828  0.0217 -0.4697
  175SAPI    H519840   2.936   2.614   5.886 -0.5009  0.1352 -0.9320
  175SAPI    O519841   2.944   2.467   5.751 -0.3032 -0.0517 -0.7552
  175SAPI   HO519842   2.964   2.545   5.699  1.5128 -0.2670 -0.4379
  175SAPI   C1619843   3.011   2.431   5.983 -0.3312 -0.3636 -0.8708
  175SAPI    H619844   2.998   2.321   5.973 -1.8935 -0.2340 -0.4945
  175SAPI    O619845   3.146   2.463   5.963 -0.7414 -0.1406  0.3637
  175SAPI   HO619846   3.197   2.384   5.983  2.1657  1.7859  1.1129
  175SAPI   C1119847   2.978   2.455   6.132 -0.1068  0.3642  0.4046
  175SAPI    H119848   2.987   2.564   6.155  1.2084 -0.2122  3.1672
  175SAPI     P19849   3.172   2.440   6.315  0.3965 -0.1050  0.0452
  175SAPI   O1319850   3.203   2.581   6.284  0.3642 -0.5483 -0.5999
  175SAPI   O1419851   3.278   2.339   6.302 -0.1414  0.3423  0.0813
  175SAPI   O1219852   3.050   2.388   6.227  0.1072  0.6298  0.5251
  175SAPI   O1119853   3.106   2.431   6.460  0.0479 -0.2175 -0.3499
  175SAPI    C119854   3.045   2.309   6.511  0.1779 -0.1721 -0.4515
  175SAPI    HA19855   2.938   2.308   6.483  0.3564 -0.8869 -1.1194
  175SAPI    HB19856   3.091   2.221   6.461  2.3570 -0.5879  2.0683
  175SAPI    C219857   3.066   2.283   6.661 -0.0186 -0.9272 -0.4569
  175SAPI    HS19858   2.991   2.210   6.699 -1.4753  1.5243  1.7150
  175SAPI   O2119859   3.064   2.408   6.731 -0.0317 -0.1819  0.9032
  175SAPI   C2119860   2.953   2.480   6.746  0.1476  0.3487 -0.5069
  175SAPI   O2219861   2.839   2.435   6.729 -0.1643 -0.2653 -0.3650
  175SAPI   C2219862   2.993   2.620   6.797  0.0516 -0.5051  0.2145
  175SAPI   H2R19863   3.060   2.663   6.719 -1.0866  0.6575 -0.1602
  175SAPI   H2S19864   2.900   2.680   6.803  0.7612  0.6445  0.1649
  175SAPI    C319865   3.203   2.212   6.683 -0.2373 -0.1069  0.2400
  175SAPI    HX19866   3.279   2.284   6.648 -0.5341  0.7807  1.3500
  175SAPI    HY19867   3.215   2.126   6.614  0.7074  1.6563 -1.9101
  175SAPI   O3119868   3.210   2.168   6.816 -0.2035  0.1037 -0.2934
  175SAPI   C3119869   3.261   2.264   6.889  0.3791  0.1880 -0.4428
  175SAPI   O3219870   3.334   2.354   6.857  0.1172 -0.2924  0.3364
  175SAPI   C3219871   3.214   2.229   7.033  0.1478 -0.6772 -0.1708
  175SAPI   H2X19872   3.112   2.271   7.047  0.8062  0.3459  1.9931
  175SAPI   H2Y19873   3.294   2.273   7.097  0.6540 -1.1694 -0.4543
  175SAPI   C2319874   3.045   2.610   6.942 -0.2993 -0.7009 -0.2013
  175SAPI   H3R19875   3.107   2.518   6.944 -1.3168 -1.4100  2.0476
  175SAPI   H3S19876   2.955   2.585   7.002 -1.5876  0.7459 -1.4464
  175SAPI   C2419877   3.114   2.738   6.993  0.2864 -0.6659 -0.1783
  175SAPI   H4R19878   3.135   2.738   7.103  4.2695 -1.7269 -0.7958
  175SAPI   H4S19879   3.061   2.833   6.971 -0.0506 -0.8030  0.0352
  175SAPI   C2519880   3.255   2.747   6.940 -0.3474  0.3328  0.8334
  175SAPI   H5R19881   3.270   2.769   6.833  0.3828 -0.1821  0.8262
  175SAPI   C2619882   3.370   2.725   7.013  0.0820 -0.6671 -0.3562
  175SAPI   H6R19883   3.468   2.718   6.964 -1.1949 -2.8564 -2.9126
  175SAPI   C2719884   3.374   2.699   7.162  0.6919  0.4651  1.0756
  175SAPI   H7R19885   3.286   2.743   7.213 -0.0212 -1.0592  1.2174
  175SAPI   H7S19886   3.463   2.749   7.207  0.0895  0.3186  2.5015
  175SAPI   C2819887   3.394   2.552   7.196  0.3789  0.1802 -0.2533
  175SAPI   H8R19888   3.488   2.504   7.165  0.7025  1.5048 -1.4208
  175SAPI   C2919889   3.305   2.484   7.279 -0.4590  0.7045 -0.0577
  175SAPI   H9R19890   3.333   2.381   7.304 -0.2314  0.9972  0.9174
  175SAPI  C21019891   3.183   2.539   7.350  0.3050 -1.0370  0.5154
  175SAPI  H10R19892   3.121   2.587   7.271 -0.3995 -0.8992  1.1437
  175SAPI  H10S19893   3.212   2.625   7.414  1.1177  0.8013 -2.1777
  175SAPI  C21119894   3.102   2.432   7.409  0.4912  0.3086  0.3805
  175SAPI  H11R19895   3.010   2.404   7.356  0.3802 -1.0027  1.2022
  175SAPI  C21219896   3.133   2.372   7.523 -0.0303  0.2371  0.0425
  175SAPI  H12R19897   3.071   2.285   7.550 -0.3915  0.4788  0.0068
  175SAPI  C21319898   3.259   2.395   7.609 -0.0713  0.5100  0.6018
  175SAPI  H13R19899   3.324   2.475   7.568  0.2929  0.4186  0.9790
  175SAPI  H13S19900   3.332   2.312   7.594  0.5700  1.2277 -0.3413
  175SAPI  C21419901   3.230   2.414   7.755  0.3812 -0.5033 -0.4602
  175SAPI  H14R19902   3.213   2.517   7.791  0.4057 -0.8472  0.5655
  175SAPI  C21519903   3.216   2.316   7.845  0.3553 -0.3312  0.5567
  175SAPI  H15R19904   3.175   2.347   7.943  0.0424 -1.3790  0.7793
  175SAPI  C21619905   3.226   2.167   7.823  0.6500 -0.0377 -0.0009
  175SAPI  H16R19906   3.327   2.128   7.849  0.8512 -1.3517 -2.4961
  175SAPI  H16S19907   3.223   2.145   7.714 -0.7547  0.9607 -0.1832
  175SAPI  C21719908   3.129   2.071   7.898  0.3085 -0.0978  0.4289
  175SAPI  H17R19909   3.032   2.072   7.844  0.6197 -2.0264 -0.2475
  175SAPI  H17S19910   3.118   2.110   8.001 -0.6875  0.0580  0.2781
  175SAPI  C21819911   3.173   1.933   7.885  0.7474  0.3193  0.1293
  175SAPI  H18R19912   3.218   1.914   7.785  0.5806 -0.3133  0.1726
  175SAPI  H18S19913   3.086   1.864   7.896  0.0134  1.1806 -0.1640
  175SAPI  C21919914   3.292   1.890   7.973 -0.3788  0.4821  0.0491
  175SAPI  H19R19915   3.291   1.941   8.072  0.2867 -0.0395  0.3309
  175SAPI  H19S19916   3.379   1.916   7.910 -0.3664 -2.1018 -1.1249
  175SAPI  C22019917   3.297   1.736   7.993 -0.6010  0.0475 -0.1933
  175SAPI  H20R19918   3.392   1.724   8.051 -0.3137  2.5594 -0.0546
  175SAPI  H20S19919   3.299   1.696   7.890 -1.0555  3.7987 -1.8123
  175SAPI  H20T19920   3.218   1.694   8.059  0.1803  0.4686  1.0405
  175SAPI   C3319921   3.199   2.077   7.070 -0.0213 -0.1506  0.5189
  175SAPI   H3X19922   3.285   2.019   7.029 -0.0069  1.0941 -1.3706
  175SAPI   H3Y19923   3.110   2.040   7.014  0.3318  0.6216 -0.5901
  175SAPI   C3419924   3.189   2.061   7.224 -0.0100 -0.3557 -0.5206
  175SAPI   H4X19925   3.091   2.110   7.244 -0.9409 -3.0275  2.1849
  175SAPI   H4Y19926   3.262   2.131   7.269  0.2967  0.6164 -2.4350
  175SAPI   C3519927   3.201   1.917   7.269  0.1010 -0.5010 -0.0283
  175SAPI   H5X19928   3.300   1.870   7.254  1.3564  1.7104  0.8394
  175SAPI   H5Y19929   3.134   1.860   7.202 -0.0805  0.3021 -0.5505
  175SAPI   C3619930   3.155   1.898   7.411  0.0796  0.3006  0.0906
  175SAPI   H6X19931   3.060   1.954   7.426  0.2155  0.2395  1.2253
  175SAPI   H6Y19932   3.229   1.936   7.485 -0.0377 -1.8070  1.3922
  175SAPI   C3719933   3.130   1.749   7.439 -0.1091 -0.2872  0.1953
  175SAPI   H7X19934   3.232   1.707   7.448  0.4808  0.4246 -2.4813
  175SAPI   H7Y19935   3.076   1.699   7.357 -0.4663  2.7521 -1.5599
  175SAPI   C3819936   3.065   1.727   7.575 -0.2929  0.0145 -0.6062
  175SAPI   H8X19937   2.971   1.787   7.582 -1.5806 -2.0681  1.4879
  175SAPI   H8Y19938   3.139   1.758   7.652  0.9559 -0.1544 -1.7113
  175SAPI   C3919939   3.024   1.580   7.612 -0.5485 -0.3386  0.3419
  175SAPI   H9X19940   3.104   1.508   7.585 -1.2552 -1.0232  0.0459
  175SAPI   H9Y19941   2.937   1.547   7.552 -3.0042  0.3528  3.2681
  175SAPI  C31019942   2.983   1.572   7.757  0.0090  0.0088  0.1065
  175SAPI  H10X19943   2.904   1.648   7.775  0.6102  1.0331 -1.3748
  175SAPI  H10Y19944   3.068   1.595   7.824  0.6502  0.6260 -0.9074
  175SAPI  C31119945   2.931   1.424   7.779  0.0546  0.5706 -0.0719
  175SAPI  H11X19946   3.014   1.352   7.770 -0.8046 -0.8464  2.4323
  175SAPI  H11Y19947   2.857   1.410   7.697 -0.4740  0.3523  0.4320
  175SAPI  C31219948   2.867   1.403   7.920 -0.2392  0.7676  0.3100
  175SAPI  H12X19949   2.766   1.450   7.919  0.0290  1.6942  4.0092
  175SAPI  H12Y19950   2.919   1.467   7.994  1.5870  1.4662 -1.4670
  175SAPI  C31319951   2.863   1.257   7.962 -0.0848 -0.2290 -0.4604
  175SAPI  H13X19952   2.947   1.256   8.035  1.8297 -0.5540 -2.5550
  175SAPI  H13Y19953   2.876   1.178   7.885  0.5348 -2.1997  1.5560
  175SAPI  C31419954   2.744   1.207   8.050  0.4622 -0.6920  0.1804
  175SAPI  H14X19955   2.769   1.111   8.098 -1.1954 -1.1807  0.1507
  175SAPI  H14Y19956   2.648   1.204   7.994  0.9268  1.2388 -0.7981
  175SAPI  C31519957   2.711   1.308   8.166  0.5695 -0.3112 -0.4171
  175SAPI  H15X19958   2.692   1.412   8.133 -4.0317  0.2191  2.8618
  175SAPI  H15Y19959   2.800   1.307   8.233  1.2203 -1.8270 -1.2473
  175SAPI  C31619960   2.592   1.259   8.257 -0.7207 -0.3782  0.3272
  175SAPI  H16X19961   2.583   1.311   8.355 -1.5593 -0.4993  0.3252
  175SAPI  H16Y19962   2.621   1.157   8.290 -0.2915 -0.4207 -0.1642
  175SAPI  C31719963   2.455   1.279   8.184 -0.0363  0.2691 -0.0441
  175SAPI  H17X19964   2.455   1.211   8.096 -0.7861  0.0861  0.0910
  175SAPI  H17Y19965   2.436   1.387   8.169  1.9695  0.5749 -0.6729
  175SAPI  C31819966   2.336   1.229   8.270 -0.4905  0.2502 -0.3001
  175SAPI  H18X19967   2.342   1.259   8.376  3.2933 -4.6821  1.2809
  175SAPI  H18Y19968   2.341   1.118   8.268 -0.8222  0.1662  1.7308
  175SAPI  H18Z19969   2.237   1.252   8.224 -2.0527  0.3832  2.8948
  176SAPI   C1219970   3.441   1.035   6.197 -0.8829 -0.1719  0.6582
  176SAPI    H219971   3.546   1.066   6.219 -0.8779 -1.5951  2.8453
  176SAPI    O219972   3.394   1.127   6.095  0.1427 -0.0996 -0.4407
  176SAPI   HO219973   3.306   1.157   6.118 -0.2364 -2.5046  1.7718
  176SAPI   C1319974   3.446   0.891   6.139  0.4631  0.1363 -0.2280
  176SAPI    H319975   3.468   0.817   6.219  1.4169  0.2229 -0.3927
  176SAPI    O319976   3.536   0.869   6.034  0.1777 -0.5597 -0.4928
  176SAPI   HO319977   3.625   0.863   6.071 -0.2439 -2.0116  0.3631
  176SAPI   C1419978   3.300   0.846   6.109 -0.7141 -0.3500 -0.0116
  176SAPI    H419979   3.251   0.900   6.025  1.3061  2.0544  0.2379
  176SAPI    O419980   3.306   0.707   6.063 -0.1293 -0.0513  0.1628
  176SAPI   HO419981   3.212   0.686   6.060 -0.7558  2.1091  1.8199
  176SAPI   C1519982   3.214   0.853   6.233 -0.0123  0.3478 -0.5373
  176SAPI    H519983   3.261   0.787   6.308 -1.0717 -0.1088 -0.2540
  176SAPI    O519984   3.080   0.815   6.209 -0.3257  0.3359  0.2172
  176SAPI   HO519985   3.050   0.761   6.283 -2.8329  1.3159  0.0118
  176SAPI   C1619986   3.214   0.993   6.296 -0.1727 -0.2928  0.0575
  176SAPI    H619987   3.168   1.067   6.227  1.4174 -0.7647 -1.5743
  176SAPI    O619988   3.146   0.997   6.423 -0.2016 -0.1661  0.4333
  176SAPI   HO619989   3.163   1.082   6.464  1.9653 -0.1341 -0.3806
  176SAPI   C1119990   3.358   1.041   6.323 -0.3064 -0.2822  0.3921
  176SAPI    H119991   3.401   0.962   6.388  2.3161 -0.5302 -1.4955
  176SAPI     P19992   3.486   1.212   6.490 -0.3851 -0.0786 -0.1094
  176SAPI   O1319993   3.448   1.341   6.555 -0.7718 -0.0612 -0.4402
  176SAPI   O1419994   3.606   1.222   6.404 -0.4912 -0.4261 -0.3849
  176SAPI   O1219995   3.359   1.173   6.386  0.3275 -0.0820 -0.3563
  176SAPI   O1119996   3.504   1.095   6.594  0.5011 -0.4373  0.0397
  176SAPI    C119997   3.396   1.038   6.673  0.2414 -0.0396  0.5141
  176SAPI    HA19998   3.320   1.119   6.686  0.7710  0.7869 -1.2256
  176SAPI    HB19999   3.352   0.956   6.612  0.3170  1.0828 -1.1189
  176SAPI    C220000   3.443   0.992   6.814 -0.0619  0.3203 -1.2917
  176SAPI    HS20001   3.361   0.937   6.865  0.2760  0.3851 -0.6696
  176SAPI   O2120002   3.486   1.107   6.896 -0.1265 -0.0885 -0.2027
  176SAPI   C2120003   3.383   1.166   6.965 -0.7819 -0.4262 -0.1368
  176SAPI   O2220004   3.266   1.136   6.954 -0.7117 -0.2640 -0.0381
  176SAPI   C2220005   3.437   1.278   7.047 -0.1608 -0.5031 -0.5677
  176SAPI   H2R20006   3.505   1.339   6.984 -1.9471  0.1744 -1.9358
  176SAPI   H2S20007   3.352   1.350   7.051  1.5628  1.6220 -0.2815
  176SAPI    C320008   3.559   0.907   6.814  0.1676 -0.2653 -0.5662
  176SAPI    HX20009   3.635   0.977   6.773  3.2393 -2.5965  0.8225
  176SAPI    HY20010   3.551   0.830   6.734 -0.5899  0.7558 -1.5087
  176SAPI   O3120011   3.593   0.854   6.941  0.8714 -0.0157 -0.5155
  176SAPI   C3120012   3.557   0.727   6.967  0.3060 -0.6214  0.2296
  176SAPI   O3220013   3.510   0.651   6.888  0.3910 -0.3488  0.3779
  176SAPI   C3220014   3.585   0.686   7.108 -0.0971  0.1762  0.1166
  176SAPI   H2X20015   3.683   0.717   7.150  0.4327 -1.1549 -0.1128
  176SAPI   H2Y20016   3.600   0.577   7.094  1.2509  0.0468  2.1820
  176SAPI   C2320017   3.469   1.243   7.191 -0.5996  0.3340  0.4488
  176SAPI   H3R20018   3.420   1.160   7.247  1.1996 -0.7190  0.5321
  176SAPI   H3S20019   3.450   1.328   7.259  0.2871  1.4252 -0.6241
  176SAPI   C2420020   3.626   1.222   7.210 -0.3560 -0.6493 -0.2873
  176SAPI   H4R20021   3.655   1.281   7.299  0.6543  2.0178 -2.2301
  176SAPI   H4S20022   3.679   1.259   7.119  1.2307 -2.2498 -0.0742
  176SAPI   C2520023   3.657   1.071   7.225 -0.2179 -0.0338 -0.7040
  176SAPI   H5R20024   3.665   1.018   7.129 -2.3048 -1.0610 -0.3839
  176SAPI   C2620025   3.655   1.008   7.344  0.0258  0.3732  0.1433
  176SAPI   H6R20026   3.686   0.902   7.341 -0.8623  0.1208 -0.5583
  176SAPI   C2720027   3.631   1.061   7.486 -0.3710  0.6909  0.2230
  176SAPI   H7R20028   3.665   1.166   7.478  2.2272 -0.1474 -0.4638
  176SAPI   H7S20029   3.700   1.007   7.554 -0.2461 -0.0453 -0.4704
  176SAPI   C2820030   3.485   1.048   7.531 -1.0188  0.3216  0.3253
  176SAPI   H8R20031   3.415   1.126   7.500  0.0395  0.5967 -1.4959
  176SAPI   C2920032   3.445   0.934   7.583 -0.4458 -0.0359 -0.2481
  176SAPI   H9R20033   3.339   0.932   7.613  0.0586 -0.9292  1.5470
  176SAPI  C21020034   3.522   0.804   7.604  0.0605 -0.1645 -0.2640
  176SAPI  H10R20035   3.633   0.816   7.599 -0.1352  2.6486  0.5376
  176SAPI  H10S20036   3.498   0.725   7.529  3.2796 -0.7722 -0.8065
  176SAPI  C21120037   3.488   0.740   7.733 -0.2715  0.7941 -0.3092
  176SAPI  H11R20038   3.389   0.693   7.728  1.0592 -2.0318 -2.1406
  176SAPI  C21220039   3.546   0.744   7.855  0.0598  0.0855  0.1095
  176SAPI  H12R20040   3.494   0.693   7.937  1.0432 -0.7051  0.2600
  176SAPI  C21320041   3.674   0.820   7.886  0.0017 -0.0032 -0.0613
  176SAPI  H13R20042   3.718   0.885   7.807  0.4616  3.1910  2.5721
  176SAPI  H13S20043   3.756   0.746   7.894  0.7264  0.4989 -2.1280
  176SAPI  C21420044   3.657   0.906   8.004 -0.2147 -0.6131  0.0871
  176SAPI  H14R20045   3.565   0.967   8.002 -1.3215 -2.1165  1.9167
  176SAPI  C21520046   3.741   0.920   8.109 -1.4280  0.4624  0.1092
  176SAPI  H15R20047   3.705   0.972   8.199 -2.0197 -0.1868  0.2555
  176SAPI  C21620048   3.874   0.842   8.125  0.4411 -0.9973  0.1962
  176SAPI  H16R20049   3.908   0.807   8.025  1.0825 -2.6248  0.9544
  176SAPI  H16S20050   3.861   0.750   8.185  0.3360 -0.3577  1.1727
  176SAPI  C21720051   3.987   0.925   8.183 -0.2360 -0.5679 -0.0222
  176SAPI  H17R20052   3.998   1.022   8.131  2.3692 -0.2070  1.0422
  176SAPI  H17S20053   4.078   0.862   8.177  0.0715 -0.0979 -0.3874
  176SAPI  C21820054   3.953   0.961   8.332 -0.1401 -0.6699  0.6655
  176SAPI  H18R20055   3.921   0.869   8.386  1.6574 -0.9391  1.3420
  176SAPI  H18S20056   3.875   1.040   8.337  1.2276  1.0393 -2.3731
  176SAPI  C21920057   4.087   1.006   8.401 -0.0273  0.3120 -0.2501
  176SAPI  H19R20058   4.062   1.047   8.501  0.2887  2.6246 -1.0642
  176SAPI  H19S20059   4.124   1.096   8.348  1.5742  0.0254  0.3171
  176SAPI  C22020060   4.209   0.906   8.410 -0.0698 -0.2295 -0.0407
  176SAPI  H20R20061   4.289   0.951   8.472 -0.2886 -0.0297  0.0989
  176SAPI  H20S20062   4.257   0.892   8.311  1.9945  1.7916  0.5776
  176SAPI  H20T20063   4.178   0.806   8.447  2.1116 -1.0577 -0.2715
  176SAPI   C3320064   3.477   0.734   7.205  0.0206  0.0487 -0.1573
  176SAPI   H3X20065   3.479   0.843   7.226 -1.6050 -0.1898  1.5056
  176SAPI   H3Y20066   3.497   0.689   7.305 -0.9501 -1.3105 -0.5367
  176SAPI   C3420067   3.328   0.687   7.183  1.0091 -0.1723  0.1502
  176SAPI   H4X20068   3.318   0.576   7.176  1.3561 -0.1800 -0.2722
  176SAPI   H4Y20069   3.290   0.725   7.086  1.0905 -0.2228  0.0979
  176SAPI   C3520070   3.234   0.729   7.299 -0.0831 -0.2418 -0.2790
  176SAPI   H5X20071   3.134   0.768   7.270 -0.4715  0.2888  1.6598
  176SAPI   H5Y20072   3.287   0.808   7.356  1.4206 -0.8943 -0.7205
  176SAPI   C3620073   3.221   0.603   7.384  0.2580  0.7530 -0.2241
  176SAPI   H6X20074   3.321   0.555   7.397  0.1569  0.8074  0.8424
  176SAPI   H6Y20075   3.161   0.523   7.335  2.3496 -1.3615  0.4429
  176SAPI   C3720076   3.162   0.607   7.530  0.3933 -0.5168  0.4385
  176SAPI   H7X20077   3.062   0.655   7.536  1.1416  1.1645  0.2079
  176SAPI   H7Y20078   3.221   0.680   7.589 -0.0646 -0.7952  1.2576
  176SAPI   C3820079   3.162   0.470   7.593 -0.6915  0.1500 -0.2603
  176SAPI   H8X20080   3.259   0.421   7.570 -1.4225 -1.5942  0.2357
  176SAPI   H8Y20081   3.091   0.407   7.535 -0.7975  0.3538 -0.3524
  176SAPI   C3920082   3.120   0.468   7.736  0.1318  0.1141 -0.3705
  176SAPI   H9X20083   3.009   0.457   7.726  0.1063 -0.6972  0.6851
  176SAPI   H9Y20084   3.134   0.568   7.780  1.4494 -0.5405  0.7398
  176SAPI  C31020085   3.164   0.348   7.813 -0.1298 -0.3857 -0.1864
  176SAPI  H10X20086   3.272   0.366   7.834 -0.4785 -0.1263  1.6097
  176SAPI  H10Y20087   3.153   0.256   7.752 -2.0436 -1.8725  2.2015
  176SAPI  C31120088   3.092   0.320   7.947 -0.2937 -0.1384 -0.1388
  176SAPI  H11X20089   3.124   0.221   7.988  1.6509 -0.6262 -2.5346
  176SAPI  H11Y20090   2.984   0.306   7.924 -0.1744  0.7353 -1.3448
  176SAPI  C31220091   3.116   0.427   8.047 -0.4840 -0.0045 -0.3376
  176SAPI  H12X20092   3.090   0.529   8.014  0.2741  0.9476  1.8311
  176SAPI  H12Y20093   3.226   0.422   8.061 -0.4200 -3.4053 -1.0454
  176SAPI  C31320094   3.056   0.385   8.175  0.4154 -0.6748 -0.2363
  176SAPI  H13X20095   3.069   0.276   8.193  1.0988 -0.5435  0.0787
  176SAPI  H13Y20096   2.945   0.396   8.175  0.4244 -0.5827 -0.5981
  176SAPI  C31420097   3.103   0.458   8.299 -0.3638 -0.2495  0.9119
  176SAPI  H14X20098   3.040   0.445   8.390 -0.2434 -0.1654  1.0067
  176SAPI  H14Y20099   3.109   0.565   8.271 -0.1698 -0.5959 -0.4459
  176SAPI  C31520100   3.248   0.431   8.336  0.6346  0.0341 -0.4178
  176SAPI  H15X20101   3.318   0.446   8.251 -0.6653 -1.0369 -1.7358
  176SAPI  H15Y20102   3.280   0.328   8.363  1.0421 -0.0969 -1.3421
  176SAPI  C31620103   3.294   0.521   8.447 -0.5778  0.0285 -0.3895
  176SAPI  H16X20104   3.256   0.506   8.550  0.1031 -0.1422 -0.1621
  176SAPI  H16Y20105   3.275   0.628   8.421  0.5464  0.2139 -0.4949
  176SAPI  C31720106   3.451   0.491   8.468  0.2804  0.1542 -0.2366
  176SAPI  H17X20107   3.494   0.490   8.365  0.1281  1.4749 -0.3376
  176SAPI  H17Y20108   3.456   0.390   8.512 -0.3872 -0.5130 -1.6332
  176SAPI  C31820109   3.528   0.593   8.557  0.5447  0.8880  0.7831
  176SAPI  H18X20110   3.515   0.697   8.521  1.3900  1.8014  2.9160
  176SAPI  H18Y20111   3.635   0.563   8.559  0.0252 -1.2737 -0.5697
  176SAPI  H18Z20112   3.488   0.592   8.661 -1.6798 -1.6129  0.0142
  177SLPC     N20113   2.298   4.201  10.892 -0.2858 -1.0541 -0.2075
  177SLPC   C1320114   2.449   4.219  10.927 -0.1644  0.5777  0.3859
  177SLPC  H13A20115   2.509   4.228  10.837 -1.7897  1.3682 -0.6562
  177SLPC  H13B20116   2.472   4.305  10.988  0.9833 -1.8347  3.6675
  177SLPC  H13C20117   2.479   4.135  10.988  1.7010  0.8893 -0.0456
  177SLPC   C1420118   2.268   4.071  10.842  0.2276 -0.1033  0.4859
  177SLPC  H14A20119   2.292   3.983  10.900 -1.1682 -2.7108 -2.5819
  177SLPC  H14B20120   2.163   4.070  10.815  0.4789  1.6111 -0.7574
  177SLPC  H14C20121   2.320   4.062  10.747 -1.2214 -0.4415 -0.3075
  177SLPC   C1520122   2.269   4.302  10.786 -0.0667 -0.2621 -0.1112
  177SLPC  H15A20123   2.181   4.277  10.729  0.9141 -2.1623 -0.8575
  177SLPC  H15B20124   2.246   4.398  10.830  0.5040 -0.3806  0.4723
  177SLPC  H15C20125   2.351   4.317  10.718  0.5761  0.6630  0.8360
  177SLPC   C1220126   2.223   4.232  11.023  0.2943 -0.1249  0.2862
  177SLPC  H12A20127   2.273   4.175  11.101  0.7843  1.4097  1.1263
  177SLPC  H12B20128   2.119   4.207  11.010 -0.1670  2.6091 -2.4158
  177SLPC   C1120129   2.225   4.378  11.078 -0.7233  0.3758  0.5123
  177SLPC  H11A20130   2.324   4.427  11.072 -0.5476  0.0856  1.0915
  177SLPC  H11B20131   2.191   4.365  11.183  0.2920 -0.0572  0.7871
  177SLPC     P20132   1.981   4.421  10.976  0.0943 -0.2208  0.0803
  177SLPC   O1320133   1.947   4.289  11.036 -0.0519 -0.5836 -0.3588
  177SLPC   O1420134   1.904   4.536  11.025 -0.0277 -0.8445  0.1720
  177SLPC   O1220135   2.133   4.458  11.006 -0.0868  0.3656  0.4394
  177SLPC   O1120136   1.983   4.410  10.822 -0.2589  0.2885  0.3407
  177SLPC    C120137   1.976   4.531  10.739 -0.0995 -0.3488 -0.3377
  177SLPC    HA20138   1.892   4.598  10.766 -0.3773 -1.3591  1.5064
  177SLPC    HB20139   2.077   4.576  10.750 -0.1864 -0.3410  0.5304
  177SLPC    C220140   1.949   4.487  10.593 -0.0525 -0.4254  0.6124
  177SLPC    HS20141   1.842   4.457  10.594 -0.4353  0.8834  2.4954
  177SLPC   O2120142   2.044   4.387  10.549  0.3078  0.0354  0.0702
  177SLPC   C2120143   1.996   4.286  10.469  0.0355  0.5486  0.7998
  177SLPC   O2220144   1.888   4.286  10.416  0.2842  0.5293  0.1985
  177SLPC   C2220145   2.111   4.193  10.436 -0.1274 -0.3290  0.4808
  177SLPC   H2R20146   2.200   4.259  10.442  0.5561 -0.8721 -2.3137
  177SLPC   H2S20147   2.112   4.105  10.504 -1.1716  0.3054  1.3590
  177SLPC    C320148   1.978   4.610  10.497  0.2103  0.0567 -0.0391
  177SLPC    HX20149   2.088   4.622  10.499  0.1787  0.9425 -1.6310
  177SLPC    HY20150   1.933   4.701  10.541  1.6197 -0.1555  1.9544
  177SLPC   O3120151   1.940   4.585  10.358 -0.4191 -0.9080 -0.4245
  177SLPC   C3120152   1.809   4.609  10.334  0.2405  0.3032 -0.4830
  177SLPC   O3220153   1.727   4.651  10.417 -0.5606  0.0442 -0.1516
  177SLPC   C3220154   1.780   4.579  10.191  0.5311  0.3920  0.9751
  177SLPC   H2X20155   1.670   4.565  10.187  0.5633  0.3957 -0.7669
  177SLPC   H2Y20156   1.816   4.479  10.159 -2.3788 -0.1722 -0.8746
  177SLPC   C2320157   2.124   4.165  10.282 -0.1500 -1.1742 -0.2201
  177SLPC   H3R20158   2.114   4.260  10.225  1.9432 -1.6794 -1.5106
  177SLPC   H3S20159   2.037   4.100  10.259 -0.2600 -0.9534 -0.4324
  177SLPC   C2420160   2.252   4.105  10.236  0.3670 -0.0837  0.6140
  177SLPC   H4R20161   2.248   3.997  10.263  1.4264  0.3195  2.5538
  177SLPC   H4S20162   2.338   4.155  10.286 -0.4637  0.3560  1.6347
  177SLPC   C2520163   2.275   4.112  10.077 -0.2570 -0.0498 -0.0171
  177SLPC   H5R20164   2.281   4.222  10.061 -0.0722  0.2784  2.0634
  177SLPC   H5S20165   2.193   4.063  10.020 -0.0655 -1.0800  0.5603
  177SLPC   C2620166   2.405   4.040  10.038 -0.6305  0.2281 -0.5005
  177SLPC   H6R20167   2.408   3.934  10.072 -0.5903 -0.2616 -1.9646
  177SLPC   H6S20168   2.485   4.083  10.102 -1.5001 -3.2884  3.4515
  177SLPC   C2720169   2.442   4.055   9.892  0.4897 -0.0824  0.8728
  177SLPC   H7R20170   2.549   4.028   9.882  1.1403  1.8232  2.1357
  177SLPC   H7S20171   2.425   4.160   9.859  0.5368 -0.6392 -1.0409
  177SLPC   C2820172   2.346   3.961   9.803  0.2916 -0.4170 -0.5675
  177SLPC   H8R20173   2.317   3.877   9.870  1.7852 -1.1274 -0.7635
  177SLPC   H8S20174   2.417   3.928   9.724  0.7311 -1.8132  0.3664
  177SLPC   C2920175   2.221   4.027   9.736 -0.1152 -0.2062  0.9659
  177SLPC   H9R20176   2.135   4.019   9.804 -1.1939  3.3967  0.2758
  177SLPC  C21020177   2.206   4.086   9.613  0.0165  0.3234  0.0808
  177SLPC  H10R20178   2.104   4.116   9.585  0.4533  3.1137  1.1035
  177SLPC  C21120179   2.322   4.095   9.512 -0.7896 -0.4899  0.4709
  177SLPC  H11R20180   2.419   4.062   9.553 -0.5401  1.5609  1.6352
  177SLPC  H11S20181   2.291   4.032   9.425 -0.3285 -0.7581  0.4956
  177SLPC  C21220182   2.356   4.240   9.471  0.1949  1.2199 -0.6105
  177SLPC  H12R20183   2.373   4.301   9.561 -1.0881  1.4173 -0.4708
  177SLPC  C21320184   2.373   4.302   9.347  0.4117 -0.2540 -0.5134
  177SLPC  H13R20185   2.371   4.411   9.357 -1.7685 -0.3476  0.7714
  177SLPC  C21420186   2.355   4.224   9.217  0.2784 -0.2531 -0.3904
  177SLPC  H14R20187   2.409   4.127   9.230  0.6366 -0.4832 -2.9884
  177SLPC  H14S20188   2.403   4.278   9.132 -1.4530  0.0512 -1.2225
  177SLPC  C21520189   2.211   4.197   9.179  0.3580 -0.0370  0.5178
  177SLPC  H15R20190   2.147   4.287   9.183 -1.7645 -1.5089  3.1204
  177SLPC  H15S20191   2.162   4.121   9.244 -0.2951 -0.9307 -0.9514
  177SLPC  C21620192   2.191   4.131   9.046  0.8641  0.1950 -0.0247
  177SLPC  H16R20193   2.242   4.190   8.967  1.3239  0.7261  0.6545
  177SLPC  H16S20194   2.083   4.131   9.018  1.5423 -0.7196 -3.0020
  177SLPC  C21720195   2.224   3.982   9.032 -0.4996 -0.1180  0.1037
  177SLPC  H17R20196   2.332   3.985   9.059 -0.9632  0.2718  2.0990
  177SLPC  H17S20197   2.215   3.963   8.923  1.4333  0.2450 -0.1566
  177SLPC  C21820198   2.144   3.890   9.118  0.0704 -0.0797  0.4240
  177SLPC  H18R20199   2.176   3.908   9.223  1.1858  2.0047 -0.2032
  177SLPC  H18S20200   2.169   3.786   9.089  0.5903  0.0935  0.2308
  177SLPC  H18T20201   2.041   3.928   9.100  0.2092 -0.6250 -1.8380
  177SLPC   C3320202   1.821   4.700  10.098  1.0491  0.5561  0.4357
  177SLPC   H3X20203   1.931   4.693  10.112  1.1450  0.3708 -0.3615
  177SLPC   H3Y20204   1.780   4.801  10.125  0.9979  1.4278 -2.5735
  177SLPC   C3420205   1.769   4.680   9.952 -0.4941 -0.3503  0.0218
  177SLPC   H4X20206   1.664   4.715   9.942 -0.6022 -0.6387  0.1434
  177SLPC   H4Y20207   1.776   4.572   9.926  1.9661  0.1545 -1.8198
  177SLPC   C3520208   1.851   4.755   9.852  0.8672  0.0794  0.1394
  177SLPC   H5X20209   1.960   4.748   9.873  1.0820 -0.2069 -0.9794
  177SLPC   H5Y20210   1.817   4.861   9.862  1.3717  0.2230  0.3442
  177SLPC   C3620211   1.813   4.725   9.710  0.6507  0.0261  0.3693
  177SLPC   H6X20212   1.706   4.693   9.706  0.6702  0.0847 -1.1244
  177SLPC   H6Y20213   1.870   4.636   9.676 -0.0210 -0.4886  0.5507
  177SLPC   C3720214   1.845   4.841   9.615 -0.2295  0.1270 -0.8597
  177SLPC   H7X20215   1.954   4.862   9.631 -0.4882  0.1992  0.9941
  177SLPC   H7Y20216   1.782   4.933   9.623 -2.6090 -1.4274 -0.8815
  177SLPC   C3820217   1.824   4.805   9.459 -0.5186 -0.1766  0.3023
  177SLPC   H8X20218   1.718   4.771   9.451 -1.0242  1.2782  0.5202
  177SLPC   H8Y20219   1.896   4.721   9.447 -0.1283  0.0282  1.1645
  177SLPC   C3920220   1.851   4.924   9.365  0.2190 -0.4254 -0.2736
  177SLPC   H9X20221   1.956   4.959   9.379 -0.3042  0.9766  0.3379
  177SLPC   H9Y20222   1.785   5.005   9.403  1.5748  0.2716  0.7023
  177SLPC  C31020223   1.815   4.900   9.214  0.4755  0.1029  0.6706
  177SLPC  H10X20224   1.708   4.868   9.208  0.1351  0.8939  2.0563
  177SLPC  H10Y20225   1.872   4.819   9.164 -1.6888 -0.4381 -1.0903
  177SLPC  C31120226   1.842   5.035   9.127 -0.6710  0.0849  0.2319
  177SLPC  H11X20227   1.951   5.034   9.107 -0.7337 -1.0346 -0.1507
  177SLPC  H11Y20228   1.801   5.122   9.183 -2.5521  0.0180 -0.9367
  177SLPC  C31220229   1.780   5.029   8.990 -0.9662  0.0875  0.1429
  177SLPC  H12X20230   1.779   5.130   8.942  1.8227  0.4884  0.7793
  177SLPC  H12Y20231   1.674   5.009   9.016 -0.3487 -0.6360  2.3110
  177SLPC  C31320232   1.837   4.922   8.895  0.8165 -0.1927 -0.0039
  177SLPC  H13X20233   1.833   4.820   8.938 -1.6456 -0.6260 -1.0871
  177SLPC  H13Y20234   1.942   4.947   8.869  1.6256 -2.8954  0.3828
  177SLPC  C31420235   1.750   4.913   8.758 -0.8884 -0.2901 -0.9490
  177SLPC  H14X20236   1.744   5.012   8.709  0.9672 -1.0706 -2.8837
  177SLPC  H14Y20237   1.647   4.903   8.799 -0.5414  2.7218  1.0047
  177SLPC  C31520238   1.779   4.805   8.647 -0.2404 -0.4940 -0.0031
  177SLPC  H15X20239   1.699   4.824   8.572 -1.4723 -0.0590  1.3602
  177SLPC  H15Y20240   1.777   4.703   8.691 -1.0511 -0.4969 -0.0255
  177SLPC  C31620241   1.921   4.816   8.579 -0.5761 -0.8566  0.5677
  177SLPC  H16X20242   2.000   4.825   8.657  0.0552 -1.5381  0.0199
  177SLPC  H16Y20243   1.909   4.917   8.535  2.8220  0.2846  1.9370
  177SLPC  C31720244   1.956   4.705   8.478  0.5522  0.3889  0.0072
  177SLPC  H17X20245   1.898   4.723   8.385 -0.8843  0.2615  0.8621
  177SLPC  H17Y20246   1.919   4.606   8.512 -1.4772  1.1571  0.1916
  177SLPC  C31820247   2.099   4.703   8.428 -0.0685 -0.7516 -0.3351
  177SLPC  H18X20248   2.176   4.694   8.508 -0.6732 -0.2627  0.3182
  177SLPC  H18Y20249   2.121   4.800   8.379 -0.1838 -1.4232 -1.7467
  177SLPC  H18Z20250   2.117   4.627   8.350  2.9495  0.1511 -0.6669
  178SLPC     N20251   3.707   5.608  10.989  0.2011  0.1957 -0.2281
  178SLPC   C1320252   3.591   5.571  11.073 -0.4386 -0.2065  0.2286
  178SLPC  H13A20253   3.506   5.635  11.057 -0.3136 -0.2481 -0.6296
  178SLPC  H13B20254   3.564   5.469  11.050 -0.3256 -0.4630  1.1929
  178SLPC  H13C20255   3.619   5.577  11.178 -0.4683  1.1474  0.1789
  178SLPC   C1420256   3.661   5.599  10.848 -0.1273  0.6097 -0.2770
  178SLPC  H14A20257   3.628   5.499  10.825  0.7426  0.7504 -2.3092
  178SLPC  H14B20258   3.580   5.669  10.829 -0.4117  0.2702 -0.3280
  178SLPC  H14C20259   3.747   5.621  10.787  1.4627 -1.6102  1.0421
  178SLPC   C1520260   3.815   5.504  11.018 -0.3210  0.0581  1.2050
  178SLPC  H15A20261   3.778   5.405  10.996  1.0646 -0.3824  0.7885
  178SLPC  H15B20262   3.900   5.522  10.954 -1.7858  2.1381 -0.2938
  178SLPC  H15C20263   3.849   5.497  11.120  2.2462  1.6162  0.5476
  178SLPC   C1220264   3.752   5.745  11.027 -0.3516  0.0611  0.0392
  178SLPC  H12A20265   3.740   5.760  11.133 -1.2135  1.4638 -0.2452
  178SLPC  H12B20266   3.678   5.808  10.981 -0.1287  0.7344  0.5982
  178SLPC   C1120267   3.899   5.788  10.992  0.1234 -0.2627 -0.1433
  178SLPC  H11A20268   3.975   5.722  11.039 -0.1579  1.1704  2.5281
  178SLPC  H11B20269   3.929   5.883  11.041  1.5102  1.7115 -4.3582
  178SLPC     P20270   3.841   5.931  10.782 -0.0612 -0.3082 -0.0646
  178SLPC   O1320271   3.695   5.899  10.784 -0.5236  0.7548  0.3435
  178SLPC   O1420272   3.877   6.060  10.850  0.3471 -0.4576  1.2651
  178SLPC   O1220273   3.915   5.811  10.849 -0.3961  0.6580  0.5663
  178SLPC   O1120274   3.898   5.937  10.636 -0.0556 -0.1416  0.8128
  178SLPC    C120275   3.950   5.821  10.571 -0.2923 -0.1717 -0.3669
  178SLPC    HA20276   4.056   5.814  10.603 -1.2011  0.8625  3.3615
  178SLPC    HB20277   3.898   5.727  10.599 -2.1038  0.9168  0.0950
  178SLPC    C220278   3.949   5.836  10.418 -0.3873 -0.4440  0.0604
  178SLPC    HS20279   3.971   5.732  10.385  0.7174  0.4418 -2.2272
  178SLPC   O2120280   4.042   5.932  10.368  0.3211  0.4461  0.1746
  178SLPC   C2120281   4.166   5.886  10.370 -0.3427 -0.2134  0.1321
  178SLPC   O2220282   4.197   5.776  10.416 -0.3053 -0.4246  0.4940
  178SLPC   C2220283   4.272   5.980  10.297 -0.0856 -0.4369  0.1095
  178SLPC   H2R20284   4.271   6.086  10.330 -0.2505 -0.4656  0.1970
  178SLPC   H2S20285   4.371   5.940  10.325 -0.3952 -0.4617  1.2454
  178SLPC    C320286   3.809   5.869  10.370 -0.1470 -0.1916  0.1157
  178SLPC    HX20287   3.771   5.963  10.413 -2.6892 -0.6505 -0.9874
  178SLPC    HY20288   3.741   5.793  10.414 -1.1675  1.2034  1.0389
  178SLPC   O3120289   3.792   5.861  10.226  0.8923  0.3083  0.6940
  178SLPC   C3120290   3.809   5.745  10.172 -0.5380  0.6913 -0.3437
  178SLPC   O3220291   3.827   5.635  10.233 -0.1146  0.2146  0.0183
  178SLPC   C3220292   3.821   5.756  10.020 -0.3682 -0.2208  0.4545
  178SLPC   H2X20293   3.916   5.812  10.004 -1.0311  0.9078  0.4057
  178SLPC   H2Y20294   3.735   5.812   9.979 -0.3998 -0.2911  0.4250
  178SLPC   C2320295   4.243   5.961  10.150 -0.3634  0.6377 -0.1014
  178SLPC   H3R20296   4.273   6.053  10.095 -1.9866  0.4381 -1.4088
  178SLPC   H3S20297   4.134   5.946  10.136 -0.3070 -1.2331  1.0568
  178SLPC   C2420298   4.330   5.849  10.100  0.1903  0.2307  0.3755
  178SLPC   H4R20299   4.327   5.756  10.160  0.3311 -0.2938 -0.4180
  178SLPC   H4S20300   4.430   5.897  10.094 -0.5417  1.8686  0.7152
  178SLPC   C2520301   4.293   5.816   9.954 -0.3049  0.2146  0.2054
  178SLPC   H5R20302   4.188   5.781   9.947  0.2651 -1.8636  1.3008
  178SLPC   H5S20303   4.347   5.727   9.915 -0.1274  0.0494  0.8141
  178SLPC   C2620304   4.312   5.936   9.858  0.2343  0.7170  0.4050
  178SLPC   H6R20305   4.421   5.960   9.856  0.1436  1.1721  0.7361
  178SLPC   H6S20306   4.255   6.026   9.890 -1.2412 -0.0153 -0.0797
  178SLPC   C2720307   4.259   5.901   9.716  0.7551 -0.2567  0.5403
  178SLPC   H7R20308   4.149   5.911   9.723  0.9642  1.3664  2.9889
  178SLPC   H7S20309   4.276   5.797   9.683  0.3682  0.2536 -1.3851
  178SLPC   C2820310   4.310   5.992   9.599 -0.3018 -0.5636  0.5695
  178SLPC   H8R20311   4.283   6.100   9.608 -1.4775 -0.7612 -0.2510
  178SLPC   H8S20312   4.241   5.965   9.516  0.8991  2.0974 -1.4427
  178SLPC   C2920313   4.451   5.963   9.543 -0.0023 -0.2957  0.0101
  178SLPC   H9R20314   4.519   5.918   9.618  1.3309 -1.4787 -1.8239
  178SLPC  C21020315   4.494   5.979   9.413 -0.0568 -0.2528 -0.2472
  178SLPC  H10R20316   4.596   5.952   9.380  0.2508 -2.1599  2.0191
  178SLPC  C21120317   4.407   6.039   9.302  0.1514 -0.1416 -0.3717
  178SLPC  H11R20318   4.320   6.089   9.349 -2.0998 -2.4176 -1.8560
  178SLPC  H11S20319   4.368   5.963   9.230  0.3367  0.2661 -0.9086
  178SLPC  C21220320   4.494   6.137   9.218  0.2916  0.3378  0.0446
  178SLPC  H12R20321   4.595   6.159   9.256 -0.2660  1.4914  0.9289
  178SLPC  C21320322   4.455   6.179   9.096 -0.3093 -0.0161 -0.1415
  178SLPC  H13R20323   4.521   6.237   9.030 -0.5397 -1.0149 -1.2838
  178SLPC  C21420324   4.327   6.136   9.034  0.4359  0.4819  0.2435
  178SLPC  H14R20325   4.256   6.219   9.053  1.9982  1.4603  2.1395
  178SLPC  H14S20326   4.281   6.038   9.059  0.0584  0.1013 -1.7376
  178SLPC  C21520327   4.341   6.111   8.878  0.2057  0.0533  0.1542
  178SLPC  H15R20328   4.413   6.027   8.866 -0.7197 -1.1075  2.0958
  178SLPC  H15S20329   4.399   6.198   8.842  0.4367  0.3331  1.1548
  178SLPC  C21620330   4.209   6.099   8.801 -0.5318 -0.7074 -0.1320
  178SLPC  H16R20331   4.193   6.198   8.754  2.7469  1.3245  2.5336
  178SLPC  H16S20332   4.123   6.091   8.871 -1.3909 -1.1309 -1.2143
  178SLPC  C21720333   4.203   5.982   8.700  0.5679  0.0928 -1.0862
  178SLPC  H17R20334   4.238   5.898   8.763  2.4051 -0.4433 -2.7020
  178SLPC  H17S20335   4.284   6.009   8.629  0.3717  0.5360 -1.1405
  178SLPC  C21820336   4.075   5.960   8.613 -0.4089  0.2159 -0.3353
  178SLPC  H18R20337   4.105   5.888   8.534  1.5807 -0.0465  0.5850
  178SLPC  H18S20338   4.019   6.053   8.589 -1.9257 -0.6124 -0.1009
  178SLPC  H18T20339   3.997   5.904   8.669 -0.5003 -0.7979 -1.4396
  178SLPC   C3320340   3.825   5.623   9.940 -0.4907 -0.5610 -0.0677
  178SLPC   H3X20341   3.741   5.553   9.956  0.8446 -2.4058 -0.7552
  178SLPC   H3Y20342   3.915   5.570   9.981  0.8002  2.3432  1.1372
  178SLPC   C3420343   3.840   5.648   9.789 -0.2261 -0.2908 -0.3297
  178SLPC   H4X20344   3.880   5.555   9.742 -2.1375 -2.2895  1.7339
  178SLPC   H4Y20345   3.901   5.739   9.773 -2.0839  1.5235  2.0738
  178SLPC   C3520346   3.708   5.675   9.717  1.4716 -0.2920  0.1064
  178SLPC   H5X20347   3.652   5.755   9.770 -0.3559  0.0984 -2.2716
  178SLPC   H5Y20348   3.641   5.589   9.738 -0.7867  1.6575  1.4725
  178SLPC   C3620349   3.710   5.708   9.569 -0.0277 -0.4212  0.0695
  178SLPC   H6X20350   3.802   5.765   9.545 -1.4444  1.9637 -0.1074
  178SLPC   H6Y20351   3.629   5.778   9.537  1.2451  0.3267 -1.6979
  178SLPC   C3720352   3.706   5.573   9.484 -0.0432  0.4633  0.0938
  178SLPC   H7X20353   3.598   5.547   9.486  0.1095 -0.1319  1.1708
  178SLPC   H7Y20354   3.754   5.496   9.547  0.1535  2.1007  2.0687
  178SLPC   C3820355   3.774   5.593   9.356 -0.0450 -0.3226 -0.2265
  178SLPC   H8X20356   3.880   5.619   9.373  0.2957 -2.4916  1.5245
  178SLPC   H8Y20357   3.732   5.673   9.292  0.2429 -0.9612 -1.2417
  178SLPC   C3920358   3.763   5.470   9.264 -0.3034 -0.4586 -0.0089
  178SLPC   H9X20359   3.658   5.463   9.227 -0.9213  1.7556  1.1213
  178SLPC   H9Y20360   3.775   5.386   9.335 -0.2363  0.2379  0.8270
  178SLPC  C31020361   3.870   5.452   9.162  0.0194  0.2228 -0.0478
  178SLPC  H10X20362   3.969   5.434   9.208  0.0671  0.1034 -0.1957
  178SLPC  H10Y20363   3.889   5.548   9.108  3.3128  1.4330  2.8886
  178SLPC  C31120364   3.861   5.335   9.066  0.2982  0.7538  0.1129
  178SLPC  H11X20365   3.755   5.339   9.034 -0.6908 -1.2302  2.7753
  178SLPC  H11Y20366   3.880   5.237   9.115 -1.1869  1.0245  1.3212
  178SLPC  C31220367   3.942   5.355   8.938 -0.9468 -0.0410 -0.2101
  178SLPC  H12X20368   4.047   5.383   8.965 -1.6443  0.6315  2.0836
  178SLPC  H12Y20369   3.913   5.449   8.886  4.3366  1.1933 -1.5594
  178SLPC  C31320370   3.958   5.230   8.850  0.1480  0.3995 -0.1526
  178SLPC  H13X20371   3.861   5.188   8.816  1.1090 -1.3940 -0.7850
  178SLPC  H13Y20372   4.006   5.157   8.918 -0.0379  1.1572  0.8196
  178SLPC  C31420373   4.044   5.244   8.719 -0.2184 -0.4632 -0.6877
  178SLPC  H14X20374   4.017   5.164   8.647 -1.8618 -2.1749  1.6543
  178SLPC  H14Y20375   4.152   5.234   8.742 -0.3637  2.0324  1.7468
  178SLPC  C31520376   4.030   5.381   8.651  0.1254 -0.4013 -0.4141
  178SLPC  H15X20377   3.923   5.404   8.633 -1.0554 -2.7828  2.6151
  178SLPC  H15Y20378   4.062   5.450   8.733  0.7406 -0.3930 -0.6556
  178SLPC  C31620379   4.125   5.401   8.530  0.6996 -0.3135 -0.0388
  178SLPC  H16X20380   4.125   5.309   8.468 -1.3535 -0.1878 -0.2765
  178SLPC  H16Y20381   4.228   5.414   8.571 -0.0457  1.8237  1.3186
  178SLPC  C31720382   4.097   5.531   8.447  0.1591  0.2246 -0.2932
  178SLPC  H17X20383   4.081   5.610   8.523  0.3705 -0.9488  0.9943
  178SLPC  H17Y20384   4.008   5.527   8.380  0.2731 -1.7201 -0.3808
  178SLPC  C31820385   4.219   5.572   8.368  0.1805  0.5817 -0.1568
  178SLPC  H18X20386   4.230   5.506   8.279 -1.8197  0.1751 -0.1544
  178SLPC  H18Y20387   4.315   5.563   8.423  0.3758 -2.7842 -0.8280
  178SLPC  H18Z20388   4.209   5.676   8.330 -1.5096  1.1913  1.7613
  179SLPC     N20389   4.660   1.733  10.606 -0.1608 -0.0104  0.2492
  179SLPC   C1320390   4.598   1.671  10.728 -0.4710  0.1400  0.1701
  179SLPC  H13A20391   4.544   1.581  10.704  1.1784 -1.4018  1.9233
  179SLPC  H13B20392   4.664   1.652  10.811 -1.1340 -0.7190  0.5049
  179SLPC  H13C20393   4.529   1.742  10.770  1.3178  1.8337  0.4191
  179SLPC   C1420394   4.740   1.861  10.637 -0.1052 -0.3081 -0.8140
  179SLPC  H14A20395   4.813   1.837  10.713  0.3645 -1.3367 -1.5600
  179SLPC  H14B20396   4.802   1.890  10.554 -3.0238  0.7702 -2.7522
  179SLPC  H14C20397   4.693   1.951  10.673  0.6291 -0.4299  0.5480
  179SLPC   C1520398   4.548   1.775  10.508  0.3658 -0.2298 -0.2602
  179SLPC  H15A20399   4.585   1.839  10.429  0.6877  1.1904  1.0032
  179SLPC  H15B20400   4.485   1.694  10.474  0.6846 -1.1563  1.2360
  179SLPC  H15C20401   4.483   1.845  10.557 -0.3624  0.2258 -1.8072
  179SLPC   C1220402   4.757   1.626  10.547 -0.1545  0.3870  0.5459
  179SLPC  H12A20403   4.701   1.536  10.526 -2.0638  1.3501  1.2317
  179SLPC  H12B20404   4.835   1.611  10.620 -2.3525 -0.5370  2.8458
  179SLPC   C1120405   4.824   1.648  10.407 -0.2012  0.2541 -0.1695
  179SLPC  H11A20406   4.757   1.687  10.327  2.5060  4.4046 -0.6947
  179SLPC  H11B20407   4.874   1.559  10.364  2.0804  0.3310  2.1180
  179SLPC     P20408   5.059   1.707  10.486 -0.3473  0.0946  0.1467
  179SLPC   O1320409   5.156   1.822  10.497  0.3095  0.5430  0.4898
  179SLPC   O1420410   5.040   1.626  10.608  0.0931  0.1931 -0.3427
  179SLPC   O1220411   4.925   1.751  10.427 -0.2725 -0.1118 -0.6667
  179SLPC   O1120412   5.119   1.611  10.375  0.3750  0.5991 -0.1404
  179SLPC    C120413   5.198   1.647  10.266 -0.5615  0.1308 -0.4358
  179SLPC    HA20414   5.269   1.729  10.291  2.4833 -2.4537 -0.1045
  179SLPC    HB20415   5.270   1.564  10.252  2.2334  2.6241 -2.1337
  179SLPC    C220416   5.112   1.669  10.142 -0.4841 -0.3490 -0.4118
  179SLPC    HS20417   5.029   1.739  10.166 -1.2446 -0.5986 -2.1975
  179SLPC   O2120418   5.057   1.544  10.108  0.7890  0.5898 -0.1346
  179SLPC   C2120419   4.946   1.544  10.045 -0.4358 -0.2363 -0.2644
  179SLPC   O2220420   4.874   1.642  10.032  0.0214 -0.3343 -0.1985
  179SLPC   C2220421   4.917   1.404   9.998  0.5525  0.0407  0.3953
  179SLPC   H2R20422   5.017   1.361   9.976 -0.1851 -1.5390 -0.0224
  179SLPC   H2S20423   4.877   1.355  10.089 -0.8637  0.6001  0.1034
  179SLPC    C320424   5.205   1.736  10.020  0.3969  0.1707 -0.5082
  179SLPC    HX20425   5.281   1.659   9.997  0.6130  0.3172 -0.2841
  179SLPC    HY20426   5.257   1.824  10.063  0.4560 -0.7446  1.4147
  179SLPC   O3120427   5.125   1.756   9.905  0.0089 -0.4120  0.9534
  179SLPC   C3120428   5.061   1.870   9.877  0.2631 -0.7003  0.8012
  179SLPC   O3220429   5.084   1.978   9.925 -0.2521  0.4095  0.2206
  179SLPC   C3220430   4.956   1.839   9.768 -0.2979  0.4136  0.7544
  179SLPC   H2X20431   4.899   1.934   9.763 -0.5447  0.4422  3.0055
  179SLPC   H2Y20432   4.890   1.752   9.789 -0.1382  0.1258  0.0818
  179SLPC   C2320433   4.818   1.385   9.880 -0.2700 -0.7512 -0.1074
  179SLPC   H3R20434   4.773   1.484   9.858  3.1903  1.3043  1.2535
  179SLPC   H3S20435   4.738   1.315   9.914 -1.3104 -1.1239 -3.0155
  179SLPC   C2420436   4.886   1.337   9.750  0.3004 -0.3127  0.0499
  179SLPC   H4R20437   4.811   1.300   9.676  1.7189 -0.3405 -1.4147
  179SLPC   H4S20438   4.942   1.245   9.777 -0.7823 -0.6585  1.2658
  179SLPC   C2520439   4.965   1.443   9.685 -0.6738  0.9333  0.4530
  179SLPC   H5R20440   5.033   1.490   9.760  0.9007 -0.4944  0.0040
  179SLPC   H5S20441   4.895   1.520   9.648 -0.8169  0.2621 -0.7044
  179SLPC   C2620442   5.056   1.399   9.565  0.2039 -1.4003  0.1381
  179SLPC   H6R20443   5.118   1.309   9.588  2.6936  0.4660  1.1664
  179SLPC   H6S20444   5.130   1.480   9.548  0.9011 -2.0442  0.0561
  179SLPC   C2720445   4.974   1.378   9.434 -0.1247 -0.6284 -0.3936
  179SLPC   H7R20446   4.914   1.467   9.404 -1.5039 -1.1093  0.8084
  179SLPC   H7S20447   4.896   1.301   9.451 -0.9176  0.0815 -0.7507
  179SLPC   C2820448   5.075   1.334   9.327 -0.6537  0.8204 -0.7441
  179SLPC   H8R20449   5.130   1.246   9.367 -1.4668  0.3061 -0.7447
  179SLPC   H8S20450   5.154   1.409   9.304 -0.0504  0.9718  1.5669
  179SLPC   C2920451   5.004   1.298   9.200  0.3127  0.5927 -0.4255
  179SLPC   H9R20452   4.959   1.197   9.200 -1.2890  1.2856  0.0536
  179SLPC  C21020453   4.998   1.363   9.082  0.3571 -0.2317  0.2579
  179SLPC  H10R20454   4.923   1.320   9.014 -1.0064  0.2221  1.4237
  179SLPC  C21120455   5.059   1.499   9.060 -0.3365 -0.4508  0.4611
  179SLPC  H11R20456   5.170   1.489   9.058 -0.4519 -2.4321  1.5426
  179SLPC  H11S20457   5.040   1.558   9.152  0.2898 -1.0613  0.9902
  179SLPC  C21220458   5.005   1.567   8.928  0.8707 -0.0726 -0.6483
  179SLPC  H12R20459   4.901   1.598   8.944  0.6911  0.3600 -2.3811
  179SLPC  C21320460   5.054   1.574   8.807 -0.4204  1.1850  0.4463
  179SLPC  H13R20461   4.991   1.622   8.731 -1.5261 -0.5688  0.1896
  179SLPC  C21420462   5.199   1.526   8.772  0.4121  0.0155 -0.7633
  179SLPC  H14R20463   5.202   1.435   8.709  2.2113 -0.8222  0.4508
  179SLPC  H14S20464   5.265   1.505   8.859  0.3309 -1.3082 -1.0123
  179SLPC  C21520465   5.284   1.624   8.690  0.7051 -0.7041 -0.2420
  179SLPC  H15R20466   5.390   1.595   8.706  1.4239  2.0320  0.4965
  179SLPC  H15S20467   5.275   1.725   8.735  0.4329 -0.2131 -1.3514
  179SLPC  C21620468   5.256   1.619   8.540 -0.3908 -0.1043 -0.0899
  179SLPC  H16R20469   5.149   1.649   8.532 -0.4469  0.1184  1.2981
  179SLPC  H16S20470   5.254   1.510   8.519  0.9237 -0.3585  0.9635
  179SLPC  C21720471   5.355   1.692   8.456 -0.0565 -0.2975  0.9290
  179SLPC  H17R20472   5.342   1.649   8.355  0.1213 -1.9250  1.5662
  179SLPC  H17S20473   5.452   1.666   8.502  1.6990  0.4189 -2.1029
  179SLPC  C21820474   5.344   1.846   8.448  0.4545 -0.3620 -0.3832
  179SLPC  H18R20475   5.246   1.887   8.417 -0.9562 -1.5755  2.1775
  179SLPC  H18S20476   5.416   1.885   8.373  0.5163 -0.7453 -0.5267
  179SLPC  H18T20477   5.361   1.891   8.548 -0.6457 -0.0121 -0.3385
  179SLPC   C3320478   5.026   1.824   9.631 -0.2548 -0.0550  0.3653
  179SLPC   H3X20479   5.072   1.723   9.620  2.4351  1.2066 -0.8354
  179SLPC   H3Y20480   5.095   1.910   9.617 -1.5938  1.2294  1.3108
  179SLPC   C3420481   4.936   1.831   9.503 -0.3881  0.6976 -0.5838
  179SLPC   H4X20482   4.868   1.919   9.513 -2.7491 -1.0170 -0.6508
  179SLPC   H4Y20483   4.861   1.749   9.494 -0.2405  0.5177 -0.2002
  179SLPC   C3520484   5.017   1.829   9.373  0.5600  0.2776 -0.5824
  179SLPC   H5X20485   5.037   1.722   9.347 -0.0626 -0.1280  0.5185
  179SLPC   H5Y20486   5.102   1.900   9.381 -1.0969  2.2406  0.3349
  179SLPC   C3620487   4.931   1.904   9.272 -0.1803 -0.5001 -0.2107
  179SLPC   H6X20488   4.909   2.007   9.310 -2.4533 -0.9439 -0.1546
  179SLPC   H6Y20489   4.837   1.848   9.253 -1.7570  1.1310  2.2532
  179SLPC   C3720490   5.007   1.907   9.139  0.0855  0.1317 -0.1954
  179SLPC   H7X20491   5.046   1.805   9.122  1.5554  0.5967  0.1887
  179SLPC   H7Y20492   5.096   1.973   9.143 -0.0228  0.2906 -0.3846
  179SLPC   C3820493   4.922   1.939   9.013  0.1128 -0.8927 -0.0166
  179SLPC   H8X20494   4.869   2.036   9.025  0.4987 -0.8910  2.1602
  179SLPC   H8Y20495   4.841   1.868   8.986 -1.6084  1.6853 -2.0328
  179SLPC   C3920496   5.014   1.948   8.888  0.1728 -0.0782 -0.4219
  179SLPC   H9X20497   5.041   1.848   8.847  0.8652  0.4312 -1.2411
  179SLPC   H9Y20498   5.114   1.993   8.905 -0.3783  0.7836  0.6490
  179SLPC  C31020499   4.950   2.029   8.780  0.4631 -1.1027  0.3194
  179SLPC  H10X20500   4.979   2.135   8.797 -1.1652 -0.6625  0.5884
  179SLPC  H10Y20501   4.841   2.026   8.803  0.2914 -0.3134 -0.3484
  179SLPC  C31120502   4.971   1.985   8.632  1.2239  0.9958  0.4887
  179SLPC  H11X20503   4.944   1.878   8.629 -0.0851  1.3041  0.6537
  179SLPC  H11Y20504   5.077   2.006   8.605  1.2511 -0.9886 -1.1040
  179SLPC  C31220505   4.879   2.071   8.544  0.9465 -0.0928  0.3389
  179SLPC  H12X20506   4.773   2.051   8.571  0.5909 -1.2382 -1.7012
  179SLPC  H12Y20507   4.883   2.013   8.449  1.2674 -2.9578  1.9802
  179SLPC  C31320508   4.936   2.209   8.533  0.4725 -0.8245  0.0190
  179SLPC  H13X20509   5.047   2.206   8.534  0.4955 -0.2708 -0.3013
  179SLPC  H13Y20510   4.903   2.272   8.619  2.7429  0.0925  0.3073
  179SLPC  C31420511   4.882   2.279   8.409 -0.0691  0.1572 -0.0103
  179SLPC  H14X20512   4.772   2.271   8.419  0.1684 -1.7007  1.8209
  179SLPC  H14Y20513   4.919   2.211   8.330  1.2166  0.8553 -0.0489
  179SLPC  C31520514   4.952   2.417   8.376  0.0554  0.1818 -0.5921
  179SLPC  H15X20515   5.062   2.412   8.361  0.5124 -0.7807  2.4715
  179SLPC  H15Y20516   4.936   2.479   8.466  0.6813  0.5374 -0.7244
  179SLPC  C31620517   4.904   2.489   8.251  0.0622 -0.1236  0.2784
  179SLPC  H16X20518   4.794   2.492   8.263 -0.1688 -3.6260  0.0033
  179SLPC  H16Y20519   4.929   2.423   8.166 -2.0859  0.1007 -0.5860
  179SLPC  C31720520   4.971   2.625   8.244 -0.7948 -0.5308  0.7037
  179SLPC  H17X20521   5.078   2.625   8.274 -0.3265  0.5805 -0.8117
  179SLPC  H17Y20522   4.910   2.691   8.310  1.1850  0.4305  1.6490
  179SLPC  C31820523   4.961   2.681   8.098  0.3218  0.2102 -0.5220
  179SLPC  H18X20524   5.034   2.631   8.031 -0.0089  1.4073 -1.8205
  179SLPC  H18Y20525   4.968   2.791   8.090  1.5357  0.1394 -0.5018
  179SLPC  H18Z20526   4.861   2.652   8.058 -0.3108 -1.3706  1.9883
  180SLPC     N20527   3.881   1.799  10.985 -0.8544  0.2342  0.2019
  180SLPC   C1320528   3.810   1.926  10.991  0.7453  0.0359  0.0317
  180SLPC  H13A20529   3.813   1.964  11.092 -0.3494  0.9436 -0.2486
  180SLPC  H13B20530   3.846   2.008  10.931 -3.4524  0.7265 -1.9233
  180SLPC  H13C20531   3.702   1.928  10.978  0.6954 -0.0357  0.4134
  180SLPC   C1420532   3.793   1.690  11.029  0.4696 -0.1137  0.5315
  180SLPC  H14A20533   3.707   1.693  10.964  0.5478  2.1546  0.4598
  180SLPC  H14B20534   3.832   1.590  11.018 -0.7630 -0.4370 -1.3543
  180SLPC  H14C20535   3.776   1.697  11.136 -0.0572 -0.7564  0.4979
  180SLPC   C1520536   3.993   1.802  11.073  0.3573  0.2063  0.2818
  180SLPC  H15A20537   4.068   1.876  11.046  1.3249 -1.1077 -0.7802
  180SLPC  H15B20538   3.964   1.848  11.166  0.2658 -0.7235  0.7148
  180SLPC  H15C20539   4.049   1.713  11.095  2.2016  1.0266 -0.8501
  180SLPC   C1220540   3.930   1.774  10.839 -0.8818  0.2598  0.1300
  180SLPC  H12A20541   3.841   1.758  10.780 -0.7273 -1.7235  0.3794
  180SLPC  H12B20542   3.983   1.680  10.840  0.9279  1.1389 -2.7518
  180SLPC   C1120543   4.026   1.876  10.765  0.5775  0.1214  0.1532
  180SLPC  H11A20544   4.077   1.828  10.679  0.0333  0.7281 -0.5300
  180SLPC  H11B20545   4.099   1.906  10.842  1.0079 -0.6018  0.0316
  180SLPC     P20546   3.880   1.970  10.572 -0.5037 -0.3874 -0.0460
  180SLPC   O1320547   3.769   1.872  10.570 -0.6584 -0.2077 -0.2164
  180SLPC   O1420548   3.857   2.108  10.539  0.0197 -0.1631 -0.4947
  180SLPC   O1220549   3.945   1.986  10.719  0.2634  0.3614  0.6749
  180SLPC   O1120550   3.999   1.917  10.481  0.1746 -0.1664  0.2300
  180SLPC    C120551   4.103   1.996  10.445 -0.7579  0.1491  0.3685
  180SLPC    HA20552   4.086   2.104  10.426  0.0510  0.1376 -0.4470
  180SLPC    HB20553   4.189   1.998  10.516 -1.3876  2.7952  1.2038
  180SLPC    C220554   4.149   1.939  10.310 -0.4113  1.0333  0.0972
  180SLPC    HS20555   4.231   2.005  10.272 -0.1960  0.3541 -0.6417
  180SLPC   O2120556   4.044   1.919  10.207  0.3502 -0.2489  0.4293
  180SLPC   C2120557   3.998   2.029  10.159  0.3375  0.5857 -0.2301
  180SLPC   O2220558   4.045   2.139  10.183  0.1457 -0.3900 -0.4323
  180SLPC   C2220559   3.874   2.006  10.080  0.1575 -0.2615  0.4038
  180SLPC   H2R20560   3.842   1.899  10.082 -1.7490  0.2661  1.5873
  180SLPC   H2S20561   3.790   2.051  10.139  1.1928 -0.1971  1.8811
  180SLPC    C320562   4.212   1.801  10.333  0.0695 -0.1206  0.3653
  180SLPC    HX20563   4.134   1.724  10.353  1.5112 -2.4284 -2.1350
  180SLPC    HY20564   4.282   1.810  10.418 -0.1393 -1.0642  0.6549
  180SLPC   O3120565   4.288   1.769  10.219 -0.1613  0.1110  0.5194
  180SLPC   C3120566   4.328   1.644  10.217  0.5157  0.8131 -0.6445
  180SLPC   O3220567   4.321   1.564  10.313 -0.4939  0.3049 -0.2009
  180SLPC   C3220568   4.379   1.616  10.079  0.2116  0.6610 -0.2930
  180SLPC   H2X20569   4.445   1.699  10.048 -0.7767  0.9431 -1.7362
  180SLPC   H2Y20570   4.288   1.616  10.015  0.9210  1.5830 -1.3356
  180SLPC   C2320571   3.873   2.076   9.942 -0.6160  0.6337 -0.0988
  180SLPC   H3R20572   3.970   2.046   9.898 -1.3066 -3.1300  0.5756
  180SLPC   H3S20573   3.875   2.185   9.965 -1.1175  0.3320  1.5008
  180SLPC   C2420574   3.758   2.039   9.848  0.3486 -0.2326 -0.2475
  180SLPC   H4R20575   3.664   2.061   9.902 -0.4631 -1.7575 -0.9784
  180SLPC   H4S20576   3.764   1.934   9.812 -0.6401  0.6431 -3.2393
  180SLPC   C2520577   3.750   2.132   9.725  0.0700 -0.3264 -0.0861
  180SLPC   H5R20578   3.856   2.141   9.692  1.2628 -1.9906  2.8544
  180SLPC   H5S20579   3.731   2.235   9.763  2.1413  0.0321  0.0864
  180SLPC   C2620580   3.649   2.104   9.621  0.5693  0.0635 -0.1683
  180SLPC   H6R20581   3.543   2.121   9.652 -0.0035 -0.5187 -1.7304
  180SLPC   H6S20582   3.658   1.997   9.593  2.8529  0.3971 -0.9181
  180SLPC   C2720583   3.659   2.207   9.504  0.9062 -0.0171  0.2711
  180SLPC   H7R20584   3.748   2.178   9.443  0.9521 -1.8691  1.1528
  180SLPC   H7S20585   3.681   2.315   9.516 -1.0871  0.6719 -1.5448
  180SLPC   C2820586   3.539   2.197   9.404  0.5257  0.3268  0.2542
  180SLPC   H8R20587   3.443   2.220   9.454 -0.8339 -1.9785 -1.1311
  180SLPC   H8S20588   3.535   2.092   9.367  0.8057  0.2459  0.4420
  180SLPC   C2920589   3.557   2.279   9.279  0.1858  0.3747 -0.0981
  180SLPC   H9R20590   3.642   2.237   9.223 -0.1197 -2.6391  1.4851
  180SLPC  C21020591   3.488   2.390   9.238  0.2880 -0.4415  0.4533
  180SLPC  H10R20592   3.498   2.424   9.134 -2.8749 -1.7318 -0.4184
  180SLPC  C21120593   3.368   2.453   9.299 -0.4451 -0.6520 -0.1082
  180SLPC  H11R20594   3.334   2.402   9.391 -0.6696  1.0850  0.7976
  180SLPC  H11S20595   3.286   2.446   9.224  0.7939  0.8047 -1.7030
  180SLPC  C21220596   3.410   2.592   9.331 -0.4484  0.0232  0.0509
  180SLPC  H12R20597   3.459   2.619   9.426 -0.8924  1.7686 -0.1826
  180SLPC  C21320598   3.372   2.695   9.248  0.2873  0.8026 -0.3135
  180SLPC  H13R20599   3.389   2.797   9.284 -0.6031  0.2776  1.7480
  180SLPC  C21420600   3.298   2.680   9.114  0.4276 -0.2918 -0.4806
  180SLPC  H14R20601   3.249   2.777   9.090  3.0003  1.6550  1.4440
  180SLPC  H14S20602   3.218   2.603   9.107 -0.3035  0.5600 -1.7802
  180SLPC  C21520603   3.391   2.662   9.000 -0.4608  0.4868  0.1816
  180SLPC  H15R20604   3.461   2.580   9.023 -3.0999 -2.4300 -1.3061
  180SLPC  H15S20605   3.455   2.752   8.994 -1.0430  0.8491 -1.2915
  180SLPC  C21620606   3.321   2.638   8.865  0.3306  0.5804  0.7400
  180SLPC  H16R20607   3.237   2.710   8.849 -0.7686 -0.2782  2.3618
  180SLPC  H16S20608   3.278   2.538   8.884  0.7334 -0.3780 -2.7404
  180SLPC  C21720609   3.413   2.643   8.747  0.0566  0.8331 -0.0507
  180SLPC  H17R20610   3.495   2.571   8.766  0.4365  1.6795  1.7379
  180SLPC  H17S20611   3.459   2.744   8.755  1.7668 -0.0084  1.2218
  180SLPC  C21820612   3.338   2.612   8.617  0.0108 -0.9641  0.0181
  180SLPC  H18R20613   3.409   2.628   8.533  0.3446 -0.9236  0.3082
  180SLPC  H18S20614   3.260   2.689   8.601 -1.0044 -2.1515 -1.0008
  180SLPC  H18T20615   3.292   2.511   8.624 -2.9720  0.2377 -0.6151
  180SLPC   C3320616   4.445   1.478  10.065  0.0094 -0.4151 -0.5041
  180SLPC   H3X20617   4.424   1.400  10.141  1.8640 -0.9849 -0.5393
  180SLPC   H3Y20618   4.555   1.490  10.061 -0.0673  0.2605 -0.8224
  180SLPC   C3420619   4.425   1.409   9.925  0.3702  0.0907  0.0370
  180SLPC   H4X20620   4.323   1.365   9.918  0.8402 -1.8275  3.3127
  180SLPC   H4Y20621   4.504   1.331   9.924 -0.0795 -0.3676 -0.3187
  180SLPC   C3520622   4.450   1.506   9.806  0.5722 -1.1855  0.7802
  180SLPC   H5X20623   4.543   1.558   9.836  0.4558 -1.8130  2.3141
  180SLPC   H5Y20624   4.360   1.570   9.806  0.0515 -1.8583 -0.8449
  180SLPC   C3620625   4.456   1.437   9.676 -0.0592  1.1768  0.3593
  180SLPC   H6X20626   4.359   1.393   9.646  0.0968  1.0367  0.0549
  180SLPC   H6Y20627   4.529   1.353   9.674 -1.5871 -0.1960 -0.0438
  180SLPC   C3720628   4.496   1.543   9.567  0.2716  0.7883 -0.6484
  180SLPC   H7X20629   4.576   1.607   9.608  1.4824 -0.8033 -0.4409
  180SLPC   H7Y20630   4.401   1.594   9.539  0.2733  2.2790  1.8051
  180SLPC   C3820631   4.548   1.478   9.435  0.0309 -0.3691 -0.3345
  180SLPC   H8X20632   4.500   1.378   9.422 -2.2230  0.6887 -0.5621
  180SLPC   H8Y20633   4.658   1.473   9.446 -0.0013 -1.9579 -0.4872
  180SLPC   C3920634   4.516   1.565   9.315 -0.4072 -0.8567  0.2081
  180SLPC   H9X20635   4.406   1.568   9.303 -0.3877 -1.0960 -0.0539
  180SLPC   H9Y20636   4.555   1.505   9.229  1.6909  0.9620 -0.1984
  180SLPC  C31020637   4.586   1.704   9.312 -0.0248  0.4017  0.2676
  180SLPC  H10X20638   4.697   1.694   9.314 -0.0659 -0.8449  3.9972
  180SLPC  H10Y20639   4.566   1.749   9.412  0.6641  2.9205 -0.6705
  180SLPC  C31120640   4.541   1.785   9.195  0.2287  0.6025  0.6227
  180SLPC  H11X20641   4.553   1.895   9.205 -1.6910  0.7269  2.2846
  180SLPC  H11Y20642   4.432   1.778   9.174  0.4691 -0.2842 -0.4171
  180SLPC  C31220643   4.607   1.744   9.060 -0.2944 -0.2920  0.2412
  180SLPC  H12X20644   4.596   1.634   9.045 -2.0747 -0.0239 -0.6831
  180SLPC  H12Y20645   4.717   1.752   9.074 -0.5009  2.4992  0.8604
  180SLPC  C31320646   4.577   1.822   8.931  0.3492  0.6371 -0.4218
  180SLPC  H13X20647   4.604   1.929   8.936 -3.1366  1.6199  0.3044
  180SLPC  H13Y20648   4.467   1.810   8.924  0.0645 -0.3236  3.3023
  180SLPC  C31420649   4.647   1.765   8.797 -0.3289  0.5655  0.0761
  180SLPC  H14X20650   4.664   1.655   8.806  1.5222  0.7952 -0.2132
  180SLPC  H14Y20651   4.749   1.808   8.793 -0.6794  1.5477  1.2002
  180SLPC  C31520652   4.572   1.795   8.667  0.2564 -0.3666  0.2315
  180SLPC  H15X20653   4.575   1.906   8.669  1.6948 -0.3611 -0.4429
  180SLPC  H15Y20654   4.467   1.764   8.681  0.2235 -0.3728 -0.0328
  180SLPC  C31620655   4.633   1.735   8.544 -0.5926  0.1725  0.4917
  180SLPC  H16X20656   4.593   1.632   8.531 -1.1627  0.4798 -0.3153
  180SLPC  H16Y20657   4.743   1.724   8.537 -0.6738  0.3310 -2.0432
  180SLPC  C31720658   4.584   1.805   8.413  0.0119 -0.5430  0.3307
  180SLPC  H17X20659   4.617   1.911   8.416 -0.0852 -0.4867 -0.3535
  180SLPC  H17Y20660   4.473   1.804   8.409 -0.0153  1.2572 -1.8780
  180SLPC  C31820661   4.642   1.736   8.291  0.3276  0.0215  0.3305
  180SLPC  H18X20662   4.601   1.770   8.193  0.3928  0.0378  0.3087
  180SLPC  H18Y20663   4.619   1.627   8.297 -0.8033  0.2237 -0.0537
  180SLPC  H18Z20664   4.752   1.750   8.292  0.2307  0.8418  1.9150
  181SLPC     N20665   1.853   5.401  11.139  0.2295  0.3878 -0.0489
  181SLPC   C1320666   1.918   5.300  11.226 -0.6558  0.1466  0.0613
  181SLPC  H13A20667   2.017   5.327  11.260 -1.9655  3.9780  1.3871
  181SLPC  H13B20668   1.865   5.285  11.319  1.2251  1.2022  1.3770
  181SLPC  H13C20669   1.927   5.205  11.175 -2.5360  0.0641 -0.1894
  181SLPC   C1420670   1.827   5.524  11.223  0.3157  0.2815 -0.0185
  181SLPC  H14A20671   1.780   5.592  11.154 -3.3471 -0.7114  1.2740
  181SLPC  H14B20672   1.749   5.507  11.295  0.3151  1.5210  0.2863
  181SLPC  H14C20673   1.922   5.552  11.265 -0.1666  3.1008 -0.6415
  181SLPC   C1520674   1.723   5.338  11.088 -0.1288  0.2948 -0.0928
  181SLPC  H15A20675   1.740   5.240  11.047  1.7937  0.7691 -0.4913
  181SLPC  H15B20676   1.653   5.324  11.169  0.6288 -3.5620  0.1019
  181SLPC  H15C20677   1.681   5.408  11.016 -0.7834  2.3938  2.1810
  181SLPC   C1220678   1.934   5.434  11.021  0.3726 -1.0125  0.7412
  181SLPC  H12A20679   1.955   5.357  10.948 -3.3639 -1.0731 -0.4527
  181SLPC  H12B20680   2.032   5.463  11.057  2.2941 -4.4336 -1.2332
  181SLPC   C1120681   1.873   5.550  10.930  0.1062  0.1623 -0.1700
  181SLPC  H11A20682   1.771   5.523  10.897 -0.6550  1.0213  1.3344
  181SLPC  H11B20683   1.937   5.548  10.839 -0.0493  3.0327 -0.4484
  181SLPC     P20684   2.022   5.751  10.993 -0.3319  0.5801  0.0198
  181SLPC   O1320685   2.019   5.878  11.061 -0.0546 -0.2126 -1.6206
  181SLPC   O1420686   2.119   5.646  11.039  0.0474 -0.5320 -0.0730
  181SLPC   O1220687   1.882   5.679  10.996 -0.1982  0.2177 -0.2310
  181SLPC   O1120688   2.040   5.768  10.833 -0.1161 -0.5046 -0.3965
  181SLPC    C120689   2.177   5.789  10.794 -0.3106 -0.0289 -0.1002
  181SLPC    HA20690   2.192   5.898  10.785 -1.7712  0.3544  1.5711
  181SLPC    HB20691   2.258   5.745  10.857 -0.3416  0.5319  0.3327
  181SLPC    C220692   2.199   5.717  10.654  0.3505  0.6465 -1.1654
  181SLPC    HS20693   2.212   5.612  10.685 -2.9862  1.1697  2.7874
  181SLPC   O2120694   2.317   5.767  10.590  0.2132 -0.5070 -0.0862
  181SLPC   C2120695   2.431   5.741  10.646 -0.0466 -0.0281  0.3311
  181SLPC   O2220696   2.456   5.679  10.745 -0.4497  0.2517 -0.1584
  181SLPC   C2220697   2.540   5.803  10.562  0.3796  0.3122  1.1191
  181SLPC   H2R20698   2.536   5.914  10.568 -1.1963  0.2247  2.0801
  181SLPC   H2S20699   2.631   5.757  10.605  0.0964 -2.8889 -1.2960
  181SLPC    C320700   2.080   5.727  10.562  0.7576  0.1539  0.9513
  181SLPC    HX20701   2.039   5.830  10.569 -1.0275 -0.3437 -1.1145
  181SLPC    HY20702   2.002   5.654  10.593  0.3079 -0.8426 -2.1560
  181SLPC   O3120703   2.104   5.698  10.420  0.0796 -0.4074 -0.2743
  181SLPC   C3120704   2.133   5.584  10.377 -0.2810  0.1582 -0.7348
  181SLPC   O3220705   2.149   5.478  10.440  0.2929  0.1944 -0.2788
  181SLPC   C3220706   2.172   5.598  10.235 -0.5594 -0.7694  0.0344
  181SLPC   H2X20707   2.196   5.705  10.216  0.3960 -1.0154 -0.2134
  181SLPC   H2Y20708   2.087   5.566  10.170  0.8449 -0.3654 -2.1167
  181SLPC   C2320709   2.526   5.738  10.421  0.1865 -0.2953 -0.5890
  181SLPC   H3R20710   2.420   5.750  10.391  0.8676 -0.3030 -3.2237
  181SLPC   H3S20711   2.546   5.628  10.429 -1.2182 -0.5488 -0.3521
  181SLPC   C2420712   2.609   5.810  10.321  0.4276  0.7262  0.1942
  181SLPC   H4R20713   2.717   5.798  10.344  0.2789 -1.1805  0.1241
  181SLPC   H4S20714   2.572   5.914  10.312  1.4947  1.1530  0.7085
  181SLPC   C2520715   2.596   5.746  10.179 -0.2235  0.4340  0.0575
  181SLPC   H5R20716   2.488   5.754  10.151 -0.6189  2.9179  1.8967
  181SLPC   H5S20717   2.609   5.638  10.196  0.2936 -0.0359 -2.8248
  181SLPC   C2620718   2.689   5.812  10.077 -0.0246 -0.6328 -0.2452
  181SLPC   H6R20719   2.791   5.775  10.102  0.2352  0.1767 -0.0530
  181SLPC   H6S20720   2.687   5.920  10.105 -0.6592 -0.4125 -1.0855
  181SLPC   C2720721   2.642   5.774   9.930 -0.7190 -0.2002 -0.0140
  181SLPC   H7R20722   2.532   5.790   9.926 -0.5601  0.8537 -0.4260
  181SLPC   H7S20723   2.656   5.663   9.928  0.2350 -0.1090  0.9895
  181SLPC   C2820724   2.715   5.849   9.813  0.2094  0.5762 -0.2611
  181SLPC   H8R20725   2.677   5.953   9.813  1.1730  0.9377 -0.4576
  181SLPC   H8S20726   2.661   5.809   9.724 -0.2959 -1.8089  1.0324
  181SLPC   C2920727   2.868   5.841   9.801 -0.4358 -0.1053 -0.7788
  181SLPC   H9R20728   2.929   5.845   9.892  2.0860  1.0072 -2.4245
  181SLPC  C21020729   2.935   5.823   9.681  0.5564 -0.5737  0.0151
  181SLPC  H10R20730   3.045   5.819   9.684  0.5260 -0.9558  1.1352
  181SLPC  C21120731   2.868   5.831   9.544  0.2135 -0.4441 -0.2064
  181SLPC  H11R20732   2.945   5.869   9.473  1.4048 -4.2438 -1.1796
  181SLPC  H11S20733   2.785   5.904   9.552 -2.2173 -3.1038  0.1828
  181SLPC  C21220734   2.807   5.701   9.497 -0.0256  0.4277 -0.3962
  181SLPC  H12R20735   2.743   5.660   9.577  1.1903  2.2800  1.6413
  181SLPC  C21320736   2.829   5.637   9.380 -0.1767 -0.1676 -0.1916
  181SLPC  H13R20737   2.764   5.552   9.353 -2.0890  1.3509 -0.5789
  181SLPC  C21420738   2.921   5.683   9.267  0.0789 -0.5649  0.5195
  181SLPC  H14R20739   2.945   5.612   9.186  2.8034  0.0866  0.6362
  181SLPC  H14S20740   3.024   5.712   9.297  0.1882  1.6140 -1.6122
  181SLPC  C21520741   2.858   5.805   9.196 -0.4462  0.4334 -0.3111
  181SLPC  H15R20742   2.940   5.850   9.138  0.2235  0.4007  0.5818
  181SLPC  H15S20743   2.825   5.881   9.270  0.0433  0.3200  0.0306
  181SLPC  C21620744   2.736   5.781   9.109  0.1525  0.5633  0.7035
  181SLPC  H16R20745   2.656   5.721   9.158  1.5115 -1.3727  0.6387
  181SLPC  H16S20746   2.785   5.719   9.032 -0.0052  0.9510  0.2819
  181SLPC  C21720747   2.666   5.904   9.041 -0.4876 -0.0997 -0.1809
  181SLPC  H17R20748   2.579   5.875   8.980 -1.1768  0.5480  0.4741
  181SLPC  H17S20749   2.734   5.985   9.005 -1.5427  0.3092 -1.2996
  181SLPC  C21820750   2.594   5.980   9.156  0.4502 -0.1171 -0.1449
  181SLPC  H18R20751   2.662   6.006   9.240  1.3458  0.4922 -1.0347
  181SLPC  H18S20752   2.517   5.915   9.203 -0.2854  0.8680  0.0371
  181SLPC  H18T20753   2.545   6.073   9.121  3.2117  1.2613 -0.6052
  181SLPC   C3320754   2.291   5.509  10.212 -0.6973  0.1906 -0.4448
  181SLPC   H3X20755   2.254   5.405  10.228 -0.4501 -0.2128 -2.2852
  181SLPC   H3Y20756   2.373   5.532  10.283 -3.2011  2.2910  2.0277
  181SLPC   C3420757   2.335   5.519  10.067  0.3534  0.4940  0.4197
  181SLPC   H4X20758   2.426   5.458  10.051  0.0904  0.2543 -0.2279
  181SLPC   H4Y20759   2.359   5.623  10.037  1.8278 -0.6703 -3.0212
  181SLPC   C3520760   2.235   5.456   9.968 -1.4132 -0.1222 -0.0866
  181SLPC   H5X20761   2.141   5.514   9.958 -0.1969  1.7858 -1.0040
  181SLPC   H5Y20762   2.216   5.353  10.007  1.5846 -1.5602 -1.9795
  181SLPC   C3620763   2.294   5.440   9.829  0.3621 -0.5073  0.0287
  181SLPC   H6X20764   2.215   5.424   9.752 -2.6287 -0.9875  3.0038
  181SLPC   H6Y20765   2.369   5.359   9.817  0.6346  0.0157 -2.4008
  181SLPC   C3720766   2.379   5.557   9.781 -0.1318  0.1449  0.2279
  181SLPC   H7X20767   2.465   5.572   9.849 -0.9558  1.1261  1.0948
  181SLPC   H7Y20768   2.326   5.655   9.778  1.1678  0.8543 -0.2618
  181SLPC   C3820769   2.445   5.543   9.645 -0.1328  0.1140 -0.4622
  181SLPC   H8X20770   2.484   5.440   9.629 -0.0322  0.1703 -0.5785
  181SLPC   H8Y20771   2.537   5.605   9.651  0.3887 -0.7671  1.3363
  181SLPC   C3920772   2.349   5.583   9.534 -0.7792  0.2803  0.8463
  181SLPC   H9X20773   2.330   5.692   9.541 -3.1212  0.1790 -1.9003
  181SLPC   H9Y20774   2.247   5.538   9.543 -0.8981  0.8177  2.6507
  181SLPC  C31020775   2.411   5.555   9.398  0.2037 -0.3287  0.8655
  181SLPC  H10X20776   2.445   5.450   9.382  1.8414  0.2966 -0.0022
  181SLPC  H10Y20777   2.507   5.610   9.402  0.8930 -1.2511 -1.4712
  181SLPC  C31120778   2.326   5.611   9.282 -0.2014 -0.1337 -0.1961
  181SLPC  H11X20779   2.354   5.716   9.260  1.7412 -0.2483  1.4599
  181SLPC  H11Y20780   2.217   5.609   9.304 -0.7887  0.6599 -2.7228
  181SLPC  C31220781   2.353   5.541   9.152  0.5817 -0.0036  0.2948
  181SLPC  H12X20782   2.301   5.443   9.142 -2.0448  1.0621  2.4760
  181SLPC  H12Y20783   2.462   5.519   9.158  0.0414 -2.9592  0.9558
  181SLPC  C31320784   2.332   5.639   9.042 -0.0140 -0.2403 -0.2105
  181SLPC  H13X20785   2.405   5.722   9.054  0.7103 -0.9414  0.4098
  181SLPC  H13Y20786   2.232   5.687   9.053  0.3705  0.3899  0.6477
  181SLPC  C31420787   2.362   5.585   8.901 -0.1725  0.1675 -0.2080
  181SLPC  H14X20788   2.302   5.500   8.864 -1.1126  0.6749  0.1094
  181SLPC  H14Y20789   2.462   5.537   8.904 -0.6656 -0.9117 -0.7491
  181SLPC  C31520790   2.362   5.703   8.801 -0.5353  0.0648 -0.6693
  181SLPC  H15X20791   2.446   5.773   8.821 -2.3828  1.8356  1.5198
  181SLPC  H15Y20792   2.270   5.760   8.824  0.5986  1.7969 -0.2290
  181SLPC  C31620793   2.374   5.654   8.651 -0.1339  0.3931 -1.0228
  181SLPC  H16X20794   2.325   5.555   8.646 -1.0051  0.7203  0.5415
  181SLPC  H16Y20795   2.479   5.621   8.634  0.1576 -1.1544  2.8272
  181SLPC  C31720796   2.330   5.756   8.546  0.0773 -0.4023  0.4242
  181SLPC  H17X20797   2.405   5.836   8.555 -0.6230  0.4090 -0.6969
  181SLPC  H17Y20798   2.228   5.797   8.565 -0.2225  0.5842 -2.7912
  181SLPC  C31820799   2.341   5.693   8.411 -0.9308  0.2216 -0.2494
  181SLPC  H18X20800   2.248   5.634   8.395  0.2612 -2.3164  1.5395
  181SLPC  H18Y20801   2.432   5.631   8.395 -1.7950 -1.5910  1.5041
  181SLPC  H18Z20802   2.355   5.771   8.333 -0.0710 -0.9973 -1.3497
  182SLPC     N20803   0.665   6.724  10.900 -0.1464  0.2602 -0.2400
  182SLPC   C1320804   0.715   6.625  11.010  0.0504 -0.5506 -0.3559
  182SLPC  H13A20805   0.819   6.640  11.034  0.2789 -0.8267 -1.1479
  182SLPC  H13B20806   0.667   6.637  11.106 -0.0727  1.9060 -0.6791
  182SLPC  H13C20807   0.695   6.525  10.974  0.4532 -0.6791 -0.2197
  182SLPC   C1420808   0.694   6.856  10.962  0.0797 -0.1714  0.5421
  182SLPC  H14A20809   0.697   6.931  10.886 -0.5878 -1.8128 -1.1776
  182SLPC  H14B20810   0.618   6.895  11.028 -0.9048  0.2406 -0.8010
  182SLPC  H14C20811   0.789   6.859  11.014 -0.1097  1.3263  0.8406
  182SLPC   C1520812   0.513   6.713  10.881  0.2340 -0.5838 -0.1985
  182SLPC  H15A20813   0.487   6.613  10.847  2.3290 -1.5238  0.7777
  182SLPC  H15B20814   0.475   6.730  10.981  1.5671 -2.3102  0.6500
  182SLPC  H15C20815   0.474   6.780  10.806 -0.0091 -2.0670 -1.4532
  182SLPC   C1220816   0.740   6.712  10.771 -0.1828 -0.3035  0.3215
  182SLPC  H12A20817   0.723   6.620  10.718 -0.5136  0.0861 -0.2586
  182SLPC  H12B20818   0.847   6.712  10.784  0.0493  2.2516 -0.8103
  182SLPC   C1120819   0.711   6.823  10.663  0.4086  0.3876  0.4145
  182SLPC  H11A20820   0.602   6.842  10.660 -0.4997 -3.8284 -2.4094
  182SLPC  H11B20821   0.733   6.775  10.565 -1.7417 -0.9600  0.5278
  182SLPC     P20822   0.949   6.939  10.688 -0.0771  0.4188  0.4368
  182SLPC   O1320823   1.002   7.061  10.750  0.4166 -0.0823 -0.4475
  182SLPC   O1420824   0.991   6.808  10.740  0.6667  0.3881  0.9210
  182SLPC   O1220825   0.795   6.941  10.673  0.6104 -0.1070 -1.0533
  182SLPC   O1120826   0.986   6.948  10.529 -0.0495  0.7449 -0.3433
  182SLPC    C120827   1.093   6.870  10.471  1.0114 -0.5209 -0.2683
  182SLPC    HA20828   1.188   6.926  10.483  1.4995 -1.3745 -0.0347
  182SLPC    HB20829   1.103   6.772  10.524 -2.0715  0.8644  3.3677
  182SLPC    C220830   1.075   6.852  10.317  0.1372 -1.1527  0.0374
  182SLPC    HS20831   1.146   6.771  10.293  0.5134 -0.7576 -0.2007
  182SLPC   O2120832   1.111   6.976  10.253 -0.0126  0.0475  0.3292
  182SLPC   C2120833   1.172   6.959  10.128 -0.6811  0.3960 -0.2297
  182SLPC   O2220834   1.197   6.850  10.086  0.6797  0.2829  0.3082
  182SLPC   C2220835   1.200   7.099  10.062 -0.6338 -1.0074 -0.2235
  182SLPC   H2R20836   1.147   7.177  10.120  3.7648  1.4093  1.0330
  182SLPC   H2S20837   1.306   7.131  10.073 -0.6941 -1.3251  1.6263
  182SLPC    C320838   0.929   6.810  10.280  1.1705 -0.0329 -0.6469
  182SLPC    HX20839   0.858   6.895  10.288 -0.6905 -1.6939  2.5459
  182SLPC    HY20840   0.890   6.736  10.352  1.9883  0.2277  0.0816
  182SLPC   O3120841   0.905   6.756  10.144 -1.4209 -0.1944 -0.0246
  182SLPC   C3120842   0.964   6.639  10.124  0.5522 -0.1419  0.3430
  182SLPC   O3220843   1.037   6.588  10.205  0.3372  0.1271 -0.8180
  182SLPC   C3220844   0.928   6.582   9.989  0.6378 -0.2251 -0.4664
  182SLPC   H2X20845   1.027   6.558   9.945  1.3146  1.9320 -0.1987
  182SLPC   H2Y20846   0.884   6.659   9.923  0.4125 -1.0188 -1.2601
  182SLPC   C2320847   1.169   7.122   9.911 -0.3964 -0.3433  0.3918
  182SLPC   H3R20848   1.213   7.040   9.849  1.9433 -0.1735  1.7112
  182SLPC   H3S20849   1.217   7.218   9.882  3.0898 -1.7085  1.0608
  182SLPC   C2420850   1.020   7.146   9.877 -0.3166 -0.4137 -0.0361
  182SLPC   H4R20851   0.997   7.191   9.778 -0.5340 -0.1686  0.1248
  182SLPC   H4S20852   0.989   7.216   9.958 -0.4400 -3.1683  2.4372
  182SLPC   C2520853   0.938   7.018   9.881  0.3398  0.1005  0.0494
  182SLPC   H5R20854   0.931   6.974   9.983 -0.2177  0.0334 -0.0110
  182SLPC   H5S20855   0.985   6.936   9.824 -1.4117 -1.3091  0.5480
  182SLPC   C2620856   0.794   7.027   9.828  0.1404  0.7465 -0.0481
  182SLPC   H6R20857   0.796   7.103   9.747 -0.2894  0.4510 -0.3410
  182SLPC   H6S20858   0.740   7.067   9.916  0.4016  0.4035  0.2672
  182SLPC   C2720859   0.725   6.898   9.771  0.1350  0.1664  0.4202
  182SLPC   H7R20860   0.617   6.922   9.757  0.9428  3.4617 -1.2369
  182SLPC   H7S20861   0.733   6.827   9.856  0.2957  0.3032  0.5216
  182SLPC   C2820862   0.805   6.837   9.658 -0.0312  0.2556  0.1864
  182SLPC   H8R20863   0.745   6.751   9.619  1.7655 -0.1246 -1.9802
  182SLPC   H8S20864   0.895   6.798   9.711 -0.2844  2.0851  2.0641
  182SLPC   C2920865   0.848   6.922   9.541  0.5736 -0.2433 -0.1265
  182SLPC   H9R20866   0.956   6.942   9.540  0.4590  0.5224  1.0054
  182SLPC  C21020867   0.769   6.947   9.438  0.0116  0.1418  0.6718
  182SLPC  H10R20868   0.822   7.012   9.366  1.9817 -0.2570  1.7104
  182SLPC  C21120869   0.632   6.897   9.415 -0.5479 -0.0638  0.4690
  182SLPC  H11R20870   0.575   6.870   9.506 -0.9500 -0.8098  0.0042
  182SLPC  H11S20871   0.641   6.803   9.356 -3.9365 -0.0111 -0.3703
  182SLPC  C21220872   0.558   7.001   9.335  0.4513  0.2273 -0.1509
  182SLPC  H12R20873   0.542   7.100   9.382  0.9223 -0.5312  1.7115
  182SLPC  C21320874   0.500   6.986   9.217  0.7588 -0.4786  0.6008
  182SLPC  H13R20875   0.450   7.075   9.176 -2.3585 -2.0183  0.6938
  182SLPC  C21420876   0.491   6.878   9.120  0.2991  0.3190  0.2484
  182SLPC  H14R20877   0.414   6.903   9.044  1.6179 -0.5404 -1.4309
  182SLPC  H14S20878   0.480   6.775   9.161  0.5866 -0.9175 -2.5465
  182SLPC  C21520879   0.623   6.887   9.040  0.3481 -0.4418  0.2195
  182SLPC  H15R20880   0.719   6.871   9.094 -0.0105  1.0567  1.3747
  182SLPC  H15S20881   0.628   6.993   9.005  3.1600 -0.5372  0.0539
  182SLPC  C21620882   0.620   6.794   8.915  0.2503  0.6215 -0.2606
  182SLPC  H16R20883   0.534   6.815   8.847 -2.5873 -1.5093  2.4065
  182SLPC  H16S20884   0.617   6.688   8.947  0.8381  1.6775  3.8912
  182SLPC  C21720885   0.753   6.819   8.830  0.6506  0.5421 -0.2295
  182SLPC  H17R20886   0.843   6.781   8.883  0.7622  0.9537 -0.1169
  182SLPC  H17S20887   0.754   6.929   8.815 -0.6113  0.6092  0.0348
  182SLPC  C21820888   0.733   6.764   8.691  0.0184  0.2168 -0.0259
  182SLPC  H18R20889   0.642   6.811   8.649  0.0634 -0.2369 -0.6420
  182SLPC  H18S20890   0.719   6.653   8.694  2.0898 -0.1017 -0.7337
  182SLPC  H18T20891   0.820   6.775   8.623  0.7397  0.4180  0.9132
  182SLPC   C3320892   0.841   6.447  10.003  0.0969 -0.1100 -0.3291
  182SLPC   H3X20893   0.783   6.451  10.097 -0.4394 -2.5677 -0.4872
  182SLPC   H3Y20894   0.917   6.366  10.008  1.2940  1.0137  0.2252
  182SLPC   C3420895   0.755   6.408   9.887  0.6679 -1.4290  0.4485
  182SLPC   H4X20896   0.665   6.473   9.889  2.4258  1.2185  2.8718
  182SLPC   H4Y20897   0.733   6.299   9.893  0.9988 -1.6159 -1.2894
  182SLPC   C3520898   0.818   6.430   9.749  0.9438 -0.9169  0.9148
  182SLPC   H5X20899   0.904   6.361   9.736  0.2596 -1.6098 -0.0826
  182SLPC   H5Y20900   0.851   6.536   9.743 -2.0705  0.0191 -1.1991
  182SLPC   C3620901   0.723   6.409   9.635  0.0537 -0.3806  0.4293
  182SLPC   H6X20902   0.640   6.482   9.631  0.3035 -0.1552 -1.3600
  182SLPC   H6Y20903   0.666   6.313   9.635 -0.5128 -0.0622 -0.9943
  182SLPC   C3720904   0.806   6.409   9.501 -1.0027 -0.3989 -0.4892
  182SLPC   H7X20905   0.869   6.319   9.514 -1.0631 -0.1483  1.9504
  182SLPC   H7Y20906   0.879   6.493   9.493  0.2364 -1.2892  1.0203
  182SLPC   C3820907   0.715   6.403   9.378 -0.1977  0.2600 -0.6192
  182SLPC   H8X20908   0.691   6.507   9.347 -0.6195  0.1271 -0.7494
  182SLPC   H8Y20909   0.616   6.366   9.412  0.5057  0.4775  1.8180
  182SLPC   C3920910   0.768   6.336   9.255 -0.3138 -0.2146 -0.1830
  182SLPC   H9X20911   0.788   6.229   9.280  3.2594  1.2463  4.6093
  182SLPC   H9Y20912   0.870   6.370   9.227 -0.6192  3.0350  2.1069
  182SLPC  C31020913   0.669   6.360   9.142  0.0921  0.3320 -0.0095
  182SLPC  H10X20914   0.632   6.465   9.146  3.1680  1.6160 -1.3686
  182SLPC  H10Y20915   0.581   6.296   9.163  0.3546  0.2504  0.8789
  182SLPC  C31120916   0.730   6.323   9.011 -0.3269 -0.1432  0.0940
  182SLPC  H11X20917   0.770   6.220   9.008  2.7368  0.9224  0.1015
  182SLPC  H11Y20918   0.816   6.391   8.989 -0.3336 -0.4292 -0.8530
  182SLPC  C31220919   0.634   6.349   8.902 -0.8811 -0.6846  0.5237
  182SLPC  H12X20920   0.592   6.451   8.915 -1.2678 -0.6932 -0.5404
  182SLPC  H12Y20921   0.560   6.269   8.923  1.2444 -2.9624 -0.1993
  182SLPC  C31320922   0.698   6.322   8.763  0.0198 -0.5097  0.6920
  182SLPC  H13X20923   0.743   6.221   8.758 -1.2411 -1.0805  0.4208
  182SLPC  H13Y20924   0.780   6.395   8.745  0.8463 -1.1137  1.8953
  182SLPC  C31420925   0.577   6.331   8.662  0.3036  0.5019  0.0223
  182SLPC  H14X20926   0.547   6.438   8.656  0.5811  0.5989  0.3330
  182SLPC  H14Y20927   0.493   6.271   8.703  0.4304  0.5601  0.3690
  182SLPC  C31520928   0.600   6.278   8.518 -1.6384  0.7770  0.9768
  182SLPC  H15X20929   0.505   6.277   8.460 -1.7438  0.1630  1.1570
  182SLPC  H15Y20930   0.644   6.176   8.520  0.2913  1.5617  0.9339
  182SLPC  C31620931   0.712   6.345   8.443  0.4371 -0.4826 -0.2421
  182SLPC  H16X20932   0.807   6.331   8.499 -1.0409 -1.9230  2.0631
  182SLPC  H16Y20933   0.682   6.452   8.438  0.5564 -0.5063 -2.9093
  182SLPC  C31720934   0.742   6.298   8.299  0.0192  1.2086 -0.1048
  182SLPC  H17X20935   0.660   6.343   8.238  0.7898  1.8512 -0.6970
  182SLPC  H17Y20936   0.740   6.187   8.291  1.0842  1.1246  0.5985
  182SLPC  C31820937   0.877   6.346   8.245 -0.2751 -0.1299  0.4026
  182SLPC  H18X20938   0.958   6.293   8.300 -0.4839 -0.2388  0.6105
  182SLPC  H18Y20939   0.889   6.453   8.270  1.5110  0.2508 -1.8014
  182SLPC  H18Z20940   0.881   6.337   8.135 -1.8820 -2.2044  0.4525
  183SLPC     N20941   2.799   2.311  10.826 -0.8500  0.0485  0.8840
  183SLPC   C1320942   2.883   2.221  10.908 -0.1493 -0.5593 -0.0715
  183SLPC  H13A20943   2.976   2.272  10.926 -1.4944  2.2083 -0.5085
  183SLPC  H13B20944   2.834   2.219  11.004  0.5631  1.2059  0.3693
  183SLPC  H13C20945   2.881   2.119  10.871  0.7080 -1.2020  1.5662
  183SLPC   C1420946   2.871   2.444  10.811  0.1953  0.4382  0.8023
  183SLPC  H14A20947   2.819   2.506  10.739 -0.6661  1.1330  2.0069
  183SLPC  H14B20948   2.879   2.496  10.905  1.2904 -0.9958  1.5449
  183SLPC  H14C20949   2.972   2.432  10.773 -0.3321  0.3043 -0.6460
  183SLPC   C1520950   2.670   2.344  10.891  0.1830  0.0374  0.5069
  183SLPC  H15A20951   2.649   2.273  10.970 -1.6939  0.2751  0.2614
  183SLPC  H15B20952   2.663   2.443  10.935  0.8416  0.0062  0.7029
  183SLPC  H15C20953   2.595   2.343  10.813 -0.6625 -0.1096  1.3044
  183SLPC   C1220954   2.762   2.243  10.694  0.1431  0.4116  0.7649
  183SLPC  H12A20955   2.722   2.146  10.720  2.3165 -0.3484  1.5230
  183SLPC  H12B20956   2.853   2.211  10.646 -1.5350 -2.7004 -0.6977
  183SLPC   C1120957   2.677   2.312  10.586 -0.3604 -0.7218  0.8106
  183SLPC  H11A20958   2.686   2.264  10.486 -2.4482  1.2223 -0.4159
  183SLPC  H11B20959   2.717   2.415  10.571 -0.5618 -1.0106 -2.8092
  183SLPC     P20960   2.425   2.249  10.552  0.2877 -0.2695  0.3123
  183SLPC   O1320961   2.462   2.105  10.555  0.1685  0.6254 -0.3531
  183SLPC   O1420962   2.300   2.290  10.627  0.1316  0.2167  0.2490
  183SLPC   O1220963   2.543   2.331  10.623  0.4890  0.6493 -0.0783
  183SLPC   O1120964   2.424   2.297  10.405 -0.1978  0.2255 -0.3363
  183SLPC    C120965   2.441   2.434  10.376 -0.2674 -0.5597  0.4396
  183SLPC    HA20966   2.348   2.493  10.392  1.1374  1.5826  1.1053
  183SLPC    HB20967   2.519   2.488  10.435 -1.2992  1.0464  0.3940
  183SLPC    C220968   2.483   2.441  10.224 -0.2430 -0.0778 -0.2878
  183SLPC    HS20969   2.513   2.547  10.213  0.4171  0.0319  2.1390
  183SLPC   O2120970   2.383   2.404  10.126  0.0045  0.5799 -0.8757
  183SLPC   C2120971   2.292   2.497  10.118 -0.3782  0.0453 -0.1635
  183SLPC   O2220972   2.276   2.598  10.182 -0.2445  0.1736  0.2853
  183SLPC   C2220973   2.209   2.464   9.993 -0.8386 -0.3650 -0.5932
  183SLPC   H2R20974   2.136   2.383  10.012  0.3500 -1.2155  0.5507
  183SLPC   H2S20975   2.161   2.564   9.987 -1.3654 -0.5115  0.7417
  183SLPC    C320976   2.616   2.356  10.201  0.2530  0.8391  0.5936
  183SLPC    HX20977   2.595   2.251  10.232  0.5729  0.8159  0.7283
  183SLPC    HY20978   2.702   2.395  10.258  0.2881  0.2657  0.9475
  183SLPC   O3120979   2.659   2.367  10.058 -0.2024  0.0359  0.2960
  183SLPC   C3120980   2.635   2.267   9.974 -0.5540  0.6256 -1.0315
  183SLPC   O3220981   2.565   2.169   9.999  0.5735  0.2997  0.2303
  183SLPC   C3220982   2.714   2.292   9.842 -0.1165  0.0297  0.0476
  183SLPC   H2X20983   2.773   2.198   9.830 -1.2756 -0.3971 -3.4913
  183SLPC   H2Y20984   2.786   2.375   9.858 -0.4007  0.4457 -0.8028
  183SLPC   C2320985   2.295   2.467   9.861  0.4079  0.1001 -0.0235
  183SLPC   H3R20986   2.364   2.381   9.853  3.1166  2.0786  0.6727
  183SLPC   H3S20987   2.367   2.551   9.853 -1.4647  1.7793 -0.2068
  183SLPC   C2420988   2.207   2.468   9.733  0.5029 -0.2125 -0.2632
  183SLPC   H4R20989   2.165   2.568   9.708  1.2117 -0.0319 -0.7758
  183SLPC   H4S20990   2.120   2.399   9.733 -0.8341  1.3642 -1.7869
  183SLPC   C2520991   2.298   2.430   9.610  0.0071  0.2242 -0.0067
  183SLPC   H5R20992   2.340   2.331   9.638 -1.4419 -0.0163  1.4593
  183SLPC   H5S20993   2.373   2.512   9.619 -0.2022  0.3601  0.5819
  183SLPC   C2620994   2.235   2.442   9.474  0.3507 -0.2003  0.1582
  183SLPC   H6R20995   2.201   2.544   9.445 -0.1967 -0.1039  1.1065
  183SLPC   H6S20996   2.139   2.386   9.484  0.0208  0.5234  1.2421
  183SLPC   C2720997   2.317   2.385   9.359  0.1608 -0.8893 -0.2303
  183SLPC   H7R20998   2.328   2.276   9.379 -0.6016 -0.9931 -0.3244
  183SLPC   H7S20999   2.417   2.432   9.355 -0.5151  0.5361 -1.2152
  183SLPC   C2821000   2.238   2.398   9.219  0.0212  0.0353 -0.3694
  183SLPC   H8R21001   2.141   2.350   9.242 -0.5333  0.3899 -1.8549
  183SLPC   H8S21002   2.288   2.335   9.142 -1.8312 -0.2263 -1.4130
  183SLPC   C2921003   2.216   2.534   9.155 -0.0195 -0.2684 -0.3718
  183SLPC   H9R21004   2.283   2.614   9.190  0.6019 -1.3355  1.0031
  183SLPC  C21021005   2.113   2.573   9.074 -0.9855 -0.2335 -0.2137
  183SLPC  H10R21006   2.104   2.678   9.043  0.3598  0.5442  1.7859
  183SLPC  C21121007   1.999   2.489   9.029 -0.6310  0.3734 -0.6361
  183SLPC  H11R21008   1.918   2.559   8.998 -1.8572 -1.2374 -1.2124
  183SLPC  H11S21009   1.970   2.406   9.096  2.4897 -0.6103 -0.3569
  183SLPC  C21221010   2.048   2.414   8.907  0.5740  0.5445  0.7020
  183SLPC  H12R21011   2.129   2.344   8.931  0.7298  1.4560  3.0878
  183SLPC  C21321012   2.000   2.406   8.780  0.0538 -0.3074  0.1962
  183SLPC  H13R21013   2.042   2.329   8.714  0.1228 -0.3989  0.3456
  183SLPC  C21421014   1.890   2.481   8.716 -0.0249 -0.3557 -0.2931
  183SLPC  H14R21015   1.869   2.575   8.772 -1.6133  0.5983 -2.3628
  183SLPC  H14S21016   1.795   2.424   8.715  0.3384 -1.0081  0.6974
  183SLPC  C21521017   1.936   2.511   8.575 -0.0508  0.1276 -0.3007
  183SLPC  H15R21018   1.958   2.419   8.516 -1.7771  1.2381 -2.8708
  183SLPC  H15S21019   2.022   2.579   8.590  1.4282 -2.1728  2.7292
  183SLPC  C21621020   1.830   2.588   8.496  0.0917  0.6273  0.2112
  183SLPC  H16R21021   1.795   2.680   8.547  0.0606  1.6225 -1.5104
  183SLPC  H16S21022   1.735   2.534   8.475 -2.5628  3.7927  2.9552
  183SLPC  C21721023   1.889   2.646   8.361  0.9045 -0.1296 -0.3947
  183SLPC  H17R21024   1.960   2.579   8.310  0.4349  0.5883 -2.0849
  183SLPC  H17S21025   1.945   2.733   8.401 -0.5384  0.5615  0.2177
  183SLPC  C21821026   1.775   2.689   8.265 -0.7320  0.3460 -0.1312
  183SLPC  H18R21027   1.706   2.606   8.238  1.9444 -1.4721 -1.8260
  183SLPC  H18S21028   1.820   2.731   8.173 -1.0763 -0.0397 -0.4827
  183SLPC  H18T21029   1.711   2.767   8.312 -1.3948 -0.6945  0.7439
  183SLPC   C3321030   2.609   2.317   9.733 -0.8708 -0.7240 -0.0731
  183SLPC   H3X21031   2.547   2.409   9.741 -0.5639 -0.6213  1.5053
  183SLPC   H3Y21032   2.535   2.234   9.734 -0.3469 -1.1987  0.2400
  183SLPC   C3421033   2.686   2.305   9.595 -0.3538 -0.6920 -0.8501
  183SLPC   H4X21034   2.797   2.299   9.598 -0.0740  2.4537 -0.4828
  183SLPC   H4Y21035   2.652   2.398   9.545  1.8421  0.7878  0.2211
  183SLPC   C3521036   2.638   2.191   9.517  0.2488  0.0499  0.6617
  183SLPC   H5X21037   2.530   2.171   9.537 -0.2167  0.2784 -1.3979
  183SLPC   H5Y21038   2.691   2.100   9.553  1.0460 -1.2825 -3.3805
  183SLPC   C3621039   2.667   2.221   9.368 -0.0072 -0.3677 -0.2203
  183SLPC   H6X21040   2.776   2.210   9.348  0.1215 -0.3513  0.4403
  183SLPC   H6Y21041   2.644   2.325   9.337  2.0503  0.1031 -0.3438
  183SLPC   C3721042   2.579   2.119   9.292 -0.1064  0.5367 -0.1875
  183SLPC   H7X21043   2.471   2.137   9.309 -0.0837  0.0880  0.4643
  183SLPC   H7Y21044   2.606   2.023   9.343 -0.7030  0.9722  0.9774
  183SLPC   C3821045   2.622   2.113   9.139  0.5189  0.2644 -1.0168
  183SLPC   H8X21046   2.730   2.095   9.153  0.5589 -0.0145 -1.6335
  183SLPC   H8Y21047   2.611   2.212   9.089  1.2999  0.1934 -1.3391
  183SLPC   C3921048   2.564   2.001   9.058  0.0071 -0.4416 -0.4525
  183SLPC   H9X21049   2.572   1.917   9.131 -1.7378 -0.1095  0.1863
  183SLPC   H9Y21050   2.612   1.982   8.960 -2.4266  0.1349 -1.8265
  183SLPC  C31021051   2.414   2.029   9.036 -0.6085 -0.4158  0.2387
  183SLPC  H10X21052   2.398   2.138   9.023  0.7999  0.2513  3.1992
  183SLPC  H10Y21053   2.357   1.989   9.122 -1.8339 -2.4152 -1.3965
  183SLPC  C31121054   2.367   1.975   8.904 -0.3312 -1.2095  0.3559
  183SLPC  H11X21055   2.263   1.937   8.909 -1.6766  1.7484 -1.9845
  183SLPC  H11Y21056   2.437   1.898   8.865  1.9756  0.9322 -0.0021
  183SLPC  C31221057   2.344   2.093   8.807 -0.9144 -0.0153  0.3538
  183SLPC  H12X21058   2.435   2.156   8.812 -2.2472  1.9148  1.5390
  183SLPC  H12Y21059   2.258   2.151   8.847 -0.6107 -0.5603  1.8591
  183SLPC  C31321060   2.309   2.049   8.671  0.5365  0.1912  0.1716
  183SLPC  H13X21061   2.209   2.002   8.679 -0.0529  1.4984  0.7946
  183SLPC  H13Y21062   2.375   1.965   8.640 -0.2706 -0.3802 -0.0553
  183SLPC  C31421063   2.333   2.151   8.565  0.0701  0.5347 -0.1577
  183SLPC  H14X21064   2.439   2.184   8.561 -0.0846  1.0531  0.0484
  183SLPC  H14Y21065   2.268   2.240   8.577  1.7263  1.7182  0.3915
  183SLPC  C31521066   2.307   2.096   8.421 -0.3766  0.2070 -0.1804
  183SLPC  H15X21067   2.199   2.074   8.418  0.2743 -3.7132 -0.2142
  183SLPC  H15Y21068   2.366   2.002   8.407  0.6410  0.2839  2.7654
  183SLPC  C31621069   2.346   2.201   8.318 -0.4033 -0.0215 -0.0211
  183SLPC  H16X21070   2.443   2.179   8.269  0.8238  2.3639  1.1753
  183SLPC  H16Y21071   2.367   2.298   8.366  1.4436  0.1291 -1.0232
  183SLPC  C31721072   2.235   2.214   8.209 -0.6784 -0.5714  0.4143
  183SLPC  H17X21073   2.154   2.276   8.252  1.8848  1.3793  2.7928
  183SLPC  H17Y21074   2.175   2.122   8.191  0.8429 -1.4684 -0.2214
  183SLPC  C31821075   2.276   2.281   8.074 -1.3481  0.1360  0.1197
  183SLPC  H18X21076   2.358   2.231   8.019 -1.3993  0.8855 -0.6638
  183SLPC  H18Y21077   2.317   2.382   8.093 -0.1873 -0.0795 -1.1003
  183SLPC  H18Z21078   2.185   2.279   8.010 -0.2718 -0.2811 -1.4682
  184SLPC     N21079   5.954   5.351  10.795 -0.3923  0.4518 -0.1238
  184SLPC   C1321080   6.018   5.374  10.928  0.4854  0.2368 -0.9674
  184SLPC  H13A21081   6.122   5.347  10.914 -0.4422 -3.3968 -1.8492
  184SLPC  H13B21082   6.020   5.479  10.954  0.2151  0.7464 -2.8609
  184SLPC  H13C21083   5.966   5.323  11.007  1.6573  0.4274 -0.0317
  184SLPC   C1421084   5.962   5.207  10.750  0.9659  0.2705 -0.1162
  184SLPC  H14A21085   6.057   5.159  10.766  0.3192 -0.8975  0.3420
  184SLPC  H14B21086   5.909   5.148  10.823  2.2746 -1.2656 -0.3465
  184SLPC  H14C21087   5.916   5.188  10.654  1.0862 -0.5810 -0.0145
  184SLPC   C1521088   6.042   5.431  10.694  0.1450  0.0723 -1.3471
  184SLPC  H15A21089   5.990   5.513  10.647 -0.1106  0.9015  0.3074
  184SLPC  H15B21090   6.123   5.471  10.753  0.7590 -3.4831  0.5294
  184SLPC  H15C21091   6.076   5.370  10.611 -1.2889 -0.7079 -1.4095
  184SLPC   C1221092   5.811   5.410  10.794 -0.0459 -0.7816  0.0769
  184SLPC  H12A21093   5.754   5.370  10.877  1.9338 -0.9407  1.4326
  184SLPC  H12B21094   5.757   5.384  10.704  1.0555 -1.5960 -0.3716
  184SLPC   C1121095   5.788   5.565  10.807 -0.6823  1.2535  0.2013
  184SLPC  H11A21096   5.829   5.619  10.719 -0.8451  0.5943 -0.2853
  184SLPC  H11B21097   5.847   5.603  10.893  2.2879  0.1893 -1.2235
  184SLPC     P21098   5.568   5.608  10.689 -0.4037  0.2524 -0.3553
  184SLPC   O1321099   5.428   5.568  10.715 -0.7958  0.7516 -0.8860
  184SLPC   O1421100   5.582   5.751  10.648 -0.0902  0.4263 -0.0678
  184SLPC   O1221101   5.649   5.592  10.825  0.7054  0.5546 -0.2760
  184SLPC   O1121102   5.638   5.507  10.588  0.3289 -0.0558  0.4281
  184SLPC    C121103   5.706   5.550  10.474  0.2425 -0.3072 -0.9044
  184SLPC    HA21104   5.771   5.638  10.496 -1.6711  0.3781  2.8692
  184SLPC    HB21105   5.783   5.472  10.456  0.3173 -0.0751 -1.6270
  184SLPC    C221106   5.615   5.581  10.350 -0.7538 -0.6550  0.2080
  184SLPC    HS21107   5.552   5.664  10.388 -0.2470 -1.0012  1.8917
  184SLPC   O2121108   5.539   5.468  10.324 -0.4757 -0.3723 -0.0768
  184SLPC   C2121109   5.418   5.485  10.285 -0.6214  0.9299 -0.2141
  184SLPC   O2221110   5.345   5.581  10.294 -0.3761 -0.4326 -0.9433
  184SLPC   C2221111   5.374   5.347  10.230  0.5257 -0.4143 -0.1253
  184SLPC   H2R21112   5.459   5.303  10.174  0.3786 -0.9693  0.0824
  184SLPC   H2S21113   5.362   5.283  10.320  1.0066  0.1586  0.3548
  184SLPC    C321114   5.703   5.616  10.230  0.7773 -0.0947 -1.0706
  184SLPC    HX21115   5.756   5.526  10.192 -0.3031 -0.9281 -0.6400
  184SLPC    HY21116   5.786   5.683  10.263  1.7948 -0.5337 -2.6381
  184SLPC   O3121117   5.615   5.658  10.127  0.1024  0.3050 -0.6412
  184SLPC   C3121118   5.609   5.792  10.119 -0.5198  0.3393 -0.5019
  184SLPC   O3221119   5.660   5.875  10.197  0.4860 -0.2936 -0.3675
  184SLPC   C3221120   5.548   5.820   9.984  0.1635 -0.0750  0.1037
  184SLPC   H2X21121   5.469   5.894  10.007  2.2139  2.2644  0.1366
  184SLPC   H2Y21122   5.498   5.727   9.948  1.6846 -1.1865  0.7185
  184SLPC   C2321123   5.247   5.358  10.138 -0.3095  0.0151 -0.9990
  184SLPC   H3R21124   5.267   5.402  10.039  0.1929 -0.5657 -1.1624
  184SLPC   H3S21125   5.167   5.422  10.180 -1.4132 -2.0295  0.2075
  184SLPC   C2421126   5.188   5.218  10.114 -0.2622  0.8139  0.1991
  184SLPC   H4R21127   5.092   5.229  10.060 -0.0328 -1.0315 -0.6623
  184SLPC   H4S21128   5.166   5.174  10.213  1.5662 -0.5442  0.0615
  184SLPC   C2521129   5.287   5.126  10.031  0.1850  0.2307  0.7026
  184SLPC   H5R21130   5.353   5.061  10.092  2.6407  1.3780 -0.6072
  184SLPC   H5S21131   5.351   5.195   9.972  1.1374  0.4688  1.9864
  184SLPC   C2621132   5.213   5.033   9.924  0.3135  0.6412  0.2686
  184SLPC   H6R21133   5.164   5.093   9.844 -0.5427  0.1441  0.4065
  184SLPC   H6S21134   5.137   4.978   9.984  0.0640  1.8511  1.1076
  184SLPC   C2721135   5.317   4.945   9.851 -0.6871 -0.3032  0.1028
  184SLPC   H7R21136   5.375   4.902   9.935 -2.4862 -0.7875  1.1708
  184SLPC   H7S21137   5.382   5.008   9.787 -0.1190  1.0920  1.9831
  184SLPC   C2821138   5.255   4.828   9.776  0.1112  0.0099 -0.3301
  184SLPC   H8R21139   5.191   4.767   9.843  1.2685 -1.6102 -0.6359
  184SLPC   H8S21140   5.337   4.762   9.742 -0.6181 -0.8904 -0.3664
  184SLPC   C2921141   5.201   4.879   9.643  0.5479  0.3053 -1.0208
  184SLPC   H9R21142   5.273   4.947   9.594  0.4209  1.9751  0.9612
  184SLPC  C21021143   5.081   4.844   9.587 -0.0027 -0.4315 -1.2094
  184SLPC  H10R21144   5.057   4.889   9.490  0.6815  0.6412 -0.9029
  184SLPC  C21121145   4.979   4.753   9.648  0.7172 -0.1576  0.2964
  184SLPC  H11R21146   4.878   4.792   9.622  1.7495  1.5535 -1.4210
  184SLPC  H11S21147   4.973   4.759   9.759 -0.7947 -1.4576  0.3297
  184SLPC  C21221148   5.002   4.606   9.628  1.0932  0.5666  0.6954
  184SLPC  H12R21149   5.066   4.585   9.541  1.5962 -1.5533  1.5384
  184SLPC  C21321150   4.930   4.500   9.678 -0.1422 -1.0511 -0.1342
  184SLPC  H13R21151   4.953   4.398   9.643 -1.6612 -1.6125  0.4207
  184SLPC  C21421152   4.820   4.507   9.780  0.1431  0.1141 -0.0288
  184SLPC  H14R21153   4.730   4.451   9.745  0.9961 -0.0630 -2.1001
  184SLPC  H14S21154   4.775   4.608   9.793 -1.7518 -0.7963  0.9393
  184SLPC  C21521155   4.863   4.450   9.911 -0.3412  0.4335 -0.0383
  184SLPC  H15R21156   4.934   4.522   9.957  2.3181 -0.9756 -1.7540
  184SLPC  H15S21157   4.909   4.349   9.907 -2.0827 -0.3615 -1.1093
  184SLPC  C21621158   4.748   4.448  10.015 -0.1050  0.2364  1.0934
  184SLPC  H16R21159   4.673   4.373   9.983  1.2370  0.1058 -2.0803
  184SLPC  H16S21160   4.695   4.545  10.007  0.0727  0.2802  0.4167
  184SLPC  C21721161   4.797   4.431  10.157 -0.2851 -0.6179  0.3643
  184SLPC  H17R21162   4.880   4.500  10.183 -0.0372 -0.4717 -0.7823
  184SLPC  H17S21163   4.857   4.337  10.162  1.1466  0.2726  0.5563
  184SLPC  C21821164   4.686   4.446  10.261 -0.0118  0.4692 -0.0901
  184SLPC  H18R21165   4.728   4.398  10.352  0.6960 -1.5720 -1.4197
  184SLPC  H18S21166   4.604   4.377  10.232 -0.4757  0.2911  1.5362
  184SLPC  H18T21167   4.671   4.555  10.279  1.5657  0.7438 -0.3135
  184SLPC   C3321168   5.656   5.866   9.885 -0.5322 -0.8249 -0.1146
  184SLPC   H3X21169   5.732   5.785   9.874 -1.1529 -1.0582 -3.9527
  184SLPC   H3Y21170   5.705   5.960   9.919  0.6002 -1.2596 -0.4827
  184SLPC   C3421171   5.600   5.883   9.741  0.2281  0.5007 -0.1160
  184SLPC   H4X21172   5.678   5.937   9.684 -0.1815  3.0992  1.6459
  184SLPC   H4Y21173   5.513   5.952   9.741 -0.9825 -0.9693  0.6357
  184SLPC   C3521174   5.555   5.761   9.665 -0.1014 -0.6436  0.4403
  184SLPC   H5X21175   5.481   5.702   9.722 -0.0276 -1.6634 -0.5044
  184SLPC   H5Y21176   5.645   5.695   9.660  0.1181 -0.5059  2.0117
  184SLPC   C3621177   5.510   5.793   9.522  0.3290  0.7225  0.3568
  184SLPC   H6X21178   5.417   5.853   9.535  0.8652  2.0983 -1.6493
  184SLPC   H6Y21179   5.487   5.694   9.477  2.0476 -0.5261  2.0832
  184SLPC   C3721180   5.607   5.881   9.444  0.4782  0.2133 -0.0294
  184SLPC   H7X21181   5.707   5.840   9.469  1.0142  2.0151  0.9849
  184SLPC   H7Y21182   5.610   5.989   9.472  2.0335 -0.1402  1.3631
  184SLPC   C3821183   5.592   5.875   9.291 -0.2270  0.0762  0.1384
  184SLPC   H8X21184   5.596   5.764   9.278  1.0155 -0.2653  2.7462
  184SLPC   H8Y21185   5.680   5.927   9.247 -2.0019  1.7745 -1.6273
  184SLPC   C3921186   5.459   5.931   9.237 -0.6582 -0.5734 -1.1007
  184SLPC   H9X21187   5.477   6.040   9.255  1.5770 -0.9938 -0.4392
  184SLPC   H9Y21188   5.376   5.896   9.302 -0.3864 -2.1372 -1.5684
  184SLPC  C31021189   5.431   5.908   9.088 -0.0562 -0.6216 -0.5004
  184SLPC  H10X21190   5.528   5.935   9.041  0.1564  0.0214  0.2858
  184SLPC  H10Y21191   5.357   5.984   9.055  0.2878 -0.0762 -0.0466
  184SLPC  C31121192   5.384   5.764   9.052 -1.0385  0.3275  0.7853
  184SLPC  H11X21193   5.277   5.744   9.077 -0.7649 -0.6529  1.2143
  184SLPC  H11Y21194   5.437   5.684   9.107  0.8748 -1.0186 -2.6727
  184SLPC  C31221195   5.415   5.735   8.909 -0.4536 -0.0465  0.0082
  184SLPC  H12X21196   5.407   5.627   8.885 -1.4865  0.1815 -0.7500
  184SLPC  H12Y21197   5.523   5.760   8.897 -0.4636 -0.0020  0.0112
  184SLPC  C31321198   5.341   5.821   8.809  0.0034  0.0309 -0.0596
  184SLPC  H13X21199   5.365   5.781   8.708 -1.8949  0.6129 -0.7819
  184SLPC  H13Y21200   5.378   5.926   8.813  1.0083 -0.1330 -2.6994
  184SLPC  C31421201   5.187   5.812   8.822  0.3329 -0.2434 -0.0616
  184SLPC  H14X21202   5.149   5.892   8.755 -0.6995 -0.2438  0.4981
  184SLPC  H14Y21203   5.154   5.845   8.923 -0.1126 -0.6812 -0.0658
  184SLPC  C31521204   5.133   5.671   8.775 -0.2049 -0.3636  0.0450
  184SLPC  H15X21205   5.032   5.666   8.822 -0.0756 -0.1797  0.3451
  184SLPC  H15Y21206   5.203   5.592   8.810  0.3602 -0.6924 -1.7211
  184SLPC  C31621207   5.124   5.651   8.620  0.0178 -0.0567 -0.4184
  184SLPC  H16X21208   5.215   5.682   8.565  0.8988 -1.7352  0.0329
  184SLPC  H16Y21209   5.039   5.712   8.583  0.1781  0.1863 -0.3855
  184SLPC  C31721210   5.086   5.503   8.594  0.5098 -0.1940  0.8043
  184SLPC  H17X21211   4.979   5.491   8.621 -0.6407  4.0450 -0.9761
  184SLPC  H17Y21212   5.156   5.436   8.649  1.7739  0.1210 -0.3549
  184SLPC  C31821213   5.080   5.478   8.440 -0.6388  0.3155  0.4727
  184SLPC  H18X21214   5.064   5.373   8.407 -1.5460  1.2390 -2.3012
  184SLPC  H18Y21215   5.174   5.515   8.394  0.5156 -2.5115  0.3473
  184SLPC  H18Z21216   4.992   5.531   8.398 -0.2615  1.9196  1.6011
  185SLPC     N21217   3.219   6.496   5.993 -0.6179 -0.5306  0.0825
  185SLPC   C1321218   3.174   6.640   5.995  0.2146  0.4672  0.2563
  185SLPC  H13A21219   3.082   6.650   6.051 -0.8994  1.4091 -1.6237
  185SLPC  H13B21220   3.248   6.698   6.048  2.3320  0.2576 -2.2638
  185SLPC  H13C21221   3.168   6.682   5.896 -1.7182  1.6443  0.8206
  185SLPC   C1421222   3.350   6.495   5.909  0.2625  0.0090  0.0780
  185SLPC  H14A21223   3.426   6.555   5.955  0.2639  0.7015 -0.7936
  185SLPC  H14B21224   3.395   6.397   5.909  1.6596  0.6060  1.7539
  185SLPC  H14C21225   3.338   6.536   5.809 -0.3821  1.7470  0.8328
  185SLPC   C1521226   3.117   6.415   5.922  0.5043  0.0131  0.1659
  185SLPC  H15A21227   3.138   6.309   5.919 -1.3616 -0.3634 -1.0926
  185SLPC  H15B21228   3.023   6.423   5.974 -0.3132 -1.3012 -1.0410
  185SLPC  H15C21229   3.098   6.458   5.825 -0.9655  1.0334  0.8574
  185SLPC   C1221230   3.234   6.445   6.133 -0.8337 -0.1438 -0.3181
  185SLPC  H12A21231   3.257   6.339   6.128 -1.3914 -0.2380 -1.1489
  185SLPC  H12B21232   3.140   6.454   6.185  0.9577 -1.0528  3.4048
  185SLPC   C1121233   3.333   6.516   6.228 -0.3194 -0.0019  0.3974
  185SLPC  H11A21234   3.326   6.461   6.324  1.5969  1.2689  1.3185
  185SLPC  H11B21235   3.298   6.621   6.244 -1.3240 -0.0408 -1.2450
  185SLPC     P21236   3.574   6.416   6.231  0.2281 -0.1407  0.0779
  185SLPC   O1321237   3.544   6.275   6.190 -0.3987 -0.4526  0.3735
  185SLPC   O1421238   3.712   6.467   6.196  0.5751 -0.0236 -0.5838
  185SLPC   O1221239   3.467   6.515   6.174  0.1361 -0.4390 -0.7142
  185SLPC   O1121240   3.550   6.428   6.388 -0.0138  0.0173 -0.3104
  185SLPC    C121241   3.639   6.498   6.475 -0.7559  0.2114  0.3151
  185SLPC    HA21242   3.711   6.566   6.424 -1.5186  1.3699  0.7363
  185SLPC    HB21243   3.573   6.560   6.539  0.5222  0.6807  1.2191
  185SLPC    C221244   3.733   6.398   6.560 -0.2594  0.4517  0.0718
  185SLPC    HS21245   3.780   6.345   6.474 -0.8196  1.1519 -0.6861
  185SLPC   O2121246   3.650   6.310   6.639 -0.0081  0.0850 -0.9624
  185SLPC   C2121247   3.709   6.196   6.683  0.1358 -0.5390 -0.5184
  185SLPC   O2221248   3.827   6.164   6.674  0.4436  0.0640 -0.0014
  185SLPC   C2221249   3.614   6.109   6.755 -0.4277 -0.2724  0.6750
  185SLPC   H2R21250   3.559   6.171   6.828  0.1072  1.6557 -0.5020
  185SLPC   H2S21251   3.537   6.072   6.683 -0.8192 -0.1400  1.0220
  185SLPC    C321252   3.844   6.475   6.635  0.1831  0.3429  0.3124
  185SLPC    HX21253   3.902   6.521   6.552 -1.2186  1.2637 -0.1900
  185SLPC    HY21254   3.912   6.406   6.690  1.8462  0.4211 -1.5612
  185SLPC   O3121255   3.793   6.576   6.724  0.5928 -0.3599  0.0817
  185SLPC   C3121256   3.857   6.697   6.719 -0.1811 -0.0537 -0.2483
  185SLPC   O3221257   3.936   6.727   6.634 -0.9398 -0.4373  0.4221
  185SLPC   C3221258   3.831   6.782   6.840 -0.2263 -0.2393 -0.3449
  185SLPC   H2X21259   3.726   6.774   6.875 -0.5665  1.2599 -0.9730
  185SLPC   H2Y21260   3.855   6.886   6.811 -2.0085  0.0014 -1.1210
  185SLPC   C2321261   3.680   5.996   6.824 -0.5232  0.4900 -0.3003
  185SLPC   H3R21262   3.767   6.033   6.884 -2.0900  2.9850  0.5819
  185SLPC   H3S21263   3.719   5.925   6.748 -3.3478 -0.7645 -0.7230
  185SLPC   C2421264   3.580   5.912   6.910  0.1016 -0.9511  0.4184
  185SLPC   H4R21265   3.518   5.855   6.838 -0.6825  0.1747  0.1879
  185SLPC   H4S21266   3.517   5.984   6.965  1.8366  1.3022 -0.3795
  185SLPC   C2521267   3.647   5.826   7.021  1.2024  0.4881  0.2332
  185SLPC   H5R21268   3.711   5.747   6.974  1.5430  0.2413  1.0992
  185SLPC   H5S21269   3.560   5.769   7.058  1.6066 -1.9945 -2.2586
  185SLPC   C2621270   3.727   5.894   7.133 -0.0636  0.0377  0.3335
  185SLPC   H6R21271   3.670   5.976   7.182  0.7721  0.2597  0.9563
  185SLPC   H6S21272   3.811   5.944   7.080 -1.7411  0.4873 -2.0973
  185SLPC   C2721273   3.782   5.796   7.237  0.1075  0.2581 -0.0464
  185SLPC   H7R21274   3.865   5.743   7.186  1.4477  0.3865  1.8901
  185SLPC   H7S21275   3.703   5.723   7.263 -0.0671  0.4982  0.1093
  185SLPC   C2821276   3.847   5.871   7.361 -0.3774  0.4890  0.4221
  185SLPC   H8R21277   3.900   5.961   7.323 -1.0273  0.4450 -0.5980
  185SLPC   H8S21278   3.917   5.793   7.399 -0.5126 -0.6103 -1.4813
  185SLPC   C2921279   3.728   5.903   7.458  0.1716 -0.5871  0.6067
  185SLPC   H9R21280   3.643   5.958   7.416  1.3073  0.4120 -0.4846
  185SLPC  C21021281   3.726   5.887   7.592 -0.1739  0.1040  0.1126
  185SLPC  H10R21282   3.629   5.916   7.634 -0.1951 -0.0185  0.1493
  185SLPC  C21121283   3.842   5.838   7.677  0.0573 -0.3729 -0.4494
  185SLPC  H11R21284   3.900   5.928   7.706  1.5961 -1.6365  0.5661
  185SLPC  H11S21285   3.918   5.775   7.626  0.3438  1.4913 -2.4823
  185SLPC  C21221286   3.779   5.763   7.791 -0.8150 -0.1187  0.1884
  185SLPC  H12R21287   3.679   5.720   7.774 -0.2750 -0.4656 -2.4728
  185SLPC  C21321288   3.836   5.742   7.912 -0.0132 -0.5506 -0.5148
  185SLPC  H13R21289   3.779   5.697   7.996  0.6653 -0.1324  0.1842
  185SLPC  C21421290   3.969   5.790   7.947 -0.2652  0.3098 -0.2391
  185SLPC  H14R21291   4.034   5.802   7.858 -0.1096 -2.9987 -0.6936
  185SLPC  H14S21292   4.027   5.724   8.015  1.4218 -0.1005 -2.0202
  185SLPC  C21521293   3.969   5.924   8.022 -0.0614  0.0076  0.4422
  185SLPC  H15R21294   3.922   5.984   7.942  1.0011 -1.4549 -1.3608
  185SLPC  H15S21295   4.074   5.958   8.028  0.2228 -0.7579 -0.1115
  185SLPC  C21621296   3.902   5.920   8.158 -0.3764 -0.7293  0.1711
  185SLPC  H16R21297   3.952   5.840   8.218 -0.7175 -0.2185  1.1543
  185SLPC  H16S21298   3.794   5.896   8.146 -0.3936  0.3696 -2.5061
  185SLPC  C21721299   3.918   6.050   8.237 -0.1078  0.1780 -0.3415
  185SLPC  H17R21300   3.905   6.138   8.170  1.4407  2.0001  1.6101
  185SLPC  H17S21301   4.024   6.057   8.267  0.7766 -0.0581 -3.1050
  185SLPC  C21821302   3.836   6.066   8.368  1.1162  0.7508  0.4031
  185SLPC  H18R21303   3.849   6.165   8.417 -0.3746  1.6426 -0.9143
  185SLPC  H18S21304   3.864   5.988   8.442  0.5484 -0.8473 -0.9923
  185SLPC  H18T21305   3.728   6.071   8.343  1.9128  0.8209 -3.7051
  185SLPC   C3321306   3.914   6.730   6.956  0.3065  0.5504 -0.3129
  185SLPC   H3X21307   4.022   6.753   6.938 -0.1078  1.7330 -1.3807
  185SLPC   H3Y21308   3.909   6.619   6.963  0.3121  0.5987  0.6824
  185SLPC   C3421309   3.866   6.797   7.083 -0.3543 -0.0729  0.3861
  185SLPC   H4X21310   3.758   6.783   7.103 -0.5962  0.2683 -0.6049
  185SLPC   H4Y21311   3.862   6.907   7.067 -0.0232 -0.1424 -0.1981
  185SLPC   C3521312   3.949   6.754   7.210  0.8918  0.4659  0.0357
  185SLPC   H5X21313   4.049   6.803   7.206  1.2614 -0.2773 -0.0054
  185SLPC   H5Y21314   3.960   6.645   7.192 -0.1070  0.0150  1.8870
  185SLPC   C3621315   3.880   6.775   7.346  0.0974 -0.3505 -0.3197
  185SLPC   H6X21316   3.770   6.755   7.340 -0.2227  1.2614 -0.1955
  185SLPC   H6Y21317   3.882   6.885   7.359 -1.7565 -0.3323  0.0827
  185SLPC   C3721318   3.930   6.704   7.475  0.2373 -0.3837  0.2648
  185SLPC   H7X21319   4.038   6.725   7.487  0.0480  1.2901 -0.6640
  185SLPC   H7Y21320   3.926   6.594   7.464 -1.3919 -0.2224 -1.2195
  185SLPC   C3821321   3.843   6.743   7.596  0.4436 -0.2676  0.6444
  185SLPC   H8X21322   3.737   6.735   7.566  1.0402  0.2221 -1.8026
  185SLPC   H8Y21323   3.866   6.847   7.628 -0.2954 -0.1936  0.9574
  185SLPC   C3921324   3.864   6.669   7.727  0.1046 -0.5199 -0.2649
  185SLPC   H9X21325   3.974   6.655   7.739 -0.3263 -3.7329  0.6401
  185SLPC   H9Y21326   3.817   6.569   7.718 -1.2202 -0.0544  1.1325
  185SLPC  C31021327   3.805   6.744   7.854  0.3027 -0.8294 -0.3292
  185SLPC  H10X21328   3.705   6.789   7.837  0.3649 -0.1840  0.9091
  185SLPC  H10Y21329   3.866   6.828   7.893 -0.4942  0.3063 -1.4760
  185SLPC  C31121330   3.777   6.650   7.971  0.5392  0.3082  0.0373
  185SLPC  H11X21331   3.704   6.575   7.934  1.8526 -0.4008 -1.2543
  185SLPC  H11Y21332   3.729   6.705   8.055 -0.2696 -1.8552  1.0483
  185SLPC  C31221333   3.900   6.564   8.021 -0.1634  0.5564 -0.0190
  185SLPC  H12X21334   3.970   6.634   8.073  1.3456  0.1772 -1.4344
  185SLPC  H12Y21335   3.955   6.524   7.933 -1.4215  2.6940 -1.8853
  185SLPC  C31321336   3.877   6.454   8.125  0.2615 -1.1617  0.2601
  185SLPC  H13X21337   3.976   6.417   8.158  1.8374  2.7059  0.3388
  185SLPC  H13Y21338   3.823   6.375   8.068  4.3859 -1.6847 -3.5191
  185SLPC  C31421339   3.795   6.499   8.247  0.3050 -0.4776 -0.2731
  185SLPC  H14X21340   3.785   6.414   8.317  2.8250 -0.2794  0.4183
  185SLPC  H14Y21341   3.690   6.518   8.215 -0.3319 -0.6350  1.6238
  185SLPC  C31521342   3.849   6.631   8.310  0.5012 -0.1699  0.2001
  185SLPC  H15X21343   3.779   6.639   8.396  1.4627 -0.4711  1.0294
  185SLPC  H15Y21344   3.825   6.726   8.259 -4.1169 -0.7090  0.9254
  185SLPC  C31621345   3.985   6.621   8.358  0.0722  0.6063 -0.0825
  185SLPC  H16X21346   4.061   6.595   8.281  1.6635 -0.9547  1.9172
  185SLPC  H16Y21347   3.993   6.533   8.426 -0.6236  0.4211 -0.2329
  185SLPC  C31721348   4.034   6.733   8.440 -0.4937 -0.0973  0.0596
  185SLPC  H17X21349   4.026   6.837   8.402 -0.0550 -0.0394  0.1258
  185SLPC  H17Y21350   4.142   6.715   8.456 -0.2503  0.2443 -1.1085
  185SLPC  C31821351   3.978   6.733   8.579  0.6197 -0.0105 -0.3233
  185SLPC  H18X21352   3.984   6.630   8.621 -1.7846  0.2552  0.8337
  185SLPC  H18Y21353   3.869   6.753   8.566  0.7584 -0.3116 -2.3182
  185SLPC  H18Z21354   4.022   6.805   8.650 -0.4159  0.0419  0.2919
  186SLPC     N21355   2.323   4.033   6.010 -1.0785  0.0576  0.8769
  186SLPC   C1321356   2.456   3.965   6.031 -0.6399  0.4786 -0.5796
  186SLPC  H13A21357   2.435   3.859   6.038 -1.1781  0.6745  1.1946
  186SLPC  H13B21358   2.529   3.989   5.955  1.6798  1.8403  1.9018
  186SLPC  H13C21359   2.488   3.980   6.134 -1.7655  1.0543 -0.3010
  186SLPC   C1421360   2.248   3.965   5.903  0.7519  1.4661  0.0897
  186SLPC  H14A21361   2.145   3.996   5.914  0.1802 -0.7380  1.5441
  186SLPC  H14B21362   2.269   3.985   5.798  0.8797 -0.5412 -0.3144
  186SLPC  H14C21363   2.266   3.860   5.916 -0.8153  1.3707  1.7578
  186SLPC   C1521364   2.363   4.168   5.964  0.3816  0.2074  0.3252
  186SLPC  H15A21365   2.290   4.223   5.906  0.9263 -0.2167 -0.7933
  186SLPC  H15B21366   2.396   4.234   6.042  0.8681 -0.0457  0.3337
  186SLPC  H15C21367   2.448   4.157   5.898  3.2843  0.3676  3.7755
  186SLPC   C1221368   2.244   4.044   6.138  0.8061  0.4631  0.0836
  186SLPC  H12A21369   2.199   3.949   6.163 -1.1349  1.3628  0.2113
  186SLPC  H12B21370   2.162   4.110   6.115  0.6014 -0.5924 -2.5756
  186SLPC   C1121371   2.318   4.114   6.260 -0.5044 -0.0854 -0.1182
  186SLPC  H11A21372   2.416   4.069   6.288 -0.1233  0.5660 -0.3783
  186SLPC  H11B21373   2.249   4.113   6.347 -1.7111  1.5758 -0.9929
  186SLPC     P21374   2.246   4.361   6.278 -0.8866 -0.1535 -0.2623
  186SLPC   O1321375   2.311   4.488   6.237  1.0756 -0.9371  0.1867
  186SLPC   O1421376   2.116   4.324   6.218 -0.4089  0.1055  0.2205
  186SLPC   O1221377   2.347   4.246   6.238 -0.0552 -0.2391 -0.1223
  186SLPC   O1121378   2.251   4.358   6.431  0.4187  0.1693  0.6757
  186SLPC    C121379   2.358   4.358   6.522  0.0877  0.4767  0.4303
  186SLPC    HA21380   2.456   4.334   6.474 -1.0473 -0.7060 -1.4153
  186SLPC    HB21381   2.364   4.458   6.571  0.8317  0.7731 -0.2354
  186SLPC    C221382   2.323   4.253   6.633  0.4499 -0.5109  0.4798
  186SLPC    HS21383   2.297   4.163   6.573  0.8615 -0.5796  0.3964
  186SLPC   O2121384   2.219   4.289   6.714 -0.0357 -0.0994  0.7642
  186SLPC   C2121385   2.170   4.194   6.792  0.3038  1.2737  0.1317
  186SLPC   O2221386   2.199   4.077   6.789  0.6403  0.2702  0.0837
  186SLPC   C2221387   2.067   4.247   6.892  0.5878 -0.3773  0.1335
  186SLPC   H2R21388   2.011   4.323   6.834  0.5416  0.4622  1.2396
  186SLPC   H2S21389   1.992   4.167   6.911 -2.0134  1.4062 -1.9813
  186SLPC    C321390   2.446   4.223   6.718  0.1093 -0.0738 -0.3363
  186SLPC    HX21391   2.535   4.221   6.651  1.4817 -0.0609  1.4122
  186SLPC    HY21392   2.438   4.119   6.757  1.5284 -0.1488 -0.1792
  186SLPC   O3121393   2.474   4.328   6.805  0.5406 -0.5440 -0.4786
  186SLPC   C3121394   2.546   4.297   6.919  1.1995 -0.6350  0.7357
  186SLPC   O3221395   2.598   4.191   6.939 -0.3159 -0.2431  0.2853
  186SLPC   C3221396   2.559   4.417   7.014 -0.4738 -0.8216  0.3971
  186SLPC   H2X21397   2.472   4.485   7.009 -1.1258 -1.5537  1.3949
  186SLPC   H2Y21398   2.645   4.483   6.991 -2.5461  1.9962  0.2138
  186SLPC   C2321399   2.136   4.304   7.022  0.4431 -0.3174 -0.0063
  186SLPC   H3R21400   2.068   4.373   7.077  1.1628  1.2939 -1.0814
  186SLPC   H3S21401   2.237   4.348   7.010 -0.7270  2.1438 -1.7411
  186SLPC   C2421402   2.146   4.193   7.126  0.1011 -0.2423  0.0338
  186SLPC   H4R21403   2.211   4.110   7.092  0.2491  0.1659 -0.7197
  186SLPC   H4S21404   2.048   4.145   7.147  0.0777 -1.0502 -1.7397
  186SLPC   C2521405   2.193   4.252   7.259 -0.2065 -0.2793 -0.8252
  186SLPC   H5R21406   2.119   4.333   7.278 -0.1654 -0.0108 -1.7534
  186SLPC   H5S21407   2.297   4.292   7.269  0.2366 -1.6640  0.4240
  186SLPC   C2621408   2.170   4.153   7.375  0.0639  0.0174  0.4768
  186SLPC   H6R21409   2.244   4.072   7.361 -0.6062 -0.7699  1.3278
  186SLPC   H6S21410   2.066   4.112   7.369  0.9565 -2.2840 -0.6571
  186SLPC   C2721411   2.188   4.209   7.522 -0.1024 -0.4742  0.4445
  186SLPC   H7R21412   2.130   4.304   7.532  0.3442 -0.3572  2.3597
  186SLPC   H7S21413   2.296   4.231   7.537  0.1920 -0.0195 -1.9473
  186SLPC   C2821414   2.148   4.103   7.631  0.1521  0.0514  0.7172
  186SLPC   H8R21415   2.195   4.132   7.727  3.4124  2.6733 -1.4538
  186SLPC   H8S21416   2.197   4.007   7.602  2.7183 -0.0235  4.6309
  186SLPC   C2921417   1.995   4.093   7.652  0.2373 -0.6820 -0.0271
  186SLPC   H9R21418   1.942   4.110   7.557  0.0522 -0.9909  0.0230
  186SLPC  C21021419   1.928   4.075   7.770  0.2745  0.0297  0.0859
  186SLPC  H10R21420   1.819   4.065   7.757  0.2575  1.5222 -1.1906
  186SLPC  C21121421   1.974   4.056   7.910  0.0946  0.2192  0.2433
  186SLPC  H11R21422   2.079   4.020   7.910  0.1396  0.3273 -0.5265
  186SLPC  H11S21423   1.913   3.972   7.950 -2.3463  1.5479 -0.4438
  186SLPC  C21221424   1.948   4.185   7.990 -0.0037 -0.1081  0.3309
  186SLPC  H12R21425   1.929   4.276   7.932  2.0151  0.3398  0.3144
  186SLPC  C21321426   1.945   4.198   8.126 -0.1552  0.4040  0.7227
  186SLPC  H13R21427   1.936   4.302   8.160 -0.2783  0.2743  1.0960
  186SLPC  C21421428   1.964   4.091   8.228  0.0221  1.4843 -0.1786
  186SLPC  H14R21429   2.063   4.104   8.277  0.0473  1.3528 -0.1953
  186SLPC  H14S21430   1.954   3.985   8.195  0.5879  1.4914 -0.3868
  186SLPC  C21521431   1.854   4.115   8.331 -0.5269 -0.0291 -0.0937
  186SLPC  H15R21432   1.756   4.087   8.286  0.2877 -1.7897 -0.8551
  186SLPC  H15S21433   1.866   4.218   8.370 -0.3635 -0.7371  1.8167
  186SLPC  C21621434   1.872   4.019   8.452 -0.1060  0.0991 -0.0972
  186SLPC  H16R21435   1.794   4.054   8.522  0.0371  0.9943 -0.3706
  186SLPC  H16S21436   1.971   4.027   8.502 -0.6298 -1.9560  1.3547
  186SLPC  C21721437   1.840   3.871   8.414 -0.2411 -0.4611  0.7143
  186SLPC  H17R21438   1.923   3.832   8.352  0.5480  0.4231  1.1835
  186SLPC  H17S21439   1.748   3.858   8.354  1.4924  0.2778 -2.3190
  186SLPC  C21821440   1.825   3.779   8.542  0.3795  0.7953  0.7189
  186SLPC  H18R21441   1.918   3.791   8.602  1.4748  4.7122 -1.4132
  186SLPC  H18S21442   1.802   3.676   8.508  0.1577  0.4569  1.8321
  186SLPC  H18T21443   1.735   3.804   8.602 -1.9846 -0.3656 -2.1273
  186SLPC   C3321444   2.563   4.363   7.166  0.4360  0.0761  0.4458
  186SLPC   H3X21445   2.495   4.276   7.175  0.2503  0.2210  0.4671
  186SLPC   H3Y21446   2.528   4.440   7.237 -0.3580  2.1747 -2.0454
  186SLPC   C3421447   2.710   4.335   7.207  0.7204 -0.3590 -0.3630
  186SLPC   H4X21448   2.770   4.428   7.213 -0.6614  0.6326 -1.0335
  186SLPC   H4Y21449   2.756   4.273   7.127 -2.8354 -1.5590 -1.6690
  186SLPC   C3521450   2.720   4.269   7.350 -0.5076 -0.3036  0.0008
  186SLPC   H5X21451   2.659   4.176   7.347 -1.0698  0.0604  0.0400
  186SLPC   H5Y21452   2.680   4.340   7.425  0.7397  0.2290  0.1851
  186SLPC   C3621453   2.864   4.237   7.399 -0.8085  0.0067 -0.6145
  186SLPC   H6X21454   2.910   4.333   7.367 -0.2563  0.6613  1.9339
  186SLPC   H6Y21455   2.899   4.148   7.341  3.6969  1.1258 -0.0306
  186SLPC   C3721456   2.880   4.238   7.553  0.2494 -0.5828  0.6579
  186SLPC   H7X21457   2.903   4.340   7.590 -0.9811 -1.0134  2.7652
  186SLPC   H7Y21458   2.969   4.172   7.566 -0.9135 -2.2369  0.5899
  186SLPC   C3821459   2.764   4.181   7.637 -0.4301 -0.0589 -0.3763
  186SLPC   H8X21460   2.726   4.087   7.592  0.7194 -0.5411 -0.3717
  186SLPC   H8Y21461   2.682   4.256   7.630 -1.9490 -1.6268 -0.0330
  186SLPC   C3921462   2.814   4.170   7.782  1.1024 -1.0203 -0.4829
  186SLPC   H9X21463   2.885   4.253   7.804 -0.5278  0.0888  0.8259
  186SLPC   H9Y21464   2.872   4.077   7.802  0.0544 -1.3885  1.0067
  186SLPC  C31021465   2.699   4.178   7.886  0.1047 -0.0454 -0.0700
  186SLPC  H10X21466   2.638   4.270   7.876 -0.0281  0.0574  1.4689
  186SLPC  H10Y21467   2.746   4.191   7.986  1.6984 -0.5740 -0.7203
  186SLPC  C31121468   2.607   4.059   7.901  0.2808 -0.2688  0.0119
  186SLPC  H11X21469   2.674   3.971   7.914 -0.5554 -0.9282 -0.0628
  186SLPC  H11Y21470   2.549   4.060   7.806 -0.3648 -0.8817  0.3884
  186SLPC  C31221471   2.518   4.075   8.029 -0.0340 -0.4593  1.1418
  186SLPC  H12X21472   2.437   4.146   8.001  0.3129 -0.5714 -0.1893
  186SLPC  H12Y21473   2.580   4.123   8.108  0.2570  1.8204 -0.3908
  186SLPC  C31321474   2.451   3.945   8.074 -0.5465 -0.0919 -0.4665
  186SLPC  H13X21475   2.531   3.871   8.092  0.7219  1.5151  0.8199
  186SLPC  H13Y21476   2.392   3.909   7.987 -0.5246 -1.0993 -0.0762
  186SLPC  C31421477   2.351   3.944   8.191  0.4213 -0.5449 -0.3297
  186SLPC  H14X21478   2.321   3.838   8.211 -1.0410  0.0390  0.7697
  186SLPC  H14Y21479   2.262   4.008   8.173  1.9922  1.3809 -1.6018
  186SLPC  C31521480   2.407   4.009   8.311 -0.2622 -0.0358  0.1273
  186SLPC  H15X21481   2.413   4.120   8.302 -0.7087 -0.1156 -1.5321
  186SLPC  H15Y21482   2.507   3.962   8.308  0.0665  0.6144  0.5869
  186SLPC  C31621483   2.342   3.964   8.443 -0.3017 -0.2636  0.4925
  186SLPC  H16X21484   2.337   3.853   8.451  2.1833 -0.3705  1.4307
  186SLPC  H16Y21485   2.237   3.998   8.430 -0.1389 -0.5114 -2.1558
  186SLPC  C31721486   2.412   4.017   8.568 -0.3354  0.3407 -0.5931
  186SLPC  H17X21487   2.439   4.123   8.550 -0.4200  0.2444 -1.3169
  186SLPC  H17Y21488   2.506   3.956   8.572  0.8054  2.0724  0.3527
  186SLPC  C31821489   2.330   4.012   8.692 -0.1785  0.7036  0.2687
  186SLPC  H18X21490   2.329   3.909   8.733  2.5781  1.3568  2.3279
  186SLPC  H18Y21491   2.227   4.041   8.664 -0.8688  0.2625  2.1554
  186SLPC  H18Z21492   2.351   4.082   8.776  0.3728  0.6356  0.1929
  187SLPC     N21493   4.282   6.247   6.103  0.2060 -1.1566 -0.0570
  187SLPC   C1321494   4.173   6.140   6.121 -0.3530 -0.0082  0.9491
  187SLPC  H13A21495   4.223   6.045   6.127 -0.0203  0.2221  2.2790
  187SLPC  H13B21496   4.104   6.154   6.204 -1.2950 -0.5648  0.2735
  187SLPC  H13C21497   4.111   6.142   6.033  0.0616 -0.4766  0.6475
  187SLPC   C1421498   4.208   6.378   6.060 -0.6070  0.4522 -0.1136
  187SLPC  H14A21499   4.283   6.455   6.073  1.5768 -1.7855  1.5178
  187SLPC  H14B21500   4.160   6.364   5.964  0.7654 -1.8610 -0.5340
  187SLPC  H14C21501   4.132   6.410   6.131 -1.4316  0.1846 -0.8557
  187SLPC   C1521502   4.382   6.204   6.001 -0.4504 -0.2779  0.1276
  187SLPC  H15A21503   4.448   6.120   6.020  0.9380  0.9692  1.0685
  187SLPC  H15B21504   4.341   6.177   5.905 -0.3003 -0.4256  0.1043
  187SLPC  H15C21505   4.456   6.282   5.992 -2.7120  2.1571  1.1971
  187SLPC   C1221506   4.346   6.279   6.233 -0.3503 -0.1494  0.4377
  187SLPC  H12A21507   4.270   6.328   6.292 -2.7175 -3.1005  0.1135
  187SLPC  H12B21508   4.420   6.355   6.217 -0.6979 -0.2049 -1.6830
  187SLPC   C1121509   4.417   6.164   6.311  0.5666 -0.5431 -0.4111
  187SLPC  H11A21510   4.335   6.093   6.332  0.3009 -0.0875  0.1466
  187SLPC  H11B21511   4.451   6.212   6.406  0.4526 -0.7222 -0.2788
  187SLPC     P21512   4.674   6.113   6.301  0.2402  0.2316 -0.0560
  187SLPC   O1321513   4.765   6.004   6.264  0.1648 -0.2345 -0.0417
  187SLPC   O1421514   4.708   6.249   6.261 -0.0693  0.7552  0.7421
  187SLPC   O1221515   4.522   6.091   6.246 -0.6044  0.4382  0.3255
  187SLPC   O1121516   4.657   6.109   6.456  0.5118  0.2009 -0.3091
  187SLPC    C121517   4.606   5.991   6.522 -0.1468  0.1815 -0.6257
  187SLPC    HA21518   4.556   6.017   6.618 -0.6673 -0.2590 -0.7673
  187SLPC    HB21519   4.521   5.946   6.465  1.1615 -1.1010 -1.6290
  187SLPC    C221520   4.703   5.871   6.552 -0.6087 -0.7624 -1.0691
  187SLPC    HS21521   4.763   5.829   6.469  1.8334  3.2346 -1.5927
  187SLPC   O2121522   4.622   5.780   6.626  0.3725 -0.0575  0.3390
  187SLPC   C2121523   4.541   5.699   6.542  0.4906 -0.3932 -0.7390
  187SLPC   O2221524   4.542   5.700   6.421  0.2494  0.0084 -0.1646
  187SLPC   C2221525   4.440   5.618   6.629  0.1317  0.1195 -0.1816
  187SLPC   H2R21526   4.447   5.645   6.736 -3.5380 -0.2406  0.2718
  187SLPC   H2S21527   4.336   5.641   6.600 -0.0393  1.2397  1.2119
  187SLPC    C321528   4.802   5.930   6.649 -0.4798  0.0162 -0.0079
  187SLPC    HX21529   4.881   5.986   6.596  0.7458 -0.6562  1.0510
  187SLPC    HY21530   4.855   5.845   6.697  0.0229  0.2535 -0.1309
  187SLPC   O3121531   4.741   6.018   6.747  0.2889 -0.1972  0.2983
  187SLPC   C3121532   4.786   6.008   6.872  0.0543  0.0160 -0.5450
  187SLPC   O3221533   4.871   5.935   6.914  0.1983  0.8339 -0.0465
  187SLPC   C3221534   4.718   6.123   6.953  0.1635 -1.0199  0.3561
  187SLPC   H2X21535   4.614   6.140   6.916  1.5213  1.9683 -2.6090
  187SLPC   H2Y21536   4.782   6.213   6.946  1.8804 -2.2061  0.3399
  187SLPC   C2321537   4.461   5.468   6.609  0.7952  0.2344  0.1919
  187SLPC   H3R21538   4.559   5.433   6.646  0.7833 -0.5205 -0.4466
  187SLPC   H3S21539   4.451   5.442   6.501 -0.4000  0.0540  0.3345
  187SLPC   C2421540   4.352   5.386   6.673 -0.1811  0.0078 -0.1771
  187SLPC   H4R21541   4.369   5.279   6.652 -3.4799 -0.5180 -0.7509
  187SLPC   H4S21542   4.254   5.408   6.625 -1.4026  2.0183  2.9239
  187SLPC   C2521543   4.347   5.413   6.825 -0.4998 -0.2592 -0.4543
  187SLPC   H5R21544   4.285   5.502   6.850  2.1288  0.7187  3.5345
  187SLPC   H5S21545   4.448   5.433   6.867 -1.3802 -0.3415  1.7840
  187SLPC   C2621546   4.280   5.297   6.909 -0.0183 -0.9136 -0.4084
  187SLPC   H6R21547   4.335   5.200   6.910  1.0143 -0.3505 -0.4940
  187SLPC   H6S21548   4.179   5.282   6.867 -0.3518  1.4730 -0.5790
  187SLPC   C2721549   4.286   5.338   7.057 -0.5659 -0.8706 -0.7323
  187SLPC   H7R21550   4.264   5.447   7.068  0.0415 -0.8064 -0.0383
  187SLPC   H7S21551   4.391   5.313   7.083 -0.0273  0.4898 -1.5078
  187SLPC   C2821552   4.182   5.274   7.147  1.1240  0.5446 -0.5529
  187SLPC   H8R21553   4.079   5.286   7.106  0.6364 -0.6561  0.2570
  187SLPC   H8S21554   4.176   5.321   7.248  2.3312  2.8007 -1.4635
  187SLPC   C2921555   4.211   5.127   7.154 -0.4650  0.4500 -0.9104
  187SLPC   H9R21556   4.236   5.077   7.059  0.9822 -0.4607 -0.0967
  187SLPC  C21021557   4.228   5.053   7.268  0.1012  0.2799 -0.0176
  187SLPC  H10R21558   4.264   4.949   7.253 -0.7801 -0.1699  0.8993
  187SLPC  C21121559   4.209   5.091   7.410  0.2188 -0.2613 -0.2949
  187SLPC  H11R21560   4.197   4.998   7.470 -0.2045 -1.0211 -1.5213
  187SLPC  H11S21561   4.104   5.124   7.421 -0.2728 -2.2092  1.3998
  187SLPC  C21221562   4.300   5.195   7.471  0.0767  0.2551 -0.0279
  187SLPC  H12R21563   4.358   5.253   7.397 -0.1409  0.6516  0.1119
  187SLPC  C21321564   4.324   5.224   7.604 -1.3019 -0.5564  0.1205
  187SLPC  H13R21565   4.400   5.294   7.642 -0.7008  0.2564 -2.4441
  187SLPC  C21421566   4.246   5.159   7.715  0.1535  0.2176 -0.7595
  187SLPC  H14R21567   4.299   5.066   7.741  1.1031  0.9670  0.0831
  187SLPC  H14S21568   4.140   5.137   7.688  0.7636 -0.5827 -2.6356
  187SLPC  C21521569   4.239   5.242   7.855  0.4596  0.8696  0.8232
  187SLPC  H15R21570   4.158   5.203   7.921 -0.1023  1.5180  0.5266
  187SLPC  H15S21571   4.201   5.343   7.831 -0.3159  0.1424 -1.3306
  187SLPC  C21621572   4.374   5.262   7.933 -0.1378  0.3203 -0.9074
  187SLPC  H16R21573   4.367   5.356   7.991 -0.8879  0.2889 -0.9296
  187SLPC  H16S21574   4.452   5.278   7.856  1.2643  0.7346  0.5592
  187SLPC  C21721575   4.392   5.141   8.035  0.8429  0.0753  0.1530
  187SLPC  H17R21576   4.387   5.040   7.988 -0.2737 -0.8788  2.2050
  187SLPC  H17S21577   4.317   5.143   8.117 -1.9913 -2.1447 -2.1658
  187SLPC  C21821578   4.525   5.151   8.108  0.0079 -0.2643  0.0650
  187SLPC  H18R21579   4.602   5.131   8.031  0.4890 -4.0060  1.3246
  187SLPC  H18S21580   4.537   5.079   8.191  1.1353 -0.8049 -0.5416
  187SLPC  H18T21581   4.540   5.257   8.135 -0.9270 -0.4092  1.2180
  187SLPC   C3321582   4.718   6.087   7.101  0.7688  0.1572 -0.3141
  187SLPC   H3X21583   4.823   6.082   7.134  1.1185 -0.4720 -1.4664
  187SLPC   H3Y21584   4.670   5.989   7.124 -1.0235  1.1176  0.2299
  187SLPC   C3421585   4.634   6.191   7.189  0.0663 -0.3250  0.5072
  187SLPC   H4X21586   4.529   6.194   7.151  0.5558  0.4916 -0.8550
  187SLPC   H4Y21587   4.681   6.289   7.166  1.5178 -1.0406  0.3161
  187SLPC   C3521588   4.641   6.165   7.343  0.5707 -0.1521 -0.4287
  187SLPC   H5X21589   4.600   6.063   7.360  1.4736 -0.0920  2.5453
  187SLPC   H5Y21590   4.581   6.242   7.396  1.0319 -0.3654  0.4227
  187SLPC   C3621591   4.785   6.163   7.396 -0.1353  0.1813 -0.1476
  187SLPC   H6X21592   4.847   6.237   7.342  1.1494 -2.6092 -2.7552
  187SLPC   H6Y21593   4.822   6.062   7.370 -0.1156  0.2670 -0.4492
  187SLPC   C3721594   4.791   6.196   7.541 -0.1161  0.2374 -0.1285
  187SLPC   H7X21595   4.897   6.220   7.563 -0.3974 -0.5380  2.4506
  187SLPC   H7Y21596   4.720   6.279   7.561 -1.3796 -1.0236  0.8336
  187SLPC   C3821597   4.750   6.073   7.644 -0.5502 -0.0724  0.5969
  187SLPC   H8X21598   4.666   6.012   7.603  0.2826 -0.9783  0.1791
  187SLPC   H8Y21599   4.730   6.122   7.741 -0.5278 -0.5993  0.8735
  187SLPC   C3921600   4.869   5.973   7.678 -0.2196 -0.5072 -0.1438
  187SLPC   H9X21601   4.905   5.925   7.585 -0.6730 -2.2622  0.5506
  187SLPC   H9Y21602   4.823   5.904   7.753 -1.5738  0.5147  0.0017
  187SLPC  C31021603   4.992   6.051   7.734 -0.4070  1.4658  0.4658
  187SLPC  H10X21604   4.949   6.125   7.804 -3.9712 -1.0010  1.1202
  187SLPC  H10Y21605   5.051   6.096   7.651  1.8607  1.4912  1.9891
  187SLPC  C31121606   5.089   5.957   7.808  0.1227  0.1326  0.4015
  187SLPC  H11X21607   5.182   6.012   7.835 -0.4307  1.8171 -0.8684
  187SLPC  H11Y21608   5.112   5.876   7.736 -1.3783  0.5312 -0.5731
  187SLPC  C31221609   5.034   5.906   7.943  0.5072 -0.9079 -0.1538
  187SLPC  H12X21610   4.934   5.860   7.927 -0.5457  0.9632  0.6356
  187SLPC  H12Y21611   5.033   5.996   8.008 -0.4840 -1.4708  0.6361
  187SLPC  C31321612   5.137   5.810   8.008  0.8946  0.6036 -0.1803
  187SLPC  H13X21613   5.233   5.866   8.011  0.0300  2.0776  2.1132
  187SLPC  H13Y21614   5.154   5.716   7.950  0.9224 -3.3246  5.3479
  187SLPC  C31421615   5.097   5.768   8.150  0.4609 -0.2096  0.0106
  187SLPC  H14X21616   5.188   5.722   8.194  1.4046  1.3557 -0.2463
  187SLPC  H14Y21617   5.022   5.686   8.149  0.3510 -0.1076 -0.3699
  187SLPC  C31521618   5.047   5.880   8.247 -0.2831 -0.3961  0.7056
  187SLPC  H15X21619   4.987   5.825   8.323 -0.1989 -2.0839 -0.3971
  187SLPC  H15Y21620   4.978   5.957   8.207  0.2791 -0.1198  0.2560
  187SLPC  C31621621   5.165   5.961   8.313  0.2057 -0.0339 -0.1614
  187SLPC  H16X21622   5.217   5.975   8.215 -2.9287 -0.9712 -2.1297
  187SLPC  H16Y21623   5.224   5.891   8.375 -0.4280  0.0125  0.5067
  187SLPC  C31721624   5.127   6.092   8.381  0.0113  0.0736 -0.1814
  187SLPC  H17X21625   5.082   6.167   8.312  2.6161  1.2838 -0.6697
  187SLPC  H17Y21626   5.219   6.140   8.418  0.1099 -0.4298  0.2358
  187SLPC  C31821627   5.021   6.076   8.498  0.5844 -0.3176  0.0310
  187SLPC  H18X21628   5.069   6.026   8.585  2.0324 -0.1370 -0.6345
  187SLPC  H18Y21629   4.929   6.021   8.471  1.0845 -0.1321 -2.2035
  187SLPC  H18Z21630   4.992   6.179   8.529 -0.8542 -0.5642 -0.4492
  188SLPC     N21631   5.880   0.386   6.373  0.2326  0.4308  0.3475
  188SLPC   C1321632   5.783   0.360   6.258 -0.2862 -0.0491  0.2279
  188SLPC  H13A21633   5.841   0.331   6.172  1.7636  1.6195  0.9608
  188SLPC  H13B21634   5.710   0.288   6.291  0.9572 -1.7175 -0.5357
  188SLPC  H13C21635   5.726   0.448   6.231 -3.1922 -1.8048  0.1426
  188SLPC   C1421636   5.794   0.433   6.488  0.3122 -0.4930 -0.9334
  188SLPC  H14A21637   5.727   0.516   6.467  0.8181 -0.2094 -1.4422
  188SLPC  H14B21638   5.749   0.354   6.546  2.1186 -0.0939  1.1136
  188SLPC  H14C21639   5.854   0.482   6.563 -2.2589  1.1929  0.1710
  188SLPC   C1521640   5.975   0.491   6.331  0.0503 -0.6665  0.1052
  188SLPC  H15A21641   5.921   0.582   6.309  1.7085  0.2795 -0.2631
  188SLPC  H15B21642   6.051   0.507   6.406  0.8276  1.6694 -1.0829
  188SLPC  H15C21643   6.021   0.472   6.235 -1.0936  0.7973 -0.7761
  188SLPC   C1221644   5.955   0.259   6.407 -0.0308 -0.6707  0.2503
  188SLPC  H12A21645   6.037   0.245   6.338 -0.6758 -1.4090 -0.3965
  188SLPC  H12B21646   5.897   0.169   6.393  0.2927 -0.4929 -3.0020
  188SLPC   C1121647   6.023   0.253   6.541 -0.8112  0.8511 -0.0415
  188SLPC  H11A21648   6.070   0.153   6.557 -1.9089  0.4053  0.5409
  188SLPC  H11B21649   5.949   0.266   6.622 -0.2292  0.8237  0.5038
  188SLPC     P21650   6.267   0.356   6.487 -0.1814 -0.4632 -0.2237
  188SLPC   O1321651   6.258   0.259   6.374 -0.2069  0.6741  0.2809
  188SLPC   O1421652   6.303   0.496   6.459 -0.5291  0.1935 -0.2860
  188SLPC   O1221653   6.117   0.358   6.554 -0.0987 -0.0093  0.6031
  188SLPC   O1121654   6.357   0.294   6.602 -0.1523  0.3934 -0.8544
  188SLPC    C121655   6.365   0.359   6.734 -0.7961 -0.3958  0.0713
  188SLPC    HA21656   6.466   0.328   6.770  0.7144 -1.1245 -4.1869
  188SLPC    HB21657   6.353   0.468   6.723 -0.8555 -0.2991  1.0371
  188SLPC    C221658   6.277   0.285   6.842 -0.0401 -0.0272  0.0359
  188SLPC    HS21659   6.169   0.294   6.819 -0.0369  0.4293  0.1896
  188SLPC   O2121660   6.312   0.347   6.969  0.0083 -0.4619 -0.3968
  188SLPC   C2121661   6.242   0.460   7.002 -0.3695 -0.2423 -0.1736
  188SLPC   O2221662   6.157   0.508   6.930  0.3920 -0.2566 -0.1559
  188SLPC   C2221663   6.301   0.514   7.124  0.3662  0.3846 -0.3685
  188SLPC   H2R21664   6.307   0.431   7.198  1.8789 -0.0606 -0.9637
  188SLPC   H2S21665   6.400   0.558   7.100  0.3565 -0.3793 -1.9284
  188SLPC    C321666   6.309   0.131   6.835 -0.4219 -0.1083 -0.1363
  188SLPC    HX21667   6.417   0.108   6.824 -1.0852 -4.1899  0.4200
  188SLPC    HY21668   6.262   0.089   6.744 -1.8100 -2.7220  1.6466
  188SLPC   O3121669   6.277   0.060   6.951 -0.2134 -0.2081 -0.1426
  188SLPC   C3121670   6.151   0.009   6.953 -0.3070  0.3162 -0.0280
  188SLPC   O3221671   6.078   0.014   6.857  0.4514  0.6795 -0.4537
  188SLPC   C3221672   6.123  -0.008   7.102  0.4730 -0.2328  0.1863
  188SLPC   H2X21673   6.197  -0.081   7.143  0.3795 -0.4958 -0.1127
  188SLPC   H2Y21674   6.020  -0.043   7.121 -0.9183  3.7065  0.8463
  188SLPC   C2321675   6.222   0.611   7.204  0.2387  0.1767 -0.0916
  188SLPC   H3R21676   6.120   0.570   7.223 -0.0693  0.8379 -0.2625
  188SLPC   H3S21677   6.213   0.708   7.149  0.9369  1.1222  1.3977
  188SLPC   C2421678   6.285   0.655   7.336  0.8702 -0.6269 -0.0484
  188SLPC   H4R21679   6.344   0.748   7.318  0.1075 -0.3056 -0.9670
  188SLPC   H4S21680   6.345   0.571   7.376  1.6468 -0.4941 -0.9150
  188SLPC   C2521681   6.177   0.682   7.441  0.4798 -0.7437 -0.1811
  188SLPC   H5R21682   6.102   0.749   7.393 -0.5322 -2.0972 -0.5442
  188SLPC   H5S21683   6.221   0.729   7.532 -3.1903 -0.4045  1.6062
  188SLPC   C2621684   6.113   0.553   7.505  0.2098 -0.1109  0.0665
  188SLPC   H6R21685   6.184   0.477   7.543 -0.5770 -0.1040  1.6156
  188SLPC   H6S21686   6.040   0.501   7.439 -0.5360 -0.3136  1.0427
  188SLPC   C2721687   6.024   0.596   7.629 -0.0862 -0.1286  0.5277
  188SLPC   H7R21688   5.951   0.521   7.666 -0.4918  0.3398  0.6923
  188SLPC   H7S21689   5.966   0.686   7.598  1.5099  0.2503 -1.5656
  188SLPC   C2821690   6.112   0.619   7.761  0.0386 -0.0308  0.4929
  188SLPC   H8R21691   6.210   0.653   7.722  0.0484  0.5934  1.0551
  188SLPC   H8S21692   6.131   0.519   7.805  1.2397 -0.4451 -0.9003
  188SLPC   C2921693   6.036   0.718   7.848  1.1152 -0.4875  0.6778
  188SLPC   H9R21694   6.031   0.822   7.813 -1.2379 -1.1769 -1.3291
  188SLPC  C21021695   5.984   0.689   7.976  0.2843  0.3037  0.4516
  188SLPC  H10R21696   5.918   0.763   8.023 -0.1410 -0.9724  1.9148
  188SLPC  C21121697   5.986   0.554   8.046  0.3401  0.4356 -1.0875
  188SLPC  H11R21698   6.056   0.563   8.132  1.1548 -1.6547 -1.4666
  188SLPC  H11S21699   6.033   0.472   7.988  1.3725 -0.1799  0.5601
  188SLPC  C21221700   5.847   0.511   8.095 -0.2996 -0.1844  0.8475
  188SLPC  H12R21701   5.768   0.548   8.028 -0.8837 -0.5053  1.3549
  188SLPC  C21321702   5.808   0.448   8.205 -0.7504  1.0260 -0.3619
  188SLPC  H13R21703   5.699   0.444   8.222 -1.4051  0.7617 -3.8453
  188SLPC  C21421704   5.888   0.384   8.312 -0.4359  0.4838 -0.3930
  188SLPC  H14R21705   5.994   0.368   8.284 -0.6805  0.5864 -1.4465
  188SLPC  H14S21706   5.850   0.283   8.336  1.0102  0.0202  0.0444
  188SLPC  C21521707   5.870   0.473   8.437 -0.4219  0.2539 -0.3011
  188SLPC  H15R21708   5.760   0.466   8.455 -0.0105  0.7222  3.0569
  188SLPC  H15S21709   5.887   0.582   8.427  2.6930 -0.3355 -3.1474
  188SLPC  C21621710   5.945   0.427   8.564 -0.4222 -0.0465  0.6615
  188SLPC  H16R21711   6.053   0.420   8.540 -0.6875 -0.4643 -0.4453
  188SLPC  H16S21712   5.898   0.328   8.581  0.1811 -0.3820  0.3923
  188SLPC  C21721713   5.932   0.534   8.674  0.2815 -0.4202  0.4294
  188SLPC  H17R21714   5.825   0.558   8.695  0.8423  2.0937  0.7603
  188SLPC  H17S21715   5.986   0.619   8.628 -0.1032 -0.2542  0.2856
  188SLPC  C21821716   5.992   0.519   8.810  0.5149  0.0266 -0.2951
  188SLPC  H18R21717   6.097   0.484   8.815 -0.1312 -1.8698  1.0308
  188SLPC  H18S21718   5.938   0.447   8.874  3.4121 -0.6433  1.6019
  188SLPC  H18T21719   5.992   0.622   8.853 -0.8729  1.0238 -2.4953
  188SLPC   C3321720   6.130   0.125   7.181  0.3011 -0.7374 -0.0385
  188SLPC   H3X21721   6.053   0.194   7.139  0.7824 -0.9309 -1.2966
  188SLPC   H3Y21722   6.227   0.173   7.157 -0.0528  0.4227  0.7688
  188SLPC   C3421723   6.103   0.100   7.329 -0.2894 -0.4961 -0.3313
  188SLPC   H4X21724   6.004   0.054   7.346 -2.1814  2.0787 -3.1800
  188SLPC   H4Y21725   6.098   0.205   7.364  0.9196  0.3592 -2.4864
  188SLPC   C3521726   6.217   0.018   7.400 -0.1876 -0.2059  0.1450
  188SLPC   H5X21727   6.316   0.050   7.363 -0.3337  1.7829  1.2683
  188SLPC   H5Y21728   6.198  -0.085   7.365 -1.0208  0.3298 -1.0512
  188SLPC   C3621729   6.199   0.014   7.551  0.6388  0.2743 -0.3245
  188SLPC   H6X21730   6.283  -0.047   7.592  1.3159  0.6140 -1.1509
  188SLPC   H6Y21731   6.107  -0.037   7.584 -0.2429  1.5247 -0.7910
  188SLPC   C3721732   6.206   0.141   7.632  0.0359 -0.0662 -0.5163
  188SLPC   H7X21733   6.205   0.231   7.567  0.9385  1.5709  1.6080
  188SLPC   H7Y21734   6.309   0.150   7.673  0.9501 -1.7161 -2.2941
  188SLPC   C3821735   6.100   0.155   7.742  0.4392 -0.0398 -0.6059
  188SLPC   H8X21736   6.000   0.144   7.695  0.0593  0.9808 -0.0684
  188SLPC   H8Y21737   6.101   0.259   7.783  0.1249 -0.5329  0.7062
  188SLPC   C3921738   6.122   0.057   7.855 -0.3214  0.4557 -0.3512
  188SLPC   H9X21739   6.225   0.051   7.896 -0.0041 -3.4425 -1.2798
  188SLPC   H9Y21740   6.099  -0.046   7.818  0.4598  0.7649 -1.8004
  188SLPC  C31021741   6.031   0.082   7.979  0.4697  0.1780  0.3394
  188SLPC  H10X21742   5.925   0.075   7.946 -0.2154  2.5374  1.7910
  188SLPC  H10Y21743   6.038   0.183   8.025 -0.9092 -0.8232  2.9075
  188SLPC  C31121744   6.060  -0.016   8.091  0.0364  0.0379 -0.4265
  188SLPC  H11X21745   6.168  -0.009   8.119  0.0449 -1.6427  0.0876
  188SLPC  H11Y21746   6.047  -0.117   8.048 -2.2899 -1.2477  2.9145
  188SLPC  C31221747   5.978   0.001   8.225  0.6246  0.2989 -0.6039
  188SLPC  H12X21748   5.871  -0.015   8.201  0.2742 -0.2977  1.1886
  188SLPC  H12Y21749   5.997   0.105   8.260 -0.2394  0.0683  0.6125
  188SLPC  C31321750   6.021  -0.086   8.345  0.3968  0.6224  0.5797
  188SLPC  H13X21751   6.113  -0.135   8.307 -1.1599  1.1683 -4.6162
  188SLPC  H13Y21752   5.942  -0.165   8.350 -0.2088  1.0218 -1.5970
  188SLPC  C31421753   6.044  -0.017   8.473 -0.0008  0.0866 -1.1190
  188SLPC  H14X21754   6.041  -0.093   8.553  1.6300  1.2163  0.0697
  188SLPC  H14Y21755   5.961   0.053   8.495 -0.5494  0.8094 -4.7267
  188SLPC  C31521756   6.181   0.052   8.489 -0.3314 -0.4721  0.7419
  188SLPC  H15X21757   6.208   0.114   8.401  0.6670 -1.4110  0.3471
  188SLPC  H15Y21758   6.261  -0.025   8.502  0.8424  0.9487  2.5165
  188SLPC  C31621759   6.190   0.148   8.610  0.4620 -0.1509  0.3583
  188SLPC  H16X21760   6.095   0.205   8.617  0.2458 -0.4027 -0.5235
  188SLPC  H16Y21761   6.275   0.218   8.596  0.2648 -0.0214 -0.2106
  188SLPC  C31721762   6.205   0.080   8.745 -0.0613 -0.4806  0.0134
  188SLPC  H17X21763   6.304   0.031   8.749  0.4185  0.3538 -1.2563
  188SLPC  H17Y21764   6.117   0.012   8.756 -0.6722  0.1394 -0.9220
  188SLPC  C31821765   6.193   0.181   8.864  0.0237  0.2740 -0.4158
  188SLPC  H18X21766   6.187   0.131   8.963  0.0985  0.5699 -0.2597
  188SLPC  H18Y21767   6.102   0.245   8.861  1.0034  1.7008 -1.0209
  188SLPC  H18Z21768   6.280   0.251   8.866  1.7149 -1.5352 -3.2790
  189SLPC     N21769   6.675   2.226   6.386 -0.0777 -0.2540 -0.7573
  189SLPC   C1321770   6.819   2.209   6.405  0.7447 -0.0015 -0.4437
  189SLPC  H13A21771   6.862   2.203   6.306  1.3124  0.0138 -0.2024
  189SLPC  H13B21772   6.867   2.298   6.441  0.7034  0.0224 -0.4484
  189SLPC  H13C21773   6.852   2.123   6.463 -3.2194 -1.3586  0.1500
  189SLPC   C1421774   6.614   2.252   6.525  0.6628 -0.8027 -0.0882
  189SLPC  H14A21775   6.647   2.184   6.601 -1.7024 -1.3989  0.4838
  189SLPC  H14B21776   6.641   2.352   6.554 -1.1711  0.5852 -2.6948
  189SLPC  H14C21777   6.506   2.249   6.520  0.6792 -0.5902 -4.4064
  189SLPC   C1521778   6.622   2.099   6.333  0.3986 -0.8146  0.0028
  189SLPC  H15A21779   6.676   2.079   6.242 -0.1759 -0.7248 -0.3687
  189SLPC  H15B21780   6.626   2.020   6.406  2.2216  0.3237  1.2097
  189SLPC  H15C21781   6.516   2.101   6.312  0.6381  0.1127 -1.2775
  189SLPC   C1221782   6.644   2.342   6.293  0.3648  0.1023 -0.0020
  189SLPC  H12A21783   6.544   2.382   6.305  1.3533  3.8868 -2.3794
  189SLPC  H12B21784   6.645   2.321   6.187  0.2254  1.2018 -0.2375
  189SLPC   C1121785   6.744   2.454   6.316  0.5565  0.0180  0.0136
  189SLPC  H11A21786   6.835   2.433   6.255 -0.6820 -0.1161 -1.8826
  189SLPC  H11B21787   6.755   2.461   6.426 -1.0678 -0.9054  0.2734
  189SLPC     P21788   6.758   2.674   6.182  0.4775 -0.4609 -0.2427
  189SLPC   O1321789   6.792   2.615   6.053  0.1527 -0.2464 -0.3321
  189SLPC   O1421790   6.689   2.807   6.182  0.0150 -0.6356 -0.0118
  189SLPC   O1221791   6.678   2.577   6.273 -0.4801 -0.0182 -0.1074
  189SLPC   O1121792   6.892   2.692   6.265 -0.0906  0.2362 -0.1545
  189SLPC    C121793   6.889   2.744   6.397 -0.2817  0.5834 -0.2977
  189SLPC    HA21794   6.875   2.854   6.393 -2.3806  0.4079  0.8114
  189SLPC    HB21795   6.791   2.724   6.444 -1.2114  0.2947 -2.2781
  189SLPC    C221796   7.015   2.710   6.485 -0.3083 -0.8382 -0.3186
  189SLPC    HS21797   6.989   2.760   6.581 -3.2904 -1.3386 -0.7673
  189SLPC   O2121798   7.138   2.752   6.429  0.1190  0.0803  0.1665
  189SLPC   C2121799   7.234   2.789   6.518 -0.5035  0.0487  0.1423
  189SLPC   O2221800   7.215   2.786   6.638  0.1138  0.2906 -0.6522
  189SLPC   C2221801   7.359   2.829   6.450 -0.6448 -1.0425  0.5392
  189SLPC   H2R21802   7.412   2.736   6.424 -1.2406 -1.2329 -0.0441
  189SLPC   H2S21803   7.350   2.892   6.358  2.1853  0.8315  1.4152
  189SLPC    C321804   7.022   2.554   6.529  0.4735 -1.2367  0.0199
  189SLPC    HX21805   7.054   2.496   6.439 -0.5170 -3.1034  0.8037
  189SLPC    HY21806   6.916   2.526   6.547  0.3601 -0.8230  0.0012
  189SLPC   O3121807   7.115   2.529   6.637 -0.4088  0.2197 -0.1768
  189SLPC   C3121808   7.125   2.411   6.678 -0.1005 -0.3035 -0.2056
  189SLPC   O3221809   7.068   2.316   6.634 -0.2441 -0.3447  0.1154
  189SLPC   C3221810   7.207   2.420   6.807 -0.3044  0.1967 -0.7919
  189SLPC   H2X21811   7.142   2.444   6.894  0.2409  2.4112 -0.9360
  189SLPC   H2Y21812   7.268   2.513   6.808 -0.4282  0.2759 -0.4750
  189SLPC   C2321813   7.435   2.923   6.547 -0.1990  0.0340 -0.3691
  189SLPC   H3R21814   7.374   2.982   6.618  0.6337  2.5695 -1.6531
  189SLPC   H3S21815   7.500   2.993   6.491  3.1063 -0.9732  1.9323
  189SLPC   C2421816   7.535   2.863   6.647  0.3869  0.0612  0.2722
  189SLPC   H4R21817   7.614   2.804   6.595 -1.2413 -1.6436 -0.3580
  189SLPC   H4S21818   7.479   2.802   6.721  1.2219 -1.4003 -0.2488
  189SLPC   C2521819   7.596   2.963   6.740 -0.3660 -0.5920 -0.3738
  189SLPC   H5R21820   7.519   3.021   6.795 -0.7515 -0.9372 -0.5462
  189SLPC   H5S21821   7.658   3.040   6.689  0.4902 -1.2776 -0.3895
  189SLPC   C2621822   7.688   2.901   6.854 -0.2685  0.2877  0.6775
  189SLPC   H6R21823   7.784   2.868   6.809 -1.1843  0.9187 -1.8715
  189SLPC   H6S21824   7.636   2.807   6.879  0.3375 -0.7453 -1.6784
  189SLPC   C2721825   7.719   2.999   6.970 -0.5162  0.6872 -0.1567
  189SLPC   H7R21826   7.624   3.039   7.010 -2.2525 -1.1107 -2.2057
  189SLPC   H7S21827   7.780   3.080   6.924  2.4116 -0.4381  1.4285
  189SLPC   C2821828   7.798   2.934   7.089 -0.7900 -0.0045 -0.1765
  189SLPC   H8R21829   7.730   2.858   7.135 -0.3313 -0.6400 -0.5301
  189SLPC   H8S21830   7.799   3.019   7.161 -1.2350 -0.9831  1.0315
  189SLPC   C2921831   7.941   2.892   7.071  0.1080  0.0404  0.9550
  189SLPC   H9R21832   7.944   2.817   6.990 -2.1289 -1.1538  1.8572
  189SLPC  C21021833   8.051   2.917   7.140  0.3806  0.4938 -0.0270
  189SLPC  H10R21834   8.145   2.868   7.109 -0.1175 -0.3857 -0.1692
  189SLPC  C21121835   8.050   2.997   7.264 -0.1618  0.0391 -0.0616
  189SLPC  H11R21836   8.016   3.101   7.247  0.1044  0.1249 -0.0591
  189SLPC  H11S21837   8.155   3.028   7.279 -0.5008  0.0829  2.8307
  189SLPC  C21221838   7.978   2.939   7.392  0.0193 -0.4689  0.1528
  189SLPC  H12R21839   7.939   2.837   7.376  0.5233 -0.4194 -1.5458
  189SLPC  C21321840   7.960   3.001   7.513 -0.6481  0.2064  0.5818
  189SLPC  H13R21841   7.902   2.945   7.588  0.9324  0.9388  2.4390
  189SLPC  C21421842   7.997   3.143   7.547  0.5100 -0.6581 -0.2810
  189SLPC  H14R21843   7.909   3.211   7.543  0.1950 -1.0036  0.4973
  189SLPC  H14S21844   8.071   3.185   7.476  0.8544 -1.3934 -0.3717
  189SLPC  C21521845   8.078   3.142   7.684 -0.8429  0.3915 -0.1890
  189SLPC  H15R21846   8.184   3.112   7.671 -1.0221 -0.9018  1.0404
  189SLPC  H15S21847   8.033   3.081   7.765 -0.4223 -0.2006 -0.3931
  189SLPC  C21621848   8.064   3.280   7.746  0.0469 -0.0510  0.9738
  189SLPC  H16R21849   7.955   3.298   7.759  0.1295  2.3395 -0.8290
  189SLPC  H16S21850   8.092   3.361   7.675  0.8347  1.1805  2.6380
  189SLPC  C21721851   8.124   3.301   7.883  0.1015  0.8822 -0.0702
  189SLPC  H17R21852   8.056   3.252   7.956  2.4627 -1.4418  0.6809
  189SLPC  H17S21853   8.127   3.409   7.910  1.8920  0.5631  1.0936
  189SLPC  C21821854   8.260   3.239   7.892  0.7984 -0.2021 -0.1879
  189SLPC  H18R21855   8.287   3.229   7.999  0.6538 -1.3913 -0.2497
  189SLPC  H18S21856   8.316   3.321   7.842 -0.2651 -0.1989 -1.4396
  189SLPC  H18T21857   8.278   3.135   7.858 -0.6635  0.4227 -3.1944
  189SLPC   C3321858   7.296   2.291   6.833  0.0737 -0.0127 -0.1858
  189SLPC   H3X21859   7.351   2.264   6.740 -0.4168 -1.8119  0.0088
  189SLPC   H3Y21860   7.235   2.202   6.856  0.3880  0.0996  1.1597
  189SLPC   C3421861   7.410   2.322   6.938 -0.5601 -0.3628  0.7828
  189SLPC   H4X21862   7.469   2.416   6.928 -1.3821  0.6416  3.9823
  189SLPC   H4Y21863   7.489   2.246   6.916  2.7980  3.8762 -3.8883
  189SLPC   C3521864   7.365   2.311   7.083  0.0543  0.4867  0.3961
  189SLPC   H5X21865   7.305   2.219   7.100 -0.4910  0.4408 -1.6257
  189SLPC   H5Y21866   7.297   2.395   7.107 -0.2557  0.3306  0.0682
  189SLPC   C3621867   7.487   2.309   7.178 -0.2531  0.0075 -0.1241
  189SLPC   H6X21868   7.530   2.409   7.157 -2.7839  1.2551  0.3037
  189SLPC   H6Y21869   7.543   2.214   7.164 -0.4793  0.0667 -1.5344
  189SLPC   C3721870   7.447   2.325   7.330 -0.2438 -0.2350  0.2568
  189SLPC   H7X21871   7.388   2.237   7.362  0.6901 -1.4020 -1.0892
  189SLPC   H7Y21872   7.382   2.414   7.337  1.5283  1.0771  0.6500
  189SLPC   C3821873   7.568   2.339   7.418 -0.0895 -0.3045 -0.2025
  189SLPC   H8X21874   7.569   2.449   7.438 -2.1843  0.2672 -2.6555
  189SLPC   H8Y21875   7.656   2.304   7.361 -1.4038 -2.9298 -0.7713
  189SLPC   C3921876   7.575   2.240   7.541 -0.5642  0.0238  0.3478
  189SLPC   H9X21877   7.487   2.247   7.609 -0.5906 -0.4981  0.3765
  189SLPC   H9Y21878   7.664   2.258   7.606 -0.2318 -0.5652  0.0644
  189SLPC  C31021879   7.599   2.095   7.511  0.2214  0.4586  0.2431
  189SLPC  H10X21880   7.703   2.088   7.474 -0.3262  1.9345 -1.7414
  189SLPC  H10Y21881   7.527   2.060   7.433  0.3602 -1.1648  0.8068
  189SLPC  C31121882   7.591   2.003   7.642  0.6730 -0.2971  0.2212
  189SLPC  H11X21883   7.527   2.049   7.720  0.3251 -0.3866 -0.0086
  189SLPC  H11Y21884   7.690   1.980   7.688  0.4809 -0.1621  0.7042
  189SLPC  C31221885   7.534   1.868   7.608  1.0113  0.2288  0.8151
  189SLPC  H12X21886   7.601   1.843   7.523  0.3689  0.9415  0.0754
  189SLPC  H12Y21887   7.435   1.882   7.560  0.4970 -0.4033  1.6504
  189SLPC  C31321888   7.548   1.769   7.710 -0.2322  0.0635 -0.4900
  189SLPC  H13X21889   7.651   1.758   7.750  0.9336 -1.6718 -3.6277
  189SLPC  H13Y21890   7.531   1.675   7.653  3.5880 -0.1065 -1.6544
  189SLPC  C31421891   7.450   1.778   7.832 -0.1357 -0.2388  0.6717
  189SLPC  H14X21892   7.348   1.775   7.788  0.3316 -0.7017 -0.4217
  189SLPC  H14Y21893   7.453   1.875   7.886 -0.8233 -0.2692  0.7704
  189SLPC  C31521894   7.464   1.668   7.933 -0.0015 -0.1194  0.5047
  189SLPC  H15X21895   7.415   1.705   8.026 -1.0355 -1.0089  0.3339
  189SLPC  H15Y21896   7.568   1.634   7.951  0.6044 -0.4100 -2.8039
  189SLPC  C31621897   7.390   1.540   7.888  0.5926  0.1459 -0.0282
  189SLPC  H16X21898   7.433   1.492   7.798  0.2587 -1.7774  0.7775
  189SLPC  H16Y21899   7.282   1.563   7.874  0.6701  1.0474  0.7604
  189SLPC  C31721900   7.405   1.426   7.993 -0.7237 -0.3722 -0.2242
  189SLPC  H17X21901   7.365   1.442   8.096 -1.4562 -3.5970  0.0978
  189SLPC  H17Y21902   7.515   1.420   8.007 -0.7589  0.6087  0.5638
  189SLPC  C31821903   7.349   1.294   7.955  1.2891 -0.0456  0.6351
  189SLPC  H18X21904   7.396   1.256   7.862 -0.3205 -0.2577 -0.1178
  189SLPC  H18Y21905   7.239   1.298   7.943  1.3376 -0.7268 -0.1204
  189SLPC  H18Z21906   7.378   1.226   8.038 -2.5374  0.3113  2.4727
  190SLPC     N21907   0.481   1.999   5.947 -0.7361 -0.3139  0.4930
  190SLPC   C1321908   0.627   1.951   5.926 -0.1663 -0.2023 -0.5481
  190SLPC  H13A21909   0.690   2.003   5.996 -2.8951  0.8643  1.3123
  190SLPC  H13B21910   0.638   1.844   5.937 -2.3105 -0.2592  1.9866
  190SLPC  H13C21911   0.669   1.971   5.829  1.4761 -1.5418 -0.1595
  190SLPC   C1421912   0.405   1.916   5.849 -0.2431 -0.1263  0.6652
  190SLPC  H14A21913   0.425   1.941   5.746 -0.3311  0.4012  0.7730
  190SLPC  H14B21914   0.429   1.811   5.850 -1.0258 -0.3612 -1.1389
  190SLPC  H14C21915   0.299   1.908   5.868 -0.0923 -1.4117  1.0708
  190SLPC   C1521916   0.454   2.137   5.899 -0.2055 -0.3822  0.2127
  190SLPC  H15A21917   0.488   2.159   5.799  2.4655 -0.2321  1.0830
  190SLPC  H15B21918   0.350   2.166   5.911  0.1183  0.2238  1.7509
  190SLPC  H15C21919   0.508   2.206   5.961  0.7775 -0.6113 -0.3705
  190SLPC   C1221920   0.436   1.990   6.089 -0.5089 -0.8695 -0.4803
  190SLPC  H12A21921   0.454   1.886   6.109 -0.7670 -1.7024 -4.0000
  190SLPC  H12B21922   0.329   2.003   6.096 -0.4117 -0.6955  1.2456
  190SLPC   C1121923   0.500   2.081   6.200 -1.0208  0.6031 -0.1772
  190SLPC  H11A21924   0.604   2.043   6.213 -0.5063  1.8209 -0.5404
  190SLPC  H11B21925   0.445   2.061   6.294  0.5968 -1.1493  0.4536
  190SLPC     P21926   0.402   2.317   6.240  0.0549  0.0789  0.2522
  190SLPC   O1321927   0.402   2.451   6.177  0.0945 -0.5444  0.4352
  190SLPC   O1421928   0.281   2.238   6.243  0.2319  0.1100  0.5941
  190SLPC   O1221929   0.511   2.225   6.174 -0.5836  0.1884 -0.1767
  190SLPC   O1121930   0.463   2.323   6.386  0.7039 -0.4368  0.5607
  190SLPC    C121931   0.582   2.395   6.415  0.3539 -0.0451 -0.2998
  190SLPC    HA21932   0.608   2.486   6.356 -0.6821 -0.5150 -1.5217
  190SLPC    HB21933   0.564   2.427   6.520 -1.2348  3.5742 -1.5250
  190SLPC    C221934   0.705   2.298   6.398 -0.3606 -0.7431 -0.4166
  190SLPC    HS21935   0.700   2.265   6.293 -0.5854 -1.6259 -0.1387
  190SLPC   O2121936   0.682   2.182   6.482  0.3962  0.5826  0.3144
  190SLPC   C2121937   0.760   2.088   6.468  0.0207 -0.1307 -0.1717
  190SLPC   O2221938   0.838   2.071   6.371  0.0572 -0.4351 -0.1063
  190SLPC   C2221939   0.725   1.980   6.573 -0.0906 -0.3111 -0.8336
  190SLPC   H2R21940   0.643   2.013   6.640  1.4072  1.0821  0.3969
  190SLPC   H2S21941   0.683   1.889   6.525 -0.5154 -0.6246  0.0976
  190SLPC    C321942   0.833   2.375   6.436  0.6913 -0.2769  0.1120
  190SLPC    HX21943   0.837   2.449   6.353  0.4915  0.1703  0.4973
  190SLPC    HY21944   0.925   2.313   6.432  0.5027 -0.5025 -1.4192
  190SLPC   O3121945   0.807   2.437   6.561  0.2771  0.6155  0.0933
  190SLPC   C3121946   0.917   2.461   6.631 -0.3842  0.5961 -0.6757
  190SLPC   O3221947   1.031   2.435   6.595 -1.0173 -0.4842 -0.3683
  190SLPC   C3221948   0.883   2.522   6.762 -0.3588  0.4366  0.7514
  190SLPC   H2X21949   0.777   2.500   6.788  0.3572 -0.5227  3.1964
  190SLPC   H2Y21950   0.894   2.631   6.748 -0.5140  0.2699 -0.8595
  190SLPC   C2321951   0.842   1.948   6.674  0.4005 -0.0416 -0.2332
  190SLPC   H3R21952   0.940   1.947   6.621  2.0909 -0.7524  2.6832
  190SLPC   H3S21953   0.820   1.842   6.701 -0.1485 -0.1990 -1.2450
  190SLPC   C2421954   0.846   2.046   6.800 -0.5722 -0.3186 -0.4251
  190SLPC   H4R21955   0.745   2.086   6.827  0.1275  2.3353 -1.4326
  190SLPC   H4S21956   0.910   2.132   6.772 -0.5386 -0.7364 -1.6937
  190SLPC   C2521957   0.907   1.998   6.929  0.1255 -0.0297  0.5734
  190SLPC   H5R21958   0.844   1.914   6.963 -0.6625 -0.8937 -2.6485
  190SLPC   H5S21959   0.888   2.073   7.009  0.3256  0.3059  0.3114
  190SLPC   C2621960   1.043   1.939   6.903 -0.9160  0.4708 -0.0723
  190SLPC   H6R21961   1.094   2.005   6.829 -1.0650  1.1060  0.3848
  190SLPC   H6S21962   1.027   1.842   6.851 -0.6963  1.1814 -1.5425
  190SLPC   C2721963   1.130   1.902   7.022 -0.4344  0.4434  0.7460
  190SLPC   H7R21964   1.195   1.815   6.999 -0.1968  0.5746  0.9079
  190SLPC   H7S21965   1.071   1.861   7.107 -1.0821  0.9867  0.5699
  190SLPC   C2821966   1.214   2.023   7.065 -0.7396 -0.4841 -0.2800
  190SLPC   H8R21967   1.162   2.118   7.087  1.0248  0.0492  2.0186
  190SLPC   H8S21968   1.271   2.055   6.976 -0.3361  1.4039  0.6119
  190SLPC   C2921969   1.298   1.979   7.185  0.0317  0.2164 -0.0343
  190SLPC   H9R21970   1.381   1.909   7.163 -1.4951 -1.4194 -0.8379
  190SLPC  C21021971   1.276   2.031   7.299 -0.8377 -0.8391 -0.2225
  190SLPC  H10R21972   1.347   2.001   7.378  0.1853 -0.0294 -0.8073
  190SLPC  C21121973   1.168   2.135   7.334 -0.3700  0.4879 -0.2796
  190SLPC  H11R21974   1.073   2.095   7.293  0.4004 -1.6270 -0.1634
  190SLPC  H11S21975   1.188   2.231   7.283  0.3334  0.5683  0.1423
  190SLPC  C21221976   1.162   2.160   7.489 -0.3699 -0.4479  0.3335
  190SLPC  H12R21977   1.059   2.173   7.524 -0.0990  2.1501  0.3923
  190SLPC  C21321978   1.266   2.203   7.564  0.3996  0.4844  0.0395
  190SLPC  H13R21979   1.245   2.220   7.670 -0.6933  1.2852 -0.2980
  190SLPC  C21421980   1.413   2.231   7.523 -0.4516  0.1600  0.4086
  190SLPC  H14R21981   1.439   2.199   7.420  1.3634 -0.1262  0.9223
  190SLPC  H14S21982   1.482   2.165   7.580 -0.0264  0.6775  0.5005
  190SLPC  C21521983   1.436   2.383   7.527 -0.4267 -0.2362  0.3056
  190SLPC  H15R21984   1.400   2.415   7.628  2.8985  1.6153  1.0464
  190SLPC  H15S21985   1.363   2.431   7.458  1.2596 -0.1752 -1.5192
  190SLPC  C21621986   1.584   2.422   7.516 -1.0274 -0.2159  0.2486
  190SLPC  H16R21987   1.592   2.533   7.512  1.1841 -0.3457 -0.5378
  190SLPC  H16S21988   1.609   2.377   7.418  0.3976 -1.5617  1.1726
  190SLPC  C21721989   1.663   2.368   7.635 -0.8469  0.1398 -0.6646
  190SLPC  H17R21990   1.686   2.260   7.623 -1.3727 -0.1579  0.8149
  190SLPC  H17S21991   1.626   2.397   7.736  2.5000  1.4979  0.3020
  190SLPC  C21821992   1.804   2.426   7.646  0.0090  0.2800 -0.4728
  190SLPC  H18R21993   1.795   2.518   7.708  0.9649 -0.4097  0.7478
  190SLPC  H18S21994   1.851   2.460   7.552  1.1460  0.4872  0.1417
  190SLPC  H18T21995   1.872   2.362   7.707  1.8537  2.0353 -0.5927
  190SLPC   C3321996   0.971   2.475   6.880  0.0102  0.5601  0.4215
  190SLPC   H3X21997   1.078   2.500   6.867  0.3501 -1.1851 -0.2802
  190SLPC   H3Y21998   0.981   2.365   6.892 -0.8343  0.5516  1.1762
  190SLPC   C3421999   0.917   2.529   7.015 -0.4690  0.0021  0.1073
  190SLPC   H4X22000   0.825   2.469   7.027 -0.9117  0.5303 -0.5485
  190SLPC   H4Y22001   0.890   2.636   7.003 -1.9023 -0.5004 -1.4763
  190SLPC   C3522002   1.023   2.504   7.122 -1.1825  0.0745  0.0400
  190SLPC   H5X22003   1.121   2.554   7.104 -1.3387 -0.0922 -1.4577
  190SLPC   H5Y22004   1.038   2.395   7.134 -1.7257 -0.4153 -2.8953
  190SLPC   C3622005   0.982   2.556   7.260  0.0454  0.3064  0.5024
  190SLPC   H6X22006   0.881   2.518   7.283  0.4856 -0.4932  1.1768
  190SLPC   H6Y22007   0.971   2.666   7.246 -0.4353  0.3405  1.1395
  190SLPC   C3722008   1.090   2.530   7.366 -0.0683  0.3047  0.4376
  190SLPC   H7X22009   1.189   2.577   7.346  1.2597 -1.1831  2.9846
  190SLPC   H7Y22010   1.118   2.423   7.355 -1.4103 -0.1810  1.5957
  190SLPC   C3822011   1.033   2.572   7.500 -0.0601  0.0530  0.1086
  190SLPC   H8X22012   0.962   2.493   7.533 -1.4982  1.1578 -0.2481
  190SLPC   H8Y22013   0.983   2.671   7.496 -1.3522 -0.5391  1.0187
  190SLPC   C3922014   1.143   2.572   7.612  0.1798  0.3338 -0.9056
  190SLPC   H9X22015   1.214   2.653   7.582 -1.6797  1.8499 -1.4042
  190SLPC   H9Y22016   1.195   2.474   7.612  2.0447  1.2390  0.7150
  190SLPC  C31022017   1.085   2.612   7.751 -0.1932 -0.1854 -0.3776
  190SLPC  H10X22018   1.052   2.718   7.742 -0.6962 -0.2964  0.1367
  190SLPC  H10Y22019   1.179   2.618   7.811 -0.7452  0.6913  0.4379
  190SLPC  C31122020   0.976   2.520   7.811  0.1760  0.1466  0.2758
  190SLPC  H11X22021   0.887   2.498   7.749  0.4074 -0.4675  0.1555
  190SLPC  H11Y22022   0.940   2.572   7.903 -1.7329 -2.1894  0.9417
  190SLPC  C31222023   1.033   2.387   7.856 -0.6684  0.3244 -0.2176
  190SLPC  H12X22024   1.130   2.405   7.907  0.2226 -3.5248 -0.2881
  190SLPC  H12Y22025   1.047   2.312   7.776  0.2169  0.3247 -0.0740
  190SLPC  C31322026   0.954   2.311   7.956 -0.1223 -0.2193 -0.2676
  190SLPC  H13X22027   0.852   2.297   7.914 -1.3224  0.7568  2.0971
  190SLPC  H13Y22028   0.937   2.383   8.039 -1.3472 -0.7574 -0.0330
  190SLPC  C31422029   1.010   2.171   7.995 -0.4551  1.2218  0.1068
  190SLPC  H14X22030   1.113   2.182   8.035  0.4297 -3.1682 -0.5085
  190SLPC  H14Y22031   1.040   2.113   7.905 -0.4791 -0.6696  1.2627
  190SLPC  C31522032   0.903   2.084   8.066  0.2303  1.3124 -0.1344
  190SLPC  H15X22033   0.819   2.084   7.993  0.7898 -1.1823 -0.8874
  190SLPC  H15Y22034   0.880   2.135   8.162  0.7708  0.7482  0.2974
  190SLPC  C31622035   0.948   1.944   8.092 -0.4279  0.0378  0.5432
  190SLPC  H16X22036   1.029   1.955   8.166 -0.1071  2.2511 -0.0800
  190SLPC  H16Y22037   1.013   1.914   8.007  1.3081  1.0240  1.4822
  190SLPC  C31722038   0.848   1.836   8.126  0.4201 -0.4370  0.7742
  190SLPC  H17X22039   0.897   1.743   8.162  0.5205  0.3354  2.7901
  190SLPC  H17Y22040   0.791   1.816   8.033 -0.7208  0.7006  1.1857
  190SLPC  C31822041   0.752   1.866   8.241  0.2356 -0.5123  0.1938
  190SLPC  H18X22042   0.703   1.774   8.281  2.2048 -2.0012 -0.6061
  190SLPC  H18Y22043   0.678   1.945   8.219  0.2148 -0.6252 -0.1393
  190SLPC  H18Z22044   0.816   1.897   8.327 -0.2172 -0.1434  0.3952
  191SLPC     N22045   0.031   4.119   5.556 -0.0170  0.3926 -0.5994
  191SLPC   C1322046  -0.042   4.225   5.474 -0.7096  0.6920 -0.0577
  191SLPC  H13A22047  -0.001   4.322   5.497 -0.5964  0.8254 -0.8066
  191SLPC  H13B22048  -0.028   4.201   5.370  0.2248  4.7644 -1.0496
  191SLPC  H13C22049  -0.142   4.243   5.510  0.5359 -0.4997  4.6830
  191SLPC   C1422050   0.040   4.161   5.699 -0.4824  0.4536  0.3643
  191SLPC  H14A22051   0.091   4.256   5.706  1.4144 -0.3295 -1.9289
  191SLPC  H14B22052  -0.062   4.158   5.735 -0.9298 -0.7439 -0.9211
  191SLPC  H14C22053   0.097   4.100   5.767 -0.3547  1.3688  1.1095
  191SLPC   C1522054   0.172   4.109   5.500 -0.1849 -0.4416  0.2539
  191SLPC  H15A22055   0.161   4.067   5.401 -1.4722 -3.0793  1.4141
  191SLPC  H15B22056   0.225   4.202   5.485 -1.2749  0.1216 -0.2393
  191SLPC  H15C22057   0.231   4.035   5.552  1.6762 -0.8855 -2.2645
  191SLPC   C1222058  -0.041   3.987   5.543  0.1356  0.6378 -0.2479
  191SLPC  H12A22059   0.012   3.922   5.611  0.0702  1.0777  0.2311
  191SLPC  H12B22060  -0.042   3.949   5.442 -1.6436 -0.2770  0.0744
  191SLPC   C1122061  -0.187   3.986   5.601  0.1082 -0.3999  0.2627
  191SLPC  H11A22062  -0.234   3.893   5.560 -1.2900 -0.6925  2.3579
  191SLPC  H11B22063  -0.234   4.074   5.553  0.1604 -0.8412 -0.6299
  191SLPC     P22064  -0.301   4.063   5.834 -0.0954  0.3306 -0.0593
  191SLPC   O1322065  -0.262   4.206   5.839  0.4794  0.1379 -0.0868
  191SLPC   O1422066  -0.437   4.037   5.782 -0.3552 -0.0291 -0.5176
  191SLPC   O1222067  -0.189   3.980   5.747 -0.3158 -0.0001  0.0764
  191SLPC   O1122068  -0.285   4.005   5.980 -0.0637 -0.1780 -0.2854
  191SLPC    C122069  -0.182   3.905   6.009  0.1364 -0.7519 -1.1458
  191SLPC    HA22070  -0.210   3.802   5.977 -0.7258 -1.3083  1.2199
  191SLPC    HB22071  -0.083   3.930   5.966  0.1027 -1.4959 -1.6590
  191SLPC    C222072  -0.162   3.888   6.163  0.5171 -0.7124  0.2316
  191SLPC    HS22073  -0.091   3.808   6.193  1.0603 -1.0705 -1.8618
  191SLPC   O2122074  -0.287   3.841   6.219 -0.1634 -0.2853  0.3708
  191SLPC   C2122075  -0.288   3.756   6.318 -0.6875  0.5708  0.5808
  191SLPC   O2222076  -0.194   3.682   6.344 -0.0952 -0.3396  0.8693
  191SLPC   C2222077  -0.428   3.742   6.384  0.4378  0.3947  0.2373
  191SLPC   H2R22078  -0.435   3.840   6.436 -1.4271  0.7799 -0.6767
  191SLPC   H2S22079  -0.510   3.732   6.310  0.1861  1.6284  0.3355
  191SLPC    C322080  -0.111   4.023   6.234  0.5585 -0.5041 -0.6746
  191SLPC    HX22081  -0.179   4.104   6.201  0.3209 -0.5348 -0.2774
  191SLPC    HY22082  -0.011   4.043   6.189 -0.3737  1.6891 -1.8902
  191SLPC   O3122083  -0.087   4.021   6.371 -0.2607  0.4195 -0.2043
  191SLPC   C3122084  -0.056   4.141   6.422 -0.1991  0.6390  1.2152
  191SLPC   O3222085  -0.030   4.246   6.358  0.2322  0.0770 -0.3791
  191SLPC   C3222086  -0.061   4.130   6.572 -0.1592 -1.0081 -0.3572
  191SLPC   H2X22087  -0.107   4.225   6.607 -2.2769 -0.8707 -3.0923
  191SLPC   H2Y22088   0.045   4.127   6.605 -0.3991 -0.7865  0.4505
  191SLPC   C2322089  -0.431   3.627   6.495  0.6413  1.2259  0.1450
  191SLPC   H3R22090  -0.388   3.542   6.437  2.0300  2.2852 -0.4398
  191SLPC   H3S22091  -0.540   3.610   6.507  0.3668  3.0062  0.4141
  191SLPC   C2422092  -0.360   3.675   6.620 -0.1643 -0.4614  0.2213
  191SLPC   H4R22093  -0.435   3.734   6.676  0.0279 -3.8684  4.6320
  191SLPC   H4S22094  -0.262   3.726   6.608 -1.0682  1.4875  0.7576
  191SLPC   C2522095  -0.331   3.559   6.712  0.3654 -0.2753  0.2182
  191SLPC   H5R22096  -0.258   3.488   6.668 -0.5657 -1.1147  0.0135
  191SLPC   H5S22097  -0.426   3.514   6.746 -0.5317  2.0816  1.0137
  191SLPC   C2622098  -0.261   3.600   6.841 -0.4485 -0.4106 -0.0452
  191SLPC   H6R22099  -0.159   3.641   6.821 -0.8922  1.0001  0.4418
  191SLPC   H6S22100  -0.255   3.505   6.897 -0.3018 -0.6517 -0.4638
  191SLPC   C2722101  -0.356   3.689   6.923 -0.4999 -0.0018 -0.3038
  191SLPC   H7R22102  -0.446   3.626   6.939  0.0246 -0.6002  0.3922
  191SLPC   H7S22103  -0.384   3.783   6.871 -0.1152  0.2462 -0.0751
  191SLPC   C2822104  -0.292   3.717   7.061 -0.4159  0.3650 -0.2629
  191SLPC   H8R22105  -0.214   3.796   7.051  0.6916 -0.4605  1.3203
  191SLPC   H8S22106  -0.250   3.619   7.093  0.2001  0.0289 -1.9833
  191SLPC   C2922107  -0.397   3.771   7.159  0.4113  0.1300 -0.2198
  191SLPC   H9R22108  -0.473   3.831   7.107 -0.0818 -1.0223 -0.8833
  191SLPC  C21022109  -0.411   3.760   7.294 -0.1539  0.7076 -0.1301
  191SLPC  H10R22110  -0.496   3.815   7.337 -0.4282  1.5879 -1.7571
  191SLPC  C21122111  -0.310   3.681   7.383  0.2955  0.7877  0.5496
  191SLPC  H11R22112  -0.224   3.632   7.334 -1.9569 -2.9337 -0.1133
  191SLPC  H11S22113  -0.367   3.593   7.421 -0.5472  0.4926 -1.3027
  191SLPC  C21222114  -0.265   3.778   7.486 -1.1022  0.0725  0.0294
  191SLPC  H12R22115  -0.203   3.864   7.457  0.1528 -0.8964 -0.2315
  191SLPC  C21322116  -0.310   3.777   7.611  0.1131  0.2443  0.2990
  191SLPC  H13R22117  -0.268   3.856   7.675 -0.2726 -0.8047  1.9216
  191SLPC  C21422118  -0.398   3.678   7.684 -0.0235  0.6887  0.3342
  191SLPC  H14R22119  -0.409   3.582   7.629  0.2053  0.8287  0.0386
  191SLPC  H14S22120  -0.502   3.712   7.701  0.0169  0.2932  1.3931
  191SLPC  C21522121  -0.324   3.644   7.812 -0.4581 -0.7098 -0.1905
  191SLPC  H15R22122  -0.300   3.736   7.869 -1.4256 -0.1267 -0.7035
  191SLPC  H15S22123  -0.228   3.591   7.791  0.0539 -0.3211  1.0788
  191SLPC  C21622124  -0.406   3.574   7.922 -0.2787 -0.2554 -0.2076
  191SLPC  H16R22125  -0.452   3.477   7.893  0.7565 -1.5374  2.0804
  191SLPC  H16S22126  -0.485   3.640   7.963 -0.0507 -0.3924  0.4639
  191SLPC  C21722127  -0.322   3.550   8.050 -0.5029  0.2784  0.6719
  191SLPC  H17R22128  -0.288   3.651   8.081 -1.2768  0.4594  0.9375
  191SLPC  H17S22129  -0.226   3.496   8.031 -0.8561  0.2512 -1.2333
  191SLPC  C21822130  -0.391   3.479   8.163  0.5641  0.3789 -0.3061
  191SLPC  H18R22131  -0.475   3.538   8.204  0.9190  0.1000  0.8725
  191SLPC  H18S22132  -0.318   3.450   8.242  0.9266 -0.3386 -0.8887
  191SLPC  H18T22133  -0.438   3.388   8.119  1.7126 -0.3373 -0.1129
  191SLPC   C3322134  -0.146   4.015   6.641 -0.5406  0.3462 -0.1879
  191SLPC   H3X22135  -0.145   3.922   6.581  1.2418  0.1673  0.0708
  191SLPC   H3Y22136  -0.249   4.055   6.632 -0.4267  0.8621  0.6643
  191SLPC   C3422137  -0.108   3.982   6.781 -0.1815  0.3495  0.7128
  191SLPC   H4X22138   0.001   3.964   6.797  0.4129  2.4265 -0.6050
  191SLPC   H4Y22139  -0.158   3.884   6.797  0.3345 -0.1849 -0.7933
  191SLPC   C3522140  -0.151   4.090   6.880 -0.2308 -0.1951 -0.5372
  191SLPC   H5X22141  -0.262   4.102   6.882  0.0658  3.9971  0.3013
  191SLPC   H5Y22142  -0.119   4.189   6.842  1.4967 -1.2610 -1.9986
  191SLPC   C3622143  -0.104   4.094   7.024 -0.6621 -0.0291 -0.4605
  191SLPC   H6X22144   0.006   4.090   7.030 -0.5115  1.4041 -1.8781
  191SLPC   H6Y22145  -0.142   4.000   7.069 -1.5174 -0.4860 -2.0414
  191SLPC   C3722146  -0.143   4.216   7.105  0.0371 -0.3973  0.1287
  191SLPC   H7X22147  -0.252   4.217   7.129  0.2661 -2.5206  1.4479
  191SLPC   H7Y22148  -0.113   4.306   7.047  1.6760 -1.2165 -0.3190
  191SLPC   C3822149  -0.068   4.220   7.242 -0.0841 -0.3746 -0.0129
  191SLPC   H8X22150   0.038   4.252   7.231 -0.3791  2.0763  3.0233
  191SLPC   H8Y22151  -0.085   4.128   7.302  0.7618  0.3723  1.4233
  191SLPC   C3922152  -0.130   4.332   7.326 -0.1059  0.2339 -1.1716
  191SLPC   H9X22153  -0.241   4.325   7.327 -0.4128  2.2848  2.6939
  191SLPC   H9Y22154  -0.093   4.431   7.292  1.4761  0.2727  0.5053
  191SLPC  C31022155  -0.081   4.315   7.473  0.9700  0.6647 -0.0432
  191SLPC  H10X22156   0.023   4.356   7.468  0.4240  2.0255 -0.7289
  191SLPC  H10Y22157  -0.067   4.210   7.505 -0.0554  0.6089  0.2493
  191SLPC  C31122158  -0.173   4.390   7.574 -0.2165 -0.2790 -0.3325
  191SLPC  H11X22159  -0.279   4.367   7.552 -0.3074  0.0095 -0.1975
  191SLPC  H11Y22160  -0.153   4.499   7.567  1.0191 -0.3559  1.2834
  191SLPC  C31222161  -0.140   4.335   7.717  0.0801 -0.0400  0.2469
  191SLPC  H12X22162  -0.030   4.345   7.733 -0.1618  1.6579  1.1782
  191SLPC  H12Y22163  -0.171   4.229   7.723  1.2829 -0.3578  1.4004
  191SLPC  C31322164  -0.222   4.418   7.825  0.3606  0.4220  0.5914
  191SLPC  H13X22165  -0.331   4.411   7.805  0.3388  0.4632  0.6904
  191SLPC  H13Y22166  -0.198   4.527   7.822  1.5829  0.1431 -0.5607
  191SLPC  C31422167  -0.198   4.368   7.973  0.5021 -0.8046 -0.0461
  191SLPC  H14X22168  -0.092   4.343   7.992  0.7301  0.4569  0.4467
  191SLPC  H14Y22169  -0.251   4.271   7.987  0.6550 -0.6916  1.5240
  191SLPC  C31522170  -0.251   4.461   8.082  0.6277 -0.3850 -0.1501
  191SLPC  H15X22171  -0.358   4.482   8.059  0.5415 -0.2278  0.3742
  191SLPC  H15Y22172  -0.198   4.557   8.070  1.9097 -1.2689 -2.1063
  191SLPC  C31622173  -0.243   4.404   8.225  1.1390  0.3453  0.2439
  191SLPC  H16X22174  -0.137   4.391   8.255  2.1976  2.1943 -2.3075
  191SLPC  H16Y22175  -0.290   4.306   8.247  1.8250 -1.1291 -3.9547
  191SLPC  C31722176  -0.329   4.499   8.306  0.4658 -0.1944 -0.7369
  191SLPC  H17X22177  -0.434   4.478   8.278  0.1516  1.7747 -1.1754
  191SLPC  H17Y22178  -0.297   4.604   8.286  2.0923 -0.6055 -0.4924
  191SLPC  C31822179  -0.314   4.470   8.451  0.1827  0.7783  0.1463
  191SLPC  H18X22180  -0.320   4.360   8.467  1.1058  0.9154  1.7186
  191SLPC  H18Y22181  -0.403   4.505   8.508 -1.3408 -2.0257 -0.3395
  191SLPC  H18Z22182  -0.217   4.506   8.493  1.3336 -0.3875 -1.3913
  192SLPC     N22183   2.763   1.029   6.299  0.3331 -0.5879  0.3794
  192SLPC   C1322184   2.867   1.111   6.219 -0.0691  0.9626 -0.2395
  192SLPC  H13A22185   2.956   1.054   6.200 -0.3867  1.0733 -2.2628
  192SLPC  H13B22186   2.828   1.129   6.120  1.7578 -0.3844 -1.2476
  192SLPC  H13C22187   2.891   1.207   6.261 -0.1697 -0.5489  3.7848
  192SLPC   C1422188   2.623   1.077   6.278  0.1655  0.5522  0.3873
  192SLPC  H14A22189   2.596   1.060   6.175 -0.6655 -1.7306  0.9397
  192SLPC  H14B22190   2.552   1.011   6.326  0.4989 -0.7448 -0.8470
  192SLPC  H14C22191   2.604   1.181   6.303  0.2479  1.3084 -2.3178
  192SLPC   C1522192   2.796   1.069   6.439 -1.5351  0.4047  0.6376
  192SLPC  H15A22193   2.817   1.175   6.434  1.2330 -0.1445 -1.6577
  192SLPC  H15B22194   2.721   1.050   6.515  0.1392 -0.5580  2.1518
  192SLPC  H15C22195   2.892   1.025   6.463 -1.3709  0.1895 -0.3850
  192SLPC   C1222196   2.778   0.884   6.273 -0.1940  0.4641  0.4665
  192SLPC  H12A22197   2.879   0.860   6.302  0.1635 -2.0476 -2.3670
  192SLPC  H12B22198   2.770   0.860   6.168 -0.5848  0.6410  0.4521
  192SLPC   C1122199   2.684   0.795   6.358 -0.1240 -0.0487  0.4797
  192SLPC  H11A22200   2.578   0.800   6.323  0.7813  0.0008 -2.5840
  192SLPC  H11B22201   2.688   0.824   6.465  0.0653 -0.1719  0.5049
  192SLPC     P22202   2.835   0.603   6.430 -0.0850  0.0859 -0.0783
  192SLPC   O1322203   2.804   0.461   6.457  0.4175 -0.1279  0.4254
  192SLPC   O1422204   2.972   0.630   6.377 -0.6847  0.0281  0.4913
  192SLPC   O1222205   2.725   0.661   6.332  0.0934 -0.2497  0.2358
  192SLPC   O1122206   2.811   0.678   6.565 -0.9227  0.6246  0.1125
  192SLPC    C122207   2.917   0.751   6.633 -0.6944  0.1761  0.3553
  192SLPC    HA22208   2.987   0.792   6.557  0.7301 -3.1041 -0.2761
  192SLPC    HB22209   2.867   0.839   6.679  0.5492  1.5946 -0.9164
  192SLPC    C222210   2.995   0.663   6.724  0.7095  0.0942  0.7870
  192SLPC    HS22211   3.056   0.600   6.655 -1.3966 -0.3419 -0.7522
  192SLPC   O2122212   2.911   0.595   6.810  0.6104 -0.0103 -0.4575
  192SLPC   C2122213   2.962   0.481   6.860 -0.2262 -0.2892  0.5735
  192SLPC   O2222214   3.072   0.436   6.833 -0.0199 -0.3070  0.2275
  192SLPC   C2222215   2.853   0.408   6.950 -0.0119 -0.4189  0.3033
  192SLPC   H2R22216   2.752   0.452   6.938  0.2568  0.0381 -0.3711
  192SLPC   H2S22217   2.852   0.305   6.908 -1.7301 -0.6940  0.9526
  192SLPC    C322218   3.101   0.745   6.804 -0.3686  0.8509  0.7255
  192SLPC    HX22219   3.126   0.822   6.728 -2.6806  2.5057  1.5148
  192SLPC    HY22220   3.186   0.678   6.828 -0.5828 -0.2371 -1.3527
  192SLPC   O3122221   3.051   0.808   6.922  0.2394 -0.1848  0.8153
  192SLPC   C3122222   3.015   0.934   6.919  0.5426  0.6867  0.5871
  192SLPC   O3222223   3.014   1.002   6.817 -0.3971 -0.2238 -0.8374
  192SLPC   C3222224   2.961   0.979   7.057 -0.0049  0.6369 -0.0385
  192SLPC   H2X22225   3.025   1.068   7.077 -0.3512  0.9550 -0.3365
  192SLPC   H2Y22226   2.973   0.901   7.135  2.1487 -0.5060 -1.4269
  192SLPC   C2322227   2.887   0.393   7.106 -0.1241  0.2782 -0.4658
  192SLPC   H3R22228   2.798   0.383   7.172 -0.0673  0.6239 -0.3335
  192SLPC   H3S22229   2.924   0.493   7.139 -2.3129  1.3023 -0.8892
  192SLPC   C2422230   2.982   0.277   7.139 -0.2618 -0.0097 -0.4134
  192SLPC   H4R22231   3.080   0.291   7.089  0.9139 -3.3290  0.6679
  192SLPC   H4S22232   2.958   0.172   7.110  0.0616 -0.5139  1.0864
  192SLPC   C2522233   2.985   0.278   7.291  0.6390 -0.0971  0.0780
  192SLPC   H5R22234   2.958   0.376   7.335 -2.7967 -0.8636 -0.0922
  192SLPC   H5S22235   3.092   0.260   7.317  0.6139 -2.2068 -1.0827
  192SLPC   C2622236   2.889   0.180   7.364  0.3906 -0.6553  0.0033
  192SLPC   H6R22237   2.899   0.073   7.338 -0.6751 -0.5829 -0.7790
  192SLPC   H6S22238   2.785   0.206   7.337  0.7648 -0.7972 -1.7084
  192SLPC   C2722239   2.899   0.202   7.510  0.4904 -0.4331 -0.1829
  192SLPC   H7R22240   2.850   0.301   7.525 -1.5125 -1.3757 -0.1512
  192SLPC   H7S22241   2.996   0.194   7.563  0.3643 -0.1574  0.0901
  192SLPC   C2822242   2.801   0.106   7.583 -0.8490  0.3594  0.5260
  192SLPC   H8R22243   2.703   0.110   7.532 -0.9880  0.4479  0.7962
  192SLPC   H8S22244   2.778   0.141   7.686 -1.6766 -3.5779  1.8748
  192SLPC   C2922245   2.859  -0.035   7.592  0.0607  0.2992 -0.6720
  192SLPC   H9R22246   2.891  -0.077   7.496 -1.5724  1.5407 -1.8259
  192SLPC  C21022247   2.863  -0.114   7.701 -0.0625  0.2746  0.4334
  192SLPC  H10R22248   2.904  -0.214   7.684  1.0592  1.1782 -2.8816
  192SLPC  C21122249   2.800  -0.082   7.836  0.2908  0.2113 -0.0383
  192SLPC  H11R22250   2.768  -0.174   7.889  1.3870  0.7332  1.6161
  192SLPC  H11S22251   2.715  -0.011   7.822  1.4705  1.2535 -2.3366
  192SLPC  C21222252   2.894   0.002   7.920  0.5771  0.5772 -0.1300
  192SLPC  H12R22253   2.954   0.073   7.860 -0.5428 -0.1390 -2.2001
  192SLPC  C21322254   2.912  -0.002   8.057  0.6566  0.0841  0.6401
  192SLPC  H13R22255   2.985   0.065   8.105  1.4493 -1.8896  2.3237
  192SLPC  C21422256   2.847  -0.101   8.149  0.4126 -0.1490  0.1781
  192SLPC  H14R22257   2.907  -0.192   8.171  0.8638  0.2578  0.6564
  192SLPC  H14S22258   2.743  -0.129   8.122 -0.6507  1.2538  2.4739
  192SLPC  C21522259   2.834  -0.051   8.296  0.2445  0.1795  0.2307
  192SLPC  H15R22260   2.757   0.029   8.286 -0.5503 -0.6363 -0.3156
  192SLPC  H15S22261   2.925  -0.019   8.352 -1.4496  0.3226  3.0623
  192SLPC  C21622262   2.756  -0.149   8.388 -0.2152 -0.4243  0.2931
  192SLPC  H16R22263   2.647  -0.154   8.368 -1.3589  2.9909  4.2974
  192SLPC  H16S22264   2.756  -0.104   8.490  1.5553 -0.1672  0.2112
  192SLPC  C21722265   2.812  -0.292   8.404 -0.3729 -0.7001  0.6580
  192SLPC  H17R22266   2.790  -0.344   8.308  0.1637 -0.8387  0.6111
  192SLPC  H17S22267   2.921  -0.283   8.420 -0.2666  1.9782 -0.8655
  192SLPC  C21822268   2.744  -0.370   8.509 -0.7666  0.4841 -0.3479
  192SLPC  H18R22269   2.639  -0.396   8.485 -0.3634 -2.4998  0.7180
  192SLPC  H18S22270   2.739  -0.312   8.603 -1.4375 -1.3692  0.8221
  192SLPC  H18T22271   2.808  -0.460   8.519  1.3948  1.9629 -0.1564
  192SLPC   C3322272   2.816   1.035   7.047  0.4739 -0.6434  0.2207
  192SLPC   H3X22273   2.822   1.122   6.979 -1.5373  0.1756  1.0156
  192SLPC   H3Y22274   2.808   1.082   7.148 -0.2386  1.5770 -0.8044
  192SLPC   C3422275   2.703   0.941   7.008  0.5938 -0.4220  0.6128
  192SLPC   H4X22276   2.718   0.916   6.901 -3.2012  0.4574 -0.2751
  192SLPC   H4Y22277   2.606   0.994   7.010  1.4042  1.1572  0.0042
  192SLPC   C3522278   2.702   0.809   7.088 -0.5010 -0.4153 -0.3310
  192SLPC   H5X22279   2.791   0.747   7.064 -1.0644 -1.9880  1.3831
  192SLPC   H5Y22280   2.612   0.753   7.053 -1.5234  2.1887 -2.1963
  192SLPC   C3622281   2.679   0.829   7.240 -0.3998 -0.2813 -0.0167
  192SLPC   H6X22282   2.576   0.859   7.268  0.2609  1.2872  0.8427
  192SLPC   H6Y22283   2.751   0.904   7.279 -0.6590 -0.7177  1.3652
  192SLPC   C3722284   2.704   0.694   7.314 -0.3080 -0.7436  0.3303
  192SLPC   H7X22285   2.807   0.655   7.300 -0.5960 -2.3726  2.2479
  192SLPC   H7Y22286   2.631   0.614   7.288  0.1765 -0.8323 -0.8218
  192SLPC   C3822287   2.685   0.702   7.467 -0.0315 -0.4403  0.2381
  192SLPC   H8X22288   2.592   0.759   7.488  1.8554  2.1966  2.1036
  192SLPC   H8Y22289   2.768   0.762   7.510 -1.1387  0.6691  0.9092
  192SLPC   C3922290   2.670   0.564   7.527  0.6012 -1.0080  0.0799
  192SLPC   H9X22291   2.762   0.507   7.502  0.8154 -0.3822 -0.5993
  192SLPC   H9Y22292   2.581   0.510   7.489 -0.6338 -1.0993  2.8446
  192SLPC  C31022293   2.652   0.569   7.679  0.2692 -0.6214 -0.1232
  192SLPC  H10X22294   2.566   0.632   7.710  0.9399 -0.1421  0.8263
  192SLPC  H10Y22295   2.746   0.617   7.714  0.3833 -0.2299 -0.9600
  192SLPC  C31122296   2.644   0.430   7.755  0.4177  0.2066  0.0599
  192SLPC  H11X22297   2.721   0.367   7.704  0.2927  1.7260 -2.1127
  192SLPC  H11Y22298   2.544   0.388   7.734  0.7154 -0.6173  0.2270
  192SLPC  C31222299   2.666   0.431   7.901  0.8652  0.3603 -0.5268
  192SLPC  H12X22300   2.767   0.469   7.929  0.3378  0.1201  1.9175
  192SLPC  H12Y22301   2.660   0.325   7.933  0.5655 -0.5919 -3.4206
  192SLPC  C31322302   2.556   0.511   7.970  0.1313 -0.1856 -0.6470
  192SLPC  H13X22303   2.472   0.522   7.898 -0.2061  0.2623 -0.1880
  192SLPC  H13Y22304   2.601   0.611   7.984  0.5754 -0.5536  0.6709
  192SLPC  C31422305   2.521   0.448   8.108  0.0296  0.0240 -0.2358
  192SLPC  H14X22306   2.477   0.347   8.097 -2.5737  0.8609  1.5092
  192SLPC  H14Y22307   2.443   0.504   8.163 -1.4424 -1.5879 -0.5991
  192SLPC  C31522308   2.647   0.441   8.196  0.4930 -0.3676  0.1164
  192SLPC  H15X22309   2.725   0.372   8.158  0.4086  0.1141 -0.9616
  192SLPC  H15Y22310   2.611   0.395   8.291 -1.7381  0.4452 -0.2690
  192SLPC  C31622311   2.709   0.579   8.242  0.8672  0.0286 -0.5977
  192SLPC  H16X22312   2.745   0.638   8.155 -1.1296  0.8818 -0.9053
  192SLPC  H16Y22313   2.793   0.545   8.306 -0.9783 -2.2277  0.7734
  192SLPC  C31722314   2.606   0.666   8.315  0.8334 -0.4199 -0.5444
  192SLPC  H17X22315   2.579   0.609   8.406  0.9721 -0.2226 -0.3785
  192SLPC  H17Y22316   2.520   0.686   8.249  0.6682  0.6907 -0.0158
  192SLPC  C31822317   2.659   0.806   8.351  0.2045  0.0990  0.7867
  192SLPC  H18X22318   2.686   0.855   8.255 -2.9297  1.1082  0.2952
  192SLPC  H18Y22319   2.741   0.797   8.426 -0.3098  2.0267  1.6537
  192SLPC  H18Z22320   2.578   0.874   8.384 -0.3294 -0.5053  0.7384
  193SOD    SOD22321   2.421   1.613   5.196 -0.0821  0.1939 -1.0570
  194SOD    SOD22322   0.025   2.663   4.551  0.3421 -0.6975 -0.0730
  195SOD    SOD22323   3.633   1.991   3.173  0.0213  0.6646 -0.5857
  196SOD    SOD22324   2.812   5.212   5.976  0.3334  0.1239  0.1954
  197SOD    SOD22325   1.888   0.804   2.842 -0.4403  0.0490 -0.0540
  198SOD    SOD22326   4.230   5.211  11.191  0.3746  0.2259 -0.0058
  199SOD    SOD22327   4.577   1.734   2.384  0.1513  0.1090 -0.3019
  200SOD    SOD22328   4.356   0.763   3.078  0.1209  0.2222 -0.4117
  201SOD    SOD22329   2.445   3.049   2.553 -0.0838 -0.2791  0.3056
  202SOD    SOD22330   4.384   0.228  16.043 -0.2591 -0.1588  0.1844
  203SOD    SOD22331   1.648   3.321   0.270 -0.0866  0.3821  0.1023
  204SOD    SOD22332   3.725   1.994  13.039  0.8441  0.3188  0.3111
  205SOD    SOD22333   5.102   6.716  11.235  0.3400  0.3766  0.5304
  206SOD    SOD22334   1.160   2.757  14.469 -0.1754 -0.1058  0.0671
  207SOD    SOD22335   5.846   3.877   6.162 -0.2412  0.1765  0.1072
  208SOD    SOD22336   6.539   5.853  11.080 -0.0401  0.1201  0.4517
  209SOD    SOD22337   6.771   1.881  12.567 -0.2718  0.3625  0.1327
  210SOD    SOD22338   6.129   5.829  16.515 -0.4591  0.1652  0.6307
  211SOD    SOD22339   1.084   4.460  15.920  0.0284 -0.4056 -0.5369
  212SOD    SOD22340   4.961   4.298  12.021  0.2330 -0.0310 -0.3261
  213SOD    SOD22341   2.782   2.471  11.263  0.0874  0.4544  0.7356
  214SOD    SOD22342   2.967   1.875  15.007  0.0189 -0.2278 -0.3773
  215SOD    SOD22343   5.857   2.495  10.777 -0.1661  0.0572  0.1897
  216SOD    SOD22344   0.741   3.931  12.143 -0.1413 -0.2395 -0.0904
  217SOD    SOD22345   1.861   4.445   4.137 -0.6815 -0.0077 -0.0845
  218SOD    SOD22346   2.614   2.137   4.797  0.2253 -0.2666  0.0138
  219SOD    SOD22347   2.538   2.591  14.794  0.1030  0.0801 -0.1627
  220SOD    SOD22348   1.671   2.917  10.904  0.2994  0.3202  0.1628
  221SOD    SOD22349   2.444   0.656  14.080  0.0638  0.7291 -0.0605
  222SOD    SOD22350   1.311   2.373   5.268 -0.1954 -0.2798 -0.4106
  223SOD    SOD22351   3.374   0.345  11.331 -0.1133 -0.6446 -0.2332
  224SOD    SOD22352   4.910   5.086  13.245  0.7506 -0.0821  0.1500
  225SOD    SOD22353   4.792   0.018   2.836  0.0826 -0.1443  0.0130
  226SOD    SOD22354   3.663   2.039   5.823  0.2258  0.0206  0.2486
  227SOD    SOD22355   3.461   6.101  11.948  0.0966 -0.4211 -0.2251
  228SOD    SOD22356   4.968   0.479   5.272  0.0442  0.1108  0.1046
  229SOD    SOD22357   3.343   0.227  12.707  0.1470 -0.4889  0.4182
  230SOD    SOD22358   4.885   3.544   1.917 -0.1070  0.1882  0.2731
  231SOD    SOD22359   4.424   0.118   0.130  0.1717 -0.5350 -0.0739
  232SOD    SOD22360   0.095   6.173   2.723  0.5389 -0.0151  0.2036
  233SOD    SOD22361   2.474   4.525  12.308  0.1665 -0.1797 -0.2895
  234SOD    SOD22362   0.787   0.463  13.139  0.0837  0.3935  0.0990
  235SOD    SOD22363   5.752   6.159   5.485  0.3300  0.9764  0.1913
  236SOD    SOD22364   0.977   1.808  12.530  0.2530 -0.2332  0.3238
  237SOD    SOD22365   5.150   0.006  16.592  0.3272  0.2695  0.1905
  238SOD    SOD22366   5.084   4.978  10.731  0.0451 -0.2342 -0.0094
  239SOD    SOD22367   0.155   0.969   1.693  0.7625 -0.0668 -0.1213
  240SOD    SOD22368   0.260   4.237   0.915  0.5084 -0.6125 -0.1218
  241SOD    SOD22369   2.318   3.040  12.986 -0.0595 -0.0485 -0.3230
  242SOD    SOD22370   1.440   5.265   3.161  0.3355  0.6281 -0.3204
  243SOD    SOD22371   1.500   5.161   1.145  0.5060  0.3673 -0.0336
  244SOD    SOD22372   0.056   1.547   0.329 -0.1198  0.2471 -0.1312
  245SOD    SOD22373   4.003   4.315  16.375 -0.2041 -0.2478  0.3722
  246SOD    SOD22374   6.526   2.950  13.513 -0.2679 -0.4012  0.0368
  247SOD    SOD22375   3.534   6.070   2.988 -0.3332 -0.3534 -0.2170
  248SOD    SOD22376   4.955   2.928  16.997 -0.2894  0.0029  0.3463
  249SOD    SOD22377   5.521   0.227   1.348 -0.1683  0.0325 -0.2690
  250SOD    SOD22378   1.640   0.230  11.641 -0.0541 -0.0006  0.1870
  251SOD    SOD22379   0.819   0.107   1.715 -0.0633 -0.0121  0.0041
  252SOD    SOD22380   2.382   1.221  10.913 -0.2707 -0.0183  0.5491
  253SOD    SOD22381   3.450   3.991  10.974 -0.0661  0.0409  0.5332
  254SOD    SOD22382   5.970   5.730   6.183  0.3407 -0.0695 -0.2120
  255SOD    SOD22383   4.643   1.853  13.979  0.7559 -0.0914 -0.5262
  256SOD    SOD22384   4.739   2.697   5.547 -0.3565  0.0863 -0.3267
  257SOD    SOD22385   6.829   1.689  16.869  0.2882  0.2425 -0.0640
  258SOD    SOD22386   5.680   2.099  14.603 -0.2702  0.2817 -0.7709
  259SOD    SOD22387   2.014   0.971   5.196  0.2650  0.6304 -0.1950
  260SOD    SOD22388   2.110   4.880  11.562  0.2299 -0.0375  0.1322
  261SOD    SOD22389   3.597   6.579   3.618  0.0558 -0.2354 -0.6872
  262SOD    SOD22390   1.929   0.494   0.876  0.0080 -0.0794 -0.3383
  263SOD    SOD22391   3.965   4.856  15.573  0.0766 -0.2569 -0.1357
  264SOD    SOD22392   4.809   3.163  11.032  0.1359 -0.0889  0.5578
  265SOD    SOD22393   6.073   1.077   5.380  0.1804  0.1490  0.0341
  266CLA    CLA22394   3.323   5.251  12.630 -0.1382  0.0603  0.5842
  267CLA    CLA22395   2.485   2.559   3.205  0.1472  0.0506  0.0540
  268CLA    CLA22396   4.705   3.582  14.887  0.3221 -0.3763 -0.0018
  269CLA    CLA22397   0.388   6.450   0.132  0.2974  0.1084  0.1388
  270CLA    CLA22398   4.013   5.134  15.247 -0.3244  0.1320  0.0543
  271CLA    CLA22399   4.073   4.817  13.226  0.0852  0.1427  0.2500
  272CLA    CLA22400   0.969   0.046  14.974  0.5144  0.1239  0.0454
  273CLA    CLA22401   4.255   0.531   5.121 -0.2665 -0.0943 -0.4164
  274CLA    CLA22402   6.104   1.739  13.270  0.1865 -0.2861 -0.0090
  275CLA    CLA22403   1.183   6.759   1.351 -0.1460  0.0815  0.2371
  276CLA    CLA22404   5.905   2.641  11.313  0.1605  0.0651 -0.1806
  277CLA    CLA22405   3.293   2.672  13.933 -0.0433  0.0425  0.5058
  278CLA    CLA22406   6.597   2.019  15.279  0.4223  0.0896 -0.5337
  279CLA    CLA22407   0.208   0.805   2.554 -0.3347  0.1764  0.1333
  280CLA    CLA22408   2.215   1.747  12.668  0.1912 -0.0002 -0.3274
  281CLA    CLA22409   2.523   3.590   1.944  0.4253  0.3045 -0.1506
  282CLA    CLA22410   1.752   2.825  12.393  0.1830  0.1555  0.5926
  283CLA    CLA22411   3.599   3.906   3.040 -0.5193  0.3238  0.0003
  284CLA    CLA22412   4.895   2.628   2.586 -0.3591 -0.3059 -0.0917
  285CLA    CLA22413   2.460   2.430  13.146  0.0019 -0.0394 -0.0089
  286CLA    CLA22414   0.864   5.859  14.704 -0.0871  0.1346  0.2510
  287CLA    CLA22415   4.641   2.183   3.570  0.5890  0.6495 -0.1771
  288CLA    CLA22416   2.984   3.266  11.957  0.0371  0.1341 -0.1023
  289CLA    CLA22417   3.862   5.759  14.102  0.0044  0.4545 -0.0066
  290CLA    CLA22418   0.307   2.094   4.658 -0.0812  0.2498  0.2008
  291CLA    CLA22419   0.738   1.687   1.790 -0.4337 -0.0722 -0.0063
  292CLA    CLA22420   2.519   1.963   5.465  0.0047 -0.6859 -0.0618
  293CLA    CLA22421   0.586   6.689   0.910 -0.0397 -0.1087 -0.6118
  294CLA    CLA22422   4.155   3.000   1.651 -0.7433 -0.5359 -0.2454
  295CLA    CLA22423   1.694   5.517   0.930 -0.0798  0.2174 -0.3077
  296CLA    CLA22424   0.375   3.830  13.752 -0.0660 -0.1673  0.4490
  297CLA    CLA22425   5.074   2.920   0.291 -0.2226  0.1148  0.1259
  298CLA    CLA22426   3.359   2.380  16.604 -0.1269 -0.4836  0.0442
  299CLA    CLA22427   4.429   0.386   2.766 -0.0583 -0.3692  0.6983
  300CLA    CLA22428   6.309   6.627  11.830  0.6410  0.4178  0.0303
  301CLA    CLA22429   6.439   4.753   3.456  0.1199  0.4020 -0.0867
  302CLA    CLA22430   3.586   6.385   1.708 -0.2782  0.1979  0.7201
  303CLA    CLA22431   2.371   4.035  15.309 -0.0449 -0.3171 -0.5594
  304CLA    CLA22432   2.715   1.803  13.674  0.0747 -0.0766 -0.4045
  305CLA    CLA22433   3.045   1.919   1.465  0.1782 -0.0078 -0.3876
  306CLA    CLA22434   3.370   5.318   4.462  0.0389  0.3306 -0.2125
  307CLA    CLA22435   5.217   4.474  12.521 -0.2001 -0.1514  0.4779
  308CLA    CLA22436   4.595   4.402  11.314 -0.1384  0.3116  0.1183
  309CLA    CLA22437   5.743   3.027   0.709  0.4564  0.2263  0.4666
  310CLA    CLA22438   0.153   0.383  11.702  0.0395 -0.4312 -0.1066
  311CLA    CLA22439   1.367   5.317   2.731  0.3263  0.0580 -0.2371
  312CLA    CLA22440   6.594   2.311   0.861  0.1793  0.1852 -0.3903
  313CLA    CLA22441   5.689   0.140  15.942 -0.0071  0.0162  0.2715
  314CLA    CLA22442   1.257   0.626   0.370  0.4630 -0.6103 -0.2712
  315CLA    CLA22443   2.916   2.248  11.214  0.0918 -0.0559  0.0508
  316CLA    CLA22444   6.836   4.694  16.143  0.1193 -0.0697 -0.5336
  317CLA    CLA22445   4.635   0.013   3.476 -0.2888 -0.0659 -0.0923
  318CLA    CLA22446   0.347   1.988  14.736  0.2560 -0.0001  0.3818
  319TIP3   OH222447   2.074   1.936  13.325  0.4592 -0.1045 -0.0782
  319TIP3    H122448   2.089   1.983  13.407  0.1621 -1.3223  0.6976
  319TIP3    H222449   2.162   1.921  13.290  0.6073  0.1734  0.1721
  320TIP3   OH222450   0.311   5.802  13.418  0.0791  0.0068  0.6128
  320TIP3    H122451   0.344   5.797  13.507  0.7497  0.3810  0.3898
  320TIP3    H222452   0.223   5.838  13.427  0.6451  1.3290  1.0179
  321TIP3   OH222453   5.589   2.570  13.202  0.1522 -0.0241  0.3368
  321TIP3    H122454   5.625   2.649  13.243 -3.1384  1.8301  0.0240
  321TIP3    H222455   5.607   2.581  13.109  0.4614 -0.0780  0.3901
  322TIP3   OH222456   2.664   1.969   3.609 -0.2747 -0.4901 -0.0615
  322TIP3    H122457   2.664   1.875   3.595  0.6872 -0.5190  0.0727
  322TIP3    H222458   2.578   1.988   3.647 -0.2249 -1.4177  0.5418
  323TIP3   OH222459   4.091   5.231  15.815  0.4421 -0.2021 -0.0497
  323TIP3    H122460   4.027   5.170  15.778 -1.1361  0.6618  1.1474
  323TIP3    H222461   4.039   5.305  15.846  1.3925 -1.3042  4.9048
  324TIP3   OH222462   1.488   5.120  11.901 -0.1476 -0.0760  0.5284
  324TIP3    H122463   1.473   5.062  11.826 -0.7505 -0.6999  1.1100
  324TIP3    H222464   1.492   5.208  11.864 -1.6669 -0.2426 -0.1036
  325TIP3   OH222465   0.326   6.766  11.485  0.2610  0.1877 -0.4041
  325TIP3    H122466   0.387   6.834  11.458  1.5506 -0.8450 -0.1959
  325TIP3    H222467   0.266   6.810  11.546  1.6062  0.9504  0.4045
  326TIP3   OH222468   0.640   2.318  12.580  0.0733 -0.3249 -0.5218
  326TIP3    H122469   0.662   2.289  12.668  0.7173  0.6384 -0.3435
  326TIP3    H222470   0.588   2.247  12.543  1.7465 -1.8003 -0.2012
  327TIP3   OH222471   4.067   2.634   3.628 -0.1674  1.2548 -0.2493
  327TIP3    H122472   4.070   2.558   3.686  0.9077  2.0771  0.8045
  327TIP3    H222473   3.978   2.669   3.638 -1.1619 -0.6358 -1.8233
  328TIP3   OH222474   0.615   6.522   1.687 -0.4546  0.3154  0.4997
  328TIP3    H122475   0.586   6.451   1.630  2.3871 -0.0580 -0.6381
  328TIP3    H222476   0.626   6.597   1.628  2.6710 -0.1181  0.3777
  329TIP3   OH222477   1.853   3.710  14.560  0.9826  0.2401  0.1863
  329TIP3    H122478   1.793   3.722  14.634  2.6742 -1.7919  2.0445
  329TIP3    H222479   1.917   3.781  14.571  1.5076 -0.3440  1.0145
  330TIP3   OH222480   4.525   6.190  10.470  0.0825  0.3689  0.1072
  330TIP3    H122481   4.463   6.217  10.402  0.4873 -0.7306 -0.7408
  330TIP3    H222482   4.528   6.094  10.462  1.0001  0.3164  0.9158
  331TIP3   OH222483   0.534   5.920  10.755  0.4157  0.2054  0.2068
  331TIP3    H122484   0.508   6.011  10.739 -0.6845 -0.2676 -0.8502
  331TIP3    H222485   0.577   5.893  10.674 -0.4116 -0.5871  0.0077
  332TIP3   OH222486   3.219   0.371   4.823 -0.1027 -0.3286  0.7051
  332TIP3    H122487   3.235   0.456   4.866 -2.8098 -0.3213  1.9147
  332TIP3    H222488   3.148   0.389   4.761 -3.8950 -2.2800  3.9797
  333TIP3   OH222489   4.027   5.161   5.708 -0.3910 -0.1956 -0.2310
  333TIP3    H122490   4.014   5.208   5.626  1.3577 -0.4628 -0.7086
  333TIP3    H222491   4.047   5.071   5.682 -0.2260 -0.3777  0.5002
  334TIP3   OH222492   6.753   0.675   3.993  0.0629 -0.0817  0.1402
  334TIP3    H122493   6.796   0.590   4.006  0.3674 -0.3414 -2.1271
  334TIP3    H222494   6.782   0.703   3.906 -2.2250  1.0200 -0.3410
  335TIP3   OH222495   4.799   1.938  10.313 -0.1322 -0.0851 -0.0943
  335TIP3    H122496   4.815   1.858  10.364 -2.3474  0.0083  0.8647
  335TIP3    H222497   4.846   2.006  10.360  0.5654 -0.5754 -0.0721
  336TIP3   OH222498   5.808   6.427   1.702 -0.4875 -0.3110 -0.3174
  336TIP3    H122499   5.860   6.394   1.776 -0.8397  0.1738  0.1559
  336TIP3    H222500   5.718   6.429   1.735 -0.6612 -0.1960 -0.7971
  337TIP3   OH222501   5.631   6.595   4.318 -0.0691  0.2929  0.2922
  337TIP3    H122502   5.645   6.514   4.367  0.1329  0.1052 -0.0791
  337TIP3    H222503   5.688   6.659   4.361 -0.0694  0.1886  0.4479
  338TIP3   OH222504   3.184   3.628   2.638 -0.1630 -0.2235 -0.5282
  338TIP3    H122505   3.155   3.712   2.676  0.7800  0.1885 -0.6932
  338TIP3    H222506   3.110   3.600   2.584 -0.5549  0.4268 -0.3506
  339TIP3   OH222507   4.725   3.584   6.121  0.6637  0.0061 -0.0463
  339TIP3    H122508   4.736   3.519   6.190 -1.8584 -0.1819  0.2763
  339TIP3    H222509   4.755   3.540   6.042  1.3866 -0.6195  0.5617
  340TIP3   OH222510   2.618   6.201  12.249 -0.2228 -0.4656 -0.9583
  340TIP3    H122511   2.714   6.205  12.253 -0.2273 -0.0927 -1.1555
  340TIP3    H222512   2.599   6.145  12.174 -0.1621 -1.9370  0.0760
  341TIP3   OH222513   5.205   1.372   3.075 -0.4613  0.0431 -0.2299
  341TIP3    H122514   5.135   1.422   3.034  0.2507  0.3153 -1.1530
  341TIP3    H222515   5.268   1.356   3.004  0.9238  0.7372  0.7978
  342TIP3   OH222516   6.530   5.451  15.521 -0.0469  0.8721 -0.4348
  342TIP3    H122517   6.534   5.463  15.616  1.6668 -2.3397  0.0198
  342TIP3    H222518   6.436   5.444  15.503 -0.3910  1.1408  1.0685
  343TIP3   OH222519   1.200   1.497   5.974 -0.7251  0.4917 -0.8368
  343TIP3    H122520   1.279   1.464   6.017 -1.1410 -0.0075 -0.4387
  343TIP3    H222521   1.141   1.421   5.971 -0.7598  0.5495 -2.1875
  344TIP3   OH222522   4.610   0.959  12.277  0.1262 -0.1945  0.2969
  344TIP3    H122523   4.674   1.029  12.274 -1.6864  1.5587 -2.5851
  344TIP3    H222524   4.544   0.988  12.340 -0.6266  0.7758 -0.9014
  345TIP3   OH222525   1.606   1.369   5.176 -0.0390  0.6300 -0.4046
  345TIP3    H122526   1.568   1.282   5.168 -2.2449  1.4857  0.0263
  345TIP3    H222527   1.674   1.372   5.109  0.7677 -1.7241  0.2141
  346TIP3   OH222528   3.564   5.564   0.436  0.1071  0.2342 -0.4320
  346TIP3    H122529   3.520   5.491   0.392  0.8581 -1.2874  1.2041
  346TIP3    H222530   3.503   5.638   0.427 -2.0247 -1.3247  0.2479
  347TIP3   OH222531   3.969   3.324  12.580  0.0276 -0.8142 -0.3729
  347TIP3    H122532   4.015   3.366  12.653  1.9836 -3.0529 -0.1895
  347TIP3    H222533   4.010   3.361  12.502 -1.0917  0.5435 -0.3518
  348TIP3   OH222534   4.756   6.296   3.923 -0.2877 -0.5497 -0.1009
  348TIP3    H122535   4.837   6.267   3.881  0.4732  0.0394  0.9389
  348TIP3    H222536   4.768   6.277   4.016 -1.2222 -0.1795  0.1104
  349TIP3   OH222537   1.800   4.389   3.208  0.1279  0.0730  0.0316
  349TIP3    H122538   1.815   4.335   3.286 -0.7148  0.9476  0.8223
  349TIP3    H222539   1.873   4.368   3.150  0.8304 -0.5284  1.1008
  350TIP3   OH222540   4.176   4.231  16.209 -0.1651 -0.3773  0.2270
  350TIP3    H122541   4.199   4.178  16.133  3.2393  1.3704 -0.1307
  350TIP3    H222542   4.165   4.168  16.280 -4.3054 -2.1585 -1.6590
  351TIP3   OH222543   4.814   1.814  11.792 -0.3071 -0.4083 -0.1584
  351TIP3    H122544   4.797   1.755  11.866 -2.8358  1.4702  0.9181
  351TIP3    H222545   4.746   1.794  11.729  0.8690 -0.8842 -1.3230
  352TIP3   OH222546   3.260   6.165   3.889 -0.5551 -0.0053  0.2694
  352TIP3    H122547   3.316   6.239   3.910 -1.3237  0.2577  1.4777
  352TIP3    H222548   3.221   6.139   3.973 -0.5039 -1.6128 -0.1584
  353TIP3   OH222549   3.703   1.857  15.797  0.0083  0.3831 -0.5190
  353TIP3    H122550   3.627   1.879  15.743  0.0695  0.0734 -0.7318
  353TIP3    H222551   3.739   1.942  15.824 -0.8513  0.5379  0.2024
  354TIP3   OH222552   2.850   1.310  15.399 -0.0645  0.0413 -0.0816
  354TIP3    H122553   2.939   1.278  15.414 -0.3411 -0.5016  0.4298
  354TIP3    H222554   2.851   1.399  15.433  0.1254 -0.1661  0.4697
  355TIP3   OH222555   4.149   3.718  13.266 -0.2227  0.9291 -0.1169
  355TIP3    H122556   4.140   3.647  13.203  1.2586  0.0471  0.6148
  355TIP3    H222557   4.108   3.794  13.224  2.1595  0.8276 -2.8869
  356TIP3   OH222558   5.069   2.249  13.144  0.2110 -0.3574  0.1763
  356TIP3    H122559   5.163   2.256  13.124  0.5334 -1.1589  1.3232
  356TIP3    H222560   5.052   2.322  13.204  0.2357 -0.5584  0.4285
  357TIP3   OH222561   1.038   2.521   1.303 -0.4703 -0.4045  0.4184
  357TIP3    H122562   1.082   2.474   1.374  0.2799 -0.2398  0.0722
  357TIP3    H222563   1.101   2.588   1.276 -1.4266  0.6525  0.7392
  358TIP3   OH222564   2.458   5.271  16.966  0.0057  0.2420 -0.1467
  358TIP3    H122565   2.502   5.251  17.048  0.4626 -0.6677 -0.5977
  358TIP3    H222566   2.485   5.201  16.906 -0.9763  0.4175 -0.8286
  359TIP3   OH222567   2.850   5.109   1.111  0.8417 -0.4490 -0.0466
  359TIP3    H122568   2.869   5.101   1.018  2.5764  1.7951  0.0099
  359TIP3    H222569   2.888   5.194   1.136  0.4760 -0.9889  2.7176
  360TIP3   OH222570   2.613   0.350   1.240 -0.7983 -0.3568 -0.2831
  360TIP3    H122571   2.599   0.256   1.224 -1.0395 -0.7765  2.0276
  360TIP3    H222572   2.671   0.378   1.169  0.5028 -2.6109 -0.2093
  361TIP3   OH222573   4.794   1.541   2.089  0.1813  0.1091 -0.0517
  361TIP3    H122574   4.822   1.632   2.098 -0.9445  0.3825  0.8848
  361TIP3    H222575   4.840   1.509   2.012  0.8094  1.3900 -0.2226
  362TIP3   OH222576   6.787   0.335   2.027  0.0509  0.3325 -0.2397
  362TIP3    H122577   6.725   0.340   2.099 -0.9884 -1.9388 -0.8715
  362TIP3    H222578   6.857   0.279   2.060  1.4673  2.2889  0.2165
  363TIP3   OH222579   3.357   6.621  13.105 -0.9887  0.0850 -0.3177
  363TIP3    H122580   3.348   6.535  13.146  1.2763 -0.2354 -0.3581
  363TIP3    H222581   3.444   6.652  13.132 -1.0808  1.6419 -1.6183
  364TIP3   OH222582   1.533   4.414   1.352  0.1592 -0.5169  0.0577
  364TIP3    H122583   1.441   4.407   1.379  0.3176  1.5117  1.3026
  364TIP3    H222584   1.579   4.442   1.431  1.3823  1.2993 -1.2396
  365TIP3   OH222585   3.940   5.911  16.790 -0.2099 -0.5147  0.2845
  365TIP3    H122586   3.910   5.914  16.881 -0.2280  0.3005  0.2573
  365TIP3    H222587   3.866   5.872  16.742 -0.4324 -0.3936  0.5250
  366TIP3   OH222588   4.654   5.528   1.033  0.1109  0.1163  0.5111
  366TIP3    H122589   4.698   5.611   1.019 -0.8221  0.2747 -1.8996
  366TIP3    H222590   4.624   5.501   0.946 -2.8160 -0.9179  1.7040
  367TIP3   OH222591   0.226   2.170  10.459 -0.3542 -0.1440  0.3509
  367TIP3    H122592   0.160   2.102  10.474 -0.4575 -0.6727 -2.0665
  367TIP3    H222593   0.309   2.124  10.465 -0.4529 -1.3374 -4.0432
  368TIP3   OH222594   2.499   2.579   4.202 -0.0990 -0.2840  0.2129
  368TIP3    H122595   2.425   2.632   4.172 -0.6514 -2.5800 -3.0990
  368TIP3    H222596   2.568   2.597   4.138 -0.4741 -3.6824 -1.3402
  369TIP3   OH222597   1.136   1.104   4.882 -0.3409  0.0567  0.1268
  369TIP3    H122598   1.129   1.142   4.970 -1.2815  0.5639 -0.1473
  369TIP3    H222599   1.108   1.013   4.894 -1.6333  0.4277  0.1769
  370TIP3   OH222600   5.198   5.436  16.363  0.1006 -0.3580 -0.5624
  370TIP3    H122601   5.179   5.527  16.342 -1.3247 -0.6634 -0.7039
  370TIP3    H222602   5.119   5.388  16.338 -0.1502 -1.2963  1.7696
  371TIP3   OH222603   1.005   5.406  16.949  0.7204 -0.1568  0.0491
  371TIP3    H122604   0.929   5.424  16.895  0.9170 -2.1733 -0.9971
  371TIP3    H222605   1.080   5.423  16.892  0.9356 -1.8814 -0.2500
  372TIP3   OH222606   2.302   1.289  10.710  0.4032 -0.4960  0.1361
  372TIP3    H122607   2.215   1.329  10.721  0.0696 -1.3838  0.8157
  372TIP3    H222608   2.357   1.362  10.680 -0.7195 -0.0785 -1.0356
  373TIP3   OH222609   6.407   0.668   4.899 -0.1457  0.6435 -0.0292
  373TIP3    H122610   6.487   0.637   4.858  0.0830  1.0606  0.0947
  373TIP3    H222611   6.411   0.634   4.988  0.1192  1.0458  0.1156
  374TIP3   OH222612   4.922   4.040  11.943 -0.1944 -0.4844 -0.2662
  374TIP3    H122613   4.966   3.977  12.001  0.5198 -0.8584 -1.1827
  374TIP3    H222614   4.926   3.999  11.857 -0.2972  0.5311 -0.7655
  375TIP3   OH222615   5.960   3.404  17.123  0.1880  0.0807 -0.9320
  375TIP3    H122616   5.985   3.333  17.064 -0.4909 -1.4689  0.5507
  375TIP3    H222617   5.887   3.447  17.079 -0.1623 -0.9067 -1.3619
  376TIP3   OH222618   3.886   3.813   3.485 -0.3312  0.5837 -0.3498
  376TIP3    H122619   3.860   3.733   3.439 -0.5727  0.4815 -0.0431
  376TIP3    H222620   3.804   3.855   3.509 -0.2660 -0.1712  1.3617
  377TIP3   OH222621   0.793   3.652   0.588 -0.4290  0.5969 -0.1321
  377TIP3    H122622   0.718   3.599   0.559 -1.4432  0.6842  2.0776
  377TIP3    H222623   0.796   3.639   0.683  2.3610  0.6657 -0.1313
  378TIP3   OH222624   5.289   1.486  12.959  0.2498 -0.0013 -0.9898
  378TIP3    H122625   5.197   1.503  12.936 -0.7361  0.7803  2.8430
  378TIP3    H222626   5.322   1.571  12.987  0.6061 -1.0166  2.0733
  379TIP3   OH222627   3.943   0.496  15.437 -0.6506  0.0507 -1.3008
  379TIP3    H122628   3.888   0.451  15.501  0.3868  0.5676 -0.0173
  379TIP3    H222629   4.014   0.435  15.418 -0.2052  0.4286 -0.8911
  380TIP3   OH222630   0.234   3.255  16.381 -0.0151  0.3597  0.0173
  380TIP3    H122631   0.166   3.193  16.408 -0.7821  0.1929 -2.0370
  380TIP3    H222632   0.314   3.224  16.423 -0.1078 -2.8130 -1.8367
  381TIP3   OH222633   5.603   2.571  16.763 -0.1735  0.3909 -0.1059
  381TIP3    H122634   5.684   2.521  16.772  0.0940  1.0909  1.9564
  381TIP3    H222635   5.535   2.505  16.750  0.2188 -0.5679  2.2322
  382TIP3   OH222636   2.220   1.107  15.205 -0.0589  0.5029  0.1268
  382TIP3    H122637   2.262   1.111  15.291  1.0971  0.1788 -0.4047
  382TIP3    H222638   2.291   1.085  15.145 -0.8000  0.9971 -0.9534
  383TIP3   OH222639   6.262   5.056  11.368 -0.5020  0.8849  0.4167
  383TIP3    H122640   6.285   5.045  11.275 -5.1901  2.9451 -1.2979
  383TIP3    H222641   6.236   4.969  11.396 -0.5929  0.5122 -0.7492
  384TIP3   OH222642   2.024   4.264   1.387  0.5061 -0.5218  0.2325
  384TIP3    H122643   1.996   4.215   1.465 -1.6858 -1.1748 -0.8765
  384TIP3    H222644   2.101   4.217   1.357 -0.0720 -1.7882  0.6397
  385TIP3   OH222645   0.730   3.112   2.510 -0.1921 -0.3256  0.3832
  385TIP3    H122646   0.813   3.097   2.465 -0.8275 -0.7165 -0.6907
  385TIP3    H222647   0.754   3.160   2.590  0.9461  0.5630 -0.4557
  386TIP3   OH222648   4.689   0.128  13.344 -0.3426 -1.1095  0.5797
  386TIP3    H122649   4.594   0.129  13.354 -0.4827  1.4266 -0.1802
  386TIP3    H222650   4.704   0.141  13.250  0.7196  0.0470  0.8755
  387TIP3   OH222651   0.636   5.158   5.857  0.2907 -0.3327 -0.1694
  387TIP3    H122652   0.677   5.211   5.925  1.0610 -1.5347  0.3314
  387TIP3    H222653   0.555   5.126   5.896  0.4576 -0.5644 -0.0092
  388TIP3   OH222654   3.673   6.689   2.965 -0.0704 -0.0742 -0.7315
  388TIP3    H122655   3.744   6.753   2.953  1.6405 -1.7346  0.0934
  388TIP3    H222656   3.651   6.661   2.877 -1.2193  1.9603 -1.1635
  389TIP3   OH222657   6.382   3.914  14.016  0.0251 -0.2715  0.0021
  389TIP3    H122658   6.451   3.896  13.952 -0.8817 -0.7121 -0.8722
  389TIP3    H222659   6.327   3.835  14.015 -0.0207 -0.2825  1.3190
  390TIP3   OH222660   4.462   3.453  15.040 -0.3234  0.8563 -0.1964
  390TIP3    H122661   4.508   3.416  15.116 -0.1293 -1.1812 -1.2506
  390TIP3    H222662   4.531   3.487  14.984  0.2636 -3.2053 -2.3206
  391TIP3   OH222663   6.003   3.859  13.845 -0.0434 -0.0421 -0.3038
  391TIP3    H122664   6.012   3.848  13.751  0.7440 -1.5580 -0.0963
  391TIP3    H222665   5.926   3.914  13.857 -0.6196 -0.5030 -1.8015
  392TIP3   OH222666   1.077   2.067  17.033  0.0131  0.0491  0.2578
  392TIP3    H122667   1.000   2.018  17.006 -0.0008 -0.6741  1.5326
  392TIP3    H222668   1.100   2.120  16.956 -1.6981  0.2424 -0.1549
  393TIP3   OH222669   2.374   0.808   3.276 -0.0832  0.0248 -0.7101
  393TIP3    H122670   2.322   0.727   3.270 -0.2701  0.1599 -0.9391
  393TIP3    H222671   2.465   0.778   3.272 -0.1550 -0.1164 -1.7513
  394TIP3   OH222672   2.501   1.195   3.775  0.1521 -0.1613 -0.3354
  394TIP3    H122673   2.471   1.104   3.782 -1.1666  0.3378  0.8425
  394TIP3    H222674   2.491   1.216   3.682  1.4308 -1.5034 -0.8276
  395TIP3   OH222675   5.720   1.307   1.921  0.0521  0.5705  0.2067
  395TIP3    H122676   5.744   1.382   1.865  0.0510  0.2951 -0.1681
  395TIP3    H222677   5.723   1.232   1.862 -1.6686  0.5077  0.1747
  396TIP3   OH222678   0.296   1.615   4.654 -0.1095 -0.2108 -0.1734
  396TIP3    H122679   0.205   1.641   4.670  0.1763  0.8713 -0.2653
  396TIP3    H222680   0.314   1.547   4.719 -0.0430  1.6727  1.8625
  397TIP3   OH222681   2.267   1.883  14.379  0.0137  0.1750  0.5898
  397TIP3    H122682   2.207   1.938  14.430 -0.9794  0.4826 -0.8364
  397TIP3    H222683   2.209   1.832  14.322  1.0950  0.8864 -1.2406
  398TIP3   OH222684   6.214   3.021   2.891 -0.7101  0.1181 -0.2748
  398TIP3    H122685   6.227   3.044   2.799  1.1917 -0.9380 -0.3286
  398TIP3    H222686   6.158   3.090   2.925 -2.2175  0.0651 -2.4218
  399TIP3   OH222687   5.387   4.397   5.496 -0.2983 -1.1330  0.1410
  399TIP3    H122688   5.387   4.303   5.481 -0.3014 -1.1946  0.5228
  399TIP3    H222689   5.358   4.407   5.587 -0.1593 -0.7731  0.1473
  400TIP3   OH222690   3.023   1.115  12.794  0.0780  0.0806 -0.4183
  400TIP3    H122691   3.067   1.193  12.762  0.3008 -0.1833 -0.7569
  400TIP3    H222692   2.966   1.147  12.864  1.3998  0.3240  0.5915
  401TIP3   OH222693   4.234   5.040   1.748  0.2614 -0.1957  0.1323
  401TIP3    H122694   4.150   5.076   1.717 -0.0529 -0.5055  0.6032
  401TIP3    H222695   4.289   5.117   1.761  0.6391 -0.0972 -1.8243
  402TIP3   OH222696   2.297   1.553  16.996  0.3134 -0.5201  0.4497
  402TIP3    H122697   2.382   1.566  16.953  0.6710 -1.0234  0.9879
  402TIP3    H222698   2.319   1.515  17.081 -0.5041 -1.7859  0.1240
  403TIP3   OH222699   1.265   0.200   1.495  0.2461  0.9006  0.6921
  403TIP3    H122700   1.302   0.270   1.442  0.0236  0.7057  0.2777
  403TIP3    H222701   1.232   0.136   1.432  0.3144  0.4887  1.0655
  404TIP3   OH222702   4.763   4.221   6.053 -0.6156  0.6727 -0.1229
  404TIP3    H122703   4.690   4.169   6.086 -0.2572  1.6707  2.5446
  404TIP3    H222704   4.834   4.158   6.040 -1.0620  0.0994  0.2094
  405TIP3   OH222705   4.984   3.549   0.729  0.0257 -0.0015  0.7690
  405TIP3    H122706   5.024   3.469   0.762 -1.0819 -1.0176 -0.2593
  405TIP3    H222707   4.890   3.534   0.738 -0.2281  0.6550 -0.6129
  406TIP3   OH222708   2.677   0.158   5.618  0.3322 -0.2348 -0.3135
  406TIP3    H122709   2.583   0.162   5.600 -0.0337  2.8106  1.6403
  406TIP3    H222710   2.716   0.137   5.533 -1.9562  1.3205 -1.8582
  407TIP3   OH222711   3.743   6.021   1.259  0.5371  0.5737 -0.1015
  407TIP3    H122712   3.677   6.008   1.191 -0.1577  0.5096  0.5737
  407TIP3    H222713   3.825   6.032   1.211  0.5072 -2.0411 -0.8871
  408TIP3   OH222714   3.209   5.586  12.045  0.0590  0.9613  0.2197
  408TIP3    H122715   3.170   5.673  12.031 -1.0574  0.7700  1.9105
  408TIP3    H222716   3.168   5.553  12.124 -2.8221 -2.9357 -2.4829
  409TIP3   OH222717   5.457   5.084   0.719  0.0581 -0.5503 -0.0673
  409TIP3    H122718   5.510   5.142   0.664  0.2423 -0.9078 -0.2649
  409TIP3    H222719   5.498   5.087   0.805  0.0215 -0.3292 -0.0562
  410TIP3   OH222720   5.327   4.604  13.594 -0.6592 -0.4488  0.0111
  410TIP3    H122721   5.300   4.677  13.650 -0.5358 -0.8998  0.6760
  410TIP3    H222722   5.253   4.588  13.537 -1.0182 -0.3648  0.4497
  411TIP3   OH222723   2.815   1.020  16.591 -0.6643 -0.6944 -0.1257
  411TIP3    H122724   2.773   1.091  16.639 -1.1984 -0.9847 -0.1548
  411TIP3    H222725   2.756   1.001  16.518 -0.6638 -1.3373  0.0315
  412TIP3   OH222726   3.636   5.378  11.742  1.0757  0.1085 -0.6118
  412TIP3    H122727   3.545   5.387  11.716  1.1393 -1.4426 -1.4989
  412TIP3    H222728   3.633   5.342  11.831  0.8078 -1.2255 -1.1540
  413TIP3   OH222729   3.834   6.536   5.964  0.1347 -0.4899  0.1182
  413TIP3    H122730   3.784   6.509   6.040 -0.9519  1.7972  0.3017
  413TIP3    H222731   3.772   6.531   5.891  0.6300 -0.8847 -0.2821
  414TIP3   OH222732   6.039   1.586   5.988 -0.1397  0.0194 -0.5484
  414TIP3    H122733   5.970   1.549   5.932 -0.6539  0.7537 -0.4163
  414TIP3    H222734   5.995   1.654   6.038  0.1496 -1.0585  1.2669
  415TIP3   OH222735   4.191   1.691   5.996 -0.2591  0.1027 -0.6699
  415TIP3    H122736   4.127   1.670   6.063  1.2533 -0.7733  0.5751
  415TIP3    H222737   4.275   1.693   6.043  0.6612  0.9833 -2.2648
  416TIP3   OH222738   5.662   3.451  11.910 -0.2982 -0.5150  0.2021
  416TIP3    H122739   5.749   3.486  11.890 -1.0351  1.0730 -0.3576
  416TIP3    H222740   5.635   3.407  11.830 -0.1111 -0.8071  0.2976
  417TIP3   OH222741   3.422   2.330  12.591 -0.9497 -0.0303 -0.0060
  417TIP3    H122742   3.411   2.235  12.585 -0.3770 -0.1445  0.6015
  417TIP3    H222743   3.342   2.361  12.635 -0.6776 -0.3589  0.7317
  418TIP3   OH222744   5.473   0.467   2.289  0.0764  0.2496 -0.0884
  418TIP3    H122745   5.488   0.399   2.356 -0.9065 -0.1256 -0.2188
  418TIP3    H222746   5.540   0.533   2.306  0.6693 -0.4689  0.4359
  419TIP3   OH222747   4.511   5.782   4.393  0.4415  0.1168  0.3559
  419TIP3    H122748   4.586   5.732   4.425  0.7243  0.5139  0.3226
  419TIP3    H222749   4.547   5.869   4.374 -0.0763  0.3853  0.5828
  420TIP3   OH222750   4.506   1.188  16.697  0.4222 -0.6849  0.1618
  420TIP3    H122751   4.467   1.101  16.704 -1.1528 -0.0449 -0.3007
  420TIP3    H222752   4.573   1.178  16.629 -0.5618 -1.2799 -0.7582
  421TIP3   OH222753   6.784   4.248   0.062 -0.2734 -0.5594 -0.5747
  421TIP3    H122754   6.831   4.301   0.126 -1.8200 -1.1666  1.1405
  421TIP3    H222755   6.692   4.266   0.078 -0.7457  0.7612 -3.9808
  422TIP3   OH222756   3.435   4.703  13.213  0.2584  0.2444 -0.2633
  422TIP3    H122757   3.371   4.766  13.245  0.9900  0.0345  1.7131
  422TIP3    H222758   3.430   4.711  13.117 -1.0976  1.8272 -0.1064
  423TIP3   OH222759   0.241   3.039  12.207 -0.0894 -0.0609  0.0932
  423TIP3    H122760   0.299   3.106  12.172 -1.5024  0.9393 -0.4398
  423TIP3    H222761   0.208   2.993  12.130 -0.5056 -0.1905  0.3452
  424TIP3   OH222762   0.615   4.919   5.202  0.2941  0.2092  0.1235
  424TIP3    H122763   0.648   4.958   5.282  1.3784  0.5505 -0.4655
  424TIP3    H222764   0.530   4.882   5.226  0.4484  0.6021  1.3313
  425TIP3   OH222765   2.151   3.517   5.665 -0.0194 -0.0822 -0.1941
  425TIP3    H122766   2.194   3.565   5.736  0.0540 -1.8437  1.0080
  425TIP3    H222767   2.212   3.524   5.592 -0.1796  1.9214 -0.1887
  426TIP3   OH222768   6.805   2.468   0.482 -0.4566  0.0319 -0.1988
  426TIP3    H122769   6.829   2.376   0.472 -0.2021  0.0862 -0.0991
  426TIP3    H222770   6.874   2.516   0.436 -0.1561  0.2053  0.4216
  427TIP3   OH222771   1.715   3.513  12.166  0.0765 -0.2400  0.0803
  427TIP3    H122772   1.750   3.441  12.218 -0.2155 -2.1208 -2.1370
  427TIP3    H222773   1.638   3.476  12.123  0.3387  1.1318 -1.7154
  428TIP3   OH222774   0.610   5.930  16.638  0.2094  0.3023  0.0522
  428TIP3    H122775   0.588   6.005  16.693 -2.0635 -0.5300  0.3642
  428TIP3    H222776   0.595   5.961  16.548 -0.0319  0.4459  0.1402
  429TIP3   OH222777   2.283   3.614  15.626  0.0164 -0.0930 -0.1358
  429TIP3    H122778   2.204   3.572  15.662 -1.2199  1.9155 -0.3326
  429TIP3    H222779   2.250   3.668  15.555  1.1765  2.7177  1.3287
  430TIP3   OH222780   0.072   1.755  10.779  0.3854 -0.0598 -0.1192
  430TIP3    H122781  -0.019   1.779  10.764  1.0978  1.5067 -2.3253
  430TIP3    H222782   0.079   1.666  10.746  0.0678  0.5110 -1.7824
  431TIP3   OH222783   6.165   0.183  17.027 -0.6298  0.0144  0.1328
  431TIP3    H122784   6.171   0.279  17.031 -1.2702  0.0657 -0.0367
  431TIP3    H222785   6.084   0.162  17.073 -0.2335 -0.4895  0.6127
  432TIP3   OH222786   4.665   6.440   2.122  0.3649 -0.0823  0.7331
  432TIP3    H122787   4.675   6.382   2.046 -0.2471  1.6698 -0.7877
  432TIP3    H222788   4.651   6.527   2.083 -2.2455  0.5454  2.7911
  433TIP3   OH222789   6.733   1.672  11.699 -0.8130 -0.2343  0.5490
  433TIP3    H122790   6.639   1.653  11.691 -0.8283 -0.1242  0.4622
  433TIP3    H222791   6.775   1.587  11.705 -0.7669 -0.3494 -1.0577
  434TIP3   OH222792   0.097   6.704   2.997 -0.1825 -0.1225 -0.3683
  434TIP3    H122793   0.133   6.731   2.912  1.3583 -1.5700 -0.2094
  434TIP3    H222794   0.173   6.687   3.051 -1.0635 -2.7547  0.1733
  435TIP3   OH222795   3.274   5.473   2.077 -0.1644 -0.8523  0.3168
  435TIP3    H122796   3.248   5.516   2.158 -0.6471 -0.6802  0.0788
  435TIP3    H222797   3.218   5.395   2.073  0.0655 -1.0161  0.2968
  436TIP3   OH222798   2.258   4.813   1.010  0.1225  0.4702 -0.0550
  436TIP3    H122799   2.343   4.833   0.973  0.8989 -1.4920  0.5473
  436TIP3    H222800   2.266   4.834   1.103  0.1498 -0.2137  0.1063
  437TIP3   OH222801   5.599   5.561  12.792 -0.1583  0.0901 -0.2439
  437TIP3    H122802   5.674   5.574  12.851  1.5909 -3.9979 -1.2226
  437TIP3    H222803   5.637   5.566  12.704 -1.5028  0.1215 -0.8389
  438TIP3   OH222804   3.429   2.530   1.207  0.0650 -0.0578 -0.3068
  438TIP3    H122805   3.478   2.580   1.142 -0.0257 -1.1375 -1.2334
  438TIP3    H222806   3.412   2.446   1.165 -1.9669  0.0214  0.2466
  439TIP3   OH222807   2.079   1.943   1.655 -0.3361  0.2859  0.2411
  439TIP3    H122808   2.162   1.935   1.702  0.5746 -0.1404 -1.3582
  439TIP3    H222809   2.027   1.869   1.687  0.9642 -1.1062 -0.7338
  440TIP3   OH222810   1.008   3.219  15.900  0.9067  0.5990  0.5163
  440TIP3    H122811   0.968   3.229  15.813 -1.1822 -0.8723  1.2086
  440TIP3    H222812   1.102   3.218  15.883  0.7631  3.6488 -1.3151
  441TIP3   OH222813   3.402   5.135   1.914 -0.5910  0.0104 -0.3081
  441TIP3    H122814   3.351   5.109   1.991 -0.0681 -0.3732 -0.0838
  441TIP3    H222815   3.400   5.058   1.857 -0.0172 -0.1170 -0.1638
  442TIP3   OH222816   0.914   0.640   1.710 -0.4049  0.2163 -0.2085
  442TIP3    H122817   0.878   0.705   1.650 -2.0025 -0.8775 -0.5259
  442TIP3    H222818   0.940   0.689   1.788 -1.9256  1.1838 -0.2805
  443TIP3   OH222819   6.036   5.775  14.049 -0.2204 -0.1884  0.3977
  443TIP3    H122820   6.034   5.871  14.058 -0.0070  0.0495 -1.6202
  443TIP3    H222821   6.105   5.747  14.109  0.1078  0.9811  0.5923
  444TIP3   OH222822   2.351   3.300  12.075 -0.1556  0.0412  0.0573
  444TIP3    H122823   2.404   3.235  12.121  1.8107  0.6448 -1.1923
  444TIP3    H222824   2.262   3.264  12.076  0.0370 -0.5715  3.0802
  445TIP3   OH222825   6.673   5.816  11.893  0.3213 -0.2524 -0.1955
  445TIP3    H122826   6.607   5.870  11.849  1.3683 -0.2951 -1.8897
  445TIP3    H222827   6.640   5.807  11.983 -2.2155 -0.6380 -1.0781
  446TIP3   OH222828   4.493   1.578   0.071 -0.0715  0.1591 -0.3012
  446TIP3    H122829   4.475   1.489   0.040 -0.6451 -0.4574  1.6806
  446TIP3    H222830   4.515   1.568   0.163 -2.1049  2.2436  0.5194
  447TIP3   OH222831   0.415   2.970  14.184 -0.0082 -0.0343  0.2546
  447TIP3    H122832   0.435   2.941  14.095 -0.1991 -2.8062  1.0197
  447TIP3    H222833   0.351   3.040  14.172 -1.5979 -1.7041 -1.7870
  448TIP3   OH222834   1.271   3.094  15.256  0.1503  0.6640  0.5884
  448TIP3    H122835   1.191   3.135  15.223 -0.5089 -0.9597  0.0703
  448TIP3    H222836   1.335   3.107  15.186  0.2319  1.5649  0.8131
  449TIP3   OH222837   4.011   4.087   3.494  0.0553  0.3321  0.3964
  449TIP3    H122838   3.996   3.993   3.505  1.0895  0.0423 -0.3892
  449TIP3    H222839   3.951   4.113   3.424  0.2128  0.1003  0.1701
  450TIP3   OH222840   6.277   5.435  11.826 -0.9407 -0.3659 -0.2917
  450TIP3    H122841   6.224   5.379  11.768 -1.3985 -0.3339  0.0935
  450TIP3    H222842   6.268   5.523  11.789 -4.1595  0.3236  1.8102
  451TIP3   OH222843   2.811   1.841   0.257 -0.3948  0.0536  0.6596
  451TIP3    H122844   2.791   1.931   0.232  2.1235  0.1770 -1.3961
  451TIP3    H222845   2.833   1.845   0.350  1.4255  1.9649  0.2154
  452TIP3   OH222846   2.088   5.947   2.598  0.0557 -0.1382 -0.0756
  452TIP3    H122847   2.144   5.991   2.663  0.2333  0.6852 -0.7658
  452TIP3    H222848   2.147   5.888   2.551 -0.5314 -2.6568  2.1033
  453TIP3   OH222849   3.962   3.868  16.554 -0.1756  0.3435 -0.2246
  453TIP3    H122850   3.931   3.798  16.497  1.7177  0.8407 -1.9994
  453TIP3    H222851   4.057   3.854  16.560  0.1246  2.2339  0.0586
  454TIP3   OH222852   0.361   1.720  16.760  0.3015 -0.0654 -0.4924
  454TIP3    H122853   0.310   1.792  16.797  0.4968  0.2757 -0.8786
  454TIP3    H222854   0.352   1.731  16.665 -1.2326 -1.6473 -0.5999
  455TIP3   OH222855   4.481   3.039  12.021  0.0990  0.1938  0.3791
  455TIP3    H122856   4.574   3.016  12.019 -0.3518 -1.9173  1.0164
  455TIP3    H222857   4.441   2.985  11.953 -0.8691 -0.0716  1.1359
  456TIP3   OH222858   3.164   1.456  15.915  0.0301  0.0552 -0.0833
  456TIP3    H122859   3.109   1.403  15.972 -2.3492 -0.0005 -2.2193
  456TIP3    H222860   3.101   1.504  15.860  2.1157 -0.0911 -2.7832
  457TIP3   OH222861   1.036   3.908   1.787  0.4322  0.4648  0.1045
  457TIP3    H122862   1.047   3.886   1.694  1.3482  0.8769  0.1066
  457TIP3    H222863   0.950   3.949   1.791 -0.5432 -1.4134 -0.2017
  458TIP3   OH222864   1.870   4.252   5.570  0.0850  0.6598  0.0524
  458TIP3    H122865   1.851   4.159   5.580  0.2600  0.8122  2.1062
  458TIP3    H222866   1.964   4.259   5.586 -0.3672  1.4988  2.7966
  459TIP3   OH222867   3.637   5.892  14.472 -0.3703 -0.2835  0.1001
  459TIP3    H122868   3.581   5.868  14.397 -0.1168  0.7449 -0.4360
  459TIP3    H222869   3.576   5.903  14.545 -0.4907 -2.6422  0.4250
  460TIP3   OH222870   1.946   6.447   2.825 -0.3247  0.3128 -0.0562
  460TIP3    H122871   1.917   6.408   2.742  2.1687  0.7406 -1.2029
  460TIP3    H222872   1.967   6.372   2.881 -1.0065  0.0307 -0.1601
  461TIP3   OH222873   4.143   1.555  16.979  0.2981  0.9654 -0.0638
  461TIP3    H122874   4.179   1.573  17.066 -0.0071  2.2117 -0.1812
  461TIP3    H222875   4.188   1.616  16.921  0.0516  0.5702 -0.6803
  462TIP3   OH222876   3.442   2.725   0.846 -0.4951  0.7561  0.4541
  462TIP3    H122877   3.456   2.798   0.907  1.6024  0.7442  0.0625
  462TIP3    H222878   3.510   2.662   0.869  1.0424  1.1670 -2.4654
  463TIP3   OH222879   1.087   6.160   3.304 -0.5654 -0.0999  0.1064
  463TIP3    H122880   1.149   6.092   3.331  3.0906  1.2569 -3.7182
  463TIP3    H222881   1.101   6.231   3.367  2.5353  0.4110 -0.9662
  464TIP3   OH222882   3.616   5.214   2.208  0.0365  0.0490 -0.2288
  464TIP3    H122883   3.586   5.304   2.220  0.1094  0.3121 -1.8082
  464TIP3    H222884   3.536   5.162   2.205 -0.0201  0.0963  0.3316
  465TIP3   OH222885   4.777   4.111  15.781 -0.6118 -0.1935  0.3422
  465TIP3    H122886   4.753   4.079  15.694  0.1837  0.7457 -0.2304
  465TIP3    H222887   4.824   4.038  15.821  2.3721  0.6064 -1.4517
  466TIP3   OH222888   0.837   6.576  13.531  0.5082  0.0466  0.5640
  466TIP3    H122889   0.903   6.508  13.544  0.4746  0.3859  3.0194
  466TIP3    H222890   0.874   6.654  13.571  0.0591  1.2121 -1.1741
  467TIP3   OH222891   0.162   6.756   0.446 -0.6143 -0.7115  0.4795
  467TIP3    H122892   0.117   6.830   0.486  1.2799 -0.6896  2.8443
  467TIP3    H222893   0.220   6.724   0.515  3.7878 -0.0533 -2.4574
  468TIP3   OH222894   0.153   4.132   1.416  0.2087 -0.0451  0.3725
  468TIP3    H122895   0.075   4.180   1.389 -0.6380 -1.6365 -0.1470
  468TIP3    H222896   0.125   4.084   1.494  1.3935  1.2038  1.6225
  469TIP3   OH222897   1.169   2.452  12.769  0.1144  0.6128 -0.0432
  469TIP3    H122898   1.117   2.378  12.736 -1.0249  1.3337  0.0809
  469TIP3    H222899   1.176   2.435  12.863  0.4580  0.3103 -0.1198
  470TIP3   OH222900   0.410   6.121   3.472  0.2192  0.6877  0.0093
  470TIP3    H122901   0.373   6.058   3.410 -1.2368  0.4087  1.1055
  470TIP3    H222902   0.401   6.206   3.428  0.9468  0.2996 -0.9179
  471TIP3   OH222903   6.103   4.822  13.367  0.3538 -0.2098  0.5034
  471TIP3    H122904   6.065   4.827  13.454  0.8878  0.5833  0.7101
  471TIP3    H222905   6.163   4.897  13.363  0.3653 -0.2534 -0.5279
  472TIP3   OH222906   3.844   1.719   5.214 -0.0708 -0.6521  0.1870
  472TIP3    H122907   3.904   1.767   5.156  1.6248 -1.3797  1.2533
  472TIP3    H222908   3.828   1.636   5.169  0.9101 -1.0450  0.5299
  473TIP3   OH222909   1.769   5.128  13.946  0.4280 -0.2451 -0.7126
  473TIP3    H122910   1.811   5.076  13.877  2.0284 -0.1844  0.1595
  473TIP3    H222911   1.829   5.202  13.959 -0.8123  0.7520 -0.5547
  474TIP3   OH222912   2.529   2.183  12.005  0.1271 -0.0076  0.0525
  474TIP3    H122913   2.509   2.182  12.098 -1.0001 -0.6479 -0.1821
  474TIP3    H222914   2.518   2.093  11.976  0.6686  0.1401 -0.6664
  475TIP3   OH222915   3.432   5.326   5.996  0.2289 -0.5010  0.3154
  475TIP3    H122916   3.381   5.308   6.075  0.0300 -0.4208  0.2057
  475TIP3    H222917   3.523   5.315   6.023  0.3775  2.4027  1.3671
  476TIP3   OH222918   1.272   3.145   3.458 -0.0701 -0.0099 -0.3995
  476TIP3    H122919   1.300   3.055   3.442 -0.5617 -0.1071 -0.7399
  476TIP3    H222920   1.177   3.143   3.447 -0.3896  0.0688  1.8697
  477TIP3   OH222921   1.185   4.798   3.893 -0.6357 -0.8244 -0.0578
  477TIP3    H122922   1.109   4.836   3.936 -1.1656 -0.7672 -1.0123
  477TIP3    H222923   1.156   4.781   3.803  0.6744 -0.1659 -0.6363
  478TIP3   OH222924   4.993   4.909   3.602 -0.2912 -0.3124 -0.6362
  478TIP3    H122925   5.020   4.821   3.576 -2.6097 -1.1174 -0.5401
  478TIP3    H222926   5.011   4.913   3.695  1.4232 -0.0167 -0.9485
  479TIP3   OH222927   6.225   3.868   0.202  0.3643  0.2162 -0.5294
  479TIP3    H122928   6.167   3.876   0.126 -2.5515 -0.4000  1.4541
  479TIP3    H222929   6.222   3.775   0.225  1.5561  0.3081  0.1052
  480TIP3   OH222930   6.680   3.803   3.574 -0.0888  0.4817 -0.1077
  480TIP3    H122931   6.767   3.798   3.534 -0.7878 -0.5786 -1.6140
  480TIP3    H222932   6.693   3.773   3.664  0.8251 -1.5211 -0.8334
  481TIP3   OH222933   5.953   5.958   6.112 -0.4837  0.3057  0.1909
  481TIP3    H122934   5.874   5.999   6.145 -0.4335 -0.4141  1.2512
  481TIP3    H222935   6.016   6.030   6.103 -0.9145  0.7096  0.4018
  482TIP3   OH222936   5.020   6.654   4.147  0.3491 -0.2338  0.3428
  482TIP3    H122937   4.994   6.637   4.237  0.3993 -0.0188  0.3978
  482TIP3    H222938   4.952   6.612   4.094  0.5394 -0.7132  0.4750
  483TIP3   OH222939   4.022   3.008   2.374 -0.0876  0.2234 -0.3552
  483TIP3    H122940   3.991   2.918   2.378 -0.1307  0.2665  0.5477
  483TIP3    H222941   3.980   3.044   2.296  0.3258 -0.6754 -1.0016
  484TIP3   OH222942   2.229   5.795  13.845  0.3607 -0.0483  0.1387
  484TIP3    H122943   2.141   5.803  13.808 -0.4659  0.0062  2.0083
  484TIP3    H222944   2.271   5.879  13.826 -0.2482  0.1998 -0.1291
  485TIP3   OH222945   2.859   5.208   4.563 -0.0067  0.5952 -0.1981
  485TIP3    H122946   2.936   5.208   4.505  0.4319  0.6352  0.3788
  485TIP3    H222947   2.826   5.118   4.558 -1.0902  1.0347 -1.9554
  486TIP3   OH222948   2.016   6.324   2.378 -0.1933  0.1475  0.6845
  486TIP3    H122949   2.021   6.260   2.307  0.2269  1.1096 -0.1810
  486TIP3    H222950   1.991   6.405   2.335 -0.4445  0.6344  1.7239
  487TIP3   OH222951   0.198   3.365  12.709 -0.2240 -0.1450  0.5243
  487TIP3    H122952   0.213   3.399  12.797  0.6877 -0.8035  0.6411
  487TIP3    H222953   0.152   3.282  12.723  1.2520 -1.0032  0.4895
  488TIP3   OH222954   5.349   0.898   4.019 -0.3542 -0.5714  0.1751
  488TIP3    H122955   5.280   0.911   3.954  1.6426  2.0689 -1.6475
  488TIP3    H222956   5.363   0.985   4.057  1.8046 -1.0304  0.5747
  489TIP3   OH222957   6.533   1.558   4.830  0.7259 -0.4018  0.0356
  489TIP3    H122958   6.454   1.512   4.801 -0.1337  1.1958 -0.2466
  489TIP3    H222959   6.575   1.586   4.749  1.1406 -0.5314  0.2061
  490TIP3   OH222960   1.070   5.353   1.189  0.0415  0.1383 -0.3157
  490TIP3    H122961   1.060   5.437   1.144 -0.8909  0.7736  1.0046
  490TIP3    H222962   0.981   5.317   1.194 -0.1569  0.7486  2.1519
  491TIP3   OH222963   3.837   4.378   3.427 -0.5342 -0.1469 -0.0509
  491TIP3    H122964   3.808   4.306   3.371  0.1527  0.2448 -0.9439
  491TIP3    H222965   3.777   4.450   3.407  1.0158  0.7173 -2.0222
  492TIP3   OH222966   4.020   1.177   4.827  0.2203 -0.2682 -0.0109
  492TIP3    H122967   3.978   1.098   4.860  1.0624 -0.6636  0.1190
  492TIP3    H222968   4.113   1.156   4.823  0.2171 -0.1848 -2.4265
  493TIP3   OH222969   6.361   3.349  12.355  0.6926  0.1521 -0.2932
  493TIP3    H122970   6.392   3.422  12.302 -0.0069 -1.1343 -2.5984
  493TIP3    H222971   6.267   3.361  12.360  0.7089  0.0509  0.3489
  494TIP3   OH222972   6.128   1.422  16.073  0.0358 -0.0512  0.2158
  494TIP3    H122973   6.145   1.412  16.167 -1.0746  0.4847  0.4978
  494TIP3    H222974   6.128   1.333  16.039  1.4396 -0.1861  0.5242
  495TIP3   OH222975   0.844   0.719   0.027  0.5662  0.9931 -0.4481
  495TIP3    H122976   0.835   0.705   0.121 -0.2716  0.2877 -0.6191
  495TIP3    H222977   0.925   0.673   0.003 -0.6582 -1.2483 -0.5168
  496TIP3   OH222978   3.127   4.972  12.631 -0.3907  0.1804 -0.0568
  496TIP3    H122979   3.117   4.923  12.713  0.5921  1.0717  0.6254
  496TIP3    H222980   3.117   5.064  12.657  2.6822  0.7138 -0.3679
  497TIP3   OH222981   5.383   5.453   3.578  0.3524  0.2300  0.6553
  497TIP3    H122982   5.387   5.453   3.673  0.0269  1.3368  0.6811
  497TIP3    H222983   5.294   5.479   3.557  0.5260  0.3667  0.0462
  498TIP3   OH222984   1.103   5.502   2.715 -0.6640  0.6745  0.3361
  498TIP3    H122985   1.173   5.452   2.674 -1.2386 -2.2056  2.5105
  498TIP3    H222986   1.044   5.525   2.643  0.4562 -0.4631 -1.0023
  499TIP3   OH222987   5.050   5.252  13.171  0.0068  0.0187 -0.1949
  499TIP3    H122988   5.124   5.254  13.110 -0.7433 -0.5580 -1.1653
  499TIP3    H222989   5.001   5.332  13.152 -0.1494 -0.0878 -0.2360
  500TIP3   OH222990   4.581   5.266  14.694 -0.2276  0.3137  0.0492
  500TIP3    H122991   4.646   5.223  14.639  0.9643  0.9470  0.9218
  500TIP3    H222992   4.509   5.286  14.634  0.7817  0.4672 -1.1620
  501TIP3   OH222993   2.938   2.910  16.148  0.1090 -0.3019 -0.1747
  501TIP3    H122994   2.937   2.867  16.062 -0.8613  0.1962 -0.4279
  501TIP3    H222995   2.969   2.842  16.208  1.5292 -0.4509 -1.0054
  502TIP3   OH222996   4.688   4.139  13.826 -0.3653 -0.1370  0.2762
  502TIP3    H122997   4.680   4.047  13.802  0.5169 -0.1616  0.0217
  502TIP3    H222998   4.767   4.169  13.781 -0.9924  0.9209 -0.1695
  503TIP3   OH222999   5.020   1.287  12.280  0.6669 -0.4147 -0.3131
  503TIP3    H123000   4.927   1.262  12.277  1.1099 -2.1032 -0.9809
  503TIP3    H223001   5.038   1.303  12.372 -0.0678 -0.9921 -0.0623
  504TIP3   OH223002   5.426   1.079   2.876  0.0256 -0.0356 -0.2760
  504TIP3    H123003   5.486   1.118   2.939  0.4216 -2.2873  0.8297
  504TIP3    H223004   5.339   1.092   2.914 -0.0795  1.5005 -0.9366
  505TIP3   OH223005   4.601   0.212   1.160 -0.6196 -0.0580 -0.0431
  505TIP3    H123006   4.586   0.131   1.111  1.2377 -0.1700 -0.4977
  505TIP3    H223007   4.517   0.230   1.202 -1.7631 -0.9401 -1.8108
  506TIP3   OH223008   1.970   5.795  15.018 -0.6960  0.4403 -0.4494
  506TIP3    H123009   1.914   5.870  15.037 -2.0520 -0.2420 -1.5961
  506TIP3    H223010   1.945   5.768  14.930  1.3339 -0.0100 -0.9446
  507TIP3   OH223011   3.425   4.752  12.652 -0.3701  0.5510  0.3843
  507TIP3    H123012   3.453   4.711  12.571  0.4958 -0.1859  1.0326
  507TIP3    H223013   3.505   4.789  12.690 -0.3675 -0.8903  1.8868
  508TIP3   OH223014   4.586   3.620  17.024 -0.1006 -0.2093 -0.1965
  508TIP3    H123015   4.492   3.635  17.014 -0.0087  0.1936 -0.4546
  508TIP3    H223016   4.626   3.704  17.004  0.2846 -0.2436  0.4172
  509TIP3   OH223017   4.455   5.263   3.931  0.0082  0.3678  0.6258
  509TIP3    H123018   4.379   5.259   3.873  1.2201 -2.3844 -0.9978
  509TIP3    H223019   4.421   5.298   4.014 -2.8860 -0.2264 -0.2111
  510TIP3   OH223020   0.321   5.715  10.362  0.1337  0.6265  0.3880
  510TIP3    H123021   0.258   5.657  10.404  0.5218 -0.4804 -0.5065
  510TIP3    H223022   0.320   5.794  10.416 -1.0000  0.1113  1.1743
  511TIP3   OH223023   4.986   5.119   5.297 -0.0775 -0.2429  0.4591
  511TIP3    H123024   5.054   5.142   5.360 -1.3173  1.0986  1.3881
  511TIP3    H223025   5.031   5.069   5.230  1.6344 -0.1930  1.5129
  512TIP3   OH223026   2.770   2.517   1.755  0.3855  0.4632 -0.1755
  512TIP3    H123027   2.853   2.470   1.740 -0.2696 -0.4292 -1.1378
  512TIP3    H223028   2.752   2.561   1.673 -1.0103 -0.8670 -0.6388
  513TIP3   OH223029   0.858   3.405  10.924  0.1822 -0.3005 -0.0617
  513TIP3    H123030   0.935   3.460  10.913  0.7057 -1.0274 -0.1300
  513TIP3    H223031   0.864   3.373  11.014  0.5529 -1.2203 -0.4007
  514TIP3   OH223032   0.370   4.266  14.665 -0.1702 -0.4240 -0.6736
  514TIP3    H123033   0.436   4.198  14.653  0.5263 -0.3223  2.0207
  514TIP3    H223034   0.419   4.345  14.686 -1.0853  0.2683 -1.0472
  515TIP3   OH223035   0.929   2.358  13.409  0.1958  0.0502 -0.2366
  515TIP3    H123036   0.865   2.398  13.467  1.4120 -1.4262  2.2854
  515TIP3    H223037   1.001   2.332  13.466  1.1804 -2.1561 -2.2753
  516TIP3   OH223038   4.839   3.807  15.184  0.1106  0.1383  0.3334
  516TIP3    H123039   4.920   3.795  15.233 -0.8535  0.9944  2.2391
  516TIP3    H223040   4.792   3.725  15.193 -0.0120  0.2538  0.7388
  517TIP3   OH223041   5.774   0.720   4.969  0.4495  0.4297 -0.4365
  517TIP3    H123042   5.716   0.658   5.014  1.1521  0.1202  0.0665
  517TIP3    H223043   5.790   0.789   5.032  1.0284  0.2553 -0.3815
  518TIP3   OH223044   4.289   2.700   5.241  0.0925  0.0765 -0.5290
  518TIP3    H123045   4.321   2.713   5.152 -1.5079 -0.6946 -1.2623
  518TIP3    H223046   4.198   2.730   5.238 -0.9551 -2.7192 -0.0091
  519TIP3   OH223047   4.768   2.895   0.894  0.9323 -0.2546  0.0825
  519TIP3    H123048   4.806   2.971   0.850 -0.5150 -0.0615 -0.8854
  519TIP3    H223049   4.742   2.837   0.824 -0.9285 -0.1855  0.6609
  520TIP3   OH223050   4.098   0.285  13.031 -0.3096  0.4108 -0.1446
  520TIP3    H123051   4.012   0.244  13.021  0.5066 -1.5377  0.3437
  520TIP3    H223052   4.108   0.298  13.125  0.4521 -0.6096 -0.0717
  521TIP3   OH223053   4.537   6.689  17.013 -0.3715  0.4738 -0.1919
  521TIP3    H123054   4.569   6.669  16.925 -0.6687 -0.9432  0.0004
  521TIP3    H223055   4.452   6.643  17.019  0.5995 -1.2619  1.5272
  522TIP3   OH223056   1.923   6.532   3.992 -0.0279  0.1707  0.1986
  522TIP3    H123057   1.878   6.607   3.953 -1.3938 -0.4230  0.5783
  522TIP3    H223058   1.925   6.551   4.086 -0.2516 -0.1910  0.2809
  523TIP3   OH223059   3.049   1.711  15.814  0.5381 -0.2253  0.2244
  523TIP3    H123060   3.104   1.774  15.860  0.8026 -0.2757 -0.0173
  523TIP3    H223061   2.960   1.732  15.841  0.7415 -0.8074  1.4400
  524TIP3   OH223062   4.245   3.199   4.003  0.4033  0.0710 -0.3453
  524TIP3    H123063   4.260   3.151   3.922 -0.8078  2.4400 -2.1024
  524TIP3    H223064   4.280   3.287   3.986  0.7622  0.4397  1.9848
  525TIP3   OH223065   5.532   2.144   2.349 -0.1356  0.4682  0.0119
  525TIP3    H123066   5.561   2.150   2.440  0.2924  0.4972 -0.1247
  525TIP3    H223067   5.613   2.139   2.298 -0.3820 -0.1639 -0.3290
  526TIP3   OH223068   6.010   1.101  13.240  0.1202 -0.3514 -0.0585
  526TIP3    H123069   5.964   1.092  13.323 -0.6815 -0.7822 -0.5362
  526TIP3    H223070   6.095   1.139  13.263 -0.3017  0.0469  0.8931
  527TIP3   OH223071   4.502   1.872  16.205 -0.5272  0.0230  0.0420
  527TIP3    H123072   4.473   1.810  16.272 -0.3037 -0.2477 -0.1121
  527TIP3    H223073   4.424   1.888  16.152  0.0702 -2.3495 -1.6873
  528TIP3   OH223074   3.424   3.724   1.082  0.0495 -0.0540 -0.2826
  528TIP3    H123075   3.418   3.678   0.999 -1.4847 -0.9360  0.2818
  528TIP3    H223076   3.395   3.813   1.063  2.6447  0.6832 -1.2925
  529TIP3   OH223077   4.195   1.820   3.745 -0.5486  0.4386 -0.1411
  529TIP3    H123078   4.262   1.832   3.679  0.4829 -0.1099  0.7711
  529TIP3    H223079   4.133   1.758   3.706  1.0294 -1.3721  0.0422
  530TIP3   OH223080   3.153   1.334   0.654  0.6330 -0.3151 -0.5521
  530TIP3    H123081   3.114   1.306   0.571  1.2406 -2.1036 -0.2698
  530TIP3    H223082   3.205   1.259   0.683  1.6784  0.8313  0.6928
  531TIP3   OH223083   4.651   1.617  15.819  0.1997 -0.7241  0.3048
  531TIP3    H123084   4.684   1.705  15.839 -0.3659 -0.3907 -0.1947
  531TIP3    H223085   4.568   1.611  15.866  0.2983 -1.0408  0.4412
  532TIP3   OH223086   4.885   1.760  13.280  0.4465 -0.4143  0.1545
  532TIP3    H123087   4.835   1.783  13.359 -0.8144  0.5942 -0.8896
  532TIP3    H223088   4.924   1.843  13.253  0.2993 -0.6045 -0.6589
  533TIP3   OH223089   5.452   4.690   4.352  0.2775  0.1656 -0.1790
  533TIP3    H123090   5.379   4.701   4.413 -0.1590 -0.9434 -0.4776
  533TIP3    H223091   5.497   4.774   4.354 -1.7435  1.3412 -0.9678
  534TIP3   OH223092   0.301   3.538  15.234  0.1627 -0.0053 -0.1454
  534TIP3    H123093   0.237   3.497  15.176  0.7434  0.4213 -1.1221
  534TIP3    H223094   0.383   3.495  15.213  0.6339  1.0824 -0.6238
  535TIP3   OH223095   6.781   2.316   2.752  0.2975  0.2109  0.4750
  535TIP3    H123096   6.704   2.329   2.806  0.5639 -0.6612  1.0801
  535TIP3    H223097   6.770   2.229   2.714  0.7646  0.2642  0.2089
  536TIP3   OH223098   1.277   2.742   0.084 -0.4429 -0.3766 -0.0238
  536TIP3    H123099   1.200   2.770   0.132 -0.5596  0.6464 -0.7659
  536TIP3    H223100   1.300   2.657   0.121 -1.3440 -0.2430  0.8615
  537TIP3   OH223101   3.917   1.142   0.797  0.3305 -0.5663 -0.1338
  537TIP3    H123102   3.824   1.120   0.807  0.6613 -1.5726  0.9105
  537TIP3    H223103   3.957   1.063   0.762  1.1808 -1.0313  1.7345
  538TIP3   OH223104   6.616   3.217  17.123 -0.3545  0.5010 -0.1872
  538TIP3    H123105   6.692   3.212  17.181  1.7770 -0.0903 -2.8227
  538TIP3    H223106   6.542   3.188  17.177  0.9759  2.2789  2.8621
  539TIP3   OH223107   2.488   6.132  15.895 -0.0419  0.1040 -0.0004
  539TIP3    H123108   2.444   6.113  15.812  1.7722 -1.9825 -0.5766
  539TIP3    H223109   2.555   6.197  15.873  0.1699 -0.1480 -0.1141
  540TIP3   OH223110   4.166   0.396  15.334 -0.1624  0.4261  0.3320
  540TIP3    H123111   4.138   0.360  15.250 -1.3711  0.1149  0.8442
  540TIP3    H223112   4.226   0.331  15.370 -0.7000 -0.0808  0.3159
  541TIP3   OH223113   4.215   1.786  14.161  0.9410 -1.3236 -0.0373
  541TIP3    H123114   4.253   1.873  14.162  1.0543 -1.3032  3.0249
  541TIP3    H223115   4.230   1.752  14.249 -1.6907 -3.2821 -0.2249
  542TIP3   OH223116   3.851   3.480  12.003  0.0612 -0.3289 -0.1855
  542TIP3    H123117   3.818   3.393  12.026  0.3741 -1.1790 -2.5762
  542TIP3    H223118   3.837   3.486  11.908  0.3270  2.1353 -0.1290
  543TIP3   OH223119   0.906   2.061   6.117 -0.3826  0.9971  0.2952
  543TIP3    H123120   0.864   2.088   6.199  0.2835 -0.1770  1.0503
  543TIP3    H223121   0.972   1.997   6.143 -1.5356 -0.9989 -1.3207
  544TIP3   OH223122   5.825   0.613   5.738 -0.0079 -0.0032  0.7637
  544TIP3    H123123   5.895   0.557   5.770  0.2509 -0.4425 -0.5201
  544TIP3    H223124   5.778   0.640   5.817  1.7287  0.4886  1.6532
  545TIP3   OH223125   4.933   1.028  11.855 -0.4335 -0.5327  0.5221
  545TIP3    H123126   5.001   0.983  11.905 -0.5777 -0.7764  0.5017
  545TIP3    H223127   4.909   1.104  11.908 -1.1802 -1.2398  1.2324
  546TIP3   OH223128   2.093   0.028  11.894 -0.4428  0.3832  0.4197
  546TIP3    H123129   2.129  -0.050  11.936 -1.8927 -1.7122 -1.9599
  546TIP3    H223130   2.020   0.054  11.951 -0.7538 -0.7866  0.5745
  547TIP3   OH223131   4.257   3.497  13.425  0.4739  0.1408  0.0187
  547TIP3    H123132   4.180   3.512  13.371 -0.0449 -0.3292  0.6009
  547TIP3    H223133   4.272   3.403  13.420 -0.8585 -0.2704  2.3056
  548TIP3   OH223134   1.929   4.665   2.978 -0.7691  0.0873 -0.2539
  548TIP3    H123135   2.007   4.615   3.000  0.4133  0.9045 -2.2846
  548TIP3    H223136   1.930   4.740   3.037 -0.7733 -0.5934  0.6264
  549TIP3   OH223137   2.241   6.440   0.155 -0.1645  0.8394 -0.1302
  549TIP3    H123138   2.162   6.386   0.151  0.9543 -1.0251  1.4589
  549TIP3    H223139   2.221   6.507   0.220 -0.2999  0.1101  0.5878
  550TIP3   OH223140   1.518   6.613   5.683 -0.1262 -0.0317  0.1121
  550TIP3    H123141   1.533   6.687   5.624 -0.1199 -0.2253 -0.1279
  550TIP3    H223142   1.602   6.567   5.687  0.0727  0.3749  0.8185
  551TIP3   OH223143   2.842   3.371   1.873  0.1447  0.4047  0.2376
  551TIP3    H123144   2.758   3.330   1.855  0.5262 -1.0356  1.5568
  551TIP3    H223145   2.871   3.405   1.788 -1.6599  0.7789 -0.2584
  552TIP3   OH223146   5.650   2.269  16.805  0.6291 -0.5643  0.0715
  552TIP3    H123147   5.730   2.321  16.803  1.0026 -1.1495 -0.6614
  552TIP3    H223148   5.655   2.221  16.888  1.0357 -0.5813  0.0396
  553TIP3   OH223149   2.926   1.156   4.312  1.0189 -0.2842  0.2478
  553TIP3    H123150   2.996   1.168   4.248  0.2423 -2.1200 -1.0296
  553TIP3    H223151   2.850   1.199   4.274 -0.1819 -3.6351 -1.5179
  554TIP3   OH223152   5.871   1.504   0.361 -0.1492  0.4902  0.0707
  554TIP3    H123153   5.800   1.445   0.384 -0.9160  1.8228  1.3052
  554TIP3    H223154   5.942   1.446   0.334 -1.0770 -0.9588  0.5989
  555TIP3   OH223155   1.743   2.584  11.612  0.8272  0.6100 -0.5647
  555TIP3    H123156   1.657   2.619  11.632  0.8284 -0.0278  0.6162
  555TIP3    H223157   1.740   2.564  11.518 -1.5157 -2.5711  0.0351
  556TIP3   OH223158   1.155   5.392  14.247  0.3074  0.0059 -0.3803
  556TIP3    H123159   1.224   5.438  14.199 -0.4622  1.3415 -0.2822
  556TIP3    H223160   1.083   5.386  14.186  0.8340 -2.3693 -0.8418
  557TIP3   OH223161   6.652   6.203   2.385  0.7258 -0.2716 -0.1665
  557TIP3    H123162   6.578   6.191   2.326  0.6335 -3.2009  0.3636
  557TIP3    H223163   6.614   6.193   2.473  1.5801 -1.0440  0.1359
  558TIP3   OH223164   5.231   0.883  14.537  0.1491 -0.1342  0.0360
  558TIP3    H123165   5.184   0.935  14.601 -0.3939 -1.2458  0.5529
  558TIP3    H223166   5.314   0.861  14.580 -0.9967 -2.5138  1.1747
  559TIP3   OH223167   4.235   6.742  13.259  0.7357  0.0625  0.2847
  559TIP3    H123168   4.168   6.732  13.192 -0.9600 -0.2777  1.9416
  559TIP3    H223169   4.313   6.769  13.211 -0.1385 -1.0378 -1.9141
  560TIP3   OH223170   0.423   3.872   0.542 -0.3821 -0.1848 -0.1930
  560TIP3    H123171   0.444   3.779   0.533 -0.6545 -0.3774  1.0193
  560TIP3    H223172   0.329   3.877   0.527 -0.4695 -0.1994  0.3271
  561TIP3   OH223173   0.665   5.343  10.710  0.1306  0.2913 -0.1783
  561TIP3    H123174   0.639   5.375  10.624 -1.0029 -0.0318  0.0344
  561TIP3    H223175   0.671   5.248  10.700  0.6152  0.3064 -0.0581
  562TIP3   OH223176   6.400   3.751  13.282 -0.2837 -0.7991  0.4179
  562TIP3    H123177   6.326   3.801  13.315 -1.5850 -0.3015 -2.9013
  562TIP3    H223178   6.475   3.810  13.290 -0.8910 -0.0623  0.7691
  563TIP3   OH223179   2.509   4.468  15.866 -0.0950 -0.5379 -0.3384
  563TIP3    H123180   2.601   4.456  15.842 -0.2728 -1.0911 -0.7714
  563TIP3    H223181   2.464   4.396  15.822 -0.6961 -0.4359  0.1076
  564TIP3   OH223182   5.159   1.198   1.353  0.0187 -0.0593  0.1004
  564TIP3    H123183   5.084   1.246   1.388 -0.0854  0.0567 -0.2756
  564TIP3    H223184   5.127   1.158   1.272 -0.3355 -1.9998  1.1377
  565TIP3   OH223185   3.616   3.351  15.626 -0.0768 -0.2189  0.6732
  565TIP3    H123186   3.590   3.355  15.718  0.2857 -0.5906  0.7904
  565TIP3    H223187   3.534   3.332  15.579 -0.6394  1.7915  0.7167
  566TIP3   OH223188   6.756   1.578   3.659  0.2280  0.5693  0.1798
  566TIP3    H123189   6.821   1.567   3.590  0.2739  0.8621  0.1734
  566TIP3    H223190   6.742   1.490   3.694  0.0015  0.3777 -0.3856
  567TIP3   OH223191   0.002   1.466  16.889 -0.0619 -0.1505  0.0557
  567TIP3    H123192   0.093   1.435  16.890  0.1508  0.4699  0.5196
  567TIP3    H223193  -0.049   1.390  16.918  0.6329  0.4410  3.1839
  568TIP3   OH223194   5.801   4.885   5.061  0.1755 -0.3365 -0.0587
  568TIP3    H123195   5.763   4.802   5.031  2.4606 -0.7032 -2.2604
  568TIP3    H223196   5.764   4.951   5.003 -1.9419  0.3788  1.9340
  569TIP3   OH223197   6.834   2.931   1.115  0.0628  0.1691  0.0456
  569TIP3    H123198   6.749   2.887   1.119 -0.6950  1.6546  0.9756
  569TIP3    H223199   6.879   2.903   1.194  0.4789 -0.6494 -0.4667
  570TIP3   OH223200   3.939   5.435  15.885  0.5522  0.1864 -0.5314
  570TIP3    H123201   3.897   5.497  15.945  2.4509  0.1254  0.9736
  570TIP3    H223202   3.952   5.485  15.804  0.6400  1.2865  0.1324
  571TIP3   OH223203   1.100   4.974   0.767 -0.0008 -0.3547 -0.1456
  571TIP3    H123204   1.068   4.962   0.677 -1.0549 -1.1616  0.3257
  571TIP3    H223205   1.117   5.068   0.773 -2.3184  0.1439 -0.4409
  572TIP3   OH223206   3.673   2.987   4.847 -0.7731 -0.1254  0.0958
  572TIP3    H123207   3.682   3.051   4.777 -0.6825  0.9208  1.0388
  572TIP3    H223208   3.587   2.947   4.832  0.1397 -1.4728 -1.8480
  573TIP3   OH223209   2.755   2.125  16.439 -0.0314 -0.0732  0.5759
  573TIP3    H123210   2.842   2.144  16.404 -0.4927  2.3378  0.6118
  573TIP3    H223211   2.704   2.096  16.364 -0.0741  1.7377 -0.1356
  574TIP3   OH223212   0.849   3.183   3.587 -0.2525  0.2972  0.3760
  574TIP3    H123213   0.829   3.174   3.681 -0.1784 -0.2006  0.3458
  574TIP3    H223214   0.889   3.270   3.579 -1.8377  1.0936  0.5425
  575TIP3   OH223215   3.887   3.093  13.868  0.1355 -0.4915 -0.1720
  575TIP3    H123216   3.814   3.065  13.923 -1.1680  1.4908 -0.7959
  575TIP3    H223217   3.942   3.146  13.927 -0.4833  0.4031 -0.3742
  576TIP3   OH223218   4.135   6.465  13.256 -0.1378 -0.7526 -0.6608
  576TIP3    H123219   4.200   6.396  13.260  0.5421 -0.0656  1.2626
  576TIP3    H223220   4.178   6.541  13.294 -1.5701  0.1532 -0.7713
  577TIP3   OH223221   1.203   6.043  17.048  0.5873 -0.1204 -0.2208
  577TIP3    H123222   1.108   6.047  17.058  0.6027 -0.0223 -0.1131
  577TIP3    H223223   1.234   5.998  17.127  0.7394  0.9718  0.3646
  578TIP3   OH223224   5.348   6.581  11.758  0.8858  0.1696  0.3898
  578TIP3    H123225   5.355   6.617  11.670 -1.3133 -0.3294 -0.0401
  578TIP3    H223226   5.338   6.487  11.745  0.2761  0.1197  1.1459
  579TIP3   OH223227   4.156   4.483   1.920 -0.0515  0.7333  0.0010
  579TIP3    H123228   4.205   4.434   1.853  1.7538  0.4512  1.4628
  579TIP3    H223229   4.222   4.515   1.980 -1.6234  0.9484  1.7120
  580TIP3   OH223230   3.459   2.713   4.108 -1.0523 -0.0527  0.7351
  580TIP3    H123231   3.484   2.784   4.048 -0.9322 -0.8839 -0.2393
  580TIP3    H223232   3.496   2.738   4.192  1.4799 -0.2841 -0.2056
  581TIP3   OH223233   3.208   0.979  15.066 -0.3019  0.2273 -0.1949
  581TIP3    H123234   3.184   0.890  15.041  0.1511 -0.1018  0.4883
  581TIP3    H223235   3.300   0.972  15.094 -0.2312  0.9258 -0.2220
  582TIP3   OH223236   1.853   6.304  13.149 -0.6478 -0.5317  0.1465
  582TIP3    H123237   1.863   6.231  13.088 -1.2506 -1.4155  1.0903
  582TIP3    H223238   1.800   6.269  13.220 -0.9269  0.8243  0.6288
  583TIP3   OH223239   4.657   1.306   3.656  0.6967 -0.6527  0.0976
  583TIP3    H123240   4.673   1.376   3.593 -0.0613 -1.7210 -1.3504
  583TIP3    H223241   4.669   1.347   3.742 -4.5171  2.7230 -0.3167
  584TIP3   OH223242   5.051   1.835  16.922  0.4078 -0.2185  0.1530
  584TIP3    H123243   4.993   1.868  16.853  1.1717  1.0147  0.0648
  584TIP3    H223244   5.010   1.864  17.004  0.8564  0.6262  0.0927
  585TIP3   OH223245   0.850   2.616   5.014 -0.6191  0.2368 -1.1783
  585TIP3    H123246   0.945   2.610   5.010 -0.4908 -1.6009  1.6672
  585TIP3    H223247   0.832   2.673   5.089 -1.7339 -0.2677 -1.0370
  586TIP3   OH223248   3.560   0.060  14.332 -0.2306  0.2118 -0.1636
  586TIP3    H123249   3.536   0.043  14.423  1.1429 -0.9241  0.0179
  586TIP3    H223250   3.622   0.133  14.336  0.1636 -0.1256 -0.1517
  587TIP3   OH223251   3.298   4.498   5.006 -0.3201 -0.0645  0.2429
  587TIP3    H123252   3.298   4.531   5.096 -1.7117  0.8920 -0.0644
  587TIP3    H223253   3.382   4.528   4.970  1.0482 -1.9197  1.6674
  588TIP3   OH223254   0.795   6.108  15.781  0.2059 -0.0448  0.5512
  588TIP3    H123255   0.728   6.040  15.773  1.4446 -1.4186  1.3302
  588TIP3    H223256   0.804   6.143  15.692 -1.1481 -0.2129  0.3321
  589TIP3   OH223257   1.385   5.097   5.800  0.3140 -0.0436 -0.2349
  589TIP3    H123258   1.353   5.085   5.889 -0.3567 -2.8227 -0.7368
  589TIP3    H223259   1.334   5.169   5.765 -2.8411 -1.8880  0.2215
  590TIP3   OH223260   0.323   3.654   1.060 -0.2589  0.4652 -0.3147
  590TIP3    H123261   0.297   3.564   1.077 -0.0814 -0.0969 -2.7483
  590TIP3    H223262   0.381   3.676   1.134 -0.6880 -1.2094  0.5810
  591TIP3   OH223263   0.226   3.033  16.172  0.1280  0.1726 -0.2501
  591TIP3    H123264   0.178   3.009  16.251  0.8876  0.9653  0.4788
  591TIP3    H223265   0.191   3.119  16.148  0.3570  0.2283 -0.3902
  592TIP3   OH223266   0.778   4.307  12.060 -0.5556 -0.0652  0.2062
  592TIP3    H123267   0.810   4.341  11.976 -0.8993  0.1730  0.1640
  592TIP3    H223268   0.745   4.385  12.105  0.9397  0.0365  1.1772
  593TIP3   OH223269   0.904   6.547   2.543 -0.0692  0.0075 -0.3784
  593TIP3    H123270   0.929   6.520   2.455  2.1891 -1.0610  0.5179
  593TIP3    H223271   0.987   6.558   2.590 -1.2121 -0.2164  1.8425
  594TIP3   OH223272   1.252   2.316  11.863  0.0940 -0.2427  0.0503
  594TIP3    H123273   1.268   2.224  11.841  0.4638 -0.2269  0.2308
  594TIP3    H223274   1.166   2.316  11.905  0.1011 -0.5088  0.0687
  595TIP3   OH223275   3.142   1.322   6.124  0.0601 -0.1773  0.0735
  595TIP3    H123276   3.133   1.317   6.219  0.0771 -1.1024  0.0308
  595TIP3    H223277   3.123   1.414   6.103 -1.8049 -0.3756  0.7727
  596TIP3   OH223278   4.592   4.381   1.980 -0.1176 -0.2464  0.1264
  596TIP3    H123279   4.665   4.350   2.034 -1.6700 -2.9037  0.8583
  596TIP3    H223280   4.600   4.332   1.898 -0.1520  0.6892 -0.4503
  597TIP3   OH223281   1.991   5.479  14.666 -0.7321 -0.0914 -0.4090
  597TIP3    H123282   1.997   5.570  14.695  1.1783 -0.3532  0.1477
  597TIP3    H223283   2.002   5.484  14.571  0.8653  0.1795 -0.2412
  598TIP3   OH223284   1.656   5.146   3.173  0.5486 -0.0491  0.4695
  598TIP3    H123285   1.615   5.064   3.147  0.5928  0.4209 -1.1795
  598TIP3    H223286   1.653   5.145   3.269 -2.6396 -0.3369  0.4515
  599TIP3   OH223287   5.626   5.464   0.811 -0.2693  0.3116 -0.2578
  599TIP3    H123288   5.551   5.470   0.752 -0.3938  1.7161  0.0140
  599TIP3    H223289   5.597   5.404   0.880 -0.3529 -0.8343 -1.2388
  600TIP3   OH223290   6.068   0.131   4.729 -0.1704  0.6428  0.3431
  600TIP3    H123291   6.071   0.223   4.703  1.3082  0.1569 -1.4019
  600TIP3    H223292   6.159   0.102   4.725 -0.8267 -1.5089 -1.6161
  601TIP3   OH223293   1.389   1.021  14.699  0.0827  0.1732  0.2929
  601TIP3    H123294   1.427   0.962  14.765  1.5497  1.2285  0.4427
  601TIP3    H223295   1.365   0.963  14.627  3.2641 -0.5018 -0.3884
  602TIP3   OH223296   1.823   4.406  15.775 -0.1502  0.2032  0.7536
  602TIP3    H123297   1.806   4.339  15.709  0.9033  2.0423 -1.4848
  602TIP3    H223298   1.807   4.361  15.858 -3.7319 -1.6132 -0.6844
  603TIP3   OH223299   0.635   4.896  12.396  0.6473  0.6178 -0.5909
  603TIP3    H123300   0.712   4.918  12.448 -0.0583  1.8282 -0.0277
  603TIP3    H223301   0.665   4.906  12.305  1.4734 -0.0921 -0.4115
  604TIP3   OH223302   4.237   5.849   6.251 -0.5289  0.5208 -0.5262
  604TIP3    H123303   4.143   5.833   6.238 -1.1518  2.1738  1.3703
  604TIP3    H223304   4.246   5.867   6.344  1.6719  0.5985 -0.6954
  605TIP3   OH223305   4.193   4.842  11.596  0.0914  0.5973 -0.6053
  605TIP3    H123306   4.259   4.849  11.527  0.6128  0.3347 -0.1424
  605TIP3    H223307   4.120   4.895  11.565  1.0475  2.0182 -0.4939
  606TIP3   OH223308   6.120   4.176   4.286  0.2613  0.0208  0.4530
  606TIP3    H123309   6.148   4.146   4.372 -0.2006 -0.7284  0.3596
  606TIP3    H223310   6.039   4.224   4.303  0.1639 -0.1367  0.4398
  607TIP3   OH223311   6.487   4.135  16.605 -0.2771  0.3701 -0.4805
  607TIP3    H123312   6.392   4.151  16.605 -0.4191 -0.1788  1.6077
  607TIP3    H223313   6.520   4.188  16.533 -2.2922 -0.3255 -2.0219
  608TIP3   OH223314   3.798   0.558  12.377  0.7868  0.4628  0.6444
  608TIP3    H123315   3.872   0.596  12.425 -0.4313  2.1914  1.2062
  608TIP3    H223316   3.735   0.535  12.445 -0.4647  1.8430 -0.0206
  609TIP3   OH223317   4.516   0.769  14.641 -0.1493 -0.0475  0.0271
  609TIP3    H123318   4.476   0.855  14.653  0.3738  0.1224  0.5673
  609TIP3    H223319   4.446   0.707  14.661 -0.4358  0.2482 -0.0471
  610TIP3   OH223320   4.913   1.134  13.069 -0.2969  0.2933 -0.4154
  610TIP3    H123321   4.968   1.118  12.992  0.9692  1.9917  0.0806
  610TIP3    H223322   4.955   1.084  13.139 -0.0046  0.7218 -0.2815
  611TIP3   OH223323   5.588   4.193   6.311 -0.4876  0.1325 -0.3029
  611TIP3    H123324   5.507   4.208   6.359 -0.8054  1.9518 -1.3012
  611TIP3    H223325   5.614   4.281   6.281  1.1017 -0.5971 -1.1679
  612TIP3   OH223326   2.145   1.058  11.752 -0.0971 -0.3260 -0.3428
  612TIP3    H123327   2.161   1.152  11.760  0.4704 -0.3882 -0.6667
  612TIP3    H223328   2.204   1.030  11.682 -1.0248 -0.7298 -0.9919
  613TIP3   OH223329   2.735   3.233  11.734 -0.0621 -0.2296 -0.8425
  613TIP3    H123330   2.767   3.293  11.667  2.6848 -1.7168 -1.0296
  613TIP3    H223331   2.787   3.253  11.812 -1.4676 -0.1817  0.1180
  614TIP3   OH223332   4.683   1.735  17.046 -0.1803 -0.1500 -0.1816
  614TIP3    H123333   4.653   1.677  17.115  3.3804 -0.5697  1.2637
  614TIP3    H223334   4.720   1.811  17.092  1.3337  0.0482 -1.5987
  615TIP3   OH223335   0.102   5.271   5.805 -0.1768 -0.0453 -0.7991
  615TIP3    H123336   0.081   5.260   5.898  2.1578 -2.5635 -0.4696
  615TIP3    H223337   0.087   5.185   5.766  4.7519 -0.9148 -1.3563
  616TIP3   OH223338   0.345   2.213  16.712 -0.4914 -0.5075 -0.4509
  616TIP3    H123339   0.251   2.199  16.696 -0.6251  0.9268 -1.1333
  616TIP3    H223340   0.368   2.285  16.653  1.0559 -0.8646 -0.3162
  617TIP3   OH223341   5.654   3.638  12.582 -0.2747 -0.1689  0.0491
  617TIP3    H123342   5.572   3.601  12.613  0.6147 -0.4014  2.3713
  617TIP3    H223343   5.632   3.728  12.558 -1.2567 -0.2946  0.4372
  618TIP3   OH223344   4.069   3.918  11.198  1.2143  0.4073 -0.1647
  618TIP3    H123345   4.082   3.842  11.141 -0.0196  0.0250  0.0303
  618TIP3    H223346   4.058   3.992  11.138  1.7723  0.3191 -0.3742
  619TIP3   OH223347   2.718   3.150   6.157  0.0858  0.1850  0.2248
  619TIP3    H123348   2.654   3.218   6.177 -1.8583 -1.2053 -0.9350
  619TIP3    H223349   2.678   3.069   6.187  0.9396 -0.8287 -1.2511
  620TIP3   OH223350   6.369   5.112  11.093  0.0446  0.5603  0.3831
  620TIP3    H123351   6.415   5.183  11.047  0.2025  1.4627  1.8817
  620TIP3    H223352   6.297   5.088  11.034  0.1420  1.7773 -0.2639
  621TIP3   OH223353   1.077   1.771   1.893  0.6027 -0.0127 -0.1021
  621TIP3    H123354   1.120   1.754   1.809  2.2925 -0.8873  0.8818
  621TIP3    H223355   0.991   1.730   1.884 -0.0187  1.5737 -2.0531
  622TIP3   OH223356   0.234   1.027   1.138  0.1886  0.0172  0.9131
  622TIP3    H123357   0.190   0.953   1.095 -2.6638 -0.0414  3.6273
  622TIP3    H223358   0.285   0.987   1.208 -0.4006  0.5311  1.6418
  623TIP3   OH223359   1.778   0.131   0.285 -0.0085 -0.6452 -0.1959
  623TIP3    H123360   1.780   0.192   0.359 -1.5503 -2.6143  1.6305
  623TIP3    H223361   1.688   0.098   0.284  0.3553 -1.6929 -2.1048
  624TIP3   OH223362   1.811   1.591   5.985 -0.1490 -0.0447 -0.1120
  624TIP3    H123363   1.852   1.507   6.004 -1.0121 -0.6644 -0.8624
  624TIP3    H223364   1.719   1.579   6.008  0.0536  1.3464  1.6481
  625TIP3   OH223365   0.504   1.468   5.251  0.3146 -0.0071  0.4406
  625TIP3    H123366   0.473   1.525   5.322 -0.9392  1.0931 -0.9245
  625TIP3    H223367   0.436   1.474   5.184  1.4549 -1.0228 -0.8708
  626TIP3   OH223368   4.545   3.818  12.804 -0.2590 -0.5411  0.1280
  626TIP3    H123369   4.594   3.900  12.813 -1.7056  0.3844  0.0166
  626TIP3    H223370   4.478   3.837  12.738 -0.3478 -1.9689 -0.2350
  627TIP3   OH223371   1.514   6.575   0.834  0.4358 -0.2905  0.1306
  627TIP3    H123372   1.481   6.655   0.875 -0.8203 -0.1945 -1.0225
  627TIP3    H223373   1.556   6.605   0.753 -1.4826 -0.9113 -1.1383
  628TIP3   OH223374   5.802   0.391   4.820 -0.7806 -0.6560  0.2785
  628TIP3    H123375   5.789   0.297   4.811  2.5519 -1.4024  1.8381
  628TIP3    H223376   5.880   0.410   4.768 -0.9882  1.1154  0.5401
  629TIP3   OH223377   3.808   4.797  13.578  0.1225  0.4326 -0.1626
  629TIP3    H123378   3.785   4.886  13.601  0.2422  0.6274 -0.7793
  629TIP3    H223379   3.774   4.744  13.650  0.4232  1.0097  0.4200
  630TIP3   OH223380   3.847   6.151  15.128  0.3572 -0.2694  0.2348
  630TIP3    H123381   3.879   6.112  15.047  1.3995 -1.3793  1.1507
  630TIP3    H223382   3.925   6.164  15.181 -0.2751  0.7093  0.9692
  631TIP3   OH223383   2.470   3.792  14.113  0.3864  0.1773 -0.3800
  631TIP3    H123384   2.553   3.749  14.135 -0.6696 -1.0562  1.4688
  631TIP3    H223385   2.479   3.880  14.150  0.0278 -0.7190  2.0297
  632TIP3   OH223386   2.672   0.920   4.457 -0.4057  0.0421  0.6237
  632TIP3    H123387   2.761   0.937   4.489  0.0765 -0.9651 -0.1243
  632TIP3    H223388   2.671   0.957   4.368 -0.1638 -1.4064 -0.0225
  633TIP3   OH223389   0.418   0.080  11.159  0.2382  0.3783  0.3600
  633TIP3    H123390   0.393   0.081  11.067 -1.9602  0.4997  0.9097
  633TIP3    H223391   0.439   0.171  11.180  1.9965  0.1575 -0.2952
  634TIP3   OH223392   3.668   4.511  13.384 -0.1972  0.7237  0.0006
  634TIP3    H123393   3.621   4.522  13.467  0.7420  1.3270  0.4695
  634TIP3    H223394   3.661   4.597  13.341 -0.8835  0.3445 -0.6617
  635TIP3   OH223395   0.201   3.638  14.771 -0.4152 -0.0342  0.1235
  635TIP3    H123396   0.114   3.600  14.777 -0.4902  0.0049 -0.5487
  635TIP3    H223397   0.198   3.691  14.690  0.6519 -1.1445 -0.6781
  636TIP3   OH223398   6.336   6.620  11.079  0.5018  0.1589  0.3546
  636TIP3    H123399   6.384   6.550  11.123  0.0172 -0.4810 -0.1239
  636TIP3    H223400   6.403   6.668  11.030  0.8411  0.0610  0.7213
  637TIP3   OH223401   5.045   2.517  12.329  0.1028 -0.5588  0.6576
  637TIP3    H123402   5.103   2.578  12.375  0.7689 -0.3758 -0.3880
  637TIP3    H223403   5.102   2.446  12.300 -0.1610 -0.3397 -0.4526
  638TIP3   OH223404   1.121   5.013   0.254  0.3017 -0.2423  0.3206
  638TIP3    H123405   1.196   4.960   0.281 -0.0704 -0.1769  1.5696
  638TIP3    H223406   1.064   4.952   0.207  0.7580 -0.4831  0.0740
  639TIP3   OH223407   2.619   4.328   1.095  0.4348 -0.4802 -0.6701
  639TIP3    H123408   2.608   4.387   1.171 -1.5880 -1.3337 -0.2566
  639TIP3    H223409   2.634   4.242   1.134  0.8777 -0.6789 -1.2702
  640TIP3   OH223410   2.828   5.843  12.773  0.4063 -0.6743  0.1751
  640TIP3    H123411   2.861   5.849  12.683 -1.6544  0.2550 -0.5926
  640TIP3    H223412   2.834   5.932  12.807  0.0534 -0.7802  0.5180
  641TIP3   OH223413   0.128   0.566   4.576  0.6673 -0.3978 -0.2305
  641TIP3    H123414   0.080   0.643   4.545  0.3905 -0.8199 -0.8812
  641TIP3    H223415   0.069   0.524   4.639 -0.3600 -1.5433 -1.8600
  642TIP3   OH223416   2.869   6.685  15.436  0.3157  0.0801 -0.6743
  642TIP3    H123417   2.868   6.655  15.345 -3.5123 -1.7928 -0.2227
  642TIP3    H223418   2.794   6.744  15.443  0.1905 -0.2431  1.3850
  643TIP3   OH223419   1.219   4.381   3.916 -0.8457 -0.7463  0.0922
  643TIP3    H123420   1.147   4.321   3.934  1.0654 -2.8047  1.4539
  643TIP3    H223421   1.259   4.397   4.001  1.5711 -1.4475 -0.8037
  644TIP3   OH223422   4.492   6.734   3.232 -0.5224  0.1871 -0.2372
  644TIP3    H123423   4.527   6.782   3.307 -1.5218 -0.3174  0.5692
  644TIP3    H223424   4.561   6.673   3.208 -0.6284 -0.4462  1.0156
  645TIP3   OH223425   2.118   2.613   5.139 -0.3250  0.0207  0.0841
  645TIP3    H123426   2.153   2.545   5.083  0.1510  1.4526 -1.4385
  645TIP3    H223427   2.173   2.690   5.122 -1.5835  1.1407  0.7981
  646TIP3   OH223428   0.038   5.040  13.662  0.1823 -0.5762  0.2817
  646TIP3    H123429   0.132   5.025  13.645  0.4631 -0.9400  2.0054
  646TIP3    H223430   0.016   5.115  13.607  1.5083 -0.3975 -0.0552
  647TIP3   OH223431   2.919   5.916  13.234  0.3346 -0.1629  0.6772
  647TIP3    H123432   2.867   5.838  13.215 -1.0963  0.9810 -0.3411
  647TIP3    H223433   2.886   5.946  13.319 -0.2509  0.2249  0.3154
  648TIP3   OH223434   3.849   4.365  14.277 -0.8247  0.5310 -0.3492
  648TIP3    H123435   3.939   4.392  14.262 -1.0893  2.0707  0.5707
  648TIP3    H223436   3.802   4.447  14.297 -2.1632 -0.3651  0.3981
  649TIP3   OH223437   3.029   0.495  15.650  0.4683  0.0992 -0.2872
  649TIP3    H123438   3.075   0.498  15.734  0.2656 -0.6182 -0.1403
  649TIP3    H223439   3.088   0.538  15.588  0.7161  0.4328  0.1784
  650TIP3   OH223440   5.527   3.964   2.204 -0.3562  0.2341  0.0905
  650TIP3    H123441   5.531   4.058   2.224 -0.9972  0.3362 -0.2395
  650TIP3    H223442   5.547   3.921   2.287  2.5444  0.6334 -0.3032
  651TIP3   OH223443   3.816   4.099  15.391  0.0868 -0.5454  0.1455
  651TIP3    H123444   3.759   4.026  15.367  0.7401 -1.0625  0.1438
  651TIP3    H223445   3.904   4.061  15.394  0.5429  0.4044 -0.6013
  652TIP3   OH223446   3.470   0.238  11.726 -0.3568  0.3904  0.3466
  652TIP3    H123447   3.403   0.172  11.738 -0.9409  0.4461 -2.1210
  652TIP3    H223448   3.423   0.322  11.731 -0.9857  0.4044 -3.3049
  653TIP3   OH223449   3.171   1.381  14.233 -0.3097  0.3232 -0.6380
  653TIP3    H123450   3.231   1.324  14.184 -0.9808 -1.9323  1.0297
  653TIP3    H223451   3.221   1.462  14.245  1.6288 -0.7346 -1.0639
  654TIP3   OH223452   4.084   2.182  13.599 -0.1472  0.3119  0.1830
  654TIP3    H123453   4.078   2.116  13.530 -0.2847 -0.0105  0.4969
  654TIP3    H223454   3.994   2.203  13.621 -0.1249 -0.2545  0.8809
  655TIP3   OH223455   3.578   5.980  11.789  0.3990 -0.2002  0.4340
  655TIP3    H123456   3.660   6.030  11.783 -0.4184  1.1637  0.3204
  655TIP3    H223457   3.606   5.888  11.786  1.8358  0.2409 -0.6708
  656TIP3   OH223458   6.438   2.543   3.654  0.0862 -0.2278  0.4535
  656TIP3    H123459   6.475   2.490   3.725 -0.4628 -0.5070  0.5394
  656TIP3    H223460   6.389   2.612   3.699 -0.6118 -0.6522  0.3558
  657TIP3   OH223461   1.614   4.274   4.805  0.0052 -0.1372  0.6596
  657TIP3    H123462   1.530   4.316   4.789  0.1765  0.6836  1.7614
  657TIP3    H223463   1.592   4.184   4.828 -0.7230  0.4513  2.4403
  658TIP3   OH223464   0.901   6.822   5.472  0.0970  0.3210 -0.1980
  658TIP3    H123465   0.946   6.741   5.494  0.6480  0.7598  0.3130
  658TIP3    H223466   0.839   6.797   5.403 -0.1392 -0.6358  0.3436
  659TIP3   OH223467   6.272   4.978   4.393 -0.1380  0.1598 -0.3357
  659TIP3    H123468   6.316   4.995   4.310 -0.9790  2.0471 -0.4501
  659TIP3    H223469   6.270   5.063   4.437  0.5046 -0.8486  1.7406
  660TIP3   OH223470   4.756   2.239  12.290 -0.6385  0.0084  0.5848
  660TIP3    H123471   4.792   2.296  12.222  4.9516 -1.4116  1.8562
  660TIP3    H223472   4.717   2.299  12.354  0.5228  1.9756 -0.4609
  661TIP3   OH223473   2.822   3.729   2.954 -0.1203 -0.3338 -0.3292
  661TIP3    H123474   2.852   3.674   3.026 -0.4880  0.1703  0.2292
  661TIP3    H223475   2.769   3.796   2.997 -1.7053 -0.9597 -1.2382
  662TIP3   OH223476   0.210   4.346   3.352 -1.1076 -0.1169  1.1630
  662TIP3    H123477   0.133   4.396   3.377 -1.0969 -0.6303  2.3176
  662TIP3    H223478   0.214   4.275   3.416  0.2586 -0.1630  1.0610
  663TIP3   OH223479   1.916   4.828   4.678 -0.2304  1.2870  1.0046
  663TIP3    H123480   1.898   4.745   4.635  1.2490  0.9776  0.9402
  663TIP3    H223481   1.929   4.806   4.770 -0.3017  1.5071  1.0677
  664TIP3   OH223482   2.530   6.514   2.997 -0.1819 -0.2027  0.2858
  664TIP3    H123483   2.553   6.606   2.989  0.1857 -0.4681 -2.6253
  664TIP3    H223484   2.447   6.506   2.949  0.2135 -1.5269 -0.2055
  665TIP3   OH223485   0.899   0.910  16.028  0.1428 -0.4273 -0.0184
  665TIP3    H123486   0.899   0.931  16.122 -0.5075 -0.6901  0.0437
  665TIP3    H223487   0.807   0.892  16.007 -0.1457  1.9600 -1.2257
  666TIP3   OH223488   1.414   0.614  11.776 -0.0588  0.1982 -0.0269
  666TIP3    H123489   1.352   0.679  11.809 -1.0428 -0.4923 -0.4646
  666TIP3    H223490   1.410   0.623  11.681 -0.1983 -0.4864 -0.0919
  667TIP3   OH223491   5.129   0.791   2.973 -0.2524 -0.3656 -0.1760
  667TIP3    H123492   5.138   0.725   3.042  0.0466  0.6288  0.7726
  667TIP3    H223493   5.215   0.834   2.970 -0.2020 -0.5112 -1.3118
  668TIP3   OH223494   1.394   1.934  13.809  0.2549 -0.8322 -0.0234
  668TIP3    H123495   1.462   1.930  13.875 -1.0111  2.4133  1.7157
  668TIP3    H223496   1.326   1.875  13.841 -0.8258  1.5224  2.3764
  669TIP3   OH223497   0.966   3.215   4.969  0.2646  0.6933  0.5891
  669TIP3    H123498   0.970   3.309   4.985  1.4833  0.8735 -0.5363
  669TIP3    H223499   0.881   3.188   5.004 -0.3873  2.3253  0.3680
  670TIP3   OH223500   3.227   6.064   4.700  0.2531 -0.0180 -0.4410
  670TIP3    H123501   3.214   6.156   4.721 -3.7536 -0.4028 -0.4344
  670TIP3    H223502   3.288   6.032   4.767 -0.9624  1.8922  1.6999
  671TIP3   OH223503   1.838   5.088   3.635 -0.4928  0.1194  0.2569
  671TIP3    H123504   1.818   5.037   3.713 -1.6704 -0.9551 -0.7204
  671TIP3    H223505   1.919   5.050   3.602  0.0757  0.6527  0.9817
  672TIP3   OH223506   4.733   4.038  14.775  0.1213  0.4249 -0.6064
  672TIP3    H123507   4.662   4.023  14.837  1.1710  0.6798  0.7143
  672TIP3    H223508   4.811   4.004  14.820  0.7729 -0.3269 -2.2218
  673TIP3   OH223509   2.480   2.813   2.183  0.3039  0.8809 -0.5281
  673TIP3    H123510   2.551   2.786   2.125 -0.3701 -2.1729 -0.1143
  673TIP3    H223511   2.402   2.770   2.146 -0.4719  0.4728  1.4760
  674TIP3   OH223512   0.720   5.044   4.725  0.0983  0.3372  0.3449
  674TIP3    H123513   0.722   5.074   4.634  0.8647  2.1756  0.9165
  674TIP3    H223514   0.631   5.064   4.755  0.4855  1.7668  0.6029
  675TIP3   OH223515   2.535   1.424   5.170 -0.1503  0.2288 -0.1516
  675TIP3    H123516   2.588   1.398   5.095  1.5689 -1.4242  1.5119
  675TIP3    H223517   2.567   1.369   5.242 -2.8592  0.5259  1.4202
  676TIP3   OH223518   6.480   6.645  17.152 -0.5503 -0.1417  0.4341
  676TIP3    H123519   6.467   6.725  17.202  1.3784  0.1701  0.5091
  676TIP3    H223520   6.574   6.642  17.135 -0.9078 -1.1765 -1.6319
  677TIP3   OH223521   1.556   3.406  16.322  0.1489  0.6066  0.5795
  677TIP3    H123522   1.501   3.425  16.246 -0.1326 -2.4626 -0.1455
  677TIP3    H223523   1.495   3.402  16.396  0.0642  1.2720  0.5524
  678TIP3   OH223524   1.813   2.443   5.441  0.6314 -0.1237  0.4309
  678TIP3    H123525   1.789   2.404   5.357 -0.2914 -1.0847  1.1233
  678TIP3    H223526   1.900   2.480   5.426  0.7077 -0.7551 -0.7899
  679TIP3   OH223527   5.661   6.838   1.761 -0.0879 -0.3616 -0.6915
  679TIP3    H123528   5.664   6.915   1.818 -1.6885 -0.0563 -0.9763
  679TIP3    H223529   5.639   6.873   1.674 -0.1609 -1.0795 -0.9673
  680TIP3   OH223530   1.727   0.494  15.078  0.0202  0.6251 -0.3640
  680TIP3    H123531   1.756   0.584  15.062  1.3823  0.9885  3.3127
  680TIP3    H223532   1.797   0.439  15.042  0.0386  1.0692 -1.0304
  681TIP3   OH223533   4.700   3.501  13.605 -0.1208  0.0888  0.0791
  681TIP3    H123534   4.656   3.586  13.596  1.2007  0.7830 -0.1885
  681TIP3    H223535   4.791   3.519  13.578  0.7527 -0.8827  2.1571
  682TIP3   OH223536   5.084   6.152  15.324  0.2198  0.3388 -0.4213
  682TIP3    H123537   5.110   6.243  15.308 -0.4566  0.3192 -1.8157
  682TIP3    H223538   5.123   6.103  15.252 -1.4499 -0.0679 -1.0939
  683TIP3   OH223539   5.267   0.346   3.959  0.1732  0.3100 -0.1101
  683TIP3    H123540   5.189   0.398   3.975  0.0824 -0.2013  1.2273
  683TIP3    H223541   5.315   0.394   3.892  0.7233  2.8045  1.9342
  684TIP3   OH223542   3.384   1.949  16.061 -0.2888 -0.3005 -0.2747
  684TIP3    H123543   3.351   1.920  16.146  1.8443  0.3296  0.8304
  684TIP3    H223544   3.305   1.971  16.011 -1.6822 -2.2951  0.8952
  685TIP3   OH223545   6.778   6.149   4.896  0.1895 -0.0540 -0.3157
  685TIP3    H123546   6.703   6.140   4.956 -0.2327  0.0201 -0.8279
  685TIP3    H223547   6.806   6.240   4.906 -0.3713  0.1787 -0.7967
  686TIP3   OH223548   6.511   6.557  14.460  0.5664 -0.2171  0.3566
  686TIP3    H123549   6.588   6.588  14.507  0.5156  0.4460  0.0068
  686TIP3    H223550   6.449   6.630  14.465 -0.1865 -0.8745  0.9544
  687TIP3   OH223551   5.475   6.316  10.975 -0.2909 -0.4031  0.1745
  687TIP3    H123552   5.483   6.252  10.905 -1.3931 -0.0206 -0.3288
  687TIP3    H223553   5.452   6.264  11.053  0.8015 -0.8120  0.2313
  688TIP3   OH223554   5.685   6.513  13.423  0.0184  0.2193  0.3681
  688TIP3    H123555   5.701   6.562  13.504  2.5278 -0.7458  0.5373
  688TIP3    H223556   5.679   6.422  13.451 -0.7465  0.0367 -0.3682
  689TIP3   OH223557   6.696   4.434  15.999 -0.7993 -0.0968 -0.3952
  689TIP3    H123558   6.720   4.525  16.020 -0.1799 -0.4582  0.5022
  689TIP3    H223559   6.769   4.382  16.033 -1.8360 -1.0579  0.3846
  690TIP3   OH223560   0.067   6.742  14.477 -0.4811 -0.3529  0.2402
  690TIP3    H123561  -0.023   6.771  14.494  0.0413 -0.0182  2.9786
  690TIP3    H223562   0.102   6.721  14.564  3.0038  2.2291 -0.3380
  691TIP3   OH223563   2.764   5.865   5.218  0.1303 -0.0037 -0.2250
  691TIP3    H123564   2.857   5.883   5.233  0.8493 -2.4062 -1.3640
  691TIP3    H223565   2.752   5.878   5.124 -0.3543 -1.0258 -0.3165
  692TIP3   OH223566   5.451   5.908   1.754 -0.3489  0.3496  0.1614
  692TIP3    H123567   5.522   5.919   1.817 -1.7593  1.8447  1.5841
  692TIP3    H223568   5.495   5.894   1.670  1.5863 -1.2725  1.3686
  693TIP3   OH223569   6.193   1.162   0.558  0.0349  0.4250 -0.2016
  693TIP3    H123570   6.160   1.072   0.560  2.4580 -0.5305  1.9082
  693TIP3    H223571   6.117   1.216   0.580 -0.8658 -1.3409  1.3077
  694TIP3   OH223572   3.393   6.722   0.390  0.3572 -0.1161 -0.4898
  694TIP3    H123573   3.445   6.785   0.439  0.4313  0.8927 -1.8251
  694TIP3    H223574   3.371   6.654   0.455  0.1714  1.3080  1.0091
  695TIP3   OH223575   4.609   6.555  12.757 -0.3156  0.7157  0.2469
  695TIP3    H123576   4.665   6.615  12.709 -0.0565  0.4648  0.2317
  695TIP3    H223577   4.608   6.475  12.705  0.2303  0.3278  0.8149
  696TIP3   OH223578   6.768   6.057  13.207  0.0392  0.3361 -0.0404
  696TIP3    H123579   6.736   6.143  13.235 -2.1771 -0.2423 -0.5700
  696TIP3    H223580   6.857   6.051  13.243  0.3215  2.8928 -0.1348
  697TIP3   OH223581   1.249   2.847   4.171  0.0933 -0.2869 -0.3804
  697TIP3    H123582   1.176   2.886   4.124 -0.1123 -0.5999 -0.3232
  697TIP3    H223583   1.309   2.817   4.102  0.7812  1.1008 -0.4197
  698TIP3   OH223584   0.142   6.489  11.687 -0.4191 -0.1378 -0.1293
  698TIP3    H123585   0.196   6.550  11.736 -0.8557 -0.5415  0.8919
  698TIP3    H223586   0.183   6.403  11.702  0.8356 -0.0068 -2.4508
  699TIP3   OH223587   3.145   1.893  11.495  0.2445 -0.4841 -0.0352
  699TIP3    H123588   3.121   1.926  11.409 -1.6845  3.2983  1.7118
  699TIP3    H223589   3.061   1.885  11.541  1.3641  0.2607  2.2795
  700TIP3   OH223590   0.786   2.706   4.176 -0.2120 -0.1640 -0.2672
  700TIP3    H123591   0.732   2.656   4.238 -1.3303  0.6604 -0.5316
  700TIP3    H223592   0.835   2.640   4.127  2.5096 -0.8162  2.9763
  701TIP3   OH223593   0.553   4.786   6.572  0.2940  0.0334  0.0651
  701TIP3    H123594   0.485   4.730   6.535 -1.2037  0.9244  1.3566
  701TIP3    H223595   0.519   4.875   6.563  0.5623  0.3818  2.1257
  702TIP3   OH223596   2.586   4.984   3.929  0.2015 -0.3476 -0.3510
  702TIP3    H123597   2.581   5.078   3.914 -0.0522 -0.3065 -0.0042
  702TIP3    H223598   2.617   4.948   3.845  1.7263  0.1848 -0.0494
  703TIP3   OH223599   3.861   0.941  15.158 -0.1910  0.7389  0.4225
  703TIP3    H123600   3.782   0.892  15.134 -0.3034  0.8306  0.6014
  703TIP3    H223601   3.834   0.995  15.232  0.7516 -1.3395  2.4003
  704TIP3   OH223602   2.193   5.074  11.695  0.3383  0.2440  0.1143
  704TIP3    H123603   2.145   5.083  11.777 -1.2492 -0.3219 -0.7013
  704TIP3    H223604   2.285   5.068  11.721 -0.1399 -0.1364  1.8591
  705TIP3   OH223605   3.120   1.242   4.134 -0.1265 -0.2490  0.0686
  705TIP3    H123606   3.082   1.248   4.046 -0.8784  2.8259  0.4945
  705TIP3    H223607   3.211   1.270   4.122  0.2408 -1.3937  0.0623
  706TIP3   OH223608   2.356   5.957   1.180  0.3932  0.0835 -0.2918
  706TIP3    H123609   2.364   5.954   1.084  0.2099 -0.0125 -0.3051
  706TIP3    H223610   2.336   6.048   1.200  1.0420  0.2267 -0.2968
  707TIP3   OH223611   6.495   6.588   0.978 -0.3199  0.4231  0.4300
  707TIP3    H123612   6.425   6.652   0.966  0.3730  1.0161 -0.6014
  707TIP3    H223613   6.529   6.573   0.890  0.3824 -0.3954  0.8248
  708TIP3   OH223614   6.509   6.433   3.064 -0.0015  0.1035 -0.1202
  708TIP3    H123615   6.543   6.491   3.132 -0.9847 -1.3209  1.7083
  708TIP3    H223616   6.416   6.456   3.058 -0.0601 -0.2275 -0.4947
  709TIP3   OH223617   4.349   3.726   4.605 -0.4447  0.1317 -0.2320
  709TIP3    H123618   4.305   3.785   4.544 -0.1677  0.5002 -0.0750
  709TIP3    H223619   4.328   3.761   4.691  1.6705  1.4284 -0.1810
  710TIP3   OH223620   3.396   5.867  15.002  0.4317  0.1424  0.9650
  710TIP3    H123621   3.323   5.806  14.998  0.6478 -0.0617 -0.3930
  710TIP3    H223622   3.468   5.816  15.040  0.4874 -0.3437  0.2331
  711TIP3   OH223623   0.651   1.315   4.264  0.5989 -0.2494 -0.1735
  711TIP3    H123624   0.559   1.313   4.235  0.1745  1.0589  0.9851
  711TIP3    H223625   0.693   1.377   4.205  0.8269 -1.0136 -0.8474
  712TIP3   OH223626   4.374   0.260  15.057  0.0211 -0.3879  0.0278
  712TIP3    H123627   4.408   0.342  15.021 -1.2225  0.5351  0.8661
  712TIP3    H223628   4.371   0.200  14.982  2.0112 -0.0441 -0.3671
  713TIP3   OH223629   1.625   0.091  13.518 -0.8765 -0.4954 -0.0610
  713TIP3    H123630   1.651   0.009  13.558 -2.3485  0.1821  2.5392
  713TIP3    H223631   1.543   0.071  13.472 -1.1654 -0.5211  0.4616
  714TIP3   OH223632   5.347   4.880   2.621  0.0420 -0.0810 -0.4299
  714TIP3    H123633   5.336   4.968   2.584 -3.9244  0.3654  1.3123
  714TIP3    H223634   5.311   4.822   2.554  0.5421 -0.1784 -0.6221
  715TIP3   OH223635   1.123   6.228   4.076 -0.2649  0.3121 -0.5595
  715TIP3    H123636   1.040   6.195   4.111 -0.1740 -1.4739 -1.8947
  715TIP3    H223637   1.178   6.150   4.068  0.7019  1.1097 -1.9364
  716TIP3   OH223638   5.081   5.028  15.726 -0.1892 -0.3296 -0.4343
  716TIP3    H123639   5.107   4.944  15.762  2.0582  1.3039  2.1238
  716TIP3    H223640   5.009   5.057  15.783  1.4290  0.9588  1.0803
  717TIP3   OH223641   3.596   2.931  13.598 -0.6254 -0.0388 -0.2617
  717TIP3    H123642   3.502   2.919  13.607 -0.5145 -0.9726 -0.2619
  717TIP3    H223643   3.634   2.866  13.657  0.0168  0.8218  0.2904
  718TIP3   OH223644   0.467   3.116   5.316 -0.3845  0.1230  0.0034
  718TIP3    H123645   0.385   3.078   5.347 -0.8352  0.8321 -0.2940
  718TIP3    H223646   0.524   3.115   5.393 -1.6220  2.2425  1.0520
  719TIP3   OH223647   3.572   0.161  15.510 -0.0855 -0.3054  0.0262
  719TIP3    H123648   3.509   0.093  15.533  0.4811 -1.6651 -2.1539
  719TIP3    H223649   3.608   0.133  15.426  3.4432  0.3924  1.1324
  720TIP3   OH223650   0.306   0.584  17.059 -0.2872 -0.0727 -0.4610
  720TIP3    H123651   0.236   0.621  17.006 -0.3352 -0.3278 -0.5778
  720TIP3    H223652   0.265   0.511  17.105 -0.3754  0.4637  0.3358
  721TIP3   OH223653   1.367   1.508   2.795 -0.2796 -0.6748  0.0022
  721TIP3    H123654   1.327   1.485   2.711  1.2241 -0.2364 -0.8583
  721TIP3    H223655   1.295   1.546   2.846 -1.0400 -0.1860 -1.3835
  722TIP3   OH223656   4.768   5.487   3.370 -0.0373  0.5641  0.2993
  722TIP3    H123657   4.817   5.461   3.449  0.7570 -0.5237 -0.5307
  722TIP3    H223658   4.723   5.408   3.343  0.9985  0.4558 -1.2587
  723TIP3   OH223659   2.669   4.141   3.693 -0.2598  0.2986 -1.0005
  723TIP3    H123660   2.637   4.188   3.770 -0.2375  0.7680 -1.2714
  723TIP3    H223661   2.638   4.193   3.619  0.4265  0.3078 -1.2910
  724TIP3   OH223662   5.695   5.950  13.008 -0.3543  0.2420  0.0040
  724TIP3    H123663   5.746   5.924  12.932  0.2015 -0.8632  0.7395
  724TIP3    H223664   5.610   5.976  12.972 -0.0868 -0.2340 -0.9882
  725TIP3   OH223665   6.478   2.120   0.442 -0.4868 -0.1787  0.1304
  725TIP3    H123666   6.415   2.181   0.481 -0.1655  1.1501 -1.2934
  725TIP3    H223667   6.424   2.057   0.395 -0.8014 -0.5535  0.9676
  726TIP3   OH223668   0.745   3.166   3.871 -0.1171 -0.0722  0.3891
  726TIP3    H123669   0.651   3.155   3.885 -0.7789  5.1564  2.1724
  726TIP3    H223670   0.786   3.114   3.940 -1.5664 -2.2826 -0.2973
  727TIP3   OH223671   5.126   6.542   2.239  0.1443 -0.1868  0.7742
  727TIP3    H123672   5.207   6.492   2.234  0.4928  0.4651 -0.6917
  727TIP3    H223673   5.116   6.563   2.331  2.6906  1.3369  0.7925
  728TIP3   OH223674   5.905   3.641   5.841 -0.2011  0.2632  0.2982
  728TIP3    H123675   5.974   3.578   5.860 -0.5942 -0.4631 -0.5838
  728TIP3    H223676   5.908   3.704   5.913 -0.1657 -1.0844  1.5069
  729TIP3   OH223677   5.043   2.307  16.147 -0.9482 -0.1730  0.1264
  729TIP3    H123678   4.951   2.328  16.133 -1.1614 -1.2950 -0.2756
  729TIP3    H223679   5.046   2.266  16.233 -1.1251 -1.7463 -0.5893
  730TIP3   OH223680   1.248   6.463   0.774  0.5128 -0.1822 -0.2937
  730TIP3    H123681   1.326   6.449   0.829  0.8200 -1.6776 -1.0668
  730TIP3    H223682   1.280   6.516   0.701  0.4211  0.5755  0.1965
  731TIP3   OH223683   4.496   4.669   5.361 -0.4219  0.1433 -1.0847
  731TIP3    H123684   4.498   4.587   5.311 -0.9361 -0.4804 -0.1057
  731TIP3    H223685   4.403   4.688   5.372 -0.3235  0.1119 -0.1338
  732TIP3   OH223686   4.037   4.098  14.332  0.0957  0.2229  0.3186
  732TIP3    H123687   3.957   4.149  14.342  0.3757  0.7136  0.0852
  732TIP3    H223688   4.092   4.151  14.274 -0.2543 -1.1027 -1.2875
  733TIP3   OH223689   0.175   5.969  12.032 -0.5970 -0.1475 -0.0225
  733TIP3    H123690   0.148   5.882  12.001 -0.4363 -0.2503  0.1168
  733TIP3    H223691   0.093   6.013  12.054 -0.8545  0.5650 -2.1863
  734TIP3   OH223692   5.468   4.896   5.074 -0.1597  0.3416  0.2269
  734TIP3    H123693   5.513   4.813   5.060 -0.8171 -0.0117  0.1286
  734TIP3    H223694   5.513   4.937   5.147 -0.2972 -0.4487  0.7641
  735TIP3   OH223695   4.337   6.568   4.288  0.9769  0.5793  0.3164
  735TIP3    H123696   4.393   6.491   4.275 -1.0657 -0.9351 -0.1083
  735TIP3    H223697   4.386   6.640   4.248  3.4880 -0.1992  1.7409
  736TIP3   OH223698   0.249   1.444   4.865  0.3091 -0.0083  0.2431
  736TIP3    H123699   0.239   1.529   4.906 -3.4939 -0.6236  1.0325
  736TIP3    H223700   0.165   1.428   4.822  0.3894 -3.7775  1.0703
  737TIP3   OH223701   6.017   3.207   3.682  0.4070  0.1800 -0.1382
  737TIP3    H123702   5.940   3.152   3.664  1.1657 -0.8086 -0.4570
  737TIP3    H223703   6.079   3.149   3.726  1.2951  0.7351 -0.6238
  738TIP3   OH223704   5.848   4.588  15.819 -0.3377 -0.0114  0.6017
  738TIP3    H123705   5.886   4.505  15.848  2.7495  1.0199 -0.1101
  738TIP3    H223706   5.879   4.653  15.882 -1.2689  0.8779  0.1784
  739TIP3   OH223707   1.382   0.169  15.214 -0.3282  0.3140 -0.4247
  739TIP3    H123708   1.467   0.147  15.177 -0.5991 -2.1299  0.2292
  739TIP3    H223709   1.388   0.262  15.235  1.9818  0.3219 -0.8870
  740TIP3   OH223710   6.129   3.009   3.274  0.0892 -0.1221 -0.1649
  740TIP3    H123711   6.075   3.033   3.198  0.6585  2.2634  0.0766
  740TIP3    H223712   6.190   3.082   3.283  1.1663 -1.1710  1.5728
  741TIP3   OH223713   0.364   1.007  16.406 -0.0460  0.0749 -0.8134
  741TIP3    H123714   0.459   1.011  16.414 -0.1151 -0.7271  0.8974
  741TIP3    H223715   0.334   1.096  16.428  0.3572  0.8647 -3.2183
  742TIP3   OH223716   1.340   3.984   1.628 -0.6835 -0.2879  0.3912
  742TIP3    H123717   1.346   3.892   1.654  0.8602 -0.5597 -0.7813
  742TIP3    H223718   1.273   3.985   1.560 -1.5672 -0.3313  1.2522
  743TIP3   OH223719   5.580   5.792  15.253 -0.2306 -0.1240  0.2100
  743TIP3    H123720   5.600   5.713  15.202 -1.3678  1.2249 -2.5447
  743TIP3    H223721   5.660   5.811  15.301  0.6910 -1.8547 -0.5479
  744TIP3   OH223722   0.670   0.118   2.307 -0.1630  0.3939 -0.0567
  744TIP3    H123723   0.717   0.038   2.330 -1.4854  0.0239  1.5734
  744TIP3    H223724   0.602   0.089   2.246  0.7379  0.6790 -1.2280
  745TIP3   OH223725   4.047   4.363  16.838  0.0237 -0.0660  0.0828
  745TIP3    H123726   4.063   4.280  16.793  1.0848  0.7741 -1.1624
  745TIP3    H223727   3.951   4.368  16.846 -0.1628 -0.5675 -1.5057
  746TIP3   OH223728   2.001   1.115   5.520 -0.2536  0.0116 -0.1628
  746TIP3    H123729   2.003   1.045   5.585 -1.7704  1.2193  1.2586
  746TIP3    H223730   1.910   1.119   5.492 -0.1801  1.3807 -0.2611
  747TIP3   OH223731   2.187   5.176  13.498  0.2880  0.3066 -0.0341
  747TIP3    H123732   2.164   5.091  13.460  0.8360  0.6229 -1.1364
  747TIP3    H223733   2.104   5.216  13.520 -0.0211 -0.1688 -0.3166
  748TIP3   OH223734   5.527   4.418  10.556 -0.0881  0.1042 -0.2916
  748TIP3    H123735   5.476   4.358  10.501  1.1697 -0.2645 -1.0998
  748TIP3    H223736   5.574   4.361  10.616  2.5369  0.0271 -2.2461
  749TIP3   OH223737   0.005   0.750   5.193  0.1371  0.1326 -0.3651
  749TIP3    H123738  -0.002   0.775   5.285  1.2518  0.2363 -0.3014
  749TIP3    H223739  -0.082   0.769   5.157 -0.9147 -1.6743  1.0674
  750TIP3   OH223740   1.593   5.644   2.096 -0.1296 -0.4675 -0.0124
  750TIP3    H123741   1.667   5.691   2.058 -0.4088  0.1029  0.1496
  750TIP3    H223742   1.558   5.703   2.162 -1.6842 -0.0822 -1.1255
  751TIP3   OH223743   4.666   3.485   5.229 -0.3843  0.3052 -0.2073
  751TIP3    H123744   4.698   3.520   5.146 -0.9108 -0.7816 -0.8991
  751TIP3    H223745   4.734   3.423   5.256  0.6470  1.9334  1.1181
  752TIP3   OH223746   2.280   5.589   2.996  0.2597  0.6271 -0.0805
  752TIP3    H123747   2.362   5.612   3.039  1.5781  0.0620 -2.1386
  752TIP3    H223748   2.304   5.574   2.905 -2.3694  1.7804 -1.0761
  753TIP3   OH223749   2.865   6.759  14.919 -0.3558 -0.1586  0.2186
  753TIP3    H123750   2.821   6.844  14.916  1.0317  0.5679 -1.4950
  753TIP3    H223751   2.907   6.750  14.833  0.8644 -1.8635  0.9180
  754TIP3   OH223752   0.964   3.013  12.008  0.1620 -0.4471 -0.1711
  754TIP3    H123753   0.982   2.995  11.916  0.9393  0.1591 -0.1516
  754TIP3    H223754   1.049   3.005  12.051  0.1336  0.9603  0.2012
  755TIP3   OH223755   4.936   2.464   5.011  0.1397  0.9262  0.3204
  755TIP3    H123756   4.851   2.432   4.981 -0.2035  0.6792  1.5148
  755TIP3    H223757   4.982   2.386   5.043  1.0913  0.9508 -0.9185
  756TIP3   OH223758   1.938   0.712  14.172 -0.2316 -0.2756  0.1500
  756TIP3    H123759   1.886   0.641  14.133 -0.8861  0.1203  0.3037
  756TIP3    H223760   1.939   0.693  14.266  0.2105 -0.4781  0.1099
  757TIP3   OH223761   4.226   5.041   3.601 -0.0480 -0.3730 -0.1589
  757TIP3    H123762   4.147   5.059   3.550 -0.1262  1.1339  0.4558
  757TIP3    H223763   4.297   5.080   3.551 -0.2353  1.9721  1.2454
  758TIP3   OH223764   3.234   4.800  15.146 -0.8245  0.0399  0.3746
  758TIP3    H123765   3.310   4.857  15.158  0.0997 -1.2039  0.7011
  758TIP3    H223766   3.207   4.816  15.056 -0.9798  1.4334  0.6485
  759TIP3   OH223767   0.271   5.978   0.729 -0.2749 -0.4194 -0.4113
  759TIP3    H123768   0.327   5.972   0.807  1.3644 -0.2636 -1.5314
  759TIP3    H223769   0.332   5.998   0.658 -1.8269  0.1117 -1.6278
  760TIP3   OH223770   4.220   3.772  15.291 -0.0426 -0.1424  0.1760
  760TIP3    H123771   4.133   3.736  15.276  0.0136 -0.0500 -0.3918
  760TIP3    H223772   4.204   3.861  15.323 -0.1544  0.3161 -1.0989
  761TIP3   OH223773   4.545   2.131  13.189  0.0964  0.4218  0.2573
  761TIP3    H123774   4.596   2.209  13.211 -0.1560  0.8692 -0.6840
  761TIP3    H223775   4.479   2.124  13.258  1.5935 -0.3638  1.6944
  762TIP3   OH223776   2.665   5.518  17.046  0.2489 -0.1999  0.7181
  762TIP3    H123777   2.731   5.459  17.009 -0.2669  0.1119 -0.7602
  762TIP3    H223778   2.597   5.460  17.082  0.9377 -0.5080  1.5702
  763TIP3   OH223779   4.686   0.429  16.325  0.1059 -0.0581 -0.2147
  763TIP3    H123780   4.638   0.508  16.350  0.8889 -0.3412  2.5686
  763TIP3    H223781   4.701   0.439  16.231 -3.1438  1.2051 -0.7460
  764TIP3   OH223782   4.692   6.458   2.809  0.3165 -0.2295  0.1701
  764TIP3    H123783   4.631   6.508   2.754 -0.8051 -0.0736  1.4905
  764TIP3    H223784   4.777   6.500   2.795 -0.3773  1.2890  0.3137
  765TIP3   OH223785   3.721   0.844  16.727 -0.0704 -0.6601 -0.0685
  765TIP3    H123786   3.791   0.880  16.781 -1.1181 -0.9674  1.5459
  765TIP3    H223787   3.729   0.892  16.644  0.9482  0.5539  0.6856
  766TIP3   OH223788   2.775   0.160  17.087  0.4559 -0.2001 -0.0380
  766TIP3    H123789   2.745   0.074  17.115  1.2186 -0.4951 -0.1010
  766TIP3    H223790   2.864   0.145  17.054  1.0706  0.8131  1.0925
  767TIP3   OH223791   3.099   0.798  17.063  0.5549  0.0474 -0.7053
  767TIP3    H123792   3.175   0.748  17.093  0.7630  0.2918 -0.8150
  767TIP3    H223793   3.034   0.786  17.132  1.3946  1.4534  0.4084
  768TIP3   OH223794   4.042   3.239  14.062  0.5315  0.3954  0.3953
  768TIP3    H123795   3.984   3.215  14.134  1.0509 -0.1486  0.6384
  768TIP3    H223796   4.020   3.331  14.043 -0.9220 -0.0230 -0.0324
  769TIP3   OH223797   2.064   5.666   3.181  0.1625  0.6798  0.4468
  769TIP3    H123798   2.125   5.615   3.128  0.5144 -0.7905  2.1723
  769TIP3    H223799   1.978   5.644   3.147  0.4408  0.8826 -0.4233
  770TIP3   OH223800   4.541   2.962  16.344 -0.1679  0.5508  0.0810
  770TIP3    H123801   4.622   2.920  16.314 -0.4117  0.1166  0.0327
  770TIP3    H223802   4.563   3.055  16.346  0.2352  0.4683 -0.2483
  771TIP3   OH223803   0.146   5.310  11.445 -0.0343  0.7424  0.4209
  771TIP3    H123804   0.071   5.309  11.386 -0.7011 -1.8630  1.1955
  771TIP3    H223805   0.143   5.396  11.487 -1.4990  1.3545 -0.8742
  772TIP3   OH223806   1.251   5.410  11.362  0.5527  0.3998 -0.2757
  772TIP3    H123807   1.157   5.394  11.373  0.7960 -1.0529 -0.1393
  772TIP3    H223808   1.270   5.482  11.423 -0.1927 -0.2899  0.8069
  773TIP3   OH223809   6.602   0.806   3.437 -0.7097  0.4109 -0.2900
  773TIP3    H123810   6.653   0.750   3.379 -1.3173  0.4922 -0.9133
  773TIP3    H223811   6.551   0.861   3.378 -2.3873 -0.4546  0.2926
  774TIP3   OH223812   2.235   3.843   4.701  0.5198 -0.3853  0.4019
  774TIP3    H123813   2.309   3.891   4.738 -0.6770  0.6299  1.5441
  774TIP3    H223814   2.159   3.899   4.717 -0.4358 -1.1352 -1.2612
  775TIP3   OH223815   3.468   1.316  15.475 -0.4170  0.6287 -0.1991
  775TIP3    H123816   3.416   1.313  15.555  1.1469  0.1934  0.8433
  775TIP3    H223817   3.450   1.232  15.432  0.7106 -0.3121  1.0527
  776TIP3   OH223818   3.440   1.334  13.803 -1.1898 -0.0462  0.1832
  776TIP3    H123819   3.445   1.252  13.755  0.4568 -0.4478  0.9604
  776TIP3    H223820   3.407   1.398  13.739 -2.0987 -1.2025 -0.5360
  777TIP3   OH223821   3.987   6.812  17.032  0.1081  0.3209  0.0626
  777TIP3    H123822   3.893   6.810  17.053 -0.2058  0.7872 -1.1891
  777TIP3    H223823   3.993   6.771  16.946  1.1108 -0.0202  0.2815
  778TIP3   OH223824   4.941   5.555  16.122 -0.1190 -0.1461  0.0627
  778TIP3    H123825   4.955   5.493  16.193 -0.4335  0.1454  0.3856
  778TIP3    H223826   4.972   5.510  16.043 -1.0914 -1.0113  0.1707
  779TIP3   OH223827   0.251   2.097  15.784 -0.4592 -0.2821  0.1005
  779TIP3    H123828   0.228   2.177  15.736  0.5701  0.5041  0.8610
  779TIP3    H223829   0.282   2.037  15.716 -2.6789 -0.6212 -0.6744
  780TIP3   OH223830   3.413   2.958  11.729 -0.2735 -0.4697 -0.4582
  780TIP3    H123831   3.503   2.948  11.761 -0.3381  1.6077  0.5334
  780TIP3    H223832   3.366   2.994  11.804 -1.4403  0.5035 -1.6277
  781TIP3   OH223833   4.631   4.368  11.865  0.0362 -0.0125 -0.0302
  781TIP3    H123834   4.606   4.331  11.780 -0.9733  2.1661 -0.7510
  781TIP3    H223835   4.650   4.291  11.919  1.6077 -1.4693 -2.4454
  782TIP3   OH223836   1.459   3.365  13.017 -0.1279  0.2807 -0.0827
  782TIP3    H123837   1.496   3.313  12.946 -0.3442 -0.8735  0.6201
  782TIP3    H223838   1.524   3.359  13.087  0.0133  1.2777 -0.1130
  783TIP3   OH223839   2.185   1.199  11.508  0.5583 -0.1648  0.2237
  783TIP3    H123840   2.193   1.265  11.440 -1.8235  0.3317  0.3241
  783TIP3    H223841   2.237   1.232  11.581  1.8122  0.0899 -0.7555
  784TIP3   OH223842   3.007   6.027   4.939 -0.0115 -0.6884 -0.1740
  784TIP3    H123843   2.932   6.083   4.961  1.0418  0.4122  0.7699
  784TIP3    H223844   3.083   6.084   4.949  0.8485 -1.0007 -3.6206
  785TIP3   OH223845   5.364   2.874   4.910 -0.2413 -0.3566 -0.4881
  785TIP3    H123846   5.294   2.937   4.929  1.2206  1.0158  0.5476
  785TIP3    H223847   5.413   2.913   4.838 -0.1617 -0.9972 -0.7833
  786TIP3   OH223848   6.153   6.838   0.348  0.4167 -0.2098 -0.0857
  786TIP3    H123849   6.108   6.892   0.414  1.4666  1.0610 -0.3494
  786TIP3    H223850   6.168   6.754   0.392 -1.6889 -0.5114  0.1754
  787TIP3   OH223851   5.596   5.846   2.996 -0.1575 -0.5965 -0.1136
  787TIP3    H123852   5.594   5.764   3.045 -0.4156 -1.1154 -0.9694
  787TIP3    H223853   5.661   5.831   2.927  0.6651  0.3423  0.4336
  788TIP3   OH223854   1.498   6.713   4.119  0.2232 -0.4848 -0.1158
  788TIP3    H123855   1.522   6.744   4.031 -2.4706  0.3237 -0.6601
  788TIP3    H223856   1.488   6.619   4.109  0.7718 -0.5085 -0.4655
  789TIP3   OH223857   1.167   3.992   0.880  0.8590  0.6445 -0.0265
  789TIP3    H123858   1.238   3.939   0.915  1.0740  1.4802  0.8440
  789TIP3    H223859   1.187   4.081   0.910 -0.3963  0.9351 -0.0124
  790TIP3   OH223860   5.314   6.757  11.144  0.0640  0.6869 -0.4622
  790TIP3    H123861   5.339   6.700  11.071 -0.1822  1.3870 -1.1063
  790TIP3    H223862   5.396   6.778  11.188  0.0499 -1.0617  0.4735
  791TIP3   OH223863   2.447   5.381   4.083 -0.6112  0.0739  0.5204
  791TIP3    H123864   2.403   5.320   4.142 -0.4931 -0.4932  0.0268
  791TIP3    H223865   2.505   5.326   4.030  0.0954  0.7094  0.6121
  792TIP3   OH223866   5.165   5.061   1.596  0.2072 -0.5386 -0.0765
  792TIP3    H123867   5.151   5.144   1.642 -2.0051 -0.2230 -1.1823
  792TIP3    H223868   5.136   4.994   1.659 -0.2657 -0.2963 -0.0315
  793TIP3   OH223869   0.940   3.970   5.688  0.2650  0.3729  1.0364
  793TIP3    H123870   0.909   4.060   5.694  1.5195  0.9413 -0.3316
  793TIP3    H223871   0.906   3.927   5.766  0.2832  2.2314  2.1154
  794TIP3   OH223872   4.022   2.885   5.537  0.0255 -0.6596  0.5451
  794TIP3    H123873   4.092   2.905   5.476 -0.4689 -0.0543  0.1624
  794TIP3    H223874   3.944   2.928   5.500  0.0015  1.0093  2.3215
  795TIP3   OH223875   3.057   4.264  16.465 -0.7030 -0.5091  0.9431
  795TIP3    H123876   3.041   4.328  16.534 -0.5994 -0.6990  1.1451
  795TIP3    H223877   2.985   4.276  16.403  0.1780  0.9225  0.1291
  796TIP3   OH223878   3.385   2.083   6.404 -0.0322 -0.1340  0.3742
  796TIP3    H123879   3.479   2.097   6.394 -0.3581  1.0447 -1.5859
  796TIP3    H223880   3.347   2.169   6.387 -1.5025 -0.7002  0.6738
  797TIP3   OH223881   6.196   6.442   5.891  0.2359 -0.1547 -0.4429
  797TIP3    H123882   6.148   6.438   5.973 -0.2431  0.1082 -0.7091
  797TIP3    H223883   6.283   6.474   5.915  0.4296 -1.0655  0.1011
  798TIP3   OH223884   0.197   1.022  15.688  0.5281  0.6090 -0.5546
  798TIP3    H123885   0.243   0.941  15.707 -0.8181 -0.0628 -0.0606
  798TIP3    H223886   0.235   1.053  15.606  1.6217 -0.0740 -0.3220
  799TIP3   OH223887   5.308   1.365  15.200 -0.2234  0.5228  0.1565
  799TIP3    H123888   5.383   1.369  15.259 -1.7801 -0.0354  2.2919
  799TIP3    H223889   5.280   1.456  15.191  0.2575  0.6534 -0.0653
  800TIP3   OH223890   3.095   0.756  15.814  0.1809 -0.3061  0.1684
  800TIP3    H123891   3.157   0.817  15.855 -0.0803 -0.1037  0.2630
  800TIP3    H223892   3.068   0.801  15.733 -1.0469  0.3196  0.8990
  801TIP3   OH223893   5.613   3.070   5.010  0.0377 -0.0388 -0.0133
  801TIP3    H123894   5.646   2.981   5.004  3.5661  1.1549 -0.3679
  801TIP3    H223895   5.673   3.122   4.956 -1.1137  2.7479  1.1968
  802TIP3   OH223896   2.802   2.859   4.273 -0.0380  0.2565 -0.0587
  802TIP3    H123897   2.763   2.826   4.192 -0.1535 -0.1485  0.1568
  802TIP3    H223898   2.813   2.781   4.328 -0.0317  0.5367  0.3454
  803TIP3   OH223899   0.960   6.052  13.965  0.7707  0.3414  0.1766
  803TIP3    H123900   0.977   5.966  13.925 -1.8674  0.1881 -0.7912
  803TIP3    H223901   0.896   6.034  14.034 -0.5146  1.6031 -0.6372
  804TIP3   OH223902   5.262   2.777   0.061 -0.8541  0.1196  0.0388
  804TIP3    H123903   5.177   2.802   0.096  0.3885 -0.1483  3.8133
  804TIP3    H223904   5.324   2.799   0.131  2.0868 -0.5028 -2.1569
  805TIP3   OH223905   2.506   2.539  14.082 -0.2340 -0.0818 -0.0092
  805TIP3    H123906   2.550   2.599  14.022 -0.4227  0.3735  0.3029
  805TIP3    H223907   2.421   2.523  14.043  0.2248 -1.0223 -0.6507
  806TIP3   OH223908   5.879   3.439   1.897  0.3095  0.2971  0.1897
  806TIP3    H123909   5.830   3.431   1.815 -0.0511  1.4371  0.2771
  806TIP3    H223910   5.862   3.357   1.943  0.1918 -0.1921 -0.6989
  807TIP3   OH223911   2.045   3.899  14.475 -0.2786 -0.2109  0.4901
  807TIP3    H123912   2.127   3.916  14.429 -0.5243  1.2726  0.5637
  807TIP3    H223913   1.979   3.947  14.426 -0.8446 -0.1238  1.3146
  808TIP3   OH223914   3.931   5.001   3.449  0.2544 -0.2627 -0.3634
  808TIP3    H123915   3.921   4.937   3.379  2.2894 -0.6729 -0.3149
  808TIP3    H223916   3.916   4.951   3.530  3.3239 -1.1225 -0.2282
  809TIP3   OH223917   1.931   6.523   5.112 -0.4280 -0.3762 -0.2192
  809TIP3    H123918   2.022   6.543   5.091 -0.8143  0.5602 -1.0697
  809TIP3    H223919   1.916   6.436   5.075  0.6369 -1.4242  1.6032
  810TIP3   OH223920   4.222   6.150  16.666 -0.0631  0.1051 -0.0959
  810TIP3    H123921   4.222   6.146  16.761  1.1748 -0.4269 -0.0976
  810TIP3    H223922   4.137   6.187  16.643 -1.0186 -1.2073  1.1608
  811TIP3   OH223923   4.407   1.432   6.734  0.1659  0.2618 -0.1178
  811TIP3    H123924   4.388   1.388   6.817  0.2812 -0.0937 -0.2788
  811TIP3    H223925   4.321   1.447   6.694  0.1273  0.1921 -0.0596
  812TIP3   OH223926   0.515   1.778   2.337 -1.2171 -0.0327 -0.0625
  812TIP3    H123927   0.477   1.705   2.386 -0.1525 -0.9468 -0.5552
  812TIP3    H223928   0.532   1.742   2.250 -0.6935  0.8087 -0.3165
  813TIP3   OH223929   5.306   5.377  10.600 -0.1036  0.6836  0.5723
  813TIP3    H123930   5.388   5.347  10.559  0.3094  1.7450  0.5958
  813TIP3    H223931   5.334   5.440  10.667 -0.8764  0.2010  1.3816
  814TIP3   OH223932   5.994   4.084  11.052 -0.1359 -0.1533 -0.1176
  814TIP3    H123933   6.049   4.028  10.997 -1.3320 -1.8683  0.3343
  814TIP3    H223934   5.914   4.097  11.001 -0.0295  0.8352 -0.0448
  815TIP3   OH223935   6.819   5.744   3.576 -0.2786 -0.1696 -0.2891
  815TIP3    H123936   6.832   5.690   3.498  0.5465 -0.0794 -0.2262
  815TIP3    H223937   6.881   5.708   3.640 -1.5206 -0.7748  0.6134
  816TIP3   OH223938   5.036   4.213   0.069  0.0629 -0.3251 -0.1654
  816TIP3    H123939   5.098   4.238   0.000  1.5161 -1.6421  0.5955
  816TIP3    H223940   5.065   4.262   0.146  1.1145 -2.0072  0.5676
  817TIP3   OH223941   5.371   4.209  16.542 -0.0409 -0.2385  0.7678
  817TIP3    H123942   5.422   4.289  16.533  0.4174 -0.7150 -1.1369
  817TIP3    H223943   5.435   4.138  16.540 -0.5424 -0.7325  1.3171
  818TIP3   OH223944   3.323   6.793   6.602 -0.3782 -0.3804  0.6825
  818TIP3    H123945   3.264   6.785   6.678 -1.0178 -0.5575  0.1760
  818TIP3    H223946   3.396   6.845   6.634 -0.5357 -0.6421  1.4900
  819TIP3   OH223947   1.782   1.036  15.529  0.2305  0.6711  0.3157
  819TIP3    H123948   1.773   1.041  15.433 -0.6231 -2.9732  0.0938
  819TIP3    H223949   1.701   1.076  15.562  0.0928  1.0953 -0.4930
  820TIP3   OH223950   3.198   1.889  16.432 -0.2644 -0.0492 -0.5137
  820TIP3    H123951   3.106   1.865  16.438 -0.5983  1.1364 -0.6658
  820TIP3    H223952   3.200   1.984  16.447  0.9314 -0.0555 -0.4754
  821TIP3   OH223953   6.539   3.295  15.226 -0.1014  0.1912  0.4142
  821TIP3    H123954   6.464   3.240  15.250 -0.8707  1.2887  0.6133
  821TIP3    H223955   6.560   3.269  15.137  0.0199 -0.9271  0.7532
  822TIP3   OH223956   4.773   1.571   2.801  0.1079 -0.5303  0.2699
  822TIP3    H123957   4.697   1.627   2.809  0.4906  0.1984 -0.9583
  822TIP3    H223958   4.741   1.492   2.757  0.0682 -0.1924 -0.3149
  823TIP3   OH223959   5.574   0.203   4.035 -0.3194  0.1434 -0.5215
  823TIP3    H123960   5.519   0.256   4.093 -2.4509 -1.9176 -0.5332
  823TIP3    H223961   5.514   0.171   3.968  1.2277 -1.0208 -1.4051
  824TIP3   OH223962   2.518   5.732  12.118 -0.1213  0.3714  0.0646
  824TIP3    H123963   2.475   5.648  12.134  0.4781  0.1678  0.6876
  824TIP3    H223964   2.486   5.789  12.189 -0.9047  0.8232 -0.6396
  825TIP3   OH223965   4.766   5.788  16.055  0.2712  0.4231  0.3375
  825TIP3    H123966   4.821   5.717  16.086  0.3223  0.5813  0.6129
  825TIP3    H223967   4.706   5.746  15.993  0.0706  0.0720  0.7587
  826TIP3   OH223968   2.478   3.796  15.653  0.7022  0.6500 -0.0508
  826TIP3    H123969   2.424   3.719  15.635  0.1341  0.7950  0.9427
  826TIP3    H223970   2.549   3.763  15.708 -0.7220  1.1618  2.2054
  827TIP3   OH223971   0.360   0.002   1.460 -0.5044 -0.4464  0.0805
  827TIP3    H123972   0.313   0.053   1.526 -2.3113  0.1678 -1.5574
  827TIP3    H223973   0.386   0.067   1.394 -0.1892 -1.2407 -0.5893
  828TIP3   OH223974   0.620   0.571  10.767  0.0570 -0.0142  0.4640
  828TIP3    H123975   0.641   0.497  10.711 -2.2629  0.8118 -1.6940
  828TIP3    H223976   0.684   0.638  10.742  0.1654 -0.2450  0.1078
  829TIP3   OH223977   4.667   5.695  14.867  0.2417  0.2393  0.0480
  829TIP3    H123978   4.651   5.775  14.917  1.4131  0.9814 -0.7047
  829TIP3    H223979   4.700   5.632  14.931  1.0881  0.9642  0.3430
  830TIP3   OH223980   0.653   6.591  15.270  0.5785  0.1747  0.3135
  830TIP3    H123981   0.718   6.527  15.300  0.9644 -1.0019 -2.6448
  830TIP3    H223982   0.704   6.670  15.253  0.3899  0.7796  2.3556
  831TIP3   OH223983   2.321   5.805  15.925  0.2571 -0.1849 -0.7766
  831TIP3    H123984   2.384   5.842  15.987  1.7426 -1.2952 -1.5706
  831TIP3    H223985   2.263   5.751  15.979 -1.0408  2.0004  0.1840
  832TIP3   OH223986   4.905   3.442  10.253  0.2476 -0.4936 -0.6668
  832TIP3    H123987   4.871   3.358  10.285 -1.8324  0.8706  0.9969
  832TIP3    H223988   4.987   3.455  10.300  0.3543 -1.3587 -0.5912
  833TIP3   OH223989   3.312   2.017  11.974  0.4040 -0.5775 -0.6020
  833TIP3    H123990   3.349   2.025  11.886 -1.4614  0.4315 -1.3457
  833TIP3    H223991   3.231   2.067  11.971 -0.8236 -2.3053  1.0696
  834TIP3   OH223992   0.721   2.600  15.253  0.2476 -0.3724  0.0921
  834TIP3    H123993   0.630   2.576  15.241 -0.2490  1.8541 -1.3388
  834TIP3    H223994   0.725   2.635  15.342 -0.8313  1.3457 -0.4774
  835TIP3   OH223995   1.626   0.519   3.565  0.3950 -0.6875 -0.5382
  835TIP3    H123996   1.531   0.512   3.574  0.5584 -1.9529  0.3911
  835TIP3    H223997   1.660   0.433   3.590  1.8108 -0.1612 -0.5336
  836TIP3   OH223998   3.472   4.657  15.279 -0.1688  0.0763 -0.1707
  836TIP3    H123999   3.387   4.692  15.308 -0.2703 -0.0038 -0.3674
  836TIP3    H224000   3.478   4.684  15.187 -0.5859 -1.0517 -0.5446
  837TIP3   OH224001   3.690   3.519  14.003  0.2989 -0.4397  0.3725
  837TIP3    H124002   3.673   3.427  13.983 -1.8660 -0.2505  1.0925
  837TIP3    H224003   3.642   3.536  14.084  0.4079  1.4026  0.1019
  838TIP3   OH224004   3.611   5.309   2.571  0.0847 -0.6669  0.0531
  838TIP3    H124005   3.627   5.403   2.577  1.0068 -0.9320  2.4612
  838TIP3    H224006   3.681   5.276   2.515  1.6225 -0.2965  1.6885
  839TIP3   OH224007   1.035   0.452   2.006  0.4493 -0.2137 -0.2445
  839TIP3    H124008   0.980   0.393   1.954  1.2881  0.8197 -2.4206
  839TIP3    H224009   0.981   0.530   2.018  0.6688 -0.0069 -0.5803
  840TIP3   OH224010   0.041   0.692  16.411  0.2596 -0.3066 -0.2015
  840TIP3    H124011   0.112   0.652  16.361  0.3269 -1.5562  0.8335
  840TIP3    H224012   0.085   0.733  16.486 -0.0546 -0.5599  0.1220
  841TIP3   OH224013   6.554   6.712   2.873  0.4399  0.4011  0.0022
  841TIP3    H124014   6.479   6.676   2.920  0.6640  0.6741  0.5698
  841TIP3    H224015   6.519   6.733   2.786  0.7103 -2.8310 -1.0074
  842TIP3   OH224016   5.556   0.766  16.823 -0.9653  0.1639 -0.2364
  842TIP3    H124017   5.626   0.815  16.780 -2.8656  1.7487 -1.6577
  842TIP3    H224018   5.571   0.782  16.916  0.5662  0.4537 -0.4971
  843TIP3   OH224019   3.763   4.427   1.105  0.0547  0.0092 -0.1082
  843TIP3    H124020   3.749   4.370   1.180  0.0380 -1.3546 -1.1147
  843TIP3    H224021   3.725   4.511   1.132 -0.6487 -0.6640  1.1057
  844TIP3   OH224022   2.652   4.567  16.874  0.1403  0.1811  0.6743
  844TIP3    H124023   2.609   4.482  16.884  2.0059 -0.8284  0.5936
  844TIP3    H224024   2.656   4.582  16.780  2.8210 -1.3728  0.4287
  845TIP3   OH224025   1.233   2.292  16.053  0.4528 -0.3854  0.0569
  845TIP3    H124026   1.243   2.321  16.144  1.9148 -1.8696  0.3943
  845TIP3    H224027   1.318   2.307  16.013  0.3754 -1.4899 -0.5548
  846TIP3   OH224028   2.966   2.247   1.496  0.4241  0.2919 -0.8227
  846TIP3    H124029   2.920   2.270   1.415  0.6750 -0.9384 -1.3301
  846TIP3    H224030   3.004   2.161   1.479 -0.0976 -0.3049  0.8425
  847TIP3   OH224031   0.708   3.886   5.227 -0.1841  0.2207  0.1325
  847TIP3    H124032   0.625   3.905   5.184  0.1222 -0.7705 -0.9436
  847TIP3    H224033   0.756   3.969   5.223 -0.0296  0.0925 -1.8092
  848TIP3   OH224034   5.186   3.971  15.675  0.2937 -0.4265 -0.1598
  848TIP3    H124035   5.228   3.914  15.610  2.8221  0.0126  0.9353
  848TIP3    H224036   5.246   4.045  15.683 -1.9421  1.4703 -0.1207
  849TIP3   OH224037   2.382   3.554  16.575  0.2884 -0.1878 -0.0449
  849TIP3    H124038   2.299   3.599  16.589 -0.4441 -1.4105 -0.3105
  849TIP3    H224039   2.448   3.624  16.575 -0.6883  0.7594  0.5298
  850TIP3   OH224040   2.869   0.206   1.863  0.5233 -0.2874 -0.2805
  850TIP3    H124041   2.965   0.207   1.873  0.4228  0.1016  0.7882
  850TIP3    H224042   2.852   0.268   1.793  0.9968  0.4611  0.2512
  851TIP3   OH224043   5.299   1.398  10.033  0.1722 -0.2256 -0.2375
  851TIP3    H124044   5.224   1.401  10.092 -0.3005 -0.6137 -0.8192
  851TIP3    H224045   5.349   1.322  10.062 -0.4902 -0.8973 -0.8616
  852TIP3   OH224046   5.553   1.061   0.643 -0.7655  0.1790  0.4118
  852TIP3    H124047   5.613   1.083   0.714  0.6162 -2.7873  0.3180
  852TIP3    H224048   5.577   1.122   0.573  0.2691  0.8615  1.3193
  853TIP3   OH224049   3.990   3.645  15.222  0.0347 -0.0753 -0.4689
  853TIP3    H124050   3.896   3.642  15.237 -0.4857 -0.1012 -3.1620
  853TIP3    H224051   4.011   3.558  15.187  1.1506 -0.1981  0.4590
  854TIP3   OH224052   5.404   2.150   4.437 -0.0900 -0.1346  0.8872
  854TIP3    H124053   5.372   2.071   4.393  0.6563  0.6147 -1.1296
  854TIP3    H224054   5.329   2.181   4.488  0.1183 -3.0617  3.2401
  855TIP3   OH224055   6.537   3.918   4.224  1.1223 -0.2165 -0.5072
  855TIP3    H124056   6.519   4.003   4.263  0.2258  0.5263 -2.4069
  855TIP3    H224057   6.497   3.854   4.284 -0.4804  0.8760 -0.3683
  856TIP3   OH224058   1.975   3.580  17.028  0.0852 -0.0472  0.7509
  856TIP3    H124059   2.018   3.504  17.068  2.5924 -0.2291 -2.0011
  856TIP3    H224060   1.974   3.646  17.097  1.0618 -1.4272  2.1506
  857TIP3   OH224061   6.056   6.792   3.332  0.1404  0.1359 -0.1702
  857TIP3    H124062   6.125   6.818   3.393 -0.3577 -0.1302  0.5102
  857TIP3    H224063   6.074   6.843   3.253  1.2704 -0.1210 -0.1013
  858TIP3   OH224064   6.638   0.175   2.657  0.4609  0.4023  0.1198
  858TIP3    H124065   6.600   0.089   2.676  0.1801 -0.0934 -2.3177
  858TIP3    H224066   6.645   0.218   2.742 -0.2441 -1.6768  1.2963
  859TIP3   OH224067   3.557   2.713  15.930 -0.0955 -0.1005 -0.1577
  859TIP3    H124068   3.524   2.784  15.985 -0.6374 -0.6346  0.2229
  859TIP3    H224069   3.584   2.755  15.849 -0.5691  0.5162 -0.0017
  860TIP3   OH224070   3.499   2.178   3.172  0.1031 -0.4090  0.5018
  860TIP3    H124071   3.408   2.152   3.154 -0.3568  1.1875  0.3321
  860TIP3    H224072   3.497   2.207   3.264 -0.1302  1.7004 -0.1042
  861TIP3   OH224073   0.441   3.122   4.139  0.2546 -0.1692  0.1358
  861TIP3    H124074   0.387   3.161   4.069  0.4698  1.5572  0.8742
  861TIP3    H224075   0.381   3.108   4.211  0.1773 -1.2825 -0.1285
  862TIP3   OH224076   1.619   6.745   0.580  0.0075 -0.0133  0.0946
  862TIP3    H124077   1.670   6.699   0.513  3.6289  2.1847  1.1032
  862TIP3    H224078   1.558   6.799   0.530  1.5664  0.4389 -1.4392
  863TIP3   OH224079   2.206   5.282  12.485 -0.2356  0.4578  0.0830
  863TIP3    H124080   2.221   5.376  12.498  1.0445  0.4339 -0.9429
  863TIP3    H224081   2.214   5.270  12.390  0.1688 -0.7685  0.2545
  864TIP3   OH224082   4.694   1.528  14.153 -0.0358  0.3527 -0.0012
  864TIP3    H124083   4.726   1.599  14.099  0.9646 -1.9456 -2.7033
  864TIP3    H224084   4.762   1.514  14.219  0.9432  0.3502 -0.9909
  865TIP3   OH224085   3.067   5.926   1.829  0.0125  0.0873  0.0904
  865TIP3    H124086   3.098   5.839   1.851 -1.4008 -0.3128  0.6171
  865TIP3    H224087   2.986   5.911   1.779  1.2412  1.0427 -2.3638
  866TIP3   OH224088   2.808   2.157   1.979  0.1798 -0.6701  0.3023
  866TIP3    H124089   2.797   2.062   1.979 -1.1732 -0.6464 -2.6679
  866TIP3    H224090   2.899   2.171   1.953 -0.1715 -1.2411 -1.3820
  867TIP3   OH224091   5.180   2.203   0.868  0.1207  0.2744  0.0312
  867TIP3    H124092   5.103   2.145   0.865 -0.2563  0.8045 -1.0697
  867TIP3    H224093   5.247   2.156   0.818  0.0660  0.4212 -0.1838
  868TIP3   OH224094   1.949   0.395  13.149 -0.0685  0.2667 -0.1947
  868TIP3    H124095   2.021   0.457  13.165  0.5555 -0.5853  0.3855
  868TIP3    H224096   1.990   0.309  13.156 -0.6416 -0.2370 -2.2804
  869TIP3   OH224097   6.140   5.600   2.398 -0.3854 -0.1143  0.0792
  869TIP3    H124098   6.225   5.558   2.389  0.1732  1.0856 -0.4641
  869TIP3    H224099   6.085   5.559   2.331 -0.0202 -0.3734 -0.0625
  870TIP3   OH224100   2.342   1.640   2.627 -0.2404  0.1537  0.2213
  870TIP3    H124101   2.370   1.562   2.579  0.3676 -0.8724  2.1441
  870TIP3    H224102   2.360   1.712   2.567  1.0847 -0.9879 -0.8449
  871TIP3   OH224103   0.470   1.633  11.047  0.3240  0.1473  0.7740
  871TIP3    H124104   0.517   1.714  11.030  2.2398 -1.1365 -0.3882
  871TIP3    H224105   0.429   1.610  10.964 -1.0175  0.3823  1.3447
  872TIP3   OH224106   0.948   4.739   0.290  0.6260  0.4232 -0.5593
  872TIP3    H124107   0.985   4.665   0.338 -0.0930 -0.2288 -0.9998
  872TIP3    H224108   0.957   4.716   0.198 -1.8305 -0.2697 -0.6858
  873TIP3   OH224109   0.288   2.567   1.140  0.1736  0.3989  0.2758
  873TIP3    H124110   0.311   2.588   1.230  0.4839 -0.3809  0.3817
  873TIP3    H224111   0.322   2.479   1.125 -2.6399 -0.8512  0.4419
  874TIP3   OH224112   2.488   1.086   3.238 -0.1399  0.2665  0.1447
  874TIP3    H124113   2.499   1.133   3.321 -2.5458  0.1466  0.6236
  874TIP3    H224114   2.417   1.132   3.194 -0.1957 -0.8412 -0.9713
  875TIP3   OH224115   0.837   1.774  14.524 -0.4160 -0.5404  0.1292
  875TIP3    H124116   0.905   1.767  14.591  1.5718 -0.5395 -1.7379
  875TIP3    H224117   0.767   1.824  14.565  0.0092 -1.9014  2.6700
  876TIP3   OH224118   5.685   6.299   0.655 -0.5210  0.5369 -0.0178
  876TIP3    H124119   5.706   6.208   0.678 -1.6518  0.5108  1.0461
  876TIP3    H224120   5.728   6.350   0.724 -0.1466  0.7956 -0.4406
  877TIP3   OH224121   5.287   1.880  11.648  0.2352 -0.3416 -0.2769
  877TIP3    H124122   5.249   1.968  11.656 -0.9837 -1.0138  4.4010
  877TIP3    H224123   5.213   1.820  11.658  1.4238 -1.8470 -0.1085
  878TIP3   OH224124   3.662   4.481   5.284  0.0799 -0.0189  0.1256
  878TIP3    H124125   3.573   4.517   5.282 -0.3042 -0.8746  0.9860
  878TIP3    H224126   3.662   4.421   5.359  1.5011  0.2669  0.3888
  879TIP3   OH224127   0.121   3.313   0.412  0.1453 -0.3253  0.4839
  879TIP3    H124128   0.188   3.299   0.479  2.7067  1.0942 -1.5937
  879TIP3    H224129   0.145   3.253   0.342 -0.4444  0.5657 -0.5046
  880TIP3   OH224130   6.422   3.796  14.513  0.2552 -0.2056 -0.0773
  880TIP3    H124131   6.486   3.802  14.583 -1.1639 -1.2109  1.3904
  880TIP3    H224132   6.338   3.813  14.555 -0.5185  0.6408 -1.8475
  881TIP3   OH224133   6.571   3.904   3.362  0.0055 -1.0103  0.0114
  881TIP3    H124134   6.580   3.999   3.368 -0.8233 -0.8746 -0.7682
  881TIP3    H224135   6.596   3.873   3.449  0.8761 -0.1318  0.0952
  882TIP3   OH224136   2.158   6.587   3.382  0.2024  0.1181 -0.2279
  882TIP3    H124137   2.113   6.603   3.465  1.6676  3.5784  0.1016
  882TIP3    H224138   2.097   6.619   3.315 -0.4878 -1.5322 -0.4115
  883TIP3   OH224139   0.962   3.208   2.991  0.2677  0.0072 -0.8729
  883TIP3    H124140   1.017   3.269   2.942  0.5240 -0.0199 -0.6200
  883TIP3    H224141   1.022   3.140   3.022  0.1606  0.1763 -0.2764
  884TIP3   OH224142   4.173   6.326   5.689 -0.1345  0.1977 -0.1174
  884TIP3    H124143   4.201   6.236   5.706 -2.9051 -0.5061  1.2499
  884TIP3    H224144   4.145   6.325   5.597  0.8305 -0.0238 -0.4205
  885TIP3   OH224145   3.599   4.889  11.423 -0.8824  0.2218 -0.7396
  885TIP3    H124146   3.564   4.923  11.341 -1.7640  1.5453  0.1542
  885TIP3    H224147   3.594   4.963  11.484 -0.6278 -0.8507  0.6260
  886TIP3   OH224148   3.264   0.766  12.371 -0.4421  0.2787  0.0700
  886TIP3    H124149   3.203   0.806  12.433 -0.3611  1.0415 -0.3334
  886TIP3    H224150   3.252   0.815  12.290  0.7950  0.5166  0.0143
  887TIP3   OH224151   0.583   1.255  12.214  0.0169  0.1799  0.2547
  887TIP3    H124152   0.577   1.334  12.161  0.3415 -0.8190 -1.3265
  887TIP3    H224153   0.677   1.241  12.226 -0.0419  0.1252  0.6997
  888TIP3   OH224154   2.461   6.626  16.037  0.9718  0.5085 -0.3978
  888TIP3    H124155   2.494   6.614  15.948  0.3286 -0.9939 -0.4692
  888TIP3    H224156   2.516   6.570  16.091  0.9828  0.9572  0.0644
  889TIP3   OH224157   3.059   0.922  16.528 -0.4196  0.0603  0.5839
  889TIP3    H124158   2.967   0.943  16.543 -0.3577  0.6978  0.1439
  889TIP3    H224159   3.089   0.989  16.466  0.3659 -0.0800  0.7944
  890TIP3   OH224160   4.564   1.457   3.106  0.2903  0.0178  0.5980
  890TIP3    H124161   4.589   1.393   3.172  0.0631 -2.0901 -1.2221
  890TIP3    H224162   4.480   1.425   3.072  0.8054  0.5134 -1.2759
  891TIP3   OH224163   0.536   3.554   0.458  0.3015 -0.4010 -0.2144
  891TIP3    H124164   0.512   3.589   0.372  0.1546  0.2880  0.1031
  891TIP3    H224165   0.553   3.461   0.442  0.7445 -0.1804 -1.0780
  892TIP3   OH224166   1.140   6.129   3.013  0.5790 -0.4504 -0.2142
  892TIP3    H124167   1.104   6.195   2.954 -3.6040 -1.2580  1.0873
  892TIP3    H224168   1.115   6.159   3.101  1.9275 -1.9167  0.7253
  893TIP3   OH224169   1.190   5.052  17.104  0.0273  0.0201 -0.3398
  893TIP3    H124170   1.217   5.096  17.184 -1.6354  1.3232 -0.4349
  893TIP3    H224171   1.251   5.084  17.037  2.1387 -1.9312  0.5260
  894TIP3   OH224172   4.406   0.613  16.633 -0.4708  0.3112  0.4502
  894TIP3    H124173   4.379   0.557  16.560  0.6493  0.3970 -0.0618
  894TIP3    H224174   4.335   0.607  16.696 -0.7413 -1.0485  0.0508
  895TIP3   OH224175   6.108   4.312  12.716 -0.0129  0.3884  0.2516
  895TIP3    H124176   6.057   4.393  12.710 -0.4012  0.1038 -0.5611
  895TIP3    H224177   6.199   4.340  12.702 -0.2611  0.5668 -1.1757
  896TIP3   OH224178   1.263   2.671  16.380 -0.2108  0.1755  0.7304
  896TIP3    H124179   1.193   2.646  16.321 -1.1971  0.6732  1.6467
  896TIP3    H224180   1.280   2.593  16.433  1.9680 -0.8902 -1.3519
  897TIP3   OH224181   1.562   5.131  14.131 -0.4707 -0.0116  0.1241
  897TIP3    H124182   1.611   5.144  14.050  0.4812  1.4082  0.8951
  897TIP3    H224183   1.620   5.163  14.200 -0.8838 -2.0433  1.5015
  898TIP3   OH224184   3.328   0.054   6.164 -0.1096  0.1727 -0.2990
  898TIP3    H124185   3.374   0.007   6.095  0.2353  1.3876 -0.9313
  898TIP3    H224186   3.373   0.030   6.245  1.8024  1.4650 -0.9157
  899TIP3   OH224187   5.020   3.368   2.484  0.1763 -0.2983  0.3870
  899TIP3    H124188   4.983   3.288   2.447 -0.1056  0.3717 -0.8383
  899TIP3    H224189   4.945   3.412   2.524  0.0008  0.1077 -0.3594
  900TIP3   OH224190   2.541   4.769  12.639  0.0294 -0.6851  0.0986
  900TIP3    H124191   2.464   4.762  12.695 -0.1300 -2.2607 -0.2667
  900TIP3    H224192   2.519   4.834  12.573 -0.7161 -0.6112  0.4195
  901TIP3   OH224193   0.537   4.411  16.893 -0.4391 -0.1577 -0.3759
  901TIP3    H124194   0.452   4.453  16.906 -0.6603 -0.6162 -0.3373
  901TIP3    H224195   0.599   4.484  16.892 -0.6092  0.0456  1.4107
  902TIP3   OH224196   1.567   1.739  15.987 -0.2672 -0.0445 -0.3807
  902TIP3    H124197   1.549   1.828  16.017 -0.4957 -0.4122  0.6293
  902TIP3    H224198   1.497   1.720  15.925  0.5021  0.9199 -1.5727
  903TIP3   OH224199   1.292   3.599   6.627 -0.1613 -0.5326  0.6569
  903TIP3    H124200   1.228   3.536   6.595 -0.9178 -0.1183  1.3382
  903TIP3    H224201   1.364   3.545   6.660 -0.7730 -1.0484  1.1700
  904TIP3   OH224202   1.305   3.918  16.692  0.2621  0.4309 -0.0867
  904TIP3    H124203   1.306   3.994  16.635  0.0275  0.0731 -0.5753
  904TIP3    H224204   1.259   3.851  16.642  1.4031 -0.3627 -0.0918
  905TIP3   OH224205   4.219   5.218   1.174 -0.4277 -0.4560 -0.1381
  905TIP3    H124206   4.272   5.250   1.247  0.6667  0.9407 -1.4789
  905TIP3    H224207   4.282   5.186   1.110 -1.1962  0.6902 -1.5305
  906TIP3   OH224208   4.676   0.116  13.066 -0.0692  0.4504  0.3617
  906TIP3    H124209   4.754   0.060  13.065  0.7093  1.5095 -0.0850
  906TIP3    H224210   4.605   0.058  13.040  0.6261 -0.4501  0.4003
  907TIP3   OH224211   2.458   5.007  13.473 -0.3053  0.6207 -0.5035
  907TIP3    H124212   2.477   5.064  13.548 -0.9067 -1.5654  1.4407
  907TIP3    H224213   2.364   5.015  13.460  0.0418  2.3735 -2.2925
  908TIP3   OH224214   4.184   6.274   4.141  0.0763 -0.4535  0.5746
  908TIP3    H124215   4.161   6.215   4.214 -2.3671  2.7119  2.6114
  908TIP3    H224216   4.254   6.329   4.177 -0.5900  0.6139  0.2503
  909TIP3   OH224217   1.518   6.109  14.815  0.0221  0.4857 -0.3246
  909TIP3    H124218   1.437   6.061  14.798 -0.4261  0.9000  0.6123
  909TIP3    H224219   1.548   6.137  14.728  2.8467 -5.3542 -1.7325
  910TIP3   OH224220   1.205   4.877   1.065 -0.3522  0.9062  0.0888
  910TIP3    H124221   1.123   4.891   1.113 -0.1109 -0.4911  0.9544
  910TIP3    H224222   1.265   4.839   1.130  0.4573  0.3319 -0.9667
  911TIP3   OH224223   2.402   5.588  12.393  0.0661 -0.0559 -0.1921
  911TIP3    H124224   2.342   5.555  12.460  0.6192 -2.3589 -0.7241
  911TIP3    H224225   2.376   5.541  12.313  3.0368 -1.8829 -0.2533
  912TIP3   OH224226   5.484   2.060  15.643 -0.0008  0.4717 -0.0415
  912TIP3    H124227   5.499   2.011  15.723  0.4113  0.9741  0.1936
  912TIP3    H224228   5.467   2.149  15.672  0.6786  0.7656 -0.5396
  913TIP3   OH224229   1.315   1.833   1.298  0.9756  0.5773 -0.5202
  913TIP3    H124230   1.380   1.834   1.368  2.4581 -1.1274 -1.7890
  913TIP3    H224231   1.272   1.918   1.304  0.9415  0.4752  2.4972
  914TIP3   OH224232   1.558   5.309  14.619 -0.2086 -0.2129  0.5486
  914TIP3    H124233   1.517   5.371  14.679 -0.2401 -0.1081  0.4179
  914TIP3    H224234   1.605   5.364  14.556 -2.6987 -0.1685 -1.4093
  915TIP3   OH224235   6.474   4.112  12.914  0.3584  0.4801  0.5643
  915TIP3    H124236   6.484   4.042  12.850 -0.6398  0.2661  0.6272
  915TIP3    H224237   6.408   4.080  12.976  0.8910  0.9138  1.3896
  916TIP3   OH224238   3.017   6.167  15.421 -0.1784 -0.1807  0.3527
  916TIP3    H124239   2.960   6.137  15.492 -1.3023 -1.9187 -1.2158
  916TIP3    H224240   3.054   6.087  15.384  0.5697  0.7031 -0.8931
  917TIP3   OH224241   4.721   6.758   5.931  0.2703 -0.2965 -0.0549
  917TIP3    H124242   4.669   6.822   5.881  0.3830 -0.2473 -0.1084
  917TIP3    H224243   4.659   6.687   5.949  0.7387 -1.2855 -2.0274
  918TIP3   OH224244   4.320   0.466  16.880  0.4989  0.6044  0.0829
  918TIP3    H124245   4.282   0.408  16.813  2.1722 -0.7806  0.2704
  918TIP3    H224246   4.359   0.406  16.943  2.6777  1.9195  0.0734
  919TIP3   OH224247   5.195   4.158  13.155 -0.1741  0.2404  0.3135
  919TIP3    H124248   5.271   4.176  13.099 -1.0299 -1.1319 -1.3600
  919TIP3    H224249   5.185   4.063  13.152 -2.5113  0.4441 -0.2788
  920TIP3   OH224250   2.679   4.912  16.658  0.6105  0.0151 -0.3300
  920TIP3    H124251   2.608   4.854  16.630  0.0866  0.0454  0.8954
  920TIP3    H224252   2.727   4.931  16.577  0.5227 -1.7389 -0.8322
  921TIP3   OH224253   1.336   2.220   5.687  0.5650 -0.4678 -0.2848
  921TIP3    H124254   1.269   2.179   5.632  0.4248  0.5825 -0.9162
  921TIP3    H224255   1.349   2.157   5.759  0.3224 -1.5847 -1.1820
  922TIP3   OH224256   1.307   3.091   1.607 -0.5510 -0.0314 -0.1538
  922TIP3    H124257   1.351   3.006   1.601  1.7550  0.8942  1.9529
  922TIP3    H224258   1.277   3.108   1.518  2.9709 -1.0594 -1.7362
  923TIP3   OH224259   6.641   5.898  12.179  0.0602 -0.3765  0.7729
  923TIP3    H124260   6.606   5.820  12.223 -0.6340  0.6075  2.0494
  923TIP3    H224261   6.708   5.931  12.240  0.3904 -0.0146  0.2178
  924TIP3   OH224262   1.327   4.521   1.689  0.6206  0.0535  1.0017
  924TIP3    H124263   1.357   4.431   1.682  0.2899 -0.0939  1.4524
  924TIP3    H224264   1.277   4.524   1.771 -0.4010  0.3465  0.3891
  925TIP3   OH224265   6.674   4.271  13.004  0.3111 -0.1923  0.9675
  925TIP3    H124266   6.610   4.200  12.990  0.6940 -0.3651  0.0434
  925TIP3    H224267   6.677   4.317  12.920 -1.5785  2.3332  2.1322
  926TIP3   OH224268   4.828   5.007   6.017  0.3886  0.5487 -0.3110
  926TIP3    H124269   4.802   5.099   6.009  0.1903  0.5923  0.7537
  926TIP3    H224270   4.921   5.010   6.041  0.3048  0.4834  0.0273
  927TIP3   OH224271   4.278   5.470  13.671  0.1013  0.2169  0.5487
  927TIP3    H124272   4.213   5.525  13.627  0.3274  0.2738  0.2857
  927TIP3    H224273   4.301   5.404  13.606  1.7034  1.3070 -0.0347
  928TIP3   OH224274   4.396   6.370  16.637 -0.1502  0.5531 -0.4805
  928TIP3    H124275   4.307   6.344  16.663  0.1031 -0.4750 -0.5737
  928TIP3    H224276   4.441   6.287  16.624  1.0145  1.0672  0.1786
  929TIP3   OH224277   3.330   1.475   4.274  0.1200 -0.4038  0.0250
  929TIP3    H124278   3.342   1.425   4.193 -1.1063  0.0608 -0.4725
  929TIP3    H224279   3.410   1.461   4.324  0.4413 -1.5926 -0.7935
  930TIP3   OH224280   3.917   0.577   5.149 -0.0652  0.0857 -0.0438
  930TIP3    H124281   3.883   0.565   5.237  0.8780 -2.1127  0.0863
  930TIP3    H224282   4.012   0.568   5.158  0.0040 -0.7056 -1.3478
  931TIP3   OH224283   5.960   0.380  12.580 -0.1224  0.4018 -0.2782
  931TIP3    H124284   5.940   0.390  12.487  2.0033  2.3240 -0.6067
  931TIP3    H224285   6.055   0.394  12.586 -0.3852  1.6503  2.3285
  932TIP3   OH224286   5.412   2.595   1.574  0.0123  0.6010 -0.6337
  932TIP3    H124287   5.325   2.604   1.535  0.0121 -0.4583 -0.9117
  932TIP3    H224288   5.399   2.540   1.651  0.3014  1.1662 -0.1756
  933TIP3   OH224289   5.448   4.897  12.904 -0.6675 -0.7978 -0.3624
  933TIP3    H124290   5.527   4.855  12.868 -1.8706 -1.3844 -2.4995
  933TIP3    H224291   5.376   4.840  12.876 -1.9108 -0.1253  1.2994
  934TIP3   OH224292   6.085   4.616   5.051  0.1524 -0.3209  0.1599
  934TIP3    H124293   6.037   4.658   5.122 -1.0445  1.1911 -1.4499
  934TIP3    H224294   6.176   4.613   5.082 -0.6212 -1.7419  2.6026
  935TIP3   OH224295   2.370   1.947   3.787 -0.0784 -0.2061 -0.3524
  935TIP3    H124296   2.385   2.039   3.808  0.1546 -0.1015 -0.9546
  935TIP3    H224297   2.310   1.949   3.713 -1.0665 -0.5754  0.4155
  936TIP3   OH224298   2.526   6.768  14.234  0.1130 -0.3715  0.0008
  936TIP3    H124299   2.597   6.820  14.271 -1.5569 -0.7453  4.3568
  936TIP3    H224300   2.569   6.702  14.180  2.6366  2.0124 -1.1313
  937TIP3   OH224301   5.214   5.807   1.835  0.0134  0.0633  0.0320
  937TIP3    H124302   5.282   5.869   1.809 -0.7051  0.5307 -0.8171
  937TIP3    H224303   5.260   5.738   1.883  1.0606  0.4255 -0.4328
  938TIP3   OH224304   4.157   6.823   2.194  0.1714 -0.1967 -0.0783
  938TIP3    H124305   4.086   6.871   2.152  0.6896  0.6385 -0.0305
  938TIP3    H224306   4.189   6.881   2.262 -0.3338 -1.3378  1.1881
  939TIP3   OH224307   0.030   4.348  13.908 -0.0784  0.2769 -0.3268
  939TIP3    H124308  -0.002   4.382  13.992 -1.2630 -0.4785 -0.4598
  939TIP3    H224309   0.086   4.418  13.875  0.3426  0.6321  1.0421
  940TIP3   OH224310   6.630   6.283   2.067 -0.2042 -0.1197 -0.0133
  940TIP3    H124311   6.569   6.215   2.094  0.2416 -1.3788 -1.9972
  940TIP3    H224312   6.715   6.253   2.098  0.0630 -0.7282 -1.3073
  941TIP3   OH224313   5.797   4.608   0.631 -0.1987  0.4871  0.4902
  941TIP3    H124314   5.851   4.678   0.669 -0.1012  0.5575  0.2239
  941TIP3    H224315   5.841   4.527   0.657 -0.6375  0.4947  1.3046
  942TIP3   OH224316   3.570   5.228   0.284  0.1586 -0.0963 -0.1701
  942TIP3    H124317   3.549   5.308   0.235 -0.4414 -0.3617 -0.3679
  942TIP3    H224318   3.641   5.253   0.342  1.2982  0.0806 -1.5835
  943TIP3   OH224319   0.987   3.196  12.856  0.4042 -0.0499 -0.0920
  943TIP3    H124320   1.005   3.288  12.838 -0.4815 -0.0564 -1.0382
  943TIP3    H224321   0.918   3.198  12.923 -0.4020 -0.0152 -0.9132
  944TIP3   OH224322   5.226   1.024   0.009  0.4464 -0.5911 -0.0389
  944TIP3    H124323   5.276   0.945   0.030  0.0782 -0.5113  1.1896
  944TIP3    H224324   5.139   0.991  -0.016 -0.2448 -0.5355  2.0988
  945TIP3   OH224325   1.564   1.907   0.867 -0.2297  0.2261  0.2757
  945TIP3    H124326   1.540   1.838   0.929  0.5045  0.7135  1.1256
  945TIP3    H224327   1.529   1.988   0.906 -0.1164  0.4887 -0.1581
  946TIP3   OH224328   2.146   3.261   5.073 -0.1791 -0.0859 -0.2401
  946TIP3    H124329   2.240   3.270   5.086 -0.3814  1.3324  0.4566
  946TIP3    H224330   2.110   3.251   5.161 -0.6754 -0.9325 -0.5187
  947TIP3   OH224331   4.524   2.054  12.923 -0.7000 -0.1014 -0.2428
  947TIP3    H124332   4.457   1.987  12.931 -0.7707  0.0038  0.0563
  947TIP3    H224333   4.527   2.096  13.009 -0.7901  0.4031 -0.4833
  948TIP3   OH224334   1.713   4.011  13.168 -0.3578  0.0031  0.1305
  948TIP3    H124335   1.648   4.042  13.105 -0.1479  1.7151  0.6985
  948TIP3    H224336   1.762   3.944  13.120 -0.2573  1.1832 -1.5515
  949TIP3   OH224337   6.462   4.477  15.339  0.0544  0.4467 -0.1600
  949TIP3    H124338   6.526   4.542  15.310 -1.5179  2.5496  0.8176
  949TIP3    H224339   6.474   4.404  15.279  1.0193  2.1590 -2.2052
  950TIP3   OH224340   5.501   5.447  13.926  0.4400  0.8213  0.1579
  950TIP3    H124341   5.411   5.480  13.920  0.4856  1.1957  1.3290
  950TIP3    H224342   5.504   5.397  14.007  0.8071 -0.8136 -0.8101
  951TIP3   OH224343   6.554   5.682  16.171  0.2541 -0.2532  0.2683
  951TIP3    H124344   6.500   5.746  16.124  0.5317 -1.5667 -1.9741
  951TIP3    H224345   6.493   5.638  16.229 -0.1702  1.2267  1.0046
  952TIP3   OH224346   4.596   1.510   1.886  0.2844  0.1733 -0.1156
  952TIP3    H124347   4.531   1.565   1.843  0.1202 -1.0923 -1.6271
  952TIP3    H224348   4.679   1.557   1.875 -0.1321  1.0697  0.4703
  953TIP3   OH224349   6.802   6.064   1.869  0.4042  0.5300 -0.2333
  953TIP3    H124350   6.737   6.018   1.921 -0.6959  2.6115  0.3359
  953TIP3    H224351   6.886   6.027   1.896 -0.3807 -0.6081  0.6972
  954TIP3   OH224352   6.737   5.990  17.053 -0.4350  0.0667  0.5336
  954TIP3    H124353   6.800   5.926  17.088  0.9919  0.3137 -1.4014
  954TIP3    H224354   6.753   6.069  17.104  1.5530  0.4046 -0.4906
  955TIP3   OH224355   1.292   3.150  13.818  0.4066  0.4640  0.5376
  955TIP3    H124356   1.245   3.134  13.735 -0.2260 -1.6660  1.2386
  955TIP3    H224357   1.252   3.229  13.853  1.2481  1.8972 -1.5502
  956TIP3   OH224358   3.224   1.646   5.143  0.0391 -0.1422 -0.0484
  956TIP3    H124359   3.279   1.580   5.100  0.6353 -0.6388  1.3895
  956TIP3    H224360   3.282   1.687   5.208 -0.6142  1.0799 -0.2051
  957TIP3   OH224361   5.293   5.070  14.895  0.0806 -0.2708  0.5320
  957TIP3    H124362   5.235   5.099  14.825 -0.5408 -0.8468  0.7997
  957TIP3    H224363   5.299   4.975  14.884  0.5686 -0.2788  0.8185
  958TIP3   OH224364   3.928   2.999  12.438 -0.2811 -0.1172 -0.5243
  958TIP3    H124365   3.916   3.041  12.523  2.1240 -2.8616  1.3769
  958TIP3    H224366   3.843   2.959  12.418 -0.4644 -0.8897  1.5292
  959TIP3   OH224367   6.591   2.674   3.216  0.0042  0.1764  0.7150
  959TIP3    H124368   6.678   2.712   3.224  0.1750 -0.2765  1.0299
  959TIP3    H224369   6.606   2.580   3.210 -0.4652  0.0938  0.7827
  960TIP3   OH224370   4.676   0.179   5.540  0.0266 -0.0615  0.1376
  960TIP3    H124371   4.768   0.204   5.530  0.0985 -0.4833 -0.3055
  960TIP3    H224372   4.629   0.231   5.475  0.3124 -1.7786 -1.5524
  961TIP3   OH224373   2.761   3.798  12.004 -0.2946  0.5254  0.5546
  961TIP3    H124374   2.808   3.720  11.975  0.1993  0.6282  1.0611
  961TIP3    H224375   2.765   3.858  11.930 -2.0526 -0.5144 -0.4308
  962TIP3   OH224376   4.412   5.410  11.601 -0.3150 -0.3492  0.1006
  962TIP3    H124377   4.484   5.455  11.558 -1.2070  2.8712  1.6638
  962TIP3    H224378   4.451   5.372  11.680 -0.1202  0.6165  0.4859
  963TIP3   OH224379   4.679   1.201  15.518 -0.0705 -0.1323  0.2396
  963TIP3    H124380   4.734   1.144  15.572  0.1848  0.3884  0.5409
  963TIP3    H224381   4.719   1.287  15.526 -0.6656  0.1645  0.0885
  964TIP3   OH224382   2.547   6.194   4.272 -0.2170 -0.1254  0.2270
  964TIP3    H124383   2.518   6.104   4.259  1.0753 -0.8106  1.6738
  964TIP3    H224384   2.480   6.234   4.327  0.5902 -1.1410  2.0397
  965TIP3   OH224385   2.672   2.371  11.871 -0.1077  0.8983  0.1302
  965TIP3    H124386   2.662   2.278  11.891 -1.6288  0.9823 -0.1440
  965TIP3    H224387   2.639   2.416  11.949  0.9059  1.2366  0.3889
  966TIP3   OH224388   0.764   6.216  12.501 -0.0030 -0.3955  0.5215
  966TIP3    H124389   0.729   6.195  12.414  0.2585 -0.0797  0.3386
  966TIP3    H224390   0.715   6.294  12.528 -1.4523 -1.5841  1.4900
  967TIP3   OH224391   4.295   3.097  15.522 -0.1392 -0.0505  0.6475
  967TIP3    H124392   4.309   3.017  15.473  0.9435 -0.0543  0.9454
  967TIP3    H224393   4.230   3.073  15.589  0.0081 -0.6164  0.5912
  968TIP3   OH224394   5.126   2.202   2.556  0.3994 -0.3385 -0.4505
  968TIP3    H124395   5.065   2.129   2.551 -0.6280  0.5645 -1.5859
  968TIP3    H224396   5.188   2.177   2.625 -1.4790 -1.0957  1.0495
  969TIP3   OH224397   4.897   1.580  15.359 -0.5328  0.0053  0.4553
  969TIP3    H124398   4.894   1.486  15.348  0.4341 -0.0962  0.9158
  969TIP3    H224399   4.928   1.593  15.449  2.3086  0.7096 -0.4905
  970TIP3   OH224400   4.197   1.851   5.070 -0.1684 -0.2131 -0.4558
  970TIP3    H124401   4.204   1.842   5.165 -3.1859  0.0001 -0.1384
  970TIP3    H224402   4.236   1.937   5.052  1.2590 -0.6370  0.4120
  971TIP3   OH224403   1.143   6.340  13.089  0.2616  0.0084 -0.2666
  971TIP3    H124404   1.164   6.267  13.031 -0.8331  0.0538 -0.7489
  971TIP3    H224405   1.057   6.318  13.124 -0.3361  1.3154 -0.8489
  972TIP3   OH224406   4.304   3.043  12.827  0.2799  0.1787  0.0110
  972TIP3    H124407   4.368   3.115  12.825  3.3350 -2.3024 -0.5942
  972TIP3    H224408   4.327   2.994  12.906 -0.7488 -0.9181 -0.3538
  973TIP3   OH224409   0.609   4.504   4.259  0.3733  0.2247 -0.0189
  973TIP3    H124410   0.682   4.473   4.204  0.4100 -0.1544  0.2394
  973TIP3    H224411   0.641   4.586   4.297  0.2003  0.6929 -0.8635
  974TIP3   OH224412   4.254   0.756  16.391 -0.1520  0.4355 -0.4050
  974TIP3    H124413   4.176   0.705  16.368 -0.5742  1.1978 -0.6932
  974TIP3    H224414   4.266   0.816  16.317  1.3128 -0.3608 -0.8436
  975TIP3   OH224415   4.236   5.293  14.284  0.1323 -0.0926  0.1296
  975TIP3    H124416   4.217   5.361  14.219  1.5885 -0.4606 -0.7158
  975TIP3    H224417   4.151   5.274  14.324 -0.9241 -0.2669 -2.0565
  976TIP3   OH224418   5.416   2.013  10.261 -0.1603 -0.2448  0.6480
  976TIP3    H124419   5.459   1.968  10.188 -1.8304 -0.5159 -0.2088
  976TIP3    H224420   5.362   2.081  10.220  1.9472  2.3793  1.8811
  977TIP3   OH224421   0.972   2.010   0.837 -0.2575 -0.2463  0.1980
  977TIP3    H124422   0.922   2.090   0.852  0.0014 -0.1290  0.4414
  977TIP3    H224423   0.909   1.949   0.799 -0.7520 -0.3183  1.1187
  978TIP3   OH224424   4.734   5.251  16.086  0.5235  0.8674  0.2865
  978TIP3    H124425   4.667   5.316  16.107 -0.2075  0.1952  0.1235
  978TIP3    H224426   4.688   5.167  16.092  0.5431  0.5255 -2.7455
  979TIP3   OH224427   4.343   6.347   1.684 -0.2546 -0.0681 -0.4779
  979TIP3    H124428   4.391   6.332   1.766 -1.6057  1.2956  0.6236
  979TIP3    H224429   4.340   6.442   1.675 -0.0160 -0.1974 -2.2135
  980TIP3   OH224430   3.217   4.937   5.028  0.6900 -0.0759 -0.5386
  980TIP3    H124431   3.215   5.004   5.097  2.0695 -1.0314  0.4719
  980TIP3    H224432   3.140   4.882   5.046  0.6185  0.1226 -0.2278
  981TIP3   OH224433   6.270   5.212  14.986  0.8676 -0.3622 -0.0477
  981TIP3    H124434   6.230   5.271  14.923  3.6666  1.5001 -0.2457
  981TIP3    H224435   6.245   5.247  15.072  2.7184  1.3770 -0.1603
  982TIP3   OH224436   2.040   5.819   4.210  0.8740 -0.1817 -0.0945
  982TIP3    H124437   2.088   5.860   4.282  0.4925 -0.3489  0.2571
  982TIP3    H224438   1.976   5.762   4.252 -0.2338  0.6989 -0.5356
  983TIP3   OH224439   4.375   5.742   5.529 -0.0064 -0.0539  0.0099
  983TIP3    H124440   4.387   5.837   5.523  0.6249 -0.1849 -1.1161
  983TIP3    H224441   4.342   5.727   5.618 -1.4339  1.3499 -0.2498
  984TIP3   OH224442   4.485   6.244   1.475 -0.3756 -0.0632 -0.3619
  984TIP3    H124443   4.447   6.165   1.435 -0.5331 -0.7500  1.0964
  984TIP3    H224444   4.416   6.277   1.532  0.2901  0.1886  0.3045
  985TIP3   OH224445   4.505   1.781   4.721  0.4406  1.0035  0.5618
  985TIP3    H124446   4.508   1.761   4.628 -0.1670  0.3777  0.6665
  985TIP3    H224447   4.425   1.738   4.753  0.8398  0.8845  1.4425
  986TIP3   OH224448   6.311   3.268   6.008  0.2519  0.0413  0.1062
  986TIP3    H124449   6.403   3.293   6.021  0.8815 -1.8188 -0.4128
  986TIP3    H224450   6.313   3.172   6.007 -1.5375 -0.0173 -1.1010
  987TIP3   OH224451   0.121   0.196  15.544 -0.3537  0.0470 -0.2500
  987TIP3    H124452   0.101   0.161  15.457  0.7182  1.8398 -1.2698
  987TIP3    H224453   0.212   0.172  15.560 -0.4569 -0.0266  0.2671
  988TIP3   OH224454   6.105   1.157  16.543  0.1385  0.2865  0.1216
  988TIP3    H124455   6.159   1.138  16.620 -0.6833 -0.5239  0.5301
  988TIP3    H224456   6.134   1.095  16.477  0.7424  0.8816 -0.1757
  989TIP3   OH224457   3.964   6.151  11.276 -0.1604  0.2040 -0.3083
  989TIP3    H124458   4.041   6.204  11.256  0.6028 -1.3460 -1.6624
  989TIP3    H224459   3.908   6.160  11.198 -0.0265 -0.9404 -0.5530
  990TIP3   OH224460   6.502   2.654  14.075  0.3368  0.2861 -0.5783
  990TIP3    H124461   6.571   2.602  14.035  0.8699 -2.0201  2.9912
  990TIP3    H224462   6.425   2.596  14.076 -0.7664  1.6459 -1.5268
  991TIP3   OH224463   4.201   3.480  11.750 -0.2683 -0.1270  0.0950
  991TIP3    H124464   4.222   3.538  11.677 -1.8627  0.5308  0.1198
  991TIP3    H224465   4.106   3.483  11.756 -0.2212 -0.8730  1.6406
  992TIP3   OH224466   0.734   2.396   3.221 -0.3207 -0.1228  0.0072
  992TIP3    H124467   0.670   2.345   3.271 -1.5099  1.1046 -0.2170
  992TIP3    H224468   0.814   2.342   3.223 -1.4282 -1.8474  0.0140
  993TIP3   OH224469   1.957   1.297   0.940  0.7558 -0.3526  0.4792
  993TIP3    H124470   1.976   1.280   0.847  0.0912  0.8573  0.0981
  993TIP3    H224471   2.021   1.363   0.966  0.3907 -0.0580  0.6344
  994TIP3   OH224472   2.950   5.373   4.770  0.5089 -0.3254  0.3016
  994TIP3    H124473   2.936   5.394   4.677 -0.1027 -0.4523  0.3581
  994TIP3    H224474   2.955   5.278   4.772  1.7049 -0.2725  0.2500
  995TIP3   OH224475   4.414   6.268   1.928  0.0893 -0.2512  0.3129
  995TIP3    H124476   4.495   6.221   1.944  0.2483 -0.0679  0.0612
  995TIP3    H224477   4.345   6.202   1.936  0.2711 -0.4226  0.4474
  996TIP3   OH224478   3.568   3.506   2.193 -0.0518  0.0949  0.1872
  996TIP3    H124479   3.573   3.601   2.192  0.6123  0.0835 -1.3049
  996TIP3    H224480   3.476   3.486   2.176 -0.0852  0.4900 -0.1216
  997TIP3   OH224481   4.824   2.967   2.034 -0.5382  0.0064 -0.5842
  997TIP3    H124482   4.864   2.934   2.115  0.7081 -0.5790 -1.4058
  997TIP3    H224483   4.734   2.988   2.059 -0.4246 -0.9509  0.7600
  998TIP3   OH224484   2.724   1.125   1.875 -0.1739 -0.4020  0.7921
  998TIP3    H124485   2.634   1.102   1.850  0.4594 -1.2220 -0.8673
  998TIP3    H224486   2.723   1.221   1.883 -0.6048 -0.1133 -1.8778
  999TIP3   OH224487   1.882   3.807  16.153  0.5057 -0.0035 -0.4161
  999TIP3    H124488   1.872   3.724  16.107 -1.1188  0.2026 -0.5025
  999TIP3    H224489   1.914   3.868  16.086 -0.7358  0.0189 -1.0277
 1000TIP3   OH224490   3.416   2.942   5.238  0.0427  0.6901  0.7316
 1000TIP3    H124491   3.403   3.020   5.292  2.0270  0.5539  1.5162
 1000TIP3    H224492   3.480   2.969   5.172  0.1426 -0.0483  0.5125
 1001TIP3   OH224493   0.262   0.517  13.392 -0.1697  0.2679  0.4624
 1001TIP3    H124494   0.262   0.437  13.445 -0.9073  0.5370  0.8735
 1001TIP3    H224495   0.170   0.539  13.381  0.0421  1.5138  1.0332
 1002TIP3   OH224496   2.415   4.791  15.133 -0.0826 -0.2752 -0.8811
 1002TIP3    H124497   2.341   4.732  15.144 -0.0544  0.0525  1.3831
 1002TIP3    H224498   2.434   4.823  15.221  0.1350  2.8192 -1.9273
 1003TIP3   OH224499   1.857   4.516  13.327 -0.1874 -0.0902  0.1444
 1003TIP3    H124500   1.767   4.510  13.360  0.4077  2.4027  2.6742
 1003TIP3    H224501   1.882   4.425  13.309 -2.9850 -0.9145 -0.0971
 1004TIP3   OH224502   0.034   3.909  16.299 -0.6424 -0.3110 -0.4433
 1004TIP3    H124503  -0.021   3.841  16.339 -1.2603  0.5830  0.2920
 1004TIP3    H224504  -0.006   3.925  16.214  1.0891 -2.7229 -1.8406
 1005TIP3   OH224505   1.847   5.715   0.182  0.1793 -0.4138 -0.1890
 1005TIP3    H124506   1.759   5.691   0.153  0.2639 -0.8699 -0.0781
 1005TIP3    H224507   1.834   5.752   0.269 -0.0197  0.5037 -0.6018
 1006TIP3   OH224508   1.372   4.977  11.654  0.1514 -0.2877  0.3370
 1006TIP3    H124509   1.406   4.957  11.567 -0.3186  1.8253 -0.3844
 1006TIP3    H224510   1.283   5.007  11.639  0.3283  0.8939  1.4398
 1007TIP3   OH224511   0.053   4.572  16.419 -0.0418  0.0560  0.2622
 1007TIP3    H124512   0.047   4.477  16.407 -1.9698  0.3564 -1.6003
 1007TIP3    H224513   0.049   4.608  16.331 -2.4757  1.9654  1.0352
 1008TIP3   OH224514   0.751   4.131   5.374  0.6411 -0.1468 -0.2492
 1008TIP3    H124515   0.692   4.187   5.423  0.5657 -1.1373  0.8383
 1008TIP3    H224516   0.815   4.100   5.438  1.2338 -0.5715 -1.0171
 1009TIP3   OH224517   0.426   6.314   4.331 -0.0896 -0.0671 -0.2004
 1009TIP3    H124518   0.421   6.226   4.294 -1.5311  0.7894 -2.2836
 1009TIP3    H224519   0.512   6.347   4.305 -1.2969  0.7477 -3.6739
 1010TIP3   OH224520   6.735   5.276   5.264  0.0179  0.6841  0.1987
 1010TIP3    H124521   6.782   5.358   5.276 -0.4272  0.9645  0.0332
 1010TIP3    H224522   6.746   5.230   5.347  0.0929  1.0053  0.3687
 1011TIP3   OH224523   0.054   0.895   0.053 -1.0289 -0.1902  0.0674
 1011TIP3    H124524   0.043   0.805   0.022 -2.7410  0.5506 -1.6408
 1011TIP3    H224525   0.014   0.949  -0.015  2.0528  2.0676 -0.1389
 1012TIP3   OH224526   6.215   5.471   6.400 -0.3114 -0.2159 -0.4727
 1012TIP3    H124527   6.121   5.482   6.388 -0.5386  0.2401  1.4076
 1012TIP3    H224528   6.229   5.484   6.494  1.5803 -0.6528 -0.6524
 1013TIP3   OH224529   3.520   4.504   1.360 -0.7207  0.4933  0.6991
 1013TIP3    H124530   3.465   4.432   1.329 -0.0212 -0.4963  1.6853
 1013TIP3    H224531   3.537   4.556   1.282 -0.5792 -0.8723 -0.2223
 1014TIP3   OH224532   5.265   5.560  13.824  0.1121  0.0856  0.3257
 1014TIP3    H124533   5.203   5.630  13.842 -0.5176 -1.1410  3.7260
 1014TIP3    H224534   5.240   5.527  13.738 -1.8996  1.6871  0.2307
 1015TIP3   OH224535   1.755   5.316   6.415 -0.7311  0.0396  0.1491
 1015TIP3    H124536   1.717   5.403   6.413  1.0969  0.9586  1.8546
 1015TIP3    H224537   1.680   5.257   6.419 -2.0093  1.4650 -1.4588
 1016TIP3   OH224538   2.347   2.189   5.378 -0.0547 -0.0682  0.3860
 1016TIP3    H124539   2.434   2.150   5.385 -0.8076 -1.8662  0.2303
 1016TIP3    H224540   2.359   2.280   5.407  1.2583 -1.1170  3.6031
 1017TIP3   OH224541   3.055   1.123  15.681  0.5130 -0.2614  0.0767
 1017TIP3    H124542   2.960   1.107  15.681  0.7996 -2.4315 -1.4780
 1017TIP3    H224543   3.074   1.157  15.594  1.1363  0.4007  0.4675
 1018TIP3   OH224544   0.510   6.530   2.710 -0.1594 -0.4983 -0.0914
 1018TIP3    H124545   0.490   6.566   2.797  0.5846 -0.6326  0.1435
 1018TIP3    H224546   0.561   6.599   2.668 -3.0124  0.8786 -1.5933
 1019TIP3   OH224547   0.384   6.027  17.157  0.5002  0.1623  0.0147
 1019TIP3    H124548   0.388   5.996  17.066 -1.6409 -0.9406  0.2258
 1019TIP3    H224549   0.444   5.969  17.204 -0.2149 -0.9016 -0.3304
 1020TIP3   OH224550   0.947   4.107   1.990 -0.3886  0.8335 -0.1059
 1020TIP3    H124551   1.039   4.113   2.016 -0.7541  1.1022  1.1825
 1020TIP3    H224552   0.912   4.034   2.041 -0.6230 -0.0598 -1.4870
 1021TIP3   OH224553   3.806   3.542  12.820  0.1611 -0.1852 -0.5629
 1021TIP3    H124554   3.793   3.633  12.848  0.1954 -0.0456 -0.9939
 1021TIP3    H224555   3.900   3.529  12.826  0.0084 -0.7608  1.2188
 1022TIP3   OH224556   1.516   4.772   1.891 -0.6618 -0.0728 -0.2281
 1022TIP3    H124557   1.522   4.786   1.796  1.7974 -1.3009 -0.3441
 1022TIP3    H224558   1.536   4.679   1.902 -4.0254 -0.7965  1.3380
 1023TIP3   OH224559   1.830   1.144   4.520  0.3441  0.1476  0.4950
 1023TIP3    H124560   1.858   1.096   4.442 -0.3000 -1.4508  1.2026
 1023TIP3    H224561   1.738   1.165   4.504  0.1482 -0.3799  0.9094
 1024TIP3   OH224562   2.002   6.233   3.016  0.2266  0.1472 -0.2416
 1024TIP3    H124563   1.965   6.150   2.984  0.8510 -0.5457  0.7721
 1024TIP3    H224564   1.982   6.233   3.110  0.7005  0.8939 -0.1396
 1025TIP3   OH224565   6.099   2.238  15.646 -0.1127 -0.1631  0.0244
 1025TIP3    H124566   6.068   2.317  15.602  3.5213  0.4071 -1.8643
 1025TIP3    H224567   6.069   2.167  15.590 -0.2922  0.1268 -0.2538
 1026TIP3   OH224568   1.690   3.922   2.546  0.0723  0.1561 -0.0297
 1026TIP3    H124569   1.652   4.002   2.582  0.6021 -0.0455  1.0263
 1026TIP3    H224570   1.784   3.930   2.562  0.1778 -0.5201 -0.2326
 1027TIP3   OH224571   4.902   5.748   4.531 -0.6411  0.1000  0.0612
 1027TIP3    H124572   4.996   5.764   4.544 -0.5031 -1.5456  1.4117
 1027TIP3    H224573   4.861   5.832   4.552  0.3428  0.0695  2.4054
 1028TIP3   OH224574   5.789   2.025  14.792 -0.6752  0.4930  0.6272
 1028TIP3    H124575   5.866   2.066  14.830  0.3085 -0.2317 -0.5071
 1028TIP3    H224576   5.789   1.936  14.828 -1.4704  0.7591  1.2881
 1029TIP3   OH224577   5.167   3.861  13.884  0.1886  0.0604 -0.2982
 1029TIP3    H124578   5.201   3.946  13.913  1.1502 -0.6565  0.7719
 1029TIP3    H224579   5.197   3.854  13.793 -0.4902  1.1524 -0.6271
 1030TIP3   OH224580   3.107   6.285   5.225  0.8494 -0.0656 -0.6193
 1030TIP3    H124581   3.136   6.375   5.216  0.7090  0.0715  0.2372
 1030TIP3    H224582   3.151   6.253   5.304  1.7384 -1.0867 -1.5083
 1031TIP3   OH224583   4.701   4.001  12.523  0.6319  0.1890 -0.1598
 1031TIP3    H124584   4.783   3.988  12.474  1.5467  0.7778  1.1541
 1031TIP3    H224585   4.715   3.955  12.606 -0.6737 -0.3189 -0.1967
 1032TIP3   OH224586   4.807   5.987   1.422  0.2267  0.4322 -0.2228
 1032TIP3    H124587   4.848   5.939   1.350 -1.9267 -0.1097 -1.1570
 1032TIP3    H224588   4.877   6.042   1.457  1.7882 -0.6005 -1.5725
 1033TIP3   OH224589   1.831   3.719  13.781  0.5809  0.5118 -0.1542
 1033TIP3    H124590   1.828   3.784  13.851 -1.8150 -0.0519  0.3745
 1033TIP3    H224591   1.824   3.770  13.700  0.8898  1.0304  0.1451
 1034TIP3   OH224592   0.913   5.607   5.029  0.1675 -0.4510  0.2931
 1034TIP3    H124593   0.902   5.564   5.114 -1.0508 -1.0296 -0.1319
 1034TIP3    H224594   0.827   5.645   5.011  1.1916  2.1960  0.6395
 1035TIP3   OH224595   5.590   4.057  16.465  0.1826 -0.2884 -0.4770
 1035TIP3    H124596   5.676   4.039  16.427 -0.6127 -0.0061 -2.5468
 1035TIP3    H224597   5.548   3.971  16.470  0.9695 -0.5830  1.6201
 1036TIP3   OH224598   4.708   1.805  14.899 -0.3042  0.7211  0.3736
 1036TIP3    H124599   4.688   1.861  14.824  2.3996  0.8210 -0.4098
 1036TIP3    H224600   4.630   1.807  14.954 -2.4559  0.5281 -2.4842
 1037TIP3   OH224601   2.648   2.224  15.073 -0.1482 -0.2322 -0.8493
 1037TIP3    H124602   2.740   2.199  15.077  0.5752  1.9180 -2.2925
 1037TIP3    H224603   2.627   2.254  15.162  0.5465 -0.7006 -0.5188
 1038TIP3   OH224604   0.808   3.571   4.091 -0.3813 -0.0609  0.0116
 1038TIP3    H124605   0.740   3.503   4.095 -1.7532  1.1479 -1.1629
 1038TIP3    H224606   0.779   3.637   4.153  0.6481 -0.2649  0.7333
 1039TIP3   OH224607   6.644   2.016  12.730  0.0072  0.2508  0.0505
 1039TIP3    H124608   6.568   2.035  12.784  0.8919  3.1288  0.4605
 1039TIP3    H224609   6.692   2.099  12.726  2.4878 -1.1268 -1.1972
 1040TIP3   OH224610   6.026   0.890   0.459  0.0512  0.3480 -0.0943
 1040TIP3    H124611   5.973   0.869   0.536  0.0637  1.5020  0.2460
 1040TIP3    H224612   6.116   0.890   0.492  0.2818 -1.4131 -0.6271
 1041TIP3   OH224613   4.907   2.997  13.045 -0.0465  0.8195 -0.1292
 1041TIP3    H124614   4.955   3.021  13.124 -1.3902  1.0738  0.6389
 1041TIP3    H224615   4.953   2.921  13.010  0.4857  0.6313  0.9683
 1042TIP3   OH224616   5.532   2.428   3.032  0.3301 -0.2803 -0.3840
 1042TIP3    H124617   5.444   2.450   3.001  0.1471 -1.6154 -0.8761
 1042TIP3    H224618   5.584   2.420   2.952  0.7399 -0.1508 -0.1317
 1043TIP3   OH224619   6.101   5.924  11.454  0.6453 -0.4069  0.3329
 1043TIP3    H124620   6.158   5.948  11.528  0.2816  0.4703  0.3454
 1043TIP3    H224621   6.035   5.867  11.493  0.9181 -0.6024  0.5204
 1044TIP3   OH224622   6.318   0.088  12.341  0.0311 -0.3325  0.8763
 1044TIP3    H124623   6.305   0.039  12.260 -0.1830 -0.4303  0.9660
 1044TIP3    H224624   6.256   0.161  12.335 -0.3436 -0.6184  1.1666
 1045TIP3   OH224625   3.975   6.126   2.828  0.3373  0.0355  0.1543
 1045TIP3    H124626   4.064   6.106   2.801  0.2615  1.2293 -1.0859
 1045TIP3    H224627   3.938   6.175   2.755 -1.8193 -1.6379  0.0447
 1046TIP3   OH224628   3.921   6.140  13.803 -0.7025 -0.0047 -0.4935
 1046TIP3    H124629   3.951   6.205  13.739 -1.9662  1.3317  0.2083
 1046TIP3    H224630   3.995   6.079  13.812  1.0682  2.0470 -0.2481
 1047TIP3   OH224631   1.142   4.323   6.286  0.2982 -0.1347  0.3719
 1047TIP3    H124632   1.101   4.341   6.371 -0.2557  1.1933 -0.1418
 1047TIP3    H224633   1.081   4.264   6.242 -1.4835  2.3055 -0.6260
 1048TIP3   OH224634   1.654   1.129  12.884 -0.3964 -0.4356 -0.1423
 1048TIP3    H124635   1.563   1.118  12.913 -0.4735  2.5730  1.1436
 1048TIP3    H224636   1.688   1.199  12.940  1.2788  1.7225 -3.5743
 1049TIP3   OH224637   3.401   0.505  14.414  0.0006 -0.2708  0.7363
 1049TIP3    H124638   3.353   0.501  14.332 -0.1596 -1.3468  0.8657
 1049TIP3    H224639   3.361   0.437  14.469  0.0166  0.5252  1.7562
 1050TIP3   OH224640   3.247   3.380  11.254  0.1266 -0.4503 -0.5235
 1050TIP3    H124641   3.171   3.434  11.277 -0.1831 -1.4757  0.9732
 1050TIP3    H224642   3.225   3.343  11.168  0.6691  2.3084 -1.9689
 1051TIP3   OH224643   4.396   6.314  10.269 -0.1883 -0.5961 -0.0171
 1051TIP3    H124644   4.423   6.405  10.255 -0.7254 -0.3298  0.6140
 1051TIP3    H224645   4.315   6.321  10.320  0.2356 -1.4598  0.7887
 1052TIP3   OH224646   3.194   4.320   0.251  0.0685  0.0939 -0.1714
 1052TIP3    H124647   3.271   4.347   0.200  0.2739 -0.7803 -0.3375
 1052TIP3    H224648   3.230   4.269   0.323 -0.3200  0.1624  0.0716
 1053TIP3   OH224649   6.019   6.291  16.470  0.2896 -0.2040  0.0538
 1053TIP3    H124650   6.078   6.218  16.489 -0.3635 -0.3515  1.6887
 1053TIP3    H224651   6.060   6.337  16.397  1.7558 -1.0378  0.3189
 1054TIP3   OH224652   1.804   6.832   4.250 -0.5118  0.5086 -0.1716
 1054TIP3    H124653   1.799   6.853   4.343  0.1328  1.2261 -0.2876
 1054TIP3    H224654   1.714   6.807   4.226 -1.2621  2.7680  0.0741
 1055TIP3   OH224655   4.591   5.172  15.815 -0.0097 -0.0019 -0.0318
 1055TIP3    H124656   4.527   5.206  15.752  0.3630 -0.5170 -0.6931
 1055TIP3    H224657   4.542   5.107  15.866 -0.3215  0.4448  0.2450
 1056TIP3   OH224658   0.548   2.181   4.817 -0.4913 -0.1436  0.7599
 1056TIP3    H124659   0.487   2.144   4.753  0.2115 -0.0311  0.0060
 1056TIP3    H224660   0.530   2.275   4.816  1.1595  0.2114 -1.1207
 1057TIP3   OH224661   5.119   6.710  13.821  0.1730 -0.5404 -0.7605
 1057TIP3    H124662   5.086   6.791  13.782 -0.5777  0.1453  1.1592
 1057TIP3    H224663   5.069   6.641  13.778 -0.1976  0.1176 -1.4119
 1058TIP3   OH224664   0.888   5.721   3.774 -0.9785 -0.6350 -0.4602
 1058TIP3    H124665   0.803   5.697   3.738 -1.0719 -1.2887  0.1651
 1058TIP3    H224666   0.919   5.641   3.816 -0.0586 -0.3955 -0.6721
 1059TIP3   OH224667   1.398   1.458   4.599  0.1822  0.1483 -0.0445
 1059TIP3    H124668   1.394   1.466   4.503  0.7419 -1.9970 -0.2854
 1059TIP3    H224669   1.491   1.460   4.619  0.1868 -1.5248  0.2146
 1060TIP3   OH224670   0.528   1.842  10.836  0.0427 -0.2188 -0.7104
 1060TIP3    H124671   0.449   1.897  10.840  0.2697  0.3599 -2.7666
 1060TIP3    H224672   0.501   1.767  10.783  0.2400 -1.2358  0.5912
 1061TIP3   OH224673   4.761   1.378  15.717  0.1066  0.6706  0.0456
 1061TIP3    H124674   4.699   1.441  15.754 -0.8196 -0.8948  1.3276
 1061TIP3    H224675   4.774   1.314  15.787  0.8202 -0.6868 -1.2683
 1062TIP3   OH224676   5.729   0.586  12.217 -0.5497 -0.2754  0.0206
 1062TIP3    H124677   5.788   0.593  12.142  0.1955 -0.3083  0.5943
 1062TIP3    H224678   5.660   0.526  12.188  1.3409 -2.7807  0.3505
 1063TIP3   OH224679   3.952   0.645   3.259 -0.4790 -0.2273  0.0661
 1063TIP3    H124680   3.881   0.641   3.195  1.2254  2.2818 -2.1636
 1063TIP3    H224681   3.923   0.708   3.325 -1.6564 -1.7951  1.1364
 1064TIP3   OH224682   5.244   2.668  16.732  0.0450 -0.1601 -0.5306
 1064TIP3    H124683   5.154   2.636  16.726 -0.1917  0.1446  0.9690
 1064TIP3    H224684   5.265   2.664  16.825  2.0453 -1.4138 -0.9880
 1065TIP3   OH224685   2.626   6.145  16.192 -0.7445 -0.2138  0.1048
 1065TIP3    H124686   2.541   6.187  16.179  0.8410  2.5540 -2.4166
 1065TIP3    H224687   2.681   6.214  16.230  0.7475 -1.4959  0.3611
 1066TIP3   OH224688   3.680   5.810  13.532  0.6651  0.3747  0.0908
 1066TIP3    H124689   3.640   5.865  13.598 -1.1516 -1.8096  0.9130
 1066TIP3    H224690   3.730   5.745  13.582  0.6020 -0.3276 -0.7402
 1067TIP3   OH224691   4.230   2.408  16.276 -0.6894  0.4087  0.0430
 1067TIP3    H124692   4.180   2.350  16.334  0.7374 -0.3104  0.6121
 1067TIP3    H224693   4.261   2.478  16.333 -2.6034  1.9384 -0.6911
 1068TIP3   OH224694   0.644   1.536  16.186  0.1908  0.5343 -0.0933
 1068TIP3    H124695   0.609   1.604  16.128  0.7153  0.4609 -0.5048
 1068TIP3    H224696   0.650   1.459  16.131  1.0399  0.5583 -0.0385
 1069TIP3   OH224697   2.017   3.724  10.615 -0.0746 -0.0606 -0.0822
 1069TIP3    H124698   1.941   3.734  10.672  0.7357  1.5830  0.7548
 1069TIP3    H224699   1.987   3.754  10.529 -0.2651  1.0205  0.3485
 1070TIP3   OH224700   4.123   3.094   3.664  0.4959  0.1248 -0.0555
 1070TIP3    H124701   4.049   3.154   3.654 -0.9325 -1.8077 -2.1999
 1070TIP3    H224702   4.165   3.093   3.577  0.9712 -1.3125  0.1592
 1071TIP3   OH224703   2.946   1.485  13.214  0.3894 -0.0311 -0.4649
 1071TIP3    H124704   2.916   1.532  13.292 -0.6377 -0.2420 -0.7196
 1071TIP3    H224705   2.872   1.428  13.190  1.5557 -1.7276 -0.2148
 1072TIP3   OH224706   3.077   1.206   6.645  0.7559 -0.4445 -0.5052
 1072TIP3    H124707   3.023   1.147   6.698  0.1158  0.3897 -0.2232
 1072TIP3    H224708   3.119   1.264   6.709  0.0314  0.5238 -0.8940
 1073TIP3   OH224709   1.482   2.773   3.980 -0.2953 -1.2389  0.4592
 1073TIP3    H124710   1.551   2.813   3.927 -0.1060  0.6626  2.0307
 1073TIP3    H224711   1.451   2.699   3.928  1.0628 -0.5000 -1.4923
 1074TIP3   OH224712   2.300   3.203  13.807  0.2749  0.3051 -0.6478
 1074TIP3    H124713   2.269   3.293  13.795 -1.0088  0.0534  0.5455
 1074TIP3    H224714   2.272   3.180  13.896  2.5410 -0.5157 -0.0836
 1075TIP3   OH224715   5.173   3.463   3.897 -0.2722  0.2008  0.8195
 1075TIP3    H124716   5.095   3.487   3.848 -0.5655 -0.2920  1.0391
 1075TIP3    H224717   5.233   3.426   3.832 -1.7498 -3.1753  1.1835
 1076TIP3   OH224718   4.674   0.771   5.209 -0.3819  0.3266  0.1571
 1076TIP3    H124719   4.585   0.791   5.182  0.0715 -1.7079 -3.5628
 1076TIP3    H224720   4.729   0.822   5.149  0.8617 -1.2010 -0.0491
 1077TIP3   OH224721   4.688   6.484  14.599 -0.1325  0.5591 -0.5309
 1077TIP3    H124722   4.668   6.416  14.535 -1.1963  0.3388  0.0162
 1077TIP3    H224723   4.751   6.541  14.554 -1.2166  0.6790 -1.9604
 1078TIP3   OH224724   4.060   1.550  15.932 -0.7565 -0.6612  0.0441
 1078TIP3    H124725   4.048   1.455  15.938 -1.1686 -0.8202 -2.4551
 1078TIP3    H224726   3.971   1.584  15.928 -0.5965 -0.2253  0.1979
 1079TIP3   OH224727   5.106   3.096  12.814 -0.0441  0.1616 -0.0973
 1079TIP3    H124728   5.020   3.069  12.785  0.2554  0.8377 -1.6894
 1079TIP3    H224729   5.107   3.191  12.801  1.7597 -0.1016 -2.4807
 1080TIP3   OH224730   3.917   3.889  12.281  0.1489  0.1440  0.0417
 1080TIP3    H124731   3.931   3.807  12.326  0.9773  0.2208 -0.0646
 1080TIP3    H224732   3.922   3.956  12.349 -4.2803 -0.0651  0.8557
 1081TIP3   OH224733   1.492   4.986   1.709  0.0545  0.0569 -0.1185
 1081TIP3    H124734   1.441   4.990   1.628  1.6317 -1.6369 -1.2720
 1081TIP3    H224735   1.558   5.055   1.699 -1.2011  1.4412  0.8345
 1082TIP3   OH224736   2.655   4.418  13.594  0.3201  0.1743  0.5971
 1082TIP3    H124737   2.641   4.337  13.644  2.1251 -0.3947  0.2603
 1082TIP3    H224738   2.674   4.484  13.661  1.7995 -0.3754  0.7528
 1083TIP3   OH224739   5.546   5.835  13.292  0.2702 -0.0593 -0.5200
 1083TIP3    H124740   5.487   5.820  13.219  0.8680 -0.0432 -1.0096
 1083TIP3    H224741   5.520   5.769  13.357 -2.4369  1.9853  0.6598
 1084TIP3   OH224742   2.954   2.754  16.620  0.2175 -0.5148 -0.5430
 1084TIP3    H124743   2.858   2.751  16.621  0.2162 -1.9304  1.6571
 1084TIP3    H224744   2.976   2.830  16.675  0.3548 -0.6653 -0.3884
 1085TIP3   OH224745   0.722   1.242  13.673 -0.0656 -0.2429  0.0066
 1085TIP3    H124746   0.789   1.237  13.605 -1.0357 -1.0343 -0.9170
 1085TIP3    H224747   0.726   1.333  13.704  0.5520  0.0605 -0.9250
 1086TIP3   OH224748   4.692   1.641   4.964 -0.2392  0.1229  0.2516
 1086TIP3    H124749   4.628   1.651   5.034  0.0090  1.1109  0.3579
 1086TIP3    H224750   4.672   1.712   4.902  1.1279  0.8774  0.6157
 1087TIP3   OH224751   0.614   5.071   3.267  0.1268 -1.0128 -0.1792
 1087TIP3    H124752   0.523   5.101   3.267  0.1772 -0.8318  0.4908
 1087TIP3    H224753   0.637   5.060   3.175 -0.2633 -0.1128 -0.3871
 1088TIP3   OH224754   6.350   6.515  16.099 -0.0028  0.3199 -0.1140
 1088TIP3    H124755   6.353   6.598  16.147 -0.9526  1.8910 -2.5567
 1088TIP3    H224756   6.259   6.508  16.070  0.4576 -0.6901 -1.4048
 1089TIP3   OH224757   5.135   2.351  11.521  0.4795  0.2997  0.4135
 1089TIP3    H124758   5.139   2.336  11.426 -0.5319 -0.7725  0.5056
 1089TIP3    H224759   5.225   2.372  11.546  0.4775  2.2145 -1.0092
 1090TIP3   OH224760   1.056   6.611  15.093 -0.0288  0.0869  0.4090
 1090TIP3    H124761   1.054   6.701  15.061  0.8745  0.3887  1.1492
 1090TIP3    H224762   0.965   6.582  15.090 -0.1092  0.3763 -1.6061
 1091TIP3   OH224763   5.245   5.202   4.432 -0.1646  0.0470  0.5017
 1091TIP3    H124764   5.190   5.275   4.406  0.3951  0.7225  1.1659
 1091TIP3    H224765   5.184   5.130   4.447 -0.5837 -0.1678 -1.8358
 1092TIP3   OH224766   6.503   6.784  10.429 -0.2158 -0.3546 -0.1736
 1092TIP3    H124767   6.523   6.767  10.521  0.4020  1.4763  0.0743
 1092TIP3    H224768   6.568   6.733  10.381  2.1367  1.7652  0.5373
 1093TIP3   OH224769   0.100   4.435  15.065  0.1550  0.1811  0.3581
 1093TIP3    H124770   0.115   4.508  15.004  0.2350 -0.5558 -0.5223
 1093TIP3    H224771   0.005   4.432  15.075  0.0636 -0.2973 -0.5086
 1094TIP3   OH224772   2.238   0.950  14.348 -0.6267  0.0978  1.1028
 1094TIP3    H124773   2.285   0.872  14.378 -2.7654 -1.9037 -0.3461
 1094TIP3    H224774   2.275   0.969  14.262  0.8535  1.6438  2.0189
 1095TIP3   OH224775   6.398   0.341  16.977 -0.0936 -0.0822  0.2727
 1095TIP3    H124776   6.485   0.304  16.960  0.3544  0.9664  0.1984
 1095TIP3    H224777   6.354   0.276  17.032  0.0171 -1.5473 -1.2708
 1096TIP3   OH224778   0.752   6.072  15.220 -0.0920 -0.0926 -0.1108
 1096TIP3    H124779   0.678   6.025  15.181  1.2427 -1.1792 -1.4665
 1096TIP3    H224780   0.823   6.008  15.222  0.8611  0.9489  1.0513
 1097TIP3   OH224781   1.342   3.665  15.323 -0.2422  0.2209  0.0975
 1097TIP3    H124782   1.418   3.620  15.359 -3.0494 -2.4899  3.2982
 1097TIP3    H224783   1.353   3.757  15.350  1.2092 -0.3696  1.6718
 1098TIP3   OH224784   4.300   4.468   4.715  0.0115  0.6362  0.0858
 1098TIP3    H124785   4.211   4.446   4.690  0.2875  0.0865 -0.4304
 1098TIP3    H224786   4.331   4.525   4.644  0.8631 -1.0795 -0.9880
 1099TIP3   OH224787   1.244   0.888  11.126 -0.1010 -0.0557  0.2349
 1099TIP3    H124788   1.284   0.849  11.048 -2.3057 -2.0130 -0.0049
 1099TIP3    H224789   1.183   0.953  11.091  1.9388  2.1929  0.5725
 1100TIP3   OH224790   6.211   6.442   3.096 -0.5824  0.0664 -0.0662
 1100TIP3    H124791   6.148   6.391   3.044 -2.7015  1.8950  0.5566
 1100TIP3    H224792   6.206   6.405   3.183 -0.0074 -0.4497 -0.2490
 1101TIP3   OH224793   5.035   4.582  16.087 -0.1146 -0.8234 -0.2147
 1101TIP3    H124794   5.003   4.493  16.097 -0.5835 -0.4733  2.0153
 1101TIP3    H224795   4.956   4.635  16.076 -0.0748 -0.4009  1.3214
 1102TIP3   OH224796   3.448   2.698   2.014  0.2794 -0.8485  0.1369
 1102TIP3    H124797   3.439   2.784   1.972  0.2510 -0.8788  0.0817
 1102TIP3    H224798   3.517   2.711   2.080  2.4548 -1.5584 -1.8641
 1103TIP3   OH224799   2.138   2.750  11.036  0.2371  0.3940 -0.2863
 1103TIP3    H124800   2.130   2.841  11.065 -0.0971 -0.0470  1.0712
 1103TIP3    H224801   2.084   2.745  10.958 -1.1137  0.9632  0.5767
 1104TIP3   OH224802   2.305   2.997  11.683  0.0133 -0.2688  0.2412
 1104TIP3    H124803   2.348   3.071  11.726 -0.9688  1.5308 -1.7011
 1104TIP3    H224804   2.244   2.963  11.749  3.3061 -2.1643  2.6653
 1105TIP3   OH224805   1.910   4.629   0.021 -0.1512  0.0962 -0.4266
 1105TIP3    H124806   1.951   4.585   0.095 -3.1634 -1.2053  0.6252
 1105TIP3    H224807   1.969   4.612  -0.052  1.6884 -0.6803  1.1573
 1106TIP3   OH224808   5.385   1.910  13.033  0.5212 -0.0994  0.3874
 1106TIP3    H124809   5.438   1.841  13.074  0.8434 -1.2740 -1.8511
 1106TIP3    H224810   5.319   1.862  12.983 -0.1292  1.2766 -0.1109
 1107TIP3   OH224811   2.625   0.659   6.798  0.2668 -0.0849 -0.0738
 1107TIP3    H124812   2.711   0.693   6.773 -0.1412 -0.7947 -2.7939
 1107TIP3    H224813   2.619   0.573   6.755 -1.3573 -0.5872  1.0337
 1108TIP3   OH224814   1.447   2.539  10.943  0.6872  0.6433  0.3317
 1108TIP3    H124815   1.480   2.451  10.960  0.1707  0.4629  0.4018
 1108TIP3    H224816   1.359   2.525  10.907 -0.3456  1.1985  2.4965
 1109TIP3   OH224817   2.709   1.374   4.974 -0.2094 -0.6832 -0.1700
 1109TIP3    H124818   2.750   1.320   4.907  0.5433  0.1907 -0.4425
 1109TIP3    H224819   2.783   1.419   5.017 -0.5521 -1.9668  1.9402
 1110TIP3   OH224820   4.869   6.672  13.430  0.8298 -0.4960 -0.1673
 1110TIP3    H124821   4.903   6.739  13.371  1.4934 -0.4285  0.2791
 1110TIP3    H224822   4.774   6.675  13.418  0.7354  1.3461  0.6965
 1111TIP3   OH224823   6.038   1.659   4.657  0.3792 -0.3404  0.4144
 1111TIP3    H124824   5.962   1.612   4.691  0.4184  0.3166  1.4276
 1111TIP3    H224825   6.008   1.694   4.572 -0.2976 -0.4825  0.5907
 1112TIP3   OH224826   0.149   0.082  12.749  0.2506  0.3426  0.0183
 1112TIP3    H124827   0.177   0.047  12.665  0.5536  0.0867  0.2246
 1112TIP3    H224828   0.053   0.080  12.745  0.2653 -0.2120 -0.0954
 1113TIP3   OH224829   4.706   5.127   4.283  0.0774  0.4708 -0.4275
 1113TIP3    H124830   4.735   5.216   4.264  1.6922 -0.5942 -3.7522
 1113TIP3    H224831   4.782   5.086   4.324 -1.3496  1.0178  3.1498
 1114TIP3   OH224832   0.100   6.433   3.273 -0.2897  0.1671 -0.2382
 1114TIP3    H124833   0.046   6.395   3.204 -1.5837  2.5079 -0.6165
 1114TIP3    H224834   0.043   6.436   3.350  0.6989 -1.1485  0.5940
 1115TIP3   OH224835   2.580   3.038  15.264 -0.0033 -0.2472 -0.8827
 1115TIP3    H124836   2.641   3.112  15.263 -1.0151  0.6579  0.6698
 1115TIP3    H224837   2.571   3.015  15.356  0.0103 -2.1091 -1.3110
 1116TIP3   OH224838   1.865   0.148  11.997  0.2209  0.2297  0.1388
 1116TIP3    H124839   1.832   0.222  12.048  1.9166  1.9057 -1.0850
 1116TIP3    H224840   1.786   0.102  11.969 -0.8998  1.6980  0.7349
 1117TIP3   OH224841   0.772   5.888  12.792  0.5105  0.0403  0.3862
 1117TIP3    H124842   0.683   5.877  12.825 -0.1259  1.7426 -0.6582
 1117TIP3    H224843   0.769   5.860  12.701  1.7001 -2.3400  0.9932
 1118TIP3   OH224844   4.214   0.736  17.121  0.4109 -0.2715  0.0790
 1118TIP3    H124845   4.240   0.736  17.029 -3.3348  1.4339 -1.1690
 1118TIP3    H224846   4.130   0.692  17.123 -2.2288  4.1534  1.5803
 1119TIP3   OH224847   1.412   0.103  12.567 -0.0405 -0.3928 -0.3847
 1119TIP3    H124848   1.437   0.175  12.625 -0.1260  2.3608 -3.4949
 1119TIP3    H224849   1.319   0.089  12.584  0.0646 -0.0318  0.5189
 1120TIP3   OH224850   1.320   5.133  11.197 -0.0279 -0.4140 -0.0375
 1120TIP3    H124851   1.295   5.107  11.108  0.0339 -0.9236  0.0943
 1120TIP3    H224852   1.237   5.158  11.239 -0.0158  0.1721 -0.3427
 1121TIP3   OH224853   3.743   2.733  16.745  0.1570  0.0157 -0.0581
 1121TIP3    H124854   3.814   2.775  16.697  0.9469  0.5547  1.5266
 1121TIP3    H224855   3.699   2.679  16.679  0.8312  1.1576 -1.5086
 1122TIP3   OH224856   4.082   3.708  13.782 -0.2707  0.2943 -0.3257
 1122TIP3    H124857   4.107   3.621  13.751  1.2151  0.5832 -0.0163
 1122TIP3    H224858   4.082   3.763  13.703 -0.5027  0.1817 -0.4072
 1123TIP3   OH224859   6.189   4.930   5.485  0.5452 -0.4036 -0.4340
 1123TIP3    H124860   6.198   4.984   5.563  1.9192 -0.2676 -0.6603
 1123TIP3    H224861   6.111   4.876   5.502  0.3345  0.2079  0.6520
 1124TIP3   OH224862   2.799   3.793   2.689 -0.6799 -0.1244  0.1946
 1124TIP3    H124863   2.891   3.819   2.685 -0.5826 -0.5554 -0.5437
 1124TIP3    H224864   2.783   3.775   2.781 -0.2757  0.8308  0.4636
 1125TIP3   OH224865   3.802   3.129  13.162  0.0939  0.2535 -0.4402
 1125TIP3    H124866   3.747   3.206  13.167  0.5232  0.5163  0.4944
 1125TIP3    H224867   3.767   3.069  13.228  0.9764  0.4699  0.2439
 1126TIP3   OH224868   2.941   3.509   6.165 -0.3961 -0.1885  0.0769
 1126TIP3    H124869   2.976   3.427   6.131  1.4579  1.0517 -1.1965
 1126TIP3    H224870   3.015   3.550   6.210 -1.7508  0.0295  2.2619
 1127TIP3   OH224871   1.459   0.821  12.606  0.6968 -0.2233  0.0490
 1127TIP3    H124872   1.545   0.816  12.649  1.0201 -0.2683 -0.5893
 1127TIP3    H224873   1.397   0.798  12.675  1.2171 -0.4514  0.4542
 1128TIP3   OH224874   6.556   3.806  14.273  0.0378  0.2385  0.2387
 1128TIP3    H124875   6.506   3.806  14.355 -1.0582  0.0569 -0.4091
 1128TIP3    H224876   6.613   3.883  14.280  0.0568  0.1482  1.2226
 1129TIP3   OH224877   1.625   1.755   6.557 -0.9067  0.2156 -0.6755
 1129TIP3    H124878   1.686   1.799   6.615  0.7899  0.7340 -2.7137
 1129TIP3    H224879   1.659   1.665   6.550 -1.6848 -0.1321 -0.1098
 1130TIP3   OH224880   4.312   1.360   3.882 -0.0599  0.4261 -0.3763
 1130TIP3    H124881   4.342   1.279   3.841 -1.7721 -0.3632 -0.1649
 1130TIP3    H224882   4.392   1.400   3.917  0.9001 -0.8574 -0.9941
 1131TIP3   OH224883   1.064   6.493  14.563  0.1110  0.1403 -0.3361
 1131TIP3    H124884   1.143   6.445  14.535 -0.8900 -0.5927 -2.0241
 1131TIP3    H224885   0.993   6.429  14.555 -0.6386  0.6288  1.6648
 1132TIP3   OH224886   0.053   6.270  12.851  0.1605 -0.0413  0.2687
 1132TIP3    H124887   0.137   6.226  12.844 -0.3223 -1.0414  0.5909
 1132TIP3    H224888  -0.012   6.199  12.854 -0.6991  0.7051 -0.0027
 1133TIP3   OH224889   5.798   4.269   1.748 -0.7231  0.0490 -0.4294
 1133TIP3    H124890   5.729   4.255   1.683 -0.2998 -2.9862 -0.3384
 1133TIP3    H224891   5.764   4.231   1.828  0.0968  0.7801  0.2866
 1134TIP3   OH224892   2.660   3.779  12.763  0.1118  0.2338  0.0946
 1134TIP3    H124893   2.677   3.873  12.756 -0.4730  0.2926 -0.6462
 1134TIP3    H224894   2.745   3.741  12.787 -0.0856  1.1562  2.5999
 1135TIP3   OH224895   4.348   0.822   1.110 -0.2929  0.0313 -0.5332
 1135TIP3    H124896   4.309   0.746   1.153 -0.5317 -0.2355 -1.2027
 1135TIP3    H224897   4.275   0.865   1.066 -0.3691  1.3003  0.7426
 1136TIP3   OH224898   4.886   2.130  10.581 -0.4845 -0.2346 -0.1987
 1136TIP3    H124899   4.963   2.088  10.618 -0.8917 -2.0675 -1.3331
 1136TIP3    H224900   4.916   2.216  10.553  0.6370 -0.1433  1.1876
 1137TIP3   OH224901   3.078   3.288   1.966  0.3769 -0.1625  0.1310
 1137TIP3    H124902   2.996   3.331   1.939  0.4376  0.0714  0.3250
 1137TIP3    H224903   3.139   3.308   1.895  0.5698  0.5526  0.4907
 1138TIP3   OH224904   1.861   2.708  16.312 -0.4276  0.3329 -0.0259
 1138TIP3    H124905   1.909   2.790  16.326 -0.4713  0.6688 -1.6556
 1138TIP3    H224906   1.921   2.640  16.341 -0.7526  0.9393  2.2863
 1139TIP3   OH224907   6.807   2.901  16.782 -0.3784 -0.7266 -0.1879
 1139TIP3    H124908   6.802   2.862  16.695 -0.2193 -0.5588 -0.2707
 1139TIP3    H224909   6.897   2.933  16.790 -0.3313 -0.9303  0.1178
 1140TIP3   OH224910   2.775   3.104  12.892  0.2315 -0.3648  0.2985
 1140TIP3    H124911   2.770   3.175  12.828  0.7556 -1.4400 -0.9864
 1140TIP3    H224912   2.862   3.065  12.878  0.4391 -0.5059  1.8102
 1141TIP3   OH224913   2.975   2.245  12.665  0.1133  0.1730 -0.4972
 1141TIP3    H124914   2.881   2.264  12.657  0.2798  0.8493 -0.8750
 1141TIP3    H224915   2.978   2.156  12.700 -0.6951  0.9854  1.8300
 1142TIP3   OH224916   0.481   2.251  13.704  0.0876  0.7734  0.1475
 1142TIP3    H124917   0.459   2.301  13.625  1.7086 -2.0875 -2.3070
 1142TIP3    H224918   0.405   2.195  13.718  1.2256 -1.4403 -1.8430
 1143TIP3   OH224919   0.897   1.753  10.887  0.1650 -0.9869 -0.3138
 1143TIP3    H124920   0.853   1.734  10.804 -0.5176 -2.3000  0.3164
 1143TIP3    H224921   0.880   1.677  10.942 -2.2935  1.1429  2.2447
 1144TIP3   OH224922   2.543   2.129   4.294 -0.6676 -0.2507 -0.1547
 1144TIP3    H124923   2.629   2.086   4.302 -0.7064 -0.0991  1.4930
 1144TIP3    H224924   2.491   2.069   4.241  0.3353 -0.5383 -0.8443
 1145TIP3   OH224925   6.482   5.726   0.273 -0.3167 -0.0064 -0.3671
 1145TIP3    H124926   6.504   5.791   0.340  1.1449 -2.0326  1.2205
 1145TIP3    H224927   6.504   5.769   0.191  1.4800  1.2254  0.6790
 1146TIP3   OH224928   3.486   2.018  16.341  0.5032  0.0758 -0.0654
 1146TIP3    H124929   3.581   2.008  16.355  0.7052  0.4827 -1.0751
 1146TIP3    H224930   3.454   1.929  16.330  0.9250 -0.0097 -0.6330
 1147TIP3   OH224931   6.188   0.596  14.056  0.8046  0.0466  0.4504
 1147TIP3    H124932   6.161   0.527  13.996  1.4266  0.6305 -0.5288
 1147TIP3    H224933   6.109   0.616  14.106 -0.2452  0.7569 -1.3749
 1148TIP3   OH224934   1.277   6.723   3.391  0.2959 -0.3076 -0.5406
 1148TIP3    H124935   1.202   6.670   3.364 -0.8579 -0.2531  2.2059
 1148TIP3    H224936   1.326   6.666   3.451 -0.0478  1.0607  1.1328
 1149TIP3   OH224937   1.555   3.140  12.904 -0.3696 -0.3923  0.1346
 1149TIP3    H124938   1.530   3.084  12.977 -0.2121 -1.4736 -0.6148
 1149TIP3    H224939   1.650   3.150  12.912 -0.2005 -1.3200 -0.4366
 1150TIP3   OH224940   1.766   0.455  16.801 -0.3723 -0.6047 -0.4635
 1150TIP3    H124941   1.783   0.440  16.894  1.1943  1.5324 -0.3220
 1150TIP3    H224942   1.678   0.420  16.787 -1.4855  0.7089  2.3310
 1151TIP3   OH224943   3.456   0.331  12.536 -0.5251  0.0507  0.1280
 1151TIP3    H124944   3.396   0.395  12.497  1.6029  1.6755 -0.6567
 1151TIP3    H224945   3.513   0.304  12.464 -0.0063 -1.1137  0.9429
 1152TIP3   OH224946   4.463   3.281   2.997  0.3613 -1.1553  0.4170
 1152TIP3    H124947   4.368   3.294   3.004  0.6787  0.8738  1.9866
 1152TIP3    H224948   4.497   3.303   3.084  2.3509 -1.0685 -0.3242
 1153TIP3   OH224949   4.082   6.258  14.115  0.0040 -0.0597  0.4037
 1153TIP3    H124950   4.102   6.166  14.100 -1.6429 -0.8414  2.4292
 1153TIP3    H224951   4.157   6.306  14.080  1.9286 -2.2873  1.2768
 1154TIP3   OH224952   6.249   3.058   1.793  0.4517 -0.0610  0.2128
 1154TIP3    H124953   6.231   2.976   1.747  1.3522 -0.1273 -0.0291
 1154TIP3    H224954   6.169   3.074   1.843  0.7691 -1.8245  1.3845
 1155TIP3   OH224955   0.873   0.239  15.980 -0.0310  0.3272  0.0007
 1155TIP3    H124956   0.941   0.229  15.914 -0.9972 -1.8274 -0.7837
 1155TIP3    H224957   0.794   0.203  15.939 -1.5965  2.3890  0.9961
 1156TIP3   OH224958   3.228   0.603  12.037  0.3381  0.2254  0.0777
 1156TIP3    H124959   3.321   0.589  12.057  0.0959 -1.4147  0.1852
 1156TIP3    H224960   3.182   0.538  12.091 -0.9531  1.6244  0.7174
 1157TIP3   OH224961   6.372   2.967  12.097 -0.3199 -0.1566 -0.2383
 1157TIP3    H124962   6.384   2.876  12.071 -1.2719  0.0717 -1.5850
 1157TIP3    H224963   6.290   2.968  12.147 -0.6680  0.0497 -0.8006
 1158TIP3   OH224964   6.434   3.542   5.918 -0.7370  0.1956 -0.8391
 1158TIP3    H124965   6.365   3.552   5.854 -0.6752  0.7858 -0.8166
 1158TIP3    H224966   6.389   3.544   6.003 -0.5827  1.8160 -0.7695
 1159TIP3   OH224967   1.479   5.725   2.906 -0.2619 -0.3709  0.0903
 1159TIP3    H124968   1.386   5.718   2.925 -0.4820  2.7445  0.7080
 1159TIP3    H224969   1.486   5.707   2.812 -1.0854 -2.7555  0.4138
 1160TIP3   OH224970   3.997   4.428  14.871  0.2489  0.5692 -0.5843
 1160TIP3    H124971   4.052   4.391  14.801  2.2369 -0.2582  1.3141
 1160TIP3    H224972   4.057   4.442  14.944 -1.8359  1.0009  1.1336
 1161TIP3   OH224973   0.471   1.300   3.293  0.0798 -0.1522 -0.0294
 1161TIP3    H124974   0.483   1.232   3.226  1.5834  1.0996 -1.1147
 1161TIP3    H224975   0.553   1.300   3.342 -0.7051 -0.4937  1.3301
 1162TIP3   OH224976   0.463   6.098  12.431  0.8080  0.8540 -0.1434
 1162TIP3    H124977   0.534   6.135  12.484  0.3486  1.5921 -0.0290
 1162TIP3    H224978   0.394   6.164  12.434  0.8396  1.0033 -1.8000
 1163TIP3   OH224979   6.066   1.418   5.002 -0.3209 -0.0981  0.1841
 1163TIP3    H124980   6.035   1.329   4.984 -1.3417  0.4520 -0.9785
 1163TIP3    H224981   6.158   1.416   4.975 -0.3140 -0.8184  0.2207
 1164TIP3   OH224982   4.913   0.118  14.455 -0.2410 -0.0417 -0.0008
 1164TIP3    H124983   5.004   0.140  14.434 -0.0568 -0.6290  0.1756
 1164TIP3    H224984   4.868   0.117  14.370 -0.2292  0.8902 -0.0254
 1165TIP3   OH224985   5.420   6.000   0.441 -0.8245  0.3454  0.0795
 1165TIP3    H124986   5.407   6.083   0.488  0.1321  0.1191  0.7686
 1165TIP3    H224987   5.424   5.934   0.510 -4.1465 -0.7045 -0.5445
 1166TIP3   OH224988   3.624   4.676   1.161 -0.2882  0.0203  0.1477
 1166TIP3    H124989   3.679   4.715   1.229 -1.2141  0.3688  0.7206
 1166TIP3    H224990   3.643   4.727   1.082  1.1252 -0.6717 -0.0023
 1167TIP3   OH224991   4.083   0.163   4.725  0.2640 -0.0388 -0.5351
 1167TIP3    H124992   4.115   0.226   4.790  1.0569  0.1578 -1.0978
 1167TIP3    H224993   3.990   0.182   4.718 -0.3849 -1.7004  2.3269
 1168TIP3   OH224994   2.855   4.786  13.650 -0.2684 -0.3250  0.2943
 1168TIP3    H124995   2.791   4.754  13.714  0.4411  0.0517  1.2124
 1168TIP3    H224996   2.893   4.863  13.690  0.1613 -0.0460 -0.6154
 1169TIP3   OH224997   3.788   2.803   4.086 -0.0117 -0.2420 -0.0965
 1169TIP3    H124998   3.708   2.845   4.056  0.4338  2.1529  1.7260
 1169TIP3    H224999   3.807   2.737   4.020 -1.2391  1.9002 -2.8058
 1170TIP3   OH225000   5.903   2.086   2.727 -0.3308 -0.3278  0.3171
 1170TIP3    H125001   5.959   2.008   2.735  0.9697  0.5552  0.2659
 1170TIP3    H225002   5.881   2.109   2.817  1.5787  0.7820  0.5713
 1171TIP3   OH225003   0.264   4.994   6.368 -0.0660 -0.0210  0.2194
 1171TIP3    H125004   0.171   4.978   6.355 -0.0054  0.1948 -0.5215
 1171TIP3    H225005   0.298   5.011   6.281  0.4207  1.2402  0.6358
 1172TIP3   OH225006   6.342   2.809   2.223  0.4804  0.4430 -0.3490
 1172TIP3    H125007   6.295   2.806   2.140  0.9243  0.9786 -0.6213
 1172TIP3    H225008   6.342   2.718   2.254  1.0401  0.0974 -1.3434
 1173TIP3   OH225009   2.293   1.820   5.604 -0.0342  0.4996  0.2310
 1173TIP3    H125010   2.381   1.853   5.585  0.0302  0.1340 -0.1175
 1173TIP3    H225011   2.261   1.787   5.520  0.4307 -1.5818  0.8205
 1174TIP3   OH225012   2.283   1.745  11.110 -0.9540 -0.1666  0.1814
 1174TIP3    H125013   2.214   1.716  11.170  0.8891 -1.3921  1.8177
 1174TIP3    H225014   2.275   1.840  11.108 -1.0028 -0.0776  2.4910
 1175TIP3   OH225015   4.975   1.552   4.599 -0.4984 -0.1664  0.3415
 1175TIP3    H125016   4.881   1.559   4.586 -0.3095  0.9810 -0.6013
 1175TIP3    H225017   4.998   1.467   4.562 -1.3297 -1.0518  1.7873
 1176TIP3   OH225018   4.858   1.291  11.427  0.5186  0.2724 -0.0118
 1176TIP3    H125019   4.920   1.235  11.474 -0.4854 -0.2792  0.7070
 1176TIP3    H225020   4.781   1.235  11.413 -0.0379  1.1055 -0.3677
 1177TIP3   OH225021   0.583   2.885   2.647 -0.0179  0.0784  0.5641
 1177TIP3    H125022   0.651   2.844   2.700 -0.1051 -0.6601  0.1193
 1177TIP3    H225023   0.619   2.971   2.625  0.4043  0.0308  1.0534
 1178TIP3   OH225024   4.540   4.465  16.711  0.2677  0.4887  0.3998
 1178TIP3    H125025   4.588   4.466  16.793 -0.4545  0.8504  0.8211
 1178TIP3    H225026   4.525   4.372  16.693  0.1571  0.4212  0.8354
 1179TIP3   OH225027   6.225   4.395  10.561 -0.5156  0.4133 -0.4501
 1179TIP3    H125028   6.144   4.350  10.538 -0.9078 -0.5945  2.4908
 1179TIP3    H225029   6.293   4.328  10.554 -0.7273 -0.0843  1.5526
 1180TIP3   OH225030   0.301   4.824  15.544 -0.0629  0.0130  0.0195
 1180TIP3    H125031   0.259   4.856  15.624  0.2451  1.0454 -0.2185
 1180TIP3    H225032   0.252   4.744  15.522 -0.9008  0.3482  0.5948
 1181TIP3   OH225033   4.971   6.417   1.267 -0.2322  0.2224 -0.3109
 1181TIP3    H125034   4.948   6.338   1.316 -1.8818 -0.3564 -1.9320
 1181TIP3    H225035   5.028   6.386   1.197  0.0331  0.6531 -0.2892
 1182TIP3   OH225036   3.525   0.212  15.096 -0.5310 -0.3616  0.1138
 1182TIP3    H125037   3.598   0.172  15.142 -0.6591 -0.6650  0.0549
 1182TIP3    H225038   3.493   0.144  15.037  0.0243  0.2149 -0.8898
 1183TIP3   OH225039   6.435   1.057  16.990  0.3579  0.0748  0.5475
 1183TIP3    H125040   6.340   1.061  16.984  0.0875 -1.6422  2.4427
 1183TIP3    H225041   6.454   0.964  17.003  2.0242  0.6596  2.9462
 1184TIP3   OH225042   4.677   0.133   3.777 -0.5057  0.4416  0.0586
 1184TIP3    H125043   4.637   0.220   3.774 -1.2849  0.0883 -0.1439
 1184TIP3    H225044   4.694   0.112   3.685 -1.5717 -0.1690 -0.0163
 1185TIP3   OH225045   5.637   2.602  15.875 -0.0844  0.5098 -0.2099
 1185TIP3    H125046   5.682   2.671  15.828 -1.9410  1.3489 -0.8377
 1185TIP3    H225047   5.698   2.528  15.875  0.0172  0.4050 -4.0172
 1186TIP3   OH225048   3.802   3.749  11.351  0.2137  0.7861  0.1904
 1186TIP3    H125049   3.881   3.798  11.374  0.5978 -0.4518  1.7384
 1186TIP3    H225050   3.833   3.659  11.336 -0.9808  0.0486  1.8074
 1187TIP3   OH225051   2.733   4.154  12.934  0.2226 -0.0018 -0.0093
 1187TIP3    H125052   2.679   4.233  12.929 -1.0733 -0.8352  0.3822
 1187TIP3    H225053   2.796   4.173  13.004  0.9727  1.2688 -0.9728
 1188TIP3   OH225054   4.622   2.575  15.253 -0.3570  0.0180 -0.8241
 1188TIP3    H125055   4.687   2.642  15.274  0.1656 -0.6761 -0.1863
 1188TIP3    H225056   4.589   2.546  15.338 -0.2742 -0.8292 -1.0717
 1189TIP3   OH225057   4.635   3.879   2.429  0.1352  0.6899 -0.1175
 1189TIP3    H125058   4.607   3.833   2.350  0.9970 -1.8613  0.9566
 1189TIP3    H225059   4.554   3.906   2.472 -0.6979 -2.6459  0.7138
 1190TIP3   OH225060   3.337   5.574  14.421  0.1517 -0.1405  0.2443
 1190TIP3    H125061   3.262   5.520  14.445  0.7691 -0.6390  1.1345
 1190TIP3    H225062   3.308   5.623  14.344 -1.5277  0.6203  1.2868
 1191TIP3   OH225063   0.882   3.458   2.620  0.3475  0.0949  0.0098
 1191TIP3    H125064   0.825   3.427   2.549  2.2355 -1.1591 -1.0714
 1191TIP3    H225065   0.853   3.409   2.697 -1.0992  0.7394 -0.0974
 1192TIP3   OH225066   2.077   2.660  16.885  0.2752 -0.8708 -0.1611
 1192TIP3    H125067   2.102   2.732  16.827  0.5758  1.2396  2.3709
 1192TIP3    H225068   1.990   2.632  16.854  0.5335 -0.0138 -1.7267
 1193TIP3   OH225069   6.770   6.544   2.856  0.2269 -0.1455 -0.2117
 1193TIP3    H125070   6.682   6.570   2.885  0.2447  1.6048 -1.5502
 1193TIP3    H225071   6.822   6.624   2.867  1.5225 -0.9957 -0.0187
 1194TIP3   OH225072   2.208   4.872  15.894  0.1747 -0.0113  0.1643
 1194TIP3    H125073   2.168   4.959  15.895  1.6071  0.6866  0.0401
 1194TIP3    H225074   2.149   4.818  15.946 -0.9936  0.9118 -0.1550
 1195TIP3   OH225075   5.921   3.156   2.837 -0.0836 -0.5190  0.0656
 1195TIP3    H125076   5.932   3.089   2.769  1.0754 -0.1814 -0.0992
 1195TIP3    H225077   6.004   3.204   2.837 -0.1093 -0.4280  1.6414
 1196TIP3   OH225078   1.355   4.642  13.431 -0.6957 -0.1112  0.5561
 1196TIP3    H125079   1.270   4.665  13.468 -1.7217 -1.5034 -0.8107
 1196TIP3    H225080   1.378   4.559  13.473 -0.6403 -0.3952 -0.0285
 1197TIP3   OH225081   6.567   6.718  13.758 -0.2380 -0.0003  0.0913
 1197TIP3    H125082   6.557   6.714  13.853 -2.1361 -1.1747 -0.0990
 1197TIP3    H225083   6.647   6.669  13.739 -0.8752 -1.4307  0.9741
 1198TIP3   OH225084   5.584   4.437  12.211  0.5804  0.1929 -0.1599
 1198TIP3    H125085   5.650   4.403  12.150  1.4723  1.6571 -0.0682
 1198TIP3    H225086   5.623   4.517  12.245 -0.2754 -0.1374  1.6944
 1199TIP3   OH225087   0.755   4.943   5.751  0.4113  0.2445 -0.4051
 1199TIP3    H125088   0.692   5.011   5.774 -0.7555 -0.5950 -1.0107
 1199TIP3    H225089   0.812   4.985   5.685  0.5128  1.0096  0.1538
 1200TIP3   OH225090   2.818   6.244   0.970  0.8565 -0.6842 -0.1694
 1200TIP3    H125091   2.832   6.224   1.063 -1.7375 -0.8866  0.2505
 1200TIP3    H225092   2.807   6.339   0.967  2.2293 -0.5049 -0.5216
 1201TIP3   OH225093   2.622   2.835  13.454 -0.5028  0.5874  0.0065
 1201TIP3    H125094   2.580   2.811  13.371 -0.0228 -0.9236  0.1680
 1201TIP3    H225095   2.582   2.777  13.519  1.8243 -1.0189  0.1477
 1202TIP3   OH225096   5.945   4.682   0.165  0.0256  0.2016  0.1904
 1202TIP3    H125097   5.903   4.629   0.097  1.4302  1.1253 -1.4706
 1202TIP3    H225098   5.875   4.735   0.202 -0.7344 -0.1836 -0.6698
 1203TIP3   OH225099   3.542   2.400   6.288  0.2046 -0.2778  0.1546
 1203TIP3    H125100   3.452   2.379   6.265  0.2815 -1.0452  0.5300
 1203TIP3    H225101   3.573   2.323   6.336  1.6234 -0.8399 -1.5340
 1204TIP3   OH225102   4.946   0.562  12.671  0.6819 -0.6747  0.2119
 1204TIP3    H125103   5.013   0.615  12.714 -0.5891  1.2229 -0.0311
 1204TIP3    H225104   4.959   0.474  12.706  2.5725 -0.1339  0.9947
 1205TIP3   OH225105   5.521   1.500  12.780 -0.1651 -0.2480 -0.5874
 1205TIP3    H125106   5.458   1.505  12.852 -1.0781  0.1234 -1.3753
 1205TIP3    H225107   5.544   1.592  12.764  0.7755 -0.4033 -0.1454
 1206TIP3   OH225108   3.993   3.106  12.751  0.9253 -0.5142 -0.3001
 1206TIP3    H125109   4.005   3.161  12.829 -1.1921  0.8452 -0.8467
 1206TIP3    H225110   4.021   3.162  12.679 -1.2730 -0.0391 -0.8639
 1207TIP3   OH225111   5.440   3.996  14.635  0.4029  0.6259  0.0850
 1207TIP3    H125112   5.479   3.931  14.693 -0.9078 -0.0547  0.2622
 1207TIP3    H225113   5.511   4.024  14.578  0.7252 -2.1840 -1.0956
 1208TIP3   OH225114   4.179   1.077  13.029 -0.0739 -0.2783  0.8907
 1208TIP3    H125115   4.117   1.004  13.026  0.3622 -0.6427 -1.0611
 1208TIP3    H225116   4.127   1.152  13.056 -2.2267  0.1137 -3.4822
 1209TIP3   OH225117   2.679   2.975   0.763 -0.0662  0.4044  0.2840
 1209TIP3    H125118   2.586   2.992   0.778 -0.2082  0.2894 -0.4403
 1209TIP3    H225119   2.680   2.903   0.700  0.5079  1.1074 -0.5193
 1210TIP3   OH225120   6.122   5.217  13.965  0.2611 -0.5820  0.3332
 1210TIP3    H125121   6.212   5.232  13.993 -0.1864  0.7817  1.1429
 1210TIP3    H225122   6.078   5.181  14.042 -0.2070  0.1215  0.4081
 1211TIP3   OH225123   4.239   2.399  12.911 -0.2894 -0.0962  0.0589
 1211TIP3    H125124   4.307   2.404  12.844 -0.3224  1.5922  0.1087
 1211TIP3    H225125   4.171   2.459  12.881 -0.6356  0.1360  1.2454
 1212TIP3   OH225126   3.548   6.104  15.457  0.1665  0.3365 -0.5468
 1212TIP3    H125127   3.540   6.012  15.430 -2.9524  0.1977  0.4723
 1212TIP3    H225128   3.529   6.154  15.378 -0.0951  0.0660 -0.6571
 1213TIP3   OH225129   6.375   2.248  15.244  0.0202  0.1610  0.5290
 1213TIP3    H125130   6.424   2.292  15.174 -0.6033  0.1858  0.1016
 1213TIP3    H225131   6.426   2.170  15.263 -0.4398 -0.5105 -0.8354
 1214TIP3   OH225132   5.854   2.918   2.098 -0.1464  0.3422 -0.8241
 1214TIP3    H125133   5.782   2.884   2.151  1.0829 -0.6933  0.2710
 1214TIP3    H225134   5.929   2.920   2.158  1.1822 -0.3812 -2.3781
 1215TIP3   OH225135   5.637   0.545  11.543  0.0689 -0.0570 -0.6442
 1215TIP3    H125136   5.669   0.574  11.629 -1.2596  1.0376 -0.4988
 1215TIP3    H225137   5.688   0.596  11.480 -0.1028  0.3318 -0.4672
 1216TIP3   OH225138   4.798   6.577   4.866  0.5334  0.5218  0.3921
 1216TIP3    H125139   4.765   6.498   4.909  0.9379  0.0050 -0.2149
 1216TIP3    H225140   4.844   6.625   4.935 -0.9867  0.9820  1.1190
 1217TIP3   OH225141   5.955   5.611   6.571 -0.3258  0.0963 -0.3373
 1217TIP3    H125142   5.903   5.553   6.627  0.0096  0.8997  0.8591
 1217TIP3    H225143   6.044   5.602   6.604 -0.1439  0.6907 -0.6546
 1218TIP3   OH225144   6.735   2.598  13.928  0.3939  0.2155 -0.3450
 1218TIP3    H125145   6.739   2.692  13.913  2.8184  0.2877  0.3515
 1218TIP3    H225146   6.825   2.572  13.947  0.3584 -2.7747 -3.3407
 1219TIP3   OH225147   3.430   2.850   2.546  0.1780  0.1766 -0.2151
 1219TIP3    H125148   3.412   2.944   2.537 -0.4059  0.0243 -0.6500
 1219TIP3    H225149   3.384   2.825   2.626 -0.6965  0.0081 -0.7609
 1220TIP3   OH225150   3.560   0.180   2.176  0.7978 -0.4087 -0.2636
 1220TIP3    H125151   3.580   0.102   2.125 -0.2601  0.5840 -2.2907
 1220TIP3    H225152   3.478   0.213   2.140  0.1368  0.5288  1.9200
 1221TIP3   OH225153   0.622   4.561   4.612  0.2673  0.4594  0.3712
 1221TIP3    H125154   0.675   4.560   4.532 -1.1172  0.0909 -0.5859
 1221TIP3    H225155   0.642   4.477   4.655  0.6833  0.4602  0.1792
 1222TIP3   OH225156   5.473   3.973   2.708 -0.2844  0.0252  0.6069
 1222TIP3    H125157   5.515   3.898   2.750 -1.5065 -2.1180 -1.7150
 1222TIP3    H225158   5.546   4.032   2.686  0.8501 -1.0442  1.3568
 1223TIP3   OH225159   1.924   6.178   5.658 -0.3008  0.6428  0.0096
 1223TIP3    H125160   1.951   6.088   5.640 -1.7877  0.2257 -0.2920
 1223TIP3    H225161   1.858   6.171   5.727 -1.7503  1.2923 -1.2373
 1224TIP3   OH225162   0.060   1.757   0.241  0.4529 -0.6209  0.4240
 1224TIP3    H125163   0.065   1.791   0.330  2.4749  0.5636 -0.0827
 1224TIP3    H225164   0.005   1.820   0.193  1.1087 -0.0906  0.3588
 1225TIP3   OH225165   6.185   4.677  15.725 -1.0405  0.1732 -0.8129
 1225TIP3    H125166   6.263   4.705  15.772 -0.9220  0.1499 -0.9938
 1225TIP3    H225167   6.178   4.583  15.744 -1.0520  0.1851 -0.7576
 1226TIP3   OH225168   2.020   6.172  16.677  0.6125  0.1888 -0.3068
 1226TIP3    H125169   1.985   6.102  16.622 -1.1193 -0.1015  1.0535
 1226TIP3    H225170   1.975   6.251  16.647 -0.2050  0.0590  0.5267
 1227TIP3   OH225171   4.092   0.384  11.407  0.1367  0.5374 -0.1456
 1227TIP3    H125172   4.070   0.383  11.314 -1.9355  0.0902  0.3136
 1227TIP3    H225173   4.083   0.476  11.433  0.2460  0.5846 -0.2715
 1228TIP3   OH225174   1.895   6.097  16.425  0.1791  0.1929 -0.3493
 1228TIP3    H125175   1.857   6.028  16.370  1.7711  0.9957 -2.6188
 1228TIP3    H225176   1.863   6.179  16.387  2.8363  0.8437 -1.4501
 1229TIP3   OH225177   4.146   2.128   4.049  0.0657 -0.2026  0.1778
 1229TIP3    H125178   4.119   2.143   4.140  1.2869  2.0246  0.2429
 1229TIP3    H225179   4.240   2.148   4.049 -0.1553  1.0410 -1.8024
 1230TIP3   OH225180   0.303   4.356   0.715  0.4312  0.1654  0.1006
 1230TIP3    H125181   0.343   4.338   0.630 -1.8170  0.4986 -1.1125
 1230TIP3    H225182   0.292   4.452   0.716 -0.2507  0.0877  0.4044
 1231TIP3   OH225183   4.396   6.213  12.641  0.1158 -0.4478 -0.1216
 1231TIP3    H125184   4.336   6.149  12.680  1.7486 -1.3935  1.0034
 1231TIP3    H225185   4.483   6.181  12.666  1.0083  2.2482  0.5467
 1232TIP3   OH225186   4.549   2.718  16.498  0.1273 -0.1847 -0.2064
 1232TIP3    H125187   4.483   2.711  16.567  1.5842 -0.7758  1.1963
 1232TIP3    H225188   4.538   2.806  16.463 -0.7803  0.0515  0.6199
 1233TIP3   OH225189   5.695   3.402   1.682  0.2187  0.1500  0.3284
 1233TIP3    H125190   5.644   3.323   1.662  2.1387 -0.7499 -1.3696
 1233TIP3    H225191   5.629   3.467   1.707 -1.8287 -0.9030 -1.9151
 1234TIP3   OH225192   6.510   2.533   0.465 -0.3792 -0.3383 -0.2448
 1234TIP3    H125193   6.581   2.542   0.527 -2.1403  0.1288  1.8171
 1234TIP3    H225194   6.553   2.532   0.379  1.9740  1.3415  0.8082
 1235TIP3   OH225195   2.106   5.296  15.941 -0.2187 -0.3912  0.7497
 1235TIP3    H125196   2.177   5.357  15.957 -0.3333 -0.2745  0.8174
 1235TIP3    H225197   2.026   5.347  15.957 -0.3640 -0.1138 -0.6824
 1236TIP3   OH225198   1.965   2.462  13.656 -0.8993 -0.2129  0.7537
 1236TIP3    H125199   2.042   2.431  13.608 -0.0733  1.0359  1.2127
 1236TIP3    H225200   1.973   2.424  13.743 -0.2555  0.6971  1.1048
 1237TIP3   OH225201   4.317   5.802   4.965  0.0708  0.0909  1.0897
 1237TIP3    H125202   4.384   5.753   4.918  1.9934  1.8806  1.8002
 1237TIP3    H225203   4.234   5.762   4.938  1.3138 -1.3712 -0.8280
 1238TIP3   OH225204   2.172   6.225   0.965  0.1318 -0.5463  0.2447
 1238TIP3    H125205   2.206   6.302   1.011 -2.2226  0.5525  0.2823
 1238TIP3    H225206   2.092   6.202   1.012 -0.4567 -1.5701 -1.1966
 1239TIP3   OH225207   0.113   3.141   2.119 -0.0485 -0.2767 -0.1567
 1239TIP3    H125208   0.162   3.059   2.107 -1.3972 -1.1368 -0.0394
 1239TIP3    H225209   0.149   3.178   2.199  0.9470 -0.4794 -0.4966
 1240TIP3   OH225210   6.285   3.148  14.548  0.9119  0.1433 -0.0246
 1240TIP3    H125211   6.314   3.215  14.609  0.1482 -0.3253  0.8788
 1240TIP3    H225212   6.205   3.183  14.509  0.3585 -0.3354  0.6523
 1241TIP3   OH225213   4.680   4.665   4.586 -0.1749 -0.1059  0.2004
 1241TIP3    H125214   4.661   4.620   4.668  1.8154 -1.1846  0.1435
 1241TIP3    H225215   4.677   4.596   4.520  2.2555 -0.1431  0.0143
 1242TIP3   OH225216   4.736   6.422   2.383 -0.4551 -0.6828 -0.2525
 1242TIP3    H125217   4.726   6.410   2.289 -2.1078  3.6337 -0.8816
 1242TIP3    H225218   4.695   6.507   2.401  0.7204 -0.7801  4.2239
 1243TIP3   OH225219   4.833   0.175   3.287  0.2240  1.0482  0.1987
 1243TIP3    H125220   4.763   0.142   3.344 -0.9956  1.3198 -1.0911
 1243TIP3    H225221   4.913   0.136   3.322 -0.5930  0.5406  1.5721
 1244TIP3   OH225222   6.039   6.158   3.494 -0.2140  1.0540  1.1156
 1244TIP3    H125223   6.021   6.065   3.484  0.2003  1.1980 -1.7247
 1244TIP3    H225224   5.958   6.202   3.469  0.2600  1.4687  0.2536
 1245TIP3   OH225225   5.009   0.600   3.608 -0.5716  0.1009 -0.0342
 1245TIP3    H125226   4.991   0.506   3.617 -0.7641  0.0245 -1.0596
 1245TIP3    H225227   4.986   0.620   3.517  0.1231  0.9946 -0.0296
 1246TIP3   OH225228   3.390   1.444   5.054 -0.4444  0.4857 -0.0767
 1246TIP3    H125229   3.433   1.441   4.968 -0.4341  0.4926 -0.0718
 1246TIP3    H225230   3.312   1.390   5.043  0.2380 -0.6204  0.2861
 1247TIP3   OH225231   2.794   1.648  13.919  0.1027 -0.4808 -0.9394
 1247TIP3    H125232   2.757   1.694  13.842 -0.3657 -0.9822 -1.0211
 1247TIP3    H225233   2.808   1.559  13.889  0.7443 -0.4632 -0.6927
 1248TIP3   OH225234   5.034   5.307  12.344 -0.0137  0.7267 -0.0855
 1248TIP3    H125235   5.112   5.278  12.392 -0.8433 -0.0705  0.8640
 1248TIP3    H225236   5.007   5.230  12.294 -0.7093  0.6695  0.3475
 1249TIP3   OH225237   4.694   1.319  11.838  0.4731 -0.2254 -0.3815
 1249TIP3    H125238   4.762   1.303  11.904  0.1074 -0.0191  0.0420
 1249TIP3    H225239   4.726   1.395  11.789  0.6112 -0.2093 -0.2675
 1250TIP3   OH225240   1.461   1.992   2.344  0.1813  0.1281  0.2055
 1250TIP3    H125241   1.538   1.957   2.390  1.9815  1.0467 -1.9144
 1250TIP3    H225242   1.465   2.086   2.360 -1.5060  0.0333  1.4044
 1251TIP3   OH225243   0.320   2.712  11.369 -0.0771 -0.3907 -0.4808
 1251TIP3    H125244   0.364   2.658  11.303  0.7934  0.9197 -1.0226
 1251TIP3    H225245   0.300   2.652  11.441 -0.1448 -1.6395 -1.5197
 1252TIP3   OH225246   6.026   1.319   1.358  0.3679 -0.2977  0.0600
 1252TIP3    H125247   6.107   1.346   1.401  1.3093 -2.5562 -0.1740
 1252TIP3    H225248   6.006   1.234   1.396 -1.3731 -0.2184 -0.6071
 1253TIP3   OH225249   4.249   1.006   3.907  0.0283  0.2162  0.2677
 1253TIP3    H125250   4.282   0.916   3.896 -1.7934 -0.3136 -1.3151
 1253TIP3    H225251   4.284   1.054   3.833  0.3803  0.6363  0.7013
 1254TIP3   OH225252   2.970   3.433  12.404 -0.9863 -0.5794  0.1198
 1254TIP3    H125253   2.992   3.504  12.464 -1.1492 -1.0685  0.7796
 1254TIP3    H225254   2.883   3.454  12.371 -0.3323  0.4086 -1.0494
 1255TIP3   OH225255   3.424   5.324  16.915 -0.5098 -0.0267  0.4329
 1255TIP3    H125256   3.455   5.234  16.930 -1.4382 -0.2984  0.8025
 1255TIP3    H225257   3.353   5.335  16.979  0.0849  1.2335  0.8998
 1256TIP3   OH225258   3.553   6.642  13.458 -0.2672  0.1353 -0.0281
 1256TIP3    H125259   3.623   6.690  13.502  0.5552 -1.2859  0.2663
 1256TIP3    H225260   3.479   6.702  13.460 -0.1224  0.3731  2.8297
 1257TIP3   OH225261   4.948   6.649   5.781 -0.3277  0.6212  0.6902
 1257TIP3    H125262   4.866   6.671   5.825 -1.0351 -0.7314  0.0830
 1257TIP3    H225263   4.923   6.590   5.710  1.0380  1.1075 -0.2487
 1258TIP3   OH225264   4.966   6.204  15.564 -0.8289 -0.0664 -0.3523
 1258TIP3    H125265   4.909   6.134  15.531  0.6090 -1.4683  0.0381
 1258TIP3    H225266   5.029   6.219  15.493  0.8578 -1.4809  0.7888
 1259TIP3   OH225267   2.986   0.377  13.519 -0.6647  0.3473  0.2074
 1259TIP3    H125268   2.920   0.363  13.451  0.9385  0.8715 -1.5516
 1259TIP3    H225269   3.029   0.459  13.495 -0.5584  0.9930  2.3596
 1260TIP3   OH225270   4.395   3.687   4.149  0.1390  0.4522 -0.5089
 1260TIP3    H125271   4.481   3.710   4.114  0.0053  0.3776 -0.8970
 1260TIP3    H225272   4.341   3.673   4.071  0.4210 -2.0452 -0.3627
 1261TIP3   OH225273   0.522   5.242  12.410  0.6792  0.3411  0.9375
 1261TIP3    H125274   0.600   5.267  12.459 -1.5939  1.2000  4.4973
 1261TIP3    H225275   0.502   5.153  12.441  0.5004 -0.1196 -0.4077
 1262TIP3   OH225276   2.687   0.295  12.074 -0.3909 -0.2045  0.1743
 1262TIP3    H125277   2.678   0.202  12.053 -1.0679  0.1053 -0.9871
 1262TIP3    H225278   2.598   0.323  12.097 -0.5146  0.5163 -1.0984
 1263TIP3   OH225279   0.564   2.381  10.639 -0.3358  0.4197  0.3519
 1263TIP3    H125280   0.479   2.382  10.594 -0.2819  0.4214  0.2483
 1263TIP3    H225281   0.615   2.449  10.595 -0.3512  0.5625  0.5546
 1264TIP3   OH225282   6.512   1.357   5.086 -0.3392  0.3551 -0.6695
 1264TIP3    H125283   6.495   1.268   5.053  0.9842  0.7572 -2.6449
 1264TIP3    H225284   6.436   1.408   5.058 -2.4441 -0.5526  2.7700
 1265TIP3   OH225285   3.048   0.775   2.656  0.1141  0.6309 -0.2326
 1265TIP3    H125286   3.068   0.685   2.631 -1.1105  0.1356  0.4547
 1265TIP3    H225287   3.088   0.786   2.742  1.1619  1.1099 -0.7638
 1266TIP3   OH225288   3.919   2.671  14.830 -0.3949  0.1375 -0.0671
 1266TIP3    H125289   3.979   2.676  14.904  0.0664 -0.8418 -0.3514
 1266TIP3    H225290   3.880   2.758  14.824  1.6750  1.0932 -0.4166
 1267TIP3   OH225291   3.346   1.712  16.622 -0.5220 -0.4420  0.1779
 1267TIP3    H125292   3.325   1.795  16.579  0.6293  1.1375  2.4402
 1267TIP3    H225293   3.362   1.651  16.550  0.5692  1.8069 -1.6231
 1268TIP3   OH225294   4.153   2.595   2.050  0.0503 -0.5252  0.4819
 1268TIP3    H125295   4.193   2.526   2.101 -1.2334 -2.1197 -0.5675
 1268TIP3    H225296   4.192   2.586   1.963 -0.2180 -0.0064  0.3008
 1269TIP3   OH225297   3.758   0.937   1.474  0.0841  0.4742 -0.0556
 1269TIP3    H125298   3.758   1.006   1.540 -2.0985 -0.1968  0.7324
 1269TIP3    H225299   3.704   0.972   1.403  0.6007  0.3120 -0.5412
 1270TIP3   OH225300   4.461   3.900  16.747 -0.0232  0.2202 -0.4363
 1270TIP3    H125301   4.491   3.835  16.810 -1.8141  0.2688  0.5621
 1270TIP3    H225302   4.521   3.893  16.673  1.5926 -0.4935  0.8870
 1271TIP3   OH225303   4.003   3.869  12.756  0.2283 -0.0406  0.1880
 1271TIP3    H125304   4.003   3.813  12.678  0.8653  1.1952 -0.7333
 1271TIP3    H225305   3.960   3.950  12.727  2.1809  1.1752  0.5407
 1272TIP3   OH225306   6.450   6.577   1.584  0.0523  0.5758 -0.3453
 1272TIP3    H125307   6.394   6.500   1.586  2.1824 -1.1283 -1.5775
 1272TIP3    H225308   6.447   6.608   1.494  1.6659 -0.0494 -0.6450
 1273TIP3   OH225309   4.121   1.603   2.353 -0.4451 -1.1406 -0.5508
 1273TIP3    H125310   4.217   1.603   2.354 -0.2171  2.3723  2.8400
 1273TIP3    H225311   4.096   1.535   2.415 -0.0523 -1.1149 -0.3612
 1274TIP3   OH225312   6.756   2.077  17.032 -0.4867  0.1249  0.3656
 1274TIP3    H125313   6.722   2.142  17.094 -0.9059  1.3154 -1.0415
 1274TIP3    H225314   6.805   2.015  17.086 -2.4607 -0.0179  2.1228
 1275TIP3   OH225315   0.727   6.594  13.027  0.1514  0.1953  0.0474
 1275TIP3    H125316   0.703   6.518  13.080 -1.4559  1.5118  1.3201
 1275TIP3    H225317   0.780   6.647  13.086  1.7059 -0.1448 -1.0065
 1276TIP3   OH225318   3.650   3.904  10.909 -0.2776 -0.7422 -0.1685
 1276TIP3    H125319   3.706   3.962  10.857  3.9123 -2.4539  2.0293
 1276TIP3    H225320   3.651   3.821  10.862  0.4721 -1.2628  0.7543
 1277TIP3   OH225321   5.230   1.595  16.911  0.1118 -0.1507 -0.3813
 1277TIP3    H125322   5.191   1.663  16.857 -0.2795  0.2315  0.3641
 1277TIP3    H225323   5.180   1.516  16.890  0.3211 -0.1287 -0.9736
 1278TIP3   OH225324   4.774   3.314  16.573 -0.8643 -0.0283 -0.6418
 1278TIP3    H125325   4.824   3.393  16.551  0.3567 -0.8301 -0.8059
 1278TIP3    H225326   4.733   3.335  16.657  0.9459  0.1299  0.2449
 1279TIP3   OH225327   2.628   0.105  13.403  0.2259  0.6982  0.1327
 1279TIP3    H125328   2.671   0.104  13.489  0.0593 -0.8319  0.2413
 1279TIP3    H225329   2.677   0.170  13.353  2.0413 -0.2286  0.5790
 1280TIP3   OH225330   0.811   5.192  15.696 -0.1052 -0.7179  0.0481
 1280TIP3    H125331   0.849   5.192  15.784 -1.8902 -0.0560  0.8636
 1280TIP3    H225332   0.802   5.284  15.673 -1.7657 -0.8185  0.1702
 1281TIP3   OH225333   3.920   5.336   2.654 -0.8814  0.3008  0.0891
 1281TIP3    H125334   3.895   5.274   2.585 -2.5497  1.1185 -0.0723
 1281TIP3    H225335   3.863   5.314   2.727  1.8073 -1.5212  1.8684
 1282TIP3   OH225336   4.108   6.132   5.026 -0.0263  0.1095  0.1322
 1282TIP3    H125337   4.055   6.053   5.037  1.5189 -0.7546  2.1315
 1282TIP3    H225338   4.177   6.105   4.965 -0.3414  0.4008 -0.3592
 1283TIP3   OH225339   3.600   3.531   0.469 -0.3411  0.0632 -0.1200
 1283TIP3    H125340   3.687   3.568   0.457 -0.4359  1.1671  2.0701
 1283TIP3    H225341   3.558   3.540   0.383  1.1308  1.0567 -0.7705
 1284TIP3   OH225342   6.027   2.021  15.509 -0.6315 -0.3498  0.5820
 1284TIP3    H125343   6.050   1.960  15.439 -1.5278  1.6579 -1.5734
 1284TIP3    H225344   5.943   1.989  15.543 -0.2751 -1.2285  0.6858
 1285TIP3   OH225345   4.255   4.264   5.307 -0.1091  1.0516 -0.0832
 1285TIP3    H125346   4.205   4.192   5.268  0.3054  1.4289 -1.3602
 1285TIP3    H225347   4.281   4.232   5.394 -1.2369  0.2634 -0.0157
 1286TIP3   OH225348   5.530   2.659  12.949  0.6439 -0.0315  0.1165
 1286TIP3    H125349   5.574   2.600  12.888  1.2327  0.5292 -0.0056
 1286TIP3    H225350   5.441   2.667  12.913  0.9183  0.1182 -0.5470
 1287TIP3   OH225351   3.150   4.142  11.636 -0.1844 -0.0946 -0.2036
 1287TIP3    H125352   3.138   4.097  11.720 -1.1422  0.5596  0.0253
 1287TIP3    H225353   3.201   4.220  11.657 -1.1354  0.5094 -0.0675
 1288TIP3   OH225354   0.678   2.864   5.949  0.2930  0.4331 -0.2297
 1288TIP3    H125355   0.611   2.814   5.996 -1.5514  0.1353 -2.9098
 1288TIP3    H225356   0.644   2.953   5.946  0.1604  0.3660 -1.2583
 1289TIP3   OH225357   0.836   1.543   1.078 -0.1601  0.2118  0.0342
 1289TIP3    H125358   0.920   1.537   1.031  0.1174  2.1746  0.2104
 1289TIP3    H225359   0.770   1.531   1.011  0.2349  2.8216 -0.9012
 1290TIP3   OH225360   5.886   3.684  10.555 -0.3890 -0.3300  0.1607
 1290TIP3    H125361   5.803   3.663  10.512 -0.7790 -1.1960  1.2656
 1290TIP3    H225362   5.943   3.610  10.536  0.5230  0.7377 -1.4671
 1291TIP3   OH225363   3.118   4.704   5.367  0.0734  0.2839 -0.2105
 1291TIP3    H125364   3.037   4.712   5.316 -2.9009  0.0183  3.9770
 1291TIP3    H225365   3.158   4.790   5.361 -1.5241  1.0255 -0.8966
 1292TIP3   OH225366   5.445   3.711   1.848  0.2413 -0.6663 -0.4781
 1292TIP3    H125367   5.470   3.694   1.757 -3.2591 -2.1079 -1.3397
 1292TIP3    H225368   5.400   3.631   1.876 -1.9132  1.0098  1.2432
 1293TIP3   OH225369   4.250   4.294  16.642  0.2302  0.8625  0.8902
 1293TIP3    H125370   4.248   4.344  16.561 -0.3545 -0.3167  0.1395
 1293TIP3    H225371   4.329   4.241  16.636 -0.7469 -0.6043  0.1730
 1294TIP3   OH225372   2.167   5.641   1.933 -0.1937  0.5058  0.1791
 1294TIP3    H125373   2.253   5.606   1.909  0.1383  0.3647  1.4957
 1294TIP3    H225374   2.161   5.724   1.887  1.0534  0.9471  0.7787
 1295TIP3   OH225375   0.840   4.167  14.869  0.1119 -0.3910 -0.1316
 1295TIP3    H125376   0.933   4.157  14.847 -0.0360  0.1229 -1.0438
 1295TIP3    H225377   0.837   4.158  14.965  1.1787  0.1904 -0.0288
 1296TIP3   OH225378   6.353   3.280   0.093  0.3027 -0.3251  0.0494
 1296TIP3    H125379   6.295   3.204   0.091 -0.8165  0.5292 -0.5122
 1296TIP3    H225380   6.341   3.322   0.008  0.5586  0.7450  0.5325
 1297TIP3   OH225381   5.551   4.934   1.352 -0.4255 -0.5627 -0.1256
 1297TIP3    H125382   5.520   4.957   1.265 -0.4953  1.4392  0.3643
 1297TIP3    H225383   5.647   4.937   1.346 -0.4322  1.0840  0.1835
 1298TIP3   OH225384   1.321   5.955  13.512 -0.1314 -0.1830  0.0956
 1298TIP3    H125385   1.338   5.877  13.460 -0.7799 -0.7999  0.7833
 1298TIP3    H225386   1.300   6.023  13.448  0.5316 -0.5479 -0.5088
 1299TIP3   OH225387   0.610   5.054  11.931  0.0937 -0.2071 -0.0494
 1299TIP3    H125388   0.544   4.990  11.907 -0.9266  1.0586 -0.7442
 1299TIP3    H225389   0.563   5.120  11.981  0.7389  0.8629 -0.7927
 1300TIP3   OH225390   2.166   1.496   4.273 -0.1068 -0.2793  0.6838
 1300TIP3    H125391   2.072   1.477   4.272 -0.4803  1.4678 -0.2643
 1300TIP3    H225392   2.195   1.470   4.185  0.0488  0.2742  0.5698
 1301TIP3   OH225393   0.373   3.848   4.762 -0.2398  0.1093  0.3460
 1301TIP3    H125394   0.427   3.916   4.802 -1.5136  0.6020  1.3309
 1301TIP3    H225395   0.405   3.766   4.798  1.5922  0.0975 -1.1741
 1302TIP3   OH225396   0.109   2.609   0.296  0.2034 -0.3012 -0.4620
 1302TIP3    H125397   0.136   2.563   0.217 -0.3166  0.0211 -0.8291
 1302TIP3    H225398   0.139   2.699   0.283  1.2216 -0.5092  0.2543
 1303TIP3   OH225399   0.528   3.889   3.756 -0.3327 -0.6807 -0.2150
 1303TIP3    H125400   0.442   3.913   3.721 -0.9524 -0.2898  1.4904
 1303TIP3    H225401   0.512   3.810   3.807  0.3154 -0.6306  0.0766
 1304TIP3   OH225402   5.712   0.052  16.554 -0.5417 -0.2540  0.3858
 1304TIP3    H125403   5.784   0.093  16.505 -0.5549 -0.1261  0.4748
 1304TIP3    H225404   5.654   0.017  16.486  0.2557 -1.5093  0.3179
 1305TIP3   OH225405   0.778   1.388  16.884 -0.2132 -0.0328  0.0604
 1305TIP3    H125406   0.757   1.314  16.827  2.4465  0.1099 -1.2191
 1305TIP3    H225407   0.799   1.460  16.824 -2.4114  1.7694  1.2695
 1306TIP3   OH225408   4.736   5.671   6.227 -0.2010 -0.2446 -0.3006
 1306TIP3    H125409   4.760   5.658   6.319  0.9336  1.5114 -0.2933
 1306TIP3    H225410   4.643   5.693   6.230 -0.1025  0.1203  0.4789
 1307TIP3   OH225411   5.022   2.964   2.938  0.4796  0.1698  0.6546
 1307TIP3    H125412   4.949   3.012   2.977  0.0862  0.1612 -0.0496
 1307TIP3    H225413   5.099   2.992   2.987  0.5618  2.8726 -0.8102
 1308TIP3   OH225414   2.998   2.115  17.130 -0.9182 -0.1898 -0.1824
 1308TIP3    H125415   3.014   2.059  17.054 -1.0604 -1.0644  0.4217
 1308TIP3    H225416   3.041   2.198  17.108  1.5517 -1.3446 -0.0386
 1309TIP3   OH225417   5.046   1.159  11.616  0.4555  0.1775  0.5771
 1309TIP3    H125418   5.010   1.095  11.678 -0.5506  1.2441  1.1159
 1309TIP3    H225419   5.140   1.141  11.615  0.4504 -0.0642  2.1753
 1310TIP3   OH225420   2.944   2.858  10.331 -0.0762 -1.1938 -0.2827
 1310TIP3    H125421   2.921   2.781  10.382 -1.6509 -1.4754 -1.3410
 1310TIP3    H225422   2.952   2.928  10.395 -2.0932 -1.5125  0.3767
 1311TIP3   OH225423   5.339   0.125   1.788  0.2311  0.2876  1.0973
 1311TIP3    H125424   5.412   0.098   1.844  0.2795 -0.7186  0.5614
 1311TIP3    H225425   5.279   0.050   1.787  0.2045  0.2970 -0.1538
 1312TIP3   OH225426   2.795   1.421  10.912  0.3996  0.3753  0.4708
 1312TIP3    H125427   2.873   1.469  10.883  0.3881  1.8020  2.5666
 1312TIP3    H225428   2.822   1.378  10.994 -0.1078 -1.8642 -0.4683
 1313TIP3   OH225429   3.772   3.655  12.225  0.3752  0.3784 -0.8295
 1313TIP3    H125430   3.803   3.605  12.149  0.9553  0.4011 -0.6122
 1313TIP3    H225431   3.811   3.742  12.214 -1.9415  1.3510 -2.0818
 1314TIP3   OH225432   2.557   4.357   5.663  0.1201  0.0565  0.2300
 1314TIP3    H125433   2.474   4.400   5.681  0.2108 -0.0415  0.9184
 1314TIP3    H225434   2.603   4.358   5.747  0.3001 -1.0047  0.1597
 1315TIP3   OH225435   5.668   6.583  15.475 -0.0068 -0.3398 -0.4959
 1315TIP3    H125436   5.642   6.584  15.567  0.3888  1.6694 -0.3641
 1315TIP3    H225437   5.761   6.607  15.475  0.0498 -0.4896 -1.4195
 1316TIP3   OH225438   3.624   5.314  16.220 -0.3333  0.5823 -0.1418
 1316TIP3    H125439   3.602   5.249  16.287  1.8055  1.3817  1.4546
 1316TIP3    H225440   3.569   5.390  16.241 -1.1032  0.1421 -0.5367
 1317TIP3   OH225441   6.474   3.334  16.840 -0.1029  0.2556 -0.2248
 1317TIP3    H125442   6.509   3.247  16.858 -1.5851 -0.7535 -1.9115
 1317TIP3    H225443   6.411   3.349  16.910 -1.8493 -1.2794 -1.3772
 1318TIP3   OH225444   2.515   1.638   0.939 -0.0460  0.7173  0.6338
 1318TIP3    H125445   2.595   1.679   0.908  1.3014 -2.4101 -0.4455
 1318TIP3    H225446   2.455   1.643   0.865  0.7294 -0.6563 -0.1297
 1319TIP3   OH225447   5.766   4.053  12.352 -0.9002 -0.1722 -0.3178
 1319TIP3    H125448   5.822   4.061  12.275  1.5126 -1.3964  1.1860
 1319TIP3    H225449   5.791   4.126  12.409 -1.3034 -0.3527  0.1051
 1320TIP3   OH225450   1.788   2.084   2.659 -0.1252  0.0601 -0.2540
 1320TIP3    H125451   1.774   2.158   2.718  2.0838  0.4923 -0.2041
 1320TIP3    H225452   1.768   2.006   2.712  1.1599  0.4677  0.8791
 1321TIP3   OH225453   6.190   1.844   5.616  0.2179 -0.4764  0.0595
 1321TIP3    H125454   6.185   1.896   5.536 -2.4981 -1.1885 -0.3404
 1321TIP3    H225455   6.134   1.890   5.678 -1.6503 -2.4067 -0.0739
 1322TIP3   OH225456   2.372   2.961   0.771  0.2642  0.0243  0.0186
 1322TIP3    H125457   2.373   2.936   0.863  1.0428 -0.0569 -0.0067
 1322TIP3    H225458   2.381   3.056   0.771 -0.3973  0.0905  0.0428
 1323TIP3   OH225459   6.036   3.834  11.479  0.4522 -0.1196  0.1592
 1323TIP3    H125460   6.021   3.895  11.408  0.4283  0.2763  0.5017
 1323TIP3    H225461   6.095   3.880  11.539  1.6760 -1.0034 -0.3293
 1324TIP3   OH225462   1.007   3.912  15.878 -0.8042 -0.0185  0.5831
 1324TIP3    H125463   0.990   3.818  15.879 -0.8396 -0.0312  2.3846
 1324TIP3    H225464   1.097   3.921  15.848 -0.7761 -0.6307  0.4782
 1325TIP3   OH225465   4.916   0.892  10.618  0.1476 -0.3032 -0.1289
 1325TIP3    H125466   4.962   0.809  10.633  2.1384  0.9884  1.5352
 1325TIP3    H225467   4.829   0.878  10.657  0.3930 -1.6453  0.0027
 1326TIP3   OH225468   0.417   2.355   2.434  0.0742  0.0491  0.2037
 1326TIP3    H125469   0.422   2.303   2.515 -0.2236 -0.8220 -0.3217
 1326TIP3    H225470   0.508   2.361   2.405 -0.0382 -1.7367 -0.6697
 1327TIP3   OH225471   3.217   5.791  12.614 -0.1859  0.6235 -0.5853
 1327TIP3    H125472   3.253   5.804  12.701  2.4306 -0.5720 -1.3939
 1327TIP3    H225473   3.156   5.718  12.623  1.3687 -0.6601 -0.0177
 1328TIP3   OH225474   1.258   2.487  13.167 -0.4345  0.2591  0.1975
 1328TIP3    H125475   1.336   2.452  13.122 -0.5929 -0.2687  0.3315
 1328TIP3    H225476   1.293   2.533  13.243 -0.1890  0.8310 -0.2515
 1329TIP3   OH225477   2.173   6.252  13.690  0.0568 -0.4250  0.0756
 1329TIP3    H125478   2.154   6.222  13.601 -1.7695 -0.1595  0.3451
 1329TIP3    H225479   2.253   6.303  13.681 -0.0646 -0.4488 -1.4121
 1330TIP3   OH225480   3.223   0.557   3.998 -0.3768 -0.4278  0.0015
 1330TIP3    H125481   3.265   0.472   3.984 -0.1427 -0.4810  0.9269
 1330TIP3    H225482   3.195   0.554   4.090 -2.4124 -0.3959 -0.5593
 1331TIP3   OH225483   1.391   4.028   3.090  0.1289 -0.5234 -0.0075
 1331TIP3    H125484   1.419   4.109   3.133  0.9777 -0.8698  0.1102
 1331TIP3    H225485   1.328   4.056   3.024 -1.4614 -0.0061  1.6549
 1332TIP3   OH225486   1.694   4.104  10.844 -0.0868  0.0132  0.2372
 1332TIP3    H125487   1.686   4.098  10.749 -0.7136  0.9645  0.2133
 1332TIP3    H225488   1.604   4.097  10.876  0.0915  0.0077  0.7476
 1333TIP3   OH225489   4.872   2.566  16.006 -0.7024  0.1527 -0.0747
 1333TIP3    H125490   4.837   2.655  16.003 -0.0294  0.4752  1.2532
 1333TIP3    H225491   4.800   2.513  16.041 -0.9564  0.2401 -0.4550
 1334TIP3   OH225492   2.438   4.179  12.132  0.3161 -0.3818  0.2179
 1334TIP3    H125493   2.356   4.187  12.180  1.4019  1.0063  1.9508
 1334TIP3    H225494   2.469   4.091  12.153 -0.4940 -0.7549 -0.1021
 1335TIP3   OH225495   4.774   6.350  17.157 -0.0584  0.2660 -0.3659
 1335TIP3    H125496   4.848   6.290  17.156  0.6352  1.1055 -0.1968
 1335TIP3    H225497   4.699   6.295  17.135  0.9291 -0.1647 -2.9887
 1336TIP3   OH225498   0.402   1.052   0.085 -0.3942 -0.1572  0.1379
 1336TIP3    H125499   0.480   0.998   0.094 -1.5779 -1.9814 -0.1100
 1336TIP3    H225500   0.344   1.023   0.155 -0.7582  1.4342  0.5546
 1337TIP3   OH225501   4.755   2.788  16.295  0.1108  0.4795  0.0291
 1337TIP3    H125502   4.832   2.823  16.339  0.9955 -0.6706 -0.5654
 1337TIP3    H225503   4.743   2.701  16.332 -1.0334  0.7253  0.2634
 1338TIP3   OH225504   1.345   5.549   4.085 -0.2327  0.0599 -0.1298
 1338TIP3    H125505   1.344   5.606   4.162  0.8496  1.0056 -0.7902
 1338TIP3    H225506   1.424   5.573   4.038 -1.0386 -0.2633 -1.7277
 1339TIP3   OH225507   2.690   6.432   3.816 -0.3518  0.2645  0.1803
 1339TIP3    H125508   2.657   6.372   3.883 -1.3669  1.2021  0.5516
 1339TIP3    H225509   2.622   6.432   3.749  0.4922 -0.3865 -0.7199
 1340TIP3   OH225510   5.370   4.557   4.798  0.2401  0.8821  0.8116
 1340TIP3    H125511   5.355   4.494   4.869 -0.9132 -2.9512 -2.4210
 1340TIP3    H225512   5.463   4.548   4.777 -0.1502 -0.8203 -0.3937
 1341TIP3   OH225513   1.701   1.530  16.450 -0.0913  0.0093 -0.0316
 1341TIP3    H125514   1.704   1.492  16.538  0.5690 -0.7976 -0.3903
 1341TIP3    H225515   1.737   1.462  16.393 -2.0076 -0.1240 -1.1691
 1342TIP3   OH225516   5.303   2.280  16.074  0.0971 -0.0032 -0.0814
 1342TIP3    H125517   5.209   2.287  16.089  0.2312  1.3593  0.2581
 1342TIP3    H225518   5.334   2.371  16.071  1.6989 -0.4033  1.8348
 1343TIP3   OH225519   0.315   5.175   2.536  0.2796  0.2140  0.3842
 1343TIP3    H125520   0.407   5.171   2.564 -0.2377 -2.1666  2.0616
 1343TIP3    H225521   0.270   5.113   2.593 -2.0178 -0.3183 -1.8295
 1344TIP3   OH225522   4.532   6.304  14.810 -0.3377  0.5799 -0.0216
 1344TIP3    H125523   4.448   6.307  14.763 -0.5330  2.0429  0.3730
 1344TIP3    H225524   4.585   6.371  14.768 -0.0266  0.9476  0.9344
 1345TIP3   OH225525   1.629   2.075   2.070  0.0650 -0.2479  0.0911
 1345TIP3    H125526   1.664   2.133   2.139  0.5688 -0.4295 -0.0064
 1345TIP3    H225527   1.603   2.134   2.000 -0.7149 -0.0364  0.5426
 1346TIP3   OH225528   2.445   1.149  11.413 -0.2909 -0.0264 -0.4223
 1346TIP3    H125529   2.529   1.117  11.447 -0.1705 -0.1763 -0.8547
 1346TIP3    H225530   2.443   1.241  11.437 -1.2351 -0.5999  2.0404
 1347TIP3   OH225531   6.654   0.105  14.062  0.3024 -0.4660  0.0742
 1347TIP3    H125532   6.698   0.050  13.997  0.6749  0.1109 -0.1772
 1347TIP3    H225533   6.623   0.044  14.128  0.3661 -1.0143 -0.3928
 1348TIP3   OH225534   3.546   5.817  10.587 -0.0459  0.1047 -0.5177
 1348TIP3    H125535   3.613   5.842  10.651  0.1455  1.0332 -1.0606
 1348TIP3    H225536   3.476   5.778  10.640  0.2501  0.5523  0.2260
 1349TIP3   OH225537   1.425   0.073  14.218  0.4563 -0.4088 -0.1978
 1349TIP3    H125538   1.436   0.077  14.313  3.4414 -2.2141 -0.3458
 1349TIP3    H225539   1.354   0.011  14.205  0.6203 -0.8337  0.8422
 1350TIP3   OH225540   5.739   5.119   1.660 -0.3312 -0.4292  0.6055
 1350TIP3    H125541   5.704   5.148   1.744 -0.8256  1.0757 -0.0729
 1350TIP3    H225542   5.667   5.072   1.619 -0.5259 -0.0374  0.4941
 1351TIP3   OH225543   6.751   1.901   4.295  0.9252 -0.1208  0.3105
 1351TIP3    H125544   6.843   1.927   4.300  1.4246 -1.7425  0.0931
 1351TIP3    H225545   6.753   1.812   4.262 -0.7409 -0.1912  0.3211
 1352TIP3   OH225546   1.715   4.115  14.694  0.1186  0.1381  0.8199
 1352TIP3    H125547   1.791   4.060  14.676 -0.9242 -0.6303 -1.5408
 1352TIP3    H225548   1.722   4.134  14.788  2.7652 -0.5410  0.8533
 1353TIP3   OH225549   0.282   6.272   2.627 -0.0613  0.0411  0.0430
 1353TIP3    H125550   0.297   6.353   2.578 -1.3516 -1.0932 -2.4069
 1353TIP3    H225551   0.351   6.213   2.597 -0.5649 -0.5129 -0.0345
 1354TIP3   OH225552   5.325   5.640  16.139  0.4002 -0.7263  0.3718
 1354TIP3    H125553   5.403   5.693  16.154  0.6848 -1.2426  0.7221
 1354TIP3    H225554   5.261   5.673  16.202  0.1973 -0.0477 -0.1681
 1355TIP3   OH225555   6.819   2.054  11.038 -0.4963 -0.4152 -0.1540
 1355TIP3    H125556   6.831   2.052  10.943  1.3084  0.4087  0.0138
 1355TIP3    H225557   6.863   2.134  11.066 -1.2012 -0.5214  1.3703
 1356TIP3   OH225558   0.387   0.314  10.677  0.0330  0.4813  0.2199
 1356TIP3    H125559   0.381   0.300  10.771  1.3530 -2.1453 -0.0037
 1356TIP3    H225560   0.296   0.316  10.647 -0.4154  1.8219  1.5487
 1357TIP3   OH225561   1.455   3.014  10.864 -0.1290 -0.1866 -0.0656
 1357TIP3    H125562   1.383   2.951  10.850 -0.8892  0.5202  0.5444
 1357TIP3    H225563   1.416   3.099  10.848  0.6753  0.1899 -0.0570
 1358TIP3   OH225564   2.367   6.480  13.316  0.0602 -0.0718  0.2116
 1358TIP3    H125565   2.376   6.561  13.266 -0.5375  0.4056  0.8458
 1358TIP3    H225566   2.443   6.427  13.291  0.0995  0.4057 -0.7147
 1359TIP3   OH225567   5.113   4.133   5.812  0.2505  0.6023 -0.3674
 1359TIP3    H125568   5.068   4.150   5.895  0.5268 -0.8035  0.0971
 1359TIP3    H225569   5.048   4.152   5.745 -0.5885 -0.0570  0.2472
 1360TIP3   OH225570   1.117   2.262   1.151  0.6704 -0.5342  0.8484
 1360TIP3    H125571   1.073   2.344   1.129  0.1333 -0.9159  0.4688
 1360TIP3    H225572   1.210   2.285   1.155  0.5434  0.0566  0.5746
 1361TIP3   OH225573   4.902   5.786  15.675 -0.2683  0.4511 -0.3503
 1361TIP3    H125574   4.834   5.723  15.650  0.8637 -1.5886  1.3319
 1361TIP3    H225575   4.918   5.768  15.767  3.1896  0.1583 -0.8758
 1362TIP3   OH225576   4.867   6.207  12.733 -0.0580  0.0573 -0.2528
 1362TIP3    H125577   4.775   6.223  12.755  0.1732  0.1941  0.6726
 1362TIP3    H225578   4.908   6.183  12.817  0.9534  0.9832 -0.4529
 1363TIP3   OH225579   6.261   5.304  13.306  0.0150 -0.6643 -0.2066
 1363TIP3    H125580   6.351   5.294  13.275 -0.1832  0.4310 -1.2290
 1363TIP3    H225581   6.267   5.297  13.401  2.0745  4.2468  0.3667
 1364TIP3   OH225582   6.721   4.017  14.301 -0.4700  0.1561 -0.0027
 1364TIP3    H125583   6.690   4.078  14.234 -0.5618 -1.2338 -1.2711
 1364TIP3    H225584   6.702   4.061  14.384 -1.6142  1.3375 -0.8544
 1365TIP3   OH225585   2.286   5.483  12.170  0.4270 -1.1466 -0.2705
 1365TIP3    H125586   2.213   5.524  12.216  0.4681 -1.5704  0.1885
 1365TIP3    H225587   2.252   5.397  12.143  0.8133 -1.4301  0.1279
 1366TIP3   OH225588   2.493   0.343   4.343 -0.4320  0.1439 -0.3395
 1366TIP3    H125589   2.426   0.282   4.312  0.6191 -0.4128 -1.6218
 1366TIP3    H225590   2.479   0.422   4.291  0.5888 -0.3766 -1.4627
 1367TIP3   OH225591   4.635   5.128  14.945 -0.0274  0.0105 -0.0730
 1367TIP3    H125592   4.609   5.168  14.862  0.1821 -1.5557 -0.9250
 1367TIP3    H225593   4.642   5.035  14.925  1.3429 -0.2243  1.3780
 1368TIP3   OH225594   2.591   4.073  15.697  0.6189  0.6927 -0.8158
 1368TIP3    H125595   2.544   3.994  15.671 -1.4724  2.0439 -1.4071
 1368TIP3    H225596   2.664   4.079  15.635  3.0597 -2.5229  1.3454
 1369TIP3   OH225597   4.310   0.541   5.892 -0.2678  0.0062  1.0454
 1369TIP3    H125598   4.352   0.464   5.853  0.5062  0.1990  1.4860
 1369TIP3    H225599   4.249   0.505   5.956  0.6436 -0.2285  1.7955
 1370TIP3   OH225600   4.620   1.771   2.903  0.1946  0.2133 -0.5687
 1370TIP3    H125601   4.525   1.756   2.911  0.3888 -0.4725  0.8055
 1370TIP3    H225602   4.640   1.837   2.969  0.6883  0.3416 -0.8384
 1371TIP3   OH225603   5.464   1.436  14.117  0.0254 -0.2024  0.1167
 1371TIP3    H125604   5.437   1.418  14.026  0.2074  0.7992 -0.1556
 1371TIP3    H225605   5.475   1.531  14.119  0.2807 -0.2489  1.1284
 1372TIP3   OH225606   1.244   6.283  12.002 -0.2892  0.0023  0.1408
 1372TIP3    H125607   1.303   6.335  11.948 -0.0634  0.2031  0.5756
 1372TIP3    H225608   1.283   6.195  12.003  0.6860  0.4240  1.4314
 1373TIP3   OH225609   5.612   0.913  10.734 -0.5601 -0.1081 -0.2984
 1373TIP3    H125610   5.581   0.980  10.674 -2.3422 -0.5129  0.1296
 1373TIP3    H225611   5.680   0.867  10.685 -1.8539 -0.3326 -1.9597
 1374TIP3   OH225612   3.152   0.281   4.377 -0.3164  0.0812 -0.1687
 1374TIP3    H125613   3.069   0.234   4.370 -0.9140  1.2098 -0.9225
 1374TIP3    H225614   3.219   0.215   4.358 -1.0077 -0.9402  0.8884
 1375TIP3   OH225615   0.368   2.796   1.914  0.4217  0.5606 -0.1016
 1375TIP3    H125616   0.321   2.875   1.889  0.9371  0.2837 -2.1220
 1375TIP3    H225617   0.300   2.728   1.916  0.5483  0.2899 -2.3745
 1376TIP3   OH225618   2.303   5.441   4.867 -0.5075  0.4596 -0.1827
 1376TIP3    H125619   2.251   5.505   4.915 -0.2633  0.3274  0.2671
 1376TIP3    H225620   2.242   5.399   4.807 -0.8386  0.5485  0.0935
 1377TIP3   OH225621   0.701   6.712   4.000  0.4824 -0.5100 -0.0185
 1377TIP3    H125622   0.736   6.732   3.912  0.1548 -0.1608 -0.0724
 1377TIP3    H225623   0.653   6.630   3.989  0.0384 -0.2174 -0.2738
 1378TIP3   OH225624   5.367   6.579  10.930  0.1071 -0.2309  0.1711
 1378TIP3    H125625   5.290   6.553  10.880  0.3545 -0.9158  0.1255
 1378TIP3    H225626   5.425   6.502  10.926  1.1985  0.5845 -0.5989
 1379TIP3   OH225627   5.006   1.815  15.282  0.5011  0.1095 -0.4029
 1379TIP3    H125628   4.944   1.849  15.218 -0.4801 -0.2877  0.3230
 1379TIP3    H225629   4.957   1.749  15.331  1.4638 -0.1419  0.2531
 1380TIP3   OH225630   2.545   0.673   1.006  0.3354 -0.0280 -0.1862
 1380TIP3    H125631   2.522   0.743   0.945  0.3033 -1.4264 -1.8452
 1380TIP3    H225632   2.624   0.705   1.051 -0.0814  1.3449 -0.3823
 1381TIP3   OH225633   1.895   4.810   4.329 -0.3263  0.9090  0.6010
 1381TIP3    H125634   1.853   4.780   4.410 -0.7516  1.2697  0.5189
 1381TIP3    H225635   1.921   4.900   4.347 -2.5778  1.8641 -0.4126
 1382TIP3   OH225636   6.842   1.407  14.412  0.5955 -0.1109  0.7698
 1382TIP3    H125637   6.803   1.423  14.327  0.5955  0.4901  0.8761
 1382TIP3    H225638   6.824   1.315  14.430 -0.6244  0.1081  0.7451
 1383TIP3   OH225639   3.354   1.852   4.489 -0.6523 -1.1681  0.3686
 1383TIP3    H125640   3.333   1.821   4.577  0.8552 -1.3159  0.7024
 1383TIP3    H225641   3.330   1.945   4.490 -0.9413 -1.2462  0.8338
 1384TIP3   OH225642   1.497   4.020  12.996 -0.2695 -0.3519  0.3963
 1384TIP3    H125643   1.441   3.943  12.986 -1.4780  0.6448 -1.0691
 1384TIP3    H225644   1.436   4.094  12.991  1.1066  0.7691 -0.5735
 1385TIP3   OH225645   4.256   1.082   4.549  1.0542  0.0786  0.0185
 1385TIP3    H125646   4.349   1.069   4.530  1.5354  1.5044  1.2210
 1385TIP3    H225647   4.245   1.177   4.553 -0.7517 -0.0281 -1.3920
 1386TIP3   OH225648   4.825   4.212   0.532  0.3697  0.1586  0.6464
 1386TIP3    H125649   4.737   4.187   0.560  1.0075  0.0237  2.6794
 1386TIP3    H225650   4.869   4.130   0.513  1.0272 -0.0553  2.8301
 1387TIP3   OH225651   6.833   1.979  10.506  0.1222 -0.1442  0.3224
 1387TIP3    H125652   6.823   1.889  10.538 -0.0711 -0.8866 -1.7133
 1387TIP3    H225653   6.752   1.997  10.458  0.7958  0.5491 -0.6045
 1388TIP3   OH225654   3.731   4.052  12.991  0.1320  0.2145 -0.1985
 1388TIP3    H125655   3.730   4.048  13.087 -0.1253  0.7094 -0.1771
 1388TIP3    H225656   3.744   4.145  12.971  0.5506  0.0591 -0.6438
 1389TIP3   OH225657   3.760   5.349  12.628  0.1406  0.7385 -0.5726
 1389TIP3    H125658   3.714   5.333  12.710 -0.3119 -1.0279 -1.1307
 1389TIP3    H225659   3.811   5.269  12.613  0.9010  1.3796 -1.5860
 1390TIP3   OH225660   2.922   6.463   1.309  0.2247  0.0183  0.3305
 1390TIP3    H125661   2.834   6.440   1.278  0.3302  0.9780 -0.7243
 1390TIP3    H225662   2.981   6.407   1.259  0.4114  1.7273 -1.5114
 1391TIP3   OH225663   1.971   1.102  15.767 -0.1751  0.3581  0.4836
 1391TIP3    H125664   1.913   1.057  15.707  1.2251 -1.9602  0.7686
 1391TIP3    H225665   1.918   1.118  15.845 -0.8382 -0.3960  0.1963
 1392TIP3   OH225666   5.695   1.376  11.330  0.5312  0.6346 -0.6233
 1392TIP3    H125667   5.718   1.385  11.238  0.3645 -0.0309 -0.7369
 1392TIP3    H225668   5.713   1.462  11.368  1.3073  0.7019 -1.1231
 1393TIP3   OH225669   1.448   3.397   2.795 -1.0809  0.4352 -0.0144
 1393TIP3    H125670   1.441   3.490   2.817 -2.5189  0.2670  0.3455
 1393TIP3    H225671   1.518   3.364   2.851 -2.0767  0.8393  1.5094
 1394TIP3   OH225672   3.365   5.519  11.328  0.3970 -0.0854 -0.6876
 1394TIP3    H125673   3.302   5.469  11.276 -2.6904  1.3134  1.3434
 1394TIP3    H225674   3.372   5.604  11.283  0.9135 -0.2643 -0.9491
 1395TIP3   OH225675   3.745   4.159   0.486  0.2541  0.1768 -0.1859
 1395TIP3    H125676   3.791   4.081   0.516 -0.4099 -0.2773 -0.3300
 1395TIP3    H225677   3.676   4.173   0.550 -0.3220 -0.0120 -0.7488
 1396TIP3   OH225678   1.110   1.238  16.881  0.3306 -0.3523 -0.5476
 1396TIP3    H125679   1.164   1.160  16.865  0.4041 -0.0995 -1.6263
 1396TIP3    H225680   1.046   1.210  16.946  1.3426 -0.8536  0.2600
 1397TIP3   OH225681   5.750   1.929  11.750  0.0800  0.3394  0.2505
 1397TIP3    H125682   5.793   1.861  11.698  0.2104  0.9505 -0.4613
 1397TIP3    H225683   5.662   1.936  11.712 -0.0307  0.3572  0.5098
 1398TIP3   OH225684   4.746   5.289   0.252  0.0482  0.2681 -0.2116
 1398TIP3    H125685   4.714   5.265   0.339 -1.3220  1.9001 -0.2145
 1398TIP3    H225686   4.800   5.367   0.268 -0.5467  0.8200 -0.8589
 1399TIP3   OH225687   5.276   3.671   0.550 -0.3005 -0.1369 -1.1236
 1399TIP3    H125688   5.356   3.669   0.603 -1.3637  0.1280  0.5725
 1399TIP3    H225689   5.240   3.583   0.559 -0.2992 -0.2088 -1.7598
 1400TIP3   OH225690   2.071   4.532  14.345  0.1175  0.1926 -0.3868
 1400TIP3    H125691   2.070   4.569  14.433  0.0042 -0.0093 -0.3031
 1400TIP3    H225692   2.096   4.605  14.289  3.7830 -0.4251  0.1717
 1401TIP3   OH225693   5.811   5.031   0.689  0.2681 -0.5965  0.3109
 1401TIP3    H125694   5.838   5.080   0.611  0.9418 -1.6715 -0.1688
 1401TIP3    H225695   5.863   4.950   0.685 -0.8247 -1.3635  1.0440
 1402TIP3   OH225696   5.802   4.072  15.468 -0.3958 -0.3920 -0.1276
 1402TIP3    H125697   5.708   4.068  15.452 -0.3119  1.6398 -1.5692
 1402TIP3    H225698   5.817   4.160  15.503  0.6950 -1.5753  2.5884
 1403TIP3   OH225699   6.770   4.445  16.982 -0.0792  0.5693 -0.2811
 1403TIP3    H125700   6.712   4.383  16.936 -2.7943  1.5597  1.5509
 1403TIP3    H225701   6.743   4.439  17.074  1.3017  2.6561  0.3274
 1404TIP3   OH225702   3.885   0.975   4.890 -0.5092  0.4260 -0.3237
 1404TIP3    H125703   3.894   0.883   4.913  0.1345 -0.0590 -2.3350
 1404TIP3    H225704   3.795   0.997   4.912 -0.8422 -0.8483 -0.3432
 1405TIP3   OH225705   6.230   5.863  10.626  0.1605 -0.2797 -0.0026
 1405TIP3    H125706   6.314   5.856  10.670  0.2860  2.1099  0.2647
 1405TIP3    H225707   6.228   5.952  10.591 -2.5707  0.0255  0.7052
 1406TIP3   OH225708   4.932   6.120   0.669 -0.0579 -0.2054 -0.1671
 1406TIP3    H125709   5.014   6.148   0.710  0.7099 -1.4155 -0.8433
 1406TIP3    H225710   4.927   6.171   0.588 -0.8233  1.0644  0.6283
 1407TIP3   OH225711   0.591   3.382   4.050 -0.3657  0.3493  0.2368
 1407TIP3    H125712   0.541   3.301   4.043 -0.5854  0.5219 -0.2445
 1407TIP3    H225713   0.672   3.363   4.002  0.5855 -0.3382  2.0276
 1408TIP3   OH225714   2.380   1.088   6.054 -0.1408  0.0462 -0.3238
 1408TIP3    H125715   2.365   1.135   6.136 -1.2108 -0.3936 -0.2499
 1408TIP3    H225716   2.299   1.098   6.005 -1.4257 -3.7141  0.7065
 1409TIP3   OH225717   5.708   0.290   3.812  0.9177 -0.3547  0.3154
 1409TIP3    H125718   5.673   0.274   3.899 -0.7486 -0.7962 -0.3845
 1409TIP3    H225719   5.755   0.210   3.789  0.0605 -0.8643  0.2504
 1410TIP3   OH225720   0.768   1.833  11.572 -0.4261  0.2084 -1.1861
 1410TIP3    H125721   0.849   1.815  11.621  0.0873  1.7620 -1.4195
 1410TIP3    H225722   0.766   1.766  11.504  1.4792  1.0237 -2.1288
 1411TIP3   OH225723   2.937   6.733   1.183  0.2656  0.0979  0.5682
 1411TIP3    H125724   2.897   6.646   1.187 -2.4142  1.2723  1.9962
 1411TIP3    H225725   3.025   6.721   1.218 -0.1660 -1.9838  1.0465
 1412TIP3   OH225726   3.471   1.009  15.131 -0.8922 -0.4201  0.0236
 1412TIP3    H125727   3.475   1.085  15.073 -0.6042  0.3129  0.9697
 1412TIP3    H225728   3.534   0.947  15.095 -0.2482  0.2844 -0.0948
 1413TIP3   OH225729   0.281   6.794   4.988  0.2953 -0.3385 -0.6176
 1413TIP3    H125730   0.358   6.842   4.958  0.6264 -1.0396 -0.9038
 1413TIP3    H225731   0.272   6.820   5.080  0.4825  0.2504 -0.7618
 1414TIP3   OH225732   4.137   1.201   1.870 -0.2749  0.2232  0.1355
 1414TIP3    H125733   4.047   1.224   1.891 -0.2523 -1.6668  2.7449
 1414TIP3    H225734   4.189   1.246   1.936  0.2182 -2.2524  1.5740
 1415TIP3   OH225735   5.735   4.853  13.955 -0.1445  0.0176  0.1241
 1415TIP3    H125736   5.750   4.893  14.040 -1.5606  2.2570 -0.5857
 1415TIP3    H225737   5.821   4.850  13.913  0.2184  1.1063  0.7527
 1416TIP3   OH225738   4.131   6.651  16.796 -0.1431  0.4157 -0.1926
 1416TIP3    H125739   4.045   6.688  16.777 -0.3063 -0.6085 -1.5496
 1416TIP3    H225740   4.144   6.584  16.729  2.4230  1.6627 -1.0750
 1417TIP3   OH225741   4.754   3.171  12.521 -0.4950  0.4935  0.2271
 1417TIP3    H125742   4.737   3.266  12.523 -2.5010  0.1725  0.2981
 1417TIP3    H225743   4.777   3.150  12.612  0.3290  0.9443  0.1402
 1418TIP3   OH225744   3.030   1.154   1.846  0.2910  0.5793 -0.3360
 1418TIP3    H125745   3.017   1.208   1.769  0.7936  2.7471  1.0117
 1418TIP3    H225746   2.946   1.157   1.892  0.0975 -0.4153 -0.6047
 1419TIP3   OH225747   4.994   2.061  12.880  0.0128  0.2436 -0.1030
 1419TIP3    H125748   4.991   2.115  12.801  3.0350 -0.8845 -1.1421
 1419TIP3    H225749   5.007   2.123  12.951 -0.7683  1.1381 -0.7114
 1420TIP3   OH225750   4.201   0.100   0.231 -0.4743 -0.2048  0.4298
 1420TIP3    H125751   4.154   0.025   0.195 -1.4710  1.1354 -1.1849
 1420TIP3    H225752   4.134   0.165   0.249  0.6299  1.6152 -1.5761
 1421TIP3   OH225753   3.879   5.873   0.180 -0.2872 -0.5684  0.0975
 1421TIP3    H125754   3.813   5.938   0.205  1.0239  1.0773 -0.5324
 1421TIP3    H225755   3.859   5.797   0.234 -2.7526 -0.1790 -0.1444
 1422TIP3   OH225756   6.824   5.596   3.019 -0.0010 -0.0661  0.0912
 1422TIP3    H125757   6.750   5.622   3.074  0.4641 -2.8473  2.2626
 1422TIP3    H225758   6.825   5.501   3.024  1.4731 -0.3607 -3.0584
 1423TIP3   OH225759   2.566   0.706  15.523  0.0803  0.2009 -0.0193
 1423TIP3    H125760   2.628   0.651  15.571 -0.8133  0.5224  1.5850
 1423TIP3    H225761   2.621   0.757  15.464  0.9937 -1.9019 -1.0810
 1424TIP3   OH225762   4.736   1.324  10.437 -0.0862 -0.3465  0.0553
 1424TIP3    H125763   4.660   1.272  10.409 -0.2566  0.6791 -1.4609
 1424TIP3    H225764   4.781   1.267  10.500 -1.5099 -1.4059  0.1780
 1425TIP3   OH225765   5.503   3.528  14.730 -0.1170  0.7220  0.0242
 1425TIP3    H125766   5.441   3.602  14.725 -0.4518  0.3953 -0.9243
 1425TIP3    H225767   5.498   3.487  14.643  0.8162  0.1835  0.2145
 1426TIP3   OH225768   3.653   6.815   1.997 -0.2018 -0.0809 -0.1995
 1426TIP3    H125769   3.631   6.723   1.988  0.3436 -0.2199 -0.1140
 1426TIP3    H225770   3.595   6.859   1.934 -0.1800 -0.5178 -0.5304
 1427TIP3   OH225771   1.684   3.212   2.406  0.4524 -0.6613 -0.0109
 1427TIP3    H125772   1.596   3.216   2.443  0.3513 -0.6154 -0.2561
 1427TIP3    H225773   1.683   3.133   2.352  1.4572 -2.4122  2.3031
 1428TIP3   OH225774   3.336   4.275   4.839 -0.6685 -0.6542  0.4217
 1428TIP3    H125775   3.285   4.334   4.895 -1.1236  0.2065 -0.8566
 1428TIP3    H225776   3.426   4.287   4.868 -0.9772 -0.8894  1.5526
 1429TIP3   OH225777   1.168   5.747  10.734 -0.1890  0.0711 -0.1709
 1429TIP3    H125778   1.223   5.726  10.659  0.4581 -0.4064  0.4230
 1429TIP3    H225779   1.225   5.795  10.793 -0.0139 -1.5138  1.0136
 1430TIP3   OH225780   4.537   6.721  16.484  0.6562  0.0175 -0.4019
 1430TIP3    H125781   4.568   6.783  16.550  0.5162  0.1181 -0.4314
 1430TIP3    H225782   4.444   6.709  16.503  0.6015  0.0946 -0.6187
 1431TIP3   OH225783   1.532   4.592  12.086 -0.5261  0.1343  0.3872
 1431TIP3    H125784   1.586   4.671  12.085 -1.2077  0.6138  0.8558
 1431TIP3    H225785   1.594   4.521  12.068  0.8142  0.3335  3.5873
 1432TIP3   OH225786   3.769   5.849   3.633  0.4896  0.5788  0.1039
 1432TIP3    H125787   3.864   5.852   3.642  0.3335  0.9955  2.1321
 1432TIP3    H225788   3.736   5.886   3.715 -1.4221  0.0728 -0.3826
 1433TIP3   OH225789   5.896   5.814   3.702 -0.1111 -0.2856  0.7164
 1433TIP3    H125790   5.859   5.727   3.691 -1.4821  0.3302  0.3251
 1433TIP3    H225791   5.890   5.831   3.796 -0.6134 -0.2696  0.6791
 1434TIP3   OH225792   4.820   6.732   0.001  0.1086 -0.3950  0.3204
 1434TIP3    H125793   4.725   6.727  -0.013  0.0662 -0.2869  0.5693
 1434TIP3    H225794   4.857   6.683  -0.072 -0.1088  0.1729 -0.1719
 1435TIP3   OH225795   5.180   0.390   0.965 -0.3897 -0.0353 -0.1335
 1435TIP3    H125796   5.110   0.365   0.904 -0.1378 -0.2203 -0.3482
 1435TIP3    H225797   5.172   0.327   1.037  0.3569 -0.8737 -0.7571
 1436TIP3   OH225798   0.753   2.889   4.905 -0.1845 -0.1514 -0.4331
 1436TIP3    H125799   0.705   2.908   4.985 -0.1599  0.1559 -0.4926
 1436TIP3    H225800   0.833   2.845   4.935 -1.2043 -2.1305 -0.4142
 1437TIP3   OH225801   1.381   6.819   1.889 -0.1030 -0.4561 -0.0106
 1437TIP3    H125802   1.456   6.759   1.884  1.0028  0.9408 -0.8037
 1437TIP3    H225803   1.308   6.767   1.855  0.8203 -1.3639 -0.6989
 1438TIP3   OH225804   4.238   3.280   1.140 -0.3373 -0.5452 -0.0242
 1438TIP3    H125805   4.230   3.370   1.173 -0.1356 -0.6005  0.1783
 1438TIP3    H225806   4.321   3.278   1.092 -1.2548 -0.1079 -1.6998
 1439TIP3   OH225807   2.906   5.297  15.291  0.1770  0.1195  0.2568
 1439TIP3    H125808   2.875   5.384  15.314 -0.9599  0.5365 -2.4877
 1439TIP3    H225809   2.975   5.311  15.226 -0.2675 -0.9937 -0.4979
 1440TIP3   OH225810   3.815   0.791   1.872 -0.2405  0.2206  0.1845
 1440TIP3    H125811   3.726   0.806   1.906 -0.4696 -1.4367  0.3786
 1440TIP3    H225812   3.871   0.841   1.930 -0.8987 -0.1744  1.1916
 1441TIP3   OH225813   0.964   0.365   2.714  0.1220 -0.4725 -0.1963
 1441TIP3    H125814   0.922   0.403   2.791  1.2736 -0.4487  0.4476
 1441TIP3    H225815   0.943   0.272   2.719 -0.8752 -0.2833 -0.5757
 1442TIP3   OH225816   3.647   2.487  12.848  0.2515  0.6416 -0.0592
 1442TIP3    H125817   3.736   2.484  12.885  0.5022 -0.1942 -0.6945
 1442TIP3    H225818   3.643   2.572  12.803  0.4413  1.0373  0.6547
 1443TIP3   OH225819   0.474   0.645   5.758  0.1546  0.6095  0.5985
 1443TIP3    H125820   0.552   0.611   5.801  2.1487  1.5317 -2.0075
 1443TIP3    H225821   0.474   0.739   5.778  1.2417  1.0984 -1.3789
 1444TIP3   OH225822   4.891   6.741  14.042 -0.1682  0.0412  0.8321
 1444TIP3    H125823   4.875   6.702  13.956  0.8898  1.6647 -0.1555
 1444TIP3    H225824   4.986   6.738  14.053 -0.1062  1.7114  0.9951
 1445TIP3   OH225825   1.989   1.126  16.451 -0.1817 -0.0459 -0.1521
 1445TIP3    H125826   1.977   1.070  16.528  0.6333 -0.0962 -0.0572
 1445TIP3    H225827   1.936   1.085  16.383  1.1483 -1.4689 -0.3522
 1446TIP3   OH225828   1.460   4.553   2.252 -0.7898  0.0845  0.2223
 1446TIP3    H125829   1.545   4.598   2.258  0.5452 -1.5604 -3.5467
 1446TIP3    H225830   1.396   4.623   2.264  1.1277  2.0104 -0.0328
 1447TIP3   OH225831   1.292   6.024   4.101  0.4975 -0.1468 -0.1630
 1447TIP3    H125832   1.358   6.092   4.114  1.6648 -1.1623 -0.5977
 1447TIP3    H225833   1.339   5.942   4.111 -1.5201 -1.0911  3.9789
 1448TIP3   OH225834   3.323   6.219   3.004 -0.2941 -0.1492  0.3916
 1448TIP3    H125835   3.365   6.295   2.965  1.7974 -1.0063  0.8355
 1448TIP3    H225836   3.237   6.214   2.961  0.4933  1.0046 -1.4492
 1449TIP3   OH225837   5.143   4.671   3.538  0.5282 -0.3658 -0.1929
 1449TIP3    H125838   5.201   4.708   3.604  1.3759  1.0773 -1.6562
 1449TIP3    H225839   5.177   4.583   3.522  1.0559 -0.2756  0.4132
 1450TIP3   OH225840   0.472   1.985   1.259 -0.1459 -0.3367  0.1464
 1450TIP3    H125841   0.387   1.943   1.245 -0.0975 -0.5336  0.4275
 1450TIP3    H225842   0.533   1.911   1.271  0.0644 -0.1970 -0.0668
 1451TIP3   OH225843   4.020   4.810  11.932  0.0039 -0.5660 -0.8515
 1451TIP3    H125844   3.968   4.755  11.990 -1.0532 -0.2585 -1.4710
 1451TIP3    H225845   4.074   4.748  11.882 -0.2076 -0.9345 -0.6268
 1452TIP3   OH225846   0.926   6.542  16.237  0.6079 -0.3620  0.7744
 1452TIP3    H125847   1.016   6.559  16.264  0.4540 -0.4094  1.3384
 1452TIP3    H225848   0.933   6.483  16.162  1.0405 -0.4364  0.8766
 1453TIP3   OH225849   0.141   1.736  13.229 -0.0049 -0.4327 -0.2989
 1453TIP3    H125850   0.096   1.820  13.224  0.5193 -0.2047 -1.5486
 1453TIP3    H225851   0.216   1.752  13.286  0.6628  0.2495 -1.3242
 1454TIP3   OH225852   4.705   3.221   4.258 -0.4013 -0.0561  0.0221
 1454TIP3    H125853   4.668   3.133   4.247 -0.8436  0.3664 -2.4560
 1454TIP3    H225854   4.629   3.278   4.270 -0.2198  0.1660  0.1229
 1455TIP3   OH225855   3.953   6.170  13.122 -0.1772 -0.0496 -0.4570
 1455TIP3    H125856   3.934   6.209  13.208 -0.1608 -2.2016  0.5878
 1455TIP3    H225857   3.875   6.188  13.070 -1.2862 -0.8930  0.8406
 1456TIP3   OH225858   1.046   4.865  12.816 -0.4432  0.4091 -0.6210
 1456TIP3    H125859   1.095   4.932  12.768 -1.9021  0.8646 -1.5494
 1456TIP3    H225860   0.969   4.912  12.851 -2.2249 -0.9589 -2.4459
 1457TIP3   OH225861   3.495   2.957   1.010 -0.1059  0.2361 -0.0971
 1457TIP3    H125862   3.575   2.966   1.063 -0.1577 -0.7290  0.1583
 1457TIP3    H225863   3.434   3.020   1.049  0.1137  0.0781  0.5118
 1458TIP3   OH225864   1.978   1.765  16.603  0.3603 -0.5608  0.4057
 1458TIP3    H125865   2.048   1.798  16.661 -1.4147  2.5176  1.0112
 1458TIP3    H225866   1.909   1.738  16.663 -0.8157  1.0290 -0.1656
 1459TIP3   OH225867   6.315   1.793   0.577  0.5715 -0.5652  0.5703
 1459TIP3    H125868   6.247   1.843   0.622 -2.3608 -4.5316  1.1264
 1459TIP3    H225869   6.304   1.814   0.485 -0.4264 -0.0385  0.7959
 1460TIP3   OH225870   0.284   0.686   6.568  0.0799 -0.3155 -0.2736
 1460TIP3    H125871   0.335   0.738   6.505  0.8970 -0.0865  0.5493
 1460TIP3    H225872   0.310   0.596   6.550 -0.9618 -0.4210 -1.3698
 1461TIP3   OH225873   2.716   2.122  12.588  0.0847 -0.2564  0.2998
 1461TIP3    H125874   2.660   2.170  12.649 -0.3375  0.2576 -0.4754
 1461TIP3    H225875   2.655   2.069  12.535  0.3371  0.1253 -0.3904
 1462TIP3   OH225876   3.073   3.625   2.366  0.1826  0.3581  0.8613
 1462TIP3    H125877   3.059   3.719   2.353  0.5287  0.5309  1.6322
 1462TIP3    H225878   3.053   3.585   2.282  1.8847  1.3174 -0.0522
 1463TIP3   OH225879   4.451   2.222  16.726 -0.0415 -0.1871 -0.3851
 1463TIP3    H125880   4.524   2.177  16.770  0.7114  1.7167  0.4372
 1463TIP3    H225881   4.462   2.200  16.633  0.5870 -1.2486 -0.0811
 1464TIP3   OH225882   3.220   0.867  12.112  0.1054  0.1582 -0.2490
 1464TIP3    H125883   3.216   0.771  12.104  1.5249  0.1360 -1.1139
 1464TIP3    H225884   3.235   0.898  12.023  1.9561  1.0066  0.2963
 1465TIP3   OH225885   6.711   5.015  15.192 -0.2522  0.5196 -0.1140
 1465TIP3    H125886   6.635   5.021  15.134 -0.7587  1.1628  0.5962
 1465TIP3    H225887   6.674   4.998  15.279  0.2355  2.8035  0.6076
 1466TIP3   OH225888   0.596   5.528  13.245  0.6040  0.7372 -0.0361
 1466TIP3    H125889   0.570   5.618  13.227 -2.3960 -0.3342 -1.5230
 1466TIP3    H225890   0.567   5.512  13.335 -0.6562  0.6807 -0.4430
 1467TIP3   OH225891   4.758   2.634   3.974 -0.4837 -0.4293 -0.3357
 1467TIP3    H125892   4.776   2.727   3.956  0.3271 -0.6573 -0.7711
 1467TIP3    H225893   4.821   2.610   4.042 -1.9573 -0.1897  1.1521
 1468TIP3   OH225894   1.063   2.645  13.608 -0.2755 -0.0414  0.5822
 1468TIP3    H125895   1.077   2.737  13.585  0.2179 -0.1804  0.3216
 1468TIP3    H225896   1.003   2.648  13.683 -0.6017  0.4728  0.3072
 1469TIP3   OH225897   3.319   4.350   1.270  0.2705  0.4761 -1.0415
 1469TIP3    H125898   3.285   4.306   1.192 -0.9932 -0.9309  0.2236
 1469TIP3    H225899   3.324   4.280   1.336  1.0805  1.6672  0.2106
 1470TIP3   OH225900   4.338   4.407   5.690 -0.4051  0.5795 -0.1263
 1470TIP3    H125901   4.270   4.414   5.623  0.2216  1.2738 -0.7100
 1470TIP3    H225902   4.408   4.358   5.647 -0.5824 -0.2458  0.5134
 1471TIP3   OH225903   4.045   3.203  13.013 -0.2569  0.8349  0.3760
 1471TIP3    H125904   3.970   3.160  13.054 -0.2318 -0.2546 -0.6282
 1471TIP3    H225905   4.016   3.293  12.997 -0.8731  0.7846  1.1854
 1472TIP3   OH225906   4.543   6.558   6.006 -0.5984  0.2629  0.3533
 1472TIP3    H125907   4.617   6.497   6.009 -1.4231 -0.8567 -0.9398
 1472TIP3    H225908   4.496   6.543   6.088  0.9489  1.5087  1.5354
 1473TIP3   OH225909   0.783   5.783   2.089  0.0313 -0.0129 -0.1518
 1473TIP3    H125910   0.809   5.693   2.065  1.3897  0.2912  0.0872
 1473TIP3    H225911   0.769   5.827   2.005  2.4760  0.3934 -0.4366
 1474TIP3   OH225912   2.182   5.217   5.702  0.3779  0.1927  0.0087
 1474TIP3    H125913   2.193   5.125   5.678  1.5555  0.0212  1.0513
 1474TIP3    H225914   2.159   5.215   5.795 -1.4421  0.9108 -0.3854
 1475TIP3   OH225915   2.731   3.434   2.646 -0.2669 -0.2470  0.2166
 1475TIP3    H125916   2.744   3.417   2.553 -1.4912 -0.2042  0.0232
 1475TIP3    H225917   2.688   3.520   2.649  0.6063  0.1888  0.8817
 1476TIP3   OH225918   3.894   0.662   4.550  0.9698 -0.2784 -0.3184
 1476TIP3    H125919   3.961   0.726   4.574 -0.5101  1.7088 -1.1852
 1476TIP3    H225920   3.868   0.621   4.633  2.7010 -0.5685  0.1145
 1477TIP3   OH225921   1.891   0.557  15.684  0.1091  0.1126 -0.3199
 1477TIP3    H125922   1.919   0.642  15.650 -1.5112  0.7262 -0.2128
 1477TIP3    H225923   1.863   0.576  15.774  1.6139 -0.9464  0.4167
 1478TIP3   OH225924   4.981   4.454   3.020 -0.3911 -0.2897 -0.7935
 1478TIP3    H125925   4.932   4.404   3.086  2.2314 -3.7211 -1.1575
 1478TIP3    H225926   5.042   4.507   3.071 -0.0262 -1.0888 -0.3692
 1479TIP3   OH225927   4.250   0.795  12.373  0.7998  0.6366 -0.1924
 1479TIP3    H125928   4.282   0.861  12.435 -2.8450  1.7157  0.7528
 1479TIP3    H225929   4.247   0.840  12.289 -0.9924  1.5234  0.3120
 1480TIP3   OH225930   2.825   4.642  17.074 -0.2878 -0.1017 -0.1297
 1480TIP3    H125931   2.802   4.610  17.161 -2.2693  0.8509 -0.2236
 1480TIP3    H225932   2.769   4.592  17.014  1.1954 -0.8872 -0.9055
 1481TIP3   OH225933   3.370   2.024  15.242 -0.2357  0.0035  0.4398
 1481TIP3    H125934   3.441   2.054  15.299 -0.2196 -0.1834  0.5175
 1481TIP3    H225935   3.333   2.105  15.206  0.2778  0.0889  0.0851
 1482TIP3   OH225936   3.597   6.712   4.689  0.2453 -0.1407  0.1624
 1482TIP3    H125937   3.616   6.697   4.782 -0.5966 -0.6595  0.2587
 1482TIP3    H225938   3.527   6.777   4.689  2.1986  2.0754 -0.2040
 1483TIP3   OH225939   0.361   4.974  15.294  0.1199 -0.3054 -0.5963
 1483TIP3    H125940   0.427   5.040  15.314 -1.2029  1.2117 -1.0413
 1483TIP3    H225941   0.352   4.923  15.375  1.5496 -0.3420 -0.4221
 1484TIP3   OH225942   3.273   4.899   3.827  0.6792  0.1330 -0.6096
 1484TIP3    H125943   3.302   4.989   3.839  1.9232 -0.4609  1.3136
 1484TIP3    H225944   3.351   4.853   3.795  0.7065 -0.6404  0.4895
 1485TIP3   OH225945   3.803   0.103   3.224 -0.0913  0.2144 -0.5973
 1485TIP3    H125946   3.802   0.035   3.157 -1.1469 -1.6964  1.2173
 1485TIP3    H225947   3.838   0.059   3.302 -1.0658  1.6590  0.7213
 1486TIP3   OH225948   4.498   5.994   5.565 -0.2004 -0.1051 -0.2232
 1486TIP3    H125949   4.484   6.083   5.531 -1.2197 -0.2786 -0.2868
 1486TIP3    H225950   4.580   6.000   5.614 -0.1308  0.8140 -0.4292
 1487TIP3   OH225951   2.177   2.408  11.828  0.4635 -0.3674  0.0335
 1487TIP3    H125952   2.197   2.445  11.914 -0.6955 -0.6034  0.4065
 1487TIP3    H225953   2.258   2.364  11.802  0.7420 -0.4991  1.0995
 1488TIP3   OH225954   2.524   4.925  15.695  0.2877 -1.2431  0.2140
 1488TIP3    H125955   2.432   4.902  15.683  0.7049 -2.1010 -1.8836
 1488TIP3    H225956   2.553   4.953  15.608  0.7587  4.1437  1.7187
 1489TIP3   OH225957   4.122   1.093   2.764 -0.7194 -0.3968  0.4006
 1489TIP3    H125958   4.064   1.115   2.838  0.6037  1.7421  0.8829
 1489TIP3    H225959   4.076   1.022   2.718 -1.7021 -1.6619  3.1195
 1490TIP3   OH225960   0.621   6.750  13.676  0.0933  0.4968 -0.2074
 1490TIP3    H125961   0.716   6.753  13.675  0.1767  4.8468 -2.3003
 1490TIP3    H225962   0.597   6.767  13.767  1.2714 -0.0601  0.2242
 1491TIP3   OH225963   2.035   3.190  11.583 -0.1266 -0.7875  0.0704
 1491TIP3    H125964   2.108   3.229  11.535 -0.8058 -0.6411 -0.8842
 1491TIP3    H225965   1.957   3.214  11.532 -0.8096 -1.2344  0.8677
 1492TIP3   OH225966   0.661   4.138   4.238 -0.4117  0.2229 -0.0865
 1492TIP3    H125967   0.636   4.053   4.202  1.9455 -0.3673 -0.4894
 1492TIP3    H225968   0.654   4.198   4.163  3.7602 -0.8590 -1.6297
 1493TIP3   OH225969   1.127   2.383  14.837  0.0897  0.6476 -0.5540
 1493TIP3    H125970   1.191   2.344  14.778  0.2994  0.9216 -0.5093
 1493TIP3    H225971   1.166   2.467  14.863  0.2883  0.2400  0.4802
 1494TIP3   OH225972   6.384   4.514   1.368  0.3788 -0.5191 -0.3254
 1494TIP3    H125973   6.376   4.420   1.354 -1.1912 -0.2598 -1.4599
 1494TIP3    H225974   6.343   4.531   1.452 -0.8202 -0.6698 -0.8642
 1495TIP3   OH225975   6.280   2.472   1.313 -0.2240  0.6069 -0.4888
 1495TIP3    H125976   6.200   2.517   1.340 -0.7021  0.4417 -1.5594
 1495TIP3    H225977   6.258   2.435   1.228  0.3956 -1.0159  0.0189
 1496TIP3   OH225978   3.091   6.283   4.938  0.2185 -0.4649  0.1063
 1496TIP3    H125979   3.122   6.289   5.028  2.6720  0.0456 -0.7213
 1496TIP3    H225980   3.120   6.364   4.896 -0.4387 -0.9093 -1.2753
 1497TIP3   OH225981   6.686   0.436   3.783 -0.0360 -0.0997 -0.6113
 1497TIP3    H125982   6.631   0.514   3.782  0.6563  0.5083  1.8247
 1497TIP3    H225983   6.772   0.467   3.754 -0.0869 -0.2581 -0.9335
 1498TIP3   OH225984   6.782   5.264  14.986  0.3570 -0.0776 -0.2783
 1498TIP3    H125985   6.862   5.233  14.943  0.2057  0.5769 -1.0644
 1498TIP3    H225986   6.814   5.323  15.054  0.5602 -0.0944 -0.3559
 1499TIP3   OH225987   6.260   3.494   5.701 -0.3541  0.4411  0.5636
 1499TIP3    H125988   6.178   3.451   5.725  1.0109 -0.9414  3.3587
 1499TIP3    H225989   6.302   3.433   5.640  0.0309 -0.6206  1.8160
 1500TIP3   OH225990   0.555   3.378   1.431  0.0647  0.5852  0.0151
 1500TIP3    H125991   0.504   3.297   1.442  0.2358  0.2694 -1.3271
 1500TIP3    H225992   0.645   3.348   1.422  0.5198  1.1407  2.2708
 1501TIP3   OH225993   2.695   2.483   3.430  0.3420  0.2712 -0.0122
 1501TIP3    H125994   2.641   2.514   3.357 -0.4617 -1.0673 -0.0102
 1501TIP3    H225995   2.756   2.421   3.391 -0.7315 -1.1975  0.5666
 1502TIP3   OH225996   3.005   0.047  12.801  0.3036  0.1773 -0.3291
 1502TIP3    H125997   3.097   0.055  12.826  0.7419  4.5883 -2.3779
 1502TIP3    H225998   2.983  -0.044  12.822  4.9696 -1.0638  0.5415
 1503TIP3   OH225999   1.442   5.081  13.603 -0.0095  0.2454 -0.1425
 1503TIP3    H126000   1.501   5.097  13.530  2.3628  1.2658  1.8591
 1503TIP3    H226001   1.395   5.164  13.614  0.1128  0.3118 -0.1144
 1504TIP3   OH226002   3.148   6.696  11.625  0.3615  0.7048 -0.5625
 1504TIP3    H126003   3.069   6.666  11.578  0.1245  0.0662  0.2194
 1504TIP3    H226004   3.218   6.638  11.593  0.2075  0.2931 -0.1642
 1505TIP3   OH226005   4.369   6.810   5.589 -0.0879  0.1281  0.5881
 1505TIP3    H126006   4.322   6.877   5.540 -0.8001  0.5496  1.8173
 1505TIP3    H226007   4.431   6.773   5.526 -1.0093  0.6100 -0.6297
 1506TIP3   OH226008   3.652   5.496   5.743  0.7854  0.1826 -0.2178
 1506TIP3    H126009   3.674   5.585   5.714 -0.0458  1.5754  2.9521
 1506TIP3    H226010   3.732   5.465   5.785  0.0049  1.0416  2.0341
 1507TIP3   OH226011   4.204   5.457  11.198 -0.4155  0.0482 -0.7231
 1507TIP3    H126012   4.172   5.492  11.115  1.1874  1.5062 -0.7820
 1507TIP3    H226013   4.147   5.497  11.264 -0.2390  0.7292 -0.9765
 1508TIP3   OH226014   4.948   1.193   5.398  0.5902  0.1559  0.3937
 1508TIP3    H126015   4.904   1.250   5.335 -1.0897 -1.3888  0.0899
 1508TIP3    H226016   4.927   1.104   5.369  0.6687 -0.6039  2.4959
 1509TIP3   OH226017   1.513   0.220   2.358  0.1343 -0.7500  0.1701
 1509TIP3    H126018   1.460   0.195   2.283 -0.0278 -0.5263  0.2078
 1509TIP3    H226019   1.459   0.283   2.406  0.7024  0.0032 -0.1535
 1510TIP3   OH226020   1.224   2.189  16.618  0.6763 -0.1176  0.3223
 1510TIP3    H126021   1.175   2.137  16.555  1.9830 -0.6534 -0.2795
 1510TIP3    H226022   1.236   2.274  16.575 -1.9220  0.9804  1.5169
 1511TIP3   OH226023   2.663   1.651   4.475 -0.0314  0.0084  0.5867
 1511TIP3    H126024   2.644   1.567   4.519 -0.2619 -0.3797 -0.2320
 1511TIP3    H226025   2.577   1.693   4.469 -0.4983 -1.1347 -1.8754
 1512TIP3   OH226026   4.959   3.445   4.492 -0.6704  0.1604  0.3964
 1512TIP3    H126027   4.935   3.353   4.498  1.8892 -0.5974  0.0760
 1512TIP3    H226028   4.985   3.458   4.401 -0.9156  1.2081  0.4526
 1513TIP3   OH226029   4.969   1.455   2.360  0.1001  0.0129  0.3368
 1513TIP3    H126030   4.986   1.443   2.266 -1.9148  0.9584 -0.1898
 1513TIP3    H226031   5.004   1.541   2.380  0.6397 -0.2386  0.5094
 1514TIP3   OH226032   4.967   6.467  14.037 -0.1163  0.2234  0.0817
 1514TIP3    H126033   5.058   6.446  14.015 -0.0964 -0.5889  0.9312
 1514TIP3    H226034   4.924   6.475  13.952  0.2326 -1.7131 -0.3302
 1515TIP3   OH226035   5.530   0.207   5.956 -0.0688  0.3463 -0.0724
 1515TIP3    H126036   5.605   0.215   5.897  0.2470 -0.2276  0.2462
 1515TIP3    H226037   5.493   0.120   5.938 -0.3291  0.4059  0.1539
 1516TIP3   OH226038   5.132   0.985   2.760 -0.4133 -0.0285 -0.4314
 1516TIP3    H126039   5.160   0.901   2.798  0.7662  0.1853 -0.7791
 1516TIP3    H226040   5.146   1.049   2.829 -1.4095 -0.1211 -0.1323
 1517TIP3   OH226041   4.501   4.480  10.847  0.4089 -0.0202  0.2632
 1517TIP3    H126042   4.449   4.559  10.830  1.1562  0.5634  0.6164
 1517TIP3    H226043   4.567   4.480  10.778 -0.3732 -1.0660 -0.5209
 1518TIP3   OH226044   5.417   0.041   1.227 -0.3298 -0.0433 -0.1520
 1518TIP3    H126045   5.435   0.047   1.133 -2.2040  0.6975 -0.5083
 1518TIP3    H226046   5.358  -0.033   1.236  1.9621 -1.8963  0.8773
 1519TIP3   OH226047   5.049   6.800  12.859  0.4687  0.2946  0.3377
 1519TIP3    H126048   5.002   6.770  12.781  0.7954  0.1128  0.2062
 1519TIP3    H226049   5.125   6.847  12.825  1.5112 -1.1880  0.5206
 1520TIP3   OH226050   5.507   3.268  10.902 -0.3075  0.2445  0.4079
 1520TIP3    H126051   5.571   3.271  10.831  1.1081 -1.0430  1.5501
 1520TIP3    H226052   5.497   3.359  10.929  0.1141  0.6018 -0.5760
 1521TIP3   OH226053   3.139   3.209   3.944 -0.6529 -0.5220  0.2206
 1521TIP3    H126054   3.208   3.233   4.005  0.5826 -0.7135 -1.0448
 1521TIP3    H226055   3.134   3.113   3.951  1.6135 -0.9286 -2.0274
 1522TIP3   OH226056   5.944   2.573  15.907  0.6661 -0.0652  0.4624
 1522TIP3    H126057   6.032   2.562  15.941  0.6499  0.1456  0.5727
 1522TIP3    H226058   5.939   2.513  15.832  1.6437  1.5297 -0.9455
 1523TIP3   OH226059   0.750   0.698   3.065  0.3714  0.0959 -0.7087
 1523TIP3    H126060   0.831   0.734   3.102 -0.5256  0.6879  0.7944
 1523TIP3    H226061   0.765   0.604   3.060  1.2725  0.2372 -0.7328
 1524TIP3   OH226062   0.317   3.604  12.084 -0.7043  0.2519 -0.0048
 1524TIP3    H126063   0.357   3.554  12.155 -1.7930  1.8740  1.8310
 1524TIP3    H226064   0.229   3.567  12.075 -0.7146  0.3288 -0.2250
 1525TIP3   OH226065   6.671   1.312   4.572  0.1116  0.4110  0.0343
 1525TIP3    H126066   6.592   1.308   4.518 -1.2410  0.1920  1.9332
 1525TIP3    H226067   6.638   1.314   4.662  2.2860  0.3482  0.8785
 1526TIP3   OH226068   4.081   3.186   2.834  0.3017 -0.2584 -0.4404
 1526TIP3    H126069   4.164   3.158   2.871  0.3015 -0.3967 -0.5431
 1526TIP3    H226070   4.093   3.180   2.739  0.0238 -0.7406 -0.4551
 1527TIP3   OH226071   0.757   1.924   0.668  0.6806 -0.2909 -0.5725
 1527TIP3    H126072   0.698   1.997   0.681  0.7392 -0.1354 -1.1421
 1527TIP3    H226073   0.742   1.897   0.577  0.9196 -0.7518 -0.4802
 1528TIP3   OH226074   4.286   4.054   1.269 -0.0106  0.5507 -0.3192
 1528TIP3    H126075   4.339   3.988   1.314 -1.4657 -1.1350 -0.9580
 1528TIP3    H226076   4.338   4.134   1.273  2.4526 -0.9384 -0.6657
 1529TIP3   OH226077   2.593   2.867   1.250  0.0713 -0.0469  0.2288
 1529TIP3    H126078   2.663   2.882   1.186  1.3413  1.0071  1.7962
 1529TIP3    H226079   2.513   2.872   1.198  1.0369  1.0075 -1.2488
 1530TIP3   OH226080   5.446   4.501   1.698 -0.2933 -0.1604  0.3242
 1530TIP3    H126081   5.503   4.553   1.754  0.1714 -0.9388  0.5913
 1530TIP3    H226082   5.378   4.562   1.670  0.5172  0.7159  0.2147
 1531TIP3   OH226083   1.979   5.514   1.104  0.1197 -0.1254  0.9400
 1531TIP3    H126084   2.057   5.527   1.050  0.0781 -0.7027  0.7361
 1531TIP3    H226085   1.908   5.500   1.042 -0.0237 -0.2680  1.1326
 1532TIP3   OH226086   0.895   6.028   3.523 -0.0796  0.2241  0.7012
 1532TIP3    H126087   0.819   6.019   3.581 -0.7366 -1.4243 -0.3475
 1532TIP3    H226088   0.864   6.088   3.454 -0.9264 -1.4083 -0.4061
 1533TIP3   OH226089   1.196   2.609  11.238 -0.1643  0.0381 -0.6143
 1533TIP3    H126090   1.179   2.532  11.183  1.1528  0.2532 -1.3517
 1533TIP3    H226091   1.218   2.678  11.176 -0.2364  0.7205  0.1119
 1534TIP3   OH226092   1.117   1.030   4.327  0.0832 -0.5908  0.1015
 1534TIP3    H126093   1.114   1.121   4.295  0.7920 -0.9929 -1.2050
 1534TIP3    H226094   1.025   1.004   4.333 -0.2010  0.6163  1.8082
 1535TIP3   OH226095   6.053   5.603  16.494 -0.0883  0.1973  0.1612
 1535TIP3    H126096   6.065   5.509  16.486  0.4229  0.2748 -0.0294
 1535TIP3    H226097   5.961   5.614  16.516  0.1788 -0.4300  1.6931
 1536TIP3   OH226098   0.431   0.327   2.467  0.4284  0.3614  0.3628
 1536TIP3    H126099   0.380   0.407   2.478 -0.4085  0.1624 -1.5842
 1536TIP3    H226100   0.499   0.351   2.403  1.2262 -0.0646  1.0284
 1537TIP3   OH226101   1.809   5.800   0.903  0.4528  0.7994  0.3212
 1537TIP3    H126102   1.735   5.861   0.895  1.0008  1.3566 -0.7606
 1537TIP3    H226103   1.768   5.714   0.909 -0.3098  1.1843  0.9123
 1538TIP3   OH226104   0.271   3.164   2.402 -0.3116 -0.2782  0.8837
 1538TIP3    H126105   0.316   3.178   2.485 -2.0060  0.3726  1.7428
 1538TIP3    H226106   0.324   3.099   2.356  1.2072  0.1128  2.0277
 1539TIP3   OH226107   6.328   5.543  17.084 -0.1592  0.3853  0.2376
 1539TIP3    H126108   6.263   5.576  17.145 -1.3390 -0.8533 -0.3055
 1539TIP3    H226109   6.323   5.448  17.093  0.5832  0.2265 -0.8513
 1540TIP3   OH226110   0.324   0.705  14.375 -0.1335  0.2119 -0.5466
 1540TIP3    H126111   0.345   0.613  14.390 -0.8751  0.1108 -0.0326
 1540TIP3    H226112   0.362   0.726  14.290 -0.9540 -0.8994 -1.2108
 1541TIP3   OH226113   0.755   1.133  15.878  0.4167 -0.1631  0.6973
 1541TIP3    H126114   0.848   1.122  15.894  0.7032  0.6239 -0.3198
 1541TIP3    H226115   0.735   1.073  15.806  0.3677  0.3875  0.2381
 1542TIP3   OH226116   0.168   6.259   0.688  0.7333 -0.2668  0.0260
 1542TIP3    H126117   0.202   6.174   0.659 -0.1113 -1.1457  1.4433
 1542TIP3    H226118   0.219   6.280   0.766 -0.8060 -0.8129  1.2301
 1543TIP3   OH226119   4.859   4.574   5.293  0.1046 -0.1313 -0.0351
 1543TIP3    H126120   4.810   4.584   5.211 -0.4748  0.5394  0.3836
 1543TIP3    H226121   4.835   4.650   5.345  0.1213 -0.7770  0.9411
 1544TIP3   OH226122   2.619   2.780   0.571  0.5957 -0.1157 -0.1366
 1544TIP3    H126123   2.532   2.754   0.542 -0.3753  2.1881  0.5227
 1544TIP3    H226124   2.679   2.736   0.510 -0.9873 -1.8866 -0.4793
 1545TIP3   OH226125   0.559   5.792  12.267  0.8851 -0.1258 -0.3174
 1545TIP3    H126126   0.651   5.775  12.289  0.5845 -1.7865 -0.2296
 1545TIP3    H226127   0.513   5.789  12.351  0.7604  0.9802 -0.3252
 1546TIP3   OH226128   6.170   4.462   1.840  0.8160  0.4551 -0.1201
 1546TIP3    H126129   6.123   4.527   1.789  2.9104  1.3054 -1.0558
 1546TIP3    H226130   6.262   4.479   1.823  1.4786 -2.1020  0.4237
 1547TIP3   OH226131   3.791   4.022  11.199  0.0178  0.1944 -0.3598
 1547TIP3    H126132   3.792   3.954  11.133  1.5796 -0.2854  0.1096
 1547TIP3    H226133   3.746   3.983  11.274  2.4377 -1.0541  0.5586
 1548TIP3   OH226134   1.191   5.987   1.299  0.0703  0.5059  0.2935
 1548TIP3    H126135   1.273   5.942   1.319  0.2004  0.9653  0.7935
 1548TIP3    H226136   1.171   5.961   1.209  1.5034  1.5045 -0.3445
 1549TIP3   OH226137   4.559   1.895  15.634  0.0294  0.4490 -0.0547
 1549TIP3    H126138   4.494   1.837  15.593  0.7692 -0.7068  0.3564
 1549TIP3    H226139   4.642   1.869  15.596  0.4872  0.6675  0.7602
 1550TIP3   OH226140   5.728   0.052   2.594 -0.2073  0.0332 -0.5339
 1550TIP3    H126141   5.722  -0.027   2.540 -0.2367 -0.5474  0.2919
 1550TIP3    H226142   5.656   0.042   2.657  0.6548  0.0089  0.4793
 1551TIP3   OH226143   0.191   0.932   3.504 -0.2100 -0.4437  0.0040
 1551TIP3    H126144   0.102   0.959   3.481 -0.7706 -0.8329  1.5934
 1551TIP3    H226145   0.235   1.013   3.527 -1.1182 -0.4942  2.2193
 1552TIP3   OH226146   2.428   3.256   4.257 -0.1838 -0.7434  0.1601
 1552TIP3    H126147   2.513   3.229   4.223 -0.0905  0.6832 -0.8551
 1552TIP3    H226148   2.446   3.332   4.311 -0.9581  0.8257 -1.6693
 1553TIP3   OH226149   3.585   0.449   5.620  0.3586 -0.6159 -0.8570
 1553TIP3    H126150   3.643   0.373   5.631 -0.1645 -0.8851  0.1738
 1553TIP3    H226151   3.601   0.503   5.697  0.1270 -0.0873 -1.1773
 1554TIP3   OH226152   0.055   3.495  10.363  0.4490 -0.0181  0.3581
 1554TIP3    H126153   0.118   3.466  10.297  3.1179  1.5838  2.0459
 1554TIP3    H226154   0.082   3.584  10.384 -1.7782  0.3587  1.9683
 1555TIP3   OH226155   4.870   5.103  15.462  0.4438 -0.2409 -0.2108
 1555TIP3    H126156   4.859   5.040  15.533 -0.2521 -0.1067 -0.1891
 1555TIP3    H226157   4.799   5.166  15.475  1.1139  0.5408 -0.2433
 1556TIP3   OH226158   3.902   4.961  11.567 -0.8240 -0.3000  0.1560
 1556TIP3    H126159   3.890   5.054  11.545 -0.4905  0.1882  1.8720
 1556TIP3    H226160   3.876   4.955  11.659 -0.3142 -1.8034  0.2274
 1557TIP3   OH226161   4.093   6.782  11.423  0.2567 -0.2518  0.2650
 1557TIP3    H126162   4.167   6.821  11.377 -0.5109  0.3456 -0.4910
 1557TIP3    H226163   4.064   6.850  11.484 -1.3068  0.5859 -1.3023
 1558TIP3   OH226164   1.832   6.659  16.531 -0.5401 -0.1577  0.4154
 1558TIP3    H126165   1.802   6.645  16.442 -0.8373  1.6127  0.1961
 1558TIP3    H226166   1.926   6.675  16.523 -0.9019  2.2018  0.0821
 1559TIP3   OH226167   0.014   5.314   1.774  0.2260  0.0721  0.2458
 1559TIP3    H126168  -0.013   5.236   1.725  0.2335 -0.1531  0.6009
 1559TIP3    H226169  -0.052   5.380   1.752  0.8744  0.3559 -1.0179
 1560TIP3   OH226170   4.778   5.226  14.027  0.0311  0.2038  0.5828
 1560TIP3    H126171   4.837   5.192  13.960 -2.0674  1.0978 -1.8529
 1560TIP3    H226172   4.783   5.161  14.097  2.1065 -0.9245 -0.4975
 1561TIP3   OH226173   5.956   4.819  13.610  0.0307  0.0748  0.2566
 1561TIP3    H126174   5.882   4.880  13.614 -0.8288 -0.9889  1.3611
 1561TIP3    H226175   5.976   4.799  13.701  1.4836  0.0737 -0.0359
 1562TIP3   OH226176   3.528   5.712  16.584  0.2562 -0.6705 -0.0960
 1562TIP3    H126177   3.517   5.798  16.543 -1.2051  0.0908  1.7130
 1562TIP3    H226178   3.439   5.687  16.610  1.1265 -0.4926  3.5831
 1563TIP3   OH226179   3.285   5.496   2.949  0.0484 -0.1702  0.0174
 1563TIP3    H126180   3.277   5.548   3.030 -1.2242  0.0006 -0.2026
 1563TIP3    H226181   3.307   5.408   2.980  0.3075  0.0582  0.5040
 1564TIP3   OH226182   4.744   2.646  11.727 -0.1003 -0.5551  0.8306
 1564TIP3    H126183   4.795   2.566  11.713 -1.7607 -2.0657  2.9326
 1564TIP3    H226184   4.659   2.628  11.689 -0.5263  0.2051  1.3964
 1565TIP3   OH226185   2.201   2.473   4.918  0.2398 -0.1679 -0.2477
 1565TIP3    H126186   2.220   2.465   4.824  0.7010  1.5163 -0.3361
 1565TIP3    H226187   2.241   2.395   4.957  0.2758 -0.7645 -1.4098
 1566TIP3   OH226188   0.287   2.992  17.075  0.0092  0.5321  0.1893
 1566TIP3    H126189   0.215   2.988  17.138 -0.4423  0.5433 -0.3210
 1566TIP3    H226190   0.310   3.085  17.070 -1.2255  0.8063 -1.0635
 1567TIP3   OH226191   5.340   5.240   1.970  0.5392 -0.0768  0.1879
 1567TIP3    H126192   5.272   5.174   1.978  2.2535 -2.2681 -1.6898
 1567TIP3    H226193   5.302   5.308   1.914 -0.6481 -0.4010  0.5897
 1568TIP3   OH226194   3.190   2.893  15.178 -0.1769  0.4826 -0.4646
 1568TIP3    H126195   3.140   2.954  15.124  0.2393  2.6760  1.4900
 1568TIP3    H226196   3.198   2.936  15.263 -1.2473 -2.9706  1.6137
 1569TIP3   OH226197   1.536   4.763  14.892  0.1675 -0.1070  0.6953
 1569TIP3    H126198   1.623   4.740  14.858  0.0707  0.0007  0.3688
 1569TIP3    H226199   1.538   4.858  14.900 -0.8064  0.2176 -1.8761
 1570TIP3   OH226200   3.360   0.260   0.286  0.8189  0.0816 -0.2232
 1570TIP3    H126201   3.285   0.245   0.344  1.8476 -0.9802  0.8759
 1570TIP3    H226202   3.352   0.352   0.261 -0.2806  0.2584  0.6810
 1571TIP3   OH226203   5.839   1.135  14.466 -0.5050  0.0070 -0.6936
 1571TIP3    H126204   5.810   1.178  14.386 -0.9996 -1.3915 -1.3072
 1571TIP3    H226205   5.917   1.086  14.439  0.5007  1.0943  0.1629
 1572TIP3   OH226206   3.451   2.445   3.872  0.2470 -0.3861  0.2959
 1572TIP3    H126207   3.447   2.489   3.787 -0.7162 -0.1459  0.4561
 1572TIP3    H226208   3.410   2.507   3.933  2.6287  0.3014  1.3270
 1573TIP3   OH226209   0.904   2.919  13.085 -0.5910  0.2799  0.0998
 1573TIP3    H126210   0.947   2.839  13.116 -0.2933  0.2214 -0.4521
 1573TIP3    H226211   0.956   2.990  13.124  0.2065  0.2124 -0.7934
 1574TIP3   OH226212   6.302   1.081   1.331  0.0526  0.0063 -0.5005
 1574TIP3    H126213   6.382   1.126   1.302  0.4232 -0.1189  0.3014
 1574TIP3    H226214   6.264   1.140   1.397 -1.3601  0.8116 -1.9474
 1575TIP3   OH226215   3.518   3.668  14.742  0.1445 -0.4025 -0.6232
 1575TIP3    H126216   3.596   3.656  14.687  0.4065  1.5929 -0.7839
 1575TIP3    H226217   3.481   3.581  14.752  0.8232 -1.0041 -2.8974
 1576TIP3   OH226218   3.040   0.703  16.723 -0.3864 -0.2914 -0.3605
 1576TIP3    H126219   2.962   0.708  16.778  0.6155  0.8885  1.0552
 1576TIP3    H226220   3.021   0.758  16.648 -0.9601 -0.0716 -0.0591
 1577TIP3   OH226221   6.127   5.699  12.390  0.2780 -0.0358  0.0805
 1577TIP3    H126222   6.154   5.725  12.302 -0.7728  0.9943  0.0373
 1577TIP3    H226223   6.046   5.650  12.376  1.1751 -1.6460  0.3341
 1578TIP3   OH226224   2.817   3.220  16.233  0.1220 -0.3890  0.1101
 1578TIP3    H126225   2.768   3.224  16.151  0.5633  0.8928 -0.1119
 1578TIP3    H226226   2.854   3.307  16.244  0.0022 -0.5107  1.7317
 1579TIP3   OH226227   1.695   1.253   0.819 -0.8020 -0.3826 -0.0230
 1579TIP3    H126228   1.734   1.304   0.891 -0.8411  0.3088 -0.4787
 1579TIP3    H226229   1.769   1.233   0.761 -1.1317  1.1725 -1.0341
 1580TIP3   OH226230   6.758   3.428   6.250 -0.1384  0.3247 -0.5136
 1580TIP3    H126231   6.769   3.520   6.276  0.0086  1.0405 -2.8364
 1580TIP3    H226232   6.783   3.427   6.158  0.9566 -2.3010 -0.2657
 1581TIP3   OH226233   0.383   1.859   6.489  0.0393 -0.3157  0.3139
 1581TIP3    H126234   0.381   1.944   6.532  2.4231 -1.0323  2.0326
 1581TIP3    H226235   0.325   1.804   6.543 -1.1758  0.0761 -0.5583
 1582TIP3   OH226236   6.212   5.407   5.158  0.1142  0.2749  0.4758
 1582TIP3    H126237   6.184   5.365   5.239  1.2687 -0.6963  0.3976
 1582TIP3    H226238   6.306   5.422   5.169  0.7958 -1.8645 -1.4587
 1583TIP3   OH226239   0.910   5.664  13.692 -0.3443 -0.3427  0.3567
 1583TIP3    H126240   0.991   5.679  13.643  0.8607 -1.0017  2.0523
 1583TIP3    H226241   0.864   5.597  13.642  0.4346 -0.3913 -0.3245
 1584TIP3   OH226242   5.833   3.492   1.448 -0.0255  0.5562 -0.3083
 1584TIP3    H126243   5.842   3.408   1.402 -1.7523  0.7628 -1.0820
 1584TIP3    H226244   5.765   3.477   1.513 -0.1232  1.2826 -0.2372
 1585TIP3   OH226245   3.019   4.894   5.747  0.0724 -0.1630  0.4086
 1585TIP3    H126246   3.078   4.963   5.716 -1.1134  1.6760  2.0406
 1585TIP3    H226247   3.070   4.813   5.738  2.2647  1.1573  0.3093
 1586TIP3   OH226248   1.225   5.445  16.773  0.7729 -0.3461 -0.8591
 1586TIP3    H126249   1.280   5.438  16.695  3.4703 -1.1039  0.9818
 1586TIP3    H226250   1.262   5.518  16.823 -2.3217  1.6471 -1.2074
 1587TIP3   OH226251   3.029   1.520   4.271 -0.4475 -0.0590  0.1796
 1587TIP3    H126252   3.063   1.432   4.258  2.4530  1.2114 -2.0413
 1587TIP3    H226253   3.083   1.575   4.215 -0.1095  3.5876  3.6189
 1588TIP3   OH226254   5.771   5.745  13.191 -0.1399  0.2400 -0.0358
 1588TIP3    H126255   5.792   5.802  13.117 -0.8539 -0.5644 -0.8722
 1588TIP3    H226256   5.681   5.767  13.214 -0.1426  0.0140  0.1736
 1589TIP3   OH226257   3.576   5.777  15.693 -0.7508 -0.0974  0.1904
 1589TIP3    H126258   3.624   5.797  15.613 -0.5160  0.7049  0.5237
 1589TIP3    H226259   3.639   5.730  15.747 -0.7380 -0.1573  0.1239
 1590TIP3   OH226260   3.385   1.745   2.353 -0.1423  0.1348 -0.2564
 1590TIP3    H126261   3.463   1.691   2.365  0.1955  0.1026 -2.1600
 1590TIP3    H226262   3.419   1.833   2.338 -0.3159 -0.0978 -2.3954
 1591TIP3   OH226263   6.614   6.367   6.171  0.2174  0.1028  0.1665
 1591TIP3    H126264   6.687   6.374   6.233  0.4508  1.2840 -0.2211
 1591TIP3    H226265   6.649   6.400   6.088 -0.3314 -0.7111 -0.4148
 1592TIP3   OH226266   6.455   1.101  11.503 -0.2652  0.1103 -0.0075
 1592TIP3    H126267   6.477   1.187  11.466  0.8614 -0.0538  0.2330
 1592TIP3    H226268   6.503   1.038  11.448  1.0424 -0.1710  1.3707
 1593TIP3   OH226269   3.741   6.692  12.321  0.0269  0.3356 -0.2327
 1593TIP3    H126270   3.805   6.622  12.306 -1.5527 -1.2282 -0.0813
 1593TIP3    H226271   3.683   6.688  12.244  0.0845  1.7007 -0.3665
 1594TIP3   OH226272   0.856   2.878   3.194  0.3183  0.2791 -0.0666
 1594TIP3    H126273   0.847   2.888   3.288  1.0646 -1.4913  0.2306
 1594TIP3    H226274   0.781   2.824   3.168  1.5688 -1.5646 -0.0084
 1595TIP3   OH226275   6.547   4.447  17.163 -0.0942  0.3524 -0.0772
 1595TIP3    H126276   6.487   4.465  17.236 -0.7367 -1.3964 -0.1316
 1595TIP3    H226277   6.489   4.433  17.088  0.2543 -2.3054  0.0659
 1596TIP3   OH226278   2.456   6.268   3.195  0.3770 -0.3456 -0.1527
 1596TIP3    H126279   2.446   6.363   3.192 -0.5239 -0.4605 -2.1860
 1596TIP3    H226280   2.520   6.248   3.127  2.7473 -1.0351  2.0944
 1597TIP3   OH226281   3.497   6.026  10.902  0.0593  0.4284  0.7812
 1597TIP3    H126282   3.535   6.114  10.909  0.0794  0.3616  1.6102
 1597TIP3    H226283   3.557   5.978  10.845 -1.0270  1.5220 -1.4478
 1598TIP3   OH226284   5.077   2.538  14.731  0.0732  0.0248  0.6413
 1598TIP3    H126285   5.094   2.510  14.820 -1.4165 -0.7471  0.7125
 1598TIP3    H226286   5.040   2.461  14.688  1.6394  0.0794 -0.9341
 1599TIP3   OH226287   4.395   6.621   1.697 -0.7697  0.0223 -0.4111
 1599TIP3    H126288   4.406   6.704   1.742 -1.6650 -0.1549  0.1574
 1599TIP3    H226289   4.451   6.628   1.620  0.8774  0.2909  0.7634
 1600TIP3   OH226290   6.177   1.923  10.827  0.4678  0.1970  0.1522
 1600TIP3    H126291   6.201   2.008  10.790  1.4415  0.4091  1.2272
 1600TIP3    H226292   6.166   1.940  10.921 -0.0716 -0.7224  0.2700
 1601TIP3   OH226293   0.649   6.286  16.243  0.1802 -0.0045  0.1527
 1601TIP3    H126294   0.695   6.238  16.174 -0.6340 -1.2943  0.4728
 1601TIP3    H226295   0.719   6.330  16.292  0.7816  0.8001 -1.3751
 1602TIP3   OH226296   1.588   5.866   5.139  0.5791  0.0773  0.1336
 1602TIP3    H126297   1.576   5.922   5.215  0.3791 -0.7845  0.7564
 1602TIP3    H226298   1.500   5.852   5.105  0.4731 -0.8369  0.7247
 1603TIP3   OH226299   2.866   1.308   0.483 -0.6719  0.2978  0.2531
 1603TIP3    H126300   2.805   1.314   0.409  1.2151 -0.9892 -1.5138
 1603TIP3    H226301   2.936   1.252   0.451  0.4004 -0.0117  2.9557
 1604TIP3   OH226302   6.496   6.633   1.291 -0.0534 -0.1018 -0.1375
 1604TIP3    H126303   6.479   6.562   1.229 -0.0050 -0.2140 -0.0209
 1604TIP3    H226304   6.521   6.707   1.235  1.7617 -0.6963 -0.1892
 1605TIP3   OH226305   3.528   3.562  16.042 -0.6597 -0.0461  0.0786
 1605TIP3    H126306   3.462   3.551  16.110  0.9643  0.9083  1.8964
 1605TIP3    H226307   3.584   3.633  16.074  2.3880 -2.0647 -0.4139
 1606TIP3   OH226308   3.323   0.272  14.887  0.0788 -0.0700  0.2997
 1606TIP3    H126309   3.403   0.268  14.940  0.2707 -1.2522 -0.0500
 1606TIP3    H226310   3.338   0.209  14.816 -1.0739 -0.1337  0.0985
 1607TIP3   OH226311   5.950   1.195  11.197 -0.0914 -0.2467  0.7208
 1607TIP3    H126312   5.944   1.118  11.254 -1.1365 -1.5972 -1.0895
 1607TIP3    H226313   5.904   1.169  11.117  2.8472  0.8558 -1.5154
 1608TIP3   OH226314   0.639   6.153   2.048 -0.3560 -0.0299  0.0650
 1608TIP3    H126315   0.726   6.128   2.078  0.7176  2.5569 -0.5725
 1608TIP3    H226316   0.647   6.160   1.953 -1.6656 -1.0752 -0.1468
 1609TIP3   OH226317   4.934   5.960   3.823  0.2027 -0.2004  0.9462
 1609TIP3    H126318   4.977   5.882   3.788  0.3933  0.6327 -0.7733
 1609TIP3    H226319   4.852   5.927   3.859  0.1530 -1.1787  0.0057
 1610TIP3   OH226320   6.352   6.339   4.412 -0.7190 -0.1389  0.1340
 1610TIP3    H126321   6.294   6.266   4.391  0.1815 -0.2720 -2.1740
 1610TIP3    H226322   6.403   6.308   4.486 -2.0499 -0.8650  0.7778
 1611TIP3   OH226323   3.846   3.247  11.580 -0.3109  0.0431 -0.5780
 1611TIP3    H126324   3.777   3.277  11.640  0.2059 -0.4392  0.2908
 1611TIP3    H226325   3.915   3.214  11.638  0.0704 -0.7489 -1.4509
 1612TIP3   OH226326   1.218   0.089  17.053  0.1768 -0.0202  0.4553
 1612TIP3    H126327   1.207   0.166  17.107 -0.2132 -0.2418  0.6968
 1612TIP3    H226328   1.313   0.078  17.045  0.2321  0.2911  0.6879
 1613TIP3   OH226329   4.716   2.012   0.528 -0.1534  0.0306  0.2222
 1613TIP3    H126330   4.712   2.097   0.571 -0.5913  0.1716 -0.0929
 1613TIP3    H226331   4.679   1.951   0.592  0.9369 -0.0700  0.7864
 1614TIP3   OH226332   3.424   5.141   4.852  0.1817  0.0530  0.7699
 1614TIP3    H126333   3.392   5.228   4.828  0.8357 -0.2132 -1.2781
 1614TIP3    H226334   3.514   5.155   4.881 -0.4598  0.3121  2.8125
 1615TIP3   OH226335   2.125   0.918   4.982 -0.1304  0.0573  0.2578
 1615TIP3    H126336   2.186   0.863   5.031 -0.1150  0.6146  0.8763
 1615TIP3    H226337   2.095   0.863   4.910  0.7522 -0.3838  0.2137
 1616TIP3   OH226338   5.571   0.571   2.872 -0.2063 -0.4562  0.2351
 1616TIP3    H126339   5.621   0.496   2.838  0.6492  0.3514 -0.3479
 1616TIP3    H226340   5.542   0.618   2.794  1.5545  1.2818  0.5493
 1617TIP3   OH226341   6.526   0.222  14.289  0.2047 -0.2423  0.0235
 1617TIP3    H126342   6.604   0.269  14.258  0.3896 -1.0255 -0.7244
 1617TIP3    H226343   6.455   0.257  14.236  0.0735  0.2777  0.5224
 1618TIP3   OH226344   5.141   4.882  10.226 -0.2252 -0.5933  0.0845
 1618TIP3    H126345   5.226   4.870  10.268 -1.6307 -1.2023  2.9594
 1618TIP3    H226346   5.102   4.956  10.272 -1.4298 -0.5730 -0.9338
 1619TIP3   OH226347   5.403   6.022  13.881 -0.0049 -0.1290 -0.7100
 1619TIP3    H126348   5.476   5.978  13.839  0.0806 -2.0883  1.2884
 1619TIP3    H226349   5.376   5.962  13.951 -2.0764  1.5488  0.0464
 1620TIP3   OH226350   3.588   6.412  11.210 -0.5378  0.3543 -0.6874
 1620TIP3    H126351   3.588   6.506  11.196 -1.2328  0.3080 -1.0582
 1620TIP3    H226352   3.607   6.375  11.124  0.0656  0.1573 -0.4767
 1621TIP3   OH226353   5.218   4.144   2.930 -0.5680 -0.6440 -0.2747
 1621TIP3    H126354   5.259   4.220   2.970 -0.0579 -1.5355  0.9692
 1621TIP3    H226355   5.126   4.168   2.919 -0.6805 -0.2994  1.2932
 1622TIP3   OH226356   5.178   2.411   0.624  0.3526 -0.4212 -0.2371
 1622TIP3    H126357   5.178   2.377   0.713  0.6549 -0.3089 -0.1915
 1622TIP3    H226358   5.191   2.506   0.635  0.4388 -0.4131 -0.4018
 1623TIP3   OH226359   3.184   5.218   3.159  0.2115  0.0885  0.5038
 1623TIP3    H126360   3.258   5.278   3.170  1.6415 -1.7684  1.5716
 1623TIP3    H226361   3.107   5.273   3.171  1.3741  2.1115 -0.7045
 1624TIP3   OH226362   6.250   6.173   5.808  0.5690  0.4733  0.2158
 1624TIP3    H126363   6.234   6.267   5.820  0.8822  0.4614  0.7642
 1624TIP3    H226364   6.344   6.166   5.793  0.5183  0.2600 -0.0198
 1625TIP3   OH226365   6.178   5.202  16.830 -0.4108  0.1964  0.0024
 1625TIP3    H126366   6.133   5.285  16.848 -0.0378  0.1849  1.0698
 1625TIP3    H226367   6.222   5.216  16.746 -1.2651  0.6809 -0.3842
 1626TIP3   OH226368   2.464   1.573  14.241 -0.0495 -0.1420 -0.1146
 1626TIP3    H126369   2.504   1.659  14.253 -0.6567  0.0321  0.7793
 1626TIP3    H226370   2.532   1.521  14.199 -0.0096  1.0430 -1.6139
 1627TIP3   OH226371   6.420   0.750  13.697 -0.0838  0.2794  0.2600
 1627TIP3    H126372   6.454   0.753  13.608 -0.7210 -0.4764 -0.0270
 1627TIP3    H226373   6.329   0.720  13.687  0.4222 -1.8021  1.2821
 1628TIP3   OH226374   0.518   5.101  16.127  0.0715  0.0738  0.2328
 1628TIP3    H126375   0.474   5.023  16.093  0.7724  0.1866 -1.0044
 1628TIP3    H226376   0.596   5.068  16.171 -0.1219  0.0196  0.5383
 1629TIP3   OH226377   0.226   1.754  13.987 -0.2314 -0.2921  0.1166
 1629TIP3    H126378   0.274   1.736  13.906 -1.3550 -0.6298 -0.4929
 1629TIP3    H226379   0.150   1.697  13.983 -0.2037 -0.4647  1.5216
 1630TIP3   OH226380   3.176   3.869   4.594 -0.4162 -0.0176 -0.1411
 1630TIP3    H126381   3.214   3.953   4.620  1.6787 -0.8989 -0.2096
 1630TIP3    H226382   3.157   3.880   4.500 -0.7435  0.5635 -0.0135
 1631TIP3   OH226383   6.132   1.362   2.358  0.7810 -1.0634 -0.1433
 1631TIP3    H126384   6.154   1.281   2.405 -2.0539 -1.8746 -0.0128
 1631TIP3    H226385   6.138   1.338   2.265 -0.2593 -1.5167 -0.1037
 1632TIP3   OH226386   2.390   0.706  13.226  0.3761  0.0776  0.2584
 1632TIP3    H126387   2.407   0.678  13.315  0.2525  2.5716  1.1601
 1632TIP3    H226388   2.331   0.781  13.235 -0.1520  0.0094 -1.9585
 1633TIP3   OH226389   3.880   3.500  11.393 -0.3585 -0.5196 -0.5431
 1633TIP3    H126390   3.951   3.456  11.345  0.7613  0.2136  0.3748
 1633TIP3    H226391   3.845   3.432  11.451  0.3829 -0.5950 -0.1729
 1634TIP3   OH226392   1.153   2.608  10.752 -0.6138  0.4568  0.0726
 1634TIP3    H126393   1.084   2.552  10.716 -0.0475 -1.5840  1.8634
 1634TIP3    H226394   1.234   2.571  10.717 -0.2299  0.1549  1.2386
 1635TIP3   OH226395   5.557   4.690   4.068 -0.0399 -0.0384  0.0938
 1635TIP3    H126396   5.604   4.613   4.100  0.5892  0.0762 -0.5098
 1635TIP3    H226397   5.470   4.683   4.106  0.6184  0.0279  1.6820
 1636TIP3   OH226398   6.050   6.186  14.814  0.3566 -0.1175 -0.0864
 1636TIP3    H126399   6.034   6.095  14.837  0.0068  0.1033  0.5905
 1636TIP3    H226400   6.146   6.194  14.813  0.3956 -0.2785  0.8023
 1637TIP3   OH226401   6.267   0.479  13.090  0.0748 -0.3833  0.5074
 1637TIP3    H126402   6.200   0.411  13.086 -0.7414  0.4737 -0.9190
 1637TIP3    H226403   6.341   0.443  13.040  0.1771 -0.7697  0.9288
 1638TIP3   OH226404   4.837   5.464  16.481 -0.5700 -0.2023 -0.9082
 1638TIP3    H126405   4.881   5.397  16.429  0.0268  0.8071 -1.7442
 1638TIP3    H226406   4.860   5.444  16.571 -1.0893 -1.6044 -1.0576
 1639TIP3   OH226407   4.979   2.287  14.628  0.2300 -0.3186  0.4733
 1639TIP3    H126408   5.004   2.247  14.545  0.9906 -0.0646  0.5718
 1639TIP3    H226409   5.015   2.228  14.695 -1.8952 -1.4986  0.6717
 1640TIP3   OH226410   3.901   5.435   5.767 -0.4321  0.0066  0.4473
 1640TIP3    H126411   3.925   5.352   5.725  0.1858  1.4000 -2.1945
 1640TIP3    H226412   3.943   5.432   5.852 -1.8608 -3.0894  1.1936
 1641TIP3   OH226413   5.993   1.088  15.631  0.1273  0.4243  0.5737
 1641TIP3    H126414   6.087   1.071  15.625  0.0211 -0.1724  0.4457
 1641TIP3    H226415   5.986   1.172  15.675  0.7470  0.9197 -0.2474
 1642TIP3   OH226416   2.283   0.076  15.405 -0.0551  0.1774 -0.2020
 1642TIP3    H126417   2.221   0.095  15.335 -1.3357 -2.2188  0.2067
 1642TIP3    H226418   2.358   0.036  15.360  0.5121  1.5009 -0.4954
 1643TIP3   OH226419   5.417   1.924  15.393 -0.1616 -0.5387  0.1856
 1643TIP3    H126420   5.450   1.977  15.466 -2.5257  1.6653 -0.1956
 1643TIP3    H226421   5.468   1.953  15.317  0.4945 -0.9203  0.4701
 1644TIP3   OH226422   5.305   4.844  12.552 -0.3365  0.0384 -0.1469
 1644TIP3    H126423   5.275   4.823  12.463  0.9823 -1.8381 -0.2064
 1644TIP3    H226424   5.379   4.903  12.539  0.1404 -0.5912 -0.3382
 1645TIP3   OH226425   6.527   3.169   3.806 -0.1391  0.1661  0.6132
 1645TIP3    H126426   6.492   3.119   3.732 -1.3855 -0.4258  1.5558
 1645TIP3    H226427   6.490   3.126   3.884  2.2919 -0.1480  1.6986
 1646TIP3   OH226428   2.214   0.405  14.858 -0.7085 -0.1235 -0.5183
 1646TIP3    H126429   2.266   0.334  14.821 -1.3879 -0.4792 -0.8079
 1646TIP3    H226430   2.231   0.480  14.799 -3.0977 -1.1284 -2.6612
 1647TIP3   OH226431   0.217   0.475  15.199 -0.7914 -0.0500 -0.0236
 1647TIP3    H126432   0.232   0.569  15.195 -2.5076  0.2179 -0.9716
 1647TIP3    H226433   0.303   0.436  15.181 -0.2529  1.3223 -0.5606
 1648TIP3   OH226434   1.411   3.434   4.520 -0.2680 -0.0370  0.0019
 1648TIP3    H126435   1.482   3.498   4.526  0.9562 -1.4560  2.5644
 1648TIP3    H226436   1.332   3.485   4.535  0.1410  1.5628 -2.7752
 1649TIP3   OH226437   5.103   1.055  11.282  0.5405  0.4991 -0.0662
 1649TIP3    H126438   5.168   1.005  11.331  0.1454 -0.6504 -0.6847
 1649TIP3    H226439   5.020   1.038  11.327  0.0324 -1.1940 -1.4846
 1650TIP3   OH226440   0.479   0.273  13.132  0.6256 -0.1910 -0.1659
 1650TIP3    H126441   0.416   0.239  13.069  2.9512 -3.8601 -0.8119
 1650TIP3    H226442   0.540   0.325  13.080  0.2995  0.1693 -0.1945
 1651TIP3   OH226443   2.528   2.032  12.373  0.0528  0.5117  0.2340
 1651TIP3    H126444   2.467   2.038  12.299 -1.0467  1.4546  1.1823
 1651TIP3    H226445   2.477   1.989  12.442  1.0693 -0.3597  0.4699
 1652TIP3   OH226446   1.869   6.744   3.028 -0.3680 -0.3482 -0.0772
 1652TIP3    H126447   1.795   6.778   2.978 -0.8495 -1.5167 -0.2016
 1652TIP3    H226448   1.911   6.681   2.969  0.6362  0.1843  0.0504
 1653TIP3   OH226449   5.016   0.001   5.274 -0.0336  0.0301  0.3779
 1653TIP3    H126450   5.081   0.071   5.272 -1.3513  1.3147 -1.1124
 1653TIP3    H226451   4.971   0.008   5.189 -3.2219  0.3473  1.9414
 1654TIP3   OH226452   1.701   4.293  12.379  0.3265  0.2376  0.0923
 1654TIP3    H126453   1.704   4.388  12.371  0.3368  0.2604  0.3405
 1654TIP3    H226454   1.621   4.276  12.430  0.3769  0.1199  0.1335
 1655TIP3   OH226455   0.113   3.399   5.893  0.4176  0.0624 -0.0959
 1655TIP3    H126456   0.115   3.482   5.942  0.4583 -0.0524  0.0975
 1655TIP3    H226457   0.021   3.373   5.893  0.6322 -0.8777  1.5187
 1656TIP3   OH226458   0.104   4.842  11.230  0.2381 -0.4201  0.1796
 1656TIP3    H126459   0.065   4.929  11.220 -0.5351 -0.9528 -2.3459
 1656TIP3    H226460   0.082   4.815  11.319 -2.9694  0.4226 -0.2367
 1657TIP3   OH226461   4.822   6.823   0.497 -0.3144  0.8166 -0.6999
 1657TIP3    H126462   4.831   6.915   0.475  0.5220  1.1431  0.8729
 1657TIP3    H226463   4.800   6.822   0.590  2.6884 -0.6104  0.1066
 1658TIP3   OH226464   1.909   3.459   0.205  0.0586  0.6975  0.6397
 1658TIP3    H126465   1.936   3.421   0.122 -1.7434  1.6484 -0.4150
 1658TIP3    H226466   1.969   3.419   0.269 -1.7240 -4.1525 -0.2545
 1659TIP3   OH226467   1.611   0.127   1.528 -0.2852  0.4321  0.4153
 1659TIP3    H126468   1.617   0.214   1.488 -0.6241 -0.4290 -1.6421
 1659TIP3    H226469   1.609   0.144   1.622 -1.1103  2.6912  0.0552
 1660TIP3   OH226470   1.298   6.361  14.528 -0.0698 -0.1118  0.1772
 1660TIP3    H126471   1.319   6.386  14.618  2.1550 -0.7795 -0.1006
 1660TIP3    H226472   1.323   6.269  14.522 -1.9383 -0.6111 -0.6388
 1661TIP3   OH226473   4.588   3.708   1.477 -0.5006 -0.5704  0.6302
 1661TIP3    H126474   4.642   3.629   1.486 -1.3515 -1.0672  1.5093
 1661TIP3    H226475   4.584   3.722   1.382  0.9442 -0.6670  0.5285
 1662TIP3   OH226476   5.209   0.398   2.929  0.4447 -0.1390  0.0703
 1662TIP3    H126477   5.119   0.427   2.917  0.5651 -0.1298 -0.9311
 1662TIP3    H226478   5.214   0.371   3.020  0.1305  2.2993  0.8772
 1663TIP3   OH226479   3.455   1.405   3.610  0.0959  0.1736 -0.0303
 1663TIP3    H126480   3.433   1.386   3.520 -1.7889 -0.6776  0.5763
 1663TIP3    H226481   3.431   1.327   3.659  2.7825 -0.1143  1.0201
 1664TIP3   OH226482   5.685   2.488  15.177  0.0407  0.3927 -0.0357
 1664TIP3    H126483   5.754   2.541  15.136 -0.0375 -0.2149 -0.9742
 1664TIP3    H226484   5.647   2.546  15.242  1.0545  0.9374  0.1002
 1665TIP3   OH226485   3.232   5.495  16.002  0.2714  0.1703  0.4606
 1665TIP3    H126486   3.316   5.451  15.990  0.6635  0.3882  2.2190
 1665TIP3    H226487   3.216   5.538  15.918  0.8939 -1.5547 -0.6042
 1666TIP3   OH226488   1.079   4.089   5.139  0.8020 -0.6367  0.2330
 1666TIP3    H126489   1.074   4.000   5.104 -1.7855 -0.9158  1.0574
 1666TIP3    H226490   1.087   4.077   5.234  0.1090 -0.0189  0.3827
 1667TIP3   OH226491   0.774   2.816   4.497  0.3477 -0.6307  0.3478
 1667TIP3    H126492   0.711   2.781   4.560 -0.0485  0.5074  0.6055
 1667TIP3    H226493   0.739   2.903   4.474  0.0523 -1.3220 -2.0493
 1668TIP3   OH226494   3.005   4.996  14.997  0.6281 -0.0248 -0.2073
 1668TIP3    H126495   2.951   5.069  14.968  1.0149  0.3647  0.0242
 1668TIP3    H226496   2.950   4.919  14.987  0.2960  0.2717 -0.6805
 1669TIP3   OH226497   2.027   5.007   1.997 -0.3418 -0.0096  0.4517
 1669TIP3    H126498   1.986   5.042   2.076 -0.5955 -2.7239  1.6167
 1669TIP3    H226499   2.108   4.968   2.028  0.8469  1.0819 -1.0954
 1670TIP3   OH226500   6.130   2.200  11.329  0.1571  0.7310 -0.1659
 1670TIP3    H126501   6.199   2.171  11.388 -0.2827 -0.4247 -0.2013
 1670TIP3    H226502   6.157   2.287  11.301  1.7760  0.1511 -0.4670
 1671TIP3   OH226503   3.077   6.735   0.233  0.0494  0.3161 -0.5934
 1671TIP3    H126504   3.052   6.824   0.211 -0.4645  0.2144 -0.4312
 1671TIP3    H226505   3.173   6.735   0.229 -0.0010  0.3503 -2.5703
 1672TIP3   OH226506   3.152   5.400   4.975 -0.0743  0.5985  0.3673
 1672TIP3    H126507   3.086   5.381   4.908 -0.2582 -1.1944  1.0106
 1672TIP3    H226508   3.235   5.391   4.929 -0.2248  0.6609  0.0780
 1673TIP3   OH226509   2.610   4.690   5.957  0.2427 -0.2394  0.5182
 1673TIP3    H126510   2.703   4.677   5.936  0.9352  1.6270  2.2415
 1673TIP3    H226511   2.590   4.779   5.927 -0.8377 -0.3847  0.7571
 1674TIP3   OH226512   0.269   0.242   0.437 -0.2367 -0.0592 -0.6272
 1674TIP3    H126513   0.182   0.255   0.399 -0.8610  0.2514  0.8193
 1674TIP3    H226514   0.282   0.318   0.494 -0.4395 -1.6047  1.6433
 1675TIP3   OH226515   1.430   3.198  11.888 -0.3188 -0.3571  0.2743
 1675TIP3    H126516   1.522   3.203  11.915  0.3176  0.1318 -1.8515
 1675TIP3    H226517   1.423   3.115  11.841 -0.9414 -0.3139  0.2773
 1676TIP3   OH226518   5.219   3.030   1.766 -0.4075  0.1299 -0.3531
 1676TIP3    H126519   5.129   3.037   1.799 -0.3407 -0.1135 -0.1140
 1676TIP3    H226520   5.222   3.090   1.692 -0.6006  0.5961  0.0060
 1677TIP3   OH226521   2.306   3.001  15.367 -0.9834 -0.0118 -0.1253
 1677TIP3    H126522   2.383   2.943  15.370 -0.3839  0.6727 -1.4072
 1677TIP3    H226523   2.261   2.985  15.450  1.3231  0.6327  1.3373
 1678TIP3   OH226524   0.201   4.942  14.773  0.2712 -0.8024  0.5464
 1678TIP3    H126525   0.121   4.899  14.744 -2.5795  2.5276  2.5465
 1678TIP3    H226526   0.206   4.923  14.867  0.5825  0.6685  0.8666
 1679TIP3   OH226527   5.508   3.608  14.188 -0.2422  0.2740  0.1131
 1679TIP3    H126528   5.559   3.573  14.115 -0.5485  1.5059 -0.7167
 1679TIP3    H226529   5.419   3.575  14.173 -0.4532  1.0839 -0.4683
 1680TIP3   OH226530   3.466   4.296  13.360 -0.4140  0.0792 -0.4150
 1680TIP3    H126531   3.542   4.310  13.416  0.7536 -1.0113 -1.6533
 1680TIP3    H226532   3.425   4.216  13.393 -1.1074  0.7353  0.3293
 1681TIP3   OH226533   5.049   3.294  11.003 -0.4464 -0.2320  0.3168
 1681TIP3    H126534   5.119   3.306  10.939  0.1449 -1.8014  0.6260
 1681TIP3    H226535   5.073   3.215  11.051 -0.9975  0.7389  2.3310
 1682TIP3   OH226536   3.073   3.551  12.658  0.0707  0.0510 -0.2081
 1682TIP3    H126537   3.014   3.622  12.683 -1.0210 -0.0428 -2.3017
 1682TIP3    H226538   3.140   3.594  12.605  0.9557 -0.1055  0.7567
 1683TIP3   OH226539   2.301   4.772  11.667 -0.0106  0.1183  0.2494
 1683TIP3    H126540   2.365   4.764  11.737  1.0848  1.3523 -0.5825
 1683TIP3    H226541   2.278   4.681  11.646  0.5207 -0.3029  1.3867
 1684TIP3   OH226542   2.545   6.152  13.755 -0.6730 -0.0191  0.0797
 1684TIP3    H126543   2.638   6.144  13.775 -0.6001  0.9773  0.1795
 1684TIP3    H226544   2.542   6.184  13.665 -0.8575  1.7904  0.6895
 1685TIP3   OH226545   4.804   4.805   4.291  0.3290  0.0764  0.3278
 1685TIP3    H126546   4.715   4.774   4.307  0.1461  0.7203  0.5525
 1685TIP3    H226547   4.859   4.731   4.318 -0.1265 -0.2672  0.3335
 1686TIP3   OH226548   3.655   0.347  16.864  0.0105 -0.0954 -0.3075
 1686TIP3    H126549   3.640   0.378  16.774 -0.6859  0.5710  0.0212
 1686TIP3    H226550   3.671   0.427  16.914  0.8440 -0.4981  0.0932
 1687TIP3   OH226551   0.097   3.013   0.086 -0.3922  0.0389  0.0264
 1687TIP3    H126552   0.049   3.095   0.071  0.4282  0.1868 -2.0876
 1687TIP3    H226553   0.132   3.022   0.174 -2.9738  0.5597  1.0875
 1688TIP3   OH226554   1.475   2.719  11.573  0.1448  0.4147 -0.5899
 1688TIP3    H126555   1.409   2.784  11.597 -0.0794  0.5277 -1.5022
 1688TIP3    H226556   1.438   2.671  11.500 -0.2079 -1.6030  0.8381
 1689TIP3   OH226557   2.891   6.600  13.121  0.5501 -0.2575  0.4736
 1689TIP3    H126558   2.883   6.509  13.151  0.7236 -0.7606 -0.9369
 1689TIP3    H226559   2.913   6.649  13.200  4.1361 -1.9854  0.7722
 1690TIP3   OH226560   6.563   0.485   0.487  0.2715  0.4141  0.7241
 1690TIP3    H126561   6.623   0.496   0.561  0.3759  0.2285  0.6682
 1690TIP3    H226562   6.537   0.574   0.463  1.4732  0.5872 -0.0315
 1691TIP3   OH226563   4.967   3.701   0.497  0.6966 -0.2170 -0.0703
 1691TIP3    H126564   5.053   3.691   0.458  1.8461  1.2048  1.9064
 1691TIP3    H226565   4.970   3.649   0.577  0.2687  0.9387  0.7372
 1692TIP3   OH226566   1.876   6.814   3.865 -0.1876  0.0118  0.3441
 1692TIP3    H126567   1.963   6.807   3.906 -0.4991 -0.5578  0.9328
 1692TIP3    H226568   1.883   6.889   3.807  0.2401  0.9011  1.5132
 1693TIP3   OH226569   1.870   1.088  13.914 -0.1451  0.0471 -0.5574
 1693TIP3    H126570   1.814   1.144  13.967 -1.1326 -0.7273 -0.7431
 1693TIP3    H226571   1.953   1.135  13.909 -0.0452  0.2214  1.5536
 1694TIP3   OH226572   4.558   6.308   5.543  0.5409  0.0749 -0.0331
 1694TIP3    H126573   4.496   6.357   5.597  0.3155 -3.3730  3.2375
 1694TIP3    H226574   4.641   6.317   5.588  0.2693 -3.2095  1.3878
 1695TIP3   OH226575   4.775   2.450  14.632  0.6477 -0.2619  0.2610
 1695TIP3    H126576   4.724   2.428  14.710  0.8659 -0.0779  0.4576
 1695TIP3    H226577   4.839   2.380  14.625  1.3383  0.2961  0.8825
 1696TIP3   OH226578   5.090   1.580   0.844 -0.1644  0.0417  0.1431
 1696TIP3    H126579   5.100   1.506   0.783  1.5511 -0.3617  0.8771
 1696TIP3    H226580   5.164   1.573   0.903 -0.7409  1.5698  1.0993
 1697TIP3   OH226581   0.277   5.851  12.271  0.2576  0.0025 -0.4515
 1697TIP3    H126582   0.235   5.864  12.186  1.7885  0.9098 -1.1135
 1697TIP3    H226583   0.310   5.938  12.295 -0.2700 -0.2045  1.1619
 1698TIP3   OH226584   5.550   5.800   4.603 -0.1703  0.1823 -0.0098
 1698TIP3    H126585   5.530   5.710   4.577 -1.2987 -0.2799  2.2336
 1698TIP3    H226586   5.645   5.808   4.590 -0.3114 -0.7055 -1.9178
 1699TIP3   OH226587   0.787   6.699  13.989  0.1679  0.2531 -0.2607
 1699TIP3    H126588   0.721   6.763  14.016  0.4850  0.5731 -0.2277
 1699TIP3    H226589   0.821   6.664  14.072  0.1150  0.1660 -0.2755
 1700TIP3   OH226590   5.057   5.240   2.298  0.6542  0.0038  0.2315
 1700TIP3    H126591   5.055   5.170   2.233  1.7635 -0.2282  0.4287
 1700TIP3    H226592   5.079   5.318   2.247  1.2342 -0.1265  0.2751
 1701TIP3   OH226593   0.503   5.380   0.634 -0.4971  1.0758 -0.2024
 1701TIP3    H126594   0.577   5.357   0.691 -0.3386  1.2554 -0.3331
 1701TIP3    H226595   0.502   5.311   0.568 -0.4075  1.1055 -0.2350
 1702TIP3   OH226596   2.759   5.527  14.396 -0.7620  0.0533 -0.0310
 1702TIP3    H126597   2.739   5.595  14.332  0.1060  0.3605  0.0141
 1702TIP3    H226598   2.788   5.452  14.343 -1.3445 -0.1599 -0.0589
 1703TIP3   OH226599   2.429   4.554   4.588 -0.2891  0.7025  0.1182
 1703TIP3    H126600   2.337   4.559   4.616 -0.2546  1.3358  0.1418
 1703TIP3    H226601   2.477   4.605   4.653 -0.2823  2.7178 -1.3460
 1704TIP3   OH226602   5.110   4.610  14.541 -0.5322 -0.2398 -0.4804
 1704TIP3    H126603   5.120   4.598  14.446 -1.2675 -0.0534 -0.5935
 1704TIP3    H226604   5.120   4.704  14.554  0.7542 -0.3978 -0.2008
 1705TIP3   OH226605   2.212   5.486   6.162  0.0667 -0.4425 -0.6813
 1705TIP3    H126606   2.264   5.530   6.095 -1.0563  0.0688 -1.2433
 1705TIP3    H226607   2.172   5.557   6.213  0.0270 -0.8243 -0.1634
 1706TIP3   OH226608   5.132   5.580  12.315 -0.2083 -0.2887 -0.3970
 1706TIP3    H126609   5.059   5.629  12.277 -1.0840 -0.6657  0.7458
 1706TIP3    H226610   5.095   5.495  12.337  0.8634 -0.8852 -0.7900
 1707TIP3   OH226611   0.797   4.078  15.916  0.0059 -0.5340  0.3674
 1707TIP3    H126612   0.722   4.019  15.925 -1.7988  1.1352 -2.1992
 1707TIP3    H226613   0.862   4.026  15.868 -1.0374 -0.8605 -0.7403
 1708TIP3   OH226614   4.527   0.904  14.241 -0.3009 -0.2651 -0.0553
 1708TIP3    H126615   4.617   0.930  14.263 -0.2389 -1.0681  0.6521
 1708TIP3    H226616   4.472   0.973  14.279 -0.0223 -0.0743  0.0007
 1709TIP3   OH226617   1.100   5.206   2.538 -0.2143 -0.3305  0.2650
 1709TIP3    H126618   1.178   5.197   2.592 -1.0547  0.8254  1.7516
 1709TIP3    H226619   1.124   5.271   2.472  0.1468 -0.1293  0.5920
 1710TIP3   OH226620   0.448   4.906  11.341  0.1526  0.1100  0.0614
 1710TIP3    H126621   0.429   4.986  11.291  0.1259  0.7233  1.0110
 1710TIP3    H226622   0.385   4.842  11.309  0.1681  0.4701 -0.7168
 1711TIP3   OH226623   0.621   0.291   5.808 -0.2116 -0.0207  0.4363
 1711TIP3    H126624   0.704   0.255   5.840 -0.0545  1.3329  1.6394
 1711TIP3    H226625   0.631   0.293   5.713  1.4273  0.7959  0.5901
 1712TIP3   OH226626   3.555   4.053   4.003  0.2468 -0.0792 -0.4378
 1712TIP3    H126627   3.580   4.036   3.912  1.2685  2.5179 -0.7272
 1712TIP3    H226628   3.638   4.071   4.048 -0.4329  0.7829  0.5035
 1713TIP3   OH226629   3.891   2.307  10.357 -0.3986 -0.1675  0.2708
 1713TIP3    H126630   3.980   2.277  10.343 -0.6440 -0.7894  0.0128
 1713TIP3    H226631   3.849   2.236  10.406 -1.1519 -0.5267 -0.8713
 1714TIP3   OH226632   2.183   1.377  15.352  1.1483 -0.5146  0.3820
 1714TIP3    H126633   2.232   1.444  15.398  0.1612  0.5339 -0.0659
 1714TIP3    H226634   2.151   1.318  15.420  2.6249 -0.9688  0.7155
 1715TIP3   OH226635   1.539   3.090  14.687  0.0606  0.5710  0.2418
 1715TIP3    H126636   1.467   3.111  14.627  0.2722  0.5244 -0.0326
 1715TIP3    H226637   1.510   3.011  14.732 -1.0305  1.7734  1.7565
 1716TIP3   OH226638   1.300   4.568   5.012 -0.4988 -0.3650  0.0717
 1716TIP3    H126639   1.207   4.560   4.996 -0.9187  1.5337  1.1680
 1716TIP3    H226640   1.311   4.658   5.045  1.8472 -0.1962 -0.9736
 1717TIP3   OH226641   1.645   2.720  14.178  0.2683  0.0223  0.7711
 1717TIP3    H126642   1.606   2.638  14.147  0.2951 -0.0454  0.9163
 1717TIP3    H226643   1.632   2.781  14.106  0.3261 -0.1327  0.6272
 1718TIP3   OH226644   3.294   4.397   3.371  0.4255 -0.1593 -0.5987
 1718TIP3    H126645   3.244   4.319   3.346  2.1294 -1.5396  0.0868
 1718TIP3    H226646   3.340   4.422   3.290  0.6184 -0.4745 -0.5914
 1719TIP3   OH226647   4.358   4.062  15.435  0.1111 -0.6358  0.3553
 1719TIP3    H126648   4.420   3.990  15.447  1.5433  0.7077  1.2764
 1719TIP3    H226649   4.407   4.128  15.387 -0.7983  0.2327  0.6041
 1720TIP3   OH226650   2.234   4.526  15.675 -0.6396  0.0268 -0.0319
 1720TIP3    H126651   2.313   4.488  15.636 -0.5780 -1.8065  1.6842
 1720TIP3    H226652   2.241   4.620  15.658  1.1922 -0.2577 -1.1171
 1721TIP3   OH226653   6.548   2.197  11.688 -0.5249  1.1312 -0.1452
 1721TIP3    H126654   6.567   2.218  11.780 -1.5225  1.2904  0.0432
 1721TIP3    H226655   6.633   2.197  11.645  0.0082  0.5867  0.8754
 1722TIP3   OH226656   5.850   0.761  16.200 -0.5227  0.3125 -0.0153
 1722TIP3    H126657   5.818   0.710  16.126  1.5230 -0.1153 -0.6562
 1722TIP3    H226658   5.940   0.782  16.178  0.6185 -0.9731  2.9185
 1723TIP3   OH226659   5.486   1.522   5.153  0.4582 -0.0669 -0.4981
 1723TIP3    H126660   5.493   1.555   5.063  1.8637  0.2925 -0.2745
 1723TIP3    H226661   5.443   1.592   5.201 -0.6412 -0.4057 -0.9336
 1724TIP3   OH226662   3.976   0.837   3.521  0.4268  0.2215 -0.1986
 1724TIP3    H126663   4.064   0.802   3.537  1.3229  2.3293 -0.1023
 1724TIP3    H226664   3.987   0.892   3.443 -1.5809 -1.9850 -2.1876
 1725TIP3   OH226665   3.496   1.976   4.839  0.2031  0.0034  0.0944
 1725TIP3    H126666   3.535   2.009   4.758 -1.3490 -1.6738 -1.4300
 1725TIP3    H226667   3.460   2.054   4.882 -0.8897  0.7336 -1.9765
 1726TIP3   OH226668   4.767   0.273  12.180  0.0929  0.3996 -0.3472
 1726TIP3    H126669   4.751   0.264  12.274 -0.3644  0.9008 -0.3689
 1726TIP3    H226670   4.730   0.358  12.157 -0.7410 -0.1582 -1.1726
 1727TIP3   OH226671   4.581   3.932   3.481 -0.1193  0.3361 -0.3011
 1727TIP3    H126672   4.492   3.926   3.448 -0.0524 -1.7883 -0.2531
 1727TIP3    H226673   4.573   3.912   3.574  0.4865 -0.9401 -0.4968
 1728TIP3   OH226674   3.353   3.782  11.847  0.1639 -0.6980  0.1271
 1728TIP3    H126675   3.291   3.790  11.920 -1.1725  1.4677 -1.1458
 1728TIP3    H226676   3.301   3.745  11.775  0.4784  0.5823 -0.7800
 1729TIP3   OH226677   0.788   2.507  14.378  0.1986 -0.1825 -0.4905
 1729TIP3    H126678   0.794   2.436  14.314 -2.8792 -2.0087  1.0345
 1729TIP3    H226679   0.763   2.464  14.459  0.2245  2.4756  1.0249
 1730TIP3   OH226680   2.415   5.026  12.474  0.3501  0.6705 -0.1440
 1730TIP3    H126681   2.451   5.002  12.389 -0.9393 -2.3462  0.0346
 1730TIP3    H226682   2.322   5.044  12.456 -0.7937 -3.2261  0.8926
 1731TIP3   OH226683   2.242   4.304   0.915 -0.5648 -0.0925  0.6886
 1731TIP3    H126684   2.161   4.354   0.924 -0.9155 -0.2994 -1.0037
 1731TIP3    H226685   2.237   4.239   0.985 -1.4394  0.4452  1.1490
 1732TIP3   OH226686   1.150   0.167   2.937 -0.8169  0.1100 -0.6696
 1732TIP3    H126687   1.219   0.193   2.999 -2.1063  2.3003 -0.0506
 1732TIP3    H226688   1.110   0.090   2.977  0.2699 -0.2744 -0.2786
 1733TIP3   OH226689   0.430   4.082   1.467  0.2870  0.1299 -0.1700
 1733TIP3    H126690   0.391   4.098   1.553 -0.9313 -1.0609 -0.4552
 1733TIP3    H226691   0.359   4.099   1.405  0.5256 -1.0155 -0.7908
 1734TIP3   OH226692   4.744   0.341   3.573 -0.5310 -0.0824 -0.5010
 1734TIP3    H126693   4.698   0.392   3.639 -1.7665 -0.2560 -1.1816
 1734TIP3    H226694   4.743   0.397   3.495  0.6365 -0.0011 -0.4646
 1735TIP3   OH226695   4.527   6.025   2.988 -0.0626 -0.0028  0.1997
 1735TIP3    H126696   4.539   5.982   3.073  0.5756  0.9086  0.5922
 1735TIP3    H226697   4.560   6.114   3.002 -0.2299  0.2466 -0.9249
 1736TIP3   OH226698   3.167   4.696  10.925 -0.2795 -0.2848  0.6502
 1736TIP3    H126699   3.166   4.786  10.956  1.1590 -0.0762  0.1872
 1736TIP3    H226700   3.260   4.671  10.929 -0.4874 -1.2995 -0.4635
 1737TIP3   OH226701   0.431   2.574  12.389  0.4305 -0.2296 -0.2321
 1737TIP3    H126702   0.365   2.642  12.399 -0.6341 -1.2099 -0.4774
 1737TIP3    H226703   0.514   2.622  12.387  0.0029  0.8727  2.7087
 1738TIP3   OH226704   3.871   1.881   2.584 -0.7210 -0.2234 -0.0431
 1738TIP3    H126705   3.907   1.805   2.629 -0.4875  1.2914  2.5760
 1738TIP3    H226706   3.802   1.846   2.528  0.2753 -2.4597  0.0269
 1739TIP3   OH226707   6.006   6.751   2.800  0.1809  0.2037 -0.0311
 1739TIP3    H126708   5.993   6.841   2.829 -1.9611  0.4199 -1.4848
 1739TIP3    H226709   5.988   6.698   2.877 -0.1329  0.9404  0.4141
 1740TIP3   OH226710   3.077   1.451   3.058  0.9772  0.5444 -0.1131
 1740TIP3    H126711   3.052   1.372   3.106 -0.3211 -0.6654 -2.5671
 1740TIP3    H226712   3.171   1.442   3.044  0.7674 -0.8185 -0.7514
 1741TIP3   OH226713   0.621   1.480   2.682 -0.2399  0.7358 -0.4744
 1741TIP3    H126714   0.579   1.417   2.741 -1.7653  1.7862 -0.3781
 1741TIP3    H226715   0.702   1.437   2.655  0.6146  0.2408  2.4603
 1742TIP3   OH226716   2.128   5.176  13.217  0.0629 -0.3875  0.6023
 1742TIP3    H126717   2.178   5.176  13.298 -1.5561  0.5951  1.6771
 1742TIP3    H226718   2.064   5.105  13.228  1.0166 -1.4834 -0.6452
 1743TIP3   OH226719   1.501   0.093   5.343  0.5915  0.0027  0.2599
 1743TIP3    H126720   1.407   0.095   5.324  0.5236  0.2247  0.6094
 1743TIP3    H226721   1.529   0.004   5.319  0.0259 -0.4940  1.3840
 1744TIP3   OH226722   6.302   2.177  12.203  0.0218 -0.6288 -0.5928
 1744TIP3    H126723   6.342   2.097  12.237  1.6039  0.6398  0.6941
 1744TIP3    H226724   6.266   2.219  12.281  1.8010  1.3063 -0.7487
 1745TIP3   OH226725   2.677   5.496   2.001 -0.3762  0.3450  0.1318
 1745TIP3    H126726   2.738   5.544   2.058  0.3733 -1.1782  0.6701
 1745TIP3    H226727   2.602   5.476   2.057 -0.8452  1.1716 -0.1907
 1746TIP3   OH226728   3.742   4.261   5.144 -0.2089  0.0118  0.0334
 1746TIP3    H126729   3.713   4.183   5.191 -1.7186  0.5465  0.0385
 1746TIP3    H226730   3.701   4.334   5.190  2.3818  0.9809  0.9500
 1747TIP3   OH226731   3.641   1.809   4.025  0.1297  0.5461 -0.0830
 1747TIP3    H126732   3.674   1.894   4.054  1.7720  0.4486 -1.5272
 1747TIP3    H226733   3.715   1.769   3.979 -1.3386 -0.6681 -1.4929
 1748TIP3   OH226734   3.243   4.183   2.663 -0.3641 -0.1912 -0.3290
 1748TIP3    H126735   3.184   4.154   2.732  0.6918 -1.4189  0.1100
 1748TIP3    H226736   3.235   4.115   2.595  0.7852 -0.5834 -0.0953
 1749TIP3   OH226737   5.216   0.562   2.285  0.5594  0.1778 -0.0588
 1749TIP3    H126738   5.305   0.550   2.316  0.2214 -0.3866  0.7383
 1749TIP3    H226739   5.166   0.580   2.365 -0.1546 -0.2001 -0.4150
 1750TIP3   OH226740   3.210   0.456  17.121  0.3935 -0.0268  0.1051
 1750TIP3    H126741   3.177   0.485  17.036 -0.2293  0.3992  0.4809
 1750TIP3    H226742   3.267   0.382  17.101 -2.0575 -1.9173 -0.4898
 1751TIP3   OH226743   0.302   2.937   1.514 -0.4767 -0.2391  0.0645
 1751TIP3    H126744   0.285   2.843   1.523  1.1953 -0.4794  1.4131
 1751TIP3    H226745   0.259   2.976   1.590 -1.1016  0.0898 -0.4520
 1752TIP3   OH226746   4.434   2.830  11.842 -0.1451 -0.4295  0.1738
 1752TIP3    H126747   4.455   2.744  11.806  0.8177  0.4377 -1.4847
 1752TIP3    H226748   4.366   2.864  11.784  0.1031  0.2663  0.2838
 1753TIP3   OH226749   0.422   3.447   2.020 -0.0237  0.2131 -0.5375
 1753TIP3    H126750   0.475   3.502   2.078 -0.7370  0.8083 -0.4316
 1753TIP3    H226751   0.448   3.474   1.932 -1.8426  2.2923 -0.5356
 1754TIP3   OH226752   0.287   2.032   3.793  0.1822  1.0136  0.6266
 1754TIP3    H126753   0.276   1.953   3.846 -0.1012 -0.3409 -1.3606
 1754TIP3    H226754   0.200   2.073   3.792 -0.3365 -0.0588 -0.4180
 1755TIP3   OH226755   1.722   6.090  10.748  0.0192  0.4287 -0.4742
 1755TIP3    H126756   1.674   6.088  10.665  1.7387 -0.9555 -1.5046
 1755TIP3    H226757   1.725   5.998  10.775  1.2066  0.6228  0.0670
 1756TIP3   OH226758   2.474   2.662  17.047 -0.5514 -0.4771 -0.2415
 1756TIP3    H126759   2.536   2.603  17.092  0.8278  1.3622  0.4087
 1756TIP3    H226760   2.388   2.626  17.067  0.2230 -2.0870  0.3850
 1757TIP3   OH226761   1.553   4.531   6.187  0.1186  0.0241  0.4352
 1757TIP3    H126762   1.545   4.436   6.185 -1.9160  0.1566 -0.5457
 1757TIP3    H226763   1.478   4.561   6.237 -1.4151  1.1959 -2.3133
 1758TIP3   OH226764   5.182   3.360  15.098  0.1313  0.1273  0.2570
 1758TIP3    H126765   5.143   3.280  15.064 -0.4036  0.6765 -0.4579
 1758TIP3    H226766   5.114   3.427  15.085  0.2263  0.5255  1.6571
 1759TIP3   OH226767   0.041   6.639   4.758  0.5860  0.2996 -1.1465
 1759TIP3    H126768  -0.034   6.636   4.698 -1.3992 -1.5462  1.1990
 1759TIP3    H226769   0.003   6.619   4.843  3.5560  1.0332  0.4509
 1760TIP3   OH226770   4.449   6.496  12.206  0.0757 -0.7193  0.0451
 1760TIP3    H126771   4.535   6.492  12.249  0.5322 -2.5213 -0.9618
 1760TIP3    H226772   4.399   6.426  12.247 -0.8190  0.1044  0.3814
 1761TIP3   OH226773   1.541   4.778  17.119 -0.0478  0.1905 -0.0133
 1761TIP3    H126774   1.478   4.813  17.057 -0.5170 -0.1835  0.2437
 1761TIP3    H226775   1.613   4.842  17.120 -0.3055  0.4908 -0.4919
 1762TIP3   OH226776   4.152   3.825   4.194 -0.0680 -0.4228 -0.2145
 1762TIP3    H126777   4.120   3.861   4.111 -0.4731  0.8656  0.4784
 1762TIP3    H226778   4.233   3.780   4.170 -0.6756 -0.9124 -1.4600
 1763TIP3   OH226779   5.856   1.682  15.531  0.2185  0.3705 -0.1928
 1763TIP3    H126780   5.798   1.690  15.607  1.0850  1.9849  0.3523
 1763TIP3    H226781   5.941   1.662  15.569  0.1536 -1.5272 -0.9549
 1764TIP3   OH226782   0.567   3.500   5.467  0.1335  0.5264  0.3515
 1764TIP3    H126783   0.629   3.535   5.403  0.7366 -2.3231 -0.7906
 1764TIP3    H226784   0.489   3.478   5.416 -0.2447  0.2683  1.0255
 1765TIP3   OH226785   1.194   3.817   1.273 -0.5274 -0.6435  0.2803
 1765TIP3    H126786   1.233   3.902   1.251  0.6360 -1.2638 -0.1461
 1765TIP3    H226787   1.268   3.765   1.304 -0.9030 -2.0407 -1.0588
 1766TIP3   OH226788   0.054   3.074  12.702  0.8775  0.6478 -0.3411
 1766TIP3    H126789  -0.039   3.067  12.726  0.8176  2.0141 -0.1462
 1766TIP3    H226790   0.059   3.032  12.616 -0.3478  2.4564 -1.3587
 1767TIP3   OH226791   6.221   5.964   1.067  0.0790 -0.0409 -0.0052
 1767TIP3    H126792   6.253   5.874   1.068  0.7555  0.1951  0.2726
 1767TIP3    H226793   6.272   6.007   0.999 -0.1690  0.1542 -0.0665
 1768TIP3   OH226794   3.193   0.573  14.249  0.0395 -0.1556 -0.4339
 1768TIP3    H126795   3.145   0.609  14.175  1.1500  0.6333 -0.7848
 1768TIP3    H226796   3.143   0.602  14.326  0.7371  1.9373 -0.7102
 1769TIP3   OH226797   4.021   3.996  10.519 -0.1348 -0.4544 -0.0453
 1769TIP3    H126798   3.944   4.050  10.504 -0.8115 -0.8901  1.6065
 1769TIP3    H226799   3.992   3.907  10.500 -0.3140 -0.7172  1.3262
 1770TIP3   OH226800   2.068   1.201  15.539  0.0984 -0.3347 -0.0335
 1770TIP3    H126801   2.072   1.112  15.503  1.8569 -0.7321  1.0437
 1770TIP3    H226802   2.033   1.189  15.627 -1.2179  0.2791 -0.4331
 1771TIP3   OH226803   3.388   4.116  15.397  0.1120  0.3022  0.1112
 1771TIP3    H126804   3.365   4.199  15.356 -0.7092  1.0785  1.9945
 1771TIP3    H226805   3.331   4.051  15.355  3.4811 -0.2442 -4.2775
 1772TIP3   OH226806   6.394   4.208   3.390  0.0869  0.5827  0.1241
 1772TIP3    H126807   6.361   4.295   3.367 -1.2434  0.3287  0.9381
 1772TIP3    H226808   6.474   4.198   3.339 -1.6161  0.8097 -2.7896
 1773TIP3   OH226809   4.030   5.502  12.717 -0.0625  0.0906 -0.2584
 1773TIP3    H126810   4.048   5.585  12.674 -1.7811  0.0757 -1.0707
 1773TIP3    H226811   3.935   5.493  12.714 -0.0093 -1.2816  1.0120
 1774TIP3   OH226812   4.255   1.953  14.653  0.4083 -0.0445  0.1989
 1774TIP3    H126813   4.342   1.991  14.640  0.4764 -0.3345 -0.2451
 1774TIP3    H226814   4.197   2.006  14.599 -0.0402  1.3432  1.9446
 1775TIP3   OH226815   2.350   3.829  13.005  0.0817 -0.1591  0.4660
 1775TIP3    H126816   2.301   3.835  13.086  0.2312  0.3370  0.5228
 1775TIP3    H226817   2.440   3.850  13.030  0.5412 -2.0740  0.5614
 1776TIP3   OH226818   3.982   5.522   6.345 -0.1642  0.0784  0.4598
 1776TIP3    H126819   3.900   5.477   6.324 -1.6613  1.4712  2.8170
 1776TIP3    H226820   4.026   5.464   6.407 -0.6699  0.5173  1.2371
 1777TIP3   OH226821   0.345   0.188  12.936 -0.5175  0.2357  0.2454
 1777TIP3    H126822   0.283   0.156  12.870 -0.7902  0.1417  0.5463
 1777TIP3    H226823   0.420   0.129  12.928 -0.5264  0.2567 -0.0170
 1778TIP3   OH226824   1.383   0.993   4.411 -0.7405 -0.0767  0.1412
 1778TIP3    H126825   1.407   0.910   4.369 -0.2750  0.3007 -0.3546
 1778TIP3    H226826   1.293   1.009   4.381 -0.6652 -0.1688 -0.1440
 1779TIP3   OH226827   3.842   4.344  13.974 -0.2631 -0.8104  0.0594
 1779TIP3    H126828   3.826   4.358  14.067  1.0530 -0.0864  0.1946
 1779TIP3    H226829   3.883   4.258  13.970 -1.0898 -1.2202  0.0383
 1780TIP3   OH226830   6.464   6.265  16.020  0.6883 -0.1199 -0.3452
 1780TIP3    H126831   6.416   6.346  16.037 -3.6978 -2.1401 -1.4612
 1780TIP3    H226832   6.508   6.280  15.937 -0.9047  0.8558 -1.0593
 1781TIP3   OH226833   3.998   5.540  11.362  0.1375 -1.0206 -0.2396
 1781TIP3    H126834   4.060   5.593  11.411 -0.7325  1.2231 -1.3819
 1781TIP3    H226835   3.926   5.524  11.423 -0.9428  1.7549 -0.6353
 1782TIP3   OH226836   0.274   5.838  16.976  0.4218 -0.3236 -0.3330
 1782TIP3    H126837   0.214   5.786  17.028 -0.0543  1.9320  1.5620
 1782TIP3    H226838   0.218   5.892  16.921  0.8296 -0.5563 -0.9809
 1783TIP3   OH226839   5.685   5.369   0.150 -0.2453 -0.1987 -0.2503
 1783TIP3    H126840   5.704   5.359   0.243  0.3889 -1.6551 -0.5002
 1783TIP3    H226841   5.597   5.333   0.138 -0.0777 -0.6012 -0.3003
 1784TIP3   OH226842   2.661   3.118  14.053  0.1939 -0.0935 -0.0517
 1784TIP3    H126843   2.590   3.060  14.081 -1.1294  2.2605  1.7656
 1784TIP3    H226844   2.617   3.198  14.024  2.0460  1.2679  0.6717
 1785TIP3   OH226845   1.903   3.218   1.396 -0.1372  0.5415 -0.1867
 1785TIP3    H126846   1.895   3.193   1.489 -2.1376  3.1767  0.4558
 1785TIP3    H226847   1.967   3.289   1.396  0.7023 -0.1952 -1.0305
 1786TIP3   OH226848   4.112   1.804  13.914 -0.4921  0.2319  0.0043
 1786TIP3    H126849   4.142   1.894  13.919  2.3376 -0.6107  0.1587
 1786TIP3    H226850   4.128   1.768  14.001  1.2107 -1.1464 -0.8275
 1787TIP3   OH226851   6.365   4.098   0.298  0.5485 -0.2150  0.1043
 1787TIP3    H126852   6.295   4.033   0.290  0.0611  0.2193  0.6899
 1787TIP3    H226853   6.414   4.070   0.375  1.2789 -0.7433 -0.5355
 1788TIP3   OH226854   0.411   2.608   5.747  0.3596  0.1208 -0.0148
 1788TIP3    H126855   0.454   2.574   5.668  0.3025  1.4245 -0.6344
 1788TIP3    H226856   0.459   2.569   5.820  0.5257 -0.9701 -0.6965
 1789TIP3   OH226857   1.037   6.679   6.176 -0.4697  0.1081  0.0499
 1789TIP3    H126858   0.984   6.607   6.141 -0.7952  0.1191  0.5148
 1789TIP3    H226859   1.082   6.715   6.099  1.9179 -2.3689  0.1397
 1790TIP3   OH226860   4.151   4.093  15.616 -0.2881  0.2141 -0.7034
 1790TIP3    H126861   4.231   4.059  15.576 -0.3164 -0.0373 -0.5469
 1790TIP3    H226862   4.108   4.016  15.653 -0.1726  0.4730 -0.0316
 1791TIP3   OH226863   4.236   1.775   5.334 -0.5502 -0.1363 -0.4934
 1791TIP3    H126864   4.180   1.705   5.368 -1.7295  1.1871  0.4380
 1791TIP3    H226865   4.323   1.755   5.368 -1.1585 -0.3702  1.0241
 1792TIP3   OH226866   5.099   5.906   5.548 -0.2987  0.3328 -0.1169
 1792TIP3    H126867   5.118   5.841   5.480  2.5275 -0.1391  0.9949
 1792TIP3    H226868   5.053   5.856   5.616 -1.4105  0.3713 -0.8191
 1793TIP3   OH226869   0.456   3.860  14.173 -0.1931 -0.4766 -0.7328
 1793TIP3    H126870   0.482   3.885  14.261 -0.7079  2.2534 -1.2709
 1793TIP3    H226871   0.364   3.837  14.180 -0.0182 -1.1127 -0.4354
 1794TIP3   OH226872   3.013   3.556   3.317  0.0470  0.3969 -0.7341
 1794TIP3    H126873   3.073   3.525   3.384  1.4373  2.5979 -0.8512
 1794TIP3    H226874   3.061   3.626   3.272 -1.5669  0.3181 -2.7337
 1795TIP3   OH226875   3.730   1.820   5.438 -0.0396  0.1514  0.3154
 1795TIP3    H126876   3.772   1.748   5.485 -1.1391  0.6310  2.1602
 1795TIP3    H226877   3.756   1.809   5.347  0.9953 -1.7134  0.7987
 1796TIP3   OH226878   2.841   1.116   5.582  0.6661  0.3783 -0.0607
 1796TIP3    H126879   2.862   1.042   5.524  2.6068  1.3596 -0.6972
 1796TIP3    H226880   2.765   1.156   5.542  1.0952  0.1660 -1.1364
 1797TIP3   OH226881   6.706   3.296   5.001  0.2668  0.2983 -0.0325
 1797TIP3    H126882   6.678   3.205   4.987  0.6699 -0.0830  1.4246
 1797TIP3    H226883   6.792   3.288   5.042 -0.1360  1.3116  1.0509
 1798TIP3   OH226884   3.180   5.489  16.857  0.0321 -0.4989 -0.4590
 1798TIP3    H126885   3.198   5.396  16.842  2.2241 -0.0729 -0.9148
 1798TIP3    H226886   3.245   5.534  16.803  0.5576  1.2580  1.5349
 1799TIP3   OH226887   2.133   2.720  14.994  0.2750  0.9929  0.1748
 1799TIP3    H126888   2.193   2.794  14.993 -1.5057  2.5204 -0.6109
 1799TIP3    H226889   2.053   2.754  14.955 -1.0583 -1.0025  1.0033
 1800TIP3   OH226890   6.201   5.400   4.867 -0.8132 -0.3332 -0.2184
 1800TIP3    H126891   6.183   5.423   4.958 -1.3204 -1.9384  0.1050
 1800TIP3    H226892   6.295   5.382   4.865 -0.8529 -0.5698  0.0468
 1801TIP3   OH226893   6.073   5.374  11.552  0.1147  0.8579  0.2745
 1801TIP3    H126894   6.037   5.300  11.503 -0.4082  0.5739  1.0573
 1801TIP3    H226895   6.163   5.382  11.523  1.3076 -2.2964  2.6279
 1802TIP3   OH226896   5.095   5.386   3.914  0.2921  0.1336  0.3803
 1802TIP3    H126897   5.186   5.392   3.943  0.3583  0.5695  0.0990
 1802TIP3    H226898   5.078   5.293   3.907  0.6633  0.0459  0.6143
 1803TIP3   OH226899   5.531   5.420  13.207 -0.8207 -0.2710  0.3481
 1803TIP3    H126900   5.581   5.448  13.284 -0.1473  2.6037 -0.9967
 1803TIP3    H226901   5.579   5.345  13.172  0.0769 -0.2509  1.4996
 1804TIP3   OH226902   2.174   4.845  14.957 -0.0618 -0.0021  0.1870
 1804TIP3    H126903   2.133   4.844  14.871 -0.6934  0.8750  0.4625
 1804TIP3    H226904   2.266   4.865  14.939 -0.4919  1.8355 -0.2079
 1805TIP3   OH226905   5.865   4.356   1.258  0.0424  0.6144  0.2088
 1805TIP3    H126906   5.934   4.423   1.260 -1.3425  2.1566 -0.8460
 1805TIP3    H226907   5.899   4.286   1.314  3.1698  0.5409 -1.5301
 1806TIP3   OH226908   4.551   6.802  11.411 -0.2160 -0.2577  0.0028
 1806TIP3    H126909   4.485   6.830  11.474 -1.2405 -1.4193 -0.5101
 1806TIP3    H226910   4.632   6.843  11.441 -0.9735  0.4040  1.2129
 1807TIP3   OH226911   2.720   3.102   4.334 -0.3574  0.5823 -0.0514
 1807TIP3    H126912   2.760   3.018   4.310  1.1722  1.3968 -0.4622
 1807TIP3    H226913   2.702   3.145   4.251 -2.6064  0.0592  0.0997
 1808TIP3   OH226914   4.021   4.467  11.396 -0.1058  0.1432  0.0566
 1808TIP3    H126915   4.105   4.427  11.415 -0.8051 -0.9571  1.0053
 1808TIP3    H226916   3.958   4.396  11.404 -1.2148  1.0983  0.1599
 1809TIP3   OH226917   1.470   4.719  10.908  0.2205 -0.5205  0.2230
 1809TIP3    H126918   1.376   4.700  10.906  0.5160 -2.0609  0.0497
 1809TIP3    H226919   1.481   4.792  10.847 -1.0820  0.8460  1.5459
 1810TIP3   OH226920   3.180   5.357  10.739 -0.0544 -0.3501 -0.7630
 1810TIP3    H126921   3.120   5.432  10.735 -0.6060 -0.7273  0.1330
 1810TIP3    H226922   3.126   5.282  10.716  0.0103 -0.7146  0.2062
 1811TIP3   OH226923   2.953   5.627   3.334 -0.5656  0.4837 -0.7149
 1811TIP3    H126924   2.968   5.720   3.317  1.7832  0.4628  0.7588
 1811TIP3    H226925   3.006   5.608   3.411 -2.3160 -1.7310  0.0584
 1812TIP3   OH226926   1.475   3.481   4.249 -0.0394 -0.2122  0.1120
 1812TIP3    H126927   1.417   3.511   4.320  1.6558 -2.5690  2.6916
 1812TIP3    H226928   1.415   3.442   4.185 -1.4989  0.0621  1.2372
 1813TIP3   OH226929   4.292   3.604   0.897 -0.1876 -0.2083  0.3616
 1813TIP3    H126930   4.356   3.556   0.950  0.8427 -0.6203 -1.1910
 1813TIP3    H226931   4.341   3.632   0.820 -1.6554  0.3447 -0.4106
 1814TIP3   OH226932   3.346   6.488  11.922 -0.1072  0.1052  0.0132
 1814TIP3    H126933   3.331   6.434  11.844 -0.0453 -1.2218  0.8802
 1814TIP3    H226934   3.423   6.541  11.901 -0.0859 -0.2483 -0.8239
 1815TIP3   OH226935   1.707   2.088  13.844 -0.5150 -0.2164  0.0718
 1815TIP3    H126936   1.654   2.158  13.804 -2.3549 -1.4475  0.2343
 1815TIP3    H226937   1.691   2.097  13.938 -1.4617 -1.3253  0.0465
 1816TIP3   OH226938   0.301   3.427  12.964  0.0490  0.3547  0.3517
 1816TIP3    H126939   0.268   3.378  13.040 -1.1323  0.3550 -0.1510
 1816TIP3    H226940   0.295   3.519  12.990 -0.0207  0.3423  0.3772
 1817TIP3   OH226941   3.125   6.057   3.145  0.0175  0.0498  0.2008
 1817TIP3    H126942   3.094   6.105   3.068  0.2117  1.1054  0.7721
 1817TIP3    H226943   3.215   6.087   3.157  0.2110 -0.6099  0.4604
 1818TIP3   OH226944   2.824   0.943  16.023 -0.0883 -0.0618  0.2790
 1818TIP3    H126945   2.745   0.992  16.048  0.7364  0.4677  2.0568
 1818TIP3    H226946   2.791   0.866  15.978 -1.5466  0.8107 -0.2267
 1819TIP3   OH226947   5.122   5.468   3.577  0.0006 -0.2833 -0.0856
 1819TIP3    H126948   5.088   5.385   3.612  0.5253 -0.0448  1.0094
 1819TIP3    H226949   5.058   5.534   3.603 -0.1891 -0.2653 -0.5766
 1820TIP3   OH226950   3.696   6.041   5.362  0.3477  0.3719 -0.6413
 1820TIP3    H126951   3.782   6.040   5.319  1.7931 -1.2473  2.0036
 1820TIP3    H226952   3.658   5.955   5.342 -0.6560  1.0299 -1.6860
 1821TIP3   OH226953   2.445   0.859  13.693 -0.4425  0.2993 -0.0270
 1821TIP3    H126954   2.536   0.873  13.720 -0.2058  0.2254 -0.7488
 1821TIP3    H226955   2.449   0.781  13.637 -0.5269  1.6639 -2.0636
 1822TIP3   OH226956   5.708   0.321   5.773 -0.3333  0.2707 -0.5474
 1822TIP3    H126957   5.732   0.294   5.684 -1.2687 -2.6492 -0.0322
 1822TIP3    H226958   5.791   0.344   5.814  0.3092  0.1541 -1.7192
 1823TIP3   OH226959   5.362   4.890  16.331 -0.0053  0.0266  0.0100
 1823TIP3    H126960   5.310   4.819  16.367 -0.3906 -0.8642 -2.1312
 1823TIP3    H226961   5.302   4.964  16.327  0.1916  0.3066  1.5826
 1824TIP3   OH226962   2.992   1.941   5.064 -0.3193 -0.1272 -0.6457
 1824TIP3    H126963   2.942   2.022   5.062  1.1265  0.7873 -1.0357
 1824TIP3    H226964   2.927   1.873   5.082 -1.4208  1.2085  0.7101
 1825TIP3   OH226965   5.377   3.889  14.899 -0.3173 -0.3243 -1.0735
 1825TIP3    H126966   5.454   3.854  14.943 -0.5378  1.3195  0.7775
 1825TIP3    H226967   5.382   3.984  14.913 -1.1648  0.1505 -3.4639
 1826TIP3   OH226968   3.614   1.742  10.719 -0.2798  0.4036 -0.1905
 1826TIP3    H126969   3.538   1.799  10.720 -0.0603  0.8988 -2.9820
 1826TIP3    H226970   3.677   1.788  10.663  1.3201 -0.8915  0.4799
 1827TIP3   OH226971   2.769   3.651   0.459  0.1717 -0.1667  0.5361
 1827TIP3    H126972   2.793   3.560   0.469  0.2728 -0.1148  0.7726
 1827TIP3    H226973   2.807   3.678   0.376 -2.1826 -1.1004 -0.9286
 1828TIP3   OH226974   5.583   3.441  17.120 -0.0958 -0.3794 -0.2185
 1828TIP3    H126975   5.641   3.502  17.166  0.7394 -0.8246 -0.6549
 1828TIP3    H226976   5.634   3.412  17.044 -0.4785 -1.5710 -0.0475
 1829TIP3   OH226977   4.185   5.741  10.805 -0.5794  0.3013  0.4881
 1829TIP3    H126978   4.101   5.785  10.788 -0.3832  2.8424  4.7491
 1829TIP3    H226979   4.161   5.665  10.857 -0.3363 -0.1783 -0.0920
 1830TIP3   OH226980   4.178   4.905   2.878  0.1342 -0.4505 -0.9632
 1830TIP3    H126981   4.114   4.919   2.949  0.0407 -0.4990 -1.0376
 1830TIP3    H226982   4.138   4.839   2.823  0.9052 -1.5906 -0.1974
 1831TIP3   OH226983   0.791   2.215   0.876  0.1187 -0.2637 -0.7492
 1831TIP3    H126984   0.734   2.208   0.799  0.2271 -4.6329 -0.6934
 1831TIP3    H226985   0.731   2.206   0.950  0.3648  0.4528 -0.4644
 1832TIP3   OH226986   0.609   0.407   4.101  0.0206 -0.3261 -0.2923
 1832TIP3    H126987   0.592   0.315   4.121  1.7826 -0.3432  1.4710
 1832TIP3    H226988   0.524   0.441   4.073 -1.7731 -1.5120  3.0434
 1833TIP3   OH226989   2.374   6.093   3.501  0.1158  0.3319 -0.5949
 1833TIP3    H126990   2.439   6.027   3.524 -0.9704 -0.9381 -1.0418
 1833TIP3    H226991   2.421   6.176   3.507  1.6874 -0.5171 -0.6005
 1834TIP3   OH226992   5.814   3.155  12.798 -0.1484  0.0243  0.2169
 1834TIP3    H126993   5.782   3.231  12.749  1.1405 -0.2153 -1.0560
 1834TIP3    H226994   5.738   3.097  12.803 -0.4752  0.3227 -0.9934
 1835TIP3   OH226995   3.178   4.907  17.043  0.0597  0.1858 -0.8294
 1835TIP3    H126996   3.117   4.980  17.031  0.4784  0.8054  0.6465
 1835TIP3    H226997   3.182   4.866  16.957 -0.6973  1.4966 -1.5302
 1836TIP3   OH226998   0.950   4.745  11.806 -0.2356  0.5562 -0.0971
 1836TIP3    H126999   0.920   4.831  11.776 -1.4280 -0.0405 -0.6850
 1836TIP3    H227000   1.025   4.726  11.749 -0.8562  0.5924 -0.9513
 1837TIP3   OH227001   2.065   6.803  15.895  0.5833  0.0514  0.4532
 1837TIP3    H127002   2.128   6.758  15.952  0.6255 -0.4544  0.0196
 1837TIP3    H227003   2.107   6.802  15.809  0.4150  0.5919  0.3645
 1838TIP3   OH227004   3.447   3.283   4.985 -1.3612  0.1012 -0.0009
 1838TIP3    H127005   3.408   3.326   5.062 -2.2345  2.0471 -1.4552
 1838TIP3    H227006   3.452   3.190   5.010 -0.3936  0.7963  2.8926
 1839TIP3   OH227007   2.369   4.105  14.997  0.2040 -0.4581  0.1786
 1839TIP3    H127008   2.315   4.026  14.993  0.7179 -0.8011 -0.1383
 1839TIP3    H227009   2.392   4.114  15.089 -2.3799  1.0697  0.7589
 1840TIP3   OH227010   3.221   1.107   3.125 -0.2303  0.3530  0.8041
 1840TIP3    H127011   3.126   1.097   3.127 -0.0492 -2.5815  0.0416
 1840TIP3    H227012   3.251   1.056   3.201  0.8070 -1.3128 -0.6618
 1841TIP3   OH227013   5.657   4.891  10.400 -0.2200  0.1327  0.1389
 1841TIP3    H127014   5.602   4.813  10.407  0.5245 -0.4173  0.0222
 1841TIP3    H227015   5.684   4.910  10.490  0.0792 -0.1070  0.1025
 1842TIP3   OH227016   0.187   4.610   3.936  0.2531 -0.8971 -0.1142
 1842TIP3    H127017   0.183   4.615   4.032  0.0586 -3.2303  0.0664
 1842TIP3    H227018   0.277   4.634   3.914 -0.0608  0.9945  0.4951
 1843TIP3   OH227019   3.293   1.804   4.737 -0.5758  0.3133  0.2156
 1843TIP3    H127020   3.214   1.784   4.788 -1.7327 -0.3308 -1.7034
 1843TIP3    H227021   3.350   1.850   4.798 -2.4694  0.8825  1.6634
 1844TIP3   OH227022   0.311   1.184  13.267  0.0432 -0.1342 -0.1626
 1844TIP3    H127023   0.345   1.211  13.182  3.5821 -3.5476 -0.1162
 1844TIP3    H227024   0.219   1.165  13.251 -0.0170  1.7284 -2.5240
 1845TIP3   OH227025   1.226   3.718  15.569  0.6005  0.2101  0.1208
 1845TIP3    H127026   1.277   3.682  15.497 -1.9073  0.0082 -1.6879
 1845TIP3    H227027   1.189   3.642  15.614 -0.2585  0.3808 -0.2763
 1846TIP3   OH227028   2.799   3.879  11.532 -0.1081 -0.1717  0.0818
 1846TIP3    H127029   2.866   3.813  11.549  0.6314  0.8995  1.6460
 1846TIP3    H227030   2.811   3.903  11.441  1.2484 -0.4369  0.1729
 1847TIP3   OH227031   4.497   1.443  12.347  0.2065  0.3920  0.7772
 1847TIP3    H127032   4.542   1.423  12.265  1.5179 -2.3887  2.0394
 1847TIP3    H227033   4.566   1.474  12.405 -0.4894  1.1505  1.2263
 1848TIP3   OH227034   3.021   3.150  16.033 -0.2025  0.7951 -0.2378
 1848TIP3    H127035   2.998   3.059  16.052  1.7240  0.5736  1.3857
 1848TIP3    H227036   2.949   3.201  16.072 -0.4208  0.0236  0.3998
 1849TIP3   OH227037   3.547   4.621  14.767  0.4719 -0.3029  0.2224
 1849TIP3    H127038   3.528   4.528  14.781  0.1667  0.0364  2.3983
 1849TIP3    H227039   3.487   4.648  14.698 -1.1062 -1.2089  1.1808
 1850TIP3   OH227040   5.370   3.375  12.420 -0.7815 -0.2720  0.7504
 1850TIP3    H127041   5.352   3.436  12.348 -1.3196 -2.8747 -1.4747
 1850TIP3    H227042   5.372   3.431  12.498 -0.7052  2.6391 -1.1644
 1851TIP3   OH227043   3.097   2.607   1.816 -0.1733 -1.1209  0.2367
 1851TIP3    H127044   3.054   2.522   1.807 -0.5857 -0.9232  0.3571
 1851TIP3    H227045   3.168   2.604   1.752 -0.5904 -1.2964 -0.2203
 1852TIP3   OH227046   6.322   2.215   6.113 -0.3982  0.6285 -0.4616
 1852TIP3    H127047   6.320   2.311   6.116  1.0701  0.6658  0.2597
 1852TIP3    H227048   6.411   2.194   6.087 -0.1219 -0.5458  1.2798
 1853TIP3   OH227049   3.728   0.477  13.593  0.3063  0.2431 -0.6370
 1853TIP3    H127050   3.692   0.485  13.682  0.8971 -0.0754 -0.3630
 1853TIP3    H227051   3.823   0.475  13.606  0.4416  1.2923 -1.3623
 1854TIP3   OH227052   5.056   0.895   0.707 -0.2595 -0.8439 -0.3888
 1854TIP3    H127053   5.023   0.811   0.739 -0.0722 -1.0239 -0.6630
 1854TIP3    H227054   5.012   0.960   0.761 -0.3622 -1.1211 -0.1349
 1855TIP3   OH227055   4.732   3.616  13.251  0.0190  0.0030  0.2249
 1855TIP3    H127056   4.795   3.556  13.290 -0.8112 -1.8568 -1.1347
 1855TIP3    H227057   4.687   3.564  13.184 -0.3402  2.3019 -1.4714
 1856TIP3   OH227058   3.422   5.056   0.936  0.1012  0.4259  0.1949
 1856TIP3    H127059   3.518   5.064   0.940  0.3582 -2.0636  0.4323
 1856TIP3    H227060   3.403   5.053   0.842  0.2359  1.0816  0.1448
 1857TIP3   OH227061   5.040   1.989  10.750 -0.5461 -0.4573  0.0384
 1857TIP3    H127062   5.044   1.909  10.803  2.7496 -0.9603 -0.7552
 1857TIP3    H227063   5.049   2.060  10.813 -0.7884 -0.8420  0.5151
 1858TIP3   OH227064   1.015   4.234   2.750 -0.3668  0.1018  0.4657
 1858TIP3    H127065   1.004   4.326   2.726  0.3871 -0.5971 -3.2805
 1858TIP3    H227066   0.948   4.188   2.699  1.1715 -1.6410 -0.0944
 1859TIP3   OH227067   2.199   5.934  15.701 -0.0266 -0.0105  0.0994
 1859TIP3    H127068   2.118   5.920  15.750 -0.0699  0.4482  0.1561
 1859TIP3    H227069   2.264   5.881  15.747 -0.1132  0.2520  0.5319
 1860TIP3   OH227070   1.852   0.487  12.043  0.5163  0.5129 -0.1075
 1860TIP3    H127071   1.845   0.514  12.135  3.7339 -3.8651  1.7692
 1860TIP3    H227072   1.932   0.530  12.011  1.3043 -0.5698  0.3448
 1861TIP3   OH227073   5.299   1.083  11.678  0.4541 -0.0458  0.6309
 1861TIP3    H127074   5.347   1.149  11.628 -0.1169  0.0975  0.2691
 1861TIP3    H227075   5.351   1.071  11.758  0.8768  0.3972  0.4255
 1862TIP3   OH227076   6.490   5.818   0.905  0.1191 -0.3183 -0.1279
 1862TIP3    H127077   6.552   5.747   0.919 -0.0405 -0.4836 -0.2425
 1862TIP3    H227078   6.536   5.896   0.934  1.0015 -0.2017 -1.7276
 1863TIP3   OH227079   4.549   4.953  13.965 -0.1475  0.4779  0.6542
 1863TIP3    H127080   4.539   5.010  14.042 -0.2208  0.0844  0.9414
 1863TIP3    H227081   4.543   5.012  13.890 -0.7716  0.7757  0.9329
 1864TIP3   OH227082   0.481   0.175   4.884 -0.2398  0.2991  0.6636
 1864TIP3    H127083   0.535   0.210   4.814  0.3878 -0.8279  0.5531
 1864TIP3    H227084   0.418   0.244   4.903  0.3952  1.1197 -0.1238
 1865TIP3   OH227085   0.555   1.012  16.030 -0.3119 -0.0070 -0.1153
 1865TIP3    H127086   0.624   1.051  15.976 -0.6218  0.7601  0.0204
 1865TIP3    H227087   0.584   0.922  16.045 -0.1878 -0.2375 -1.5239
 1866TIP3   OH227088   0.165   4.467   6.551  0.1796  0.5269  0.5503
 1866TIP3    H127089   0.087   4.488   6.500 -0.1253 -1.0182  0.3369
 1866TIP3    H227090   0.193   4.381   6.518  1.4501  0.6422  1.2491
 1867TIP3   OH227091   0.178   0.239   3.857  0.0586  0.3769 -0.7471
 1867TIP3    H127092   0.255   0.241   3.799 -1.4342 -2.0956 -3.0222
 1867TIP3    H227093   0.103   0.251   3.799 -1.4503 -0.2824  0.9638
 1868TIP3   OH227094   0.858   0.223  14.419 -0.5484 -0.2517 -0.3954
 1868TIP3    H127095   0.885   0.310  14.448 -0.8734 -0.3990  0.3708
 1868TIP3    H227096   0.853   0.171  14.499 -1.5082 -0.6631 -0.7059
 1869TIP3   OH227097   3.739   1.486   2.604 -0.1824  0.1945 -0.2865
 1869TIP3    H127098   3.696   1.449   2.527 -0.9671  0.1429  0.1687
 1869TIP3    H227099   3.667   1.513   2.661  0.3610  1.7865 -0.3071
 1870TIP3   OH227100   2.906   6.519  16.440  0.1643 -0.2068 -0.2481
 1870TIP3    H127101   2.894   6.613  16.444  0.6843 -0.1710  0.8461
 1870TIP3    H227102   2.967   6.499  16.511 -0.1240 -1.3938 -0.3000
 1871TIP3   OH227103   2.076   2.671   1.705  0.1904  0.6040 -0.3348
 1871TIP3    H127104   1.999   2.679   1.761 -1.1758 -0.0381 -2.0216
 1871TIP3    H227105   2.071   2.582   1.670  1.5048  0.6745 -0.7715
 1872TIP3   OH227106   4.300   2.848  16.311  0.4462 -0.0564  0.1008
 1872TIP3    H127107   4.380   2.901  16.315 -0.3552  1.1349  1.2595
 1872TIP3    H227108   4.289   2.828  16.218  1.8639  0.0801 -0.1213
 1873TIP3   OH227109   0.947   2.252   3.552  0.7351  0.1626  0.0983
 1873TIP3    H127110   0.985   2.339   3.561 -0.9059  0.9086  0.1852
 1873TIP3    H227111   0.855   2.263   3.579  1.1939 -2.2536  3.3176
 1874TIP3   OH227112   0.663   6.828   5.271 -0.1504 -0.2202 -0.4068
 1874TIP3    H127113   0.624   6.831   5.359  1.3725 -1.6048  0.3712
 1874TIP3    H227114   0.608   6.765   5.223  0.4251 -1.3459  0.3528
 1875TIP3   OH227115   4.396   5.807  15.500  0.5961  0.0365 -0.1318
 1875TIP3    H127116   4.457   5.842  15.435 -0.0990  0.5774 -0.5025
 1875TIP3    H227117   4.401   5.868  15.573  2.4780 -1.3538  0.9881
 1876TIP3   OH227118   6.614   0.899  10.774 -0.2794  0.0715  0.2306
 1876TIP3    H127119   6.612   0.810  10.740  0.9923 -0.2823  1.0149
 1876TIP3    H227120   6.593   0.890  10.866  0.5538  0.4734  0.4739
 1877TIP3   OH227121   0.088   0.459  12.183  0.0692 -0.0895  0.3376
 1877TIP3    H127122   0.156   0.525  12.169  1.6553 -1.1454  2.5068
 1877TIP3    H227123   0.084   0.412  12.100 -0.0717  1.7358 -0.7693
 1878TIP3   OH227124   3.846   6.204  17.167 -0.2394  0.9372  0.0695
 1878TIP3    H127125   3.908   6.278  17.167 -1.0518  1.6810 -1.7962
 1878TIP3    H227126   3.760   6.245  17.160 -0.8267 -0.1607  0.6214
 1879TIP3   OH227127   0.389   5.737  14.823  0.0917  0.3759  0.4014
 1879TIP3    H127128   0.362   5.770  14.737 -2.4779  2.2905  1.7992
 1879TIP3    H227129   0.367   5.808  14.884 -1.2515 -2.0864  3.0477
 1880TIP3   OH227130   5.959   4.404  17.012  0.1788  0.3852 -0.5164
 1880TIP3    H127131   6.036   4.355  17.040 -0.2444  0.7718  1.4631
 1880TIP3    H227132   5.893   4.337  16.994  0.3967  0.1208 -0.3446
 1881TIP3   OH227133   0.290   1.423  14.864 -0.5938  0.1949  0.8602
 1881TIP3    H127134   0.248   1.478  14.931 -0.5597 -0.8162  1.7368
 1881TIP3    H227135   0.352   1.482  14.820 -0.6620  0.9009  1.6879
 1882TIP3   OH227136   0.441   1.663   2.992  0.7816  0.6426  0.6821
 1882TIP3    H127137   0.350   1.686   2.975  0.5673  0.1805  1.1637
 1882TIP3    H227138   0.473   1.733   3.050  0.3890  0.2041  1.4411
 1883TIP3   OH227139   3.161   3.765   5.247  0.2878 -0.2734 -0.2260
 1883TIP3    H127140   3.146   3.745   5.154  0.1487 -0.5993 -0.1329
 1883TIP3    H227141   3.168   3.679   5.289 -0.4301 -0.1314  0.1957
 1884TIP3   OH227142   2.071   1.198  15.014 -0.0503 -0.0175  1.1153
 1884TIP3    H127143   2.128   1.205  14.937  1.4841 -2.1297  1.9885
 1884TIP3    H227144   2.129   1.170  15.085 -1.8289 -0.3015  2.5277
 1885TIP3   OH227145   4.536   0.277   4.094  0.1833  0.1553 -0.6671
 1885TIP3    H127146   4.474   0.293   4.023 -0.1274  1.9581 -0.0451
 1885TIP3    H227147   4.617   0.320   4.065 -0.6937  3.3027  1.0930
 1886TIP3   OH227148   1.108   5.784  13.209  0.1374 -0.3549  0.4404
 1886TIP3    H127149   1.050   5.711  13.229 -0.0115  0.1248  1.8644
 1886TIP3    H227150   1.054   5.844  13.157 -0.1219 -0.6880  0.3271
 1887TIP3   OH227151   1.436   5.131   2.958 -0.0048 -0.3556 -0.6272
 1887TIP3    H127152   1.455   5.050   2.911  0.8935  0.4286 -1.6626
 1887TIP3    H227153   1.402   5.191   2.891  0.6314  0.5567 -0.1547
 1888TIP3   OH227154   0.884   0.378   5.323 -0.1667  0.0854  0.8623
 1888TIP3    H127155   0.975   0.363   5.298  0.1589 -0.2575  2.1929
 1888TIP3    H227156   0.872   0.473   5.314  0.5560  0.2381  1.4345
 1889TIP3   OH227157   0.119   1.957   1.639  0.3087 -0.0125  0.0502
 1889TIP3    H127158   0.157   1.869   1.641  0.0848 -0.1324  2.4883
 1889TIP3    H227159   0.047   1.951   1.576  1.4867 -1.0099 -1.2475
 1890TIP3   OH227160   0.338   1.384   6.049  0.2885  0.6630  0.3553
 1890TIP3    H127161   0.282   1.314   6.084  0.6635  0.9239  1.4897
 1890TIP3    H227162   0.279   1.437   5.995 -0.8113  1.4466  2.2292
 1891TIP3   OH227163   4.303   0.871  15.127  0.3888  0.7197  0.2294
 1891TIP3    H127164   4.381   0.887  15.074  1.0358  1.4911  1.3674
 1891TIP3    H227165   4.318   0.786  15.168 -0.9633 -0.8271 -2.1980
 1892TIP3   OH227166   4.481   2.632   2.600  0.4324  0.1469  0.4306
 1892TIP3    H127167   4.519   2.544   2.598  0.5200  0.1951 -0.5784
 1892TIP3    H227168   4.558   2.690   2.597  0.3661  0.2595  0.8717
 1893TIP3   OH227169   5.902   3.101   5.914  0.5227  0.4344  0.2813
 1893TIP3    H127170   5.962   3.062   5.977  0.6901  0.9565  0.4517
 1893TIP3    H227171   5.835   3.143   5.967  0.6264  0.8167  0.1166
 1894TIP3   OH227172   6.022   5.527   6.027 -0.8027 -0.5266  0.2851
 1894TIP3    H127173   6.076   5.479   6.090 -0.6782 -2.5932 -1.2724
 1894TIP3    H227174   5.932   5.508   6.055 -0.7421 -0.6872  0.3798
 1895TIP3   OH227175   0.135   3.057  14.153  0.0861  0.1220 -0.0971
 1895TIP3    H127176   0.172   3.131  14.105 -1.1502  0.6993 -0.2256
 1895TIP3    H227177   0.112   2.994  14.086  1.8607 -0.7581  0.0712
 1896TIP3   OH227178   6.734   6.305   3.138  0.0001  0.0219  0.3274
 1896TIP3    H127179   6.646   6.332   3.110  0.5315  3.6498  1.5602
 1896TIP3    H227180   6.719   6.245   3.210 -1.4657  0.2972  0.2752
 1897TIP3   OH227181   5.334   0.432  11.795  0.1554 -0.6470 -0.4862
 1897TIP3    H127182   5.274   0.359  11.809  0.9560 -1.2531 -0.1278
 1897TIP3    H227183   5.302   0.501  11.853  0.6180 -1.4559  0.7642
 1898TIP3   OH227184   4.382   1.829   3.554 -0.0256 -0.3559 -0.2797
 1898TIP3    H127185   4.460   1.842   3.608  0.1719 -0.3524 -0.5636
 1898TIP3    H227186   4.395   1.889   3.480 -2.3164  3.0273  1.7796
 1899TIP3   OH227187   2.618   0.279   0.283  0.4720 -0.2610 -0.8084
 1899TIP3    H127188   2.647   0.192   0.312 -1.4851 -0.9554 -0.8502
 1899TIP3    H227189   2.692   0.313   0.233  0.4534 -2.8577 -2.7640
 1900TIP3   OH227190   1.690   1.558   4.061  0.0586  0.3360 -0.1996
 1900TIP3    H127191   1.664   1.608   4.138  0.2795 -0.6003  0.4913
 1900TIP3    H227192   1.698   1.624   3.992 -1.3175  1.0225  0.2653
 1901TIP3   OH227193   2.979   3.431  13.060  0.1004  0.7739  0.3705
 1901TIP3    H127194   2.884   3.424  13.066 -0.0347  1.1794 -0.9681
 1901TIP3    H227195   3.012   3.370  13.126 -1.0802 -0.0784  0.2015
 1902TIP3   OH227196   3.432   2.757   0.577  0.2381 -0.3267 -0.4106
 1902TIP3    H127197   3.365   2.816   0.541  1.0704 -0.5372 -2.4365
 1902TIP3    H227198   3.408   2.747   0.670 -2.4668 -0.3459 -1.0335
 1903TIP3   OH227199   1.016   2.185  12.719  0.0868  0.0052  0.2555
 1903TIP3    H127200   0.993   2.093  12.723  0.8462 -0.1557  1.1610
 1903TIP3    H227201   1.014   2.206  12.626  1.7716 -1.4120 -0.1407
 1904TIP3   OH227202   1.218   1.922  12.952  0.1510  0.4172 -0.0406
 1904TIP3    H127203   1.194   1.997  13.008  3.0668  1.7430 -0.3838
 1904TIP3    H227204   1.310   1.907  12.971  0.7439 -0.3585 -3.1036
 1905TIP3   OH227205   2.643   1.300  16.699  0.0238 -0.0493 -0.2209
 1905TIP3    H127206   2.595   1.252  16.767 -0.7383  0.2382 -0.5434
 1905TIP3    H227207   2.586   1.294  16.622  1.0570 -0.7031 -0.9521
 1906TIP3   OH227208   1.175   4.670   5.371 -0.0517  0.0419 -0.2232
 1906TIP3    H127209   1.184   4.687   5.277  0.4892 -1.2861 -0.4416
 1906TIP3    H227210   1.080   4.665   5.385 -0.1270 -1.0032 -0.9689
 1907TIP3   OH227211   6.275   2.885  16.608 -0.2126  0.3065 -0.1878
 1907TIP3    H127212   6.233   2.828  16.544  0.9608 -0.3687 -0.3806
 1907TIP3    H227213   6.310   2.957  16.557  1.7200 -0.7971 -0.5305
 1908TIP3   OH227214   1.581   0.889  16.628 -0.4375  0.0738 -0.3049
 1908TIP3    H127215   1.615   0.978  16.643 -1.2713  0.6893 -1.8459
 1908TIP3    H227216   1.585   0.847  16.714 -0.4478  1.7522  0.5583
 1909TIP3   OH227217   1.258   5.782  12.869  0.3569  0.0796  0.5113
 1909TIP3    H127218   1.234   5.771  12.777  0.7497 -0.1857  0.4370
 1909TIP3    H227219   1.346   5.744  12.876 -0.4353 -1.7512  1.4057
 1910TIP3   OH227220   3.130   0.554  10.662  0.1656 -0.6983 -0.2252
 1910TIP3    H127221   3.065   0.499  10.705  0.3949  2.1638  4.4821
 1910TIP3    H227222   3.084   0.634  10.641  0.8186 -0.9423 -2.9439
 1911TIP3   OH227223   0.619   2.356   5.690 -0.0389  0.0714 -0.0838
 1911TIP3    H127224   0.589   2.384   5.776  1.3972  0.5631  0.2750
 1911TIP3    H227225   0.697   2.409   5.673  1.2156 -1.8174 -0.5296
 1912TIP3   OH227226   2.523   0.033  11.299 -0.3443  0.1576 -0.4726
 1912TIP3    H127227   2.471  -0.015  11.363  2.0524 -1.7415  0.1951
 1912TIP3    H227228   2.463   0.048  11.226 -2.1448 -0.8428  0.7354
 1913TIP3   OH227229   4.931   3.498  16.420 -0.1013  0.3764 -0.5642
 1913TIP3    H127230   5.003   3.550  16.385 -2.1737  1.8186 -3.0590
 1913TIP3    H227231   4.930   3.419  16.365  0.5984 -0.4767  0.6119
 1914TIP3   OH227232   2.487   1.049   1.738  0.3286 -0.3203  0.4845
 1914TIP3    H127233   2.491   1.020   1.646  1.5208  1.3863 -0.0632
 1914TIP3    H227234   2.471   1.143   1.732  0.8949 -0.1069  2.0212
 1915TIP3   OH227235   0.905   3.967  14.111 -0.4436 -0.1240  0.2271
 1915TIP3    H127236   0.927   4.054  14.146 -0.4676  0.6133 -1.4840
 1915TIP3    H227237   0.870   3.985  14.024  1.0529 -1.9386 -0.8273
 1916TIP3   OH227238   2.440   2.407  13.468 -0.2806 -0.0660 -0.0024
 1916TIP3    H127239   2.491   2.341  13.516 -1.1801 -1.3105 -0.6858
 1916TIP3    H227240   2.482   2.412  13.383  0.4717  1.1197  0.4114
 1917TIP3   OH227241   0.421   2.512  15.675 -0.2032  0.0364  0.6297
 1917TIP3    H127242   0.478   2.439  15.649 -0.8676 -0.2669  0.0218
 1917TIP3    H227243   0.468   2.553  15.748  0.7841 -0.2249  0.1551
 1918TIP3   OH227244   6.833   5.584   3.366  0.3536 -0.4396  0.2053
 1918TIP3    H127245   6.907   5.610   3.311 -1.6938  1.9892 -1.6323
 1918TIP3    H227246   6.761   5.571   3.304 -1.8578  1.6353  2.1545
 1919TIP3   OH227247   4.041   5.830   5.871 -0.0114 -0.0297  0.1679
 1919TIP3    H127248   3.995   5.778   5.936  0.5469  0.5487  1.0437
 1919TIP3    H227249   4.133   5.806   5.880  0.6464  2.6818  2.2354
 1920TIP3   OH227250   0.655   0.142  13.517 -0.1231  0.2457 -0.1032
 1920TIP3    H127251   0.636   0.051  13.539  1.2323 -0.0613 -0.1133
 1920TIP3    H227252   0.678   0.183  13.601  1.2782  0.0399 -0.3602
 1921TIP3   OH227253   6.167   0.171   5.155 -0.2107 -0.2758 -0.5034
 1921TIP3    H127254   6.192   0.102   5.217 -2.8242  1.4690  2.8821
 1921TIP3    H227255   6.230   0.241   5.171 -1.5217  0.5993  1.1938
 1922TIP3   OH227256   1.473   6.456   4.221  0.8529  0.0798  0.0502
 1922TIP3    H127257   1.538   6.492   4.281  1.6831 -0.7252 -0.3357
 1922TIP3    H227258   1.417   6.401   4.276  0.5555  0.6840  0.3634
 1923TIP3   OH227259   4.866   6.104   5.428 -0.3947  0.0922 -0.0210
 1923TIP3    H127260   4.904   6.157   5.357  1.0811 -1.1746 -0.2416
 1923TIP3    H227261   4.893   6.149   5.508 -0.7732  0.7050 -0.2323
 1924TIP3   OH227262   5.839   4.273   4.294 -0.0346 -0.0147  0.3589
 1924TIP3    H127263   5.849   4.345   4.355 -1.7601 -1.0661  1.9859
 1924TIP3    H227264   5.747   4.248   4.301 -0.4713  0.1714 -3.1445
 1925TIP3   OH227265   3.799   2.443  11.766 -0.3036  0.0292  0.1472
 1925TIP3    H127266   3.785   2.354  11.798  0.5261 -0.3280 -0.4585
 1925TIP3    H227267   3.748   2.448  11.686 -1.3873  0.5299  0.8413
 1926TIP3   OH227268   0.158   3.077  14.448 -0.6027 -0.0366  0.4094
 1926TIP3    H127269   0.082   3.037  14.490 -0.2919  0.5972  1.6245
 1926TIP3    H227270   0.147   3.058  14.355 -1.9641 -0.4150  0.6258
 1927TIP3   OH227271   5.097   6.356   0.664 -0.0897  0.0990  0.1085
 1927TIP3    H127272   5.015   6.392   0.628  0.4349  1.6325  0.3966
 1927TIP3    H227273   5.160   6.428   0.657  1.6818 -1.4795 -1.4686
 1928TIP3   OH227274   2.859   1.288   0.801 -0.5374  0.9449 -1.1452
 1928TIP3    H127275   2.838   1.277   0.708  0.1294  0.5153 -1.2516
 1928TIP3    H227276   2.927   1.354   0.803  2.6775 -2.0615 -1.4158
 1929TIP3   OH227277   0.465   1.674   0.909 -0.3098  0.2550  0.4419
 1929TIP3    H127278   0.400   1.617   0.952  0.7996 -0.0351  1.8128
 1929TIP3    H227279   0.531   1.614   0.876 -0.4093  0.5911 -0.3759
 1930TIP3   OH227280   3.636   4.061   4.899 -0.3197  0.1946 -0.2401
 1930TIP3    H127281   3.704   4.052   4.966 -0.3556  0.2034 -0.2022
 1930TIP3    H227282   3.645   4.151   4.868  0.6514 -0.2321 -1.2848
 1931TIP3   OH227283   4.115   1.685   4.423  0.4507 -0.5695  0.2475
 1931TIP3    H127284   4.069   1.667   4.341 -0.2464  3.1088 -0.3761
 1931TIP3    H227285   4.046   1.709   4.485  1.1236 -1.2682  1.2967
 1932TIP3   OH227286   2.716   4.061   2.214  0.5561 -0.5673  0.1037
 1932TIP3    H127287   2.689   4.150   2.236  1.7262  0.3199 -1.7162
 1932TIP3    H227288   2.709   4.012   2.296 -2.5557  0.5169  0.6364
 1933TIP3   OH227289   5.461   1.605   5.733  0.3764  0.6835 -0.7788
 1933TIP3    H127290   5.406   1.574   5.661  2.2973  0.1993 -2.1083
 1933TIP3    H227291   5.448   1.700   5.735 -1.1803  0.4928 -0.4286
 1934TIP3   OH227292   2.276   2.670   6.484  0.0505 -0.4802 -0.1244
 1934TIP3    H127293   2.300   2.715   6.564 -0.6240  0.2114 -0.2967
 1934TIP3    H227294   2.192   2.709   6.459  0.8259  0.1726 -1.8207
 1935TIP3   OH227295   6.033   0.335   0.919  0.5754 -0.1625 -0.5136
 1935TIP3    H127296   6.000   0.364   1.004 -1.7900  1.0845 -1.7491
 1935TIP3    H227297   6.126   0.356   0.920  0.7857 -0.9017  2.0220
 1936TIP3   OH227298   2.092   3.496   2.893 -0.0100 -0.8377  0.4348
 1936TIP3    H127299   2.180   3.464   2.874  0.1929 -0.9400  1.5045
 1936TIP3    H227300   2.061   3.440   2.964 -1.0678 -1.0033 -0.1373
 1937TIP3   OH227301   1.883   6.296   2.602 -0.3433 -0.1569  0.0428
 1937TIP3    H127302   1.864   6.203   2.617 -0.4433 -0.2036 -0.3614
 1937TIP3    H227303   1.939   6.297   2.525 -0.4991  0.1309 -0.0687
 1938TIP3   OH227304   1.372   6.491  15.855 -0.2076  0.3829 -0.2907
 1938TIP3    H127305   1.319   6.423  15.895 -1.3785  1.1992 -0.4088
 1938TIP3    H227306   1.344   6.494  15.764  2.4056 -1.4340 -1.2731
 1939TIP3   OH227307   4.618   1.164   2.401 -0.1170 -0.1708  0.3215
 1939TIP3    H127308   4.566   1.226   2.453  0.4592 -0.9009  1.7981
 1939TIP3    H227309   4.641   1.214   2.322  0.7771  1.7047  1.6927
 1940TIP3   OH227310   6.782   1.780  11.412  0.0667  0.1777  0.5027
 1940TIP3    H127311   6.872   1.805  11.434  0.8404 -0.6908 -1.4704
 1940TIP3    H227312   6.738   1.773  11.497  2.1413 -0.3878  1.6066
 1941TIP3   OH227313   6.513   1.628   0.710  0.2108  0.0579 -0.2722
 1941TIP3    H127314   6.481   1.709   0.670  0.1125  0.9400  1.5139
 1941TIP3    H227315   6.448   1.562   0.687 -1.2562  1.1319  0.6592
 1942TIP3   OH227316   2.418   1.953   2.656 -0.0108  0.4298  0.2450
 1942TIP3    H127317   2.423   2.036   2.608  1.4357  0.9602  1.2483
 1942TIP3    H227318   2.462   1.890   2.600 -0.9363  0.3643 -0.4321
 1943TIP3   OH227319   3.171   1.335   4.910  0.0533  0.7439 -0.1639
 1943TIP3    H127320   3.141   1.263   4.965 -0.0524  0.9455  0.0445
 1943TIP3    H227321   3.177   1.298   4.822  1.2778  0.1242  0.1567
 1944TIP3   OH227322   3.776   4.683   1.387  0.5090 -0.1675  0.5676
 1944TIP3    H127323   3.701   4.629   1.411  0.2909  0.4482  1.3356
 1944TIP3    H227324   3.764   4.764   1.438  0.8281  0.5915 -0.5406
 1945TIP3   OH227325   5.295   1.050   0.901 -0.2265 -0.0590  0.2899
 1945TIP3    H127326   5.252   1.103   0.833 -0.8032  0.1018  0.7676
 1945TIP3    H227327   5.290   0.960   0.867 -1.0081 -0.0547  0.3552
 1946TIP3   OH227328   6.689   0.377  16.999 -0.2221 -0.1228  0.1521
 1946TIP3    H127329   6.687   0.312  16.929  1.7636  1.4851 -1.5792
 1946TIP3    H227330   6.780   0.378  17.028 -0.3144  1.4543  0.5004
 1947TIP3   OH227331   2.709   6.459  12.956  0.1748  0.0066  0.4474
 1947TIP3    H127332   2.791   6.452  12.907 -0.3031  0.4019 -0.4298
 1947TIP3    H227333   2.697   6.553  12.969 -0.2973 -0.0294  0.2987
 1948TIP3   OH227334   1.414   4.452  16.884  0.4515  0.1488 -0.2295
 1948TIP3    H127335   1.392   4.366  16.919  1.5667  0.0578  0.2855
 1948TIP3    H227336   1.356   4.513  16.930 -0.1111 -0.2774 -0.3587
 1949TIP3   OH227337   2.683   6.604  16.857 -0.0565 -0.0487 -0.5620
 1949TIP3    H127338   2.598   6.561  16.853  0.2119 -0.6161 -0.2864
 1949TIP3    H227339   2.738   6.544  16.907  0.4610  0.3899 -0.5944
 1950TIP3   OH227340   0.409   1.604  14.440  0.6256  0.1547  0.5403
 1950TIP3    H127341   0.322   1.616  14.404  1.5221  1.5453 -1.2997
 1950TIP3    H227342   0.395   1.551  14.519 -1.8710  0.4941  0.4016
 1951TIP3   OH227343   0.382   0.660   3.238 -0.5334 -0.1393 -0.5749
 1951TIP3    H127344   0.461   0.614   3.267 -1.1439  0.0299  1.4977
 1951TIP3    H227345   0.415   0.744   3.205  0.2128 -0.3353 -0.3565
 1952TIP3   OH227346   4.949   3.897  15.808  0.3124  0.2643  0.2424
 1952TIP3    H127347   5.024   3.950  15.780  0.3508 -0.2081 -0.5591
 1952TIP3    H227348   4.980   3.850  15.885  1.3743 -1.1538 -1.0171
 1953TIP3   OH227349   6.034   0.386   4.604 -0.2336 -0.4136  0.3462
 1953TIP3    H127350   5.967   0.447   4.575 -0.3909 -0.4658  0.5976
 1953TIP3    H227351   6.100   0.441   4.647  1.1389 -0.0418 -2.0779
 1954TIP3   OH227352   5.781   0.024   4.381  0.1909  0.3872 -0.2419
 1954TIP3    H127353   5.748   0.111   4.404  0.7944  0.5907 -0.1013
 1954TIP3    H227354   5.834   0.040   4.303 -0.7110 -0.0659 -0.9606
 1955TIP3   OH227355   1.282   4.616   0.560 -0.0254 -0.5675  0.6119
 1955TIP3    H127356   1.197   4.614   0.518  0.5386 -1.0619 -0.5451
 1955TIP3    H227357   1.271   4.565   0.640 -0.3472 -2.2953 -0.4829
 1956TIP3   OH227358   6.294   1.163   5.313  0.1026  0.8347 -0.1252
 1956TIP3    H127359   6.374   1.202   5.349 -0.2775  1.2179  0.3253
 1956TIP3    H227360   6.318   1.138   5.224  0.6055  1.3417 -0.1428
 1957TIP3   OH227361   2.385   2.589  11.634 -0.8346 -0.6046 -0.3660
 1957TIP3    H127362   2.297   2.593  11.595 -0.9485 -1.4191 -0.1977
 1957TIP3    H227363   2.379   2.520  11.700 -0.9922  1.5251  1.9876
 1958TIP3   OH227364   2.794   3.685  15.122  0.1083 -0.4743  0.4419
 1958TIP3    H127365   2.807   3.780  15.131 -0.6114 -0.3976  0.6655
 1958TIP3    H227366   2.700   3.672  15.129  0.1107 -1.1206 -0.4547
 1959TIP3   OH227367   4.136   2.512  16.010  0.0437  0.3214 -0.2746
 1959TIP3    H127368   4.118   2.461  16.089 -1.1650 -1.6628 -1.7307
 1959TIP3    H227369   4.055   2.561  15.994  0.0824  0.2988 -0.5502
 1960TIP3   OH227370   6.466   5.000  12.851 -0.0593 -0.2982  0.0586
 1960TIP3    H127371   6.552   4.963  12.871 -0.0692  0.4371  1.6614
 1960TIP3    H227372   6.424   5.009  12.937 -1.6880 -0.5303 -0.6842
 1961TIP3   OH227373   4.915   6.194   0.375 -0.3380 -1.0002  0.0691
 1961TIP3    H127374   4.923   6.243   0.294 -0.0031  1.3020  1.3909
 1961TIP3    H227375   4.925   6.103   0.350 -1.2515 -0.4384 -2.5749
 1962TIP3   OH227376   6.534   3.850   1.597 -0.0695 -0.3012  0.2970
 1962TIP3    H127377   6.579   3.932   1.616 -1.8795  0.8876 -0.2872
 1962TIP3    H227378   6.604   3.786   1.584  1.5222  1.6807 -1.7040
 1963TIP3   OH227379   1.209   1.641  14.915 -0.0352  0.4309  0.2884
 1963TIP3    H127380   1.281   1.582  14.891 -0.4438 -0.2401  0.6768
 1963TIP3    H227381   1.251   1.727  14.926  1.3551 -0.4976  3.6573
 1964TIP3   OH227382   4.340   2.152   2.546 -0.3862  0.2057  0.0655
 1964TIP3    H127383   4.339   2.243   2.516 -0.1171 -0.2896 -1.5507
 1964TIP3    H227384   4.250   2.136   2.576 -0.5815  0.8338 -0.1621
 1965TIP3   OH227385   1.081   5.063  11.668  0.2715  0.0784  0.3722
 1965TIP3    H127386   1.063   5.157  11.676 -0.8852 -0.1645  0.8624
 1965TIP3    H227387   0.996   5.022  11.684  0.3013 -0.9876 -1.8521
 1966TIP3   OH227388   4.670   1.738  16.486 -0.2241 -0.2339  0.0140
 1966TIP3    H127389   4.690   1.832  16.483 -0.6526 -0.1326  0.3462
 1966TIP3    H227390   4.575   1.734  16.486 -0.2364 -0.5966  1.8820
 1967TIP3   OH227391   4.396   5.819  12.280 -0.2285  0.2072 -0.4374
 1967TIP3    H127392   4.348   5.737  12.271  1.3411 -0.8283  0.1722
 1967TIP3    H227393   4.433   5.815  12.368  2.0464  0.2981 -1.3236
 1968TIP3   OH227394   5.829   1.796  16.075 -0.3220  0.2614 -0.6408
 1968TIP3    H127395   5.822   1.739  15.998 -0.0104  0.8095 -1.0841
 1968TIP3    H227396   5.739   1.806  16.106 -0.1984 -2.3655  0.8750
 1969TIP3   OH227397   3.098   0.965  12.518  0.0991 -0.3517 -0.1543
 1969TIP3    H127398   3.048   0.924  12.589  0.6602 -0.9325 -0.0821
 1969TIP3    H227399   3.078   1.058  12.525 -0.5371 -0.5100  0.2152
 1970TIP3   OH227400   6.318   1.738   2.677 -0.1788  0.0184  0.6776
 1970TIP3    H127401   6.334   1.831   2.664  4.3583 -0.4914  1.0520
 1970TIP3    H227402   6.296   1.705   2.590 -0.6788  1.2517  0.3250
 1971TIP3   OH227403   0.743   4.617   4.880  0.6917 -0.0851 -0.1014
 1971TIP3    H127404   0.707   4.602   4.792  1.2523 -0.7797 -0.2204
 1971TIP3    H227405   0.705   4.701   4.907 -0.3061 -0.3627 -0.5827
 1972TIP3   OH227406   0.481   4.899  13.278  0.3582  0.1980  0.2030
 1972TIP3    H127407   0.575   4.910  13.263  0.4716  0.9521  1.3727
 1972TIP3    H227408   0.440   4.972  13.232  0.2728 -0.4828 -0.8404
 1973TIP3   OH227409   0.902   5.864  16.504 -0.0417  0.8080  0.1007
 1973TIP3    H127410   0.906   5.884  16.597 -0.0741 -0.0205  0.2828
 1973TIP3    H227411   0.992   5.839  16.482 -0.3782 -0.6250  0.2870
 1974TIP3   OH227412   2.911   0.318  15.976  0.1641 -0.1687  0.2252
 1974TIP3    H127413   2.851   0.288  15.908 -0.4645  0.1802  0.6125
 1974TIP3    H227414   2.905   0.413  15.973 -0.0306 -0.1548  0.9039
 1975TIP3   OH227415   0.681   4.938   6.129  0.5738 -0.1725  0.2002
 1975TIP3    H127416   0.756   4.995   6.117  0.5054  0.3903  2.1370
 1975TIP3    H227417   0.719   4.851   6.139  1.0530  0.1972  1.8277
 1976TIP3   OH227418   5.035   1.078   2.250 -0.0785 -0.7756 -0.2581
 1976TIP3    H127419   4.965   1.107   2.307  1.0444  0.4871  0.5447
 1976TIP3    H227420   4.999   1.083   2.162 -0.3726  1.9795 -0.0723
 1977TIP3   OH227421   2.220   6.185   1.275 -0.2089  0.8374 -0.3093
 1977TIP3    H127422   2.131   6.221   1.271 -0.5458  0.0979  0.2967
 1977TIP3    H227423   2.272   6.255   1.316 -0.4331  1.4046 -0.9763
 1978TIP3   OH227424   5.048   5.481  15.638  0.2762  0.5511  0.7357
 1978TIP3    H127425   5.017   5.480  15.547 -1.1515  1.0438  1.1964
 1978TIP3    H227426   5.090   5.567  15.648 -2.8303  2.1380  1.5218
 1979TIP3   OH227427   3.857   5.304   3.391 -1.0477 -0.1122  0.4165
 1979TIP3    H127428   3.901   5.340   3.469  2.0767 -0.0726 -1.1878
 1979TIP3    H227429   3.897   5.217   3.380 -2.6712 -0.8115 -0.2513
 1980TIP3   OH227430   6.286   1.680  16.247 -0.0721  0.1648 -0.1166
 1980TIP3    H127431   6.275   1.610  16.311 -0.4373 -0.2400 -0.6145
 1980TIP3    H227432   6.315   1.635  16.167 -2.2228  0.3088 -1.0389
 1981TIP3   OH227433   1.665   5.884  11.450  0.2191  0.3873 -0.3549
 1981TIP3    H127434   1.694   5.889  11.542 -0.1690 -0.1404 -0.1967
 1981TIP3    H227435   1.717   5.950  11.405 -0.8233  1.9187  0.5755
 1982TIP3   OH227436   1.574   3.345   3.963  0.3006 -0.3327  0.4526
 1982TIP3    H127437   1.497   3.395   3.990  0.6849  0.1992  0.5814
 1982TIP3    H227438   1.555   3.319   3.873  0.0480 -0.0584  0.4262
 1983TIP3   OH227439   2.798   0.813   4.204 -0.0480  0.2777  0.0972
 1983TIP3    H127440   2.894   0.808   4.200 -0.1477 -1.4794 -2.1900
 1983TIP3    H227441   2.778   0.904   4.182  1.0882  0.2756 -1.0555
 1984TIP3   OH227442   6.772   6.585  15.125 -0.3660 -0.2930  0.0591
 1984TIP3    H127443   6.710   6.600  15.054  0.6981  2.8390 -0.3663
 1984TIP3    H227444   6.823   6.666  15.130  0.7375 -1.0348  3.3129
 1985TIP3   OH227445   5.581   6.247  11.901 -0.4584 -0.1862 -0.0448
 1985TIP3    H127446   5.625   6.227  11.984  0.4471  1.5415 -0.0533
 1985TIP3    H227447   5.652   6.269  11.841 -1.2360  1.8594 -0.2903
 1986TIP3   OH227448   5.450   4.980  13.824 -0.0993 -0.3864 -0.1934
 1986TIP3    H127449   5.373   4.923  13.813 -0.7461 -0.0805  2.2885
 1986TIP3    H227450   5.524   4.922  13.807 -0.7965 -0.7508 -2.3902
 1987TIP3   OH227451   3.784   0.828  14.271 -0.0774  0.3471  0.4469
 1987TIP3    H127452   3.823   0.744  14.295 -0.7928 -0.3466 -0.6927
 1987TIP3    H227453   3.825   0.891  14.330 -1.3057 -1.1124  3.0351
 1988TIP3   OH227454   1.900   0.842  10.589 -0.0685  0.9624  0.1734
 1988TIP3    H127455   1.916   0.772  10.525 -0.1730  1.9541 -0.9800
 1988TIP3    H227456   1.940   0.810  10.670  0.2309 -0.2575 -0.4253
 1989TIP3   OH227457   3.978   0.161  12.164 -0.4894  0.3086  0.1798
 1989TIP3    H127458   4.043   0.154  12.235 -1.6477 -0.1150  1.2321
 1989TIP3    H227459   3.902   0.201  12.206 -1.3055 -0.2251 -0.7571
 1990TIP3   OH227460   3.106   3.781   6.456 -0.2953 -0.0343 -0.3581
 1990TIP3    H127461   3.130   3.708   6.399 -0.3402 -0.5026  0.2100
 1990TIP3    H227462   3.185   3.800   6.507 -0.9560 -1.3383  1.2517
 1991TIP3   OH227463   0.598   0.494   5.473 -0.5304 -0.5729 -0.3207
 1991TIP3    H127464   0.585   0.482   5.379 -0.0200 -1.9771 -0.2531
 1991TIP3    H227465   0.666   0.430   5.495  0.4678  0.7902  0.7380
 1992TIP3   OH227466   5.309   4.495  12.209 -0.0759 -0.2277  0.3681
 1992TIP3    H127467   5.405   4.491  12.202 -0.1679 -0.7329 -0.8041
 1992TIP3    H227468   5.291   4.479  12.301  0.9154 -1.5635  0.3530
 1993TIP3   OH227469   3.166   6.530   4.856  0.4632 -0.2327 -0.1834
 1993TIP3    H127470   3.150   6.586   4.780  0.7469  0.7255  0.4310
 1993TIP3    H227471   3.257   6.501   4.847  2.0442  3.3711  1.8519
 1994TIP3   OH227472   6.348   0.583  17.091  0.2643 -0.2518  0.2382
 1994TIP3    H127473   6.339   0.579  17.186 -1.3989  0.1132  0.1253
 1994TIP3    H227474   6.368   0.493  17.065 -1.0944 -0.7247  0.7792
 1995TIP3   OH227475   4.935   3.888   3.050  0.3074 -0.4047 -0.2313
 1995TIP3    H127476   4.959   3.945   2.978  0.1846 -0.0046  0.0397
 1995TIP3    H227477   4.917   3.947   3.123 -2.0484 -0.6182 -0.5636
 1996TIP3   OH227478   1.962   4.801   4.951 -0.3024 -0.4474  0.3065
 1996TIP3    H127479   1.938   4.875   5.006 -3.4081 -1.5806  0.6618
 1996TIP3    H227480   2.020   4.748   5.006 -0.1853  0.3904  1.0071
 1997TIP3   OH227481   2.559   5.260   3.871  0.0301 -0.0907 -0.7576
 1997TIP3    H127482   2.614   5.329   3.833  0.3821  0.4519  0.6716
 1997TIP3    H227483   2.496   5.240   3.802  1.2934  0.0782 -2.0298
 1998TIP3   OH227484   0.040   1.627  11.045  0.8793 -0.1561  0.5535
 1998TIP3    H127485   0.075   1.656  10.961 -1.8883 -0.9503 -0.9986
 1998TIP3    H227486  -0.018   1.698  11.073 -2.6164 -2.1022 -1.1577
 1999TIP3   OH227487   2.789   4.486  11.693 -0.3102  0.1274  0.6583
 1999TIP3    H127488   2.870   4.488  11.642 -0.8503  1.1191 -0.2081
 1999TIP3    H227489   2.801   4.414  11.755  0.0986 -1.6246 -1.3499
 2000TIP3   OH227490   3.541   3.680  15.496 -0.1275  0.3024 -0.1694
 2000TIP3    H127491   3.613   3.659  15.555  0.0595  1.0547 -0.1121
 2000TIP3    H227492   3.475   3.719  15.553 -0.7676 -0.7718 -0.1512
 2001TIP3   OH227493   5.180   6.513  14.530 -0.6018 -0.5255 -0.2456
 2001TIP3    H127494   5.174   6.564  14.449 -0.5919  0.8425  0.5757
 2001TIP3    H227495   5.263   6.466  14.522  1.2153  2.3360  0.4219
 2002TIP3   OH227496   4.961   1.069  13.600 -0.5831  0.0581  0.3386
 2002TIP3    H127497   4.961   1.164  13.589 -1.9231  0.3343  2.2389
 2002TIP3    H227498   5.053   1.045  13.603 -0.1442  0.8757 -2.7560
 2003TIP3   OH227499   2.903   2.488  12.263 -0.1183 -0.2904 -0.3425
 2003TIP3    H127500   2.911   2.393  12.253 -3.5628 -0.7058 -0.3727
 2003TIP3    H227501   2.910   2.523  12.174 -2.5457 -0.9977 -0.8838
 2004TIP3   OH227502   3.141   6.228  13.810 -0.2533 -0.9795 -0.0629
 2004TIP3    H127503   3.187   6.166  13.866  1.2999  0.2611  0.1176
 2004TIP3    H227504   3.156   6.313  13.851 -0.2641 -0.1972 -1.5833
 2005TIP3   OH227505   2.981   4.025   5.878  0.2673  0.1507 -0.2768
 2005TIP3    H127506   2.975   3.957   5.811  0.4188  0.0622 -0.2013
 2005TIP3    H227507   2.909   4.006   5.938  1.3459 -1.0075  0.7201
 2006TIP3   OH227508   6.485   5.262   2.231 -0.5548  0.2750 -0.4140
 2006TIP3    H127509   6.565   5.244   2.181 -0.3940 -0.9416  0.2258
 2006TIP3    H227510   6.422   5.293   2.166  0.0824  0.1314 -1.1178
 2007TIP3   OH227511   2.422   5.976   1.442 -0.6517  0.2417 -0.2339
 2007TIP3    H127512   2.430   5.959   1.348 -2.0753  0.0509 -0.3436
 2007TIP3    H227513   2.468   5.903   1.483  0.3321  0.5357 -0.7715
 2008TIP3   OH227514   2.434   0.384  15.913  0.0281 -0.4599 -0.5995
 2008TIP3    H127515   2.439   0.459  15.854  1.1923 -0.5374 -0.6282
 2008TIP3    H227516   2.392   0.315  15.860 -1.4150  0.2655 -0.4398
 2009TIP3   OH227517   5.799   3.524  12.875 -0.2872  0.0255  0.0869
 2009TIP3    H127518   5.894   3.515  12.880 -0.5341 -2.1997  2.5532
 2009TIP3    H227519   5.772   3.459  12.810 -0.2222 -0.5018  0.5792
 2010TIP3   OH227520   1.850   0.972   0.992 -0.1105  0.8366  0.1655
 2010TIP3    H127521   1.901   1.043   0.956 -0.7618  0.8561 -0.7400
 2010TIP3    H227522   1.885   0.960   1.081  0.5900  1.6826  0.0143
 2011TIP3   OH227523   3.887   5.939  15.983  0.4946 -0.8149 -0.7085
 2011TIP3    H127524   3.955   5.955  15.917  1.5913 -1.3173  0.2747
 2011TIP3    H227525   3.908   6.000  16.053 -1.4470  0.6640 -1.3289
 2012TIP3   OH227526   6.568   2.785   1.209 -0.1338  0.2124 -0.0195
 2012TIP3    H127527   6.568   2.701   1.164  0.4816  0.2720 -0.1378
 2012TIP3    H227528   6.632   2.775   1.280 -1.1991  0.0661  0.9622
 2013TIP3   OH227529   5.518   2.635  14.438 -0.1129  0.4331  0.2231
 2013TIP3    H127530   5.611   2.618  14.422  0.4859  1.1426  2.5663
 2013TIP3    H227531   5.485   2.553  14.473  0.5915  1.1949  2.8948
 2014TIP3   OH227532   1.192   4.617  10.868  0.0159 -0.2664  0.3131
 2014TIP3    H127533   1.140   4.549  10.826 -0.2952  0.9847 -1.4396
 2014TIP3    H227534   1.129   4.683  10.896  0.4011 -0.2016  1.0697
 2015TIP3   OH227535   4.606   2.933   2.185 -0.1947  0.2680 -0.0245
 2015TIP3    H127536   4.516   2.950   2.213 -0.1683  0.7720 -0.2216
 2015TIP3    H227537   4.646   2.888   2.259 -1.0755 -1.5235 -0.5898
 2016TIP3   OH227538   6.316   4.491   4.354  0.7910  0.4691 -0.6130
 2016TIP3    H127539   6.246   4.451   4.303 -1.6400  1.4079  1.7151
 2016TIP3    H227540   6.341   4.424   4.417 -1.0051  1.4050  1.1967
 2017TIP3   OH227541   0.277   4.490  11.586 -0.1735 -0.4130  0.2357
 2017TIP3    H127542   0.206   4.451  11.535 -0.6568 -0.8076  1.1913
 2017TIP3    H227543   0.352   4.492  11.526 -0.5283 -1.5287 -0.2684
 2018TIP3   OH227544   4.532   0.986  12.816 -0.4515 -0.1454 -0.2771
 2018TIP3    H127545   4.622   1.010  12.840 -0.8070 -0.2352  1.1859
 2018TIP3    H227546   4.481   1.065  12.834 -1.3089 -1.2720  2.7437
 2019TIP3   OH227547   1.836   3.638   3.300 -0.5230  0.3458  1.0156
 2019TIP3    H127548   1.879   3.553   3.286 -0.1712  0.5622  0.7784
 2019TIP3    H227549   1.782   3.650   3.223  0.0133  0.6885  0.6864
 2020TIP3   OH227550   2.603   5.895  16.353  0.1013 -0.1465  0.2013
 2020TIP3    H127551   2.671   5.836  16.387  0.3815 -0.1573 -0.3565
 2020TIP3    H227552   2.647   5.979  16.342  0.6677 -0.6856 -2.2468
 2021TIP3   OH227553   4.549   2.562   5.646 -0.6201 -0.1989 -0.1242
 2021TIP3    H127554   4.467   2.562   5.597 -0.7389 -1.2618  0.0514
 2021TIP3    H227555   4.524   2.544   5.736 -0.2103 -0.3669 -0.0422
 2022TIP3   OH227556   3.357   3.345  15.509 -0.3959 -0.0967  0.5845
 2022TIP3    H127557   3.359   3.377  15.600 -0.2617  1.2526  0.1416
 2022TIP3    H227558   3.300   3.407  15.463  0.7489  0.1663 -0.5584
 2023TIP3   OH227559   1.729   3.206   1.655 -0.1063 -0.1373  0.0007
 2023TIP3    H127560   1.768   3.201   1.743 -0.0452  1.6605  0.1021
 2023TIP3    H227561   1.690   3.293   1.651  1.5428  0.5854 -2.4388
 2024TIP3   OH227562   4.609   4.318  13.086  0.3711 -0.0024  0.1971
 2024TIP3    H127563   4.669   4.249  13.114 -0.3908 -0.2265  1.3284
 2024TIP3    H227564   4.549   4.329  13.159 -0.9781  0.2291 -0.9045
 2025TIP3   OH227565   0.337   6.195   2.082  0.7313  0.4482 -0.2847
 2025TIP3    H127566   0.422   6.187   2.039 -0.2148  1.7429 -2.5076
 2025TIP3    H227567   0.315   6.288   2.078 -0.1487  0.3902  1.6373
 2026TIP3   OH227568   0.348   6.712   2.470 -0.1220 -0.0300  0.5391
 2026TIP3    H127569   0.438   6.678   2.463  0.1566  1.0170 -2.7948
 2026TIP3    H227570   0.293   6.638   2.444 -0.0499 -0.0336  0.3934
 2027TIP3   OH227571   4.479   6.645   4.756 -0.4518 -0.1099  0.0514
 2027TIP3    H127572   4.414   6.714   4.739 -0.0345  0.9500  2.4069
 2027TIP3    H227573   4.467   6.623   4.848  1.5811 -0.9005  0.1743
 2028TIP3   OH227574   5.616   1.653  15.025  0.6093  0.4836 -0.3122
 2028TIP3    H127575   5.629   1.735  15.073 -0.9809  1.1373 -0.9207
 2028TIP3    H227576   5.694   1.601  15.045  1.5562  2.0458  0.2637
 2029TIP3   OH227577   1.151   6.476   0.013 -0.2026  0.2377  0.0972
 2029TIP3    H127578   1.242   6.503   0.022 -0.0351 -0.0118 -0.7598
 2029TIP3    H227579   1.138   6.409   0.080  0.8880 -1.3289 -1.1830
 2030TIP3   OH227580   2.647   4.045  12.698 -0.3654  0.0219 -0.0655
 2030TIP3    H127581   2.690   4.112  12.753  0.6602  0.0196 -0.8383
 2030TIP3    H227582   2.578   4.093  12.652 -1.3312  0.0017  1.2857
 2031TIP3   OH227583   5.464   5.563  16.719  0.2103 -0.1425 -0.5048
 2031TIP3    H127584   5.480   5.470  16.709 -2.4346 -0.8071  0.6883
 2031TIP3    H227585   5.523   5.591  16.788  0.1313 -1.2234  0.0096
 2032TIP3   OH227586   6.757   5.762  16.404  0.1006  0.0700 -0.1872
 2032TIP3    H127587   6.732   5.760  16.312  2.5321 -1.0269 -0.9286
 2032TIP3    H227588   6.758   5.670  16.431 -0.6187  0.3791  0.9755
 2033TIP3   OH227589   0.984   3.940   5.419 -0.2544 -0.2717  0.6188
 2033TIP3    H127590   1.057   3.879   5.406  0.4657  0.8701 -1.0348
 2033TIP3    H227591   0.952   3.921   5.507  1.2442 -1.6478  0.9051
 2034TIP3   OH227592   3.227   5.125  11.753  0.0724  0.5327  0.3038
 2034TIP3    H127593   3.231   5.048  11.810 -0.9790 -0.4742 -0.9139
 2034TIP3    H227594   3.316   5.160  11.754 -0.0843  1.1086  3.2282
 2035TIP3   OH227595   4.183   4.320   0.096  0.1487  0.2930  0.0660
 2035TIP3    H127596   4.156   4.238   0.055  1.1807  0.0633 -0.1894
 2035TIP3    H227597   4.164   4.388   0.031 -3.9082  0.8050  1.5030
 2036TIP3   OH227598   5.953   2.387  14.136  0.1086 -0.1362  0.2142
 2036TIP3    H127599   5.868   2.352  14.110 -0.0111  0.9261 -0.9142
 2036TIP3    H227600   5.983   2.328  14.205 -0.3954 -1.9984 -1.0804
 2037TIP3   OH227601   5.782   5.271   5.660 -0.4538 -0.2018  0.2516
 2037TIP3    H127602   5.845   5.343   5.676 -2.3729  1.4711  0.7243
 2037TIP3    H227603   5.752   5.246   5.748 -1.1248 -0.3280 -0.0082
 2038TIP3   OH227604   3.116   3.919  11.183  0.1650  0.3641 -0.4983
 2038TIP3    H127605   3.154   3.942  11.098  0.0714  0.4616 -0.5133
 2038TIP3    H227606   3.157   3.835  11.205 -1.4116 -0.7530 -1.6399
 2039TIP3   OH227607   1.737   0.338  13.500  0.3688 -0.4388  0.1952
 2039TIP3    H127608   1.749   0.356  13.407  2.3783  0.7451  0.6106
 2039TIP3    H227609   1.686   0.257  13.503  1.1176 -1.0517 -1.9278
 2040TIP3   OH227610   3.941   2.658   6.647  0.0899  0.2888  0.7784
 2040TIP3    H127611   3.971   2.604   6.574  1.6825  0.7345  1.0635
 2040TIP3    H227612   3.866   2.706   6.612 -0.5077 -1.0890  0.1135
 2041TIP3   OH227613   0.104   5.821   2.596  0.2675 -0.1311  0.3569
 2041TIP3    H127614   0.061   5.889   2.543 -0.6826 -1.6516 -0.9353
 2041TIP3    H227615   0.188   5.808   2.553  0.0943 -0.3505  0.0763
 2042TIP3   OH227616   6.240   3.400   5.366  0.2918 -0.1019  0.3539
 2042TIP3    H127617   6.288   3.377   5.445 -0.5683 -2.1641  0.3340
 2042TIP3    H227618   6.182   3.325   5.350  1.7153 -0.6257 -3.2251
 2043TIP3   OH227619   4.897   4.997  16.253  0.0852  0.1655 -0.3633
 2043TIP3    H127620   4.880   4.906  16.277 -1.2479 -0.1092 -2.1906
 2043TIP3    H227621   4.989   5.011  16.277  0.6521 -1.9955 -1.0581
 2044TIP3   OH227622   5.799   0.897   2.583 -0.2672 -0.4955  0.5404
 2044TIP3    H127623   5.763   0.872   2.498 -0.4686 -1.6269  0.9498
 2044TIP3    H227624   5.883   0.851   2.588  0.6570  1.0703  0.1611
 2045TIP3   OH227625   6.480   4.439  14.060 -0.1787 -0.0131 -0.2258
 2045TIP3    H127626   6.425   4.368  14.027  0.4103 -1.4449  1.7208
 2045TIP3    H227627   6.450   4.453  14.150  1.0011  0.8911  0.0472
 2046TIP3   OH227628   3.171   0.060   3.951 -0.2702 -0.1904  0.8928
 2046TIP3    H127629   3.171   0.016   4.036  0.0635 -0.0984  0.9429
 2046TIP3    H227630   3.101   0.018   3.902  1.5640 -2.4768  0.0716
 2047TIP3   OH227631   3.851   0.703  11.287  0.5142  0.2486  0.0970
 2047TIP3    H127632   3.939   0.705  11.250  1.7963 -3.1562  2.5554
 2047TIP3    H227633   3.795   0.675  11.213  1.3034  2.7143 -1.5605
 2048TIP3   OH227634   3.092   6.165  15.063  0.2480 -0.3495 -0.6006
 2048TIP3    H127635   3.183   6.187  15.045  0.3616  1.0643  1.3418
 2048TIP3    H227636   3.042   6.219  15.002  0.6809 -0.9173 -1.4785
 2049TIP3   OH227637   5.935   4.656   5.708 -0.0905 -0.1805 -0.1707
 2049TIP3    H127638   5.973   4.675   5.794  2.6536  0.4580 -1.4227
 2049TIP3    H227639   5.841   4.644   5.725  0.6291 -2.4341  3.2555
 2050TIP3   OH227640   0.360   5.594   3.629  0.1977 -0.3020 -0.0806
 2050TIP3    H127641   0.348   5.643   3.548 -0.8420  0.9427  0.8014
 2050TIP3    H227642   0.406   5.514   3.602  1.2516  0.7854 -1.6642
 2051TIP3   OH227643   2.042   4.669   1.940  0.2389  0.3536  0.3695
 2051TIP3    H127644   1.979   4.741   1.947  0.1644  0.2983  0.2715
 2051TIP3    H227645   2.007   4.601   1.998  0.4621  0.5067  0.6861
 2052TIP3   OH227646   6.815   6.014  12.553  0.7184 -0.3808  0.0794
 2052TIP3    H127647   6.848   5.953  12.620 -1.4872 -1.1660  0.5439
 2052TIP3    H227648   6.835   5.970  12.470  1.3275 -0.5582  0.3126
 2053TIP3   OH227649   1.561   1.872  14.018 -0.7197 -0.0519 -0.1150
 2053TIP3    H127650   1.656   1.877  14.024 -0.7023  0.1301 -0.4693
 2053TIP3    H227651   1.538   1.789  14.060 -0.2102 -1.1215 -1.8086
 2054TIP3   OH227652   3.541   6.831  16.244 -0.7794 -0.2097  0.2076
 2054TIP3    H127653   3.564   6.746  16.284  0.8615  0.5956  1.0851
 2054TIP3    H227654   3.498   6.808  16.162 -0.5850 -1.9016  0.5367
 2055TIP3   OH227655   0.008   1.048  12.187 -0.7620 -0.6620  0.0175
 2055TIP3    H127656   0.068   0.975  12.205  0.4137  0.3468  0.3568
 2055TIP3    H227657  -0.040   1.021  12.109  0.1798 -1.4930 -0.3002
 2056TIP3   OH227658   1.971   3.325  14.514  0.5034  0.0258  0.3716
 2056TIP3    H127659   2.004   3.405  14.553  1.1090 -0.7200  1.4587
 2056TIP3    H227660   1.876   3.335  14.514  0.5733  0.7100  0.5596
 2057TIP3   OH227661   1.474   0.770   4.266 -0.1834  0.2839 -0.2374
 2057TIP3    H127662   1.486   0.774   4.171 -0.3053 -0.2505 -0.2775
 2057TIP3    H227663   1.562   0.785   4.302 -0.0820  0.1778 -0.4416
 2058TIP3   OH227664   1.668   0.415  13.811  0.0458  0.8488  0.8539
 2058TIP3    H127665   1.689   0.330  13.851  2.6966  1.8153  1.6858
 2058TIP3    H227666   1.699   0.407  13.720 -1.3764  0.3716  0.3755
 2059TIP3   OH227667   5.735   6.664  15.993 -0.1577  0.6467  0.2304
 2059TIP3    H127668   5.644   6.661  16.022  0.1862 -1.7399  1.2692
 2059TIP3    H227669   5.744   6.749  15.950 -2.8221  0.9888  0.2255
 2060TIP3   OH227670   2.912   2.938   4.975  0.0462  0.6671  0.4362
 2060TIP3    H127671   2.960   2.866   5.015  1.0976 -0.0321 -1.8624
 2060TIP3    H227672   2.864   2.979   5.046 -0.6881 -2.3760  1.8192
 2061TIP3   OH227673   4.361   1.011  13.256 -0.1481  0.1349  0.7412
 2061TIP3    H127674   4.436   0.973  13.210 -1.3177  0.5481 -1.6382
 2061TIP3    H227675   4.297   1.030  13.187 -1.9643  0.9451  2.5425
 2062TIP3   OH227676   4.370   6.561   0.447 -0.1425  0.1964 -0.5644
 2062TIP3    H127677   4.405   6.479   0.483  1.9593  0.6871 -1.3554
 2062TIP3    H227678   4.306   6.532   0.381  0.1345 -0.7903 -0.4189
 2063TIP3   OH227679   4.425   6.577  14.545 -0.0150 -0.0164 -0.0237
 2063TIP3    H127680   4.510   6.585  14.589 -1.0398 -0.7165  2.1736
 2063TIP3    H227681   4.448   6.566  14.452  2.3056 -0.6598  0.5534
 2064TIP3   OH227682   4.549   6.109  12.185  0.0805 -0.3092 -0.6963
 2064TIP3    H127683   4.527   6.167  12.112 -1.5015  0.2402  0.1472
 2064TIP3    H227684   4.551   6.022  12.147 -0.2659  0.0178 -1.4920
 2065TIP3   OH227685   4.335   4.672   5.632 -0.0464 -0.7465 -0.1651
 2065TIP3    H127686   4.304   4.665   5.542 -0.2586 -1.6294 -0.0362
 2065TIP3    H227687   4.341   4.582   5.662  0.8708 -0.5013  0.4245
 2066TIP3   OH227688   1.031   2.772   5.685 -0.1213  0.3648 -0.3592
 2066TIP3    H127689   1.108   2.813   5.644  0.6611  0.4328  1.1166
 2066TIP3    H227690   0.957   2.817   5.646  0.6434  1.3930 -0.6727
 2067TIP3   OH227691   3.240   5.299   2.723 -0.7335  0.7963  0.2360
 2067TIP3    H127692   3.313   5.239   2.732 -0.9268  0.6952  1.2976
 2067TIP3    H227693   3.275   5.384   2.748 -0.2854  1.2984 -1.9023
 2068TIP3   OH227694   1.851   6.278   0.555 -0.7056 -0.3711 -0.2219
 2068TIP3    H127695   1.933   6.324   0.574 -0.0936 -2.1659  1.8405
 2068TIP3    H227696   1.830   6.233   0.637 -3.9725  0.2980 -0.5711
 2069TIP3   OH227697   5.114   0.782   1.168 -0.5936 -0.1229  0.5280
 2069TIP3    H127698   5.102   0.873   1.193 -1.5087  0.0125 -0.3720
 2069TIP3    H227699   5.029   0.754   1.134  0.4959 -0.2734 -2.4130
 2070TIP3   OH227700   2.743   1.772  12.603 -0.1502  0.0804 -0.0077
 2070TIP3    H127701   2.712   1.820  12.680  1.6762  0.6268  0.4560
 2070TIP3    H227702   2.837   1.791  12.601  0.5487 -2.9833 -0.1637
 2071TIP3   OH227703   6.314   2.731  17.033  0.2034 -0.2134  0.4571
 2071TIP3    H127704   6.384   2.711  16.971  0.4837  2.6168 -0.2926
 2071TIP3    H227705   6.337   2.818  17.068 -1.3997 -0.5100  2.4477
 2072TIP3   OH227706   0.465   3.184  14.389  1.0797  0.6853 -0.7992
 2072TIP3    H127707   0.464   3.097  14.349  0.7344  0.1283  0.3726
 2072TIP3    H227708   0.375   3.216  14.379  0.0143 -0.8494  2.3284
 2073TIP3   OH227709   4.979   6.370  13.333 -0.0250 -1.0656  0.7895
 2073TIP3    H127710   5.020   6.288  13.361  1.5461 -0.2322  1.0087
 2073TIP3    H227711   4.971   6.421  13.414  0.3461 -0.4265  0.4221
 2074TIP3   OH227712   0.876   3.291  12.512  0.5694  0.0572  0.1962
 2074TIP3    H127713   0.971   3.284  12.511  0.4728 -2.3367 -1.8305
 2074TIP3    H227714   0.847   3.217  12.566 -0.2046  2.6625  3.6925
 2075TIP3   OH227715   3.188   4.299  17.091  0.5872  0.1985  0.0786
 2075TIP3    H127716   3.116   4.278  17.032  1.6905  1.1896 -1.7065
 2075TIP3    H227717   3.267   4.290  17.038  1.6648  0.7715  1.5021
 2076TIP3   OH227718   2.824   3.373   2.387  0.0691 -0.8234  0.1464
 2076TIP3    H127719   2.816   3.300   2.326  0.7466  0.2460 -1.2874
 2076TIP3    H227720   2.916   3.398   2.383 -0.1250  0.0369  0.6885
 2077TIP3   OH227721   3.965   4.983   0.219  0.1560  0.3171  0.4710
 2077TIP3    H127722   3.914   4.921   0.271 -0.6525  0.4433 -0.1587
 2077TIP3    H227723   4.021   5.027   0.282  0.3880 -0.7041  0.9991
 2078TIP3   OH227724   0.692   5.024   0.826 -0.0299 -0.1657  0.5231
 2078TIP3    H127725   0.731   5.043   0.741 -1.7498 -0.7085 -0.4229
 2078TIP3    H227726   0.667   5.110   0.861  1.2744  0.1187  0.8199
 2079TIP3   OH227727   1.056   2.076   4.668  0.4140  0.5721  0.7290
 2079TIP3    H127728   1.077   1.983   4.673 -0.0933  0.5188  2.6358
 2079TIP3    H227729   0.961   2.080   4.671  0.3819  1.1421 -0.3415
 2080TIP3   OH227730   5.727   4.299   3.444 -0.0815  0.7266  0.3496
 2080TIP3    H127731   5.820   4.277   3.449 -0.3367 -0.5582 -0.1330
 2080TIP3    H227732   5.682   4.215   3.449 -1.1912  1.2579 -0.2632
 2081TIP3   OH227733   6.259   3.669  13.618  0.4256  0.3247  0.1934
 2081TIP3    H127734   6.353   3.669  13.603  0.6960 -1.8397  1.4347
 2081TIP3    H227735   6.250   3.681  13.713 -0.4322 -1.2136  0.3338
 2082TIP3   OH227736   1.586   5.312  12.534  0.0527  0.1384 -0.1734
 2082TIP3    H127737   1.554   5.266  12.611 -1.0836  0.7893 -0.2364
 2082TIP3    H227738   1.681   5.299  12.536  0.0959  0.5385  1.5946
 2083TIP3   OH227739   0.939   1.888   3.801 -0.0666  0.1831 -0.3451
 2083TIP3    H127740   0.923   1.814   3.859  0.1044 -0.7103 -1.4041
 2083TIP3    H227741   0.869   1.950   3.820 -0.0584 -0.1174  0.7416
 2084TIP3   OH227742   4.954   5.716   3.679 -0.2028 -0.2208  0.2210
 2084TIP3    H127743   4.925   5.754   3.596  1.1159 -0.6955 -0.4943
 2084TIP3    H227744   4.886   5.653   3.702 -1.4715  1.1772  0.4505
 2085TIP3   OH227745   1.458   2.719  15.248  0.0680  0.0693  0.4171
 2085TIP3    H127746   1.376   2.670  15.237  0.2523 -0.5176  1.4926
 2085TIP3    H227747   1.509   2.665  15.308  1.5970  0.0266 -0.8699
 2086TIP3   OH227748   6.748   5.394  11.915  0.2550 -0.5873 -0.1459
 2086TIP3    H127749   6.666   5.412  11.868  0.6908 -1.0858 -1.1233
 2086TIP3    H227750   6.808   5.362  11.848  1.6301  0.8173  0.3538
 2087TIP3   OH227751   5.857   6.281   2.178  0.0721  0.5925 -0.1301
 2087TIP3    H127752   5.863   6.186   2.166  1.8890  0.4824  1.1998
 2087TIP3    H227753   5.837   6.291   2.271 -1.5785  1.5234 -0.5572
 2088TIP3   OH227754   6.361   4.030   6.211 -0.2272 -0.2997  0.2172
 2088TIP3    H127755   6.382   4.061   6.299 -0.4410  0.4042  0.0212
 2088TIP3    H227756   6.443   3.991   6.180 -0.2499 -0.8863  0.8634
 2089TIP3   OH227757   3.379   0.003  14.971  0.5018 -0.3133 -0.0672
 2089TIP3    H127758   3.351  -0.032  14.887  0.2479  1.0579 -0.5755
 2089TIP3    H227759   3.326  -0.045  15.035  0.5371 -1.2077 -0.6933
 2090TIP3   OH227760   2.361   6.424  10.807  0.2068 -0.1761  0.7894
 2090TIP3    H127761   2.328   6.335  10.801 -0.2053 -0.1584  2.3030
 2090TIP3    H227762   2.439   6.425  10.753 -2.1954 -0.2054 -3.0510
 2091TIP3   OH227763   4.611   3.069  11.088  0.5936  0.1114  0.3207
 2091TIP3    H127764   4.568   3.025  11.161  0.6931 -2.3500 -0.9917
 2091TIP3    H227765   4.570   3.032  11.010  1.6560  1.4058 -0.9038
 2092TIP3   OH227766   1.971   3.165  16.297 -0.4376 -0.3778  0.2911
 2092TIP3    H127767   1.997   3.096  16.236 -1.8718 -0.2545 -0.5137
 2092TIP3    H227768   1.875   3.162  16.297 -0.4954  0.6942  1.3124
 2093TIP3   OH227769   0.633   0.902   0.077 -0.0468 -0.4700 -0.0022
 2093TIP3    H127770   0.695   0.836   0.046 -0.6196  0.4724 -3.5138
 2093TIP3    H227771   0.581   0.857   0.143  0.9779 -2.8484 -0.7122
 2094TIP3   OH227772   4.559   5.550   4.245  0.1124  0.2966 -0.1402
 2094TIP3    H127773   4.521   5.551   4.333 -0.5548  0.5204 -0.4220
 2094TIP3    H227774   4.645   5.592   4.255 -0.0131  0.4335  0.3808
 2095TIP3   OH227775   2.736   2.781   5.750 -0.2480 -0.1438  0.3055
 2095TIP3    H127776   2.811   2.832   5.720  0.0634 -0.3985  0.6422
 2095TIP3    H227777   2.687   2.839   5.808  0.0689 -0.2035  0.6345
 2096TIP3   OH227778   4.160   3.093   3.312 -0.3087  0.6401  0.6059
 2096TIP3    H127779   4.103   3.166   3.288  0.4062  0.4151 -2.1452
 2096TIP3    H227780   4.103   3.016   3.311 -0.4929  0.7779  0.5775
 2097TIP3   OH227781   6.833   2.820   4.201  0.0017 -0.0422  0.3565
 2097TIP3    H127782   6.881   2.818   4.119 -0.2397 -0.1072  0.2180
 2097TIP3    H227783   6.876   2.754   4.256  0.4648  0.3321  0.4527
 2098TIP3   OH227784   0.131   1.400  15.631 -0.4337 -0.3426  0.8343
 2098TIP3    H127785   0.220   1.368  15.647 -1.0338 -1.8697  1.2779
 2098TIP3    H227786   0.110   1.367  15.543  0.7679  3.2283 -0.9909
 2099TIP3   OH227787   4.281   2.751   5.835  0.5139  0.2386 -0.0686
 2099TIP3    H127788   4.299   2.792   5.920 -1.3001 -0.3378  0.6446
 2099TIP3    H227789   4.333   2.671   5.836 -1.9051 -1.5059  2.0286
 2100TIP3   OH227790   2.249   4.168   3.166 -0.2218  0.2998  0.1895
 2100TIP3    H127791   2.294   4.092   3.204 -2.0330 -0.7115  0.4028
 2100TIP3    H227792   2.177   4.130   3.116 -0.1377  1.8190 -1.1514
 2101TIP3   OH227793   4.600   1.394   1.139  0.0105  0.3942 -0.1016
 2101TIP3    H127794   4.634   1.320   1.189  0.6340  0.4079 -0.4944
 2101TIP3    H227795   4.533   1.432   1.195  0.1620 -0.0592  0.3934
 2102TIP3   OH227796   1.923   3.318  15.195 -0.0585  0.3700 -0.0329
 2102TIP3    H127797   1.981   3.363  15.134  0.1340  0.4805  0.2290
 2102TIP3    H227798   1.982   3.272  15.255 -0.1214  2.6605  1.9341
 2103TIP3   OH227799   2.241   6.286   5.559  0.1504  0.2413  0.0251
 2103TIP3    H127800   2.317   6.243   5.599  1.7590  2.1495 -0.8094
 2103TIP3    H227801   2.249   6.266   5.466  0.5514  1.7091 -0.2824
 2104TIP3   OH227802   6.520   5.418  16.438 -1.0017 -0.3417  0.0297
 2104TIP3    H127803   6.604   5.463  16.435 -0.9196 -0.4607  0.4558
 2104TIP3    H227804   6.523   5.355  16.366 -0.3034 -1.0866  0.7049
 2105TIP3   OH227805   3.126   1.682  16.802 -0.3850 -0.0688  0.6683
 2105TIP3    H127806   3.163   1.710  16.719  1.7067  0.6705  1.7779
 2105TIP3    H227807   3.031   1.683  16.787 -0.0838  0.3164 -1.5886
 2106TIP3   OH227808   0.498   5.355  16.554 -0.2502 -0.2426 -0.6163
 2106TIP3    H127809   0.518   5.439  16.514  1.1333 -0.9876 -1.5976
 2106TIP3    H227810   0.408   5.336  16.528 -0.5095  0.8271 -0.5433
 2107TIP3   OH227811   4.418   4.944   0.159 -0.3993 -0.6615 -0.1458
 2107TIP3    H127812   4.388   5.002   0.089  0.3032 -0.4167 -0.2488
 2107TIP3    H227813   4.512   4.962   0.167 -0.7188  0.4617  1.9121
 2108TIP3   OH227814   4.287   0.502   3.088  0.1329  0.3883  0.6556
 2108TIP3    H127815   4.265   0.527   3.178  1.7714  1.3470  0.8371
 2108TIP3    H227816   4.331   0.417   3.097  0.9770  0.8352  0.8712
 2109TIP3   OH227817   2.042   1.515  11.690  0.3518 -0.4069 -0.0387
 2109TIP3    H127818   1.984   1.507  11.766 -0.5836 -1.3903 -0.8254
 2109TIP3    H227819   2.048   1.426  11.655  1.8302 -0.2011 -0.3662
 2110TIP3   OH227820   2.943   6.213   4.693  0.0210 -0.2611  0.5320
 2110TIP3    H127821   2.995   6.137   4.668 -0.6426 -0.3862 -0.5298
 2110TIP3    H227822   2.986   6.247   4.772  1.3975 -0.6584 -0.0137
 2111TIP3   OH227823   1.606   5.118   3.469  0.2932 -0.2915 -0.0013
 2111TIP3    H127824   1.601   5.022   3.472  1.3473 -0.3405  1.2719
 2111TIP3    H227825   1.676   5.140   3.530 -0.3707  1.3334  0.2246
 2112TIP3   OH227826   6.666   1.043   3.253 -0.0386  0.6054 -0.2497
 2112TIP3    H127827   6.679   0.966   3.198 -1.0018  0.2746 -0.0260
 2112TIP3    H227828   6.645   1.113   3.190 -1.3167  0.1875 -0.3051
 2113TIP3   OH227829   3.050   6.446   6.374 -0.1673  0.2583 -0.4211
 2113TIP3    H127830   3.089   6.412   6.454  0.2517 -0.1646 -0.8013
 2113TIP3    H227831   2.989   6.378   6.345 -0.0192  0.2346 -0.6793
 2114TIP3   OH227832   3.439   5.116   2.702 -0.0954  0.1435 -0.5294
 2114TIP3    H127833   3.484   5.177   2.643  1.3423 -1.2055 -0.8749
 2114TIP3    H227834   3.470   5.030   2.676 -0.3119 -0.5776  1.4522
 2115TIP3   OH227835   2.621   0.547   5.711  0.4217  0.2870 -0.3380
 2115TIP3    H127836   2.639   0.629   5.756  1.6916  0.1519 -0.5553
 2115TIP3    H227837   2.635   0.480   5.778  1.5555  0.1318 -0.7110
 2116TIP3   OH227838   2.116   6.633   6.233  0.6900  0.1746  0.3210
 2116TIP3    H127839   2.175   6.701   6.264  1.1320  0.4618 -1.0513
 2116TIP3    H227840   2.029   6.672   6.239  1.0449  1.3970 -1.6455
 2117TIP3   OH227841   2.979   3.146   6.221 -0.7263  0.3792  0.2529
 2117TIP3    H127842   2.891   3.154   6.183 -0.5851  0.9205  0.0369
 2117TIP3    H227843   2.965   3.155   6.315 -0.8064  1.2604  0.1596
 2118TIP3   OH227844   0.177   1.987   4.099  0.0092  0.0100  0.3725
 2118TIP3    H127845   0.215   1.955   4.181  1.7263 -1.5768 -0.9462
 2118TIP3    H227846   0.214   2.075   4.089 -0.4431  0.3336  1.4151
 2119TIP3   OH227847   6.642   2.384  10.923  0.2407  0.0730 -0.2486
 2119TIP3    H127848   6.607   2.305  10.882 -1.4314  1.3920 -1.5411
 2119TIP3    H227849   6.649   2.447  10.851  1.7864  1.0488  0.6922
 2120TIP3   OH227850   3.780   2.002  16.298 -0.0669 -0.7415 -0.1764
 2120TIP3    H127851   3.803   1.930  16.356 -1.6018 -1.8432 -0.8663
 2120TIP3    H227852   3.864   2.033  16.263  0.6753 -1.6441  0.7532
 2121TIP3   OH227853   3.901   3.526  11.020  0.3754 -0.1356 -1.5438
 2121TIP3    H127854   3.950   3.607  11.007 -0.9014  1.3962  1.8327
 2121TIP3    H227855   3.822   3.536  10.967 -0.2192  1.3499 -0.4454
 2122TIP3   OH227856   3.605   5.706  11.792 -0.0466  0.7429  0.2332
 2122TIP3    H127857   3.585   5.645  11.721 -2.0282  1.3362  0.2316
 2122TIP3    H227858   3.542   5.685  11.861 -0.0377  2.0623  0.6769
 2123TIP3   OH227859   1.679   4.285   4.200 -0.4383 -0.2122  0.2731
 2123TIP3    H127860   1.630   4.273   4.118 -0.7419  1.0148  0.2499
 2123TIP3    H227861   1.656   4.208   4.253 -0.1913 -1.0557 -0.8035
 2124TIP3   OH227862   0.457   1.091  14.060 -0.0928 -0.4395  0.7541
 2124TIP3    H127863   0.520   1.104  13.989 -1.5438 -0.1136 -0.5249
 2124TIP3    H227864   0.482   1.156  14.126  0.9143 -0.3252  0.2796
 2125TIP3   OH227865   6.297   2.331   0.498  0.0856  0.6127 -0.0157
 2125TIP3    H127866   6.286   2.371   0.585  1.3301 -1.7015  1.2946
 2125TIP3    H227867   6.378   2.369   0.464  0.2756  0.5731  0.3935
 2126TIP3   OH227868   1.223   0.983  16.172  0.7733  0.4185  0.2752
 2126TIP3    H127869   1.132   1.005  16.192  0.9696 -1.4513  4.0665
 2126TIP3    H227870   1.217   0.915  16.105 -0.5083  1.1337 -0.3866
 2127TIP3   OH227871   5.717   6.598   0.012 -0.0708  0.5160 -0.5176
 2127TIP3    H127872   5.806   6.569  -0.007 -0.0639 -1.6729  2.2465
 2127TIP3    H227873   5.663   6.551  -0.051  0.4271 -1.4663  0.4699
 2128TIP3   OH227874   3.084   1.714  13.088  0.0061  0.1023  0.6708
 2128TIP3    H127875   3.106   1.623  13.068 -0.1466  0.2527 -0.2445
 2128TIP3    H227876   3.166   1.753  13.118  0.8332  0.3949 -1.7274
 2129TIP3   OH227877   2.465   3.604  10.974 -0.1753  0.2272  0.0758
 2129TIP3    H127878   2.517   3.540  11.023  0.4591 -0.4121 -1.3687
 2129TIP3    H227879   2.393   3.553  10.936  0.2740  0.3571 -0.9957
 2130TIP3   OH227880   1.601   3.378  15.539  0.2218 -0.0519 -0.2069
 2130TIP3    H127881   1.593   3.409  15.629  1.1286  0.0998 -0.1642
 2130TIP3    H227882   1.536   3.308  15.532  0.4781 -0.3958  0.7174
 2131TIP3   OH227883   3.981   1.666   4.194  0.1648  0.6331  0.0832
 2131TIP3    H127884   4.008   1.589   4.143  0.2566 -0.2823  1.4394
 2131TIP3    H227885   4.018   1.740   4.147  1.0829 -0.2519 -0.6505
 2132TIP3   OH227886   0.296   1.046  16.022 -0.1082  0.5846 -0.4348
 2132TIP3    H127887   0.262   0.957  16.032  0.4100  0.5524  1.2098
 2132TIP3    H227888   0.390   1.038  16.035  0.1138  1.2129 -1.5037
 2133TIP3   OH227889   2.694   2.147  16.707 -0.7661 -0.1808  0.7437
 2133TIP3    H127890   2.727   2.125  16.620 -0.4304 -0.3912  0.9206
 2133TIP3    H227891   2.616   2.093  16.717 -0.1700 -1.0198  1.0200
 2134TIP3   OH227892   4.133   5.850   3.960  0.1218 -0.2875 -0.0998
 2134TIP3    H127893   4.151   5.941   3.937  1.3180 -0.7614 -1.1962
 2134TIP3    H227894   4.162   5.842   4.051  1.0677  0.1749 -0.3407
 2135TIP3   OH227895   1.567   3.978  13.384  0.0681 -0.3938  0.1023
 2135TIP3    H127896   1.507   4.052  13.392  1.1746  0.4171  1.1762
 2135TIP3    H227897   1.601   3.983  13.295 -0.5367 -0.1393 -0.1153
 2136TIP3   OH227898   4.369   4.468  14.486  0.1211 -0.5368  0.1094
 2136TIP3    H127899   4.443   4.407  14.489 -0.1854 -0.9758 -0.8011
 2136TIP3    H227900   4.406   4.549  14.449  0.5844 -0.0608  1.5550
 2137TIP3   OH227901   1.548   2.020  12.728  0.2428  0.0884 -0.0177
 2137TIP3    H127902   1.630   1.991  12.768 -0.2005 -0.5675  0.4371
 2137TIP3    H227903   1.575   2.084  12.663  0.9379  1.9606  1.9741
 2138TIP3   OH227904   6.483   6.505   4.969 -0.1915  0.0024  0.2691
 2138TIP3    H127905   6.471   6.585   5.020  0.5411  0.2822  0.0207
 2138TIP3    H227906   6.560   6.523   4.914  2.5909 -2.2554  3.0324
 2139TIP3   OH227907   5.040   1.537  12.154  0.2084 -0.6357  0.3691
 2139TIP3    H127908   5.121   1.588  12.162  0.2715 -0.4179 -1.3461
 2139TIP3    H227909   5.056   1.458  12.207  1.1875 -0.1746  0.7839
 2140TIP3   OH227910   4.204   3.124   4.677 -0.1409  0.2373 -0.2038
 2140TIP3    H127911   4.166   3.212   4.680 -1.1415 -0.1959  2.1494
 2140TIP3    H227912   4.130   3.065   4.692  0.8576 -0.8672  0.5746
 2141TIP3   OH227913   2.605   5.270  11.102 -0.4779  0.0438  0.7161
 2141TIP3    H127914   2.537   5.225  11.053 -0.2308  0.6846 -0.2409
 2141TIP3    H227915   2.578   5.362  11.102  0.0373  0.2018  0.9008
 2142TIP3   OH227916   0.032   0.809   1.566  0.6275 -0.3744 -0.1631
 2142TIP3    H127917   0.001   0.805   1.476  0.0443  0.5145 -0.0214
 2142TIP3    H227918  -0.028   0.752   1.615 -1.0952  1.5603  0.1605
 2143TIP3   OH227919   5.235   5.443  13.558  0.1091  0.1275 -0.2505
 2143TIP3    H127920   5.315   5.392  13.567 -0.2271 -0.8398 -2.2491
 2143TIP3    H227921   5.241   5.483  13.471 -0.0356  2.8783  0.8933
 2144TIP3   OH227922   3.830   1.210  14.703 -0.0739  0.2070 -0.2539
 2144TIP3    H127923   3.908   1.171  14.664 -0.7287 -1.8264  0.3293
 2144TIP3    H227924   3.864   1.266  14.773  0.8899 -0.9476  0.2523
 2145TIP3   OH227925   5.190   4.748   4.879 -0.0868 -0.3195  0.8588
 2145TIP3    H127926   5.125   4.696   4.832  0.0273 -1.2726  1.7272
 2145TIP3    H227927   5.269   4.694   4.879  0.7492  0.8512 -0.2267
 2146TIP3   OH227928   0.069   2.618  11.185 -0.1685 -0.0736 -0.4401
 2146TIP3    H127929   0.066   2.681  11.113  1.8354 -0.8972 -1.2992
 2146TIP3    H227930   0.113   2.541  11.149 -1.3902 -1.5128  0.9551
 2147TIP3   OH227931   5.502   4.664  13.902  0.1559 -0.6090  0.0340
 2147TIP3    H127932   5.566   4.723  13.862 -1.1332  1.3665  0.7358
 2147TIP3    H227933   5.536   4.576  13.885  3.1201  0.3360  0.4853
 2148TIP3   OH227934   1.464   2.253   2.368  0.4034  0.0818 -0.4915
 2148TIP3    H127935   1.369   2.244   2.363  0.4065 -0.6581  0.5220
 2148TIP3    H227936   1.478   2.345   2.394 -0.0616  0.0291 -0.0342
 2149TIP3   OH227937   4.559   3.993  15.934 -0.2294  0.2132  0.1371
 2149TIP3    H127938   4.627   4.051  15.899  1.2571 -1.2853  0.4227
 2149TIP3    H227939   4.604   3.939  15.999 -2.0016  0.0358  1.2959
 2150TIP3   OH227940   2.774   3.261  16.747  0.0064 -0.1450  0.0033
 2150TIP3    H127941   2.846   3.323  16.746  1.4755 -1.7719  0.0130
 2150TIP3    H227942   2.765   3.234  16.655 -0.5955  0.0610  0.0022
 2151TIP3   OH227943   3.146   2.543  16.740  0.5375 -0.0125 -0.2148
 2151TIP3    H127944   3.174   2.469  16.687 -0.3674 -1.2409  0.9641
 2151TIP3    H227945   3.077   2.585  16.688  0.0270 -0.8842 -0.2528
 2152TIP3   OH227946   4.036   3.150   6.333  0.3021  0.1271  0.0765
 2152TIP3    H127947   4.115   3.119   6.378 -0.1270  0.5603  1.1663
 2152TIP3    H227948   3.964   3.102   6.375 -0.0092 -0.4572 -1.0804
 2153TIP3   OH227949   0.229   0.075  12.015  0.0558 -0.0787  0.3773
 2153TIP3    H127950   0.194   0.165  12.015  2.0612  0.7604  1.4454
 2153TIP3    H227951   0.217   0.045  12.105  0.9598 -0.2137  0.4606
 2154TIP3   OH227952   6.777   0.890   0.662  0.7887  0.0591  0.4934
 2154TIP3    H127953   6.698   0.842   0.640  0.9217  0.1247 -0.1422
 2154TIP3    H227954   6.814   0.915   0.578  2.1442 -1.0276  0.7296
 2155TIP3   OH227955   6.207   2.214  13.980 -0.1007  0.6429 -0.7563
 2155TIP3    H127956   6.117   2.186  13.966  0.0743  0.0014 -0.6227
 2155TIP3    H227957   6.232   2.173  14.063  0.2595  0.9504 -0.7131
 2156TIP3   OH227958   1.426   1.632   3.107  0.4808 -0.2443  0.0270
 2156TIP3    H127959   1.384   1.561   3.156 -0.6675 -0.2915 -0.9909
 2156TIP3    H227960   1.519   1.608   3.105 -0.0123 -2.3203 -1.2495
 2157TIP3   OH227961   6.271   2.578   0.107 -0.5511 -0.5725 -0.0468
 2157TIP3    H127962   6.183   2.546   0.087 -0.4119 -1.4784  0.6978
 2157TIP3    H227963   6.294   2.633   0.032 -0.8795 -2.0952 -1.3143
 2158TIP3   OH227964   1.606   4.992   1.282  0.1626 -0.1166  0.1399
 2158TIP3    H127965   1.667   5.013   1.353  0.0267  0.7364  0.0167
 2158TIP3    H227966   1.579   4.902   1.300  1.1614 -0.3823  0.4103
 2159TIP3   OH227967   2.090   1.260  12.697  0.2926  0.1423 -0.2730
 2159TIP3    H127968   2.052   1.327  12.754  0.2984 -0.2382  0.1946
 2159TIP3    H227969   2.015   1.223  12.650 -0.1593 -1.4492  1.5374
 2160TIP3   OH227970   3.127   5.764   0.274 -0.4268  0.0634 -0.1352
 2160TIP3    H127971   3.120   5.700   0.202  0.4760 -0.4829  0.2483
 2160TIP3    H227972   3.071   5.837   0.246  0.1890  0.0289 -1.5641
 2161TIP3   OH227973   5.554   6.222  16.602  0.1515  0.5827 -0.1463
 2161TIP3    H127974   5.562   6.188  16.512  1.3755 -0.7455  0.4315
 2161TIP3    H227975   5.640   6.208  16.641 -0.6050  0.3285  1.5170
 2162TIP3   OH227976   6.045   0.597  14.659 -0.1587 -0.1676 -0.3506
 2162TIP3    H127977   6.083   0.521  14.704  1.6157  0.7930 -0.1270
 2162TIP3    H227978   6.112   0.624  14.596 -1.4738  0.1852 -1.6410
 2163TIP3   OH227979   6.738   4.866  12.995  0.1713  0.4335  0.5514
 2163TIP3    H127980   6.794   4.794  12.965 -0.4573 -0.3092  1.1320
 2163TIP3    H227981   6.700   4.834  13.077  1.2519  2.1104  1.7814
 2164TIP3   OH227982   1.909   3.616   2.405 -0.7783 -0.5652 -0.5091
 2164TIP3    H127983   1.934   3.701   2.368  0.7129 -0.6632  0.1975
 2164TIP3    H227984   1.923   3.626   2.499 -0.8443 -1.5067 -0.3924
 2165TIP3   OH227985   6.014   5.976   9.985  0.6212 -0.5597  0.2946
 2165TIP3    H127986   5.922   5.953   9.972 -0.2883  2.6946  0.1378
 2165TIP3    H227987   6.036   5.939  10.070 -0.9244 -1.1941  0.4529
 2166TIP3   OH227988   3.875   4.658   4.634  0.6684  0.3557 -0.0775
 2166TIP3    H127989   3.896   4.752   4.639  0.3955  0.4125  0.0316
 2166TIP3    H227990   3.881   4.637   4.541  0.2229  0.6026 -0.1643
 2167TIP3   OH227991   3.726   2.306   0.383  0.2365 -0.4733  0.4701
 2167TIP3    H127992   3.802   2.251   0.400  0.2038 -0.0605  2.1302
 2167TIP3    H227993   3.651   2.251   0.409  0.2255  0.4128  2.5420
 2168TIP3   OH227994   2.565   0.555   6.093  0.2258 -0.2629 -0.2744
 2168TIP3    H127995   2.513   0.513   6.024  0.9627 -0.7983 -0.5113
 2168TIP3    H227996   2.534   0.645   6.094  0.3941 -0.1742 -1.5053
 2169TIP3   OH227997   0.467   1.539   2.467  0.0730 -0.2149  0.4931
 2169TIP3    H127998   0.528   1.541   2.541  1.5075  0.3050 -0.6526
 2169TIP3    H227999   0.484   1.456   2.424 -0.2695 -0.2096  0.3448
 2170TIP3   OH228000   4.561   4.028   4.641  0.0588  0.5934  0.4937
 2170TIP3    H128001   4.641   4.035   4.589 -1.1369  1.4904 -1.3339
 2170TIP3    H228002   4.533   4.119   4.654 -0.9833  0.2753  0.5567
 2171TIP3   OH228003   1.623   4.679   3.808  0.5815  0.6841 -0.6433
 2171TIP3    H128004   1.611   4.614   3.739  0.0836  2.6885 -2.5720
 2171TIP3    H228005   1.717   4.700   3.804  0.7345  0.1434 -0.0480
 2172TIP3   OH228006   3.656   3.787  16.670 -0.2045  0.3214  0.2045
 2172TIP3    H128007   3.632   3.780  16.577 -0.7508 -2.0784  0.4626
 2172TIP3    H228008   3.741   3.744  16.676 -0.3250  0.1689  0.8597
 2173TIP3   OH228009   4.635   2.766  15.681  0.0554  0.0271 -0.0399
 2173TIP3    H128010   4.553   2.794  15.640 -0.0999  1.4392  1.1261
 2173TIP3    H228011   4.698   2.833  15.657  0.1570  0.4425  1.2820
 2174TIP3   OH228012   5.772   5.504  14.212  0.3302  0.2051 -0.1608
 2174TIP3    H128013   5.822   5.496  14.131  0.4119  0.5619 -0.1445
 2174TIP3    H228014   5.684   5.472  14.189  0.3977  0.1526 -0.3447
 2175TIP3   OH228015   4.268   2.422   2.618 -0.0215  0.5897 -0.3016
 2175TIP3    H128016   4.300   2.455   2.534  2.6913 -0.6091  0.1425
 2175TIP3    H228017   4.322   2.466   2.683 -0.2424 -0.4711  0.6249
 2176TIP3   OH228018   2.141   0.391  12.083  0.0645 -0.0626 -0.1286
 2176TIP3    H128019   2.098   0.322  12.134 -1.0496  0.5276 -0.2430
 2176TIP3    H228020   2.199   0.434  12.146  1.0869 -1.3209 -0.1448
 2177TIP3   OH228021   3.794   5.208   1.970 -0.0906 -0.1469 -0.3611
 2177TIP3    H128022   3.738   5.182   2.043 -0.3779  1.9419  0.2398
 2177TIP3    H228023   3.865   5.258   2.010  0.2123  0.3095 -1.4309
 2178TIP3   OH228024   4.853   4.680  15.148 -0.4972  0.5275  0.0161
 2178TIP3    H128025   4.837   4.587  15.130 -1.3702  1.2163 -3.5731
 2178TIP3    H228026   4.768   4.713  15.179 -0.5227  0.3678  0.1188
 2179TIP3   OH228027   5.232   1.574   3.626 -0.0590  0.5642 -0.1327
 2179TIP3    H128028   5.260   1.515   3.557 -2.1759  0.5482 -1.0701
 2179TIP3    H228029   5.277   1.656   3.608 -1.1132  0.7935 -2.0501
 2180TIP3   OH228030   3.834   2.501   5.796 -0.5185 -0.5350  0.2045
 2180TIP3    H128031   3.900   2.471   5.858  0.8338  1.6746 -0.0559
 2180TIP3    H228032   3.751   2.476   5.836  0.3722 -0.8118  1.9991
 2181TIP3   OH228033   1.428   1.816  14.583 -0.0944 -0.1284 -0.4392
 2181TIP3    H128034   1.507   1.838  14.633  1.6451 -2.0364 -2.1565
 2181TIP3    H228035   1.439   1.862  14.499 -0.1186 -1.4435 -1.1879
 2182TIP3   OH228036   3.014   3.646   3.685  0.1412 -0.2990 -0.0688
 2182TIP3    H128037   3.021   3.717   3.622 -1.8151  1.0119  1.1032
 2182TIP3    H228038   3.033   3.567   3.634 -2.8847  0.5221 -2.7657
 2183TIP3   OH228039   0.906   0.547  12.929 -0.1198 -0.3342  0.3824
 2183TIP3    H128040   0.996   0.576  12.944  0.5605 -2.0292 -0.1531
 2183TIP3    H228041   0.890   0.562  12.836  0.3856 -1.9362  0.0050
 2184TIP3   OH228042   5.628   6.402  12.617  0.1363 -0.3691  0.0242
 2184TIP3    H128043   5.537   6.430  12.632  0.5479 -0.0491  2.2584
 2184TIP3    H228044   5.642   6.332  12.680  1.9711  0.8144  1.0119
 2185TIP3   OH228045   5.533   6.253  16.214  0.0502  0.2617 -0.5480
 2185TIP3    H128046   5.624   6.281  16.198 -0.3207  0.8783 -1.6706
 2185TIP3    H228047   5.541   6.180  16.274  1.2728  0.6121 -0.2575
 2186TIP3   OH228048   5.735   3.085   4.573 -0.5546 -1.0099  0.4289
 2186TIP3    H128049   5.674   3.069   4.645 -1.4845 -2.1836 -0.5748
 2186TIP3    H228050   5.741   3.180   4.567  0.0286 -0.8717  2.4297
 2187TIP3   OH228051   5.671   2.076  11.335  0.0700  0.1542  0.3444
 2187TIP3    H128052   5.598   2.072  11.272 -0.0773  2.2866  0.2929
 2187TIP3    H228053   5.747   2.045  11.285 -0.7550 -2.1323  0.4100
 2188TIP3   OH228054   0.759   1.965  17.041 -0.7085  0.3091 -0.0778
 2188TIP3    H128055   0.830   1.920  16.995 -0.4660  1.0254 -0.4168
 2188TIP3    H228056   0.716   2.017  16.974 -0.5372  1.1328  0.4357
 2189TIP3   OH228057   6.395   6.576   1.851  0.4568  0.5337  0.3720
 2189TIP3    H128058   6.481   6.591   1.889  0.1227  0.7360  1.0756
 2189TIP3    H228059   6.411   6.567   1.757  1.1311  1.6231  0.3580
 2190TIP3   OH228060   4.750   0.682  12.284  0.2531 -0.2826 -0.6569
 2190TIP3    H128061   4.722   0.679  12.376  2.5534  3.7447  0.4733
 2190TIP3    H228062   4.712   0.763  12.251  0.7093 -0.9033 -2.8192
 2191TIP3   OH228063   2.577   5.122   6.459 -0.8060  0.0544 -0.1445
 2191TIP3    H128064   2.588   5.045   6.403 -0.7835 -1.0868  1.3694
 2191TIP3    H228065   2.484   5.142   6.454 -0.7330  0.2124 -0.9074
 2192TIP3   OH228066   4.265   4.172   1.975 -0.0780  0.5526 -0.7681
 2192TIP3    H128067   4.329   4.232   2.013  1.2586 -1.1734 -0.1163
 2192TIP3    H228068   4.205   4.152   2.046  0.0102  0.4462 -0.7223
 2193TIP3   OH228069   1.594   5.241  16.363 -0.0208  0.8221  0.5237
 2193TIP3    H128070   1.662   5.258  16.428  1.6698  0.3031 -1.0189
 2193TIP3    H228071   1.613   5.303  16.292 -1.4326  0.9446  0.2235
 2194TIP3   OH228072   1.652   1.174   4.235 -0.1493  0.2577 -0.7463
 2194TIP3    H128073   1.674   1.251   4.288  0.4497  0.3153 -1.0656
 2194TIP3    H228074   1.567   1.146   4.268  0.7996 -0.5423  1.2095
 2195TIP3   OH228075   6.336   1.544  15.186  0.3488  0.5485 -0.2549
 2195TIP3    H128076   6.374   1.579  15.106 -1.9736 -0.4281 -1.8664
 2195TIP3    H228077   6.375   1.597  15.256  3.7555  0.3110 -1.7866
 2196TIP3   OH228078   4.659   4.473   3.794 -0.0126 -0.5239 -0.2181
 2196TIP3    H128079   4.723   4.509   3.733  0.1775 -0.7704 -0.1682
 2196TIP3    H228080   4.576   4.512   3.768 -0.4156 -2.6111 -2.3490
 2197TIP3   OH228081   6.796   2.736   6.770 -0.1734  0.2285  0.6237
 2197TIP3    H128082   6.818   2.820   6.731 -1.3296  0.9281  1.4246
 2197TIP3    H228083   6.869   2.717   6.830  0.0697  0.6726  0.4729
 2198TIP3   OH228084   1.106   3.452  16.624 -0.1414  0.0615  0.0174
 2198TIP3    H128085   1.075   3.402  16.699  0.5439  1.3958  1.2328
 2198TIP3    H228086   1.201   3.440  16.624 -0.2047 -0.6055 -1.1656
 2199TIP3   OH228087   1.128   4.060  13.206  0.7342 -0.5982 -0.0972
 2199TIP3    H128088   1.174   4.003  13.267  2.5459  0.1303 -0.6973
 2199TIP3    H228089   1.187   4.068  13.131  0.0561  1.1305 -0.5140
 2200TIP3   OH228090   6.719   5.805   1.743  0.1567  0.6770  0.3308
 2200TIP3    H128091   6.698   5.800   1.650  0.1595 -0.0570  0.3604
 2200TIP3    H228092   6.813   5.820   1.746  0.0600  1.3147  0.2123
 2201TIP3   OH228093   4.073   4.485  10.403 -0.5136 -0.2605  0.8301
 2201TIP3    H128094   4.055   4.551  10.470  0.1203 -0.1210  0.8711
 2201TIP3    H228095   4.134   4.528  10.343 -1.2980 -0.2879 -0.0002
 2202TIP3   OH228096   0.783   2.166  14.847 -0.3413 -0.5338 -0.3558
 2202TIP3    H128097   0.789   2.158  14.752 -1.6111  2.7242 -0.8150
 2202TIP3    H228098   0.873   2.183  14.875  0.0671 -1.6797 -0.9175
 2203TIP3   OH228099   1.467   3.338   1.581 -0.1379 -0.3864  0.0006
 2203TIP3    H128100   1.506   3.378   1.659  0.6359 -2.3637  0.6967
 2203TIP3    H228101   1.392   3.288   1.615 -0.5056 -0.3338 -0.7078
 2204TIP3   OH228102   5.298   1.272   0.067 -0.7696 -0.2702 -0.3607
 2204TIP3    H128103   5.261   1.187   0.045 -0.8390 -0.2777 -0.2181
 2204TIP3    H228104   5.242   1.335   0.021 -0.2121 -0.3415 -1.1430
 2205TIP3   OH228105   1.863   3.635  15.692 -0.1969 -0.4087 -0.3504
 2205TIP3    H128106   1.774   3.669  15.701 -0.9642 -2.3545 -0.1194
 2205TIP3    H228107   1.865   3.595  15.605 -0.3218 -2.3817  0.5040
 2206TIP3   OH228108   1.741   2.616  17.121 -0.1746 -0.0059 -0.7201
 2206TIP3    H128109   1.661   2.574  17.088  0.6787 -1.3835 -1.0922
 2206TIP3    H228110   1.719   2.640  17.211 -0.1725 -2.9182  0.1676
 2207TIP3   OH228111   5.105   1.691  10.843 -0.8386 -0.0472 -0.2943
 2207TIP3    H128112   5.086   1.679  10.750  0.3118  1.2270 -0.7232
 2207TIP3    H228113   5.021   1.716  10.881 -0.8941  1.5950 -1.4159
 2208TIP3   OH228114   1.386   4.403  14.715  0.1379 -0.1132 -0.3358
 2208TIP3    H128115   1.369   4.472  14.779  0.9938 -0.1522 -0.0566
 2208TIP3    H228116   1.373   4.446  14.630  1.7847  0.7310 -0.1971
 2209TIP3   OH228117   6.087   5.956  13.737 -0.1655 -0.1001  0.1178
 2209TIP3    H128118   6.081   5.977  13.644 -1.9479  0.9282  0.4212
 2209TIP3    H228119   6.101   5.861  13.739 -0.2937 -0.1672 -1.1863
 2210TIP3   OH228120   2.961   1.230  16.873  0.4876 -0.1462 -0.3700
 2210TIP3    H128121   2.910   1.267  16.801  0.9735 -1.5645 -1.4915
 2210TIP3    H228122   3.044   1.205  16.833  0.2129 -2.3742  0.2761
 2211TIP3   OH228123   6.684   5.074   0.026 -0.8612 -0.0861 -0.2530
 2211TIP3    H128124   6.736   5.000   0.056  0.6622  1.0067 -0.1063
 2211TIP3    H228125   6.598   5.036   0.005 -0.1072 -1.8764 -0.2436
 2212TIP3   OH228126   4.859   6.065   4.533 -0.1212  0.1433  0.6987
 2212TIP3    H128127   4.935   6.100   4.487  1.4436  0.3925  3.2511
 2212TIP3    H228128   4.795   6.136   4.533  0.7343  0.9319  0.8383
 2213TIP3   OH228129   0.185   0.154  12.472 -0.4881  0.3592  0.2977
 2213TIP3    H128130   0.271   0.139  12.511 -0.8215  1.5572  1.5909
 2213TIP3    H228131   0.176   0.250  12.471 -1.4274  0.2782 -0.6871
 2214TIP3   OH228132   4.957   2.402  10.538 -0.2068  0.1700  0.9831
 2214TIP3    H128133   5.014   2.451  10.599 -0.6084  0.6334  0.9891
 2214TIP3    H228134   4.905   2.469  10.495 -0.4625 -0.2251  0.6735
 2215TIP3   OH228135   3.086   5.849  12.260 -0.6828  0.3392  0.3470
 2215TIP3    H128136   3.147   5.875  12.329  0.1188 -0.8911  0.1219
 2215TIP3    H228137   3.088   5.753  12.260 -0.0172  0.3010 -1.9283
 2216TIP3   OH228138   3.647   5.984  13.730 -0.1963 -0.5968 -0.7913
 2216TIP3    H128139   3.596   6.063  13.711 -0.5833 -0.7023 -0.2345
 2216TIP3    H228140   3.737   6.006  13.708 -0.1819  0.2562  0.0639
 2217TIP3   OH228141   6.569   2.355   3.864 -0.6439 -0.1452 -0.4681
 2217TIP3    H128142   6.601   2.265   3.858 -0.5808 -0.3022  1.3996
 2217TIP3    H228143   6.637   2.400   3.915 -1.2403  0.6591 -0.3811
 2218TIP3   OH228144   4.120   1.548  10.666  0.0721 -0.4043  0.2448
 2218TIP3    H128145   4.059   1.499  10.720 -0.8985  1.2009  0.6868
 2218TIP3    H228146   4.081   1.548  10.579  0.3092 -0.8098  0.1398
 2219TIP3   OH228147   1.431   0.739  12.351 -0.0564  0.1836  1.0528
 2219TIP3    H128148   1.432   0.776  12.439  0.3037 -0.3243  1.2652
 2219TIP3    H228149   1.432   0.815  12.293  2.5255  0.5508  1.4576
 2220TIP3   OH228150   4.341   4.829  16.344  0.0102  0.2560 -0.1297
 2220TIP3    H128151   4.361   4.882  16.421 -0.1461  1.1158 -0.6654
 2220TIP3    H228152   4.388   4.747  16.358 -0.4937  0.1659  1.1560
 2221TIP3   OH228153   4.470   5.901  16.637 -0.0559  0.0572 -0.1391
 2221TIP3    H128154   4.396   5.883  16.694  0.7440 -2.3832  0.2475
 2221TIP3    H228155   4.441   5.871  16.551 -0.3635  1.4396 -0.5522
 2222TIP3   OH228156   6.674   3.007  13.127 -0.0103 -0.0518  0.0284
 2222TIP3    H128157   6.678   2.956  13.046 -0.3864  1.1130 -0.7369
 2222TIP3    H228158   6.686   3.098  13.099 -1.2367  0.4808  1.1442
 2223TIP3   OH228159   6.292   2.207  14.658  0.0291 -0.0282  0.1899
 2223TIP3    H128160   6.227   2.147  14.620  0.1612 -0.0344 -0.0263
 2223TIP3    H228161   6.376   2.175  14.626  0.1883 -0.3398  0.8950
 2224TIP3   OH228162   0.657   4.551  12.153  0.0678 -0.0244 -0.1660
 2224TIP3    H128163   0.634   4.589  12.238  0.0478  2.5753 -1.2361
 2224TIP3    H228164   0.728   4.606  12.120  0.1105 -0.9978 -1.8257
 2225TIP3   OH228165   5.739   5.462  14.864  0.6297  0.5983  0.5723
 2225TIP3    H128166   5.732   5.440  14.771  0.5258 -0.0547  0.7322
 2225TIP3    H228167   5.754   5.378  14.908 -0.8775  0.6898  1.3083
 2226TIP3   OH228168   3.615   0.466   2.707  0.1493 -0.1011 -0.4731
 2226TIP3    H128169   3.710   0.467   2.722  0.1551 -1.5048 -0.3066
 2226TIP3    H228170   3.602   0.397   2.641 -0.9386 -1.3899  1.0059
 2227TIP3   OH228171   0.316   1.949  13.044  0.2407 -0.0558  0.1531
 2227TIP3    H128172   0.240   1.976  12.992  1.1681  0.7180 -0.8524
 2227TIP3    H228173   0.290   1.965  13.135 -1.1024 -0.6140 -0.1136
 2228TIP3   OH228174   0.404   2.107   6.558 -0.0735  0.2603  0.4553
 2228TIP3    H128175   0.327   2.156   6.586  0.6363  0.1473  2.8271
 2228TIP3    H228176   0.466   2.175   6.530 -0.4591  0.4619  0.0940
 2229TIP3   OH228177   6.035   1.253   2.677  0.9139 -0.0095 -0.1543
 2229TIP3    H128178   6.075   1.310   2.743  0.0382  1.1686 -0.5967
 2229TIP3    H228179   6.102   1.247   2.608  2.2316 -2.0482  1.1953
 2230TIP3   OH228180   4.610   5.224   3.330  0.1005  0.2299 -0.3922
 2230TIP3    H128181   4.592   5.183   3.246 -1.3982  0.1357 -0.0632
 2230TIP3    H228182   4.565   5.169   3.394 -3.8538  3.3176 -0.1042
 2231TIP3   OH228183   1.893   2.855  11.256 -0.2006  0.0102 -0.3928
 2231TIP3    H128184   1.956   2.888  11.192  0.8278  1.0347  1.0775
 2231TIP3    H228185   1.924   2.767  11.278  1.2765  0.8071  0.9262
 2232TIP3   OH228186   6.256   2.314   4.811  0.2433  0.3626 -0.6447
 2232TIP3    H128187   6.247   2.226   4.846  1.4551  0.8526  1.0355
 2232TIP3    H228188   6.166   2.344   4.797 -0.2137 -0.7044 -0.0874
 2233TIP3   OH228189   0.646   4.267   3.951  0.6608  0.4583 -0.0818
 2233TIP3    H128190   0.594   4.334   3.907 -1.0338 -0.5548  0.2767
 2233TIP3    H228191   0.654   4.196   3.887  0.1712 -0.0597  0.4072
 2234TIP3   OH228192   2.386   4.236  15.756 -0.0278 -0.1360  0.5112
 2234TIP3    H128193   2.310   4.195  15.798 -1.4983  1.0890 -0.8433
 2234TIP3    H228194   2.452   4.166  15.754 -1.7755 -1.8531 -0.0129
 2235TIP3   OH228195   2.097   4.726   1.568 -0.4826  0.0062  0.1666
 2235TIP3    H128196   2.144   4.772   1.498  1.0047  0.2358  1.2648
 2235TIP3    H228197   2.062   4.795   1.624  1.0855 -0.1224  1.3865
 2236TIP3   OH228198   3.699   3.885   1.704 -0.4704  0.1261  0.3001
 2236TIP3    H128199   3.627   3.944   1.725 -0.5075 -0.1319  0.9076
 2236TIP3    H228200   3.693   3.816   1.769 -0.5800 -0.6882 -0.5620
 2237TIP3   OH228201   2.360   6.622  16.620 -0.1801 -0.3904  0.1481
 2237TIP3    H128202   2.446   6.591  16.649  0.1344 -1.1695 -1.4812
 2237TIP3    H228203   2.345   6.576  16.538 -3.0475 -1.7806  1.3216
 2238TIP3   OH228204   2.379   6.463   5.203  0.4046  0.1155 -0.6285
 2238TIP3    H128205   2.474   6.474   5.194  0.4083  2.1023  1.1325
 2238TIP3    H228206   2.369   6.380   5.249  1.3444  0.2433 -0.1573
 2239TIP3   OH228207   4.563   2.382   2.672 -0.0087  0.0322  0.7955
 2239TIP3    H128208   4.509   2.313   2.712 -0.8503  0.0672 -0.2364
 2239TIP3    H228209   4.643   2.383   2.725  0.8484 -2.9795 -0.1961
 2240TIP3   OH228210   6.052   5.627   1.023 -0.1836 -0.6904  0.5002
 2240TIP3    H128211   6.140   5.663   1.019 -1.0206  1.3405 -1.2628
 2240TIP3    H228212   6.036   5.614   1.117  1.2969  0.6864  0.9830
 2241TIP3   OH228213   4.499   1.293  10.873  0.1514 -0.3281  0.4378
 2241TIP3    H128214   4.460   1.260  10.792 -0.6122 -2.8495  1.7224
 2241TIP3    H228215   4.594   1.282  10.859 -0.0400 -2.5622  0.5295
 2242TIP3   OH228216   0.434   4.651   1.180 -0.1853  0.0378  0.6013
 2242TIP3    H128217   0.519   4.659   1.222  0.1282  1.6931 -0.2732
 2242TIP3    H228218   0.449   4.589   1.108 -0.1192 -0.8313  1.3350
 2243TIP3   OH228219   4.940   3.588  12.738  0.8017 -1.2249  0.4344
 2243TIP3    H128220   4.971   3.615  12.824  1.1297 -0.7658  0.1737
 2243TIP3    H228221   4.847   3.566  12.751  0.0503  1.5469  0.3491
 2244TIP3   OH228222   2.726   3.293  15.320  0.0619 -0.1199  0.5259
 2244TIP3    H128223   2.671   3.277  15.397 -2.3769  2.4281 -0.4892
 2244TIP3    H228224   2.760   3.381  15.334 -1.0260  0.6932 -1.5431
 2245TIP3   OH228225   1.059   5.972  15.653  0.3086 -0.0450  0.3060
 2245TIP3    H128226   1.062   6.036  15.581  0.4670 -0.2313  0.1449
 2245TIP3    H228227   1.002   6.012  15.718  0.4731  0.3018  0.2426
 2246TIP3   OH228228   1.391   1.305   6.036  0.6912  0.0721 -0.1093
 2246TIP3    H128229   1.418   1.272   5.950  0.7217 -1.0200  0.3141
 2246TIP3    H228230   1.318   1.249   6.062  0.0948  0.9649  0.1886
 2247TIP3   OH228231   3.895   4.643  12.737  0.3885  0.5146 -0.0591
 2247TIP3    H128232   3.846   4.723  12.758  0.2958  0.4634 -0.0784
 2247TIP3    H228233   3.943   4.623  12.817 -0.2736  0.0960  0.2449
 2248TIP3   OH228234   4.608   5.541   4.743 -0.1818  0.5291  0.2651
 2248TIP3    H128235   4.516   5.517   4.756  0.0683 -0.4558  0.3391
 2248TIP3    H228236   4.640   5.563   4.830 -0.4319  1.2038  0.1892
 2249TIP3   OH228237   2.321   0.195  11.907 -0.3112 -0.3245  0.4097
 2249TIP3    H128238   2.270   0.268  11.940 -1.0577  0.1645 -1.6642
 2249TIP3    H228239   2.261   0.121  11.908  0.6133 -1.1466  3.0685
 2250TIP3   OH228240   0.196   3.114   2.981 -0.6192 -0.2370  0.1593
 2250TIP3    H128241   0.248   3.089   2.904 -0.4459 -0.9757  0.5039
 2250TIP3    H228242   0.105   3.111   2.950 -0.5247 -0.0072 -0.1533
 2251TIP3   OH228243   6.032   2.042  12.874  0.0394 -0.1005 -0.2624
 2251TIP3    H128244   6.053   2.025  12.966  0.4975  0.2836 -0.2942
 2251TIP3    H228245   5.936   2.048  12.872  0.1098  2.9964  0.7657
 2252TIP3   OH228246   2.082   3.654  15.860  0.3535  0.4649  0.2882
 2252TIP3    H128247   2.044   3.736  15.891 -2.7801 -1.0844  0.9273
 2252TIP3    H228248   2.020   3.623  15.793  1.9142 -0.9890 -0.5696
 2253TIP3   OH228249   4.385   3.623   0.653 -0.1861 -0.0194 -0.4969
 2253TIP3    H128250   4.439   3.690   0.612  1.2758 -1.4027 -0.9033
 2253TIP3    H228251   4.348   3.573   0.580  0.5018 -0.9927 -0.2047
 2254TIP3   OH228252   6.025   0.762   1.243  0.1105 -0.2139 -1.0665
 2254TIP3    H128253   6.011   0.854   1.223 -1.3836 -0.6332 -2.1544
 2254TIP3    H228254   6.056   0.724   1.160 -0.8162 -0.9666 -1.0831
 2255TIP3   OH228255   5.387   6.466   0.136 -1.0861  0.8468 -0.2619
 2255TIP3    H128256   5.475   6.461   0.099 -0.4574  0.8897  1.1539
 2255TIP3    H228257   5.344   6.386   0.105 -0.5858  0.8629 -1.0276
 2256TIP3   OH228258   5.691   6.501  11.443 -0.2107  0.1893 -0.0314
 2256TIP3    H128259   5.666   6.409  11.440  0.3026  0.0558 -0.3556
 2256TIP3    H228260   5.729   6.518  11.357 -0.2488  0.6899  0.0462
 2257TIP3   OH228261   3.546   1.899   2.983 -0.2647  0.6056 -0.1597
 2257TIP3    H128262   3.528   1.939   2.898  0.7457 -0.6647 -1.0130
 2257TIP3    H228263   3.505   1.813   2.979  0.8145  0.0509  0.1392
 2258TIP3   OH228264   4.049   5.749  13.827 -0.7201 -0.6234 -0.7467
 2258TIP3    H128265   3.985   5.688  13.789 -1.8982 -0.3019  0.6368
 2258TIP3    H228266   4.029   5.750  13.920 -0.0585  1.0905 -0.5892
 2259TIP3   OH228267   2.314   6.119   4.764 -0.2792 -0.3785 -0.0172
 2259TIP3    H128268   2.312   6.031   4.801 -0.2500 -0.5963 -0.5278
 2259TIP3    H228269   2.364   6.110   4.683 -0.0911  0.1511  0.0371
 2260TIP3   OH228270   0.335   1.986   2.884  0.0815 -0.3656 -0.6002
 2260TIP3    H128271   0.336   1.890   2.876 -2.6190 -0.8328  2.2056
 2260TIP3    H228272   0.264   2.014   2.827 -1.1095 -0.4784  0.7587
 2261TIP3   OH228273   3.403   5.709   0.106 -0.1184 -0.1610  0.6421
 2261TIP3    H128274   3.322   5.721   0.156  0.3218  0.5830  1.2123
 2261TIP3    H228275   3.451   5.791   0.121 -0.3963  0.5154 -1.8110
 2262TIP3   OH228276   6.750   0.244  12.956 -0.1179  0.1309  0.1030
 2262TIP3    H128277   6.669   0.266  13.001  0.2946  1.2671  0.3157
 2262TIP3    H228278   6.758   0.149  12.967  0.0943  0.3913  2.6764
 2263TIP3   OH228279   4.299   0.783  11.664  0.1359 -0.2660 -0.4894
 2263TIP3    H128280   4.346   0.724  11.721 -1.9028 -0.7504  0.7944
 2263TIP3    H228281   4.226   0.815  11.717  0.0861  1.9486 -1.7457
 2264TIP3   OH228282   2.020   0.973   3.853  0.0161 -0.1681 -0.6033
 2264TIP3    H128283   1.970   0.892   3.845 -1.8619  0.6671  1.4737
 2264TIP3    H228284   2.092   0.951   3.911  0.6369 -0.7829 -1.5898
 2265TIP3   OH228285   1.046   4.790   2.451 -0.4912  0.3532  0.0197
 2265TIP3    H128286   1.011   4.869   2.494 -1.1986  0.0212  0.0669
 2265TIP3    H228287   1.127   4.771   2.498 -0.6381  0.6940  0.4151
 2266TIP3   OH228288   3.427   1.348  14.527  0.1131  0.7063  0.3585
 2266TIP3    H128289   3.445   1.277  14.465  2.4069  1.0977  0.4978
 2266TIP3    H228290   3.512   1.369  14.565 -1.0988  0.9684  3.1558
 2267TIP3   OH228291   0.585   6.590   3.193 -0.0493 -0.0936  0.2074
 2267TIP3    H128292   0.503   6.555   3.228 -0.7550  0.1779 -1.1319
 2267TIP3    H228293   0.624   6.517   3.146  0.1247 -0.0139  0.2270
 2268TIP3   OH228294   6.188   3.515  12.112  0.0940  0.8066  0.5027
 2268TIP3    H128295   6.145   3.598  12.136  2.3192  2.0930  0.3181
 2268TIP3    H228296   6.274   3.542  12.078  0.6362 -1.5651 -0.1585
 2269TIP3   OH228297   2.119   5.075   3.827 -0.3567 -0.0905 -0.5778
 2269TIP3    H128298   2.166   4.993   3.841 -1.1100 -0.0692  2.9066
 2269TIP3    H228299   2.188   5.140   3.813  0.3105 -0.9767 -1.5946
 2270TIP3   OH228300   4.880   1.874  16.695 -0.2474 -0.0920  0.3477
 2270TIP3    H128301   4.945   1.865  16.625 -0.7481 -1.0618 -0.0101
 2270TIP3    H228302   4.845   1.786  16.707 -1.5080  0.4031  0.5162
 2271TIP3   OH228303   3.973   2.073  11.728 -0.4140  0.0872 -0.6908
 2271TIP3    H128304   3.901   2.123  11.766 -0.2095 -0.5155  0.5384
 2271TIP3    H228305   3.931   2.002  11.680 -0.6600 -0.2401 -0.0072
 2272TIP3   OH228306   1.680   2.799  16.138 -0.4858 -0.4163 -0.5123
 2272TIP3    H128307   1.663   2.893  16.146 -0.4482 -0.5157  0.8067
 2272TIP3    H228308   1.742   2.779  16.208 -1.1208 -1.5771 -0.2509
 2273TIP3   OH228309   3.869   2.135  16.648  0.0021 -0.5585  0.0441
 2273TIP3    H128310   3.903   2.194  16.580 -1.2437  1.4488  1.0414
 2273TIP3    H228311   3.865   2.190  16.726 -0.8963 -2.1192  1.1451
 2274TIP3   OH228312   3.408   3.643   3.139 -0.3728 -0.5595  0.3815
 2274TIP3    H128313   3.322   3.682   3.118  0.0872 -0.4244 -1.4582
 2274TIP3    H228314   3.471   3.706   3.106  0.4064 -1.8462 -0.6955
 2275TIP3   OH228315   0.203   4.442  11.010  0.5181  0.0328 -0.2564
 2275TIP3    H128316   0.153   4.401  11.081  1.7164 -1.6669 -0.3367
 2275TIP3    H228317   0.292   4.408  11.021  1.6071  2.6367 -0.3675
 2276TIP3   OH228318   1.697   2.089  15.994 -0.0499  0.2654  0.3155
 2276TIP3    H128319   1.646   2.077  16.073 -0.0631  1.3912  0.4924
 2276TIP3    H228320   1.634   2.116  15.928  0.2372  1.2738  0.4360
 2277TIP3   OH228321   2.612   0.683   3.262 -0.0334 -0.0205 -0.3680
 2277TIP3    H128322   2.667   0.624   3.210 -0.3633 -0.3667 -0.3362
 2277TIP3    H228323   2.580   0.628   3.333 -2.8297 -0.7108 -2.0072
 2278TIP3   OH228324   5.122   5.345   3.008  0.4285 -1.0684  0.0252
 2278TIP3    H128325   5.047   5.351   3.068  0.9176 -0.5783  0.6133
 2278TIP3    H228326   5.165   5.263   3.032  0.4557 -1.0166  0.1610
 2279TIP3   OH228327   2.990   2.868   0.614  0.1977  0.1909  0.3635
 2279TIP3    H128328   2.976   2.844   0.523  4.0131  0.7466 -0.5627
 2279TIP3    H228329   3.017   2.786   0.657  1.8430  0.5275  0.0488
 2280TIP3   OH228330   0.446   6.600   2.947  0.1451  0.0790  0.1592
 2280TIP3    H128331   0.412   6.586   3.036 -0.1733  1.0006  0.1900
 2280TIP3    H228332   0.464   6.693   2.942  2.7597 -0.3705  0.1354
 2281TIP3   OH228333   0.472   3.674  15.769  0.1707  0.2716 -0.0473
 2281TIP3    H128334   0.532   3.684  15.695 -1.4163  1.6328 -1.2393
 2281TIP3    H228335   0.527   3.647  15.842  2.1940  1.3192 -1.1170
 2282TIP3   OH228336   2.566   5.803  12.683  0.3587  0.2085  0.5752
 2282TIP3    H128337   2.517   5.841  12.757 -0.0753 -1.7134  1.3415
 2282TIP3    H228338   2.653   5.785  12.718  1.1051  1.8979 -0.2600
 2283TIP3   OH228339   2.661   5.515   2.545  0.6620 -0.4290  0.4219
 2283TIP3    H128340   2.642   5.498   2.637 -0.5752  2.2063  0.7322
 2283TIP3    H228341   2.632   5.436   2.499 -3.4482  0.0378  1.8240
 2284TIP3   OH228342   5.173   1.299   2.033  0.3241 -0.1555 -0.3339
 2284TIP3    H128343   5.256   1.263   2.063 -0.4374 -1.3719  0.4224
 2284TIP3    H228344   5.166   1.383   2.077  1.3809  0.1917 -0.8120
 2285TIP3   OH228345   4.274   1.736   1.326 -0.6578  0.0294  0.7877
 2285TIP3    H128346   4.215   1.810   1.309 -1.1139 -0.8273 -1.8176
 2285TIP3    H228347   4.217   1.665   1.354 -0.4910 -0.0068  1.0451
 2286TIP3   OH228348   0.353   5.901  16.384 -0.3324  0.2722 -0.0884
 2286TIP3    H128349   0.386   5.811  16.376  1.2602  0.8929 -0.9069
 2286TIP3    H228350   0.432   5.954  16.397 -1.2528  1.5639  0.4425
 2287TIP3   OH228351   1.185   5.388  12.028 -0.0455  0.0032 -0.3582
 2287TIP3    H128352   1.112   5.444  12.003  0.8782  0.8482 -1.2661
 2287TIP3    H228353   1.230   5.370  11.945  0.0043 -1.6391 -0.0139
 2288TIP3   OH228354   4.223   3.411   3.253 -0.0040 -0.0263 -0.3375
 2288TIP3    H128355   4.225   3.446   3.164 -0.5047 -0.1710 -0.4104
 2288TIP3    H228356   4.137   3.370   3.261 -0.2213  0.5338  0.4213
 2289TIP3   OH228357   6.028   4.744   2.842  0.7776 -0.2606 -0.4486
 2289TIP3    H128358   6.054   4.731   2.751  1.1401  0.1283 -0.4038
 2289TIP3    H228359   5.933   4.749   2.840  0.8159  0.4621 -0.9047
 2290TIP3   OH228360   2.215   3.856  14.092  0.1104 -0.1121  0.0580
 2290TIP3    H128361   2.236   3.944  14.122 -0.8990  0.0731  0.2463
 2290TIP3    H228362   2.300   3.815  14.076  0.5898  0.8392  0.1212
 2291TIP3   OH228363   0.847   3.345  13.451  0.7099 -0.2013  0.2439
 2291TIP3    H128364   0.821   3.399  13.376 -0.4109  0.7456  1.2546
 2291TIP3    H228365   0.941   3.333  13.441  0.4647 -0.8948 -1.7958
 2292TIP3   OH228366   2.799   3.990   6.082  0.1040 -0.2351 -0.4146
 2292TIP3    H128367   2.742   4.006   6.157 -1.2198  0.4288 -1.5110
 2292TIP3    H228368   2.804   3.895   6.075  0.3781 -0.3091  0.5893
 2293TIP3   OH228369   1.397   0.580  13.418  0.2203  0.3006  0.3215
 2293TIP3    H128370   1.491   0.597  13.414  0.5361 -1.0276  1.3604
 2293TIP3    H228371   1.368   0.623  13.499  0.2499 -0.5714  0.8121
 2294TIP3   OH228372   2.117   3.284  11.857  0.1999 -0.1698  0.2804
 2294TIP3    H128373   2.092   3.255  11.769  0.2148  3.0714 -0.9116
 2294TIP3    H228374   2.205   3.321  11.846 -0.0989  0.9563  1.4800
 2295TIP3   OH228375   0.691   6.368   3.145  0.4139  0.0018  0.1452
 2295TIP3    H128376   0.684   6.285   3.098  1.5094  0.8453 -1.6241
 2295TIP3    H228377   0.706   6.343   3.236 -1.2322 -1.7071  0.0108
 2296TIP3   OH228378   3.523   5.818   1.986  0.3400 -0.3830 -0.5445
 2296TIP3    H128379   3.614   5.818   1.957 -0.0851  0.8028 -1.9806
 2296TIP3    H228380   3.489   5.903   1.959 -1.1413 -0.7226  0.1614
 2297TIP3   OH228381   4.681   4.900  16.777 -0.3105 -0.0396 -0.7816
 2297TIP3    H128382   4.729   4.980  16.760  0.4225 -0.2638  0.1317
 2297TIP3    H228383   4.661   4.904  16.871 -0.6397 -0.7141 -0.8192
 2298TIP3   OH228384   0.853   6.690   4.242  0.2435 -1.0179 -0.0246
 2298TIP3    H128385   0.882   6.781   4.256  0.4632 -0.9024 -1.1567
 2298TIP3    H228386   0.828   6.687   4.150 -0.4940 -1.9196  0.2009
 2299TIP3   OH228387   6.560   5.565  14.746  0.3815  0.4795  0.1840
 2299TIP3    H128388   6.608   5.485  14.768  1.6069  1.0218 -0.4526
 2299TIP3    H228389   6.518   5.591  14.828 -1.0163 -1.4331  0.1407
 2300TIP3   OH228390   2.592   5.460  10.855 -0.0484  0.7987 -0.1281
 2300TIP3    H128391   2.528   5.530  10.866 -0.1919  0.7619 -0.6770
 2300TIP3    H228392   2.669   5.504  10.817  0.1346  0.7880  0.2303
 2301TIP3   OH228393   6.557   1.534  15.529  0.2916  0.0983  0.0683
 2301TIP3    H128394   6.608   1.585  15.592  0.0631 -1.2815  1.4162
 2301TIP3    H228395   6.528   1.599  15.464  0.6650  1.5390  1.2846
 2302TIP3   OH228396   4.929   2.591   5.637 -0.4043 -0.9459  0.6166
 2302TIP3    H128397   4.984   2.559   5.565 -0.1592 -1.8254  1.1825
 2302TIP3    H228398   4.988   2.646   5.689  0.0517 -2.1619  1.4123
 2303TIP3   OH228399   1.039   3.615  10.837 -0.3024 -0.2434 -0.3153
 2303TIP3    H128400   1.116   3.576  10.795 -0.0449 -0.4639  0.3503
 2303TIP3    H228401   1.025   3.697  10.790  0.5468 -0.0347 -0.2088
 2304TIP3   OH228402   1.308   5.437  11.790 -0.1143 -0.4626  0.1541
 2304TIP3    H128403   1.302   5.468  11.700  0.4538 -0.5777  0.0744
 2304TIP3    H228404   1.401   5.417  11.802 -0.5655 -3.0377 -0.1036
 2305TIP3   OH228405   6.065   4.633   3.742  0.1372  0.1675  0.2552
 2305TIP3    H128406   6.024   4.689   3.677  1.4326 -2.5009 -3.1486
 2305TIP3    H228407   5.997   4.569   3.765  0.4606 -0.5186 -0.6338
 2306TIP3   OH228408   1.550   3.326  14.332  0.6820 -0.3366  0.5282
 2306TIP3    H128409   1.529   3.295  14.244 -0.4460 -0.7654  0.9346
 2306TIP3    H228410   1.508   3.411  14.340 -0.2403 -0.8212  1.0478
 2307TIP3   OH228411   2.854   2.856  15.102 -0.3248 -0.1863  0.1844
 2307TIP3    H128412   2.889   2.876  15.015  0.7568  0.4574  0.7372
 2307TIP3    H228413   2.866   2.937  15.152  1.0945 -1.1711  1.5460
 2308TIP3   OH228414   6.399   0.573   1.447  0.3785  0.0336 -0.5184
 2308TIP3    H128415   6.342   0.504   1.482 -1.4970  1.8616  0.3010
 2308TIP3    H228416   6.379   0.649   1.502  4.7354  0.4846  0.7669
 2309TIP3   OH228417   3.677   5.580   2.606 -0.0787 -0.0557 -0.0089
 2309TIP3    H128418   3.770   5.600   2.621  0.0317  0.7995 -1.5862
 2309TIP3    H228419   3.632   5.615   2.683  0.7292  1.1168 -0.0411
 2310TIP3   OH228420   6.775   6.047   0.862  0.1375 -0.0025 -0.0771
 2310TIP3    H128421   6.810   6.110   0.799 -1.5002  0.6686 -0.3613
 2310TIP3    H228422   6.756   5.969   0.809 -0.8597  0.4199 -0.3666
 2311TIP3   OH228423   2.006   0.711   1.301 -0.9580  0.6963  0.1976
 2311TIP3    H128424   1.973   0.747   1.383 -0.8728  0.5853  0.2811
 2311TIP3    H228425   2.099   0.696   1.316 -1.1932 -0.6077  0.5530
 2312TIP3   OH228426   1.052   6.652  16.545 -0.3899 -0.3321 -0.2367
 2312TIP3    H128427   1.130   6.661  16.599  0.1740 -0.8756 -0.9365
 2312TIP3    H228428   1.082   6.607  16.466 -2.0003 -3.5079  0.8098
 2313TIP3   OH228429   5.910   2.691  16.684  0.4772  0.5810 -0.2060
 2313TIP3    H128430   5.930   2.785  16.680 -2.4747  1.2685 -1.0181
 2313TIP3    H228431   5.876   2.670  16.597 -1.3626 -0.5937  0.7337
 2314TIP3   OH228432   5.956   6.083  15.695 -0.1484 -0.1304  0.0831
 2314TIP3    H128433   6.041   6.125  15.708  0.9638 -1.5676 -1.9796
 2314TIP3    H228434   5.904   6.147  15.647  1.0340 -0.4953 -1.7789
 2315TIP3   OH228435   2.770   1.643  15.805 -0.3797  0.5051  0.4740
 2315TIP3    H128436   2.759   1.548  15.802  2.1281  0.1715 -0.9763
 2315TIP3    H228437   2.721   1.676  15.729  1.6965 -0.1102 -1.2487
 2316TIP3   OH228438   4.794   1.497  14.850  0.2231  0.5836 -0.1207
 2316TIP3    H128439   4.887   1.474  14.853  0.6951  2.4922  1.7335
 2316TIP3    H228440   4.791   1.589  14.873 -2.0938  0.8160 -1.0992
 2317TIP3   OH228441   4.509   3.877   5.329  0.0349  0.2504 -0.0663
 2317TIP3    H128442   4.604   3.867   5.317 -0.2029 -0.3358 -1.7796
 2317TIP3    H228443   4.476   3.787   5.336 -0.4851  0.4020 -0.4808
 2318TIP3   OH228444   0.142   4.919  12.055 -0.0216 -0.5103 -0.0578
 2318TIP3    H128445   0.092   4.993  12.021 -0.9142 -0.0314  2.1019
 2318TIP3    H228446   0.221   4.916  12.001  0.6341  2.8241  0.5154
 2319TIP3   OH228447   5.295   1.554   4.739 -0.6318  0.4104  0.0772
 2319TIP3    H128448   5.204   1.527   4.723 -0.2834 -0.1940 -0.8861
 2319TIP3    H228449   5.335   1.560   4.653  0.5475 -0.3559  0.5467
 2320TIP3   OH228450   2.024   0.840   5.942  0.0076  0.3282 -0.1297
 2320TIP3    H128451   2.112   0.820   5.974  0.2877  1.2234 -0.3156
 2320TIP3    H228452   1.967   0.779   5.989  0.6587  0.1344  0.4231
 2321TIP3   OH228453   1.993   5.922  11.332  0.0325  0.1126 -0.3717
 2321TIP3    H128454   1.925   5.988  11.346  1.3615  1.9550 -2.1067
 2321TIP3    H228455   2.002   5.916  11.237  1.5349 -0.9061 -0.2051
 2322TIP3   OH228456   3.683   0.714   0.682  0.3580 -0.0030 -0.1055
 2322TIP3    H128457   3.641   0.630   0.704 -0.6447 -0.0427 -1.9541
 2322TIP3    H228458   3.754   0.722   0.745  0.2719 -2.0954  0.3391
 2323TIP3   OH228459   6.549   6.151   2.939 -0.0951  0.1496 -0.4264
 2323TIP3    H128460   6.468   6.132   2.987 -0.3027  1.1457 -0.3445
 2323TIP3    H228461   6.551   6.247   2.933 -0.1772  0.0807 -2.5667
 2324TIP3   OH228462   5.807   1.479   5.843  0.1886  0.3201  1.0706
 2324TIP3    H128463   5.727   1.531   5.836  0.4077  0.4829 -0.5466
 2324TIP3    H228464   5.832   1.459   5.753  1.9565  0.2510  1.5198
 2325TIP3   OH228465   4.469   0.052   6.088  0.2393  0.2295 -0.5015
 2325TIP3    H128466   4.415   0.009   6.154  0.8769 -1.9999 -1.3647
 2325TIP3    H228467   4.412   0.061   6.012 -0.5032  2.8250  0.2238
 2326TIP3   OH228468   0.469   0.634   0.081 -0.3603 -0.1162 -0.4782
 2326TIP3    H128469   0.527   0.639   0.005 -0.0805  2.0654 -0.1960
 2326TIP3    H228470   0.381   0.626   0.043 -0.2861  1.6369 -1.1021
 2327TIP3   OH228471   2.607   5.414   1.623  0.4905  0.0122 -0.6450
 2327TIP3    H128472   2.658   5.347   1.577  1.6121  1.6993 -1.9789
 2327TIP3    H228473   2.585   5.478   1.555 -1.7180  0.3660  0.3132
 2328TIP3   OH228474   2.261   1.977   1.082 -0.0720 -0.1155  0.8710
 2328TIP3    H128475   2.305   2.055   1.116  0.4425 -0.0315  0.0218
 2328TIP3    H228476   2.180   2.009   1.044  0.3986  0.0832  0.0246
 2329TIP3   OH228477   6.672   6.754   4.181  0.2097  0.6200 -0.3959
 2329TIP3    H128478   6.752   6.766   4.233  0.1367  0.9233 -0.3487
 2329TIP3    H228479   6.702   6.711   4.101 -0.0393 -2.3656  0.9963
 2330TIP3   OH228480   0.044   0.344  11.377  0.4334 -0.4331 -0.3890
 2330TIP3    H128481   0.138   0.361  11.372  0.1734  1.2301 -0.2822
 2330TIP3    H228482   0.025   0.346  11.471 -0.0015  1.2381 -0.4802
 2331TIP3   OH228483   3.974   4.890  14.740  0.0677 -0.0370  0.1863
 2331TIP3    H128484   3.971   4.850  14.653 -0.1844 -1.1324  0.6873
 2331TIP3    H228485   3.884   4.886  14.772  0.5237 -1.6057  1.3542
 2332TIP3   OH228486   3.712   6.136   0.234  0.2975  0.5093 -0.4210
 2332TIP3    H128487   3.760   6.200   0.181 -0.5857  2.2732  0.8207
 2332TIP3    H228488   3.695   6.181   0.316 -0.3857 -1.3523  0.5092
 2333TIP3   OH228489   0.940   0.052  12.376 -0.2493  0.4257 -0.3767
 2333TIP3    H128490   0.856   0.062  12.422  0.1774 -1.4010  0.9029
 2333TIP3    H228491   0.922  -0.011  12.307 -0.5070  2.0002 -1.8097
 2334TIP3   OH228492   0.519   4.116  11.580  0.0660  0.3350 -0.0881
 2334TIP3    H128493   0.475   4.100  11.496  0.5803  0.2394 -0.3485
 2334TIP3    H228494   0.535   4.210  11.581  0.8569  0.2180 -0.5153
 2335TIP3   OH228495   3.663   4.615   0.128  0.0225 -0.1171 -0.3443
 2335TIP3    H128496   3.728   4.600   0.196 -1.8566  1.3656  1.9707
 2335TIP3    H228497   3.588   4.652   0.175 -2.8862 -2.5181 -2.6664
 2336TIP3   OH228498   5.871   6.799  15.751 -0.4618  0.4409 -0.2827
 2336TIP3    H128499   5.812   6.857  15.800 -0.3321 -0.5081  1.0685
 2336TIP3    H228500   5.955   6.806  15.798 -0.4479 -0.8336 -0.0967
 2337TIP3   OH228501   4.105   2.922   6.142  0.0958  0.0178 -0.5341
 2337TIP3    H128502   4.200   2.906   6.146  0.1367  0.3770  0.0237
 2337TIP3    H228503   4.086   2.971   6.222 -0.4869  0.3442 -0.8694
 2338TIP3   OH228504   5.738   3.707  13.142 -0.4103  0.6393  0.4985
 2338TIP3    H128505   5.816   3.741  13.185 -0.2299 -0.6622  1.2509
 2338TIP3    H228506   5.759   3.616  13.122 -1.0925  0.7735 -0.9214
 2339TIP3   OH228507   5.992   2.182  16.145  0.0377  0.4781  0.3583
 2339TIP3    H128508   5.950   2.152  16.226  1.8182  0.5380  1.3396
 2339TIP3    H228509   6.044   2.106  16.116 -1.2293  0.1631 -1.2235
 2340TIP3   OH228510   5.611   6.311   3.605  0.1681 -0.4634  0.2536
 2340TIP3    H128511   5.578   6.361   3.680  0.3844 -0.9246  0.6647
 2340TIP3    H228512   5.604   6.220   3.633  1.5870 -0.5895  0.2703
 2341TIP3   OH228513   0.618   0.103   4.122  0.5440 -0.0654  0.0170
 2341TIP3    H128514   0.536   0.088   4.074 -0.0069 -3.5301  1.7397
 2341TIP3    H228515   0.681   0.046   4.079  1.6313  1.1730 -0.1048
 2342TIP3   OH228516   5.978   0.952  11.416  0.1342 -0.4451 -0.1346
 2342TIP3    H128517   6.046   0.997  11.465  1.4144 -1.8290 -0.5713
 2342TIP3    H228518   5.951   0.880  11.472  0.9337 -1.4736 -1.0283
 2343TIP3   OH228519   6.396   2.133  13.200  0.4604  0.4462  0.5289
 2343TIP3    H128520   6.408   2.088  13.284  2.0007  0.9245  0.6074
 2343TIP3    H228521   6.347   2.212  13.222  0.3493  0.2819  0.8837
 2344TIP3   OH228522   4.860   5.006  10.769  0.0630  0.3871 -0.7721
 2344TIP3    H128523   4.834   5.081  10.821  1.5251 -1.1227  2.3820
 2344TIP3    H228524   4.783   4.948  10.769  0.3876 -0.0801  0.7401
 2345TIP3   OH228525   1.264   3.425   0.397  0.1999  0.1210  0.4140
 2345TIP3    H128526   1.177   3.458   0.419 -0.2738 -0.6886 -0.1620
 2345TIP3    H228527   1.297   3.387   0.479  0.1464  0.7081  0.7112
 2346TIP3   OH228528   5.305   6.786  14.197  0.2591  0.2454 -0.2535
 2346TIP3    H128529   5.391   6.826  14.214  0.1652  0.3166  0.0630
 2346TIP3    H228530   5.302   6.776  14.102  0.0412  1.5554 -0.4064
 2347TIP3   OH228531   2.816   2.947   3.454  0.6202  0.2275  0.0479
 2347TIP3    H128532   2.775   2.923   3.537  2.3417 -1.3114  0.5365
 2347TIP3    H228533   2.826   2.864   3.407  0.1490  1.0080 -1.4941
 2348TIP3   OH228534   0.850   3.196  15.667 -0.6551  0.0572 -0.1004
 2348TIP3    H128535   0.755   3.185  15.660 -0.8144 -1.9283  3.0743
 2348TIP3    H228536   0.884   3.156  15.587 -2.4034  2.5134 -2.2870
 2349TIP3   OH228537   4.203   3.440   5.240 -0.3570  0.5206 -0.7055
 2349TIP3    H128538   4.109   3.423   5.234 -0.8813  2.3064  1.3720
 2349TIP3    H228539   4.240   3.358   5.273 -1.3038  0.0868 -0.6976
 2350TIP3   OH228540   3.987   3.643   4.774  0.4569  0.2069 -0.2675
 2350TIP3    H128541   4.062   3.615   4.826 -0.5247 -0.7339  0.6872
 2350TIP3    H228542   3.952   3.719   4.820 -0.6497 -0.8642  0.7179
 2351TIP3   OH228543   4.062   0.230  17.079 -0.5487  0.0108 -0.6348
 2351TIP3    H128544   4.017   0.149  17.056 -1.1011 -0.3566  1.5051
 2351TIP3    H228545   4.153   0.205  17.094 -0.3983  0.0766 -1.4089
 2352TIP3   OH228546   1.329   2.217   2.749  0.2129 -0.1715  0.4836
 2352TIP3    H128547   1.382   2.171   2.814  0.2653 -1.6237 -0.5499
 2352TIP3    H228548   1.266   2.152   2.719  2.0604 -0.5687 -3.0685
 2353TIP3   OH228549   5.696   6.821  12.970  0.0627  0.5737  0.5825
 2353TIP3    H128550   5.790   6.822  12.951  0.5608 -1.2318  2.5349
 2353TIP3    H228551   5.691   6.794  13.061 -2.3957 -0.3205  0.2516
 2354TIP3   OH228552   0.919   6.428   6.097 -0.7825  0.1157 -0.0746
 2354TIP3    H128553   1.004   6.418   6.141 -1.7184 -1.0181  1.5764
 2354TIP3    H228554   0.923   6.365   6.024 -0.7788 -1.1263  0.9612
 2355TIP3   OH228555   0.143   3.853   3.156 -0.0483 -0.0042 -0.3883
 2355TIP3    H128556   0.212   3.825   3.217 -0.3016 -2.2306 -1.0633
 2355TIP3    H228557   0.175   3.827   3.070 -1.6404 -0.9409 -0.7239
 2356TIP3   OH228558   1.350   4.798   1.295 -0.0212  0.1465  0.1108
 2356TIP3    H128559   1.436   4.758   1.281 -0.5734 -1.7964  1.7824
 2356TIP3    H228560   1.352   4.827   1.386 -0.9362  0.5931 -0.0048
 2357TIP3   OH228561   1.019   3.939  16.808 -0.1160  0.2326 -0.0852
 2357TIP3    H128562   0.931   3.965  16.836  0.2751  1.1136  0.3801
 2357TIP3    H228563   1.067   4.021  16.801  0.8771 -0.2868  0.3895
 2358TIP3   OH228564   3.055   2.701  12.545  0.3181 -0.6064  0.2171
 2358TIP3    H128565   3.036   2.794  12.526 -2.9037 -0.9956  0.9014
 2358TIP3    H228566   2.974   2.656  12.522  1.9571 -3.3743 -0.4949
 2359TIP3   OH228567   2.138   3.788  16.930 -0.3882  0.3465  0.4459
 2359TIP3    H128568   2.086   3.708  16.938  0.7137 -0.3040  1.4540
 2359TIP3    H228569   2.228   3.759  16.943 -0.0270  1.8438  1.4600
 2360TIP3   OH228570   0.871   1.416  16.340  0.1178  0.3361  0.6837
 2360TIP3    H128571   0.778   1.413  16.317  0.2700  1.7244 -0.1394
 2360TIP3    H228572   0.917   1.411  16.257  0.7778  0.4089  1.0385
 2361TIP3   OH228573   1.753   3.164   2.788 -0.1579 -0.0976 -0.1760
 2361TIP3    H128574   1.707   3.204   2.862 -0.4233  0.0692 -0.4309
 2361TIP3    H228575   1.692   3.098   2.755 -0.2060  0.1112 -0.5027
 2362TIP3   OH228576   6.347   2.695   5.826 -0.0702 -0.1577  0.2803
 2362TIP3    H128577   6.352   2.778   5.873  1.2937 -0.0926  0.0579
 2362TIP3    H228578   6.269   2.652   5.861 -0.9586  1.3339  0.1881
 2363TIP3   OH228579   4.916   5.849  11.700  0.0728 -0.3617  0.4969
 2363TIP3    H128580   4.994   5.867  11.647  0.4096 -2.2191  0.2997
 2363TIP3    H228581   4.952   5.821  11.785 -0.4040 -0.3369  0.7073
 2364TIP3   OH228582   0.407   5.902   4.961 -0.0702 -0.0083 -0.7832
 2364TIP3    H128583   0.338   5.969   4.959  0.7364  0.8457 -1.1375
 2364TIP3    H228584   0.377   5.835   4.900 -0.6563  0.2761 -0.8154
 2365TIP3   OH228585   5.477   4.057   1.037 -0.5944  0.6983  0.7362
 2365TIP3    H128586   5.424   4.103   1.101 -2.0406  0.3979 -0.2053
 2365TIP3    H228587   5.483   4.117   0.962  0.8591  0.9451  1.0157
 2366TIP3   OH228588   1.376   3.161   3.091  0.4052  0.5216 -0.3955
 2366TIP3    H128589   1.315   3.225   3.127 -0.1982  0.5989 -1.5229
 2366TIP3    H228590   1.391   3.099   3.163 -1.1668  0.3719 -0.1580
 2367TIP3   OH228591   5.777   2.117  17.006 -0.4140  0.7585  0.0052
 2367TIP3    H128592   5.759   2.206  17.035  1.9195  1.3973 -0.3242
 2367TIP3    H228593   5.790   2.068  17.088  1.1181  1.4060  0.1860
 2368TIP3   OH228594   6.566   4.469  13.757  0.3699  0.4453  0.4660
 2368TIP3    H128595   6.652   4.430  13.767 -0.2304 -0.6243  1.7903
 2368TIP3    H228596   6.513   4.401  13.716  0.1946  1.1851 -0.5789
 2369TIP3   OH228597   2.928   6.534   2.935 -0.6495 -0.2452 -0.0746
 2369TIP3    H128598   2.902   6.579   3.015  0.9105  1.6276 -0.5425
 2369TIP3    H228599   2.931   6.603   2.869  0.5104 -1.2864 -1.1468
 2370TIP3   OH228600   4.423   1.557  12.586 -0.2472  0.5674 -0.1882
 2370TIP3    H128601   4.496   1.529  12.640 -0.8551  1.1881  0.9762
 2370TIP3    H228602   4.433   1.507  12.504 -0.5020 -2.0035  1.2502
 2371TIP3   OH228603   5.610   0.255  13.844  0.0147  0.2573 -0.2709
 2371TIP3    H128604   5.645   0.299  13.921 -1.1351 -0.8369  0.9249
 2371TIP3    H228605   5.673   0.275  13.774  1.5536  0.5279  1.1378
 2372TIP3   OH228606   3.012   3.179  16.961 -0.0796  0.2926  0.0689
 2372TIP3    H128607   2.996   3.273  16.967  1.4505  0.6410 -0.7628
 2372TIP3    H228608   3.083   3.162  17.024  0.0047 -0.2118 -0.1544
 2373TIP3   OH228609   3.949   6.526  16.015  0.0602 -0.0534 -0.8217
 2373TIP3    H128610   3.949   6.583  16.092 -1.7027  2.6450 -2.6340
 2373TIP3    H228611   3.874   6.468  16.028  0.1202 -0.0029 -0.2484
 2374TIP3   OH228612   1.950   1.265   3.924  0.0233 -0.1290 -0.1611
 2374TIP3    H128613   1.975   1.173   3.912 -1.8669 -0.5307 -1.4837
 2374TIP3    H228614   1.857   1.262   3.945  0.3947  1.4072  2.0407
 2375TIP3   OH228615   6.151   5.645   4.203 -0.4250  0.0829  0.2847
 2375TIP3    H128616   6.132   5.703   4.129 -1.0084  0.4666  0.7198
 2375TIP3    H228617   6.070   5.645   4.255  0.5419  1.3344  1.9134
 2376TIP3   OH228618   0.170   4.856  16.598  0.4124 -0.2403 -0.3138
 2376TIP3    H128619   0.174   4.911  16.519 -0.6673  0.9689  0.4294
 2376TIP3    H228620   0.091   4.803  16.586 -1.0286  1.5169  0.8706
 2377TIP3   OH228621   1.526   5.776  15.302 -0.3209 -0.5585  1.0366
 2377TIP3    H128622   1.442   5.817  15.323  0.2824  0.1890  2.1244
 2377TIP3    H228623   1.566   5.836  15.239  0.9054  1.1034  3.2161
 2378TIP3   OH228624   6.174   0.543   5.527 -0.1630 -0.1344  0.5542
 2378TIP3    H128625   6.123   0.500   5.458 -0.1978 -1.8935  1.6378
 2378TIP3    H228626   6.126   0.624   5.545 -0.5907 -0.0362 -0.9119
 2379TIP3   OH228627   2.431   3.160   0.976 -0.3275  0.2519  0.0678
 2379TIP3    H128628   2.505   3.201   1.021 -0.2180 -0.1169  0.2315
 2379TIP3    H228629   2.375   3.128   1.047  1.7698 -3.9111  0.1669
 2380TIP3   OH228630   6.816   5.694   4.762 -0.0355  0.2984 -0.0770
 2380TIP3    H128631   6.739   5.675   4.816  0.7607  1.6131  1.6185
 2380TIP3    H228632   6.865   5.612   4.762 -1.0737 -0.3445 -0.5933
 2381TIP3   OH228633   6.423   6.804   4.459 -0.4567  0.5061 -0.4859
 2381TIP3    H128634   6.414   6.794   4.364 -0.6558 -3.2256 -0.2231
 2381TIP3    H228635   6.517   6.793   4.476 -0.6505 -0.8168 -0.1544
 2382TIP3   OH228636   6.131   2.050  11.102  0.3422  0.4151  0.1045
 2382TIP3    H128637   6.141   2.100  11.183  1.2758 -0.1307  0.3376
 2382TIP3    H228638   6.136   2.116  11.032 -3.0131  1.2910  0.4832
 2383TIP3   OH228639   2.280   0.538   0.463 -0.2242 -0.9907  0.2253
 2383TIP3    H128640   2.251   0.447   0.455 -1.9950 -0.3125 -1.5818
 2383TIP3    H228641   2.283   0.571   0.374  1.1880  0.5236  0.7805
 2384TIP3   OH228642   4.529   3.117  15.704 -0.1634 -0.4324 -0.4239
 2384TIP3    H128643   4.473   3.064  15.646 -0.9627  1.8775 -1.9034
 2384TIP3    H228644   4.616   3.079  15.694 -0.5997 -1.1432 -1.8584
 2385TIP3   OH228645   0.218   0.203   3.466  0.1825 -0.3261  0.0035
 2385TIP3    H128646   0.145   0.207   3.528  1.7464  0.2329  1.9173
 2385TIP3    H228647   0.295   0.223   3.519  1.5934  0.3797 -2.1984
 2386TIP3   OH228648   5.390   0.364   4.201 -0.2570 -0.1209 -0.3036
 2386TIP3    H128649   5.366   0.274   4.221 -0.7304 -0.1116 -0.8359
 2386TIP3    H228650   5.323   0.395   4.140 -0.0159  0.5435 -0.2463
 2387TIP3   OH228651   4.143   2.264  11.579  0.6427  0.0110 -0.9127
 2387TIP3    H128652   4.180   2.206  11.512 -1.1076  1.0156 -2.8574
 2387TIP3    H228653   4.070   2.214  11.616  2.9233 -1.4484  1.9944
 2388TIP3   OH228654   3.637   0.564   1.075  0.2540  0.0001  0.7870
 2388TIP3    H128655   3.554   0.531   1.041  0.0379  2.6155 -1.6385
 2388TIP3    H228656   3.612   0.618   1.150 -0.2606  0.5204  0.2614
 2389TIP3   OH228657   1.631   6.358  15.720  0.1210  0.2438  0.1493
 2389TIP3    H128658   1.634   6.451  15.744  1.8367 -0.0947  1.4236
 2389TIP3    H228659   1.720   6.327  15.732  0.0636 -1.1458 -2.2329
 2390TIP3   OH228660   6.312   0.850   3.016 -0.0737  0.1145  0.3556
 2390TIP3    H128661   6.255   0.917   2.978  0.3062 -0.2971 -0.9684
 2390TIP3    H228662   6.355   0.808   2.941 -0.6016 -1.9026  1.1068
 2391TIP3   OH228663   5.689   4.750  17.102  0.3246 -0.0648 -0.0512
 2391TIP3    H128664   5.597   4.731  17.084  1.0181 -2.5695 -1.4913
 2391TIP3    H228665   5.692   4.844  17.120 -2.4361  0.1415 -0.3078
 2392TIP3   OH228666   5.780   2.002   0.374 -0.4377  0.3467 -0.0686
 2392TIP3    H128667   5.757   2.012   0.467  0.8011  0.9286  0.1973
 2392TIP3    H228668   5.777   2.091   0.340 -1.0753  0.1109 -0.6498
 2393TIP3   OH228669   2.092   0.101   4.248 -0.1214  0.3873 -0.5280
 2393TIP3    H128670   2.006   0.058   4.241 -1.0588  1.5445  2.2089
 2393TIP3    H228671   2.076   0.176   4.305  2.3703  1.7823 -1.5264
 2394TIP3   OH228672   5.544   0.929  11.315 -0.2685 -0.0622  0.3182
 2394TIP3    H128673   5.468   0.910  11.369  0.6266  0.7371  1.9395
 2394TIP3    H228674   5.537   1.022  11.292  0.5425  0.2026  1.0720
 2395TIP3   OH228675   0.906   3.415  15.455 -0.6646  0.0441 -0.5748
 2395TIP3    H128676   0.853   3.479  15.406  0.1034  0.5332 -0.7947
 2395TIP3    H228677   0.852   3.337  15.460 -1.5496  0.6465 -0.4818
 2396TIP3   OH228678   6.717   0.677  14.020  0.2753  0.0180  0.1767
 2396TIP3    H128679   6.711   0.730  14.100  0.9795  0.3845 -0.0097
 2396TIP3    H228680   6.769   0.601  14.046 -1.7496 -1.2481  0.7769
 2397TIP3   OH228681   6.028   3.368  14.658  0.4038  0.0089  0.6270
 2397TIP3    H128682   5.945   3.336  14.694  0.0194  1.1081  0.7735
 2397TIP3    H228683   6.025   3.463  14.672  0.7247  0.3500 -1.3139
 2398TIP3   OH228684   4.094   3.804  13.511 -0.1615 -0.0775 -0.0745
 2398TIP3    H128685   4.173   3.857  13.499  0.9253 -1.1852  1.7104
 2398TIP3    H228686   4.093   3.745  13.436  1.4192 -0.8516  0.4721
 2399TIP3   OH228687   1.374   0.700   3.260  0.6116 -0.1598 -0.0533
 2399TIP3    H128688   1.348   0.730   3.347  0.8544 -0.5861  0.1756
 2399TIP3    H228689   1.306   0.638   3.235 -0.5507  1.4558 -1.0558
 2400TIP3   OH228690   5.416   1.904   4.343  0.4812 -0.1770  0.0769
 2400TIP3    H128691   5.390   1.812   4.332 -0.9572  0.4188 -1.9770
 2400TIP3    H228692   5.484   1.918   4.276 -1.6633  1.0456 -1.9973
 2401TIP3   OH228693   0.072   2.496  12.461 -0.2762 -0.5133  0.4874
 2401TIP3    H128694   0.026   2.414  12.479 -2.6057  0.5567 -0.2659
 2401TIP3    H228695   0.020   2.539  12.393  1.2517  1.3152  0.3871
 2402TIP3   OH228696   5.655   0.690  11.252 -0.6284  0.1562  0.8163
 2402TIP3    H128697   5.584   0.628  11.240 -1.5869  1.2484  0.6713
 2402TIP3    H228698   5.617   0.762  11.303  0.3782  0.7352  0.7923
 2403TIP3   OH228699   0.683   3.892   1.039 -0.4800 -0.0202 -0.2479
 2403TIP3    H128700   0.764   3.862   0.998 -0.5235 -1.0834  0.4081
 2403TIP3    H228701   0.613   3.848   0.991 -0.5485 -0.9274  0.6383
 2404TIP3   OH228702   0.060   6.477  12.003 -0.6011  0.2370 -0.0753
 2404TIP3    H128703   0.093   6.501  11.917 -1.2308  2.3002  0.2142
 2404TIP3    H228704  -0.034   6.494  11.999 -0.9015 -1.1818  0.5355
 2405TIP3   OH228705   0.205   0.970  12.911  0.1434  0.1526  0.3926
 2405TIP3    H128706   0.174   0.880  12.925 -0.9126 -0.0317 -2.5161
 2405TIP3    H228707   0.277   0.961  12.848 -0.8167  1.4122 -0.9263
 2406TIP3   OH228708   6.225   3.410  13.056 -0.2119 -0.4052 -0.2450
 2406TIP3    H128709   6.233   3.396  12.961  0.5335  1.7797 -0.5660
 2406TIP3    H228710   6.151   3.355  13.082 -0.9855 -0.4045 -2.2518
 2407TIP3   OH228711   0.502   4.566  15.307 -0.3619 -0.1722 -0.3011
 2407TIP3    H128712   0.453   4.554  15.388 -0.4118 -0.1032 -0.3205
 2407TIP3    H228713   0.560   4.640  15.324  0.1623 -0.6297 -0.0767
 2408TIP3   OH228714   5.981   3.405  14.195  0.1058 -0.4352 -0.0959
 2408TIP3    H128715   5.995   3.338  14.128  0.3118 -2.6737  2.0366
 2408TIP3    H228716   5.923   3.469  14.153 -2.2991 -3.2713 -1.5144
 2409TIP3   OH228717   1.459   2.407   4.460 -0.4090 -0.2101 -0.3722
 2409TIP3    H128718   1.392   2.451   4.513  0.8864 -1.0524  2.1396
 2409TIP3    H228719   1.517   2.478   4.431  0.5876  0.0740  2.0353
 2410TIP3   OH228720   4.523   0.245  11.908  0.3519 -0.0759  0.0704
 2410TIP3    H128721   4.570   0.174  11.864  1.0407  0.7628 -0.5942
 2410TIP3    H228722   4.593   0.302  11.941 -0.1648 -0.3400  1.7113
 2411TIP3   OH228723   5.287   2.598   1.012  0.2723  0.0687 -0.0331
 2411TIP3    H128724   5.253   2.541   1.081  1.1461  1.3700  1.5786
 2411TIP3    H228725   5.230   2.582   0.937 -0.8080 -1.3416  1.0190
 2412TIP3   OH228726   1.672   2.318  11.017 -0.8043  0.6692 -0.3857
 2412TIP3    H128727   1.586   2.276  11.017 -0.4527 -0.0818  0.2615
 2412TIP3    H228728   1.711   2.291  11.100  1.0639 -1.0945 -1.7575
 2413TIP3   OH228729   1.961   2.649  12.240 -0.0928 -0.2881  0.6234
 2413TIP3    H128730   2.036   2.707  12.227  1.4299 -1.4270  3.5098
 2413TIP3    H228731   1.907   2.695  12.304 -0.6014 -0.5669  0.3958
 2414TIP3   OH228732   4.268   0.518  12.038  0.3506 -0.0821  0.5048
 2414TIP3    H128733   4.261   0.491  12.129  2.6718 -2.4012  0.1324
 2414TIP3    H228734   4.315   0.601  12.041  0.8451 -0.3827  1.4060
 2415TIP3   OH228735   4.793   4.535   1.771  0.2245 -0.0253 -0.4219
 2415TIP3    H128736   4.870   4.555   1.719  1.1368 -1.1146  0.4634
 2415TIP3    H228737   4.726   4.596   1.740  1.2727  0.5688 -1.5776
 2416TIP3   OH228738   3.229   5.568   3.446  0.1352  0.4543  0.2934
 2416TIP3    H128739   3.277   5.485   3.440  0.8005  0.7485  1.2246
 2416TIP3    H228740   3.231   5.590   3.539 -0.8190  1.0687  0.1814
 2417TIP3   OH228741   1.701   3.287  14.574 -0.5117  0.2862  0.1556
 2417TIP3    H128742   1.666   3.297  14.485 -0.8532 -0.6094  0.1835
 2417TIP3    H228743   1.650   3.216  14.612 -1.4705  1.6967  1.6346
 2418TIP3   OH228744   0.860   5.016  10.479  0.1320  0.4504 -0.5004
 2418TIP3    H128745   0.945   4.979  10.454 -0.4608 -0.6834 -0.9565
 2418TIP3    H228746   0.866   5.109  10.456  1.4777  0.5323  0.1101
 2419TIP3   OH228747   0.505   3.987   1.854  0.0992  0.4417 -0.0803
 2419TIP3    H128748   0.452   4.058   1.819 -0.3098 -0.2672 -0.9318
 2419TIP3    H228749   0.502   3.919   1.787  1.1802 -0.0516  0.3448
 2420TIP3   OH228750   5.967   4.105  14.045  0.2383  0.0028  0.6529
 2420TIP3    H128751   5.998   4.094  13.955 -0.0841 -0.1659  0.5610
 2420TIP3    H228752   5.887   4.053  14.050  1.2583 -1.5914  1.5741
 2421TIP3   OH228753   0.556   1.246  12.548 -0.0848  0.2397  0.4142
 2421TIP3    H128754   0.515   1.321  12.504 -0.4402  0.4157  1.0420
 2421TIP3    H228755   0.528   1.171  12.496  0.4263  0.5473 -0.3312
 2422TIP3   OH228756   4.087   6.432  15.378 -0.0157  0.1234 -0.5705
 2422TIP3    H128757   4.024   6.504  15.380 -0.3714 -0.2108  0.7982
 2422TIP3    H228758   4.113   6.426  15.286  0.4406  2.3473 -0.6269
 2423TIP3   OH228759   5.007   5.667   1.422  0.0795 -0.2889  0.4618
 2423TIP3    H128760   4.965   5.711   1.348 -1.1468 -1.1931  0.6059
 2423TIP3    H228761   5.092   5.639   1.388  0.0491  0.3961 -0.2192
 2424TIP3   OH228762   0.798   4.040  13.872 -0.7262  0.2816 -0.0205
 2424TIP3    H128763   0.705   4.026  13.889 -1.0832  1.6179 -0.7492
 2424TIP3    H228764   0.804   4.132  13.848  0.8341  0.2813  0.2782
 2425TIP3   OH228765   4.190   3.855   0.232  0.2273  0.4149  0.1964
 2425TIP3    H128766   4.165   3.886   0.319 -2.5812 -0.9439 -0.0250
 2425TIP3    H228767   4.204   3.761   0.244  0.3462  0.3090 -0.7233
 2426TIP3   OH228768   0.417   4.299   5.628  0.2595 -0.1197 -0.0614
 2426TIP3    H128769   0.493   4.354   5.646 -0.1195  0.2635  0.3740
 2426TIP3    H228770   0.341   4.355   5.646 -0.1400 -0.0980 -1.6763
 2427TIP3   OH228771   2.494   3.151  14.352  0.1361 -0.2401  0.2355
 2427TIP3    H128772   2.459   3.101  14.426 -0.2863  1.1512  1.0347
 2427TIP3    H228773   2.588   3.139  14.356 -0.0179 -1.7522 -0.2068
 2428TIP3   OH228774   3.900   1.270  17.080  0.3739  0.4353 -0.5523
 2428TIP3    H128775   3.917   1.324  17.156  1.8944  0.4378 -0.8645
 2428TIP3    H228776   3.845   1.324  17.023 -0.6646  0.4757  0.4710
 2429TIP3   OH228777   0.424   6.067   3.020  0.4192 -0.2070  0.9248
 2429TIP3    H128778   0.399   6.159   3.005  0.3239 -0.4806 -0.7891
 2429TIP3    H228779   0.518   6.070   3.036  0.6878  0.0815 -0.5665
 2430TIP3   OH228780   3.152   5.285  15.500 -0.2850  0.2364  0.7618
 2430TIP3    H128781   3.193   5.223  15.441 -0.8238 -1.5564  2.1675
 2430TIP3    H228782   3.220   5.306  15.564  0.1639  1.8263 -0.1940
 2431TIP3   OH228783   6.665   6.442  16.464 -0.6662  0.3569  0.0669
 2431TIP3    H128784   6.629   6.373  16.408  2.0850 -1.1545  0.0086
 2431TIP3    H228785   6.631   6.422  16.551 -0.2956 -0.8291 -0.0400
 2432TIP3   OH228786   5.472   6.635   2.628  0.4044 -0.1854 -0.1950
 2432TIP3    H128787   5.463   6.717   2.677 -0.4645  0.8189 -1.9231
 2432TIP3    H228788   5.483   6.663   2.538  3.5712 -1.9414 -0.4551
 2433TIP3   OH228789   2.219   3.861   0.239  0.1329 -0.1699 -0.0892
 2433TIP3    H128790   2.190   3.886   0.151  0.2185 -0.5060 -0.2154
 2433TIP3    H228791   2.314   3.853   0.232  0.3778  1.7223  0.5229
 2434TIP3   OH228792   3.948   0.960  16.868 -0.3612 -0.5177  0.6833
 2434TIP3    H128793   3.974   1.045  16.832 -1.6002 -0.1454  0.6424
 2434TIP3    H228794   3.909   0.980  16.953  1.2982 -1.2701  1.6778
 2435TIP3   OH228795   5.373   1.635  15.936 -0.1871 -0.0416  0.3420
 2435TIP3    H128796   5.352   1.570  16.003 -1.4282 -2.2618 -2.0499
 2435TIP3    H228797   5.298   1.695  15.936 -0.8071 -0.8094  0.0565
 2436TIP3   OH228798   6.516   2.026   1.045  0.9049 -0.1506 -0.3808
 2436TIP3    H128799   6.515   2.118   1.072  0.1903 -0.2199 -0.1581
 2436TIP3    H228800   6.470   1.980   1.115 -0.4983 -0.4157 -1.4317
 2437TIP3   OH228801   6.074   4.273  13.546 -0.2629 -0.1576 -0.4818
 2437TIP3    H128802   6.125   4.307  13.473 -2.1037  0.2969 -1.6416
 2437TIP3    H228803   6.005   4.221  13.505 -3.0197  2.2883  0.6562
 2438TIP3   OH228804   0.698   5.885   1.838 -0.1501 -0.1518  0.1683
 2438TIP3    H128805   0.622   5.906   1.783 -0.2183  0.6583  0.5607
 2438TIP3    H228806   0.769   5.938   1.802 -0.1330  0.1888  0.7026
 2439TIP3   OH228807   5.461   2.392   3.426 -0.1508 -0.2237  0.1729
 2439TIP3    H128808   5.414   2.470   3.396  0.7965  0.2994  0.0236
 2439TIP3    H228809   5.537   2.386   3.368 -0.3301 -1.3912  0.0372
 2440TIP3   OH228810   6.134   0.026   3.946 -0.1022  0.1210 -0.0693
 2440TIP3    H128811   6.112   0.115   3.922  0.9155  0.1095 -1.0988
 2440TIP3    H228812   6.151  -0.019   3.863 -2.0017 -1.4456  0.3024
 2441TIP3   OH228813   4.049   1.269  15.954  0.0993  0.0702 -0.4420
 2441TIP3    H128814   3.977   1.220  15.993 -0.8666  1.8995  0.1907
 2441TIP3    H228815   4.075   1.218  15.878 -1.1448 -1.1667 -0.0641
 2442TIP3   OH228816   2.999   3.185   1.144 -0.8127 -0.2074 -0.4210
 2442TIP3    H128817   3.014   3.276   1.121  2.1042 -0.4401  0.1715
 2442TIP3    H228818   2.959   3.188   1.230  1.2254  0.5903  0.5759
 2443TIP3   OH228819   4.658   0.192   6.455  0.2884 -0.5577  0.0249
 2443TIP3    H128820   4.564   0.190   6.475 -0.0716 -1.4744 -1.5449
 2443TIP3    H228821   4.672   0.114   6.401  2.3723 -1.5380  1.8390
 2444TIP3   OH228822   6.357   0.048  12.652  0.2071  0.1650 -0.0727
 2444TIP3    H128823   6.399   0.086  12.575  0.7020  1.6823  0.9094
 2444TIP3    H228824   6.291  -0.012  12.616  0.0896  1.1940 -1.6849
 2445TIP3   OH228825   6.320   5.292   4.322  0.3792 -0.0448 -0.1906
 2445TIP3    H128826   6.395   5.289   4.382  1.7768 -0.4233 -1.8594
 2445TIP3    H228827   6.336   5.220   4.261 -0.9442  0.3684 -1.0486
 2446TIP3   OH228828   4.489   2.668   4.666  0.3618 -0.7008 -0.0422
 2446TIP3    H128829   4.565   2.673   4.724  0.5753  3.6791 -0.3334
 2446TIP3    H228830   4.425   2.727   4.706 -1.6966 -1.9051 -1.3932
 2447TIP3   OH228831   6.110   3.922  12.575 -0.5897  0.5432  0.7162
 2447TIP3    H128832   6.125   3.906  12.482 -0.1266  1.8542  0.5357
 2447TIP3    H228833   6.055   3.849  12.604  0.5908 -0.7497 -0.2008
 2448TIP3   OH228834   0.945   6.161  11.647 -0.1098 -0.0131  0.0018
 2448TIP3    H128835   1.039   6.153  11.667 -0.2805 -1.4313  0.3622
 2448TIP3    H228836   0.919   6.243  11.688  0.6425 -0.4011  1.3295
 2449TIP3   OH228837   6.671   0.474   6.057 -0.3406  0.3402  0.3431
 2449TIP3    H128838   6.598   0.424   6.093 -0.7357 -0.3128 -1.2600
 2449TIP3    H228839   6.748   0.419   6.071 -0.7574 -0.7331 -1.3216
 2450TIP3   OH228840   4.900   4.629  14.074  0.4139  0.2760  0.4011
 2450TIP3    H128841   4.887   4.717  14.038  1.0829  0.8487  1.5187
 2450TIP3    H228842   4.811   4.594  14.083  0.0842  1.1715  0.7451
 2451TIP3   OH228843   4.628   0.723  13.919  0.1558  0.3926  0.0396
 2451TIP3    H128844   4.686   0.785  13.874  2.4550 -1.7740 -0.2037
 2451TIP3    H228845   4.572   0.689  13.849  1.7225 -0.7982 -0.6886
 2452TIP3   OH228846   6.160   0.099  14.381 -0.1685 -0.1451  0.5519
 2452TIP3    H128847   6.153   0.195  14.379 -0.7221 -0.1796  0.7979
 2452TIP3    H228848   6.206   0.077  14.300  1.1162  0.4234  1.0956
 2453TIP3   OH228849   1.650   2.029   5.024  0.2596 -0.1616 -0.2411
 2453TIP3    H128850   1.716   1.985   4.970 -0.9700 -1.4127 -0.7869
 2453TIP3    H228851   1.641   1.973   5.101 -0.1456  0.0129 -0.1598
 2454TIP3   OH228852   4.701   3.207  14.186 -0.6393 -0.0532  0.0179
 2454TIP3    H128853   4.631   3.266  14.214 -0.8730 -1.1587  1.9163
 2454TIP3    H228854   4.775   3.228  14.243  0.4509  0.7621 -1.6377
 2455TIP3   OH228855   0.011   6.344  11.458  0.2308 -0.6216  0.3385
 2455TIP3    H128856   0.094   6.298  11.473 -0.7113 -2.5011  0.1047
 2455TIP3    H228857  -0.020   6.366  11.546  0.9016 -0.0037  0.4301
 2456TIP3   OH228858   3.758   2.931  12.753  0.1588  0.1022  0.4729
 2456TIP3    H128859   3.719   3.012  12.786  0.7312  0.7996 -0.4994
 2456TIP3    H228860   3.852   2.941  12.772  0.1408 -0.6779  1.0174
 2457TIP3   OH228861   5.702   6.202  16.956  0.5974  0.1069 -0.5559
 2457TIP3    H128862   5.655   6.277  16.991 -0.4408 -0.6343 -0.3100
 2457TIP3    H228863   5.782   6.239  16.918  0.3938  1.2474  0.0925
 2458TIP3   OH228864   3.876   6.301  15.634 -0.8846 -0.2244  0.6311
 2458TIP3    H128865   3.824   6.306  15.553 -0.0146  0.8418  0.1172
 2458TIP3    H228866   3.879   6.391  15.667 -0.0429 -0.4064  1.0861
 2459TIP3   OH228867   6.730   2.580   2.926 -0.0675 -0.1821 -0.0706
 2459TIP3    H128868   6.742   2.512   2.860  0.9518  0.2464 -0.3463
 2459TIP3    H228869   6.692   2.653   2.878 -1.2610 -0.5728  0.2465
 2460TIP3   OH228870   5.952   3.709  12.648 -0.5358  0.0410 -0.1390
 2460TIP3    H128871   5.861   3.720  12.622 -0.7462  0.2244  0.6533
 2460TIP3    H228872   5.954   3.626  12.697 -0.3395  0.1822  0.0990
 2461TIP3   OH228873   5.158   6.577  10.737 -0.7214 -0.2840 -0.4673
 2461TIP3    H128874   5.170   6.548  10.646 -2.0389 -0.4035 -0.6291
 2461TIP3    H228875   5.063   6.572  10.751 -0.4953 -0.7804  1.0914
 2462TIP3   OH228876   4.272   6.122   2.848  0.4105  0.6940  0.2568
 2462TIP3    H128877   4.362   6.117   2.881  0.3500  0.4839  0.3930
 2462TIP3    H228878   4.221   6.151   2.923  0.2428  0.0258  0.4069
 2463TIP3   OH228879   4.449   1.916  14.966  0.1426 -0.0046 -0.3110
 2463TIP3    H128880   4.491   1.972  15.031 -0.8239  0.5161 -0.1214
 2463TIP3    H228881   4.390   1.860  15.016  0.5075 -0.6509 -0.5855
 2464TIP3   OH228882   3.804   0.712   0.008  0.0151  0.4904  0.4219
 2464TIP3    H128883   3.780   0.662  -0.070 -0.4364 -0.2995  1.0570
 2464TIP3    H228884   3.765   0.798  -0.005 -0.7073  0.1210  0.1187
 2465TIP3   OH228885   2.937   4.721  12.403 -0.5459 -0.7959 -0.2742
 2465TIP3    H128886   2.936   4.744  12.496 -0.2949 -1.8923  0.0010
 2465TIP3    H228887   3.017   4.762  12.370 -0.1636 -1.1577  0.1857
 2466TIP3   OH228888   2.582   6.293   3.471  0.3944 -0.8286 -0.1420
 2466TIP3    H128889   2.521   6.350   3.519  2.3121 -0.2341  1.7523
 2466TIP3    H228890   2.622   6.351   3.406  0.8147 -0.5509  0.3616
 2467TIP3   OH228891   3.025   5.108   2.029  0.2749 -0.3340  0.4286
 2467TIP3    H128892   3.011   5.106   1.934 -1.1800 -0.3310  0.6216
 2467TIP3    H228893   3.052   5.019   2.051 -0.9135 -0.7658  0.2063
 2468TIP3   OH228894   2.910   0.591  16.396 -0.4403 -0.2981 -0.1349
 2468TIP3    H128895   2.857   0.563  16.470 -1.9417 -0.6552 -1.3101
 2468TIP3    H228896   2.854   0.651  16.346  1.4995  2.1709  0.4497
 2469TIP3   OH228897   3.654   0.271  11.522 -0.1764  0.2814  0.0654
 2469TIP3    H128898   3.676   0.364  11.514  0.8722  0.1294  0.9338
 2469TIP3    H228899   3.591   0.267  11.593  1.1440  0.1603  1.2625
 2470TIP3   OH228900   3.629   1.201   3.166 -0.0098  0.0006 -0.1608
 2470TIP3    H128901   3.651   1.259   3.094  0.1027 -0.3940 -0.4489
 2470TIP3    H228902   3.617   1.115   3.125  0.3779 -0.2945  0.3317
 2471TIP3   OH228903   1.645   2.422  12.146 -0.0179  0.0989  0.4912
 2471TIP3    H128904   1.608   2.412  12.233 -2.1685  0.3300 -0.3286
 2471TIP3    H228905   1.737   2.446  12.161 -1.0472  3.2849  2.7672
 2472TIP3   OH228906   4.729   5.378   2.306 -0.2662 -0.7185  0.4061
 2472TIP3    H128907   4.753   5.442   2.373 -1.3285 -1.3331  1.4001
 2472TIP3    H228908   4.766   5.296   2.338  1.2932 -0.6142 -0.9804
 2473TIP3   OH228909   6.030   0.748  11.954  0.1392 -0.0742 -0.1792
 2473TIP3    H128910   5.961   0.804  11.919 -1.5988 -1.6372  0.5609
 2473TIP3    H228911   6.028   0.764  12.048  0.5021 -0.4284 -0.1095
 2474TIP3   OH228912   2.244   5.519  15.996 -0.0708 -0.0616  0.1250
 2474TIP3    H128913   2.240   5.550  16.086 -1.2302  0.2151  0.0027
 2474TIP3    H228914   2.330   5.546  15.964  0.2019  0.1648  1.0304
 2475TIP3   OH228915   4.743   2.908   3.690  0.3707  0.4074 -0.1232
 2475TIP3    H128916   4.723   2.885   3.599  1.0942  1.4285 -0.5575
 2475TIP3    H228917   4.665   2.881   3.739  0.1340 -0.5238 -0.9765
 2476TIP3   OH228918   4.668   5.718  16.806 -0.5395  0.0065 -0.2004
 2476TIP3    H128919   4.640   5.711  16.897 -0.8995 -1.9617 -0.4177
 2476TIP3    H228920   4.759   5.689  16.807 -0.9479 -1.3827 -0.6279
 2477TIP3   OH228921   4.628   5.941   3.932 -0.6973  0.2864 -0.2456
 2477TIP3    H128922   4.547   5.948   3.882 -1.5533  0.3881  1.0832
 2477TIP3    H228923   4.599   5.921   4.021  0.6900  1.1280  0.4355
 2478TIP3   OH228924   3.626   6.633  15.510 -0.1351 -0.4321  0.2780
 2478TIP3    H128925   3.582   6.579  15.577  0.1571 -0.4135  0.4871
 2478TIP3    H228926   3.680   6.571  15.461 -1.0217 -0.6007 -0.5217
 2479TIP3   OH228927   5.724   1.996  14.124  0.2104 -0.0390 -0.3077
 2479TIP3    H128928   5.770   1.990  14.040  0.1386  0.7781 -0.4119
 2479TIP3    H228929   5.683   1.910  14.135  0.7928 -0.3873 -0.7692
 2480TIP3   OH228930   3.693   3.295  14.712  0.3722  0.3819 -0.4535
 2480TIP3    H128931   3.615   3.350  14.721  0.1410  0.1395 -0.9109
 2480TIP3    H228932   3.704   3.254  14.798  1.1914  1.9623  0.2385
 2481TIP3   OH228933   5.018   1.133   6.391  0.2431  0.2390 -0.4092
 2481TIP3    H128934   4.931   1.117   6.426 -0.1782  2.6715 -0.1561
 2481TIP3    H228935   5.011   1.114   6.297 -0.4958  0.2539 -0.3597
 2482TIP3   OH228936   1.890   1.113  15.279 -0.2948  0.3376  0.2987
 2482TIP3    H128937   1.964   1.147  15.329  1.1150 -2.7713  0.5668
 2482TIP3    H228938   1.928   1.047  15.221 -2.5515  0.4005 -1.4089
 2483TIP3   OH228939   2.136   3.884  13.839  0.1737  0.5054  0.7479
 2483TIP3    H128940   2.052   3.922  13.864  0.6870  1.1304  1.5806
 2483TIP3    H228941   2.176   3.859  13.922  1.1347  0.9295  0.4303
 2484TIP3   OH228942   2.427   1.531   5.434  0.3300  0.2087  0.2875
 2484TIP3    H128943   2.352   1.588   5.456  0.7485  0.5088  0.9540
 2484TIP3    H228944   2.399   1.444   5.462 -0.2491  0.1062 -0.5831
 2485TIP3   OH228945   2.537   4.965   5.210 -0.5011  0.4568 -0.5530
 2485TIP3    H128946   2.612   5.023   5.226  0.3350 -0.6156 -0.4554
 2485TIP3    H228947   2.461   5.017   5.234  0.2720  1.3111  0.1076
 2486TIP3   OH228948   3.655   3.834  10.551  0.1666  0.6373  0.0092
 2486TIP3    H128949   3.638   3.888  10.475 -0.7244  2.0710  1.1848
 2486TIP3    H228950   3.572   3.791  10.570 -0.6591  2.9354  2.1330
 2487TIP3   OH228951   6.359   2.297  14.939  0.2594  0.4826  0.8939
 2487TIP3    H128952   6.327   2.380  14.977 -0.4989  0.4820  0.2880
 2487TIP3    H228953   6.307   2.287  14.859  0.3199 -0.6039  0.9874
 2488TIP3   OH228954   2.098   0.584   2.597 -0.2946 -0.4074  0.1976
 2488TIP3    H128955   2.053   0.504   2.624 -3.3572  1.6774  1.8639
 2488TIP3    H228956   2.132   0.622   2.678  0.2504  0.4494 -0.4054
 2489TIP3   OH228957   5.636   4.470  13.241  0.4029 -0.0408 -0.0316
 2489TIP3    H128958   5.560   4.442  13.293  1.2232 -1.5772  0.3826
 2489TIP3    H228959   5.710   4.426  13.281  1.4236  0.8059 -0.9390
 2490TIP3   OH228960   3.177   4.356   3.790  0.1345 -0.0534 -0.3255
 2490TIP3    H128961   3.222   4.440   3.806 -2.4942  1.4087  0.0305
 2490TIP3    H228962   3.160   4.322   3.878  0.1524 -0.3604 -0.4421
 2491TIP3   OH228963   4.667   4.252   5.145 -0.4521  0.3751  0.9191
 2491TIP3    H128964   4.658   4.282   5.054 -0.4686  1.0289  1.1291
 2491TIP3    H228965   4.682   4.158   5.138 -0.5978  0.3965  0.2445
 2492TIP3   OH228966   2.837   6.305   6.962  0.0225 -0.7267  0.6381
 2492TIP3    H128967   2.883   6.352   7.032  1.2743 -3.0393  1.4825
 2492TIP3    H228968   2.907   6.264   6.911 -0.9168  0.1235 -1.4744
 2493TIP3   OH228969   2.877   2.252   4.447 -0.1564  0.5146  0.1825
 2493TIP3    H128970   2.878   2.172   4.395 -0.1020  1.5057 -1.3996
 2493TIP3    H228971   2.786   2.282   4.444 -0.0330  0.8953  0.1478
 2494TIP3   OH228972   3.781   1.261  13.676  0.5134  0.2445  0.0192
 2494TIP3    H128973   3.780   1.308  13.760 -0.1026  0.1223  0.0905
 2494TIP3    H228974   3.861   1.209  13.677  0.1413 -0.3250  0.8571
 2495TIP3   OH228975   1.024   0.231   6.132 -0.1842  0.2352  0.2229
 2495TIP3    H128976   1.090   0.228   6.063  0.1503  1.0210  0.4997
 2495TIP3    H228977   1.063   0.181   6.204 -0.3226 -0.1631  0.0214
 2496TIP3   OH228978   1.840   0.456   3.324  0.1012 -0.1305 -0.0321
 2496TIP3    H128979   1.855   0.545   3.291 -1.5016  1.0463  2.1122
 2496TIP3    H228980   1.746   0.442   3.313  0.4911 -2.0950 -1.4032
 2497TIP3   OH228981   5.589   5.267   0.536  0.3771  0.7245 -0.3379
 2497TIP3    H128982   5.569   5.287   0.445 -2.1769  1.2844  0.2804
 2497TIP3    H228983   5.645   5.339   0.565 -1.1495  2.1261 -0.7246
 2498TIP3   OH228984   5.737   5.903   2.761  0.1660 -0.6895  0.4808
 2498TIP3    H128985   5.814   5.873   2.712  0.2698  0.7244 -0.2656
 2498TIP3    H228986   5.665   5.898   2.698  0.3688  1.4982 -0.0070
 2499TIP3   OH228987   4.205   2.538  10.381 -0.5414 -0.0196 -0.4647
 2499TIP3    H128988   4.267   2.600  10.418 -1.0329  0.4969 -0.4979
 2499TIP3    H228989   4.120   2.582  10.386 -0.8798 -0.6376 -0.5985
 2500TIP3   OH228990   1.389   5.928   4.650 -0.1035  0.5228  0.2964
 2500TIP3    H128991   1.332   5.951   4.576  0.1885  0.8725  0.1785
 2500TIP3    H228992   1.351   5.848   4.685  0.6221 -0.5401 -1.1900
 2501TIP3   OH228993   0.216   0.736  16.085  0.7883 -0.1832 -0.4944
 2501TIP3    H128994   0.155   0.666  16.104  1.4087 -0.5628  0.1723
 2501TIP3    H228995   0.290   0.721  16.145  1.7169  0.0235 -1.5418
 2502TIP3   OH228996   5.806   4.813   4.761  0.1204 -0.1202 -0.8275
 2502TIP3    H128997   5.842   4.743   4.706  1.0240  1.4500 -2.3141
 2502TIP3    H228998   5.742   4.857   4.705 -1.8732 -0.8955  0.7392
 2503TIP3   OH228999   6.244   4.675  10.519  0.3098 -0.1943 -0.4019
 2503TIP3    H129000   6.279   4.683  10.431 -2.1812  0.2242 -1.4305
 2503TIP3    H229001   6.232   4.581  10.532 -1.1488 -0.1649 -1.3324
 2504TIP3   OH229002   4.651   4.600  13.189  0.0375  0.2390 -0.3879
 2504TIP3    H129003   4.645   4.621  13.282 -1.4116  1.0563 -0.6466
 2504TIP3    H229004   4.589   4.528  13.176  0.1354  0.2172 -0.7557
 2505TIP3   OH229005   4.306   3.470   5.962 -0.2447  0.0941  0.7674
 2505TIP3    H129006   4.272   3.549   6.003 -0.6091 -0.3612  1.3615
 2505TIP3    H229007   4.291   3.401   6.027 -2.6420 -1.0232 -0.8282
 2506TIP3   OH229008   5.969   3.759   3.123 -0.1762  0.5951 -0.2868
 2506TIP3    H129009   5.982   3.842   3.077 -0.2206  1.5290  1.2905
 2506TIP3    H229010   6.014   3.771   3.207 -0.7598 -0.7296  0.2457
 2507TIP3   OH229011   3.638   3.627   1.242 -0.0937  0.1755 -0.0379
 2507TIP3    H129012   3.700   3.585   1.183 -0.5795 -1.0437  0.2894
 2507TIP3    H229013   3.581   3.678   1.185  0.3852  0.2380 -0.4656
 2508TIP3   OH229014   2.798   1.864  12.033 -0.1667  0.7692  0.6479
 2508TIP3    H129015   2.821   1.772  12.031 -1.1248  0.5251 -0.7600
 2508TIP3    H229016   2.872   1.907  12.075 -0.2384 -0.7692  2.4950
 2509TIP3   OH229017   5.690   3.829  11.399 -0.2197 -0.7787 -0.3125
 2509TIP3    H129018   5.727   3.884  11.330  0.4286 -1.0506 -0.1934
 2509TIP3    H229019   5.595   3.839  11.390 -0.1494 -0.9198 -1.3326
 2510TIP3   OH229020   4.988   6.314   1.815 -0.3718 -0.1979  0.3003
 2510TIP3    H129021   4.921   6.306   1.747  1.4958 -0.3947 -1.6322
 2510TIP3    H229022   4.980   6.233   1.866 -1.3513 -0.3746 -0.1148
 2511TIP3   OH229023   1.027   4.502   2.658  0.0090  0.1084  0.1288
 2511TIP3    H129024   1.095   4.569   2.663 -0.8741  0.9368  1.9213
 2511TIP3    H229025   0.948   4.551   2.634 -0.0358 -0.8235 -1.8157
 2512TIP3   OH229026   5.647   4.138   1.972  0.4461 -0.1641 -0.4178
 2512TIP3    H129027   5.697   4.096   2.042  0.2533 -0.1001 -0.2386
 2512TIP3    H229028   5.555   4.120   1.994  0.3960 -0.5012 -0.8848
 2513TIP3   OH229029   5.622   6.041   3.744  0.3279  0.1103 -0.1734
 2513TIP3    H129030   5.547   6.036   3.804 -0.1981  1.8340 -0.6252
 2513TIP3    H229031   5.584   6.026   3.657  0.6111  0.3595 -0.3427
 2514TIP3   OH229032   3.309   0.013  12.652 -0.0245  0.1217  0.3074
 2514TIP3    H129033   3.364  -0.007  12.576  1.0167  0.3757  0.9777
 2514TIP3    H229034   3.310  -0.067  12.704 -0.2199  0.1542  0.3601
 2515TIP3   OH229035   3.691   4.647  11.399  0.5261 -0.3029 -0.7016
 2515TIP3    H129036   3.706   4.649  11.304  3.3155  0.6578 -0.3434
 2515TIP3    H229037   3.668   4.737  11.421 -1.2487 -0.7538 -0.5460
 2516TIP3   OH229038   1.838   1.063  10.711  0.2458 -0.2435 -0.3077
 2516TIP3    H129039   1.872   0.990  10.659  1.7070  0.9464 -1.1153
 2516TIP3    H229040   1.759   1.028  10.752  0.8323 -2.2349 -0.7425
 2517TIP3   OH229041   4.909   6.722   2.978  0.1534  0.1318 -0.2660
 2517TIP3    H129042   4.968   6.648   2.963 -0.2011 -0.2090 -0.0051
 2517TIP3    H229043   4.851   6.693   3.048  1.5594  1.5777  1.6212
 2518TIP3   OH229044   4.530   2.674  13.520  0.5466 -0.1075  0.4843
 2518TIP3    H129045   4.482   2.598  13.553  0.3599  0.3531  1.2787
 2518TIP3    H229046   4.597   2.691  13.586  1.0495 -0.0188 -0.0425
 2519TIP3   OH229047   2.922   5.260   6.429  0.6436  0.3671 -0.0581
 2519TIP3    H129048   2.918   5.323   6.501  2.0170  0.4506 -0.0340
 2519TIP3    H229049   3.007   5.218   6.439  0.9476  0.5313 -1.7568
 2520TIP3   OH229050   5.489   0.045   0.907 -0.1674 -0.0794  0.8752
 2520TIP3    H129051   5.561   0.030   0.846 -0.0983  0.3962  0.8389
 2520TIP3    H229052   5.413   0.060   0.851 -0.1991 -0.1009  0.9124
 2521TIP3   OH229053   3.017   3.933  12.267  0.1711  0.2322 -0.7131
 2521TIP3    H129054   3.093   3.962  12.318  0.0752  1.3528 -1.1649
 2521TIP3    H229055   2.942   3.952  12.324  0.1663  0.0860 -0.6717
 2522TIP3   OH229056   4.532   6.151  16.354  0.0648 -0.7581  0.2763
 2522TIP3    H129057   4.443   6.186  16.343  0.8323  1.0175 -0.7692
 2522TIP3    H229058   4.519   6.059  16.377 -2.0299 -0.7675 -0.7047
 2523TIP3   OH229059   3.083   5.566   4.611 -0.1987  0.1374 -0.7052
 2523TIP3    H129060   3.112   5.656   4.602  0.6519 -0.1089 -0.4854
 2523TIP3    H229061   3.072   5.553   4.706 -0.0190 -0.0839 -0.7141
 2524TIP3   OH229062   5.920   5.774   2.607 -0.2962  0.0363  0.0990
 2524TIP3    H129063   5.994   5.813   2.654 -0.6388 -0.4883  1.0840
 2524TIP3    H229064   5.956   5.696   2.566 -0.4442 -0.5733  1.1127
 2525TIP3   OH229065   2.496   2.777   5.503  0.2328 -0.5389  0.2998
 2525TIP3    H129066   2.582   2.803   5.536 -0.3698  0.5560  1.0935
 2525TIP3    H229067   2.500   2.795   5.409  0.4930  0.6685  0.5179
 2526TIP3   OH229068   5.607   2.851  10.563  0.0294  0.3137 -0.2882
 2526TIP3    H129069   5.680   2.903  10.598 -0.6200  0.6714  0.5565
 2526TIP3    H229070   5.618   2.856  10.468  1.0448  0.4487 -0.1764
 2527TIP3   OH229071   6.767   4.851  14.725  0.1704 -0.4762  0.1710
 2527TIP3    H129072   6.764   4.862  14.820  1.0421 -0.1030  0.1635
 2527TIP3    H229073   6.731   4.933  14.690  0.3924 -0.3780  0.1739
 2528TIP3   OH229074   3.161   1.633  13.407 -0.3289  0.9056  0.2370
 2528TIP3    H129075   3.183   1.707  13.350 -0.1839  1.1258  0.5716
 2528TIP3    H229076   3.137   1.674  13.491  0.9260  0.5273  0.8081
 2529TIP3   OH229077   2.938   3.171   3.022  0.1677 -0.7889  0.2948
 2529TIP3    H129078   2.876   3.198   2.954  0.5367 -2.7121 -0.9110
 2529TIP3    H229079   3.024   3.183   2.981  0.5252  0.1118  1.2678
 2530TIP3   OH229080   4.037   6.397  11.171  0.1887  0.3047  0.3792
 2530TIP3    H129081   4.036   6.493  11.175 -2.5910  0.4900 -1.8203
 2530TIP3    H229082   4.085   6.377  11.091  0.8134 -0.1695  0.8645
 2531TIP3   OH229083   3.319   4.450  11.142 -0.3307  0.3294 -0.1734
 2531TIP3    H129084   3.331   4.540  11.113 -0.7141  0.4013 -0.1079
 2531TIP3    H229085   3.297   4.401  11.063  0.4300  0.1874 -0.3036
 2532TIP3   OH229086   5.008   5.204  11.021 -0.1940  0.2324 -0.1808
 2532TIP3    H129087   5.104   5.209  11.028  0.0087 -2.0610 -0.4956
 2532TIP3    H229088   4.976   5.244  11.102  1.1709 -1.3930  1.2618
 2533TIP3   OH229089   1.127   6.305   3.571  0.2913  0.1858 -0.1791
 2533TIP3    H129090   1.204   6.339   3.618 -0.5090  1.4837  0.2713
 2533TIP3    H229091   1.081   6.252   3.636 -0.4149  1.3638  0.3316
 2534TIP3   OH229092   1.860   4.015  14.318  0.2987 -0.1266  0.1385
 2534TIP3    H129093   1.863   4.080  14.247  1.8862  1.7408  1.8039
 2534TIP3    H229094   1.767   4.004  14.336 -0.0401  1.8474 -0.1219
 2535TIP3   OH229095   3.686   0.782  12.032 -0.2006 -0.5485 -0.2492
 2535TIP3    H129096   3.690   0.824  11.947  0.2294 -0.6429 -0.2802
 2535TIP3    H229097   3.776   0.787  12.066 -0.2028 -1.1684 -0.1263
 2536TIP3   OH229098   3.434   3.259  12.203 -0.8302 -0.3102 -0.6484
 2536TIP3    H129099   3.461   3.286  12.115  0.9282  2.4965  0.6380
 2536TIP3    H229100   3.440   3.338  12.256 -2.8211 -1.6808  1.8490
 2537TIP3   OH229101   3.096   1.751   4.919  0.0955  0.3618  0.2601
 2537TIP3    H129102   3.084   1.839   4.956  0.1803  0.7902 -0.7021
 2537TIP3    H229103   3.133   1.700   4.992 -1.7725  0.5832  1.4267
 2538TIP3   OH229104   5.987   4.123  11.643 -0.3818  0.5649 -0.4985
 2538TIP3    H129105   6.070   4.118  11.596  1.1477  3.0636  1.6063
 2538TIP3    H229106   5.923   4.082  11.585  1.9841  0.1447 -3.0022
 2539TIP3   OH229107   3.003   1.028   5.979 -0.0682  0.2479 -0.3004
 2539TIP3    H129108   2.935   1.035   5.912 -1.9894  0.4885  1.5901
 2539TIP3    H229109   3.027   0.936   5.979  0.3877  0.3456 -1.6887
 2540TIP3   OH229110   1.429   4.361   5.165  0.2980  0.0510 -0.6816
 2540TIP3    H129111   1.521   4.383   5.147  0.6693 -0.5548  0.3407
 2540TIP3    H229112   1.379   4.432   5.125  1.3984  2.7267  2.1893
 2541TIP3   OH229113   5.885   2.341  15.313  0.0290  0.1470 -0.2906
 2541TIP3    H129114   5.812   2.382  15.267  0.4403 -0.0520 -1.1438
 2541TIP3    H229115   5.844   2.275  15.369 -0.5968  1.4015  0.7724
 2542TIP3   OH229116   3.752   2.155   5.641 -0.0717 -0.4564 -0.1111
 2542TIP3    H129117   3.809   2.127   5.570  0.1318 -1.7777  0.5455
 2542TIP3    H229118   3.665   2.161   5.600  0.0116 -1.3575 -0.4590
 2543TIP3   OH229119   4.028   5.029   5.376 -0.0618 -0.3981  0.3208
 2543TIP3    H129120   3.996   5.119   5.385  0.3610 -0.3937  2.1266
 2543TIP3    H229121   4.122   5.039   5.357  0.1376 -0.4477  1.2452
 2544TIP3   OH229122   3.279   0.360  16.389 -0.2852  0.4124  0.1216
 2544TIP3    H129123   3.274   0.291  16.454  1.4234 -1.8858 -1.9962
 2544TIP3    H229124   3.188   0.376  16.364 -0.7345 -1.0075  0.7464
 2545TIP3   OH229125   0.883   4.126  13.304 -0.0054 -0.0554  0.6128
 2545TIP3    H129126   0.825   4.108  13.230  1.8701 -0.6840 -0.7799
 2545TIP3    H229127   0.971   4.121  13.267  0.9503  2.8878  2.1836
 2546TIP3   OH229128   3.779   0.866   6.168 -0.1506 -0.3125  1.0004
 2546TIP3    H129129   3.855   0.905   6.212  0.7310  0.0674 -0.7333
 2546TIP3    H229130   3.807   0.777   6.147 -0.5003 -0.4451  1.1015
 2547TIP3   OH229131   5.872   0.190  11.367  0.1888  0.2841 -0.1946
 2547TIP3    H129132   5.819   0.223  11.440 -0.0785  1.4402 -0.8839
 2547TIP3    H229133   5.864   0.095  11.374  3.2603  0.0451  3.5721
 2548TIP3   OH229134   3.266   0.037   1.228 -0.4041 -0.2105 -0.5362
 2548TIP3    H129135   3.286   0.104   1.293 -0.8544  0.7760 -1.3778
 2548TIP3    H229136   3.283  -0.046   1.272  0.2961  0.4594  0.4924
 2549TIP3   OH229137   3.838   3.775  13.444  0.2292  0.2088  0.4621
 2549TIP3    H129138   3.769   3.783  13.509  0.0036 -1.1114  0.4167
 2549TIP3    H229139   3.914   3.817  13.484 -0.1139  0.0901  1.2587
 2550TIP3   OH229140   1.082   2.299  11.492 -0.1213  0.0299  0.2967
 2550TIP3    H129141   1.141   2.364  11.532 -0.3874  0.6241 -0.2504
 2550TIP3    H229142   1.050   2.248  11.566  0.2956  0.3550  0.7153
 2551TIP3   OH229143   0.311   5.968   3.251 -0.2590 -0.1247  0.7833
 2551TIP3    H129144   0.384   5.968   3.190 -0.3874  0.7319  0.6169
 2551TIP3    H229145   0.234   5.986   3.196 -0.5702 -0.8217  0.9842
 2552TIP3   OH229146   5.136   5.174  10.622 -0.0244 -0.4318 -0.2992
 2552TIP3    H129147   5.070   5.220  10.570 -1.8033  0.0606  2.1779
 2552TIP3    H229148   5.209   5.235  10.630 -0.6164  0.3105 -0.4957
 2553TIP3   OH229149   6.499   5.014   1.623  0.2727 -0.4089  0.0491
 2553TIP3    H129150   6.430   4.955   1.592 -0.3125  0.4326 -0.2969
 2553TIP3    H229151   6.512   4.990   1.715 -0.3345 -0.7181  0.0605
 2554TIP3   OH229152   3.126   6.310   1.192  0.6727 -0.1779  0.2117
 2554TIP3    H129153   3.217   6.338   1.181  0.2991  0.5790 -1.0621
 2554TIP3    H229154   3.131   6.237   1.254  2.0682  0.2963  0.6822
 2555TIP3   OH229155   5.415   3.449  11.266  0.1472  0.1248 -1.2238
 2555TIP3    H129156   5.406   3.527  11.320 -0.2992  0.2915 -1.5352
 2555TIP3    H229157   5.496   3.463  11.216 -0.0044  0.4495 -1.3789
 2556TIP3   OH229158   4.714   3.498   3.828 -0.2187  0.2135 -0.4925
 2556TIP3    H129159   4.731   3.496   3.922  1.5896  0.7147 -0.7732
 2556TIP3    H229160   4.713   3.406   3.802 -0.7906  0.0721  0.0257
 2557TIP3   OH229161   3.361   5.665   4.254 -0.4618  0.9143 -0.0038
 2557TIP3    H129162   3.283   5.609   4.257  0.6619 -0.6811  1.0483
 2557TIP3    H229163   3.374   5.683   4.161 -0.5407 -1.0945 -0.4482
 2558TIP3   OH229164   2.315   4.384  15.040  0.3313  0.4146 -0.2083
 2558TIP3    H129165   2.302   4.392  15.134 -1.0559  1.2799 -0.4515
 2558TIP3    H229166   2.258   4.312  15.014 -0.9669  1.5906 -0.6920
 2559TIP3   OH229167   4.093   1.702  16.588  0.0953 -0.0895  0.2196
 2559TIP3    H129168   4.036   1.625  16.579  0.2786 -0.3411  1.0922
 2559TIP3    H229169   4.155   1.678  16.658  1.4110  0.0969 -0.8436
 2560TIP3   OH229170   0.710   1.073  13.330 -0.4104  0.6428 -0.1559
 2560TIP3    H129171   0.788   1.021  13.313  2.1857  2.8251  3.5900
 2560TIP3    H229172   0.719   1.150  13.274 -0.0238  0.7357  0.0321
 2561TIP3   OH229173   2.989   2.468   3.965  0.2925 -0.3622 -0.7194
 2561TIP3    H129174   3.025   2.537   4.020  1.3521 -1.3168 -0.1797
 2561TIP3    H229175   3.050   2.395   3.974 -1.2491 -1.6985 -0.5460
 2562TIP3   OH229176   0.663   5.637   4.650 -0.4155  0.2030  0.3460
 2562TIP3    H129177   0.684   5.563   4.594 -0.3323  0.3285  0.2100
 2562TIP3    H229178   0.732   5.701   4.632  0.5384 -0.3687  1.7354
 2563TIP3   OH229179   2.749   5.581   5.855  0.3699 -0.2402  0.1543
 2563TIP3    H129180   2.796   5.617   5.930  1.5239 -1.3181 -0.0085
 2563TIP3    H229181   2.709   5.656   5.812  0.4502  0.4933  1.3356
 2564TIP3   OH229182   1.148   0.638  12.975 -0.4512 -0.1256  0.0109
 2564TIP3    H129183   1.207   0.622  13.049 -0.1568 -0.4242 -0.2849
 2564TIP3    H229184   1.189   0.593  12.902 -0.5110  0.5328 -0.4378
 2565TIP3   OH229185   2.683   5.136   3.061 -0.1024 -0.1182  0.4834
 2565TIP3    H129186   2.593   5.167   3.062  0.0183  0.2390  0.5028
 2565TIP3    H229187   2.722   5.177   2.983 -0.2997 -1.2796 -0.2653
 2566TIP3   OH229188   3.909   3.789   2.303  0.3410 -0.2026  0.3879
 2566TIP3    H129189   3.897   3.768   2.210 -1.7567  1.1367  0.2873
 2566TIP3    H229190   3.914   3.704   2.347  0.2991 -0.8471 -0.8292
 2567TIP3   OH229191   3.136   2.403  15.056 -0.1530 -0.2639  0.3155
 2567TIP3    H129192   3.149   2.485  15.008 -1.5181 -0.4279 -0.3839
 2567TIP3    H229193   3.106   2.431  15.143 -1.4804 -0.0029 -0.1972
 2568TIP3   OH229194   5.968   3.820   1.106  0.8899 -0.1473 -0.0582
 2568TIP3    H129195   5.992   3.759   1.176  0.2595  0.4426  0.6887
 2568TIP3    H229196   5.987   3.772   1.025  3.3334 -0.1895  0.4667
 2569TIP3   OH229197   3.206   5.045   5.582 -0.3751  0.3854 -0.1288
 2569TIP3    H129198   3.272   5.012   5.521 -1.3661 -2.0218 -0.0016
 2569TIP3    H229199   3.204   5.139   5.565  0.9855  0.1295 -2.2046
 2570TIP3   OH229200   6.550   2.974   3.038  0.3426  0.1497 -0.6465
 2570TIP3    H129201   6.613   2.903   3.055 -0.2422  0.0295  1.2676
 2570TIP3    H229202   6.556   2.989   2.944  1.0380 -1.9354 -1.0004
 2571TIP3   OH229203   3.838   4.851   2.122 -0.4485  0.7873 -0.0915
 2571TIP3    H129204   3.867   4.764   2.098 -0.0822  0.6286  0.8993
 2571TIP3    H229205   3.744   4.851   2.103  0.0005  1.0913 -2.6811
 2572TIP3   OH229206   5.157   4.745  15.815  0.0992  0.5285 -0.4844
 2572TIP3    H129207   5.143   4.666  15.868  0.1111  2.0922  2.0169
 2572TIP3    H229208   5.245   4.734  15.779  0.2563 -0.4222  0.1515
 2573TIP3   OH229209   0.482   3.046  11.023  0.0809 -0.1937  0.4967
 2573TIP3    H129210   0.401   3.004  11.051 -1.5278  1.4051 -1.3776
 2573TIP3    H229211   0.549   3.015  11.084 -1.9816 -1.3970  2.2668
 2574TIP3   OH229212   6.625   0.293   2.935 -0.4743  0.2455  0.3236
 2574TIP3    H129213   6.630   0.241   3.015  0.2573 -1.0721 -0.5244
 2574TIP3    H229214   6.535   0.283   2.905 -0.2729 -0.7832  0.0302
 2575TIP3   OH229215   1.118   1.255   5.123  0.8113 -0.4380 -0.3070
 2575TIP3    H129216   1.061   1.319   5.080  1.7387  0.7326  0.1646
 2575TIP3    H229217   1.076   1.239   5.207 -0.8283 -2.4806 -1.4010
 2576TIP3   OH229218   1.234   2.502  12.122 -0.0270 -0.3989 -0.1520
 2576TIP3    H129219   1.256   2.421  12.075 -0.9542  0.0342 -1.3910
 2576TIP3    H229220   1.185   2.554  12.058 -0.9416  0.4181  1.1689
 2577TIP3   OH229221   3.132   3.516  12.173 -0.4243  0.1962  0.3372
 2577TIP3    H129222   3.102   3.457  12.104  1.4071 -1.0369  0.5351
 2577TIP3    H229223   3.067   3.506  12.243  0.5170 -2.6853  0.9179
 2578TIP3   OH229224   2.586   2.856  15.041 -0.8043 -0.1020  0.4228
 2578TIP3    H129225   2.572   2.936  15.091 -1.3401 -0.1092  0.2944
 2578TIP3    H229226   2.679   2.836  15.052 -0.2642  1.4533 -0.8998
 2579TIP3   OH229227   2.386   2.840   1.052 -0.5078  0.2552 -0.0262
 2579TIP3    H129228   2.427   2.753   1.048  1.9079  1.2515  1.0134
 2579TIP3    H229229   2.297   2.823   1.081 -0.3367 -1.9212 -0.5835
 2580TIP3   OH229230   0.686   3.719  11.670  0.3075 -0.3428 -0.2443
 2580TIP3    H129231   0.716   3.652  11.731 -0.7495 -1.7888 -1.2389
 2580TIP3    H229232   0.648   3.787  11.726  1.5103 -0.5059  0.7934
 2581TIP3   OH229233   6.634   0.262  16.413 -0.2432 -0.3841 -0.4537
 2581TIP3    H129234   6.655   0.290  16.324 -1.7099 -0.9229 -0.9935
 2581TIP3    H229235   6.717   0.229  16.448  0.0782 -1.3552 -2.0614
 2582TIP3   OH229236   4.634   3.794   4.100 -0.1604  0.1450 -0.5826
 2582TIP3    H129237   4.707   3.815   4.159  0.3119  1.1502 -1.4961
 2582TIP3    H229238   4.656   3.837   4.018 -0.2463 -2.1394 -1.9015
 2583TIP3   OH229239   2.341   0.917   5.645  0.8228 -0.1124  0.1485
 2583TIP3    H129240   2.409   0.869   5.597  2.4114  1.8082  0.3293
 2583TIP3    H229241   2.287   0.849   5.684  1.6087 -1.7370 -1.4106
 2584TIP3   OH229242   1.178   0.306  14.638 -0.1745  0.1240  0.0841
 2584TIP3    H129243   1.195   0.263  14.722  0.0096 -1.7970 -0.8639
 2584TIP3    H229244   1.108   0.369  14.656  1.7188  1.7643  2.2161
 2585TIP3   OH229245   3.272   0.970  16.920 -0.0570 -0.3147  0.0940
 2585TIP3    H129246   3.205   0.912  16.955 -0.9434  0.9299  0.5272
 2585TIP3    H229247   3.327   0.914  16.865  0.3751 -1.9788  2.1308
 2586TIP3   OH229248   0.407   4.017  12.686 -0.1800  0.0853  0.2876
 2586TIP3    H129249   0.406   3.991  12.594 -0.5185  0.2986  0.2261
 2586TIP3    H229250   0.317   4.004  12.715 -0.4818  1.6070  0.1242
 2587TIP3   OH229251   6.270   4.971   2.812 -0.2262 -0.0708  0.1581
 2587TIP3    H129252   6.335   5.021   2.862 -0.8424  2.0443 -1.0368
 2587TIP3    H229253   6.187   4.990   2.854 -0.3811 -0.8683  0.2371
 2588TIP3   OH229254   2.188   6.588  16.029 -0.3774 -0.3259 -0.3367
 2588TIP3    H129255   2.283   6.587  16.035 -0.3873 -2.4437  0.7145
 2588TIP3    H229256   2.168   6.537  15.950 -0.6361 -0.1387 -0.3941
 2589TIP3   OH229257   3.901   6.651  15.435 -0.1796  0.4190 -0.1038
 2589TIP3    H129258   3.897   6.606  15.520  0.5472  1.6800  0.6411
 2589TIP3    H229259   3.975   6.712  15.444  0.5416 -0.1160 -2.0192
 2590TIP3   OH229260   0.552   0.691   1.226  0.3534  0.0786  0.5295
 2590TIP3    H129261   0.584   0.661   1.141 -1.4976 -0.5823  0.0117
 2590TIP3    H229262   0.558   0.614   1.283  1.1796  0.3985  0.8817
 2591TIP3   OH229263   5.637   0.739  13.928 -0.1560 -0.6796  0.0215
 2591TIP3    H129264   5.618   0.718  14.019 -2.0921 -2.5163 -0.7130
 2591TIP3    H229265   5.731   0.754  13.926  0.2469 -2.4458  2.0312
 2592TIP3   OH229266   0.077   4.368   2.766  0.2825  0.2977  0.5188
 2592TIP3    H129267   0.095   4.285   2.810  1.3618  0.4438  0.3989
 2592TIP3    H229268   0.132   4.432   2.813  0.3765  0.7083 -0.1382
 2593TIP3   OH229269   0.081   2.956  16.392 -0.2223 -0.3108 -0.1100
 2593TIP3    H129270   0.005   2.995  16.348  0.6676 -1.5425 -2.9611
 2593TIP3    H229271   0.045   2.882  16.441 -0.8629 -1.1329 -1.7509
 2594TIP3   OH229272   2.243   0.645  13.614 -0.3635  0.1654 -0.7638
 2594TIP3    H129273   2.205   0.558  13.611 -0.2663  0.1498 -1.6732
 2594TIP3    H229274   2.331   0.635  13.577  0.6511  0.1600  1.4672
 2595TIP3   OH229275   5.601   5.756  12.262  0.2891  0.1631 -0.6212
 2595TIP3    H129276   5.575   5.847  12.280  1.1721  0.1378  0.9334
 2595TIP3    H229277   5.603   5.750  12.166 -5.4388  0.1559 -1.1326
 2596TIP3   OH229278   5.532   0.412   1.759  0.1282  0.4346 -0.6783
 2596TIP3    H129279   5.536   0.448   1.671 -0.6502 -0.1254 -0.9608
 2596TIP3    H229280   5.549   0.486   1.817  2.9309  0.4000 -1.3228
 2597TIP3   OH229281   6.557   2.097  14.963 -0.3693 -0.0725  0.1087
 2597TIP3    H129282   6.558   2.072  15.055 -1.0234  0.1490  0.1830
 2597TIP3    H229283   6.490   2.165  14.957  0.8257  1.1257 -0.2228
 2598TIP3   OH229284   0.336   4.655   6.486  0.3729 -0.0200  1.2551
 2598TIP3    H129285   0.296   4.678   6.402  2.6048 -1.9849 -0.4539
 2598TIP3    H229286   0.264   4.615   6.536 -0.9471  0.9825  0.2352
 2599TIP3   OH229287   6.805   4.157  11.978  0.1117 -0.0064 -0.1913
 2599TIP3    H129288   6.840   4.068  11.976  0.3370  0.0893 -0.4976
 2599TIP3    H229289   6.874   4.210  11.938  0.2717  0.4027  0.5958
 2600TIP3   OH229290   5.644   2.102   3.440  0.1150  0.0342 -0.2690
 2600TIP3    H129291   5.567   2.151   3.411  0.7852  2.2637  1.4540
 2600TIP3    H229292   5.617   2.065   3.525  0.8008  0.5673  0.1926
 2601TIP3   OH229293   3.947   6.012   5.256  0.1517 -1.2521  0.6629
 2601TIP3    H129294   4.029   5.964   5.268  1.1355  0.3580  0.6700
 2601TIP3    H229295   3.901   5.964   5.187  2.4143 -0.6051 -1.4522
 2602TIP3   OH229296   2.542   6.799   2.939 -0.8217  0.3299  0.2745
 2602TIP3    H129297   2.509   6.847   3.014 -1.5285 -0.2223  0.3356
 2602TIP3    H229298   2.483   6.823   2.867  0.1875  1.2922 -0.2579
 2603TIP3   OH229299   4.469   6.101  15.303  0.1352  0.3324  0.1155
 2603TIP3    H129300   4.550   6.120  15.351  1.5140  1.1031 -2.3414
 2603TIP3    H229301   4.408   6.168  15.332  0.6280  0.2526  1.4033
 2604TIP3   OH229302   2.524   5.822   1.921 -0.2849 -0.3259  0.0765
 2604TIP3    H129303   2.450   5.764   1.908 -0.0279 -0.8031  0.7086
 2604TIP3    H229304   2.595   5.765   1.952  0.3098  0.1381 -0.3914
 2605TIP3   OH229305   1.180   5.106  13.327  0.3178  0.0722 -0.1982
 2605TIP3    H129306   1.121   5.042  13.287 -0.1780  0.4334 -0.0437
 2605TIP3    H229307   1.131   5.143  13.399  1.4299 -1.0307  1.2061
 2606TIP3   OH229308   3.209   2.885  11.583  0.2061  0.2375 -0.5375
 2606TIP3    H129309   3.124   2.908  11.621  0.9383  2.8201 -0.2872
 2606TIP3    H229310   3.273   2.914  11.649  1.3319  0.2771 -1.6163
 2607TIP3   OH229311   2.148   1.888  15.799 -0.3087 -0.3832 -0.2125
 2607TIP3    H129312   2.161   1.829  15.873  0.2100 -2.2805 -1.7476
 2607TIP3    H229313   2.054   1.905  15.799 -0.1119  1.1922  1.9365
 2608TIP3   OH229314   4.252   0.894   1.680 -0.4838 -0.7224 -0.1299
 2608TIP3    H129315   4.260   0.876   1.586 -1.5104 -0.2109 -0.3242
 2608TIP3    H229316   4.188   0.965   1.686  1.3737  0.9708  0.8144
 2609TIP3   OH229317   1.010   5.904  16.029 -0.1297 -0.0476 -0.2420
 2609TIP3    H129318   0.959   5.837  15.983  0.4572 -0.1573 -0.7539
 2609TIP3    H229319   1.097   5.900  15.987 -0.6380  2.4504 -1.7457
 2610TIP3   OH229320   2.287   1.112  16.530  0.5937  0.5136  0.7722
 2610TIP3    H129321   2.285   1.158  16.614 -0.9993 -0.2793  1.2230
 2610TIP3    H229322   2.198   1.123  16.496  0.3899 -1.5560  0.5431
 2611TIP3   OH229323   4.475   0.733   2.491  0.1420  0.2451  0.0443
 2611TIP3    H129324   4.550   0.792   2.488 -0.0617  0.5186  0.2669
 2611TIP3    H229325   4.435   0.748   2.576  0.2863 -0.4668  0.2461
 2612TIP3   OH229326   5.512   5.286   2.635  0.4670 -0.0059 -0.0743
 2612TIP3    H129327   5.447   5.309   2.701 -0.6003  1.4039 -1.5163
 2612TIP3    H229328   5.465   5.231   2.572  1.1296 -0.3681 -0.2652
 2613TIP3   OH229329   1.986   1.649   6.472  0.4392  0.2674 -0.0730
 2613TIP3    H129330   1.978   1.744   6.478  0.7526  0.3059 -0.2353
 2613TIP3    H229331   2.053   1.635   6.405  1.4984 -0.0354  1.0046
 2614TIP3   OH229332   3.278   0.270  15.246 -0.1967 -0.2618 -0.0460
 2614TIP3    H129333   3.266   0.300  15.156  0.0710 -1.0030 -0.3412
 2614TIP3    H229334   3.364   0.227  15.246 -1.1183 -2.2462 -0.0154
 2615TIP3   OH229335   0.898   4.873   5.070  0.3345 -0.0071 -0.2073
 2615TIP3    H129336   0.806   4.856   5.088 -0.3309  1.3341 -2.0133
 2615TIP3    H229337   0.933   4.910   5.152 -0.5700 -1.0350  0.6612
 2616TIP3   OH229338   2.199   2.987  14.248  0.7948  0.1910  0.5105
 2616TIP3    H129339   2.116   2.938  14.250  1.4196 -0.8692  1.6911
 2616TIP3    H229340   2.183   3.064  14.302  0.7651 -0.3441  1.2760
 2617TIP3   OH229341   0.291   0.816  13.175  0.1332  0.5118  0.4109
 2617TIP3    H129342   0.361   0.855  13.227  1.2500 -1.6101  0.6372
 2617TIP3    H229343   0.320   0.726  13.160 -1.6152  0.1615 -1.2649
 2618TIP3   OH229344   0.622   1.242   5.663  0.0791  0.4395 -0.2973
 2618TIP3    H129345   0.600   1.234   5.571 -1.1796 -1.7001  0.1166
 2618TIP3    H229346   0.704   1.193   5.673 -0.5996 -0.6683 -0.0400
 2619TIP3   OH229347   3.777   3.972  14.773 -0.3476 -0.6185 -0.2066
 2619TIP3    H129348   3.795   3.880  14.788  1.0469 -0.5128 -1.0150
 2619TIP3    H229349   3.769   3.979  14.678  1.7070  0.3958 -0.3682
 2620TIP3   OH229350   2.985   5.156  11.595  0.6751  0.2171 -0.1922
 2620TIP3    H129351   2.997   5.204  11.513  2.6659 -0.9143 -0.6287
 2620TIP3    H229352   3.072   5.153  11.634  0.5523 -2.5209  0.0538
 2621TIP3   OH229353   2.099   0.772  14.967 -0.6942 -0.1061  0.1090
 2621TIP3    H129354   2.123   0.823  14.889  1.2576 -1.0395  0.0449
 2621TIP3    H229355   2.183   0.740  15.002 -1.6900 -1.4947  1.3626
 2622TIP3   OH229356   4.771   6.268  11.146 -0.4406 -0.5715  0.4450
 2622TIP3    H129357   4.828   6.213  11.091 -0.1536 -1.9745  2.0450
 2622TIP3    H229358   4.822   6.283  11.225 -0.8338  1.4251  0.3652
 2623TIP3   OH229359   4.429   2.046   3.361 -0.0044 -0.2061  0.3829
 2623TIP3    H129360   4.359   2.112   3.363 -1.4559 -1.6853  0.5474
 2623TIP3    H229361   4.484   2.069   3.436 -0.2095  1.0922  0.1626
 2624TIP3   OH229362   1.342   2.887  11.112 -0.5801  0.1378  0.7601
 2624TIP3    H129363   1.256   2.926  11.098 -0.0131  1.6808  1.3681
 2624TIP3    H229364   1.402   2.946  11.066  0.3018 -0.0286  1.6681
 2625TIP3   OH229365   4.548   4.287   2.602 -0.0748 -0.1063 -0.3247
 2625TIP3    H129366   4.499   4.367   2.586 -0.8556 -0.4813  0.1775
 2625TIP3    H229367   4.627   4.297   2.549 -0.5784  0.6005 -0.9579
 2626TIP3   OH229368   2.220   2.263   1.110  0.1734 -0.0670 -0.0903
 2626TIP3    H129369   2.307   2.301   1.098 -0.1813  0.0960 -2.6424
 2626TIP3    H229370   2.161   2.339   1.116 -0.1258 -0.1435 -1.6445
 2627TIP3   OH229371   3.060   0.430  16.254 -0.0705  0.1133 -0.3713
 2627TIP3    H129372   3.025   0.451  16.168  0.5713  2.0846 -0.2008
 2627TIP3    H229373   3.007   0.481  16.315 -0.1355 -0.7993  0.3622
 2628TIP3   OH229374   3.314   2.558  15.591  0.4158  0.2940  0.0687
 2628TIP3    H129375   3.228   2.599  15.591 -0.5598 -1.6434 -0.1967
 2628TIP3    H229376   3.322   2.517  15.677  1.0512  0.4047  0.0706
 2629TIP3   OH229377   3.961   1.004   6.350  0.0497  0.5689 -0.3040
 2629TIP3    H129378   3.965   0.967   6.438  1.1540  0.4887 -0.3803
 2629TIP3    H229379   3.922   1.090   6.362  1.2177  1.0236  0.4346
 2630TIP3   OH229380   1.457   4.099   5.245  0.3923 -0.2000 -0.4838
 2630TIP3    H129381   1.454   4.109   5.341 -0.6238  0.6172 -0.5753
 2630TIP3    H229382   1.437   4.187   5.212  1.5673 -0.2865 -1.4569
 2631TIP3   OH229383   1.472   2.118  14.777  0.6377  0.0926 -0.7836
 2631TIP3    H129384   1.508   2.040  14.735 -0.0658 -1.0455  0.6421
 2631TIP3    H229385   1.495   2.108  14.869  0.7270  1.6963 -0.6116
 2632TIP3   OH229386   4.428   3.823  13.267  0.1785  0.4033 -0.0918
 2632TIP3    H129387   4.339   3.797  13.243 -0.4860  2.5189 -0.1768
 2632TIP3    H229388   4.473   3.741  13.287 -1.4006 -0.8236 -1.3055
 2633TIP3   OH229389   2.276   0.799  12.402 -0.2194  0.1894  0.0978
 2633TIP3    H129390   2.303   0.881  12.361 -0.6633  0.4148  0.2444
 2633TIP3    H229391   2.238   0.748  12.331 -0.8409  0.5140  0.1908
 2634TIP3   OH229392   4.272   3.440  12.571  0.4889  0.2979 -0.4296
 2634TIP3    H129393   4.351   3.464  12.522  1.7593 -1.2309  0.7514
 2634TIP3    H229394   4.221   3.388  12.508  0.8023  0.6135 -0.9559
 2635TIP3   OH229395   1.601   4.160   5.752 -0.5415  0.1339  0.7175
 2635TIP3    H129396   1.628   4.218   5.823  1.4862 -2.7189  2.4872
 2635TIP3    H229397   1.539   4.099   5.792  0.7131 -1.6031  0.1267
 2636TIP3   OH229398   1.182   1.660  12.480 -0.3991  0.0209  0.3534
 2636TIP3    H129399   1.256   1.687  12.425 -1.7348  2.0315 -0.5785
 2636TIP3    H229400   1.222   1.613  12.553  1.6913  0.0511 -0.6949
 2637TIP3   OH229401   4.910   5.931   0.319  0.0558 -0.2603  0.4188
 2637TIP3    H129402   4.871   5.891   0.396 -0.1890  1.7514  1.4263
 2637TIP3    H229403   5.003   5.911   0.325  0.3686  1.4385  2.3477
 2638TIP3   OH229404   2.653   6.755  16.277 -0.0309 -0.4664 -0.0890
 2638TIP3    H129405   2.731   6.790  16.233 -1.3345  0.6543 -1.6512
 2638TIP3    H229406   2.638   6.670  16.234  1.7690 -1.9834  2.0595
 2639TIP3   OH229407   6.406   0.375  15.610 -0.0787 -0.1324  0.0303
 2639TIP3    H129408   6.314   0.380  15.635  0.1364 -0.6933  1.0162
 2639TIP3    H229409   6.405   0.371  15.515 -1.0708 -0.0757  0.0234
 2640TIP3   OH229410   5.440   5.374   5.004 -0.3644 -0.1166 -0.2215
 2640TIP3    H129411   5.507   5.385   4.937 -0.9783 -0.3470 -0.8730
 2640TIP3    H229412   5.489   5.347   5.082  0.2099 -1.2064 -0.9425
 2641TIP3   OH229413   3.710   6.800   0.742 -0.0923  0.1264 -0.5411
 2641TIP3    H129414   3.805   6.803   0.731  0.3728  1.3991  2.6637
 2641TIP3    H229415   3.690   6.706   0.749  1.4303 -0.1456  1.4277
 2642TIP3   OH229416   0.128   1.340   1.813  0.1322  0.1869  0.3573
 2642TIP3    H129417   0.096   1.413   1.866  3.8273  2.3887 -0.1421
 2642TIP3    H229418   0.194   1.297   1.868  1.0722 -0.0640 -0.9190
 2643TIP3   OH229419   3.153   0.389  12.701  0.4860  1.1494 -0.1283
 2643TIP3    H129420   3.097   0.367  12.626 -2.0116 -0.3683  1.9990
 2643TIP3    H229421   3.119   0.472  12.733  1.0144  1.3943 -0.1901
 2644TIP3   OH229422   1.346   2.022  14.082  0.2007 -0.5030  0.4275
 2644TIP3    H129423   1.279   1.968  14.040  0.2458  0.8878 -1.5489
 2644TIP3    H229424   1.427   1.997  14.038  0.0418  1.9719 -1.4619
 2645TIP3   OH229425   2.836   1.833  14.326  0.6700  0.4486  0.6827
 2645TIP3    H129426   2.879   1.918  14.321  0.3270  0.5539 -1.1128
 2645TIP3    H229427   2.893   1.774  14.277  0.6178 -0.2418  1.4319
 2646TIP3   OH229428   5.222   3.351  10.810  0.6086  0.3757 -0.3279
 2646TIP3    H129429   5.195   3.344  10.719  0.6724  1.9386 -0.4925
 2646TIP3    H229430   5.306   3.397  10.807  0.5962  0.4771  0.5323
 2647TIP3   OH229431   3.900   2.794  11.640 -0.0094 -0.1412  0.0977
 2647TIP3    H129432   3.863   2.814  11.554  1.0566 -1.4633 -0.6994
 2647TIP3    H229433   3.990   2.769  11.623  0.0598 -1.0094  1.5334
 2648TIP3   OH229434   5.265   4.718  11.571  0.2928 -0.8284  0.5109
 2648TIP3    H129435   5.177   4.682  11.575  0.9657 -2.4935  1.3172
 2648TIP3    H229436   5.293   4.705  11.480 -0.2380 -0.3890  0.2821
 2649TIP3   OH229437   4.640   4.902  15.622 -0.0181  0.2150  0.2103
 2649TIP3    H129438   4.726   4.867  15.643 -0.3194 -0.4082  0.4201
 2649TIP3    H229439   4.592   4.899  15.705  0.0751  1.5070  0.3365
 2650TIP3   OH229440   6.697   6.764   2.251 -0.3556  0.3907 -0.0360
 2650TIP3    H129441   6.652   6.691   2.293  1.3694 -0.6880  0.0596
 2650TIP3    H229442   6.715   6.825   2.322  0.1953 -0.1860  0.3371
 2651TIP3   OH229443   0.672   2.114   4.407  0.5360  0.1119  0.1057
 2651TIP3    H129444   0.610   2.142   4.474  1.0161 -0.7525  0.9376
 2651TIP3    H229445   0.736   2.185   4.403 -0.2027  0.7696 -0.3893
 2652TIP3   OH229446   5.166   2.746   1.950  0.0236 -0.2925  0.2229
 2652TIP3    H129447   5.135   2.789   2.029 -3.0099 -1.4273 -0.2186
 2652TIP3    H229448   5.112   2.667   1.943  1.1378 -0.9295 -2.2513
 2653TIP3   OH229449   4.269   2.145  11.343  0.1854 -0.1611 -0.8482
 2653TIP3    H129450   4.279   2.232  11.303  1.7956  0.7101  1.2459
 2653TIP3    H229451   4.353   2.101  11.326  0.2665 -0.3925  0.0777
 2654TIP3   OH229452   1.467   2.867   0.787 -0.4157  0.1365  0.1706
 2654TIP3    H129453   1.552   2.896   0.755 -0.3378  1.2552  1.2850
 2654TIP3    H229454   1.404   2.924   0.742 -0.4641  0.2879  0.4291
 2655TIP3   OH229455   0.073   0.518   1.887 -0.1761  0.6155 -0.1536
 2655TIP3    H129456   0.074   0.594   1.945  0.0992  1.5748 -1.3831
 2655TIP3    H229457   0.036   0.448   1.941  2.0272  0.8726  1.8831
 2656TIP3   OH229458   3.608   1.592  13.318  0.0294  0.2267 -0.0305
 2656TIP3    H129459   3.610   1.630  13.406  1.0761  1.8430 -0.7003
 2656TIP3    H229460   3.644   1.504  13.329  0.1597  0.4101  1.1575
 2657TIP3   OH229461   0.404   4.323   4.300 -0.3478  0.0618 -0.1887
 2657TIP3    H129462   0.363   4.287   4.221 -2.1518  1.3397  0.1100
 2657TIP3    H229463   0.485   4.363   4.269 -0.8324  0.1875 -1.3304
 2658TIP3   OH229464   3.080   5.574   4.301 -0.0913 -0.0931 -0.0366
 2658TIP3    H129465   3.066   5.562   4.395 -1.6596 -1.6025 -0.4183
 2658TIP3    H229466   3.029   5.653   4.280  0.3261  0.2946  0.3762
 2659TIP3   OH229467   3.338   0.189   0.686  0.1286 -0.1212  0.1145
 2659TIP3    H129468   3.323   0.277   0.720  2.2012  0.5264 -0.4858
 2659TIP3    H229469   3.337   0.133   0.763  2.5550  1.0049  1.0581
 2660TIP3   OH229470   6.815   5.420   0.502  0.3695  0.1610 -0.2623
 2660TIP3    H129471   6.746   5.419   0.435  0.1229  0.1291 -0.0097
 2660TIP3    H229472   6.770   5.443   0.583  0.9180  1.7129 -0.3692
 2661TIP3   OH229473   2.790   4.872  10.846  0.1683  0.0966  0.5427
 2661TIP3    H129474   2.699   4.881  10.816  0.6161 -0.5618 -1.1596
 2661TIP3    H229475   2.800   4.778  10.862  0.9190 -0.0588 -0.6896
 2662TIP3   OH229476   0.719   4.009   1.631 -0.5809  0.2439 -0.1037
 2662TIP3    H129477   0.768   4.068   1.572 -0.9156  0.8865  0.2524
 2662TIP3    H229478   0.635   4.053   1.644  0.0004  0.8227  1.9779
 2663TIP3   OH229479   2.643   4.648  13.810 -0.2119 -0.0169 -0.0968
 2663TIP3    H129480   2.628   4.658  13.904 -1.2031  0.3220 -0.2840
 2663TIP3    H229481   2.557   4.627  13.774  0.4518 -1.7715 -0.7277
 2664TIP3   OH229482   0.343   0.626  10.838 -0.3482 -0.1613  0.2756
 2664TIP3    H129483   0.435   0.641  10.814 -0.6917  2.2727  0.2611
 2664TIP3    H229484   0.346   0.550  10.897  1.4632 -1.0734 -0.8739
 2665TIP3   OH229485   0.601   6.024   2.746 -0.0330 -0.3563  0.6521
 2665TIP3    H129486   0.572   6.087   2.813 -0.2981 -0.8286  0.9872
 2665TIP3    H229487   0.662   6.074   2.691  0.9599 -0.2096  1.8355
 2666TIP3   OH229488   1.153   6.621  11.951  0.3315 -0.0207 -0.6534
 2666TIP3    H129489   1.111   6.562  12.014 -0.9339  1.3801 -0.0939
 2666TIP3    H229490   1.173   6.699  12.003  1.3332  0.3061 -1.5134
 2667TIP3   OH229491   3.988   0.497   4.300  0.4107  0.2692  0.1490
 2667TIP3    H129492   3.960   0.588   4.287  0.3321  0.3508  0.8638
 2667TIP3    H229493   3.932   0.465   4.370 -0.3430 -0.6876 -0.8419
 2668TIP3   OH229494   0.032   1.415  16.272 -0.6342  0.3225  0.3563
 2668TIP3    H129495   0.068   1.350  16.212  1.0332  1.5751 -0.0592
 2668TIP3    H229496  -0.010   1.362  16.341  0.1803 -1.1757 -0.2405
 2669TIP3   OH229497   5.263   4.540   0.534 -0.7429  0.3450 -0.1900
 2669TIP3    H129498   5.351   4.577   0.544 -0.8433  0.4998  0.1227
 2669TIP3    H229499   5.275   4.447   0.548 -0.8411  0.5257  1.1836
 2670TIP3   OH229500   6.618   5.303  16.221  0.2297  0.0955 -0.0942
 2670TIP3    H129501   6.662   5.375  16.176  1.2113 -0.1064  0.5146
 2670TIP3    H229502   6.690   5.250  16.257 -0.5230 -0.0806  1.1823
 2671TIP3   OH229503   1.780   6.686   1.980 -0.3619 -0.2798  0.1188
 2671TIP3    H129504   1.756   6.765   2.030  0.2461 -0.8694  1.3921
 2671TIP3    H229505   1.697   6.649   1.952 -0.7255  0.1172  0.6453
 2672TIP3   OH229506   4.262   4.923   3.834 -0.7412 -0.2982 -0.8342
 2672TIP3    H129507   4.354   4.943   3.851 -0.5065 -2.0792  0.4147
 2672TIP3    H229508   4.242   4.966   3.751  1.3256 -0.1694 -1.3232
 2673TIP3   OH229509   1.030   4.448  12.774  0.7619 -0.5856 -0.0395
 2673TIP3    H129510   1.098   4.391  12.740 -0.0914 -0.3807 -2.2722
 2673TIP3    H229511   1.000   4.405  12.854  1.5482 -2.1656 -0.5504
 2674TIP3   OH229512   3.860   2.523   5.517  0.1467 -0.7275  0.5035
 2674TIP3    H129513   3.847   2.506   5.611 -0.2751 -0.5534  0.4766
 2674TIP3    H229514   3.782   2.486   5.475  0.5199 -1.1608  0.1816
 2675TIP3   OH229515   6.274   3.795   5.098  0.0016  0.2084 -0.2101
 2675TIP3    H129516   6.204   3.733   5.119  1.0087 -0.9370 -0.0862
 2675TIP3    H229517   6.285   3.788   5.004 -0.8006  1.2414 -0.3953
 2676TIP3   OH229518   2.931   2.586  11.991  0.0100  0.1582  0.3973
 2676TIP3    H129519   3.017   2.606  11.952 -0.3623  2.2275  0.5451
 2676TIP3    H229520   2.868   2.621  11.928 -0.6562  1.0887  1.5535
 2677TIP3   OH229521   0.465   1.148  16.776  0.3311 -0.2926 -0.3892
 2677TIP3    H129522   0.377   1.173  16.749 -0.2283  0.1985  1.6767
 2677TIP3    H229523   0.489   1.214  16.842  1.4932 -1.4623  0.4198
 2678TIP3   OH229524   5.632   2.012  10.937  0.5066  0.2211  0.2043
 2678TIP3    H129525   5.589   1.927  10.927  1.3509 -0.2480  0.4666
 2678TIP3    H229526   5.587   2.069  10.874  1.2822 -0.9605 -1.5194
 2679TIP3   OH229527   3.369   4.448  14.916 -0.0521 -0.4139 -0.0866
 2679TIP3    H129528   3.456   4.428  14.952  0.0335 -0.3633 -0.2648
 2679TIP3    H229529   3.346   4.370  14.866  0.6328  0.2376 -1.4558
 2680TIP3   OH229530   5.316   0.555  14.173  0.3812  0.1083  0.4631
 2680TIP3    H129531   5.377   0.505  14.228  1.3618  0.9377  0.1609
 2680TIP3    H229532   5.268   0.609  14.235  1.2577  0.8038  0.5522
 2681TIP3   OH229533   3.613   6.191  15.910  0.0702  0.6865  0.0991
 2681TIP3    H129534   3.589   6.275  15.950  1.6558  0.6995  1.1083
 2681TIP3    H229535   3.575   6.195  15.822 -0.5691  2.1212  0.4128
 2682TIP3   OH229536   0.109   4.071  15.404 -0.1927 -0.5432  0.7275
 2682TIP3    H129537   0.110   4.141  15.470  2.8332 -1.3989  1.7862
 2682TIP3    H229538   0.154   3.998  15.447  3.1023 -0.7362 -2.5695
 2683TIP3   OH229539   4.758   1.737  12.691 -0.2140 -0.1799  0.4049
 2683TIP3    H129540   4.762   1.817  12.743  0.3814  0.6005 -0.7881
 2683TIP3    H229541   4.848   1.725  12.659 -0.2017 -1.5590  0.8814
 2684TIP3   OH229542   5.513   5.592   5.482  0.2556 -0.6107 -0.0574
 2684TIP3    H129543   5.421   5.619   5.488  0.6119  1.2265 -1.7607
 2684TIP3    H229544   5.561   5.661   5.528  0.8550 -1.0782  0.0263
 2685TIP3   OH229545   2.827   4.068  13.569  0.1972 -0.0194 -0.2134
 2685TIP3    H129546   2.814   4.092  13.477 -0.8427 -1.0981 -0.3721
 2685TIP3    H229547   2.908   4.112  13.594  0.9527 -0.3968 -1.8959
 2686TIP3   OH229548   6.633   4.552   2.769  0.4088 -0.0381  0.0663
 2686TIP3    H129549   6.580   4.625   2.801  0.6033  0.6162 -1.0475
 2686TIP3    H229550   6.601   4.476   2.818  1.1985  0.9947  2.3309
 2687TIP3   OH229551   4.725   5.374   3.919  0.0207  0.0440  0.0735
 2687TIP3    H129552   4.754   5.346   4.006  1.3513 -1.0467 -0.6774
 2687TIP3    H229553   4.646   5.322   3.902  0.1713 -0.2786  0.3477
 2688TIP3   OH229554   1.078   3.045  13.286  0.2559  0.0204  0.0273
 2688TIP3    H129555   1.009   3.111  13.285  1.4083  1.2836  0.3162
 2688TIP3    H229556   1.154   3.090  13.249  2.0379 -0.0292  3.2692
 2689TIP3   OH229557   5.275   0.585   4.667  0.1292 -0.0009  0.6175
 2689TIP3    H129558   5.192   0.540   4.684 -1.0060  2.2806  1.5087
 2689TIP3    H229559   5.340   0.537   4.718 -1.2243  0.0118  2.4386
 2690TIP3   OH229560   5.407   2.612  15.723 -0.0649  0.3205  0.4963
 2690TIP3    H129561   5.495   2.619  15.760  0.0469  0.1290  0.2712
 2690TIP3    H229562   5.367   2.697  15.739  0.2874  0.5289  0.2881
 2691TIP3   OH229563   6.316   0.773   1.067 -0.0407  0.4142  0.2251
 2691TIP3    H129564   6.319   0.801   0.976  0.4565 -0.5303 -0.0562
 2691TIP3    H229565   6.407   0.782   1.097  0.2342 -1.2589  0.0004
 2692TIP3   OH229566   5.182   1.624   0.056 -0.4717  0.7076 -0.4414
 2692TIP3    H129567   5.188   1.652  -0.035  1.1347  0.1179 -0.5485
 2692TIP3    H229568   5.132   1.542   0.053  0.3697  0.1947 -0.9358
 2693TIP3   OH229569   3.569   1.255  16.666 -0.6655 -0.2339 -0.8162
 2693TIP3    H129570   3.573   1.318  16.738 -0.2165 -0.2451 -0.8303
 2693TIP3    H229571   3.658   1.221  16.659 -0.2757  1.0252 -2.5046
 2694TIP3   OH229572   1.310   0.484   4.682  0.5179  0.4390 -0.4630
 2694TIP3    H129573   1.299   0.428   4.606  0.3711  1.9441 -1.6027
 2694TIP3    H229574   1.270   0.436   4.754 -0.3905 -0.5144 -1.5720
 2695TIP3   OH229575   4.358   6.535   1.994  0.2233 -0.4626 -0.1891
 2695TIP3    H129576   4.267   6.545   1.965  0.7205 -0.5780 -1.9513
 2695TIP3    H229577   4.379   6.443   1.978  0.9553 -0.1954 -0.8695
 2696TIP3   OH229578   2.835   4.061  16.810  0.1014  0.1587  0.5296
 2696TIP3    H129579   2.745   4.091  16.813  0.4526  1.1976  1.0563
 2696TIP3    H229580   2.831   3.977  16.764 -0.7244  1.7511 -2.5553
 2697TIP3   OH229581   2.952   4.971   0.484  0.0026  0.1738  0.0215
 2697TIP3    H129582   2.864   4.994   0.456 -0.1309  1.7585  1.5538
 2697TIP3    H229583   3.002   4.963   0.402 -1.4923 -0.5965 -0.8590
 2698TIP3   OH229584   5.899   0.866   1.739  0.0299  0.4955 -0.1107
 2698TIP3    H129585   5.884   0.790   1.795  0.5929  0.5082  0.0724
 2698TIP3    H229586   5.891   0.832   1.649  0.0264  0.2763 -0.0274
 2699TIP3   OH229587   5.122   1.683   2.764 -0.5602  0.0646 -0.5442
 2699TIP3    H129588   5.045   1.738   2.748  0.1935  1.8957  1.5780
 2699TIP3    H229589   5.094   1.622   2.832  0.2729  1.9422  1.5961
 2700TIP3   OH229590   1.043   4.549   0.471 -0.0519  0.6029  0.2119
 2700TIP3    H129591   1.071   4.503   0.392  1.1448 -0.3590  1.1662
 2700TIP3    H229592   1.019   4.479   0.532  0.1859  1.2877  1.1148
 2701TIP3   OH229593   1.605   4.873  14.407  0.1260 -0.6911 -0.1634
 2701TIP3    H129594   1.582   4.847  14.318 -0.7386 -0.8568  0.1012
 2701TIP3    H229595   1.659   4.801  14.440 -0.3342 -1.0675 -0.2313
 2702TIP3   OH229596   4.757   4.835   2.213  0.0294 -0.0376  0.2089
 2702TIP3    H129597   4.790   4.745   2.222  0.3311 -0.0310 -0.7079
 2702TIP3    H229598   4.692   4.830   2.143  0.8864  0.6519 -0.6712
 2703TIP3   OH229599   4.388   4.661  13.712  0.2766 -0.3750 -0.2321
 2703TIP3    H129600   4.365   4.746  13.676 -2.9260 -0.7095  0.7196
 2703TIP3    H229601   4.447   4.680  13.785  0.2911  0.9257 -0.5595
 2704TIP3   OH229602   0.207   4.078   2.862  0.7971 -0.6596  0.6027
 2704TIP3    H129603   0.240   4.052   2.776 -0.4492  1.3138 -0.5534
 2704TIP3    H229604   0.125   4.030   2.871 -0.7383  1.4772 -0.8623
 2705TIP3   OH229605   1.939   3.278  11.207 -0.1453  0.0665 -0.1720
 2705TIP3    H129606   1.884   3.240  11.275 -2.6641  0.8171 -1.6413
 2705TIP3    H229607   1.983   3.352  11.249 -1.7496  0.6022  0.6520
 2706TIP3   OH229608   4.407   6.694   2.228  0.0069  0.4237  0.0907
 2706TIP3    H129609   4.439   6.620   2.176 -1.2614 -0.8928  1.0919
 2706TIP3    H229610   4.316   6.706   2.200 -0.2953  0.5269  1.0838
 2707TIP3   OH229611   3.985   6.209  12.009  0.6081 -0.2932 -0.1262
 2707TIP3    H129612   4.001   6.158  12.088  1.1670  2.1451  1.4726
 2707TIP3    H229613   4.062   6.267  12.003 -0.4098  1.0040 -1.2670
 2708TIP3   OH229614   2.697   4.588  13.060 -0.6524 -0.2907  0.0557
 2708TIP3    H129615   2.693   4.680  13.038 -2.2062 -0.5895 -1.0364
 2708TIP3    H229616   2.786   4.575  13.092 -0.7503  1.8168  1.3905
 2709TIP3   OH229617   6.495   6.057   5.755  0.1980 -0.2828  0.1708
 2709TIP3    H129618   6.570   6.106   5.721  2.4509 -2.0085  2.2938
 2709TIP3    H229619   6.498   5.974   5.707 -0.4818 -0.3264  0.1914
 2710TIP3   OH229620   4.170   4.262  14.529 -0.4412  0.1368  0.3575
 2710TIP3    H129621   4.249   4.313  14.516  0.3462 -0.8646  1.1090
 2710TIP3    H229622   4.104   4.306  14.475  1.4577 -1.0402 -3.2779
 2711TIP3   OH229623   6.487   3.686   2.598  0.5881  0.1369 -0.0855
 2711TIP3    H129624   6.531   3.770   2.611 -1.5500  1.3128 -0.0162
 2711TIP3    H229625   6.504   3.665   2.506  0.9862  0.7472 -0.1568
 2712TIP3   OH229626   1.932   6.461  12.441 -0.0308  0.2259  0.2213
 2712TIP3    H129627   1.942   6.445  12.535  1.6493  0.1437  0.0733
 2712TIP3    H229628   1.839   6.480  12.428 -0.2535  0.3850  1.9179
 2713TIP3   OH229629   5.695   5.563   3.842  0.5267 -0.2126 -0.1907
 2713TIP3    H129630   5.761   5.557   3.773 -0.7485  0.8439 -1.5828
 2713TIP3    H229631   5.633   5.493   3.822 -1.2932  1.6830 -1.8711
 2714TIP3   OH229632   0.478   4.237  13.456  0.0274 -0.2164 -0.0082
 2714TIP3    H129633   0.508   4.317  13.413 -0.3545  0.1285  0.3465
 2714TIP3    H229634   0.438   4.185  13.386 -0.9208  0.4978 -0.0206
 2715TIP3   OH229635   6.369   3.877   4.646  0.1669 -0.2924 -0.1447
 2715TIP3    H129636   6.370   3.830   4.729 -0.9644  1.9361  1.2186
 2715TIP3    H229637   6.462   3.892   4.626  0.4790 -1.5930  0.2341
 2716TIP3   OH229638   4.858   0.820   4.569 -0.0948  0.4337  0.5375
 2716TIP3    H129639   4.876   0.893   4.510 -0.5262 -0.4386 -0.6942
 2716TIP3    H229640   4.906   0.842   4.649  2.7398  0.3567 -1.0402
 2717TIP3   OH229641   6.369   4.451  11.929  0.3776 -0.1404 -0.1290
 2717TIP3    H129642   6.442   4.406  11.971 -0.1106 -0.6544  0.1856
 2717TIP3    H229643   6.409   4.499  11.857  0.9670 -0.7933 -0.2492
 2718TIP3   OH229644   3.004   4.070   1.909 -0.3837  1.0323 -0.4674
 2718TIP3    H129645   2.909   4.067   1.921 -0.3467  1.2669 -0.1098
 2718TIP3    H229646   3.033   4.144   1.963  0.2290 -0.1818  0.9129
 2719TIP3   OH229647   5.704   6.135   1.706  0.1060  0.2693 -0.2563
 2719TIP3    H129648   5.789   6.139   1.748 -0.3328 -0.1032  0.6752
 2719TIP3    H229649   5.656   6.210   1.742 -0.2943 -0.0910 -0.0328
 2720TIP3   OH229650   1.831   4.506  13.682 -0.4003  0.2449  0.2438
 2720TIP3    H129651   1.794   4.435  13.734  0.3104 -0.1423  0.2340
 2720TIP3    H229652   1.887   4.554  13.743 -0.9299  0.8341  0.2656
 2721TIP3   OH229653   5.430   5.413  14.630  0.4836 -0.8230 -0.3234
 2721TIP3    H129654   5.489   5.489  14.622 -0.0781 -0.4800 -1.3827
 2721TIP3    H229655   5.432   5.392  14.723 -0.7394  1.6468  0.3572
 2722TIP3   OH229656   3.075   1.843   2.011 -0.3115 -0.1243 -0.8402
 2722TIP3    H129657   3.089   1.892   1.930  1.0718  0.5250 -0.2385
 2722TIP3    H229658   3.099   1.905   2.081 -1.1525 -0.7798  0.0645
 2723TIP3   OH229659   6.792   3.118   0.636  0.7121  0.1932 -0.4491
 2723TIP3    H129660   6.832   3.129   0.722  2.6449  0.4857 -1.3420
 2723TIP3    H229661   6.789   3.023   0.623 -0.3916  0.1116  0.2705
 2724TIP3   OH229662   0.039   2.393   0.938  0.2501 -0.6127 -0.0685
 2724TIP3    H129663  -0.034   2.352   0.891 -0.0194 -2.3756  1.7622
 2724TIP3    H229664  -0.001   2.460   0.993  0.2327 -0.4425 -0.2857
 2725TIP3   OH229665   5.711   4.034   1.306  0.1250  0.1235 -0.3989
 2725TIP3    H129666   5.734   3.943   1.322  1.3382  0.5303  0.2820
 2725TIP3    H229667   5.710   4.042   1.210 -0.7675 -0.7657 -0.4880
 2726TIP3   OH229668   4.320   2.827   5.588 -0.2494 -0.0697 -0.4925
 2726TIP3    H129669   4.324   2.762   5.658  0.1720 -1.8527 -2.0805
 2726TIP3    H229670   4.233   2.818   5.551 -0.6612  1.2435  0.1191
 2727TIP3   OH229671   6.326   5.786   1.860  0.5991  0.1128  0.6785
 2727TIP3    H129672   6.244   5.752   1.823  1.6143 -2.2848  0.4748
 2727TIP3    H229673   6.353   5.854   1.798  0.0793 -0.8787 -0.6995
 2728TIP3   OH229674   1.148   0.807  15.980  0.8899  0.7266  0.5253
 2728TIP3    H129675   1.121   0.731  16.032 -0.6741  0.7596 -0.1744
 2728TIP3    H229676   1.067   0.856  15.965  1.3382  0.9388 -1.5773
 2729TIP3   OH229677   3.771   5.411   4.956 -0.2565  0.1376  0.1575
 2729TIP3    H129678   3.682   5.443   4.970 -0.1814  0.3420  0.1759
 2729TIP3    H229679   3.807   5.470   4.890 -0.5765 -0.7695 -0.8492
 2730TIP3   OH229680   0.229   1.611  11.580  0.0962 -0.2473  0.3798
 2730TIP3    H129681   0.268   1.582  11.663  0.3958 -1.9060 -0.3112
 2730TIP3    H229682   0.186   1.533  11.545 -0.8684  0.6770 -0.5708
 2731TIP3   OH229683   1.736   4.197   2.706 -0.6118 -1.1294 -0.7697
 2731TIP3    H129684   1.645   4.220   2.688 -0.4737 -0.8536 -1.1278
 2731TIP3    H229685   1.741   4.191   2.801 -0.7256  0.0300 -0.6795
 2732TIP3   OH229686   3.079   5.318   2.209 -0.0259  0.0770 -0.7370
 2732TIP3    H129687   3.081   5.243   2.149  3.0805  0.7309 -1.6271
 2732TIP3    H229688   3.063   5.279   2.295 -0.7490 -1.3223 -1.4656
 2733TIP3   OH229689   5.661   4.639   1.177 -0.2970 -0.4339  0.7959
 2733TIP3    H129690   5.619   4.554   1.190 -1.1268 -0.1833 -0.0499
 2733TIP3    H229691   5.730   4.643   1.243 -0.2363 -1.7657  0.8376
 2734TIP3   OH229692   0.709   5.200   2.485  0.2546  0.0322  0.6373
 2734TIP3    H129693   0.655   5.191   2.564 -0.0529  1.1224  0.5663
 2734TIP3    H229694   0.675   5.278   2.441 -1.1006 -1.7720 -1.7998
 2735TIP3   OH229695   1.966   2.813   6.716 -0.3175  0.5823 -0.0531
 2735TIP3    H129696   1.908   2.887   6.698 -1.3937 -0.4007 -0.8290
 2735TIP3    H229697   2.028   2.813   6.643 -1.4002 -0.2614 -1.0332
 2736TIP3   OH229698   4.247   1.836   0.621 -0.4761 -0.0252  0.0652
 2736TIP3    H129699   4.192   1.874   0.690 -2.1010  0.2661 -1.3138
 2736TIP3    H229700   4.191   1.769   0.581  0.7916 -0.8717 -0.3337
 2737TIP3   OH229701   1.997   4.799   0.789 -0.6564  0.0118  0.1015
 2737TIP3    H129702   1.989   4.706   0.810 -1.1413  0.6787  3.3176
 2737TIP3    H229703   2.070   4.802   0.727 -0.3311 -2.4492  0.2432
 2738TIP3   OH229704   4.569   5.396   5.655 -0.1095  0.1521 -0.1590
 2738TIP3    H129705   4.613   5.319   5.692 -2.4386 -1.2026  0.0213
 2738TIP3    H229706   4.553   5.373   5.564  0.9927  1.3238 -0.6735
 2739TIP3   OH229707   5.265   4.731  12.784 -0.0318 -0.7709 -0.2979
 2739TIP3    H129708   5.300   4.733  12.695 -1.9388 -1.0453 -1.0996
 2739TIP3    H229709   5.200   4.661  12.783 -1.5631  0.5483  0.6871
 2740TIP3   OH229710   5.380   1.332  11.616 -0.3652  0.0819  0.5835
 2740TIP3    H129711   5.457   1.382  11.643  0.3209 -0.8748  0.4140
 2740TIP3    H229712   5.308   1.370  11.667  0.2538  0.8073  0.9309
 2741TIP3   OH229713   0.508   1.548   0.612 -0.3906 -0.0076 -0.1983
 2741TIP3    H129714   0.540   1.479   0.554  0.5792 -1.7046  2.2266
 2741TIP3    H229715   0.434   1.509   0.658 -0.7439  1.0764  0.1988
 2742TIP3   OH229716   3.160   4.779  11.372 -0.1408  0.6245  0.7321
 2742TIP3    H129717   3.187   4.856  11.322  0.0047 -1.0358 -1.9049
 2742TIP3    H229718   3.064   4.777  11.365 -0.2281  1.0872  1.6595
 2743TIP3   OH229719   5.465   4.157   1.401 -0.6802  0.4599  0.3486
 2743TIP3    H129720   5.399   4.137   1.335 -0.9751  0.3760  0.6692
 2743TIP3    H229721   5.545   4.114   1.369 -1.7562 -3.1288  2.0387
 2744TIP3   OH229722   4.245   5.031   3.268 -0.6813  0.3510  0.7060
 2744TIP3    H129723   4.282   4.964   3.326  0.4500 -0.3938 -0.8029
 2744TIP3    H229724   4.249   5.111   3.319 -0.5755 -0.4359  1.9830
 2745TIP3   OH229725   1.961   1.480   2.164 -0.0701 -0.3823 -0.4696
 2745TIP3    H129726   2.006   1.422   2.225  1.5890 -0.3304 -1.5453
 2745TIP3    H229727   1.868   1.468   2.181  0.3131 -1.6559  0.8471
 2746TIP3   OH229728   1.579   6.483  16.060  0.6298 -0.9551  0.2994
 2746TIP3    H129729   1.536   6.501  16.145  0.0332 -1.7277  0.1670
 2746TIP3    H229730   1.508   6.490  15.996  1.2490  0.5276 -0.2629
 2747TIP3   OH229731   3.206   3.746   5.731 -0.3729  0.2863  0.4520
 2747TIP3    H129732   3.296   3.717   5.749 -0.6487 -0.0064  1.4301
 2747TIP3    H229733   3.154   3.704   5.799 -1.7190 -1.9798 -1.8352
 2748TIP3   OH229734   2.088   3.113  16.911 -0.0803 -0.6561 -0.3737
 2748TIP3    H129735   2.032   3.115  16.833 -0.5423 -0.6953 -0.0485
 2748TIP3    H229736   2.026   3.115  16.984  0.3684 -0.0247 -0.0063
 2749TIP3   OH229737   5.977   5.369  11.819  0.3865  0.0066  0.0896
 2749TIP3    H129738   5.891   5.328  11.815  0.0877  0.5579  0.6437
 2749TIP3    H229739   6.010   5.363  11.730 -1.1638  1.7257 -0.6763
 2750TIP3   OH229740   4.537   5.090  13.028  0.1477  0.0129  0.5433
 2750TIP3    H129741   4.545   4.994  13.027  0.8734  0.0515  1.2459
 2750TIP3    H229742   4.447   5.107  13.001  0.6433 -0.7693 -1.8402
 2751TIP3   OH229743   1.053   4.021   3.228 -0.1688  0.2382 -0.1210
 2751TIP3    H129744   1.025   4.085   3.163  0.1602  0.5321  0.0272
 2751TIP3    H229745   1.112   4.069   3.286  1.2794 -0.5655 -0.8810
 2752TIP3   OH229746   6.327   2.257   2.179 -0.8017  0.2767  0.0743
 2752TIP3    H129747   6.323   2.267   2.084 -1.8316  1.7744  0.2390
 2752TIP3    H229748   6.421   2.255   2.199 -0.5451  1.6411 -0.8468
 2753TIP3   OH229749   0.631   4.657  15.798 -0.1952 -0.2300  0.7126
 2753TIP3    H129750   0.659   4.565  15.795 -1.5029 -0.6275 -1.5804
 2753TIP3    H229751   0.713   4.707  15.796  0.6119 -1.2541  3.3926
 2754TIP3   OH229752   4.456   4.684  16.947  1.0764 -0.4922  0.4203
 2754TIP3    H129753   4.399   4.611  16.923  1.9623 -1.2242  0.4847
 2754TIP3    H229754   4.489   4.717  16.864  0.9304 -0.3715  0.4098
 2755TIP3   OH229755   1.469   2.660  11.247 -0.2349 -0.6805 -0.0071
 2755TIP3    H129756   1.412   2.732  11.221  0.3425  0.4175  1.6030
 2755TIP3    H229757   1.422   2.581  11.221 -1.5054  0.2411 -0.6016
 2756TIP3   OH229758   5.783   5.686   6.061 -0.5323  0.3839 -0.0493
 2756TIP3    H129759   5.739   5.614   6.017 -1.1740  0.6764  0.0951
 2756TIP3    H229760   5.712   5.741   6.094 -0.0609  1.4354 -0.7427
 2757TIP3   OH229761   2.888   4.156  11.555  0.0810  0.2714  0.0666
 2757TIP3    H129762   2.887   4.137  11.461 -0.2865  1.3051 -0.1548
 2757TIP3    H229763   2.980   4.151  11.580 -0.0779 -3.2241  0.3819
 2758TIP3   OH229764   4.063   0.215   3.025 -0.2481 -0.4904  0.1756
 2758TIP3    H129765   4.101   0.269   2.955 -1.2553  0.9787  0.7039
 2758TIP3    H229766   4.137   0.192   3.081  0.5651 -1.6090 -1.2892
 2759TIP3   OH229767   1.120   6.671  12.427 -0.6002  0.0599 -0.2533
 2759TIP3    H129768   1.124   6.583  12.464  0.9564  0.5566  0.8566
 2759TIP3    H229769   1.126   6.729  12.503 -0.2799  1.1232 -1.0790
 2760TIP3   OH229770   5.334   4.441  10.828  0.5432 -0.0021 -0.1726
 2760TIP3    H129771   5.420   4.403  10.811  0.9933  0.3233  1.2347
 2760TIP3    H229772   5.273   4.369  10.813  1.0073 -0.1401 -1.5540
 2761TIP3   OH229773   5.929   3.506   2.710  0.8239  0.2548  0.3222
 2761TIP3    H129774   5.871   3.528   2.783  0.7290 -0.1374  0.3624
 2761TIP3    H229775   5.879   3.444   2.657  0.6878  0.9319 -0.3608
 2762TIP3   OH229776   4.097   6.053  12.512  0.1536  0.2523 -0.9290
 2762TIP3    H129777   4.160   6.095  12.454 -0.3789  1.5522 -0.5898
 2762TIP3    H229778   4.148   6.028  12.589  0.9903 -2.0180 -2.1397
 2763TIP3   OH229779   2.757   3.978   0.058 -0.9346 -1.0157  0.4874
 2763TIP3    H129780   2.792   3.930  -0.017  2.6393  2.0613 -0.1747
 2763TIP3    H229781   2.812   3.951   0.132 -0.4660  0.1605  0.6043
 2764TIP3   OH229782   1.789   5.158   1.547  0.3521 -0.0985  0.4332
 2764TIP3    H129783   1.722   5.198   1.492  1.0523  1.6224  0.7655
 2764TIP3    H229784   1.824   5.230   1.598  2.1162 -1.0421  0.6373
 2765TIP3   OH229785   2.549   1.367  10.995 -0.0983  0.3655  0.1391
 2765TIP3    H129786   2.633   1.374  10.951  0.2525  0.9288  0.8851
 2765TIP3    H229787   2.514   1.456  10.995  0.0236  0.4242  1.2221
 2766TIP3   OH229788   3.700   5.293  13.124  0.0325  0.1101 -0.4816
 2766TIP3    H129789   3.713   5.362  13.189  0.2277  0.2216 -0.6411
 2766TIP3    H229790   3.682   5.215  13.176  0.7652  0.0732 -0.2687
 2767TIP3   OH229791   4.971   3.538  13.673 -0.0144  0.5667  0.0010
 2767TIP3    H129792   4.946   3.604  13.738  0.1998  1.3235 -0.6666
 2767TIP3    H229793   5.034   3.482  13.720 -2.3923 -1.0244  1.5081
 2768TIP3   OH229794   4.751   4.532  16.035 -0.5395  0.0841 -0.6534
 2768TIP3    H129795   4.742   4.611  15.981  1.1863  0.0715 -1.0157
 2768TIP3    H229796   4.789   4.467  15.977  1.8078  0.2068  0.6195
 2769TIP3   OH229797   5.095   4.252  15.807  1.2005  0.1403  0.0951
 2769TIP3    H129798   5.072   4.277  15.896 -0.2138  0.2513 -0.2689
 2769TIP3    H229799   5.023   4.195  15.779  2.7164 -1.7060 -0.2266
 2770TIP3   OH229800   4.026   3.461   3.926  0.3329  0.1352  0.0879
 2770TIP3    H129801   4.047   3.442   3.834 -0.6377  0.3534 -0.1947
 2770TIP3    H229802   3.986   3.380   3.958 -0.9993  0.6368 -0.2279
 2771TIP3   OH229803   4.830   1.856   3.607 -0.2715 -0.3812 -0.5400
 2771TIP3    H129804   4.905   1.880   3.663 -0.6638 -0.1287 -0.1187
 2771TIP3    H229805   4.756   1.902   3.646 -0.5057  0.0070 -1.4348
 2772TIP3   OH229806   6.533   5.324   3.404 -0.0283 -0.3266  0.7696
 2772TIP3    H129807   6.451   5.362   3.433 -0.3543  1.2135 -1.8225
 2772TIP3    H229808   6.520   5.230   3.408 -1.4496 -0.1116  1.5697
 2773TIP3   OH229809   0.429   3.106   6.213  0.0492 -0.3849 -0.4820
 2773TIP3    H129810   0.384   3.108   6.298 -0.2333  0.0054 -0.6362
 2773TIP3    H229811   0.376   3.047   6.159 -0.6609  0.5702 -0.8635
 2774TIP3   OH229812   2.784   4.003  11.798 -0.2832 -0.3474  0.5016
 2774TIP3    H129813   2.836   4.082  11.781 -0.4853  0.1785  2.1037
 2774TIP3    H229814   2.775   3.961  11.713 -0.5703  1.6160 -0.5006
 2775TIP3   OH229815   2.799   4.065  12.117 -0.4134  0.8290 -0.6320
 2775TIP3    H129816   2.710   4.059  12.082 -1.4770  1.4920  1.8056
 2775TIP3    H229817   2.830   3.974  12.118 -1.8513  0.3212  0.3905
 2776TIP3   OH229818   1.554   5.129  15.610  0.5127 -0.1380 -0.1927
 2776TIP3    H129819   1.596   5.214  15.626  1.7873 -0.3516 -2.1543
 2776TIP3    H229820   1.602   5.092  15.537 -0.6073 -2.1893  0.0507
 2777TIP3   OH229821   3.146   5.095  15.974  0.0676 -0.2703  0.0028
 2777TIP3    H129822   3.154   5.085  15.880 -1.8139  0.2600 -0.2573
 2777TIP3    H229823   3.074   5.037  15.999  0.1709  0.0132  1.0307
 2778TIP3   OH229824   6.491   3.598   1.055 -0.4246 -0.1381 -0.1906
 2778TIP3    H129825   6.501   3.673   1.114 -0.5896 -0.2578 -0.0094
 2778TIP3    H229826   6.573   3.549   1.065 -1.2688 -1.2734  1.5128
 2779TIP3   OH229827   4.220   3.015  12.389  0.2171  0.1742 -0.1770
 2779TIP3    H129828   4.254   3.101  12.415  1.9712  0.4584 -2.9764
 2779TIP3    H229829   4.125   3.027  12.388  0.4340  2.7134 -2.1294
 2780TIP3   OH229830   6.261   5.665  11.697 -0.6052 -0.4582 -0.7859
 2780TIP3    H129831   6.302   5.708  11.622  0.2873  0.7286  0.3468
 2780TIP3    H229832   6.230   5.737  11.752  0.3372 -1.2437  0.8458
 2781TIP3   OH229833   1.099   2.563  16.201 -0.4136  0.3582 -0.4217
 2781TIP3    H129834   1.092   2.479  16.247 -1.4774  0.4184 -0.4555
 2781TIP3    H229835   1.009   2.588  16.183 -0.0738  1.1912 -1.0064
 2782TIP3   OH229836   0.403   1.248  11.333 -0.4898 -0.6721 -0.5170
 2782TIP3    H129837   0.454   1.329  11.332 -0.7765 -0.4411  0.7374
 2782TIP3    H229838   0.394   1.227  11.426  1.2737 -3.2466 -0.8338
 2783TIP3   OH229839   5.879   2.982   3.681 -0.2386 -0.4223  0.1671
 2783TIP3    H129840   5.885   2.906   3.624  0.4671 -0.0754 -0.2396
 2783TIP3    H229841   5.896   2.947   3.769 -1.4232 -0.9706  0.1936
 2784TIP3   OH229842   5.594   6.382   4.496 -1.2713  0.4376 -0.1677
 2784TIP3    H129843   5.611   6.445   4.565 -1.3884  0.3323 -0.0420
 2784TIP3    H229844   5.534   6.318   4.536 -0.7700 -0.0234 -0.1432
 2785TIP3   OH229845   6.153   5.267   5.890 -0.7770  0.0679  0.2085
 2785TIP3    H129846   6.107   5.263   5.974  0.4364  1.7109  1.0027
 2785TIP3    H229847   6.102   5.330   5.838 -1.1641 -0.4689 -0.0761
 2786TIP3   OH229848   5.372   5.400   0.082 -0.0791 -0.5731 -0.2860
 2786TIP3    H129849   5.439   5.465   0.058 -0.9636 -0.0116 -1.3657
 2786TIP3    H229850   5.290   5.438   0.049 -1.0347 -0.9711  1.5029
 2787TIP3   OH229851   5.176   0.493   5.332 -0.3738 -0.0247 -0.4704
 2787TIP3    H129852   5.199   0.446   5.412  1.4398 -0.2022 -1.0481
 2787TIP3    H229853   5.254   0.545   5.311 -1.1122  0.6470 -1.6843
 2788TIP3   OH229854   6.580   5.455   4.683 -0.3977 -0.3113  0.4436
 2788TIP3    H129855   6.538   5.409   4.756  0.0297 -0.6550  0.4684
 2788TIP3    H229856   6.541   5.543   4.686  0.3605  0.0126  1.7347
 2789TIP3   OH229857   2.636   4.394   5.134  0.0301 -0.1667  0.7561
 2789TIP3    H129858   2.660   4.353   5.052 -1.3187  0.6545 -0.0949
 2789TIP3    H229859   2.586   4.472   5.109 -0.0984  0.3150  2.3456
 2790TIP3   OH229860   4.192   3.441   5.723  0.1672 -0.2332  0.1136
 2790TIP3    H129861   4.244   3.459   5.802 -1.3368  0.6873  0.9418
 2790TIP3    H229862   4.181   3.346   5.722  1.3676 -0.3951  0.2143
 2791TIP3   OH229863   0.171   5.723   5.789 -0.1038  1.0977  0.2682
 2791TIP3    H129864   0.186   5.765   5.874 -0.4230 -2.2012  2.1328
 2791TIP3    H229865   0.083   5.686   5.796  1.0711 -2.0823 -0.0512
 2792TIP3   OH229866   4.641   1.253  12.561  0.0808  0.2127  0.0313
 2792TIP3    H129867   4.546   1.262  12.567  0.0314 -0.8823  1.4146
 2792TIP3    H229868   4.655   1.160  12.542  0.8236  0.9359 -3.9666
 2793TIP3   OH229869   6.352   5.269  16.082 -0.4699 -0.5420  0.0928
 2793TIP3    H129870   6.397   5.291  16.000 -2.0517  0.5742 -0.5344
 2793TIP3    H229871   6.422   5.267  16.147  0.7113 -0.5705 -1.1174
 2794TIP3   OH229872   1.343   0.970  15.363 -0.2651 -0.8911 -0.1947
 2794TIP3    H129873   1.346   0.900  15.298  1.0668 -1.7856  0.7955
 2794TIP3    H229874   1.385   1.045  15.320  1.2273 -1.6763 -0.1720
 2795TIP3   OH229875   6.520   4.190  13.687 -0.8308  0.2344  0.5215
 2795TIP3    H129876   6.602   4.178  13.639 -1.0385  1.2633 -0.1298
 2795TIP3    H229877   6.453   4.195  13.618 -1.4410 -0.5187  1.0433
 2796TIP3   OH229878   4.208   3.514   2.104  1.2307  0.5716 -0.0379
 2796TIP3    H129879   4.210   3.609   2.114  0.0260  0.7782 -1.4910
 2796TIP3    H229880   4.145   3.498   2.034  1.2609 -1.3177  0.3077
 2797TIP3   OH229881   2.927   2.973   5.816  0.1960 -0.0176 -0.5447
 2797TIP3    H129882   3.016   3.002   5.798  0.0088  3.0744  2.5309
 2797TIP3    H229883   2.931   2.933   5.902 -1.5342  1.6617  0.4071
 2798TIP3   OH229884   3.699   0.396   4.516 -0.0942  0.2032  0.0364
 2798TIP3    H129885   3.655   0.459   4.573 -1.7416 -0.2228 -0.7218
 2798TIP3    H229886   3.708   0.442   4.432  3.2369  1.2092  0.8058
 2799TIP3   OH229887   2.687   0.325  12.912 -0.6135 -0.1398  0.0379
 2799TIP3    H129888   2.736   0.293  12.836 -1.0077 -1.6326  0.3937
 2799TIP3    H229889   2.651   0.408  12.883  0.1172 -0.1789 -1.0496
 2800TIP3   OH229890   3.045   0.616  12.796 -0.1483 -0.4650 -0.0635
 2800TIP3    H129891   3.017   0.690  12.741 -0.8445 -0.4028  0.3553
 2800TIP3    H229892   3.036   0.649  12.886 -0.6466 -1.1140  0.1316
 2801TIP3   OH229893   0.787   4.794  15.382  0.5829 -0.4033  0.2151
 2801TIP3    H129894   0.807   4.704  15.356 -1.4676 -0.8852  0.1727
 2801TIP3    H229895   0.713   4.787  15.441  1.7604  1.1280  1.9979
 2802TIP3   OH229896   3.812   0.813   0.957  0.2995  0.3393  0.6059
 2802TIP3    H129897   3.759   0.733   0.963  0.8880 -0.0844  0.3485
 2802TIP3    H229898   3.777   0.871   1.024 -1.8499  0.9099 -0.9199
 2803TIP3   OH229899   0.538   1.232  16.177 -0.8373  0.1107 -0.8719
 2803TIP3    H129900   0.581   1.293  16.116  1.2059 -0.5584 -0.1695
 2803TIP3    H229901   0.537   1.149  16.130 -1.3284  0.0853 -0.8307
 2804TIP3   OH229902   5.651   2.221   3.854 -0.0928 -0.0467 -0.4054
 2804TIP3    H129903   5.603   2.203   3.935 -3.1121 -0.1854 -2.1141
 2804TIP3    H229904   5.632   2.313   3.835  2.2980  0.6031  0.0222
 2805TIP3   OH229905   5.511   4.032   0.634 -0.5288  0.1145  0.1128
 2805TIP3    H129906   5.429   4.007   0.677  0.0738 -0.8955  0.7105
 2805TIP3    H229907   5.546   4.102   0.688 -0.2658 -0.4788  0.7308
 2806TIP3   OH229908   5.364   4.697   5.425  0.3932 -0.2025 -0.4976
 2806TIP3    H129909   5.369   4.603   5.439  0.2144  0.0460  1.6459
 2806TIP3    H229910   5.277   4.712   5.389 -0.8808 -0.6278  2.1624
 2807TIP3   OH229911   4.483   6.523   6.300  0.9227  0.7123 -0.0184
 2807TIP3    H129912   4.549   6.508   6.368 -0.9092 -1.0405  1.5258
 2807TIP3    H229913   4.409   6.562   6.347  0.2263  1.0666 -1.3551
 2808TIP3   OH229914   1.515   4.213   3.963 -0.2068 -0.2389 -0.2714
 2808TIP3    H129915   1.452   4.145   3.984  0.7033 -0.9788  0.1182
 2808TIP3    H229916   1.485   4.248   3.879 -0.5870 -1.2267 -0.5551
 2809TIP3   OH229917   4.905   3.203   3.037 -0.3383  0.2917 -0.2986
 2809TIP3    H129918   4.953   3.278   3.001  3.4129 -0.9727  1.4793
 2809TIP3    H229919   4.886   3.228   3.127  2.0976 -1.1295  0.7358
 2810TIP3   OH229920   5.220   5.720  15.660  0.5297  0.0206 -0.2009
 2810TIP3    H129921   5.176   5.802  15.682 -0.2244 -0.4113 -0.0590
 2810TIP3    H229922   5.297   5.718  15.718  1.0693  1.0466 -0.8398
 2811TIP3   OH229923   6.712   2.634  13.228  0.3288  0.9072  0.1979
 2811TIP3    H129924   6.768   2.606  13.301 -0.8541  0.9759  1.1583
 2811TIP3    H229925   6.677   2.718  13.256  1.2603  1.8160 -1.2505
 2812TIP3   OH229926   6.700   3.133  16.239  0.0677  0.7338  0.4089
 2812TIP3    H129927   6.668   3.171  16.320 -0.2764 -0.0147  0.6304
 2812TIP3    H229928   6.634   3.068  16.215  0.9739 -0.2014  0.4029
 2813TIP3   OH229929   1.697   5.014  14.639  0.1659 -0.6887 -0.2978
 2813TIP3    H129930   1.740   4.933  14.611 -1.4355 -2.2657  1.4440
 2813TIP3    H229931   1.667   5.055  14.559  1.6382 -1.4299 -1.2787
 2814TIP3   OH229932   6.188   3.031   1.162 -0.0543  0.5689 -0.2315
 2814TIP3    H129933   6.115   3.002   1.108  0.4296  0.5231 -0.8773
 2814TIP3    H229934   6.148   3.083   1.232 -0.7465  0.0660 -0.2472
 2815TIP3   OH229935   1.090   3.756  12.953  0.3158  0.1672 -0.3962
 2815TIP3    H129936   1.117   3.730  13.041  2.5429  0.5433 -0.9186
 2815TIP3    H229937   1.088   3.851  12.956 -0.4435  0.1586 -0.5336
 2816TIP3   OH229938   2.302   4.417  15.321 -0.6255  0.2462  0.0852
 2816TIP3    H129939   2.369   4.451  15.381 -1.4438  1.7899  0.1691
 2816TIP3    H229940   2.253   4.354  15.373  0.4754 -0.5801  0.1526
 2817TIP3   OH229941   6.020   1.861   0.958 -0.0352  0.3952  0.5155
 2817TIP3    H129942   5.985   1.887   1.043  1.0518 -0.6868  1.3433
 2817TIP3    H229943   6.032   1.943   0.911 -0.0981  1.0775  1.6422
 2818TIP3   OH229944   4.171   2.952  10.138 -0.2549 -0.2353 -0.5222
 2818TIP3    H129945   4.224   2.883  10.176 -1.7327 -0.9759  0.2881
 2818TIP3    H229946   4.234   3.012  10.098  1.4197  0.2815  2.5358
 2819TIP3   OH229947   0.324   4.878  15.022  0.3674  0.0468  0.0471
 2819TIP3    H129948   0.360   4.892  15.109  0.2013  1.9341 -0.1337
 2819TIP3    H229949   0.396   4.842  14.971  0.9873  0.5845  0.5303
 2820TIP3   OH229950   3.347   5.391   4.769  0.2246  0.1205  0.0662
 2820TIP3    H129951   3.314   5.365   4.684  0.2747  1.0160 -0.2403
 2820TIP3    H229952   3.424   5.445   4.750  2.1162 -2.1496  0.7585
 2821TIP3   OH229953   2.881   2.560  14.390  0.5520  0.1667 -0.0971
 2821TIP3    H129954   2.802   2.509  14.371  0.2805 -0.1774  1.8041
 2821TIP3    H229955   2.884   2.626  14.321 -1.4461  0.2450 -0.1650
 2822TIP3   OH229956   6.694   2.194   4.485 -0.0879 -0.1144 -0.2263
 2822TIP3    H129957   6.773   2.177   4.434 -0.7726 -0.3097 -1.2645
 2822TIP3    H229958   6.640   2.248   4.426 -0.4781  0.5097  0.6888
 2823TIP3   OH229959   4.291   3.144  11.305  0.6259  0.7631 -0.2652
 2823TIP3    H129960   4.231   3.194  11.361  0.5616  1.0368 -0.5738
 2823TIP3    H229961   4.245   3.137  11.222  0.3060 -0.4664 -0.0023
 2824TIP3   OH229962   1.389   0.128   0.634 -0.1794  0.5479  0.4423
 2824TIP3    H129963   1.340   0.100   0.711  2.8768 -0.8421  2.0711
 2824TIP3    H229964   1.387   0.224   0.638 -2.4203  0.5399  0.5800
 2825TIP3   OH229965   5.784   1.644   5.140  0.1100  0.2021 -0.6927
 2825TIP3    H129966   5.692   1.651   5.115 -0.0875 -2.7664 -1.1763
 2825TIP3    H229967   5.830   1.634   5.056  0.0728 -4.2918 -0.4082
 2826TIP3   OH229968   2.956   2.053  12.167 -0.2316  0.4146 -0.0059
 2826TIP3    H129969   2.895   2.110  12.214  0.2308  1.2303 -0.3590
 2826TIP3    H229970   2.974   2.100  12.086 -2.3562 -1.7399 -1.8758
 2827TIP3   OH229971   0.893   5.824   0.839 -0.0549 -0.2573  0.6654
 2827TIP3    H129972   0.957   5.789   0.778 -0.9198  0.6855 -0.8431
 2827TIP3    H229973   0.912   5.918   0.842 -0.5229 -0.1758  1.2459
 2828TIP3   OH229974   4.577   2.408  15.747 -0.0455 -0.2976  0.1792
 2828TIP3    H129975   4.492   2.382  15.712  0.8655 -2.3529 -0.6217
 2828TIP3    H229976   4.598   2.341  15.812  0.6646  0.5871  0.8887
 2829TIP3   OH229977   3.450   5.359   3.161 -0.1475 -0.0209 -0.1082
 2829TIP3    H129978   3.507   5.288   3.189 -0.5258 -0.5216 -0.5895
 2829TIP3    H229979   3.480   5.435   3.211  1.6686  0.0082 -1.1909
 2830TIP3   OH229980   2.349   1.256   6.271  0.3535  0.9473  0.3205
 2830TIP3    H129981   2.404   1.330   6.245 -0.7473  1.8030  0.3500
 2830TIP3    H229982   2.297   1.289   6.344 -0.8498  0.4481 -0.2925
 2831TIP3   OH229983   5.194   6.283  11.171 -0.7900  0.1455 -0.0420
 2831TIP3    H129984   5.282   6.304  11.202  0.0506 -0.4292 -1.9249
 2831TIP3    H229985   5.148   6.251  11.249  1.4192 -1.8889  0.5186
 2832TIP3   OH229986   1.949   4.480   4.362  0.2049 -0.1944 -0.5209
 2832TIP3    H129987   1.946   4.394   4.405  0.6848 -0.3145 -0.7248
 2832TIP3    H229988   1.918   4.541   4.429 -0.1635 -0.5272 -0.3820
 2833TIP3   OH229989   4.168   5.482  16.046  0.3289 -0.0135  0.5868
 2833TIP3    H129990   4.085   5.456  16.006 -0.2250 -1.1547  2.3724
 2833TIP3    H229991   4.214   5.400  16.061  2.0252  0.6364 -0.7848
 2834TIP3   OH229992   4.992   5.990  16.776 -0.0051 -0.6699 -0.7124
 2834TIP3    H129993   5.018   6.069  16.729 -0.3150 -0.0317  0.1775
 2834TIP3    H229994   4.970   5.927  16.707  3.5092 -1.1586 -1.5437
 2835TIP3   OH229995   0.823   3.860   5.918 -0.4347 -0.4591 -0.2401
 2835TIP3    H129996   0.847   3.893   6.004  2.5523  1.7756 -1.7558
 2835TIP3    H229997   0.839   3.766   5.923 -0.3235 -0.3811  1.5973
 2836TIP3   OH229998   5.002   4.671   5.629  0.0534  0.1820 -0.0529
 2836TIP3    H129999   5.000   4.754   5.581  0.2544  0.9216  1.1545
 2836TIP3    H230000   5.044   4.610   5.569 -0.2073  0.9186 -1.0203
 2837TIP3   OH230001   1.206   1.086   0.685  0.1842  0.1176 -0.0445
 2837TIP3    H130002   1.177   1.023   0.618 -2.1120 -0.2346  1.1771
 2837TIP3    H230003   1.239   1.032   0.756  0.6292  0.4157 -0.0217
 2838TIP3   OH230004   1.769   1.407   6.299  0.0822  0.4147  0.1149
 2838TIP3    H130005   1.701   1.435   6.238 -0.3656 -0.1587  0.3413
 2838TIP3    H230006   1.799   1.323   6.264 -1.7955 -1.0905  1.8975
 2839TIP3   OH230007   3.894   2.357   2.932  0.0496 -0.1845 -0.0161
 2839TIP3    H130008   3.819   2.349   2.873 -0.0788  0.9713 -0.0326
 2839TIP3    H230009   3.970   2.356   2.875  0.4168 -4.9004  0.1688
 2840TIP3   OH230010   2.600   4.192  13.735  0.0756 -0.0098  0.3108
 2840TIP3    H130011   2.646   4.231  13.809 -1.4985  0.0374  1.3195
 2840TIP3    H230012   2.649   4.112  13.715  2.2733  1.4896 -0.5999
 2841TIP3   OH230013   3.430   1.928  10.698 -0.0076  0.2198  0.6021
 2841TIP3    H130014   3.351   1.938  10.645  0.1345  1.2721  0.5692
 2841TIP3    H230015   3.492   1.992  10.661  1.1253 -1.0858  0.1535
 2842TIP3   OH230016   4.344   1.541   4.802  0.7115 -0.2022 -0.3662
 2842TIP3    H130017   4.263   1.581   4.835  0.8212  1.5560 -2.0609
 2842TIP3    H230018   4.373   1.485   4.874 -1.9612 -0.8542  0.3365
 2843TIP3   OH230019   3.566   3.926   4.572 -0.0791  0.4567 -0.3795
 2843TIP3    H130020   3.583   3.976   4.492  1.6908  0.9032  0.2211
 2843TIP3    H230021   3.649   3.929   4.620 -0.8368 -0.5440  1.0733
 2844TIP3   OH230022   5.885   3.558  15.292 -0.4712 -0.3833 -0.1491
 2844TIP3    H130023   5.895   3.476  15.245  0.8766  0.8570 -2.1832
 2844TIP3    H230024   5.859   3.621  15.225 -0.0509  1.1451  1.0568
 2845TIP3   OH230025   0.913   0.589   4.443  0.3203  1.1501  0.1948
 2845TIP3    H130026   0.837   0.565   4.392 -1.0740  2.4163  1.5715
 2845TIP3    H230027   0.982   0.605   4.378 -0.2843 -0.8287 -1.0299
 2846TIP3   OH230028   5.754   2.559   1.644 -0.1398 -0.3491  0.0981
 2846TIP3    H130029   5.790   2.572   1.556  0.5423  0.3899  0.4773
 2846TIP3    H230030   5.660   2.553   1.631  0.0682 -2.0925 -0.8989
 2847TIP3   OH230031   6.348   1.017  13.626  0.0989 -0.9603  0.4713
 2847TIP3    H130032   6.265   1.031  13.672  0.1616 -1.1877  0.6589
 2847TIP3    H230033   6.373   0.928  13.651  0.7449 -0.6455  0.9700
 2848TIP3   OH230034   2.208   5.511   2.260  0.6752 -0.0130  0.2675
 2848TIP3    H130035   2.130   5.536   2.309 -0.5596 -1.2784 -0.9749
 2848TIP3    H230036   2.198   5.417   2.246  0.4087  0.4201 -3.2655
 2849TIP3   OH230037   4.022   4.019  14.902 -0.4732  0.1873 -0.8476
 2849TIP3    H130038   4.044   4.001  14.993  0.3268 -0.3012 -1.1302
 2849TIP3    H230039   3.940   3.972  14.888 -2.8271  3.4375  0.7181
 2850TIP3   OH230040   1.598   4.619  13.986 -0.0685 -0.0309  0.5504
 2850TIP3    H130041   1.542   4.572  13.923 -0.4907 -1.3217  1.8424
 2850TIP3    H230042   1.536   4.662  14.045  0.3207  0.2347  0.7687
 2851TIP3   OH230043   4.436   6.007   5.215  0.7543  0.0104  0.2871
 2851TIP3    H130044   4.455   6.043   5.128  0.5111  2.4781  1.1617
 2851TIP3    H230045   4.510   5.949   5.233  1.9663  1.1637 -0.6840
 2852TIP3   OH230046   3.813   3.555  15.585 -0.0432  0.2061 -0.0838
 2852TIP3    H130047   3.850   3.592  15.666  0.5417 -1.1338  0.2962
 2852TIP3    H230048   3.761   3.481  15.615 -0.6191  0.2885 -0.8737
 2853TIP3   OH230049   6.354   3.090  15.387  0.4457 -0.3260 -0.2597
 2853TIP3    H130050   6.381   2.999  15.400 -2.1381 -0.9753  1.3524
 2853TIP3    H230051   6.385   3.135  15.466 -0.8650 -0.5495  0.4242
 2854TIP3   OH230052   3.613   5.061  14.565  0.0693  0.5061 -0.0219
 2854TIP3    H130053   3.671   5.138  14.571  2.1629 -0.9768  0.0187
 2854TIP3    H230054   3.660   4.992  14.612 -1.5720 -0.9234 -0.3710
 2855TIP3   OH230055   5.762   4.839   2.897  0.0384  0.0861  1.0841
 2855TIP3    H130056   5.720   4.921   2.869 -0.6314  0.2140  2.3973
 2855TIP3    H230057   5.695   4.793   2.946  0.6506 -0.9192  1.0059
 2856TIP3   OH230058   0.509   3.605   1.283 -0.2740  0.1361  0.3927
 2856TIP3    H130059   0.485   3.541   1.350  0.6589  1.0195  1.5962
 2856TIP3    H230060   0.596   3.635   1.308  0.2904  0.1764 -1.4677
 2857TIP3   OH230061   3.854   1.835  16.865  0.0268 -0.3106 -0.0531
 2857TIP3    H130062   3.787   1.854  16.799  0.9691  0.1986 -0.8989
 2857TIP3    H230063   3.898   1.756  16.833  0.8385  0.2434 -0.3288
 2858TIP3   OH230064   0.666   1.827   0.428 -0.2171  0.3355  0.9690
 2858TIP3    H130065   0.590   1.807   0.483  0.1958 -0.6447  1.1993
 2858TIP3    H230066   0.628   1.865   0.349 -0.8546  1.2485  1.6842
 2859TIP3   OH230067   1.607   5.019  16.889  0.1924  0.2211 -0.1347
 2859TIP3    H130068   1.693   5.031  16.849  0.9122 -0.4273  1.1291
 2859TIP3    H230069   1.553   5.089  16.853  0.9015 -0.0758 -1.8649
 2860TIP3   OH230070   5.799   0.826  16.713  0.7375  0.0002 -0.4034
 2860TIP3    H130071   5.776   0.841  16.622 -0.4553  0.3147 -0.0624
 2860TIP3    H230072   5.795   0.913  16.754 -0.1343 -0.3311  0.2461
 2861TIP3   OH230073   4.685   4.494   4.807  0.3727 -0.8331 -0.6973
 2861TIP3    H130074   4.744   4.440   4.860  0.2187  0.9283  1.3757
 2861TIP3    H230075   4.598   4.456   4.823  0.1792  0.3251  1.2657
 2862TIP3   OH230076   5.578   2.848  13.144 -0.4172  0.4099  0.0989
 2862TIP3    H130077   5.500   2.893  13.178 -0.1895  0.5675  0.4125
 2862TIP3    H230078   5.543   2.785  13.081 -0.8178  0.3105  0.4140
 2863TIP3   OH230079   1.949   3.974  13.485 -0.5996  0.3394 -0.0347
 2863TIP3    H130080   2.000   3.896  13.467 -2.6082 -0.9571 -0.4582
 2863TIP3    H230081   1.879   3.945  13.543 -0.9429  2.0125  0.4688
 2864TIP3   OH230082   1.929   2.806   0.955  0.1582  0.5321 -0.6423
 2864TIP3    H130083   1.852   2.816   1.010  0.6600 -0.0331  0.1931
 2864TIP3    H230084   1.964   2.894   0.945  0.6481  0.5342  0.8379
 2865TIP3   OH230085   5.184   4.719  11.144 -0.3139 -0.4019  0.3316
 2865TIP3    H130086   5.204   4.635  11.187  0.7214 -0.0678  0.5176
 2865TIP3    H230087   5.196   4.784  11.213 -1.2163 -0.0959  0.2131
 2866TIP3   OH230088   4.101   5.967  14.139 -0.8618  0.2680 -0.0522
 2866TIP3    H130089   4.131   5.974  14.048  0.8543  0.2685  0.4799
 2866TIP3    H230090   4.032   5.900  14.136 -1.3928  0.8300 -1.4634
 2867TIP3   OH230091   3.277   4.732   1.524  0.4556 -0.3651  0.1979
 2867TIP3    H130092   3.182   4.726   1.535  0.4486 -0.2781  0.1798
 2867TIP3    H230093   3.289   4.776   1.440  0.5006 -1.6660 -0.5031
 2868TIP3   OH230094   6.330   4.869   0.258  0.4895 -0.4372  0.0945
 2868TIP3    H130095   6.325   4.778   0.288  0.4730 -0.4409  0.0808
 2868TIP3    H230096   6.242   4.904   0.274  0.4955 -0.4243  0.0987
 2869TIP3   OH230097   1.557   1.656   4.955  0.5101 -0.4518 -0.1488
 2869TIP3    H130098   1.581   1.563   4.947  1.6559 -0.2577  0.8692
 2869TIP3    H230099   1.512   1.676   4.873 -1.1474 -2.3037  0.2171
 2870TIP3   OH230100   0.059   6.584   1.032 -0.1440 -0.0460 -0.2284
 2870TIP3    H130101   0.130   6.626   1.080  0.6366  0.0885 -1.4602
 2870TIP3    H230102  -0.020   6.612   1.078  0.5262  0.6262  0.5604
 2871TIP3   OH230103   1.676   3.540  10.533 -0.1119 -0.0086  0.2690
 2871TIP3    H130104   1.699   3.470  10.472 -0.1298  0.6176 -0.4683
 2871TIP3    H230105   1.594   3.511  10.573  0.7865 -1.2245  1.2809
 2872TIP3   OH230106   2.162   2.684  14.127 -0.3102  0.3589  0.0176
 2872TIP3    H130107   2.222   2.712  14.196 -0.9357  0.9446  0.3315
 2872TIP3    H230108   2.186   2.739  14.051 -0.3960  0.5368  0.1182
 2873TIP3   OH230109   4.087   0.883   1.018 -0.0572  0.0269 -0.0726
 2873TIP3    H130110   4.010   0.849   1.064  1.8712 -3.1220  1.1221
 2873TIP3    H230111   4.055   0.905   0.931 -2.3050 -1.2351  0.3577
 2874TIP3   OH230112   3.536   6.084   6.011 -0.1278  0.6268  0.3703
 2874TIP3    H130113   3.468   6.102   5.946 -0.3068 -0.4571  0.2313
 2874TIP3    H230114   3.537   6.161   6.067 -0.1785  1.4550 -0.7451
 2875TIP3   OH230115   2.822   2.079  11.797 -0.2478 -0.3842  0.4902
 2875TIP3    H130116   2.755   2.027  11.842  0.5174 -2.3044 -0.4751
 2875TIP3    H230117   2.792   2.081  11.706  0.8733 -1.0777  0.0961
 2876TIP3   OH230118   3.971   5.375   0.461  0.2263  0.2765 -0.2085
 2876TIP3    H130119   4.000   5.422   0.540  0.4368  0.9730 -0.6971
 2876TIP3    H230120   4.039   5.310   0.445 -0.1071 -0.2711  0.5175
 2877TIP3   OH230121   3.964   3.381  15.419 -0.5769  0.5318 -0.1796
 2877TIP3    H130122   3.915   3.450  15.465 -0.9233 -0.2370  0.6179
 2877TIP3    H230123   3.903   3.308  15.413  0.5062 -0.5066  0.9829
 2878TIP3   OH230124   6.036   1.255   4.254 -0.0934  0.0373 -0.1043
 2878TIP3    H130125   6.069   1.179   4.207 -0.7537 -0.4663  0.2283
 2878TIP3    H230126   6.112   1.287   4.303 -0.3512 -1.9111  1.7077
 2879TIP3   OH230127   6.561   4.716   1.515  0.1760  0.3245  0.1473
 2879TIP3    H130128   6.475   4.752   1.492  0.9621  1.1469 -1.7014
 2879TIP3    H230129   6.604   4.701   1.431  0.6965 -3.1437  0.8849
 2880TIP3   OH230130   5.269   2.651   3.000 -0.0623 -0.4249 -0.4134
 2880TIP3    H130131   5.192   2.686   2.955  0.4032  0.7355 -0.3273
 2880TIP3    H230132   5.325   2.619   2.929  0.0333  0.0978 -0.5816
 2881TIP3   OH230133   4.352   2.804   4.979  0.6323  0.2776 -0.2212
 2881TIP3    H130134   4.313   2.744   4.916 -0.1050  0.9353 -0.3963
 2881TIP3    H230135   4.394   2.871   4.926 -0.0548  0.8750 -0.0108
 2882TIP3   OH230136   3.680   1.703   0.686 -0.1967 -0.1247 -0.7682
 2882TIP3    H130137   3.643   1.645   0.753  1.8659 -2.1890 -1.2822
 2882TIP3    H230138   3.632   1.681   0.606  1.5082 -2.3315 -1.2901
 2883TIP3   OH230139   1.761   1.917   5.867  0.5590 -0.5287 -0.5381
 2883TIP3    H130140   1.728   1.934   5.956 -0.3512  2.1877 -1.2871
 2883TIP3    H230141   1.682   1.894   5.817  0.3415  1.9687 -1.4588
 2884TIP3   OH230142   5.900   6.172   5.709 -0.3814 -0.1667 -0.4991
 2884TIP3    H130143   5.849   6.136   5.781 -0.5131 -0.1965 -0.6060
 2884TIP3    H230144   5.988   6.183   5.745 -0.8063  1.3204  0.1497
 2885TIP3   OH230145   3.327   3.424   2.061 -0.1808 -0.2370 -0.2880
 2885TIP3    H130146   3.275   3.403   1.983  0.5179 -0.3753 -0.7223
 2885TIP3    H230147   3.393   3.355   2.066 -0.3573 -0.3526  0.5609
 2886TIP3   OH230148   6.497   0.108  13.619  0.3693 -0.8816  0.1285
 2886TIP3    H130149   6.530   0.160  13.692  0.7803  0.1894 -0.7819
 2886TIP3    H230150   6.513   0.017  13.645  2.5303 -0.4738  0.4631
 2887TIP3   OH230151   4.975   4.049  14.017 -0.0027 -0.3337  0.9812
 2887TIP3    H130152   5.014   4.024  14.101  0.4302  1.4253  1.3513
 2887TIP3    H230153   5.008   4.138  14.001  0.8262 -1.0315 -1.6222
 2888TIP3   OH230154   1.745   0.551   1.263  0.3313 -0.7542  0.3217
 2888TIP3    H130155   1.833   0.575   1.293  0.2378 -0.7701  0.6166
 2888TIP3    H230156   1.726   0.469   1.309  0.0614 -0.6180  0.4558
 2889TIP3   OH230157   2.108   6.724  16.612 -0.1919 -0.5626 -0.3712
 2889TIP3    H130158   2.129   6.711  16.519  1.3287 -1.0721  0.0234
 2889TIP3    H230159   2.190   6.708  16.658  0.3708  4.2052  0.7393
 2890TIP3   OH230160   2.327   0.490  13.961 -0.3401 -0.2489  0.3323
 2890TIP3    H130161   2.263   0.424  13.935  1.1989 -1.2559 -1.0639
 2890TIP3    H230162   2.364   0.522  13.879  0.9755  0.2901  1.0972
 2891TIP3   OH230163   4.883   5.549  16.796  0.1506  0.0045  0.1202
 2891TIP3    H130164   4.866   5.521  16.886 -0.8767 -0.6106 -0.2557
 2891TIP3    H230165   4.970   5.589  16.800  0.0860  0.0582  1.3984
 2892TIP3   OH230166   6.614   6.544   0.735  0.0317  0.3207  0.2025
 2892TIP3    H130167   6.653   6.458   0.721 -0.3615  0.1993 -0.1998
 2892TIP3    H230168   6.687   6.605   0.734  0.1103  0.2953 -2.2207
 2893TIP3   OH230169   0.221   4.603   2.475  0.5746 -0.3246  0.6215
 2893TIP3    H130170   0.168   4.524   2.468  0.1191  0.0053  0.3338
 2893TIP3    H230171   0.165   4.666   2.521  0.5468  0.1617 -0.0616
 2894TIP3   OH230172   2.447   4.016   1.420 -0.6886 -0.1251 -0.2486
 2894TIP3    H130173   2.502   3.984   1.491  0.2593  2.5765  0.3729
 2894TIP3    H230174   2.364   3.969   1.430  0.0179 -1.0744  1.5440
 2895TIP3   OH230175   5.890   3.880   4.614  0.0037  0.3637  0.7857
 2895TIP3    H130176   5.872   3.960   4.662 -0.6863  0.1497  0.8866
 2895TIP3    H230177   5.878   3.810   4.677 -1.7287  0.0229  0.1222
 2896TIP3   OH230178   2.881   4.738  11.345 -0.5329 -0.4258  0.6054
 2896TIP3    H130179   2.834   4.665  11.385  0.2775 -1.3967 -0.1383
 2896TIP3    H230180   2.860   4.814  11.399 -2.9936 -0.7829  0.2414
 2897TIP3   OH230181   2.395   3.235   3.276 -0.0717 -0.3616  0.2517
 2897TIP3    H130182   2.375   3.194   3.360  0.2680 -1.0006  0.0257
 2897TIP3    H230183   2.479   3.197   3.250 -0.1713 -0.1649 -0.3777
 2898TIP3   OH230184   6.635   4.487   1.888 -0.1652  0.0734  0.2440
 2898TIP3    H130185   6.699   4.469   1.819  0.8801  1.4321  0.7960
 2898TIP3    H230186   6.550   4.483   1.845  0.3526 -0.7539 -0.7369
 2899TIP3   OH230187   6.240   4.390  15.641  0.2764  0.1497  0.0758
 2899TIP3    H130188   6.192   4.347  15.570  1.0959  0.2111 -0.5281
 2899TIP3    H230189   6.216   4.339  15.719 -0.8590  0.2608 -0.1784
 2900TIP3   OH230190   5.848   3.325   6.397  0.2023  0.0781  0.0419
 2900TIP3    H130191   5.904   3.261   6.440  0.5585  0.0863 -0.4011
 2900TIP3    H230192   5.759   3.291   6.408  0.3492 -0.2476  0.2168
 2901TIP3   OH230193   5.555   2.508   2.601 -0.2500  0.0139 -0.2306
 2901TIP3    H130194   5.597   2.482   2.683  0.4834 -0.9828 -0.9007
 2901TIP3    H230195   5.615   2.478   2.533 -1.4452 -0.3152 -1.1765
 2902TIP3   OH230196   5.388   6.543   0.956 -0.0134  0.2908  0.4368
 2902TIP3    H130197   5.464   6.581   1.000 -0.7514  1.0845  1.0564
 2902TIP3    H230198   5.420   6.520   0.869  1.2077 -0.3789  1.0389
 2903TIP3   OH230199   4.994   5.844  11.976 -0.1444 -0.9288  0.3461
 2903TIP3    H130200   5.075   5.894  11.965 -0.5721  0.2511  2.2089
 2903TIP3    H230201   4.925   5.910  11.971 -1.0892 -1.9749 -1.6686
 2904TIP3   OH230202   3.804   1.108  14.326 -0.3077 -0.1301  0.2134
 2904TIP3    H130203   3.722   1.110  14.376 -0.5048 -0.9681 -0.0490
 2904TIP3    H230204   3.857   1.178  14.363 -0.7751 -0.1986  1.0391
 2905TIP3   OH230205   4.061   1.049   0.436 -0.2294 -0.3100 -0.0924
 2905TIP3    H130206   3.980   1.100   0.435  1.4494  2.6307 -1.9366
 2905TIP3    H230207   4.064   1.007   0.350  0.2975 -0.2316 -0.1156
 2906TIP3   OH230208   2.003   5.645   2.386 -0.1544 -0.4761 -0.1265
 2906TIP3    H130209   1.947   5.647   2.309 -1.5256  0.1066  0.8477
 2906TIP3    H230210   1.998   5.734   2.422  1.8117 -0.2471 -0.2709
 2907TIP3   OH230211   3.818   4.271   6.078 -0.4725 -0.8402 -0.0419
 2907TIP3    H130212   3.830   4.186   6.121 -0.6823 -1.0368 -0.3659
 2907TIP3    H230213   3.869   4.332   6.131 -1.8882 -0.7914  1.3400
 2908TIP3   OH230214   2.915   1.839  11.638 -0.0062 -0.0776  0.4999
 2908TIP3    H130215   2.865   1.783  11.699 -0.8940  2.7974  2.6442
 2908TIP3    H230216   2.878   1.926  11.651  2.9002  1.4812 -0.8988
 2909TIP3   OH230217   5.853   1.063  15.963  0.7753  0.3710 -0.0686
 2909TIP3    H130218   5.893   0.981  15.936  0.7002 -0.0990  1.1517
 2909TIP3    H230219   5.774   1.071  15.911  0.2539 -0.8565  0.5113
 2910TIP3   OH230220   2.785   4.080  16.363  0.2775  0.3821 -0.5152
 2910TIP3    H130221   2.769   4.174  16.364 -0.5658  0.2431  0.1109
 2910TIP3    H230222   2.700   4.041  16.378  0.4899 -0.5146 -1.5015
 2911TIP3   OH230223   0.150   3.253   5.016 -0.1996  0.0970  0.0021
 2911TIP3    H130224   0.210   3.304   4.961 -0.9067  0.7971 -0.1165
 2911TIP3    H230225   0.138   3.305   5.095 -0.4463 -0.1664  0.1414
 2912TIP3   OH230226   3.353   1.248  11.133  0.3843 -0.0575 -0.1415
 2912TIP3    H130227   3.260   1.243  11.114  0.3742 -1.6918  0.2161
 2912TIP3    H230228   3.361   1.320  11.195 -0.7209 -0.2520  0.2498
 2913TIP3   OH230229   2.587   5.065   1.594 -0.0793  0.0834  0.0698
 2913TIP3    H130230   2.558   5.096   1.680  0.1566  0.2373  0.0940
 2913TIP3    H230231   2.629   5.141   1.554  2.0736 -0.6477  0.8100
 2914TIP3   OH230232   1.135   4.407  15.252  0.7191  0.0504 -0.0196
 2914TIP3    H130233   1.092   4.405  15.338  3.0720  0.2190  1.2623
 2914TIP3    H230234   1.150   4.315  15.230 -1.2874 -0.0695 -1.0681
 2915TIP3   OH230235   5.646   3.245   3.366  0.0907  0.0893 -0.2845
 2915TIP3    H130236   5.741   3.248   3.354  0.0672  0.5477 -0.3930
 2915TIP3    H230237   5.622   3.154   3.351  0.6351 -0.2204  0.6602
 2916TIP3   OH230238   0.119   2.411  16.387  0.2593  0.3552 -0.1890
 2916TIP3    H130239   0.033   2.438  16.420 -0.2128 -0.2908 -0.8652
 2916TIP3    H230240   0.127   2.457  16.303  0.5813  0.4332 -0.1132
 2917TIP3   OH230241   5.792   6.346  16.166  0.3734 -0.0350 -0.8330
 2917TIP3    H130242   5.833   6.416  16.115  1.0827  0.6377  0.5780
 2917TIP3    H230243   5.858   6.277  16.168  1.1025  0.6508  0.6038
 2918TIP3   OH230244   3.726   1.393   4.253 -0.2120 -0.2354  0.5343
 2918TIP3    H130245   3.711   1.488   4.253  1.7596  0.1406 -0.6172
 2918TIP3    H230246   3.807   1.382   4.304  0.9700 -0.9561 -1.3722
 2919TIP3   OH230247   3.133   6.165  12.116 -0.0961 -0.1724  0.1417
 2919TIP3    H130248   3.156   6.085  12.069 -0.6015  0.2230 -0.8198
 2919TIP3    H230249   3.208   6.223  12.105  0.2476 -0.4848  0.7929
 2920TIP3   OH230250   6.586   1.534  11.041  0.0249  0.0040  0.6381
 2920TIP3    H130251   6.631   1.614  11.070  4.9693 -2.0374 -0.2740
 2920TIP3    H230252   6.579   1.543  10.946 -0.5794 -0.1196  0.6693
 2921TIP3   OH230253   5.846   1.782  10.867 -0.1631 -0.0131 -0.1878
 2921TIP3    H130254   5.921   1.755  10.920 -0.2882 -1.2121 -0.6101
 2921TIP3    H230255   5.810   1.701  10.831 -1.5603  0.5510 -0.1444
 2922TIP3   OH230256   3.245   3.331  16.012 -0.6587 -0.2324  0.3832
 2922TIP3    H130257   3.282   3.299  16.094 -0.5279 -1.5616 -0.1668
 2922TIP3    H230258   3.161   3.285  16.003 -0.2696 -0.7889 -0.6330
 2923TIP3   OH230259   6.543   4.102  11.959 -0.3570  0.7258  0.2496
 2923TIP3    H130260   6.547   4.068  11.870  1.1460 -1.8767  1.1922
 2923TIP3    H230261   6.632   4.133  11.977 -0.9450  2.3841  0.4917
 2924TIP3   OH230262   4.113   0.704  14.954  0.3890  0.7052  0.0435
 2924TIP3    H130263   4.171   0.657  15.013 -0.2648  0.0927  0.2262
 2924TIP3    H230264   4.163   0.779  14.924  2.0666 -0.8915 -1.4410
 2925TIP3   OH230265   2.066   0.843   2.964  0.1008  0.4588 -0.1122
 2925TIP3    H130266   2.120   0.766   2.949 -0.5891 -0.3735  1.5159
 2925TIP3    H230267   2.117   0.898   3.023 -0.1743  0.3950  0.1881
 2926TIP3   OH230268   2.061   0.841   4.707  0.2220 -0.3790  0.0656
 2926TIP3    H130269   2.015   0.757   4.710 -0.8589  0.1444 -1.0515
 2926TIP3    H230270   2.078   0.856   4.614  0.4639  0.5999  0.2508
 2927TIP3   OH230271   6.471   0.592   5.874  0.5836 -0.1873  0.1958
 2927TIP3    H130272   6.423   0.533   5.816  1.6751 -0.0743 -0.8744
 2927TIP3    H230273   6.530   0.535   5.924 -0.5731 -0.3214  1.4788
 2928TIP3   OH230274   5.921   3.375  15.738 -0.3768  0.0019  0.4388
 2928TIP3    H130275   5.834   3.363  15.700  0.9024 -1.7067 -2.1786
 2928TIP3    H230276   5.947   3.288  15.767  0.0655  0.6945  2.2907
 2929TIP3   OH230277   2.822   4.710   4.522  0.0183 -0.0541 -0.2658
 2929TIP3    H130278   2.888   4.735   4.456 -1.6114  0.4953 -1.7890
 2929TIP3    H230279   2.776   4.636   4.483 -1.0596  0.3556  0.1881
 2930TIP3   OH230280   4.569   1.287   4.613 -0.3918  0.0515  0.0773
 2930TIP3    H130281   4.575   1.318   4.703  0.2463  0.2528 -0.0328
 2930TIP3    H230282   4.610   1.201   4.614  1.3205  0.8210 -0.3793
 2931TIP3   OH230283   0.398   3.848  16.992  0.2983  0.3934 -0.1022
 2931TIP3    H130284   0.442   3.794  16.927  0.4971  2.0579 -1.4175
 2931TIP3    H230285   0.317   3.801  17.012 -0.5864  0.6079 -2.8334
 2932TIP3   OH230286   1.694   2.008   3.196 -0.5565  0.6780  0.3695
 2932TIP3    H130287   1.612   2.009   3.147 -0.3752  0.4129  0.0567
 2932TIP3    H230288   1.743   1.935   3.159 -0.7796 -0.1094  1.5355
 2933TIP3   OH230289   6.674   3.727  11.443 -0.1787 -0.2797  0.3174
 2933TIP3    H130290   6.757   3.761  11.408 -0.9421  0.0380 -1.2945
 2933TIP3    H230291   6.697   3.644  11.484  0.7749 -0.7303 -1.0779
 2934TIP3   OH230292   3.652   6.123  12.129 -0.1798  0.1981 -0.5144
 2934TIP3    H130293   3.660   6.050  12.190  1.1407  0.4223 -0.3870
 2934TIP3    H230294   3.708   6.192  12.166  0.5768  0.3799 -1.8988
 2935TIP3   OH230295   2.296   4.491   5.248 -0.0240  0.2042  0.3130
 2935TIP3    H130296   2.313   4.479   5.155  0.5138 -0.1346  0.4532
 2935TIP3    H230297   2.374   4.534   5.282 -1.6070  3.6742 -0.0478
 2936TIP3   OH230298   5.043   5.985  14.843 -0.5848 -0.0742 -0.3209
 2936TIP3    H130299   4.973   6.037  14.805 -0.4201 -0.1633 -0.7673
 2936TIP3    H230300   5.059   5.916  14.778  0.6666  0.5953 -0.7627
 2937TIP3   OH230301   2.899   0.637   1.624 -0.3931  0.6863  0.4405
 2937TIP3    H130302   2.980   0.687   1.623  0.0512 -0.0116 -0.5109
 2937TIP3    H230303   2.831   0.699   1.598  0.1259  0.8279 -0.6072
 2938TIP3   OH230304   5.085   2.418  15.868  0.0372  0.2529 -0.4897
 2938TIP3    H130305   5.106   2.399  15.960 -0.6550  1.0045 -0.1616
 2938TIP3    H230306   4.993   2.443  15.869 -0.2819 -0.7718 -1.5650
 2939TIP3   OH230307   1.976   1.124  12.971  0.3419  0.2424  0.0131
 2939TIP3    H130308   1.923   1.059  12.926 -0.0713 -0.0723  0.9423
 2939TIP3    H230309   1.925   1.205  12.964 -0.3296 -0.0805  0.9934
 2940TIP3   OH230310   6.441   1.022   0.383 -0.3756  0.7090 -0.4227
 2940TIP3    H130311   6.495   1.096   0.357 -0.3121  1.0132  0.5389
 2940TIP3    H230312   6.389   1.055   0.457 -1.0912  0.1052 -0.6422
 2941TIP3   OH230313   3.178   0.114  16.525 -0.3967 -0.3990  0.6575
 2941TIP3    H130314   3.093   0.148  16.552 -0.6236 -1.5325  1.4506
 2941TIP3    H230315   3.214   0.074  16.604  1.3372  0.9484  0.6060
 2942TIP3   OH230316   0.942   0.460  15.601 -0.0470  0.2017 -0.2785
 2942TIP3    H130317   1.021   0.431  15.556  0.3334  0.6569  0.0816
 2942TIP3    H230318   0.960   0.444  15.694  0.1671  1.5040 -0.0638
 2943TIP3   OH230319   3.649   4.141  12.121 -0.1598 -0.8805 -0.0981
 2943TIP3    H130320   3.569   4.093  12.145 -1.8391  1.6560 -0.0975
 2943TIP3    H230321   3.698   4.148  12.203 -0.8061 -1.0017  0.3073
 2944TIP3   OH230322   5.760   5.035  12.253  0.3357 -0.7246 -0.1213
 2944TIP3    H130323   5.763   5.128  12.274 -1.6968 -0.5799 -0.2259
 2944TIP3    H230324   5.850   5.004  12.266  0.7074  0.8920  1.5505
 2945TIP3   OH230325   3.106   0.956  16.092 -0.0565  0.5747  0.0665
 2945TIP3    H130326   3.082   0.875  16.136  2.4946 -0.8982 -1.0718
 2945TIP3    H230327   3.023   0.993  16.062 -1.3582 -1.0462  1.4775
 2946TIP3   OH230328   4.219   4.827  12.936 -0.3359 -0.0739  0.8019
 2946TIP3    H130329   4.252   4.914  12.959  1.5944 -0.9563  1.5927
 2946TIP3    H230330   4.191   4.789  13.020 -2.2634  0.1572  0.3166
 2947TIP3   OH230331   2.087   4.990  12.167  0.4073 -0.2487  0.1479
 2947TIP3    H130332   2.012   4.936  12.193  0.6743  0.1773  1.8981
 2947TIP3    H230333   2.127   4.941  12.095 -2.3241  0.1990 -1.8358
 2948TIP3   OH230334   1.806   3.161  11.426  0.7116  0.0065  0.1874
 2948TIP3    H130335   1.789   3.067  11.433  0.2970  0.1546  1.2597
 2948TIP3    H230336   1.766   3.199  11.504  4.6383  0.5768  2.1582
 2949TIP3   OH230337   3.981   3.909  15.157 -0.6431 -0.5908 -0.1938
 2949TIP3    H130338   3.901   3.937  15.112  0.0680 -1.4458 -2.1001
 2949TIP3    H230339   3.963   3.819  15.184 -1.3721  0.1712  2.1196
 2950TIP3   OH230340   1.617   6.505   2.907  0.3902  0.1335 -0.2649
 2950TIP3    H130341   1.677   6.457   2.964  1.5281  0.7757 -0.8988
 2950TIP3    H230342   1.569   6.436   2.860  0.6020 -0.3864  0.2614
 2951TIP3   OH230343   2.779   6.758   3.084  0.1157 -0.2896  0.1900
 2951TIP3    H130344   2.811   6.845   3.108 -2.0773  0.3870  0.9391
 2951TIP3    H230345   2.715   6.774   3.015 -2.4201 -0.8702  2.2233
 2952TIP3   OH230346   4.217   4.625   0.893  0.0183 -0.7176 -0.4341
 2952TIP3    H130347   4.124   4.605   0.907 -0.4910 -0.0313 -2.4792
 2952TIP3    H230348   4.222   4.720   0.892  0.9976 -0.7307  0.9562
 2953TIP3   OH230349   4.599   5.194   2.579  0.3369 -0.2140 -0.1308
 2953TIP3    H130350   4.563   5.113   2.613  0.7011 -0.1604  0.3997
 2953TIP3    H230351   4.673   5.167   2.525  1.1231 -0.2026  0.8933
 2954TIP3   OH230352   3.099   6.551  14.853 -0.3015  0.1503  0.4130
 2954TIP3    H130353   3.044   6.608  14.800  0.1143  0.5824  0.4372
 2954TIP3    H230354   3.040   6.482  14.884 -0.7118  0.3204  0.0216
 2955TIP3   OH230355   2.476   2.496   5.168  0.1318  0.5885 -0.8458
 2955TIP3    H130356   2.451   2.583   5.198 -0.2410  0.5075 -0.9204
 2955TIP3    H230357   2.485   2.444   5.248 -3.7042 -0.4215 -0.8995
 2956TIP3   OH230358   2.737   6.722  12.951  0.1405  0.2093 -0.2737
 2956TIP3    H130359   2.670   6.773  12.996 -0.1758 -1.8399  1.7923
 2956TIP3    H230360   2.818   6.742  12.998  0.0568 -0.9220  0.3879
 2957TIP3   OH230361   5.128   1.750  16.560 -0.3898  0.1946 -1.0777
 2957TIP3    H130362   5.204   1.805  16.577 -1.1454  1.0641 -0.3716
 2957TIP3    H230363   5.088   1.789  16.482 -1.0366  0.8027 -0.4620
 2958TIP3   OH230364   6.770   5.118  13.948  0.1991  0.2647 -0.3455
 2958TIP3    H130365   6.770   5.106  14.043  2.4698 -0.2099 -0.3464
 2958TIP3    H230366   6.847   5.172  13.931  1.1771 -1.5265 -2.0691
 2959TIP3   OH230367   4.457   5.913   2.757 -0.1126 -0.0455  0.7132
 2959TIP3    H130368   4.490   5.975   2.693 -0.3456 -1.1564 -0.5296
 2959TIP3    H230369   4.474   5.954   2.842 -0.4655  1.7896 -0.0632
 2960TIP3   OH230370   3.921   5.146   2.870  0.1777 -0.5632  0.0594
 2960TIP3    H130371   3.829   5.161   2.888  0.6776  2.0794  0.8013
 2960TIP3    H230372   3.961   5.134   2.956  0.6099 -1.2586 -0.2245
 2961TIP3   OH230373   6.646   6.184  15.350 -0.2164  0.7031 -0.8646
 2961TIP3    H130374   6.687   6.269  15.362 -1.6396  1.0749  2.2717
 2961TIP3    H230375   6.555   6.205  15.327 -0.5540  0.0502 -0.1578
 2962TIP3   OH230376   2.454   4.265   1.835  0.5761  0.4593  0.2247
 2962TIP3    H130377   2.389   4.262   1.766  0.0050  1.0308  0.7256
 2962TIP3    H230378   2.427   4.197   1.897 -1.4751  2.7931  2.0766
 2963TIP3   OH230379   0.717   4.262  13.742 -0.1501  0.4600  0.7464
 2963TIP3    H130380   0.635   4.304  13.768  0.2989  2.1612 -0.4092
 2963TIP3    H230381   0.689   4.186  13.690 -1.0178  1.2504  0.0108
 2964TIP3   OH230382   4.686   0.169   1.924  0.7621  0.0079  0.0513
 2964TIP3    H130383   4.742   0.202   1.854 -0.6018  0.8676 -0.6847
 2964TIP3    H230384   4.713   0.078   1.935  2.0346  0.2908 -0.5258
 2965TIP3   OH230385   5.495   5.880   4.902 -0.1165 -0.6239 -0.4301
 2965TIP3    H130386   5.438   5.951   4.932  2.3232  2.2368 -1.9505
 2965TIP3    H230387   5.465   5.862   4.812  0.1728 -0.4706 -0.5576
 2966TIP3   OH230388   1.322   4.603  14.927  0.1204  0.4315  0.2834
 2966TIP3    H130389   1.396   4.655  14.896  0.4460  1.2587  2.2669
 2966TIP3    H230390   1.341   4.590  15.020 -0.4928 -2.3536  0.1000
 2967TIP3   OH230391   0.841   5.454  15.734 -0.4429  0.1488  0.8101
 2967TIP3    H130392   0.920   5.498  15.768  1.4621 -1.3637 -1.3662
 2967TIP3    H230393   0.812   5.508  15.662  0.9894 -1.1938 -0.8721
 2968TIP3   OH230394   0.237   1.818  14.977  0.1299  0.2563 -0.2877
 2968TIP3    H130395   0.274   1.862  14.901 -0.2124 -1.0684 -1.2485
 2968TIP3    H230396   0.162   1.872  15.002  1.0579  1.4538 -0.0033
 2969TIP3   OH230397   0.212   5.997   3.652 -0.6111 -0.3040  0.2419
 2969TIP3    H130398   0.203   5.907   3.684  0.4314 -1.4502 -2.3846
 2969TIP3    H230399   0.305   6.005   3.629 -0.8218  1.2264 -0.1857
 2970TIP3   OH230400   4.050   3.473  10.771  0.3579 -0.0858 -0.2827
 2970TIP3    H130401   4.091   3.556  10.744  3.2985 -0.8533  1.4195
 2970TIP3    H230402   3.991   3.498  10.842  0.7603  0.6296 -0.1906
 2971TIP3   OH230403   5.519   6.469  12.044  0.1534  0.2713 -0.0464
 2971TIP3    H130404   5.512   6.398  11.980  3.4876 -1.1862  0.9942
 2971TIP3    H230405   5.480   6.433  12.124  0.3739  0.2350  0.0442
 2972TIP3   OH230406   0.121   4.719   1.998 -0.0291  0.3470 -0.2669
 2972TIP3    H130407   0.186   4.650   2.012 -0.7392 -0.2422  0.2395
 2972TIP3    H230408   0.048   4.696   2.056 -0.5254  1.2095 -0.5203
 2973TIP3   OH230409   4.304   4.907  13.650  0.5570 -0.1827 -0.0094
 2973TIP3    H130410   4.315   4.938  13.560  0.2033  3.4554  1.0209
 2973TIP3    H230411   4.217   4.868  13.652 -0.7792  2.5321 -0.6789
 2974TIP3   OH230412   1.987   3.702   0.103 -0.3453  0.0193  0.0766
 2974TIP3    H130413   1.945   3.619   0.123 -0.6581 -0.0102 -0.6543
 2974TIP3    H230414   2.066   3.703   0.157 -1.1617 -0.0238  1.2910
 2975TIP3   OH230415   4.067   0.424   1.163  0.3182 -0.5500  0.9780
 2975TIP3    H130416   4.086   0.357   1.098  0.2409  0.2200  0.1487
 2975TIP3    H230417   3.985   0.463   1.134  1.4240  1.3573  0.2157
 2976TIP3   OH230418   2.157   6.134  11.441  0.1104  0.2110 -0.0673
 2976TIP3    H130419   2.133   6.048  11.405  0.5851 -0.0706  0.2775
 2976TIP3    H230420   2.155   6.193  11.366 -0.8505  0.0346 -0.1975
 2977TIP3   OH230421   0.792   6.153   1.470  0.1317 -0.4675 -0.7636
 2977TIP3    H130422   0.706   6.117   1.490 -0.3040 -1.1286 -3.4197
 2977TIP3    H230423   0.848   6.077   1.456  0.7456 -0.0536 -0.6322
 2978TIP3   OH230424   1.908   5.857  13.868  0.0224 -0.7452  0.0418
 2978TIP3    H130425   1.911   5.904  13.785 -1.3246 -1.6517 -0.5424
 2978TIP3    H230426   1.822   5.879  13.905 -0.4216 -2.3041 -0.0001
 2979TIP3   OH230427   2.229   1.097   5.844 -0.0192  1.0165 -0.2602
 2979TIP3    H130428   2.224   1.187   5.811  0.3982  1.1140 -0.0577
 2979TIP3    H230429   2.292   1.054   5.787  0.4417  1.0914  0.1813
 2980TIP3   OH230430   6.321   6.376  13.084 -0.0085 -0.0481 -0.5031
 2980TIP3    H130431   6.289   6.456  13.042  0.2472 -0.3649 -1.3327
 2980TIP3    H230432   6.241   6.329  13.109 -0.1600  0.9449  0.9717
 2981TIP3   OH230433   2.633   1.830  15.334 -0.5613  0.1781  0.0691
 2981TIP3    H130434   2.575   1.903  15.313 -0.1864  0.3615 -0.3456
 2981TIP3    H230435   2.710   1.844  15.279 -1.2429 -1.5367 -1.4086
 2982TIP3   OH230436   2.968   3.904  13.225  0.3368  0.2351 -0.5267
 2982TIP3    H130437   3.036   3.905  13.292 -1.2238  1.4936  1.1467
 2982TIP3    H230438   3.009   3.944  13.148  1.8109 -0.1366  0.0351
 2983TIP3   OH230439   6.417   4.802  11.082 -0.3025  0.0457  0.0425
 2983TIP3    H130440   6.475   4.858  11.134 -0.2228 -0.6743  0.7678
 2983TIP3    H230441   6.329   4.821  11.113 -0.3325  0.2267 -0.1575
 2984TIP3   OH230442   1.425   1.558  14.509 -0.3633  0.3671  0.3943
 2984TIP3    H130443   1.404   1.632  14.566 -3.0833  0.4708 -0.6132
 2984TIP3    H230444   1.367   1.488  14.538 -1.3243  0.2078 -1.7085
 2985TIP3   OH230445   3.269   4.614   1.046  0.1054  0.1983  0.3231
 2985TIP3    H130446   3.325   4.536   1.050  0.9441  0.5678 -2.3122
 2985TIP3    H230447   3.181   4.580   1.060  0.5643 -1.0594  0.2858
 2986TIP3   OH230448   2.476   3.801  16.689  0.0362 -0.5431  0.2750
 2986TIP3    H130449   2.464   3.741  16.762  1.3591 -0.7615  0.3387
 2986TIP3    H230450   2.571   3.803  16.675 -0.1674 -0.3271 -1.2767
 2987TIP3   OH230451   3.003   0.526   0.625  0.1149 -0.1811  0.4027
 2987TIP3    H130452   2.990   0.445   0.576  0.8851  0.4765 -0.9479
 2987TIP3    H230453   2.995   0.595   0.559  2.0451  0.6919  1.0235
 2988TIP3   OH230454   1.823   2.062   2.381  0.0184  0.4339 -0.6637
 2988TIP3    H130455   1.832   2.081   2.475 -3.0405 -1.2092  0.1047
 2988TIP3    H230456   1.909   2.083   2.344  0.4418  4.1005  1.8989
 2989TIP3   OH230457   5.298   1.673   0.310  0.6610 -0.0667  0.3764
 2989TIP3    H130458   5.259   1.625   0.236 -4.3409  2.3875  0.9843
 2989TIP3    H230459   5.315   1.606   0.376  1.0205 -1.7901 -1.3761
 2990TIP3   OH230460   0.187   2.502   6.024  0.5070 -0.7214  0.0595
 2990TIP3    H130461   0.244   2.511   6.101  0.8581 -0.6285 -0.2077
 2990TIP3    H230462   0.117   2.565   6.039  0.1679 -1.2320  0.6594
 2991TIP3   OH230463   1.544   0.974  10.771 -0.2452  0.4069  0.2161
 2991TIP3    H130464   1.454   0.984  10.739 -0.0220 -0.6648 -0.8039
 2991TIP3    H230465   1.536   0.983  10.866 -0.7120  5.1209 -0.0450
 2992TIP3   OH230466   2.931   4.999  13.797  0.6415 -0.0188  0.6417
 2992TIP3    H130467   2.865   5.054  13.838  0.4036 -0.0027  0.2357
 2992TIP3    H230468   2.972   4.953  13.871 -0.1384 -0.3858  0.8631
 2993TIP3   OH230469   2.313   4.395  12.706 -0.5275 -0.2134  0.5036
 2993TIP3    H130470   2.293   4.374  12.797 -1.0929  0.7160  0.6130
 2993TIP3    H230471   2.331   4.489  12.707 -1.7110  0.0529 -0.5244
 2994TIP3   OH230472   4.476   5.476   1.994  0.5532  0.3035 -0.7073
 2994TIP3    H130473   4.561   5.433   1.982  0.5757  0.0259  0.3736
 2994TIP3    H230474   4.447   5.449   2.081 -0.9919 -0.1798 -1.3402
 2995TIP3   OH230475   4.702   5.099  14.479  0.7529  0.2563 -0.5276
 2995TIP3    H130476   4.783   5.150  14.479  0.4108  0.9042 -2.6864
 2995TIP3    H230477   4.730   5.011  14.504  2.0987  0.5097 -1.0259
 2996TIP3   OH230478   0.382   0.259  15.075  0.0855 -0.1452 -0.1616
 2996TIP3    H130479   0.437   0.211  15.136  1.0200  1.5892  0.4059
 2996TIP3    H230480   0.300   0.209  15.073  1.2107 -2.0956 -0.1022
 2997TIP3   OH230481   5.862   1.277  11.591  0.4897 -0.3639  0.2218
 2997TIP3    H130482   5.849   1.316  11.504 -1.9297 -1.6316 -0.0617
 2997TIP3    H230483   5.948   1.309  11.619  0.7159  1.2135 -2.0237
 2998TIP3   OH230484   0.415   5.035   6.587  0.4174 -0.0796  0.3623
 2998TIP3    H130485   0.420   5.129   6.602  1.7055  0.2334 -1.6083
 2998TIP3    H230486   0.354   5.025   6.515 -0.9051 -0.9364  1.5554
 2999TIP3   OH230487   4.922   2.593  11.161  0.2889 -0.0119  0.0401
 2999TIP3    H130488   4.864   2.583  11.236  1.3043 -0.4931  0.7891
 2999TIP3    H230489   4.935   2.503  11.128 -0.0607  0.1827 -0.6455
 3000TIP3   OH230490   3.510   1.919  12.127 -0.7236  0.6430 -0.1713
 3000TIP3    H130491   3.430   1.958  12.090 -0.3038  1.4735 -0.2269
 3000TIP3    H230492   3.581   1.969  12.088 -0.1445 -0.3723 -0.4526
 3001TIP3   OH230493   2.925   5.193  13.289  0.1017 -0.0500  0.3189
 3001TIP3    H130494   2.867   5.263  13.257  0.9117  0.6705  0.3834
 3001TIP3    H230495   2.933   5.210  13.383  1.4004  0.6247  0.1096
 3002TIP3   OH230496   4.539   4.385  13.932  0.0824  0.1161  0.4571
 3002TIP3    H130497   4.630   4.369  13.958  0.0040  1.0850  1.3751
 3002TIP3    H230498   4.490   4.312  13.970  0.2645  0.4395  1.3455
 3003TIP3   OH230499   3.526   3.361   4.498  0.1371 -0.1960 -0.2094
 3003TIP3    H130500   3.482   3.354   4.582 -0.9591  1.7087 -0.5708
 3003TIP3    H230501   3.601   3.418   4.515 -0.1036  0.2175 -0.5167
 3004TIP3   OH230502   6.704   3.564  14.991 -0.2971  0.1906  0.3801
 3004TIP3    H130503   6.618   3.579  14.951 -0.1874 -1.0982 -0.3849
 3004TIP3    H230504   6.707   3.624  15.065 -2.1671 -0.2894  0.8885
 3005TIP3   OH230505   5.507   2.670  10.869 -0.0617 -0.4360  0.3352
 3005TIP3    H130506   5.523   2.648  10.777  0.1339 -0.2427  0.3233
 3005TIP3    H230507   5.456   2.596  10.903 -0.3253 -0.4031  0.0129
 3006TIP3   OH230508   0.005   4.608   0.485 -0.5241  0.3864  0.4745
 3006TIP3    H130509  -0.056   4.632   0.554  0.8300 -0.3038  1.9754
 3006TIP3    H230510   0.090   4.640   0.515  0.0956  0.1316 -0.9074
 3007TIP3   OH230511   3.464   6.509  15.731 -0.0539  0.4463  0.2607
 3007TIP3    H130512   3.509   6.427  15.708 -0.4988 -0.4094  2.2351
 3007TIP3    H230513   3.498   6.530  15.818 -1.2017  1.4614  0.4746
 3008TIP3   OH230514   3.292   5.994   0.304  0.5331  0.7295 -0.2651
 3008TIP3    H130515   3.316   5.909   0.339  0.0737 -0.1499 -1.9671
 3008TIP3    H230516   3.223   6.027   0.362 -0.0103 -0.5382 -0.1743
 3009TIP3   OH230517   1.904   0.393   2.356 -0.2931  0.7785  0.4969
 3009TIP3    H130518   1.951   0.352   2.429  1.1647  0.1652 -0.7245
 3009TIP3    H230519   1.939   0.482   2.352  1.2424  0.1631 -0.7401
 3010TIP3   OH230520   2.190   2.153   4.108  0.0611 -0.1607  0.2512
 3010TIP3    H130521   2.250   2.195   4.170  0.5926 -1.8076  0.9110
 3010TIP3    H230522   2.105   2.154   4.152  0.3448 -0.9242  0.8403
 3011TIP3   OH230523   5.781   3.461  16.928 -0.2565  0.4559 -0.0613
 3011TIP3    H130524   5.759   3.437  16.838 -1.5098  0.5168  0.2014
 3011TIP3    H230525   5.814   3.551  16.922  2.4850 -0.5228 -0.7975
 3012TIP3   OH230526   1.255   2.218  15.700  0.9982  0.6773 -0.3243
 3012TIP3    H130527   1.232   2.206  15.608  0.2123 -0.2450 -0.0245
 3012TIP3    H230528   1.200   2.291  15.729 -0.0619 -0.1858 -0.1386
 3013TIP3   OH230529   3.338   5.263  13.339 -0.4938 -0.4796  0.7672
 3013TIP3    H130530   3.266   5.281  13.278  0.4493  4.1982  0.6497
 3013TIP3    H230531   3.399   5.209  13.288 -0.2843  2.2858 -2.2547
 3014TIP3   OH230532   2.068   1.739   0.857 -0.1705 -0.2753  0.3926
 3014TIP3    H130533   2.039   1.764   0.769 -1.5279  1.8075  1.3719
 3014TIP3    H230534   2.008   1.783   0.916  1.6598 -0.3312  2.4337
 3015TIP3   OH230535   1.740   1.341  10.632  0.0449 -0.4910 -0.9475
 3015TIP3    H130536   1.745   1.245  10.633  2.7703 -0.4476  0.4260
 3015TIP3    H230537   1.828   1.368  10.604  0.2977  1.5696  1.5163
 3016TIP3   OH230538   4.595   3.697   3.663 -0.5715  0.1759  0.2821
 3016TIP3    H130539   4.576   3.650   3.582 -3.4536  0.0048  0.9628
 3016TIP3    H230540   4.629   3.630   3.723 -0.1263 -0.0467 -0.2109
 3017TIP3   OH230541   5.187   1.853  12.854 -0.5609 -0.0745  0.4986
 3017TIP3    H130542   5.158   1.791  12.788 -0.1560  1.6124 -1.3751
 3017TIP3    H230543   5.116   1.917  12.860  0.2544  0.8974  0.1716
 3018TIP3   OH230544   1.988   3.865   2.330  0.3262  0.0893  0.5577
 3018TIP3    H130545   2.019   3.945   2.373 -0.2299 -0.8046  2.7832
 3018TIP3    H230546   1.936   3.895   2.256  0.8802  1.7460  0.8079
 3019TIP3   OH230547   5.709   1.678  17.017 -0.2108  0.0900 -0.0487
 3019TIP3    H130548   5.632   1.624  17.005 -0.3571 -0.0716  1.4935
 3019TIP3    H230549   5.679   1.753  17.069  0.4020  0.6749 -0.5075
 3020TIP3   OH230550   1.733   2.827  14.642  0.3262  0.1257  0.7935
 3020TIP3    H130551   1.649   2.847  14.683  0.2503  1.2208  0.1540
 3020TIP3    H230552   1.719   2.845  14.549  0.5486 -2.1277  0.2838
 3021TIP3   OH230553   0.709   6.085   5.423 -0.0231  0.2741  0.1077
 3021TIP3    H130554   0.755   6.056   5.344  0.5076  0.2099  0.4338
 3021TIP3    H230555   0.652   6.012   5.445 -1.0184  0.7438 -0.8566
 3022TIP3   OH230556   3.159   0.452  13.218 -0.7264 -0.1897  0.8019
 3022TIP3    H130557   3.134   0.497  13.298 -1.5205 -0.4482  0.7123
 3022TIP3    H230558   3.079   0.408  13.189 -1.2029  1.9114 -1.4716
 3023TIP3   OH230559   5.546   1.003  16.163  0.1691 -0.4090 -0.2723
 3023TIP3    H130560   5.584   1.064  16.227  0.2276 -1.1085  0.3753
 3023TIP3    H230561   5.541   0.919  16.210 -0.4449 -0.7689 -0.9586
 3024TIP3   OH230562   3.802   5.211  11.576 -0.5183  0.2288 -0.2030
 3024TIP3    H130563   3.892   5.220  11.605  0.6800  2.4958 -3.8364
 3024TIP3    H230564   3.754   5.279  11.625  0.3929  0.9258 -0.2553
 3025TIP3   OH230565   0.803   2.362  15.352  0.3131 -0.1799 -0.1989
 3025TIP3    H130566   0.778   2.301  15.283  2.0881  1.7175 -2.6891
 3025TIP3    H230567   0.777   2.448  15.319  0.9095  0.7863  1.6791
 3026TIP3   OH230568   6.409   1.718   3.669 -0.4096  0.7371 -0.3305
 3026TIP3    H130569   6.371   1.668   3.597  0.8631  0.5275 -0.8860
 3026TIP3    H230570   6.406   1.809   3.639  0.4477  0.6137 -0.8235
 3027TIP3   OH230571   5.497   4.794   1.965 -0.2700 -0.0271  0.4718
 3027TIP3    H130572   5.590   4.813   1.951 -0.5263  0.8412 -0.1820
 3027TIP3    H230573   5.494   4.748   2.049  0.7383  0.0443  0.5617
 3028TIP3   OH230574   3.133   0.390  15.011  0.1055  0.4086  0.3450
 3028TIP3    H130575   3.208   0.344  14.973 -1.1795 -3.1282  1.7341
 3028TIP3    H230576   3.072   0.401  14.938  0.3264 -0.4299  0.0200
 3029TIP3   OH230577   0.077   4.929   0.513  0.5872 -0.6846  0.1323
 3029TIP3    H130578   0.140   4.930   0.441  0.2003 -0.4392 -0.2008
 3029TIP3    H230579   0.008   4.870   0.484 -0.8482  1.3597 -0.7983
 3030TIP3   OH230580   4.399   0.585   0.035 -0.1276 -0.7510  0.5978
 3030TIP3    H130581   4.325   0.643   0.019  0.5448 -0.2947 -1.0536
 3030TIP3    H230582   4.473   0.628  -0.008  0.8584 -1.7450  1.2529
 3031TIP3   OH230583   2.283   0.725   1.352 -0.2236  0.5098  0.1548
 3031TIP3    H130584   2.338   0.654   1.321 -0.3881 -0.2628  1.5628
 3031TIP3    H230585   2.294   0.794   1.287  0.0872 -0.7243 -1.1379
 3032TIP3   OH230586   5.417   0.558   0.985 -0.0576  0.1565 -0.3554
 3032TIP3    H130587   5.367   0.498   0.929 -1.6732  1.1116 -0.0036
 3032TIP3    H230588   5.371   0.642   0.977 -0.2658  0.3695  2.2690
 3033TIP3   OH230589   0.086   1.770   5.432  0.2615 -0.0642  0.4802
 3033TIP3    H130590   0.149   1.841   5.442  0.2414 -0.0672  0.6261
 3033TIP3    H230591   0.013   1.809   5.383  0.4654 -0.1158  0.1303
 3034TIP3   OH230592   6.691   2.803   0.335 -0.3885  0.0235  0.4119
 3034TIP3    H130593   6.600   2.814   0.364 -0.9757 -2.1165 -0.4484
 3034TIP3    H230594   6.738   2.776   0.414 -1.4478 -3.1600  0.0696
 3035TIP3   OH230595   6.686   2.163  13.011 -0.6263 -0.3154  0.4786
 3035TIP3    H130596   6.617   2.101  12.988  1.7428 -2.8897 -0.1535
 3035TIP3    H230597   6.720   2.193  12.926  1.3567 -1.8909  0.6620
 3036TIP3   OH230598   5.552   4.243  15.411 -0.8077 -0.2073  0.0499
 3036TIP3    H130599   5.528   4.310  15.347  0.6103  0.5805  0.3177
 3036TIP3    H230600   5.587   4.292  15.485 -1.2258 -1.1799  0.9187
 3037TIP3   OH230601   6.414   6.099  13.077  0.0751 -0.2503 -0.4483
 3037TIP3    H130602   6.403   6.191  13.097 -1.0613 -0.6549  0.9423
 3037TIP3    H230603   6.354   6.083  13.003 -0.8411 -0.1578  0.2523
 3038TIP3   OH230604   2.676   0.010  16.786 -0.1960  0.6217  0.8582
 3038TIP3    H130605   2.668  -0.078  16.823  0.1865 -0.2362 -1.0280
 3038TIP3    H230606   2.607   0.014  16.720  0.5927  1.2720  0.0531
 3039TIP3   OH230607   6.812   3.864  13.263  0.1266 -0.2138  0.5112
 3039TIP3    H130608   6.872   3.816  13.320  2.0551  0.5791 -0.7887
 3039TIP3    H230609   6.806   3.811  13.184 -2.3127 -1.1576  1.2249
 3040TIP3   OH230610   0.560   3.018   1.478 -0.3499  0.0182  0.3524
 3040TIP3    H130611   0.590   3.011   1.387 -0.1994 -1.2558  0.4829
 3040TIP3    H230612   0.470   2.988   1.475 -0.6096  0.7641  0.5015
 3041TIP3   OH230613   3.338   6.619  13.865  0.4139  0.2932  0.1412
 3041TIP3    H130614   3.396   6.642  13.938 -0.9281 -1.4174  1.8366
 3041TIP3    H230615   3.372   6.535  13.833  0.5018  0.6410 -0.7115
 3042TIP3   OH230616   5.844   3.644   6.134 -0.2241  0.4218 -0.4093
 3042TIP3    H130617   5.898   3.591   6.193 -0.2206  0.4603 -0.3782
 3042TIP3    H230618   5.776   3.584   6.103 -0.2931  0.4326 -0.2777
 3043TIP3   OH230619   6.223   3.980  12.306  0.2246 -0.1923  0.1122
 3043TIP3    H130620   6.244   4.024  12.223  0.6957 -0.5807  0.0180
 3043TIP3    H230621   6.175   3.901  12.279 -0.8762  0.4057  0.2956
 3044TIP3   OH230622   2.842   5.643   4.455 -0.3486 -0.5661 -0.1244
 3044TIP3    H130623   2.890   5.561   4.463  0.5556  0.0445  0.9903
 3044TIP3    H230624   2.785   5.630   4.380 -0.2497 -2.2239  0.0483
 3045TIP3   OH230625   3.767   0.340  12.190  0.4755 -0.1480  0.1551
 3045TIP3    H130626   3.745   0.335  12.096 -2.3004 -1.9584  0.7519
 3045TIP3    H230627   3.848   0.391  12.193 -0.4491  1.8534 -3.0422
 3046TIP3   OH230628   4.826   2.330  12.048  0.1013 -0.1167 -0.1014
 3046TIP3    H130629   4.850   2.416  12.011 -0.9098  0.2095 -0.0371
 3046TIP3    H230630   4.805   2.277  11.971  0.0355 -0.0860 -0.1046
 3047TIP3   OH230631   2.577   4.134  10.650  0.7954  0.0321  0.3279
 3047TIP3    H130632   2.512   4.074  10.613  1.7919 -0.7060 -0.2845
 3047TIP3    H230633   2.566   4.215  10.602  1.0530 -0.4461 -0.5622
 3048TIP3   OH230634   0.954   1.354   4.529  0.0732  0.4378  0.0077
 3048TIP3    H130635   0.955   1.322   4.439 -0.7954  2.2877 -0.7117
 3048TIP3    H230636   1.020   1.301   4.574 -0.8489 -1.8755 -1.1908
 3049TIP3   OH230637   6.118   0.786   4.099  0.6127 -1.0474  0.4188
 3049TIP3    H130638   6.130   0.702   4.142 -0.4301 -1.4600 -0.0526
 3049TIP3    H230639   6.069   0.766   4.019  3.2072 -0.4040 -1.4398
 3050TIP3   OH230640   1.436   1.860  10.497  0.2861  0.2641 -1.0249
 3050TIP3    H130641   1.380   1.842  10.422 -1.8307  0.7781  0.3412
 3050TIP3    H230642   1.394   1.935  10.541  1.6974  0.2651  0.4174
 3051TIP3   OH230643   4.045   1.470  11.074 -0.3633  0.0400 -0.2718
 3051TIP3    H130644   4.133   1.479  11.038 -0.2219 -1.2571 -0.2817
 3051TIP3    H230645   3.996   1.423  11.007 -0.1311 -2.2946  1.0847
 3052TIP3   OH230646   6.432   3.323  13.229 -0.3203  0.1060  0.2373
 3052TIP3    H130647   6.492   3.396  13.216 -0.6954  0.7641  1.9394
 3052TIP3    H230648   6.355   3.345  13.177  0.7513 -0.6240 -1.7525
 3053TIP3   OH230649   6.226   3.557  14.296  0.7448  0.0443  0.3868
 3053TIP3    H130650   6.169   3.480  14.287  1.2124 -0.3030  0.3811
 3053TIP3    H230651   6.193   3.619  14.231  0.2068 -0.0543  0.5634
 3054TIP3   OH230652   0.325   3.519  13.960 -0.7616  0.0637  0.2963
 3054TIP3    H130653   0.364   3.602  13.931  1.1740 -1.3732 -1.5682
 3054TIP3    H230654   0.242   3.513  13.912 -0.5260  0.5764 -0.1918
 3055TIP3   OH230655   2.047   2.874   6.431  0.0932 -0.0139  0.2316
 3055TIP3    H130656   1.962   2.917   6.442 -0.2635 -0.6957  0.1750
 3055TIP3    H230657   2.051   2.852   6.338  0.0341 -0.5807  0.3603
 3056TIP3   OH230658   3.097   5.331  11.933 -0.1416  0.0163  0.1803
 3056TIP3    H130659   3.145   5.256  11.897  0.7360  0.5460  0.2306
 3056TIP3    H230660   3.165   5.392  11.961 -0.8527  0.9346 -0.0498
 3057TIP3   OH230661   0.991   5.166   1.711  0.0294 -0.7842 -1.2382
 3057TIP3    H130662   0.904   5.147   1.746  0.5825 -0.0589  0.7062
 3057TIP3    H230663   1.050   5.151   1.785  1.2465  1.3590 -1.6702
 3058TIP3   OH230664   1.805   6.842   2.362  0.4091  0.4850  0.0181
 3058TIP3    H130665   1.750   6.831   2.284 -2.0772 -0.1097  1.7215
 3058TIP3    H230666   1.806   6.755   2.402  3.1181  0.3521 -0.1948
 3059TIP3   OH230667   4.762   2.074  13.424 -0.1642 -0.0499 -0.3925
 3059TIP3    H130668   4.698   2.004  13.418 -0.1134 -0.2114  0.7962
 3059TIP3    H230669   4.712   2.154  13.407 -0.5070 -0.2522 -0.3380
 3060TIP3   OH230670   6.400   0.920   3.258  0.6857  0.8014  0.5451
 3060TIP3    H130671   6.369   0.915   3.168  1.1969 -0.0625  0.4002
 3060TIP3    H230672   6.320   0.931   3.311  0.2897  0.2820  0.0639
 3061TIP3   OH230673   6.214   5.117   1.810 -0.7296  0.2765 -0.7181
 3061TIP3    H130674   6.263   5.071   1.878 -1.6224  0.0318 -0.2222
 3061TIP3    H230675   6.278   5.175   1.770 -0.2429  0.6379  0.5234
 3062TIP3   OH230676   6.621   0.035   4.835 -0.0514 -0.4749  0.0911
 3062TIP3    H130677   6.680  -0.012   4.894 -1.4104  0.0206  1.9534
 3062TIP3    H230678   6.578   0.100   4.891 -0.1376  1.2292 -1.8503
 3063TIP3   OH230679   0.594   3.300   0.353 -1.2974  0.3904 -0.3530
 3063TIP3    H130680   0.558   3.232   0.296  0.6549  0.3968 -1.7171
 3063TIP3    H230681   0.665   3.339   0.302 -0.9902  2.0340  1.2090
 3064TIP3   OH230682   3.841   0.482   1.358  0.0171  0.1575 -0.0272
 3064TIP3    H130683   3.826   0.402   1.307  0.8189  0.4396 -0.7331
 3064TIP3    H230684   3.756   0.525   1.361 -0.1582 -0.1351 -0.6695
 3065TIP3   OH230685   6.136   4.847  11.154  0.1517  0.3289  0.8300
 3065TIP3    H130686   6.052   4.841  11.199  0.2669  0.1911  1.0303
 3065TIP3    H230687   6.115   4.883  11.068 -0.1775 -0.1822  0.6930
 3066TIP3   OH230688   5.659   5.011   4.591 -0.1890  0.5041  0.0755
 3066TIP3    H130689   5.684   5.103   4.584 -2.7989  1.2327 -1.3656
 3066TIP3    H230690   5.598   5.008   4.665  1.5016 -0.5531  1.4958
 3067TIP3   OH230691   5.784   0.951   1.434  0.2236 -0.2850 -0.4627
 3067TIP3    H130692   5.759   0.863   1.407  1.5452 -0.0899 -2.5560
 3067TIP3    H230693   5.717   1.008   1.396 -1.0096 -0.3863  1.4572
 3068TIP3   OH230694   4.823   3.753  15.615  0.2929  0.2480  0.2712
 3068TIP3    H130695   4.859   3.797  15.692 -0.2500  0.6339  0.3069
 3068TIP3    H230696   4.898   3.707  15.577  1.0313  1.7637 -0.1646
 3069TIP3   OH230697   0.371   4.808   5.253 -0.3673 -0.0088  0.5413
 3069TIP3    H130698   0.287   4.855   5.258  0.0844  0.7428  1.3752
 3069TIP3    H230699   0.363   4.738   5.319 -1.0784 -1.2166 -0.7702
 3070TIP3   OH230700   2.301   0.627   5.828  0.2415  0.8024  0.5111
 3070TIP3    H130701   2.256   0.645   5.910 -2.3113 -1.2028 -0.3166
 3070TIP3    H230702   2.355   0.550   5.846 -0.7307  0.0347  0.2220
 3071TIP3   OH230703   3.039   3.933   3.218 -0.4205 -0.3801  0.3698
 3071TIP3    H130704   2.957   3.982   3.223 -1.2154 -1.7715  2.2031
 3071TIP3    H230705   3.107   3.996   3.243 -1.2939  0.1083  1.6273
 3072TIP3   OH230706   4.301   4.346   2.734  0.2010 -0.0712  0.0239
 3072TIP3    H130707   4.394   4.330   2.754  0.6823  0.7657 -1.4169
 3072TIP3    H230708   4.279   4.278   2.670  0.0363  0.1810 -0.1880
 3073TIP3   OH230709   5.271   5.227  11.090 -0.1850  0.0348  0.2709
 3073TIP3    H130710   5.293   5.290  11.158 -0.5947  0.1429  0.3086
 3073TIP3    H230711   5.354   5.206  11.049 -0.1873  1.5914 -0.6083
 3074TIP3   OH230712   0.367   2.010  14.296 -0.4408 -0.0616  0.0273
 3074TIP3    H130713   0.385   2.083  14.356  0.8523 -0.9856  0.8102
 3074TIP3    H230714   0.402   2.039  14.212  1.2481 -0.2569  0.6253
 3075TIP3   OH230715   1.594   2.212   0.493 -0.3319 -0.1274  0.0508
 3075TIP3    H130716   1.654   2.196   0.565  1.8130  1.7192 -1.1663
 3075TIP3    H230717   1.540   2.286   0.522 -1.9156 -1.6277  1.0492
 3076TIP3   OH230718   5.964   3.002  14.133  0.5709 -0.1504 -0.3590
 3076TIP3    H130719   5.977   2.960  14.048  0.1862 -1.5316  0.2283
 3076TIP3    H230720   6.050   3.036  14.156  0.6419  0.3731 -1.3693
 3077TIP3   OH230721   2.324   2.156  13.252  0.0326 -0.4654  0.1891
 3077TIP3    H130722   2.377   2.233  13.230 -0.3265  0.0249  0.9852
 3077TIP3    H230723   2.243   2.169  13.204  0.1099 -0.5268  0.0418
 3078TIP3   OH230724   5.291   3.253  16.057  0.4825  0.3976 -0.3125
 3078TIP3    H130725   5.265   3.247  15.965  0.8432  0.0773 -0.3955
 3078TIP3    H230726   5.363   3.191  16.065  0.8904  0.9098  0.0332
 3079TIP3   OH230727   6.587   1.332  11.399  0.1406 -0.2394 -0.1963
 3079TIP3    H130728   6.650   1.377  11.343 -0.0375 -0.8997 -0.9362
 3079TIP3    H230729   6.502   1.348  11.358 -0.3758  1.6716  1.4502
 3080TIP3   OH230730   4.837   4.174   0.946 -0.4462 -0.1731  0.5543
 3080TIP3    H130731   4.772   4.242   0.963 -0.9173 -0.5297  0.2196
 3080TIP3    H230732   4.901   4.215   0.888 -0.9279 -0.1166  0.0494
 3081TIP3   OH230733   1.158   5.672   3.651 -0.3285 -0.2050 -0.3823
 3081TIP3    H130734   1.189   5.619   3.725 -0.2591 -0.5963 -0.6866
 3081TIP3    H230735   1.071   5.638   3.631 -0.6959  0.4773  0.0698
 3082TIP3   OH230736   4.562   3.967   1.131  0.1742 -0.0813  0.2386
 3082TIP3    H130737   4.485   3.914   1.152  0.3265 -0.0203  0.9670
 3082TIP3    H230738   4.540   4.009   1.048 -0.8337  0.4368  0.7563
 3083TIP3   OH230739   4.985   5.738   2.100 -0.4006 -0.1831  0.4228
 3083TIP3    H130740   4.908   5.746   2.155 -0.0913  0.2059  0.8053
 3083TIP3    H230741   4.953   5.700   2.018 -1.2257  1.2156  0.0758
 3084TIP3   OH230742   4.423   3.548  16.246 -0.0313 -0.0922  0.0306
 3084TIP3    H130743   4.389   3.619  16.191 -0.7728 -0.2298  0.2976
 3084TIP3    H230744   4.504   3.520  16.202 -0.5792 -0.1691 -0.9728
 3085TIP3   OH230745   5.596   5.943  15.672 -1.0552 -0.3614  0.0915
 3085TIP3    H130746   5.510   5.970  15.641 -2.0121  0.2325  2.9312
 3085TIP3    H230747   5.622   6.011  15.734  1.1822 -0.8729 -0.2045
 3086TIP3   OH230748   1.040   5.368   0.205 -0.1188 -0.2397 -0.2548
 3086TIP3    H130749   0.954   5.327   0.206 -0.1118 -0.2559 -0.3365
 3086TIP3    H230750   1.100   5.298   0.182 -0.3700  0.3168 -2.8521
 3087TIP3   OH230751   2.350   4.188   3.495  0.7593 -0.2822  0.0544
 3087TIP3    H130752   2.372   4.165   3.586  0.4732 -0.6972  0.0204
 3087TIP3    H230753   2.255   4.181   3.491  0.6782  0.7334 -0.0096
 3088TIP3   OH230754   0.372   6.061   4.235 -0.4762  0.2492 -0.1238
 3088TIP3    H130755   0.397   5.969   4.228  0.1780  0.4853 -1.2083
 3088TIP3    H230756   0.290   6.066   4.185 -0.5345  0.2419 -0.0277
 3089TIP3   OH230757   0.954   0.307  16.354  0.8538  0.3661  0.2454
 3089TIP3    H130758   0.984   0.233  16.406  1.0702 -0.1342 -0.5699
 3089TIP3    H230759   0.928   0.269  16.270  2.0949  1.3336 -0.6237
 3090TIP3   OH230760   4.671   2.798  13.030  0.2793 -0.8008 -0.4443
 3090TIP3    H130761   4.764   2.794  13.010  0.5706  0.0187  0.6535
 3090TIP3    H230762   4.627   2.789  12.945  1.3203 -2.0052 -0.8786
 3091TIP3   OH230763   4.082   2.258   1.375  0.6444 -0.5911  0.4035
 3091TIP3    H130764   4.138   2.290   1.304 -0.2698 -0.7557 -0.4165
 3091TIP3    H230765   4.049   2.337   1.418 -2.0758 -0.2764 -1.9774
 3092TIP3   OH230766   0.533   4.672  10.405  0.0027 -0.3887  0.1905
 3092TIP3    H130767   0.491   4.755  10.427 -1.7633  0.1192 -4.0603
 3092TIP3    H230768   0.476   4.605  10.442 -0.4118  0.3186  0.8529
 3093TIP3   OH230769   4.598   1.894   1.244  0.8323  0.3042 -0.7794
 3093TIP3    H130770   4.643   1.848   1.315  0.9488  1.8546  0.2158
 3093TIP3    H230771   4.572   1.826   1.183 -1.1626 -1.3774  1.7648
 3094TIP3   OH230772   4.402   1.652  15.110  0.2079 -0.7352  0.4044
 3094TIP3    H130773   4.470   1.695  15.161 -0.7665  1.6139 -0.1027
 3094TIP3    H230774   4.444   1.575  15.072  1.9266 -0.5477  1.8393
 3095TIP3   OH230775   4.068   0.889  15.323 -0.2352  0.2583 -0.3438
 3095TIP3    H130776   4.001   0.895  15.255  0.0226  3.5882 -0.4514
 3095TIP3    H230777   4.144   0.850  15.280 -0.9445 -0.2524 -1.1622
 3096TIP3   OH230778   1.323   3.787  14.151 -0.6645 -0.0531  0.2557
 3096TIP3    H130779   1.242   3.780  14.101 -0.4162 -0.3306 -0.1031
 3096TIP3    H230780   1.307   3.860  14.212 -1.0351  0.1571 -0.0912
 3097TIP3   OH230781   6.102   2.762   3.717  0.1322 -0.2066  0.5053
 3097TIP3    H130782   6.146   2.784   3.635 -1.1400  1.4980  0.2233
 3097TIP3    H230783   6.128   2.672   3.735  1.0519 -0.3567 -1.3502
 3098TIP3   OH230784   6.603   0.009   1.145 -0.0585  0.0543 -0.2107
 3098TIP3    H130785   6.616   0.017   1.051  1.6175  1.3843  0.0913
 3098TIP3    H230786   6.579   0.098   1.174 -1.6883 -0.5695  0.4862
 3099TIP3   OH230787   3.935   1.517  16.785 -0.7534  0.1423 -0.4668
 3099TIP3    H130788   4.013   1.543  16.833  0.0538 -1.5269 -0.8201
 3099TIP3    H230789   3.872   1.492  16.853 -0.6309  0.5149 -0.2131
 3100TIP3   OH230790   0.999   0.206   0.595  0.1531 -0.7308 -0.5250
 3100TIP3    H130791   1.004   0.111   0.609 -0.5313 -0.9205 -1.4469
 3100TIP3    H230792   0.983   0.242   0.682  2.8640 -1.2241  0.2468
 3101TIP3   OH230793   4.731   3.245   3.697  0.1771 -0.1644  0.2212
 3101TIP3    H130794   4.682   3.280   3.622  1.0604 -0.8982 -0.7304
 3101TIP3    H230795   4.677   3.172   3.727  0.8726 -1.2966 -1.1467
 3102TIP3   OH230796   6.259   5.114   4.816 -1.3168 -0.6566  0.3190
 3102TIP3    H130797   6.201   5.039   4.832 -1.4650 -0.6307 -0.0933
 3102TIP3    H230798   6.203   5.190   4.828 -0.7823 -0.5222  2.4617
 3103TIP3   OH230799   2.763   5.785   1.431  0.0030  0.0505 -0.2342
 3103TIP3    H130800   2.856   5.769   1.414  0.1376  1.4036 -0.9585
 3103TIP3    H230801   2.726   5.799   1.344 -0.4614  1.4933  0.1648
 3104TIP3   OH230802   2.255   3.948  12.594  0.1837 -0.0434 -0.6156
 3104TIP3    H130803   2.300   4.008  12.654 -1.3012 -0.0214  0.5432
 3104TIP3    H230804   2.285   3.861  12.621 -0.7207 -0.0597  0.4524
 3105TIP3   OH230805   2.662   5.671  12.415 -0.2707 -0.2790 -0.0677
 3105TIP3    H130806   2.567   5.664  12.429 -0.0728 -0.7629  1.1402
 3105TIP3    H230807   2.683   5.761  12.440 -0.2789 -0.4318  0.4878
 3106TIP3   OH230808   0.892   4.646   0.790  0.2945  0.4131  0.2223
 3106TIP3    H130809   0.973   4.643   0.841  1.9422  0.5050 -2.2213
 3106TIP3    H230810   0.918   4.683   0.706 -1.9982 -0.9754 -1.1968
 3107TIP3   OH230811   1.823   0.092  14.156  0.4531  0.0075  0.0088
 3107TIP3    H130812   1.823   0.030  14.083  1.9858  1.0317 -0.9166
 3107TIP3    H230813   1.767   0.051  14.222  0.4414 -1.7806 -1.0396
 3108TIP3   OH230814   2.279   1.466   6.035 -0.3027 -0.2576  0.0255
 3108TIP3    H130815   2.352   1.474   6.097  0.2531 -0.6387 -0.5727
 3108TIP3    H230816   2.318   1.480   5.949 -0.7886 -1.2019 -0.3712
 3109TIP3   OH230817   3.124   1.258  15.025  0.2337  0.3228 -0.5757
 3109TIP3    H130818   3.153   1.167  15.022 -0.7810 -0.0892  0.8833
 3109TIP3    H230819   3.029   1.252  15.030  0.0625  1.5228 -1.9603
 3110TIP3   OH230820   4.310   2.776  16.035  0.6820 -0.1760  0.3805
 3110TIP3    H130821   4.396   2.733  16.030  1.1058  0.7761 -1.2830
 3110TIP3    H230822   4.281   2.782  15.945  0.6866  3.0229  0.4610
 3111TIP3   OH230823   3.130   4.276  11.974 -0.2802 -0.2214 -0.1104
 3111TIP3    H130824   3.182   4.263  12.053  0.7560  0.0204 -0.7347
 3111TIP3    H230825   3.193   4.306  11.908 -1.3734  1.1345 -0.6043
 3112TIP3   OH230826   0.163   3.054   0.331 -0.2518 -0.0737  0.7718
 3112TIP3    H130827   0.247   3.055   0.378 -0.2068 -0.7951  0.7126
 3112TIP3    H230828   0.107   2.997   0.382 -0.6072  0.1400  0.6249
 3113TIP3   OH230829   5.282   2.101  10.978  0.2735  0.0900  0.1137
 3113TIP3    H130830   5.215   2.164  11.005 -2.0870 -1.9172 -0.7268
 3113TIP3    H230831   5.346   2.154  10.930 -0.4428  2.1670  1.3228
 3114TIP3   OH230832   1.407   1.423  14.812 -0.1842  0.5921 -0.5369
 3114TIP3    H130833   1.426   1.369  14.888 -2.7483  0.1773 -0.0960
 3114TIP3    H230834   1.402   1.361  14.739 -1.0618  0.4933 -0.4045
 3115TIP3   OH230835   4.429   0.889   1.874  0.6489  0.1964  0.1898
 3115TIP3    H130836   4.418   0.984   1.872 -0.3754  0.1138  0.9571
 3115TIP3    H230837   4.381   0.856   1.798  0.5548  0.2574  0.2234
 3116TIP3   OH230838   3.700   0.709   3.063 -0.0555 -0.5290  0.3550
 3116TIP3    H130839   3.653   0.627   3.048  0.5280 -0.7841 -0.1158
 3116TIP3    H230840   3.750   0.723   2.983 -0.8510  0.7687  0.0498
 3117TIP3   OH230841   1.828   4.668  16.238 -0.1573 -0.4586  0.1647
 3117TIP3    H130842   1.736   4.644  16.235 -0.1590 -0.3757 -0.6806
 3117TIP3    H230843   1.846   4.683  16.331 -0.9509 -0.6192  0.3509
 3118TIP3   OH230844   1.407   2.785  13.837  0.2953  0.4400  0.3240
 3118TIP3    H130845   1.442   2.861  13.883  0.3836 -0.5084  1.9024
 3118TIP3    H230846   1.484   2.734  13.813  0.1774 -0.1246  1.0769
 3119TIP3   OH230847   6.468   1.308   2.355  0.0474 -0.4653  0.5111
 3119TIP3    H130848   6.466   1.390   2.404  0.7038 -0.8603  1.2340
 3119TIP3    H230849   6.534   1.321   2.287  0.3826 -0.4926  0.8257
 3120TIP3   OH230850   0.146   6.072   1.053  0.5060 -0.2831 -0.5426
 3120TIP3    H130851   0.079   6.039   0.993  1.7545 -1.8734 -1.1293
 3120TIP3    H230852   0.218   6.099   0.996  0.5036  1.1580  0.0944
 3121TIP3   OH230853   5.222   4.837  13.766  0.0126 -0.0963 -0.7610
 3121TIP3    H130854   5.150   4.789  13.726 -0.9340 -0.9468  1.7691
 3121TIP3    H230855   5.214   4.819  13.860  1.9220  1.9648 -0.1111
 3122TIP3   OH230856   6.690   1.664   5.774 -0.3209  0.1289  0.4308
 3122TIP3    H130857   6.610   1.683   5.724 -1.1419 -0.5894  1.4169
 3122TIP3    H230858   6.721   1.581   5.738 -0.1825  0.2648  0.2379
 3123TIP3   OH230859   3.076   2.171   1.915 -0.7995  0.4021  0.4220
 3123TIP3    H130860   3.122   2.143   1.994  0.5422  0.1963 -0.4059
 3123TIP3    H230861   3.077   2.094   1.858 -0.9271  0.8321 -0.1643
 3124TIP3   OH230862   4.968   5.311  16.264  0.0877 -0.6250 -0.0849
 3124TIP3    H130863   4.886   5.287  16.221 -0.0775 -2.8178  1.2754
 3124TIP3    H230864   5.026   5.237  16.248  2.3988  1.4602 -2.2050
 3125TIP3   OH230865   2.941   0.352  10.722 -0.6747 -0.4126 -0.1622
 3125TIP3    H130866   2.889   0.296  10.779  0.2513 -1.4794 -0.3305
 3125TIP3    H230867   2.912   0.330  10.633 -3.5981  2.7012 -0.1720
 3126TIP3   OH230868   4.827   6.533  12.967  0.0864 -0.5613  0.4032
 3126TIP3    H130869   4.907   6.504  12.922  1.1174  1.6426  0.6796
 3126TIP3    H230870   4.775   6.576  12.898  0.1153 -0.1494  0.6342
 3127TIP3   OH230871   1.347   3.334  15.740  0.1224 -0.0428  0.1950
 3127TIP3    H130872   1.342   3.269  15.671 -1.6780 -0.4398  0.6440
 3127TIP3    H230873   1.384   3.288  15.815 -0.3086 -0.2992  0.2482
 3128TIP3   OH230874   6.235   5.072   3.239  0.3747 -0.5640 -0.0068
 3128TIP3    H130875   6.291   5.083   3.162  2.1859  0.1242  1.3226
 3128TIP3    H230876   6.187   4.991   3.223 -0.0058  0.0563 -2.2507
 3129TIP3   OH230877   3.234   3.916   1.869  0.0635  0.6908 -0.0597
 3129TIP3    H130878   3.157   3.972   1.878 -0.6889 -0.5035  1.4098
 3129TIP3    H230879   3.225   3.851   1.938  1.3140 -0.7766 -1.1895
 3130TIP3   OH230880   3.540   1.149  11.485 -0.1144 -0.0887 -0.1162
 3130TIP3    H130881   3.474   1.080  11.483  1.9221 -2.1342 -1.2001
 3130TIP3    H230882   3.514   1.209  11.416 -0.9591 -0.7485 -0.3900
 3131TIP3   OH230883   6.710   5.176  16.463 -0.2025 -0.7293 -0.4365
 3131TIP3    H130884   6.757   5.101  16.425 -0.8169 -1.0148 -0.6398
 3131TIP3    H230885   6.627   5.139  16.494  0.3151 -0.5428  1.3190
 3132TIP3   OH230886   3.552   1.729   4.972 -0.0407  0.0910  0.0735
 3132TIP3    H130887   3.543   1.790   5.045  0.6404  0.5370 -0.2062
 3132TIP3    H230888   3.517   1.777   4.897  1.6508  0.6507 -0.4008
 3133TIP3   OH230889   2.942   5.465   0.880 -0.0228 -0.3855 -0.2995
 3133TIP3    H130890   3.017   5.407   0.893  0.2928 -0.0175 -0.4650
 3133TIP3    H230891   2.908   5.481   0.968  0.6887  0.2283 -0.1329
 3134TIP3   OH230892   4.239   4.373  11.585 -0.0965  0.5284  0.3494
 3134TIP3    H130893   4.152   4.394  11.618 -0.3259 -0.0351  0.1094
 3134TIP3    H230894   4.226   4.299  11.526  0.5619  0.3554  0.4072
 3135TIP3   OH230895   4.245   5.748   2.709 -0.8666 -0.1860 -0.0146
 3135TIP3    H130896   4.299   5.825   2.727 -2.6327  0.8157  1.2395
 3135TIP3    H230897   4.264   5.727   2.617 -1.5008  2.7258 -0.9080
 3136TIP3   OH230898   2.864   5.362  11.778 -0.3456  0.4639  0.5188
 3136TIP3    H130899   2.851   5.272  11.748  2.3830  0.2055 -0.1135
 3136TIP3    H230900   2.905   5.353  11.865  1.0079  1.0268 -0.0321
 3137TIP3   OH230901   3.697   5.258  16.806 -0.6112  0.2307 -0.8297
 3137TIP3    H130902   3.659   5.218  16.728 -2.2553 -0.3493  0.2093
 3137TIP3    H230903   3.791   5.254  16.791 -0.8731  1.3197 -3.3316
 3138TIP3   OH230904   0.248   5.503   5.965  0.1141  0.1456  0.2276
 3138TIP3    H130905   0.189   5.578   5.958 -1.1900 -0.6466  2.0691
 3138TIP3    H230906   0.216   5.442   5.899  0.2011  0.5581 -0.2066
 3139TIP3   OH230907   6.277   6.463  17.095 -0.0893 -0.0815  0.2866
 3139TIP3    H130908   6.352   6.521  17.108 -0.6000  0.2262  2.2066
 3139TIP3    H230909   6.286   6.431  17.006  0.9166  1.9556 -0.3962
 3140TIP3   OH230910   5.101   4.546  16.921 -0.0905 -0.8060 -0.6969
 3140TIP3    H130911   5.093   4.623  16.865  2.6976  0.2017  0.1098
 3140TIP3    H230912   5.091   4.580  17.010 -1.3846 -1.8628 -0.4100
 3141TIP3   OH230913   4.569   4.942   0.791  0.3209 -0.2170  0.3866
 3141TIP3    H130914   4.654   4.980   0.813  0.6173  0.0012 -1.0016
 3141TIP3    H230915   4.511   4.966   0.863  0.4805  2.9324 -0.4264
 3142TIP3   OH230916   4.287   1.513  14.702 -0.5236  0.3510  0.3589
 3142TIP3    H130917   4.315   1.494  14.792 -0.1045 -1.0731 -0.0472
 3142TIP3    H230918   4.363   1.555  14.662 -0.4578  0.3301  0.4618
 3143TIP3   OH230919   0.663   2.347   4.021  0.4017  0.0839 -0.1138
 3143TIP3    H130920   0.604   2.310   3.955  0.2072 -1.8898  1.0896
 3143TIP3    H230921   0.605   2.399   4.078  0.7258  2.7193 -2.0019
 3144TIP3   OH230922   4.518   4.395  13.674  0.4903 -0.1080  0.1746
 3144TIP3    H130923   4.484   4.484  13.678  0.0281 -0.3127  2.3481
 3144TIP3    H230924   4.525   4.368  13.766  1.6120 -1.9429 -0.3907
 3145TIP3   OH230925   3.064   2.502  15.302 -0.9286  0.2790 -0.2234
 3145TIP3    H130926   3.131   2.475  15.365  0.3349  0.1267 -1.5746
 3145TIP3    H230927   3.044   2.592  15.326 -1.1570 -0.0681  0.9531
 3146TIP3   OH230928   5.411   0.552  13.923  0.0461 -0.1480 -0.6227
 3146TIP3    H130929   5.491   0.604  13.926 -1.0688  1.6943 -1.3021
 3146TIP3    H230930   5.352   0.593  13.986 -0.3163 -1.6543  0.0841
 3147TIP3   OH230931   4.989   6.294   3.752  0.1071 -0.4022  0.3342
 3147TIP3    H130932   5.023   6.217   3.707 -1.4668 -1.2840  0.5811
 3147TIP3    H230933   4.945   6.345   3.684 -1.7802 -1.4527  0.7010
 3148TIP3   OH230934   5.199   5.828   1.565 -0.0510  0.3088 -0.7358
 3148TIP3    H130935   5.117   5.791   1.530 -0.1092  0.4742 -0.7725
 3148TIP3    H230936   5.240   5.754   1.611 -0.9151  0.5827  0.5206
 3149TIP3   OH230937   6.220   5.631   0.164 -0.0488  0.2128  0.1189
 3149TIP3    H130938   6.188   5.719   0.184 -0.7861  0.2164 -0.9799
 3149TIP3    H230939   6.292   5.618   0.224 -0.1381  1.4461  0.5303
 3150TIP3   OH230940   4.296   0.116  11.967 -0.0372  0.3874 -0.2283
 3150TIP3    H130941   4.343   0.043  12.007  2.0553  2.0927  0.6359
 3150TIP3    H230942   4.364   0.180  11.946 -1.7957  2.2327 -0.6581
 3151TIP3   OH230943   0.620   2.911   0.488 -0.4798  0.2169 -0.3563
 3151TIP3    H130944   0.668   2.989   0.515  0.2934  0.3139 -1.8838
 3151TIP3    H230945   0.642   2.845   0.554  0.2327  0.7976  0.0001
 3152TIP3   OH230946   0.391   1.642  13.350  0.8908 -0.2469  0.2059
 3152TIP3    H130947   0.307   1.602  13.372  0.1420  0.4561 -1.1805
 3152TIP3    H230948   0.449   1.619  13.422  0.4499 -3.5328 -0.3363
 3153TIP3   OH230949   4.335   3.410   3.803  0.6095  0.1103 -0.3845
 3153TIP3    H130950   4.306   3.412   3.712  1.7596 -0.5589 -0.7875
 3153TIP3    H230951   4.414   3.356   3.802 -0.4924 -1.6815  1.3454
 3154TIP3   OH230952   3.335   0.531  15.855 -0.2102  0.6816  0.7720
 3154TIP3    H130953   3.278   0.455  15.850 -0.5521  0.9991 -0.4498
 3154TIP3    H230954   3.364   0.534  15.946 -0.8593 -0.4141  1.0224
 3155TIP3   OH230955   5.983   1.571   5.320  0.3501 -0.2327 -0.1789
 3155TIP3    H130956   5.932   1.573   5.239 -0.1344  0.4252  0.1330
 3155TIP3    H230957   6.032   1.654   5.318 -1.8992  1.2534  1.5952
 3156TIP3   OH230958   4.363   2.356   1.496 -0.4637 -0.1255 -0.1574
 3156TIP3    H130959   4.415   2.436   1.494 -0.7540  0.0832  0.3078
 3156TIP3    H230960   4.326   2.349   1.408  1.1200 -0.8110 -0.7956
 3157TIP3   OH230961   4.249   4.894  15.091 -0.5243  0.3940  0.3383
 3157TIP3    H130962   4.251   4.960  15.021  0.0945  0.5425  0.4888
 3157TIP3    H230963   4.194   4.934  15.158 -2.6712 -0.5152 -0.7854
 3158TIP3   OH230964   5.342   3.905   2.959 -0.1444  0.3276  0.0082
 3158TIP3    H130965   5.309   3.993   2.942  1.7665  0.8663 -1.2976
 3158TIP3    H230966   5.433   3.919   2.986  0.1964 -1.2388 -0.2580
 3159TIP3   OH230967   4.266   6.608  17.037  0.4098 -0.9406  0.1779
 3159TIP3    H130968   4.252   6.513  17.041  0.6120 -1.1775 -2.6351
 3159TIP3    H230969   4.219   6.636  16.959 -0.8131  1.5894  1.6920
 3160TIP3   OH230970   4.859   2.962  10.911  0.2081  0.8734  0.1343
 3160TIP3    H130971   4.922   2.901  10.950  1.2094  1.1427 -1.0057
 3160TIP3    H230972   4.849   2.932  10.821 -0.3033  1.6158 -0.0665
 3161TIP3   OH230973   4.736   0.542   1.543 -0.4858 -0.0663 -0.2500
 3161TIP3    H130974   4.741   0.583   1.456 -3.7437 -0.1411 -0.6019
 3161TIP3    H230975   4.695   0.457   1.527 -0.4300 -0.4044  1.3008
 3162TIP3   OH230976   1.533   5.071   5.359  0.2679  0.3654  0.0826
 3162TIP3    H130977   1.482   5.143   5.396 -0.8847 -0.1787 -0.3778
 3162TIP3    H230978   1.623   5.102   5.359  0.0290  1.1422  1.4716
 3163TIP3   OH230979   0.028   3.306   4.748 -0.6366  0.0517  0.5850
 3163TIP3    H130980   0.121   3.319   4.763 -0.4439  0.7914 -0.9706
 3163TIP3    H230981  -0.015   3.337   4.828  0.4538 -0.7980  1.5262
 3164TIP3   OH230982   2.761   1.321  11.264  0.4457  0.0294 -1.2666
 3164TIP3    H130983   2.732   1.240  11.222  1.7784 -1.1533  0.0279
 3164TIP3    H230984   2.795   1.294  11.349  1.0366  1.9396 -0.8458
 3165TIP3   OH230985   3.796   1.602   4.978 -0.2070 -0.3055  0.3854
 3165TIP3    H130986   3.709   1.639   4.987 -0.2980 -0.2194 -0.6802
 3165TIP3    H230987   3.784   1.528   4.919  0.2274 -1.1159  1.2867
 3166TIP3   OH230988   6.021   2.623   1.265  0.2258 -0.2119 -0.1468
 3166TIP3    H130989   5.984   2.613   1.178 -0.8807  1.6684  0.0759
 3166TIP3    H230990   5.947   2.611   1.325  0.5307  0.6759  0.4291
 3167TIP3   OH230991   4.766   2.090   2.756 -0.2771 -0.3878  0.4954
 3167TIP3    H130992   4.703   2.067   2.688 -0.2338 -0.3735  0.4500
 3167TIP3    H230993   4.795   2.178   2.733  0.3586 -0.7011  0.0622
 3168TIP3   OH230994   3.896   5.948  14.896 -0.1485  0.2714 -0.8487
 3168TIP3    H130995   3.818   5.893  14.891 -1.7494  2.2468  0.5580
 3168TIP3    H230996   3.891   6.005  14.820 -0.7301  1.1731 -0.1459
 3169TIP3   OH230997   3.953   6.373   4.310  0.2473 -0.4200 -0.4824
 3169TIP3    H130998   3.952   6.432   4.235 -0.0273  1.9919  1.3058
 3169TIP3    H230999   3.885   6.308   4.289 -0.5617  0.7930 -1.8595
 3170TIP3   OH231000   1.586   3.601   3.779  0.1821 -0.4169  0.0552
 3170TIP3    H131001   1.578   3.627   3.687  1.2604 -1.2577 -0.3016
 3170TIP3    H231002   1.609   3.508   3.776 -0.5264 -0.6570  1.2084
 3171TIP3   OH231003   5.405   6.150  15.078 -0.3151 -0.3743 -0.2767
 3171TIP3    H131004   5.417   6.099  15.158  2.7531  0.7841  0.1709
 3171TIP3    H231005   5.451   6.100  15.011  0.5554  0.5304 -0.3816
 3172TIP3   OH231006   4.125   3.535   4.483  0.3496  0.0974  0.2166
 3172TIP3    H131007   4.055   3.540   4.419 -1.3671  0.1992  1.9936
 3172TIP3    H231008   4.190   3.599   4.454 -0.5564  0.4115 -1.1745
 3173TIP3   OH231009   2.230   1.021  10.894  0.6142  0.2865 -0.0401
 3173TIP3    H131010   2.187   0.955  10.948  1.0076  0.2265  0.2098
 3173TIP3    H231011   2.159   1.072  10.856  0.2662 -0.8872 -1.0247
 3174TIP3   OH231012   3.964   3.541   0.503  0.1734  0.4845 -0.3697
 3174TIP3    H131013   4.044   3.513   0.458  1.1168  1.0348  0.8913
 3174TIP3    H231014   3.921   3.459   0.528 -0.0221  0.1778 -1.6252
 3175TIP3   OH231015   4.542   5.450  16.122  0.0864 -0.2131 -0.0618
 3175TIP3    H131016   4.468   5.397  16.092 -1.2944  1.9424 -0.7465
 3175TIP3    H231017   4.524   5.538  16.087  2.8639  0.4598 -0.0202
 3176TIP3   OH231018   2.040   6.475   6.000  0.5335  0.5725 -0.3050
 3176TIP3    H131019   2.099   6.436   5.936  0.7532 -0.6670  0.6034
 3176TIP3    H231020   2.093   6.482   6.080 -0.1162  0.8065  0.1110
 3177TIP3   OH231021   5.926   1.724   0.520 -0.5782 -0.3410 -0.4877
 3177TIP3    H131022   5.905   1.670   0.444 -0.7499 -0.1779 -0.5584
 3177TIP3    H231023   5.883   1.681   0.593 -0.2103 -0.6330 -0.4412
 3178TIP3   OH231024   2.518   3.478   4.692 -0.1235  0.2947 -0.1679
 3178TIP3    H131025   2.489   3.546   4.753  1.8639  1.1591 -0.1238
 3178TIP3    H231026   2.540   3.404   4.748  0.4449  0.6293  0.0589
 3179TIP3   OH231027   3.744   2.736   0.145 -0.0517 -0.0134 -0.2502
 3179TIP3    H131028   3.771   2.675   0.077 -0.2894 -0.0251 -0.3360
 3179TIP3    H231029   3.823   2.753   0.196  0.1094 -0.0587 -0.4869
 3180TIP3   OH231030   4.083   0.389   4.910  0.4871  0.3076  0.2843
 3180TIP3    H131031   4.095   0.452   4.839  1.0963  0.0508  0.1478
 3180TIP3    H231032   4.130   0.428   4.984  2.7616 -0.9317 -0.3862
 3181TIP3   OH231033   5.664   2.372  17.114 -0.1385  0.0285 -0.2340
 3181TIP3    H131034   5.659   2.464  17.141 -1.3618  0.7209 -2.6220
 3181TIP3    H231035   5.576   2.351  17.084  0.0857 -2.0135  0.3980
 3182TIP3   OH231036   3.164   5.904   5.894  0.9169 -0.0020  0.0998
 3182TIP3    H131037   3.123   5.874   5.975 -0.7251  1.3023 -0.1682
 3182TIP3    H231038   3.137   5.840   5.828  2.0393 -0.9227  0.5132
 3183TIP3   OH231039   1.161   6.072   2.262 -0.4576 -0.3648 -0.0226
 3183TIP3    H131040   1.154   6.143   2.326 -0.4518  0.1067 -0.5328
 3183TIP3    H231041   1.251   6.078   2.230 -0.3232 -0.8878  0.2493
 3184TIP3   OH231042   5.822   4.568   3.019  0.2811 -0.0420 -0.4186
 3184TIP3    H131043   5.728   4.586   3.021  0.0190 -1.0845 -1.6690
 3184TIP3    H231044   5.861   4.634   3.076 -1.1980  0.4712  0.0319
 3185TIP3   OH231045   0.406   0.190  11.557  0.6785 -0.0414 -0.1384
 3185TIP3    H131046   0.341   0.261  11.553  1.0292  0.4211  1.5793
 3185TIP3    H231047   0.461   0.212  11.633  1.5594 -1.5197 -0.3121
 3186TIP3   OH231048   3.419   6.334  13.808 -0.0475  0.0220 -0.3585
 3186TIP3    H131049   3.511   6.329  13.831  0.2036 -0.2200 -1.3780
 3186TIP3    H231050   3.384   6.247  13.827  0.0019  0.0263 -0.2511
 3187TIP3   OH231051   2.571   4.299   1.576  0.5610  0.2963 -0.1898
 3187TIP3    H131052   2.480   4.278   1.556  0.5104  0.8447 -0.5496
 3187TIP3    H231053   2.591   4.245   1.653  0.5263 -1.2836 -1.2319
 3188TIP3   OH231054   6.702   0.819   3.053 -0.2766  0.3407  0.3059
 3188TIP3    H131055   6.775   0.821   2.992  1.4448 -1.1467  2.1904
 3188TIP3    H231056   6.707   0.733   3.094 -2.9521  0.2868  0.7327
 3189TIP3   OH231057   5.267   6.112   0.669 -0.0464 -0.0807 -0.1197
 3189TIP3    H131058   5.289   6.204   0.659 -0.8595  0.3741  1.7905
 3189TIP3    H231059   5.313   6.084   0.749  1.7160 -1.8798 -1.6593
 3190TIP3   OH231060   1.429   5.749  12.167  0.3036 -0.4859 -0.0920
 3190TIP3    H131061   1.375   5.772  12.091  0.7615  0.7468 -0.0785
 3190TIP3    H231062   1.369   5.708  12.229 -0.1052 -1.3892 -1.0550
 3191TIP3   OH231063   4.178   3.612   1.429  0.0945 -0.1246  0.4835
 3191TIP3    H131064   4.139   3.553   1.364 -0.3665  1.8150 -1.1103
 3191TIP3    H231065   4.212   3.554   1.496 -1.6667 -2.1368 -0.2261
 3192TIP3   OH231066   3.664   6.505   5.113  0.2207  0.1702 -0.1711
 3192TIP3    H131067   3.733   6.487   5.176 -0.1475 -0.1196  0.1535
 3192TIP3    H231068   3.584   6.471   5.154 -0.2439  1.1879 -0.1928
 3193TIP3   OH231069   5.013   1.430   5.671 -0.1277  0.5309  0.2947
 3193TIP3    H131070   4.929   1.385   5.676  0.2251 -0.1121  0.5182
 3193TIP3    H231071   4.993   1.520   5.698 -0.6424  0.2495  0.8777
 3194TIP3   OH231072   5.659   2.247   0.302  0.5473  0.4885  0.1925
 3194TIP3    H131073   5.591   2.306   0.268  0.7688  0.8190  0.3157
 3194TIP3    H231074   5.610   2.181   0.351  0.3505  1.1340  0.8936
 3195TIP3   OH231075   6.537   1.696  11.332  0.0925  0.3178 -0.0812
 3195TIP3    H131076   6.527   1.741  11.248  0.8195 -0.6039 -0.6832
 3195TIP3    H231077   6.632   1.683  11.341 -0.0360 -0.2422  0.5319
 3196TIP3   OH231078   2.059   5.527  12.927 -0.3857 -0.3982 -0.2766
 3196TIP3    H131079   2.003   5.484  12.992 -1.4695  1.3556  0.0098
 3196TIP3    H231080   2.144   5.532  12.969 -0.6510 -0.8171  0.3307
 3197TIP3   OH231081   0.272   5.228  16.240  0.2330  0.5682 -0.1267
 3197TIP3    H131082   0.225   5.235  16.158 -0.6410  0.0450  0.3186
 3197TIP3    H231083   0.361   5.201  16.216 -0.1673 -0.1149 -0.8490
 3198TIP3   OH231084   4.700   6.836  12.189  0.3046 -0.3767 -0.4372
 3198TIP3    H131085   4.614   6.837  12.147  0.3807  0.9578 -0.6354
 3198TIP3    H231086   4.726   6.929  12.190  1.6401 -0.7349 -0.1902
 3199TIP3   OH231087   5.064   3.691  16.289 -0.1110 -0.1187 -0.2516
 3199TIP3    H131088   5.077   3.786  16.294 -3.2230  0.4520 -0.6583
 3199TIP3    H231089   5.142   3.658  16.246  0.5666  2.4342 -1.1520
 3200TIP3   OH231090   1.530   3.670  15.529 -0.4322  0.5393 -0.5290
 3200TIP3    H131091   1.543   3.582  15.565 -3.1601 -0.2984 -1.3110
 3200TIP3    H231092   1.529   3.728  15.606  0.7246 -0.1928  0.0541
 3201TIP3   OH231093   3.915   2.930  11.142  0.4644 -0.1834  0.4275
 3201TIP3    H131094   3.918   2.835  11.138  2.9812 -0.2427  1.9965
 3201TIP3    H231095   3.883   2.950  11.230  1.8296  0.3480  0.8350
 3202TIP3   OH231096   5.143   3.094  12.164  0.1474 -0.2300 -0.7637
 3202TIP3    H131097   5.200   3.020  12.144 -0.2885 -0.2666 -1.9315
 3202TIP3    H231098   5.055   3.063  12.146 -0.1190  0.2776 -0.3534
 3203TIP3   OH231099   2.612   5.554  13.729 -0.7777 -0.3505  0.3371
 3203TIP3    H131100   2.630   5.569  13.637 -0.5850 -1.1613  0.2300
 3203TIP3    H231101   2.517   5.539  13.733 -1.2065  2.0410  0.6311
 3204TIP3   OH231102   2.314   1.430  11.451  0.5342 -0.1358 -0.1495
 3204TIP3    H131103   2.380   1.445  11.384 -1.5990  1.3965 -2.0732
 3204TIP3    H231104   2.261   1.510  11.451 -3.2627 -2.4025 -1.0946
 3205TIP3   OH231105   3.409   1.871   1.785  0.1221  0.2428 -0.3736
 3205TIP3    H131106   3.467   1.922   1.841  0.8959  0.5108 -1.3811
 3205TIP3    H231107   3.467   1.828   1.722 -0.5113 -1.8550  0.3808
 3206TIP3   OH231108   0.146   0.230   2.946 -0.2600  0.0480  0.3961
 3206TIP3    H131109   0.177   0.148   2.908 -0.1704  0.3709 -0.2439
 3206TIP3    H231110   0.063   0.248   2.901 -0.0981  0.4920  0.2663
 3207TIP3   OH231111   2.886   0.766  14.107  0.5049  0.1130 -0.4275
 3207TIP3    H131112   2.889   0.847  14.158  1.0466  0.4923 -1.0530
 3207TIP3    H231113   2.918   0.790  14.021 -0.6359 -0.4684 -1.0375
 3208TIP3   OH231114   2.054   5.899  16.749 -0.7005 -0.7316  0.6908
 3208TIP3    H131115   2.085   5.989  16.739  0.3320 -1.0143  1.2360
 3208TIP3    H231116   2.133   5.846  16.754 -1.2958 -1.7444 -0.0867
 3209TIP3   OH231117   1.515   4.715   0.456 -0.3330  0.0398 -0.0827
 3209TIP3    H131118   1.553   4.650   0.397  0.2564  0.5257 -0.2493
 3209TIP3    H231119   1.441   4.670   0.497 -2.6372  0.5188 -3.3268
 3210TIP3   OH231120   0.436   1.369   0.179  0.0912  0.9538 -0.4674
 3210TIP3    H131121   0.380   1.314   0.234 -0.6568  1.5742 -0.5967
 3210TIP3    H231122   0.498   1.307   0.139 -0.0233  0.3607  0.2578
 3211TIP3   OH231123   5.501   0.485  12.063  0.0729  0.1695  0.4033
 3211TIP3    H131124   5.498   0.411  12.003  2.6677 -0.7489  1.2917
 3211TIP3    H231125   5.421   0.477  12.115 -2.2066  0.9475 -2.6936
 3212TIP3   OH231126   6.153   0.015   1.205 -0.2863  0.4167 -0.0411
 3212TIP3    H131127   6.172   0.012   1.298 -2.4383  3.0583  0.6163
 3212TIP3    H231128   6.194   0.096   1.174  0.5038 -0.4743 -1.4793
 3213TIP3   OH231129   1.057   2.716   0.279 -0.1000 -0.0955 -0.1645
 3213TIP3    H131130   0.978   2.699   0.228 -0.4270 -0.9789  0.6129
 3213TIP3    H231131   1.025   2.737   0.367  0.5359 -0.9581  0.2926
 3214TIP3   OH231132   4.185   3.484  15.065  0.1537  0.5520 -0.5966
 3214TIP3    H131133   4.279   3.469  15.073 -0.2575 -1.7671  0.6711
 3214TIP3    H231134   4.177   3.545  14.991  2.5631 -0.3325 -1.7003
 3215TIP3   OH231135   5.499   4.942  13.559  0.0756 -0.0312  0.1628
 3215TIP3    H131136   5.458   4.978  13.638 -3.1454  1.6249 -2.0487
 3215TIP3    H231137   5.580   4.994  13.549 -0.4647  1.0920  1.3162
 3216TIP3   OH231138   4.634   6.387  11.647 -0.6864  0.0364 -0.0423
 3216TIP3    H131139   4.563   6.351  11.700  0.4168 -0.3217  1.2291
 3216TIP3    H231140   4.596   6.396  11.559 -1.6938 -2.0662  0.1185
 3217TIP3   OH231141   1.082   5.016   3.653 -0.0347  0.3758 -0.1864
 3217TIP3    H131142   1.006   5.064   3.621  0.0462  0.1829 -0.6790
 3217TIP3    H231143   1.060   4.924   3.641  0.1271  0.3099  0.0123
 3218TIP3   OH231144   0.196   4.514  15.452 -0.4032 -0.4710  0.1757
 3218TIP3    H131145   0.272   4.460  15.473 -0.5340  0.0640  2.1972
 3218TIP3    H231146   0.121   4.455  15.463 -0.3475 -0.9046 -1.4862
 3219TIP3   OH231147   5.824   0.262   2.384  0.6933 -0.8171  0.4078
 3219TIP3    H131148   5.772   0.207   2.325  1.1168 -1.0817  0.2726
 3219TIP3    H231149   5.831   0.211   2.465  1.5688 -1.2340  0.0885
 3220TIP3   OH231150   4.590   5.633   3.852  0.0898 -0.2352 -0.4230
 3220TIP3    H131151   4.636   5.552   3.871 -1.1446 -0.7629  0.4626
 3220TIP3    H231152   4.653   5.702   3.874  0.2248 -0.9174  1.4806
 3221TIP3   OH231153   5.313   3.603   4.870  0.1308  0.0732 -0.1526
 3221TIP3    H131154   5.365   3.573   4.796  0.3503 -2.2017  0.8399
 3221TIP3    H231155   5.222   3.596   4.839  0.2642  1.7299 -1.0578
 3222TIP3   OH231156   4.106   3.355   6.159  0.5903 -0.5558 -0.0187
 3222TIP3    H131157   4.052   3.418   6.206  1.0056 -0.8233  0.8364
 3222TIP3    H231158   4.095   3.273   6.207  1.3152 -0.7481 -0.1723
 3223TIP3   OH231159   1.061   0.599  16.157  0.1861  0.0490  0.1776
 3223TIP3    H131160   1.132   0.593  16.220  0.8913  0.4199 -0.5650
 3223TIP3    H231161   0.985   0.628  16.208  0.5382 -0.4228  0.9888
 3224TIP3   OH231162   2.760   1.656  11.488 -0.5247  0.3419 -0.1727
 3224TIP3    H131163   2.714   1.652  11.404 -1.0401  1.2729  0.0450
 3224TIP3    H231164   2.833   1.716  11.473  0.6041 -1.0437 -0.4858
 3225TIP3   OH231165   2.823   4.491   5.741 -0.0730  0.5466  0.6984
 3225TIP3    H131166   2.741   4.457   5.776  0.1340  1.2882  1.9633
 3225TIP3    H231167   2.883   4.416   5.746 -0.4961  0.1797  0.3690
 3226TIP3   OH231168   1.880   4.859  12.267  0.1766 -0.3423  0.5520
 3226TIP3    H131169   1.800   4.911  12.266  1.0710  1.0828 -0.0236
 3226TIP3    H231170   1.853   4.772  12.238 -1.2331 -0.0098  0.8213
 3227TIP3   OH231171   2.005   4.645   2.705 -0.2145 -0.5063 -0.1079
 3227TIP3    H131172   1.947   4.571   2.686  1.3473 -2.0988  0.8964
 3227TIP3    H231173   2.001   4.654   2.800 -0.1674  0.5484 -0.1956
 3228TIP3   OH231174   1.494   2.825  14.773 -0.6884  0.2419  0.1366
 3228TIP3    H131175   1.450   2.853  14.853 -1.2990  0.3121 -0.2132
 3228TIP3    H231176   1.454   2.741  14.752  0.8988 -0.7697  0.9929
 3229TIP3   OH231177   6.442   5.303  12.555  0.0418  0.1928 -0.6646
 3229TIP3    H131178   6.377   5.372  12.565 -0.2530 -0.1142 -0.3899
 3229TIP3    H231179   6.390   5.222  12.550  0.2420  0.1405 -3.1472
 3230TIP3   OH231180   5.497   5.046   4.840  0.3438  0.5995  0.1033
 3230TIP3    H131181   5.486   4.998   4.921  0.8129 -1.0046 -0.7501
 3230TIP3    H231182   5.578   5.096   4.851  1.2400 -0.8075  0.0741
 3231TIP3   OH231183   3.225   0.535   6.463  0.2016  0.0994  0.0346
 3231TIP3    H131184   3.285   0.580   6.522  1.5304 -0.6937 -0.6785
 3231TIP3    H231185   3.138   0.570   6.486  1.2272  3.9674 -1.2749
 3232TIP3   OH231186   1.170   1.084  15.533 -0.2071 -0.5536 -0.0235
 3232TIP3    H131187   1.240   1.041  15.484  0.7586  0.8432  0.0808
 3232TIP3    H231188   1.112   1.120  15.467 -1.6091 -2.7792 -0.1382
 3233TIP3   OH231189   3.850   3.434   1.683 -0.5269  0.1128  0.0845
 3233TIP3    H131190   3.784   3.447   1.615 -1.0322 -1.2276  0.2914
 3233TIP3    H231191   3.874   3.342   1.675  1.6989  0.6662 -0.3117
 3234TIP3   OH231192   2.665   4.643  16.294  0.0049 -0.1057 -0.6048
 3234TIP3    H131193   2.697   4.677  16.211 -1.4117 -2.4028 -2.2372
 3234TIP3    H231194   2.574   4.674  16.300  0.8344  2.2826  1.5308
 3235TIP3   OH231195   6.629   2.772  14.318 -0.3176  0.2276  0.3631
 3235TIP3    H131196   6.613   2.719  14.396 -2.4594 -1.8770 -1.3542
 3235TIP3    H231197   6.606   2.714  14.245  2.4027  1.7864 -1.9338
 3236TIP3   OH231198   6.149   0.423  16.244 -0.2697 -0.7215 -0.0939
 3236TIP3    H131199   6.059   0.421  16.277  0.1246  0.1251  1.1186
 3236TIP3    H231200   6.160   0.512  16.211  0.3361 -0.6021  0.4186
 3237TIP3   OH231201   0.504   3.352  12.793 -0.2096 -0.0761 -0.2883
 3237TIP3    H131202   0.589   3.347  12.837  0.1401 -1.7014 -1.0606
 3237TIP3    H231203   0.440   3.354  12.865  0.3983 -1.6803  0.3413
 3238TIP3   OH231204   5.783   3.123  11.623 -0.5689  0.1019  0.0675
 3238TIP3    H131205   5.822   3.210  11.630  0.3503 -0.4301  2.4852
 3238TIP3    H231206   5.830   3.080  11.552  0.9219  0.6479  0.6978
 3239TIP3   OH231207   0.069   4.060  15.119  0.0730 -0.0127 -0.2070
 3239TIP3    H131208   0.094   4.059  15.212  0.8255  0.5938 -0.3946
 3239TIP3    H231209   0.143   4.102  15.075  0.1261 -1.1151 -1.2087
 3240TIP3   OH231210   4.104   6.162  15.626 -0.2837 -0.3819  0.0053
 3240TIP3    H131211   4.027   6.219  15.630  0.6921  0.9233  0.7916
 3240TIP3    H231212   4.126   6.145  15.718  1.0200  0.1978 -0.1807
 3241TIP3   OH231213   5.413   3.180   4.772 -0.1728 -0.1163  0.7117
 3241TIP3    H131214   5.339   3.153   4.718  0.2566 -0.6783  0.4006
 3241TIP3    H231215   5.476   3.108   4.766  1.6430  1.4825 -1.3344
 3242TIP3   OH231216   6.476   1.745  12.003 -0.2990 -0.4297 -0.2374
 3242TIP3    H131217   6.483   1.650  11.998  1.3079 -0.4762  1.6057
 3242TIP3    H231218   6.393   1.761  12.047 -0.8650 -0.9225 -1.0898
 3243TIP3   OH231219   6.645   5.215  12.121 -0.3172  0.0753 -0.2882
 3243TIP3    H131220   6.677   5.274  12.052  0.2579 -0.7848 -0.7870
 3243TIP3    H231221   6.654   5.265  12.202 -0.8867  1.0582 -0.8224
 3244TIP3   OH231222   3.215   5.676  15.019  0.9120 -0.2132  0.2267
 3244TIP3    H131223   3.166   5.632  15.089 -1.1400  0.0949 -0.9364
 3244TIP3    H231224   3.264   5.605  14.977 -1.6006 -1.3429 -1.0068
 3245TIP3   OH231225   0.694   5.775  15.296 -0.0444 -0.1582  0.1034
 3245TIP3    H131226   0.704   5.741  15.207 -2.4222 -1.3811  0.2226
 3245TIP3    H231227   0.682   5.697  15.350  1.0287  0.5827  1.4723
 3246TIP3   OH231228   0.603   4.500   1.569 -0.3759  0.0080 -0.0283
 3246TIP3    H131229   0.512   4.490   1.541 -0.2111  0.4359 -0.7508
 3246TIP3    H231230   0.622   4.421   1.617 -1.2104  0.0184  0.3374
 3247TIP3   OH231231   1.362   2.659   1.127  0.1590  0.7153  0.0969
 3247TIP3    H131232   1.292   2.648   1.062  0.6531  0.5438 -0.4203
 3247TIP3    H231233   1.319   2.695   1.204 -0.1480  2.7638 -0.9756
 3248TIP3   OH231234   1.936   6.742   0.719  0.3895 -0.1921 -0.1500
 3248TIP3    H131235   1.859   6.774   0.767 -0.2000  4.5565 -3.6183
 3248TIP3    H231236   1.913   6.751   0.627  3.5844 -3.0925 -1.4660
 3249TIP3   OH231237   6.150   1.362  11.595 -0.6010  0.0188  0.1024
 3249TIP3    H131238   6.151   1.394  11.504 -2.5065  1.0152  0.3663
 3249TIP3    H231239   6.163   1.441  11.648  0.5051 -0.5600  0.7163
 3250TIP3   OH231240   6.528   3.041  14.567 -0.7809 -0.3370  0.2053
 3250TIP3    H131241   6.489   2.960  14.601 -1.2533  0.0825  0.6975
 3250TIP3    H231242   6.452   3.094  14.541 -0.5520  0.4676  1.1092
 3251TIP3   OH231243   0.837   6.447  15.414  0.1014  0.3480 -0.4364
 3251TIP3    H131244   0.923   6.478  15.387  0.6552 -0.0203  0.8281
 3251TIP3    H231245   0.829   6.474  15.505 -0.3321 -1.2527  0.0284
 3252TIP3   OH231246   4.834   4.258  16.384  0.4627 -0.1222  0.0410
 3252TIP3    H131247   4.759   4.250  16.442  0.6296 -1.2398  0.1406
 3252TIP3    H231248   4.907   4.282  16.441 -0.1012  2.5942 -0.2855
 3253TIP3   OH231249   1.407   3.508  14.917 -0.0004  0.2423  0.2179
 3253TIP3    H131250   1.500   3.528  14.916 -0.1002  0.7419 -1.5019
 3253TIP3    H231251   1.397   3.444  14.989  1.5735  0.4815  0.6798
 3254TIP3   OH231252   2.753   6.048   5.643  0.1047 -0.4064 -0.3860
 3254TIP3    H131253   2.714   6.105   5.709  0.1267 -0.7096 -0.1095
 3254TIP3    H231254   2.794   6.108   5.581  0.6154 -0.1386  0.2010
 3255TIP3   OH231255   3.742   2.746  13.745 -0.2187 -0.5199  0.7037
 3255TIP3    H131256   3.747   2.664  13.794 -1.0232 -0.0895  1.5498
 3255TIP3    H231257   3.693   2.805  13.803  0.0330  0.4446 -0.0410
 3256TIP3   OH231258   4.595   5.004  16.096 -0.4992  0.0136 -0.5192
 3256TIP3    H131259   4.627   4.914  16.103 -1.7425 -0.5610 -1.7114
 3256TIP3    H231260   4.500   4.995  16.089 -0.7816  1.5291  0.8268
 3257TIP3   OH231261   1.103   4.726  13.511 -0.6524  0.3234 -0.3393
 3257TIP3    H131262   1.021   4.687  13.542 -1.8884  2.2523 -0.9885
 3257TIP3    H231263   1.108   4.810  13.557  1.1543  0.1269 -0.0949
 3258TIP3   OH231264   2.025   1.574   1.406  0.3389 -0.4463  0.1910
 3258TIP3    H131265   2.070   1.600   1.325  0.5260 -0.6308  0.2356
 3258TIP3    H231266   2.059   1.634   1.473  1.9323 -1.7623  0.6247
 3259TIP3   OH231267   0.476   1.837   4.660  0.0400 -0.2478  0.3029
 3259TIP3    H131268   0.418   1.761   4.670  0.5284 -0.6777 -0.0274
 3259TIP3    H231269   0.417   1.912   4.661 -0.9972 -0.7898 -3.2100
 3260TIP3   OH231270   3.531   4.451  15.615 -0.0494 -0.2235  0.0666
 3260TIP3    H131271   3.450   4.502  15.609  0.5026  0.9653  1.9188
 3260TIP3    H231272   3.590   4.491  15.551 -0.6992 -0.7130 -0.8618
 3261TIP3   OH231273   4.279   1.969  11.068  0.0009  0.0920 -0.1489
 3261TIP3    H131274   4.212   2.031  11.097 -1.1226 -0.4571 -1.4787
 3261TIP3    H231275   4.360   2.002  11.107 -0.8479  1.4230  0.5612
 3262TIP3   OH231276   4.736   2.241   3.006 -0.6374 -0.1515  0.6677
 3262TIP3    H131277   4.806   2.255   2.943 -0.9574 -0.4256  0.2484
 3262TIP3    H231278   4.715   2.329   3.039  0.2944 -0.1313  1.2268
 3263TIP3   OH231279   5.154   2.421   4.021  0.0358  0.6909  0.3290
 3263TIP3    H131280   5.123   2.511   4.036  1.2977  1.3156 -0.6464
 3263TIP3    H231281   5.081   2.366   4.048 -0.5988  1.9914  1.4013
 3264TIP3   OH231282   0.665   0.335  10.645 -0.5071 -0.2502  0.1362
 3264TIP3    H131283   0.709   0.251  10.659  0.9459 -0.2032 -3.2400
 3264TIP3    H231284   0.573   0.312  10.638 -0.2310 -1.4637  0.0890
 3265TIP3   OH231285   0.155   2.514   5.499 -0.1272  0.9512 -0.1224
 3265TIP3    H131286   0.067   2.481   5.479 -0.4692  2.6314 -1.6819
 3265TIP3    H231287   0.143   2.569   5.577 -0.5952  1.5572 -0.6029
 3266TIP3   OH231288   1.072   4.386   5.445  0.8526 -0.4446 -0.1362
 3266TIP3    H131289   1.097   4.294   5.438 -0.2120 -0.6685 -1.4550
 3266TIP3    H231290   1.081   4.420   5.356 -0.4859  0.2372 -0.0343
 3267TIP3   OH231291   2.573   5.813  11.840 -0.0664  0.0141 -0.0707
 3267TIP3    H131292   2.532   5.743  11.890 -1.1431  1.4203  1.1202
 3267TIP3    H231293   2.650   5.773  11.800 -0.4161 -1.7179  0.9130
 3268TIP3   OH231294   3.523   0.791  12.661  0.2311 -0.5082 -0.1141
 3268TIP3    H131295   3.472   0.862  12.698 -0.2732 -1.4936  1.1641
 3268TIP3    H231296   3.505   0.795  12.567 -0.8837  0.1854  0.1096
 3269TIP3   OH231297   4.718   0.544  13.185  0.0990 -0.9274  0.6610
 3269TIP3    H131298   4.769   0.521  13.108 -3.1766  0.2346 -2.1303
 3269TIP3    H231299   4.754   0.627  13.214 -0.6126  0.3676 -1.8469
 3270TIP3   OH231300   0.771   2.587   1.262  0.0416 -0.4314  0.4977
 3270TIP3    H131301   0.735   2.573   1.349 -0.5774  0.0412  0.3252
 3270TIP3    H231302   0.865   2.576   1.272  0.4473  3.1774  1.9932
 3271TIP3   OH231303   5.323   2.108  12.272 -0.4310  0.1137 -0.4079
 3271TIP3    H131304   5.293   2.031  12.223  2.9486 -0.4319 -1.8609
 3271TIP3    H231305   5.265   2.111  12.348 -1.2308 -3.3843 -0.6967
 3272TIP3   OH231306   6.170   4.041   0.489 -0.3468 -0.3065  0.6123
 3272TIP3    H131307   6.082   4.005   0.477 -0.6512  0.2753  1.0725
 3272TIP3    H231308   6.182   4.045   0.584  1.3091 -3.0815  0.6295
 3273TIP3   OH231309   5.863   3.966  11.244  0.4038 -0.5640 -0.0496
 3273TIP3    H131310   5.800   4.034  11.222  1.0630 -0.7955 -3.1136
 3273TIP3    H231311   5.945   3.996  11.205  1.3062 -1.9978  0.6629
 3274TIP3   OH231312   1.346   3.275  11.141 -0.3521  0.2409  0.4379
 3274TIP3    H131313   1.439   3.266  11.161  0.2049  1.4956 -1.3524
 3274TIP3    H231314   1.339   3.252  11.048 -1.6379  1.2716  0.2478
 3275TIP3   OH231315   3.443   6.127   1.770 -0.3040  0.6834  0.1039
 3275TIP3    H131316   3.402   6.128   1.856 -1.9276  0.1196 -0.6238
 3275TIP3    H231317   3.510   6.196   1.774  2.2259 -1.6638  2.9544
 3276TIP3   OH231318   1.588   3.031  13.461  0.2372  0.5278  0.5908
 3276TIP3    H131319   1.542   3.110  13.433 -2.5646 -1.5267 -1.1377
 3276TIP3    H231320   1.525   2.985  13.517  1.7138 -0.5880  1.4198
 3277TIP3   OH231321   0.371   2.986  15.335  0.5549 -0.1790  0.5226
 3277TIP3    H131322   0.454   3.034  15.334  0.0653  0.7109  0.9027
 3277TIP3    H231323   0.377   2.924  15.263  1.9493 -0.8294  1.1664
 3278TIP3   OH231324   0.118   1.186   0.716 -0.1813  0.1840 -0.2348
 3278TIP3    H131325   0.070   1.268   0.710 -0.8523 -0.1475  0.4703
 3278TIP3    H231326   0.064   1.130   0.771 -0.8353 -1.5345 -2.4729
 3279TIP3   OH231327   2.421   2.941  16.378  0.0306  0.9292  0.3952
 3279TIP3    H131328   2.385   2.973  16.295 -1.1890 -0.7139  0.2498
 3279TIP3    H231329   2.513   2.921  16.359 -0.3267  0.2351 -0.6741
 3280TIP3   OH231330   1.624   6.081   2.395 -0.7521  0.1048  0.2287
 3280TIP3    H131331   1.592   6.083   2.485  2.6369  5.1731  1.7527
 3280TIP3    H231332   1.715   6.053   2.402 -0.5063  0.2463 -1.6805
 3281TIP3   OH231333   4.277   5.698  17.097 -0.2156  0.0816  0.6157
 3281TIP3    H131334   4.186   5.674  17.116 -0.5806  0.2382 -0.8239
 3281TIP3    H231335   4.301   5.641  17.024  0.8892 -0.0179  1.0424
 3282TIP3   OH231336   5.604   6.169   4.323  0.3187 -0.3490 -0.4991
 3282TIP3    H131337   5.519   6.187   4.283  0.0936 -0.0872  0.0815
 3282TIP3    H231338   5.613   6.236   4.391  1.5935  0.4665 -1.4364
 3283TIP3   OH231339   0.104   3.917   5.247  0.5308  0.3589 -0.3289
 3283TIP3    H131340   0.138   3.828   5.247 -0.3002  0.0161  0.4535
 3283TIP3    H231341   0.009   3.906   5.240  0.5070  1.2541 -1.9382
 3284TIP3   OH231342   6.595   4.260  16.847  0.2798 -0.3823  0.0230
 3284TIP3    H131343   6.520   4.319  16.840  1.3150  0.8000 -2.5204
 3284TIP3    H231344   6.574   4.188  16.788  1.3251  0.2724 -1.2081
 3285TIP3   OH231345   0.222   2.618  15.873 -0.3565  0.7527  0.1570
 3285TIP3    H131346   0.202   2.710  15.854  1.8048  1.5178  1.2217
 3285TIP3    H231347   0.300   2.600  15.820  1.0578  0.5140  2.2299
 3286TIP3   OH231348   2.909   5.454  14.649 -0.4848  0.3048 -0.3349
 3286TIP3    H131349   2.869   5.499  14.724 -1.0427 -0.2235 -0.3077
 3286TIP3    H231350   2.845   5.463  14.579  0.5244  1.7710 -1.0960
 3287TIP3   OH231351   6.389   5.824  11.459  0.6092  0.4466  0.3014
 3287TIP3    H131352   6.429   5.907  11.485  1.4671  0.2193 -0.2263
 3287TIP3    H231353   6.460   5.777  11.415  0.2917 -0.8128  1.1032
 3288TIP3   OH231354   4.843   0.828  14.650  0.2608 -0.1625 -0.1836
 3288TIP3    H131355   4.803   0.810  14.736  1.3371 -0.5844  0.2408
 3288TIP3    H231356   4.868   0.920  14.654 -0.7785  0.1555 -0.5163
 3289TIP3   OH231357   6.662   5.334   5.935 -0.4997 -0.2540  0.1641
 3289TIP3    H131358   6.572   5.303   5.923 -0.8197  0.7448 -0.0852
 3289TIP3    H231359   6.687   5.302   6.021 -0.6157 -1.6579 -0.2887
 3290TIP3   OH231360   2.011   0.694  16.333 -0.5922 -0.1157 -0.0276
 3290TIP3    H131361   1.939   0.746  16.369 -1.4951 -2.0848  1.1514
 3290TIP3    H231362   2.087   0.751  16.340 -1.1061  0.3484  3.2932
 3291TIP3   OH231363   0.050   2.668   3.228  0.0479  0.5272 -0.4461
 3291TIP3    H131364   0.022   2.743   3.176 -2.8707 -0.0384  0.1535
 3291TIP3    H231365   0.062   2.597   3.165 -0.7069  0.5755 -0.6488
 3292TIP3   OH231366   4.207   5.317   6.285  0.0882 -0.0254 -0.3145
 3292TIP3    H131367   4.233   5.408   6.269  0.2307 -0.0090  0.0070
 3292TIP3    H231368   4.259   5.267   6.222 -1.5979  0.2808 -2.0479
 3293TIP3   OH231369   1.925   4.184  11.323 -0.4273 -0.5982  0.4949
 3293TIP3    H131370   1.940   4.222  11.236  2.0755  0.4659  1.3179
 3293TIP3    H231371   1.846   4.227  11.354 -1.0813 -0.6268 -1.0318
 3294TIP3   OH231372   5.753   6.423   4.736  0.4425 -0.0531 -0.0808
 3294TIP3    H131373   5.818   6.356   4.757 -0.7885 -0.7081  2.0375
 3294TIP3    H231374   5.804   6.497   4.704  2.2591 -0.5590  1.4323
 3295TIP3   OH231375   1.330   0.494  12.124  0.7695  0.2308 -0.2452
 3295TIP3    H131376   1.279   0.549  12.182  2.2344  0.7911  0.5686
 3295TIP3    H231377   1.410   0.544  12.107  2.1268 -1.5515  0.4777
 3296TIP3   OH231378   3.336   1.843   2.607 -0.0015  0.3282 -0.0280
 3296TIP3    H131379   3.246   1.877   2.612 -0.0932 -0.0698  1.4973
 3296TIP3    H231380   3.334   1.784   2.531 -0.9024  0.6729 -0.2939
 3297TIP3   OH231381   0.339   6.837  14.812 -0.3580 -0.1215  0.3563
 3297TIP3    H131382   0.412   6.860  14.870  1.4278 -0.0300 -1.8046
 3297TIP3    H231383   0.325   6.914  14.758 -2.0591 -0.1644  0.6751
 3298TIP3   OH231384   0.946   5.045   6.131  0.3928  0.2642 -0.2278
 3298TIP3    H131385   0.992   4.962   6.118 -0.9817 -0.5605 -0.0150
 3298TIP3    H231386   1.009   5.112   6.105  1.3011 -0.8732 -1.0288
 3299TIP3   OH231387   3.470   6.833   5.935 -0.1566  0.5210  0.0737
 3299TIP3    H131388   3.564   6.819   5.930 -0.2872 -0.1483 -0.7598
 3299TIP3    H231389   3.449   6.886   5.859 -0.7368 -1.1405 -0.9871
 3300TIP3   OH231390   5.118   4.410  13.712 -0.2838 -0.3822 -0.5342
 3300TIP3    H131391   5.204   4.420  13.753  0.4759  0.6007 -2.2404
 3300TIP3    H231392   5.126   4.331  13.659 -1.0167 -1.2426  0.6095
 3301TIP3   OH231393   2.861   0.631   2.933 -0.7082  0.3279  0.0227
 3301TIP3    H131394   2.780   0.606   2.889 -0.0895 -0.3997 -0.7329
 3301TIP3    H231395   2.846   0.608   3.025 -1.9457  1.7151  0.2103
 3302TIP3   OH231396   1.573   2.860   5.692  0.1902  0.4331 -0.4353
 3302TIP3    H131397   1.637   2.859   5.621  1.5540  2.3187  0.6881
 3302TIP3    H231398   1.602   2.930   5.750  0.8009 -2.6795  3.4950
 3303TIP3   OH231399   5.162   0.868  12.266  0.3822 -0.2085  0.2758
 3303TIP3    H131400   5.133   0.907  12.184  0.2622 -1.1757 -0.1554
 3303TIP3    H231401   5.253   0.895  12.275 -0.0671  1.2772  0.6854
 3304TIP3   OH231402   6.005   0.013  12.386  0.5585 -0.1490 -0.1358
 3304TIP3    H131403   6.086  -0.035  12.405  0.0203 -1.4294 -0.9739
 3304TIP3    H231404   6.032   0.081  12.324  0.9769 -0.6139 -0.4685
 3305TIP3   OH231405   1.082   2.902  13.528 -0.7041  0.4258 -0.6257
 3305TIP3    H131406   1.080   2.987  13.572  1.5836  1.0567 -1.5857
 3305TIP3    H231407   1.101   2.923  13.437  1.1206 -1.1095 -0.6738
 3306TIP3   OH231408   3.342   5.973  16.942 -0.0100  0.8011  0.2041
 3306TIP3    H131409   3.428   5.947  16.975  0.1096 -1.0064 -1.3314
 3306TIP3    H231410   3.285   5.970  17.018  0.7209 -0.8592  0.7357
 3307TIP3   OH231411   0.118   1.460   5.918  0.7924 -0.0785 -0.5559
 3307TIP3    H131412   0.088   1.499   5.836  1.1297  2.3262  0.3797
 3307TIP3    H231413   0.062   1.384   5.930 -0.8945  0.8865 -1.8337
 3308TIP3   OH231414   2.361   5.087  16.680  0.2496  0.1782 -0.7862
 3308TIP3    H131415   2.355   5.030  16.604  2.2149  0.0232 -0.8700
 3308TIP3    H231416   2.430   5.149  16.659 -1.4396  2.2962 -0.4634
 3309TIP3   OH231417   1.458   2.469  13.657 -0.0592  0.1761 -0.3229
 3309TIP3    H131418   1.476   2.381  13.689 -4.0577 -0.1635  1.5461
 3309TIP3    H231419   1.477   2.526  13.731  0.3853  0.6604 -0.7943
 3310TIP3   OH231420   1.135   5.265  14.782  0.4595  0.1559  0.5000
 3310TIP3    H131421   1.069   5.258  14.713 -0.0939 -1.0321  1.1293
 3310TIP3    H231422   1.194   5.335  14.752  0.7380 -0.9170 -1.5752
 3311TIP3   OH231423   2.843   4.216  12.347 -0.4971  0.2978  0.3506
 3311TIP3    H131424   2.824   4.185  12.258 -1.1317  0.6653  0.3538
 3311TIP3    H231425   2.932   4.250  12.341 -1.5953  3.2753 -0.9946
 3312TIP3   OH231426   4.059   6.326  13.662  0.4025  0.8044  0.0012
 3312TIP3    H131427   4.047   6.315  13.568  0.6437 -0.8510  0.1245
 3312TIP3    H231428   4.121   6.399  13.670  1.1136  0.3630 -1.1803
 3313TIP3   OH231429   3.110   4.214  14.835  0.0324 -0.8321  0.2337
 3313TIP3    H131430   3.043   4.282  14.840  1.6092  0.7732  0.7976
 3313TIP3    H231431   3.101   4.178  14.746 -0.4261  0.6183 -0.3405
 3314TIP3   OH231432   2.530   5.426  16.759 -0.0061 -0.1679 -0.5236
 3314TIP3    H131433   2.535   5.383  16.845 -0.3682  3.7170  1.6718
 3314TIP3    H231434   2.621   5.444  16.735  0.0240  1.5004  0.6906
 3315TIP3   OH231435   2.087   4.307   5.935 -0.5399 -0.3313  0.4498
 3315TIP3    H131436   2.031   4.231   5.920 -1.4604  0.6975 -1.6991
 3315TIP3    H231437   2.090   4.315   6.030 -0.0081 -3.3041  0.7959
 3316TIP3   OH231438   4.449   2.602  10.608  0.2963 -0.0330 -0.0088
 3316TIP3    H131439   4.493   2.530  10.564 -1.2754 -0.5221 -0.8800
 3316TIP3    H231440   4.390   2.560  10.670 -1.3505  0.3902 -1.2009
 3317TIP3   OH231441   0.345   0.774   5.451 -0.1047  0.1103  0.0118
 3317TIP3    H131442   0.404   0.719   5.401 -0.1937 -0.4571  0.5105
 3317TIP3    H231443   0.336   0.729   5.535 -1.0064  0.3340  0.0521
 3318TIP3   OH231444   1.587   1.230  11.570 -0.1900 -0.2800  0.0928
 3318TIP3    H131445   1.638   1.174  11.512  0.5323  2.1386 -1.7804
 3318TIP3    H231446   1.628   1.220  11.656  0.7167 -1.5929 -0.4659
 3319TIP3   OH231447   2.854   6.186   3.527  0.1085 -0.3377  0.4752
 3319TIP3    H131448   2.761   6.209   3.532  0.3280  0.7483 -0.0311
 3319TIP3    H231449   2.887   6.238   3.454  0.2306 -3.9106 -2.2597
 3320TIP3   OH231450   4.407   6.352  17.141  0.6559  0.2490  0.3405
 3320TIP3    H131451   4.478   6.408  17.174  0.9493 -0.7747  1.5568
 3320TIP3    H231452   4.450   6.270  17.118  0.3913  0.7822 -2.3863
 3321TIP3   OH231453   3.756   3.827   0.021  0.1092  0.0179 -0.3254
 3321TIP3    H131454   3.777   3.735   0.007  1.3994 -0.2632  2.6584
 3321TIP3    H231455   3.802   3.874  -0.049  1.1547 -1.4552 -0.6627
 3322TIP3   OH231456   2.464   1.127  15.854 -0.2273 -0.0874 -0.3046
 3322TIP3    H131457   2.386   1.117  15.908  0.3497  0.1974  0.6083
 3322TIP3    H231458   2.467   1.049  15.800 -1.8028  0.4589 -1.2261
 3323TIP3   OH231459   3.266   1.892   6.544 -0.0549  0.1329  0.2804
 3323TIP3    H131460   3.323   1.933   6.479  1.7120 -2.8663 -0.2413
 3323TIP3    H231461   3.325   1.861   6.612 -1.2219 -1.6502  0.5361
 3324TIP3   OH231462   3.325   3.430   5.200  0.3314  0.2145 -0.0830
 3324TIP3    H131463   3.385   3.498   5.230  0.2976 -0.6530  2.0725
 3324TIP3    H231464   3.249   3.436   5.259 -1.0654  0.2824 -1.7878
 3325TIP3   OH231465   5.773   0.457  14.989  0.0760  0.1111  0.1138
 3325TIP3    H131466   5.750   0.415  14.906  0.6708  1.5049 -0.7924
 3325TIP3    H231467   5.691   0.496  15.019 -0.2601 -0.8469  0.4691
 3326TIP3   OH231468   3.948   3.242  16.953 -0.2294  0.2911  0.0493
 3326TIP3    H131469   3.960   3.197  17.037  0.2984  0.5015  0.0914
 3326TIP3    H231470   3.863   3.212  16.922 -0.1185 -0.3400  0.3249
 3327TIP3   OH231471   6.528   2.280  16.342  0.0372 -0.5733  0.7037
 3327TIP3    H131472   6.485   2.225  16.408 -0.9560 -0.7808 -0.0794
 3327TIP3    H231473   6.525   2.228  16.262  0.3014  0.0825  0.2532
 3328TIP3   OH231474   6.584   0.130  17.002 -0.2995  0.3549  0.2628
 3328TIP3    H131475   6.594   0.088  17.088  0.8407  1.2580  0.5980
 3328TIP3    H231476   6.659   0.098  16.951  0.4238  1.6909  0.4296
 3329TIP3   OH231477   4.017   5.542  15.650 -0.3869  0.7773  0.0913
 3329TIP3    H131478   4.106   5.559  15.618 -0.7638  2.9895  0.1042
 3329TIP3    H231479   3.967   5.520  15.571 -0.7347  3.7084 -0.6066
 3330TIP3   OH231480   5.757   1.278  10.610 -0.2802 -0.0012 -0.4296
 3330TIP3    H131481   5.835   1.223  10.612 -0.1144  0.2131 -0.8819
 3330TIP3    H231482   5.684   1.216  10.612 -0.1157 -0.1721  1.0734
 3331TIP3   OH231483   2.238   3.033  16.569  0.5435  0.0264 -0.0837
 3331TIP3    H131484   2.297   2.991  16.505  0.3414  0.9918 -0.9286
 3331TIP3    H231485   2.278   3.118  16.586 -0.8652  0.9296 -1.0835
 3332TIP3   OH231486   4.565   3.513   2.360  0.1267  0.3161  0.6822
 3332TIP3    H131487   4.505   3.506   2.434 -1.1591 -0.2150 -0.3865
 3332TIP3    H231488   4.543   3.597   2.320 -0.2106 -0.0836  0.0263
 3333TIP3   OH231489   2.475   5.483   1.114 -0.4985 -0.2865 -0.6661
 3333TIP3    H131490   2.418   5.514   1.184 -0.8889 -3.6968  0.7183
 3333TIP3    H231491   2.414   5.454   1.045 -0.1750  0.8736 -1.4814
 3334TIP3   OH231492   1.693   3.870  16.943  0.4825  0.1933 -0.1213
 3334TIP3    H131493   1.755   3.892  16.874 -1.4932 -0.2068 -2.1578
 3334TIP3    H231494   1.620   3.931  16.930 -0.5936 -0.8738  0.6243
 3335TIP3   OH231495   3.941   0.301  13.344 -0.2843 -0.1689 -0.0379
 3335TIP3    H131496   4.016   0.355  13.321 -0.7642  0.2451 -0.6525
 3335TIP3    H231497   3.865   0.355  13.323 -0.7714 -1.0942 -0.7342
 3336TIP3   OH231498   2.255   0.706  11.746 -0.7902  1.0271  0.0631
 3336TIP3    H131499   2.300   0.622  11.760 -0.5605  1.4002  1.8275
 3336TIP3    H231500   2.322   0.763  11.709 -0.6139  0.7745 -0.0133
 3337TIP3   OH231501   6.019   3.182   4.018 -0.0579  0.0477  0.0513
 3337TIP3    H131502   6.013   3.270   3.980  1.4802  1.3947  2.6001
 3337TIP3    H231503   6.078   3.135   3.960  1.0976  1.5446 -0.0509
 3338TIP3   OH231504   0.379   4.808   3.859 -0.0837 -0.5391  0.5287
 3338TIP3    H131505   0.412   4.782   3.945 -1.6988 -0.9590  1.0562
 3338TIP3    H231506   0.331   4.889   3.876  0.8830  0.2334 -0.2769
 3339TIP3   OH231507   0.694   3.911  14.416 -0.3140  0.4080 -0.1222
 3339TIP3    H131508   0.733   3.837  14.463  0.7714  0.3571 -1.0258
 3339TIP3    H231509   0.603   3.913  14.443 -0.2508 -1.0050  0.2425
 3340TIP3   OH231510   5.648   2.921  12.838 -0.2309  0.4323 -0.3697
 3340TIP3    H131511   5.646   2.970  12.920  1.0784 -1.2424  0.7196
 3340TIP3    H231512   5.654   2.829  12.864 -0.0092 -0.1751 -2.3502
 3341TIP3   OH231513   0.672   0.132  15.786 -0.1181 -0.4884  0.1575
 3341TIP3    H131514   0.630   0.069  15.845 -0.1560  0.0326  0.6914
 3341TIP3    H231515   0.657   0.096  15.698  1.5293 -2.2486  0.5397
 3342TIP3   OH231516   3.122   2.417  11.028  0.8585  0.0136  0.0597
 3342TIP3    H131517   3.121   2.503  11.070 -2.2130  0.6743 -1.1285
 3342TIP3    H231518   3.080   2.359  11.091  1.7450 -0.3771  0.3155
 3343TIP3   OH231519   6.107   3.596   0.098 -0.0496  0.7986 -0.0603
 3343TIP3    H131520   6.081   3.546   0.021 -0.7605 -0.2942  0.8502
 3343TIP3    H231521   6.106   3.688   0.069  0.5421  0.3565 -1.5573
 3344TIP3   OH231522   4.946   0.062  10.781 -0.7862  0.1220  0.2381
 3344TIP3    H131523   4.879   0.000  10.754 -0.6165 -0.4713  1.1340
 3344TIP3    H231524   4.956   0.121  10.706 -1.0730 -0.8228 -0.5681
 3345TIP3   OH231525   1.938   4.464   1.571  0.4546  0.0871 -0.3614
 3345TIP3    H131526   1.967   4.410   1.497 -0.3268  2.0077 -2.1557
 3345TIP3    H231527   1.973   4.551   1.553  0.1135  0.6579  1.4990
 3346TIP3   OH231528   0.662   1.684  12.472  0.1374  1.2076  0.0702
 3346TIP3    H131529   0.751   1.648  12.477  0.1215  1.2735  1.1416
 3346TIP3    H231530   0.644   1.691  12.378  1.3642  1.4366 -0.1673
 3347TIP3   OH231531   3.350   3.749   1.660 -0.5006  0.2084  0.2826
 3347TIP3    H131532   3.308   3.831   1.685  0.9654  1.0829  0.0082
 3347TIP3    H231533   3.382   3.712   1.742  1.4514  1.4567  0.1730
 3348TIP3   OH231534   4.362   6.835   2.567 -0.2848  0.2355 -0.1580
 3348TIP3    H131535   4.341   6.900   2.633  0.7515  0.4084  0.0312
 3348TIP3    H231536   4.332   6.872   2.485 -1.7616 -0.0634  0.2193
 3349TIP3   OH231537   5.243   1.845  13.826 -0.3433 -0.6494  0.2238
 3349TIP3    H131538   5.304   1.780  13.794  0.3530 -0.0880  0.3765
 3349TIP3    H231539   5.222   1.899  13.750 -1.5991 -1.5602 -0.0991
 3350TIP3   OH231540   0.407   6.087  15.684 -0.1607 -0.1742  0.2490
 3350TIP3    H131541   0.440   6.135  15.760 -1.1780 -1.4951  1.5855
 3350TIP3    H231542   0.416   5.994  15.708  1.3230 -0.7468 -2.0572
 3351TIP3   OH231543   5.297   0.863   5.898  0.4126 -0.2208  0.8397
 3351TIP3    H131544   5.374   0.920   5.901  0.1457  0.1846  0.2260
 3351TIP3    H231545   5.275   0.847   5.989  0.9866 -0.0154  1.0197
 3352TIP3   OH231546   0.709   2.902  11.114  0.4590 -0.1182  0.3872
 3352TIP3    H131547   0.781   2.859  11.069  0.7464  0.9856 -0.2576
 3352TIP3    H231548   0.678   2.838  11.178  0.3423 -1.5566 -1.0656
 3353TIP3   OH231549   2.056   2.474   3.861 -0.4701  0.3728 -0.2253
 3353TIP3    H131550   2.133   2.430   3.898 -0.8138  0.2653  0.3799
 3353TIP3    H231551   2.091   2.553   3.820  0.0727 -0.1148 -0.7349
 3354TIP3   OH231552   2.066   1.769   3.224  0.4323 -0.4578  0.2752
 3354TIP3    H131553   2.062   1.675   3.207 -1.5762 -0.5349  0.9099
 3354TIP3    H231554   2.031   1.779   3.313  1.3023  0.8452  0.5089
 3355TIP3   OH231555   1.047   5.119  11.149 -0.9746  0.5245  0.2120
 3355TIP3    H131556   0.998   5.091  11.226 -0.3804  0.4973  0.5801
 3355TIP3    H231557   1.041   5.045  11.088  0.2595 -0.2824  1.0295
 3356TIP3   OH231558   0.208   6.764   1.234 -0.1722  0.0768  0.3161
 3356TIP3    H131559   0.264   6.765   1.312 -0.9066  1.4638  0.8624
 3356TIP3    H231560   0.121   6.743   1.267 -0.2597 -0.6539 -0.3362
 3357TIP3   OH231561   2.602   0.715  11.761  0.3282  0.1479 -0.1415
 3357TIP3    H131562   2.587   0.807  11.784 -2.4647 -0.2298 -0.0405
 3357TIP3    H231563   2.591   0.669  11.844 -0.1887 -0.4210 -0.5224
 3358TIP3   OH231564   1.635   2.289   4.612 -0.7227 -0.6509 -0.1670
 3358TIP3    H131565   1.581   2.228   4.661  0.1607 -2.1000 -0.9149
 3358TIP3    H231566   1.575   2.329   4.548 -1.0274 -1.8741 -0.6728
 3359TIP3   OH231567   4.411   5.072   1.006  0.2462 -0.2332  1.0722
 3359TIP3    H131568   4.380   5.131   0.937 -2.1876  1.0188  3.0907
 3359TIP3    H231569   4.494   5.110   1.034 -0.3477  1.1442  1.0279
 3360TIP3   OH231570   1.845   6.740  16.810  0.6123 -0.3681  0.0071
 3360TIP3    H131571   1.896   6.706  16.736 -1.3465 -1.1932 -1.0200
 3360TIP3    H231572   1.786   6.669  16.834 -0.7254  0.8631  0.5203
 3361TIP3   OH231573   1.192   6.390  11.644 -0.1069  0.1645  0.3537
 3361TIP3    H131574   1.257   6.356  11.704  0.2491 -1.5029 -0.8902
 3361TIP3    H231575   1.229   6.473  11.612  0.8496 -0.1804  0.5460
 3362TIP3   OH231576   1.899   1.459  11.933  0.1396  0.3799  0.1674
 3362TIP3    H131577   1.863   1.416  12.011 -0.9899 -1.2236 -1.1670
 3362TIP3    H231578   1.860   1.546  11.933 -2.7299 -0.8086 -0.4444
 3363TIP3   OH231579   0.903   5.541  16.679 -0.2821  0.0374 -0.3351
 3363TIP3    H131580   0.894   5.506  16.590 -0.5609  1.5713 -0.9263
 3363TIP3    H231581   0.983   5.593  16.677 -1.3299  1.7330 -0.2925
 3364TIP3   OH231582   3.622   4.501   2.595 -0.3335 -0.6998  0.4759
 3364TIP3    H131583   3.536   4.476   2.627 -0.5699 -0.6459 -0.1035
 3364TIP3    H231584   3.679   4.498   2.672 -1.2559  1.2342  1.2906
 3365TIP3   OH231585   1.744   4.164   1.037  0.3273 -0.2334  0.5588
 3365TIP3    H131586   1.700   4.114   1.105 -0.3851 -0.4505 -0.0389
 3365TIP3    H231587   1.725   4.256   1.058  0.2244 -0.2939  0.7264
 3366TIP3   OH231588   4.888   3.357  17.150  0.7622  0.3015 -0.0810
 3366TIP3    H131589   4.969   3.364  17.202  0.2457 -0.8074  0.9086
 3366TIP3    H231590   4.909   3.293  17.081  0.5104 -0.6015  0.6582
 3367TIP3   OH231591   1.346   4.999   4.754 -0.4059 -0.0099 -0.2390
 3367TIP3    H131592   1.313   4.998   4.844  1.8256  1.6363  0.6948
 3367TIP3    H231593   1.289   5.061   4.708 -1.0385 -0.2221  0.2464
 3368TIP3   OH231594   0.831   0.604  13.889 -0.0855 -0.2361  0.7561
 3368TIP3    H131595   0.764   0.560  13.942  0.8265 -1.3483  1.0429
 3368TIP3    H231596   0.864   0.536  13.831  1.2294  0.0999  1.0637
 3369TIP3   OH231597   1.261   4.153   2.851  0.1666  0.2231 -0.2328
 3369TIP3    H131598   1.335   4.198   2.811 -0.5282  0.8648 -0.8239
 3369TIP3    H231599   1.186   4.208   2.832 -0.7227 -1.1962 -0.9904
 3370TIP3   OH231600   2.962   4.801   0.070 -0.0584 -0.0143 -0.1931
 3370TIP3    H131601   2.897   4.748   0.024 -0.5312  0.4122 -0.0225
 3370TIP3    H231602   3.024   4.828   0.002 -0.4092  0.0945 -0.4690
 3371TIP3   OH231603   1.861   1.952  16.919 -0.2239  0.4744 -0.2815
 3371TIP3    H131604   1.804   1.980  16.991  0.0099 -0.4999  0.3061
 3371TIP3    H231605   1.833   1.862  16.900  1.2044 -0.0976  0.1522
 3372TIP3   OH231606   5.356   2.639   4.285  0.3725  0.2787 -0.2564
 3372TIP3    H131607   5.327   2.549   4.303 -0.1867  0.6340  0.6758
 3372TIP3    H231608   5.450   2.637   4.302  0.4059 -0.1949 -0.4824
 3373TIP3   OH231609   4.923   4.575  12.442 -0.2129  0.2136 -0.4606
 3373TIP3    H131610   5.010   4.550  12.475 -0.2215 -1.2296 -1.4178
 3373TIP3    H231611   4.876   4.606  12.519  0.9694  0.5218  0.1715
 3374TIP3   OH231612   4.348   0.782   4.686 -0.0421  0.2942  0.2231
 3374TIP3    H131613   4.275   0.841   4.706 -0.0967  0.0878  0.6435
 3374TIP3    H231614   4.323   0.741   4.603  0.3153  1.3627 -0.4438
 3375TIP3   OH231615   6.225   3.605  16.886 -0.1169 -0.1865 -0.1340
 3375TIP3    H131616   6.222   3.557  16.804 -0.5354 -0.8001  0.2400
 3375TIP3    H231617   6.179   3.687  16.867  2.4928  1.1101 -1.4180
 3376TIP3   OH231618   5.916   0.134  13.213  0.0553  0.0960 -0.0712
 3376TIP3    H131619   5.931   0.202  13.147 -0.2340 -1.3173 -1.6579
 3376TIP3    H231620   5.986   0.147  13.277 -1.1217  3.1046  0.7926
 3377TIP3   OH231621   5.131   1.317   4.936  0.3319 -0.1485 -0.1203
 3377TIP3    H131622   5.187   1.382   4.978  0.5237 -0.3852 -0.0067
 3377TIP3    H231623   5.101   1.261   5.008 -0.1707  0.0638 -0.1575
 3378TIP3   OH231624   3.144   2.836   5.182 -0.1678  0.6824  0.1720
 3378TIP3    H131625   3.229   2.868   5.212 -0.0046 -0.5641  1.1124
 3378TIP3    H231626   3.154   2.741   5.180 -2.3779  0.2770  3.0697
 3379TIP3   OH231627   3.725   5.415   1.727  0.0777 -0.1935  0.3418
 3379TIP3    H131628   3.798   5.428   1.787  0.0232  0.9065  0.1906
 3379TIP3    H231629   3.651   5.391   1.784 -0.1247  1.4225  0.8042
 3380TIP3   OH231630   1.014   3.335   4.139 -0.2044  0.0385  0.0511
 3380TIP3    H131631   0.980   3.424   4.126 -0.5554 -0.1508 -0.3550
 3380TIP3    H231632   0.992   3.314   4.230  0.1333  0.4720  0.2373
 3381TIP3   OH231633   5.195   5.717   5.365 -0.5164  0.3913 -0.0905
 3381TIP3    H131634   5.151   5.706   5.281 -0.0577  0.0295 -0.2924
 3381TIP3    H231635   5.287   5.733   5.342 -0.7608  2.5539  0.2791
 3382TIP3   OH231636   2.212   2.683  15.506  0.7453 -0.5899 -0.1861
 3382TIP3    H131637   2.282   2.685  15.571 -0.5352 -1.6523  1.3075
 3382TIP3    H231638   2.131   2.685  15.558 -0.4034  1.8111 -1.8670
 3383TIP3   OH231639   4.327   1.948   3.124 -0.3819  0.3804  0.3601
 3383TIP3    H131640   4.385   1.981   3.192  1.2054 -1.6013  0.0565
 3383TIP3    H231641   4.350   1.998   3.046  0.0693  0.4256  0.5195
 3384TIP3   OH231642   5.354   5.864  17.065  0.1872  0.0121 -0.0326
 3384TIP3    H131643   5.388   5.783  17.103  0.1612  0.2087  0.4135
 3384TIP3    H231644   5.298   5.902  17.133 -0.2789  0.1050 -0.4626
 3385TIP3   OH231645   2.434   5.081  11.801  0.4100 -0.5768 -0.5431
 3385TIP3    H131646   2.507   5.118  11.751 -2.0421  0.7197 -3.4891
 3385TIP3    H231647   2.435   5.128  11.884  1.6617  0.9292 -1.3547
 3386TIP3   OH231648   1.378   1.240   1.922  0.5113 -0.1296  0.0448
 3386TIP3    H131649   1.463   1.218   1.958  0.9379  0.6492 -0.4507
 3386TIP3    H231650   1.382   1.211   1.831 -0.2056 -1.1977  0.3326
 3387TIP3   OH231651   0.852   5.266   4.856 -0.1243  0.0769  0.3633
 3387TIP3    H131652   0.793   5.313   4.915 -0.6164 -0.9634  0.7258
 3387TIP3    H231653   0.806   5.184   4.837 -0.9785  1.1794 -3.1267
 3388TIP3   OH231654   4.235   0.708   3.280 -0.6715  0.1476  0.2145
 3388TIP3    H131655   4.142   0.684   3.283 -0.6809  0.3231  1.6512
 3388TIP3    H231656   4.243   0.781   3.342  0.3721  0.3538 -0.1482
 3389TIP3   OH231657   1.873   2.629   3.138 -0.0188  0.6163  0.1476
 3389TIP3    H131658   1.784   2.662   3.145 -0.3520  0.0622 -1.1577
 3389TIP3    H231659   1.913   2.683   3.069  0.6820  0.9040  0.7674
 3390TIP3   OH231660   5.570   1.433  15.994 -0.1122 -0.0254 -0.1866
 3390TIP3    H131661   5.663   1.419  16.011 -0.2984  0.1878  1.1192
 3390TIP3    H231662   5.567   1.513  15.943  0.4204 -0.0084 -0.1998
 3391TIP3   OH231663   3.917   4.787   3.766 -0.4344 -0.0029 -0.6199
 3391TIP3    H131664   3.879   4.875   3.778 -0.0628  0.2824 -1.4701
 3391TIP3    H231665   3.860   4.746   3.701  0.3965  0.2451 -1.5223
 3392TIP3   OH231666   0.756   3.088  17.079  0.0197  0.6487  0.0354
 3392TIP3    H131667   0.800   3.073  16.996  0.8558  1.0095  0.4011
 3392TIP3    H231668   0.815   3.146  17.127 -1.0872  1.5410  0.3480
 3393TIP3   OH231669   5.259   6.429  12.230 -0.1095 -0.1057  0.8635
 3393TIP3    H131670   5.340   6.427  12.282  0.0106  1.2222  0.7489
 3393TIP3    H231671   5.250   6.339  12.198  2.0842  0.0112 -0.2785
 3394TIP3   OH231672   2.221   6.423   3.122 -0.2328 -0.0163  0.2056
 3394TIP3    H131673   2.168   6.362   3.174 -2.9546  1.0549 -1.1034
 3394TIP3    H231674   2.249   6.490   3.185 -2.0177  0.3378  0.6802
 3395TIP3   OH231675   5.669   6.778   5.873 -0.2299  0.0822 -0.2850
 3395TIP3    H131676   5.705   6.739   5.793 -1.7611 -2.1567  0.0511
 3395TIP3    H231677   5.580   6.745   5.879 -0.9799  2.1387  1.1133
 3396TIP3   OH231678   2.054   4.520  11.830 -0.3596  0.0587  0.3855
 3396TIP3    H131679   2.103   4.527  11.911 -0.9016 -0.8079  0.8112
 3396TIP3    H231680   2.091   4.443  11.786 -0.1484  0.4505 -0.1314
 3397TIP3   OH231681   3.031   4.539  16.352  0.6967 -0.7139 -0.0839
 3397TIP3    H131682   2.966   4.526  16.282  0.1446 -1.0189  0.4755
 3397TIP3    H231683   3.002   4.618  16.397  1.7153  0.1651 -0.9041
 3398TIP3   OH231684   1.054   6.630  11.307 -0.0567  0.7569  0.0213
 3398TIP3    H131685   1.084   6.546  11.273  0.8916  0.1250  2.2001
 3398TIP3    H231686   1.103   6.642  11.389 -0.8269  3.0093  0.2369
 3399TIP3   OH231687   0.703   2.824   5.361 -0.1074  0.0717 -0.6542
 3399TIP3    H131688   0.745   2.739   5.355  1.6697  0.9187 -0.9120
 3399TIP3    H231689   0.759   2.874   5.421 -1.6872  0.7563  0.3208
 3400TIP3   OH231690   2.245   1.077  13.682 -0.3939 -0.0559 -0.1071
 3400TIP3    H131691   2.296   0.999  13.661  2.0982  1.8092 -1.6328
 3400TIP3    H231692   2.179   1.082  13.613 -0.8579 -0.9908  0.2476
 3401TIP3   OH231693   4.467   2.154   2.905 -0.0466  0.5880 -0.1234
 3401TIP3    H131694   4.476   2.069   2.862  0.3372  0.2504  0.6226
 3401TIP3    H231695   4.556   2.178   2.931 -0.2619  0.8445  0.3917
 3402TIP3   OH231696   1.443   4.396  12.766  0.3050 -0.1337 -0.2688
 3402TIP3    H131697   1.437   4.440  12.681 -0.9396 -0.2053 -0.2420
 3402TIP3    H231698   1.528   4.353  12.765  0.6996  0.6237 -1.1051
 3403TIP3   OH231699   1.329   1.042   5.137 -0.0520  0.3354  0.1775
 3403TIP3    H131700   1.304   0.975   5.073  1.0473  0.4898 -0.4543
 3403TIP3    H231701   1.247   1.086   5.160 -0.4227  0.6315 -1.5531
 3404TIP3   OH231702   1.088   6.593   3.757 -0.5112  0.1934 -0.1481
 3404TIP3    H131703   1.145   6.546   3.819  0.8466 -0.1263 -1.5812
 3404TIP3    H231704   1.025   6.527   3.728 -0.0691 -0.1306 -0.3882
 3405TIP3   OH231705   0.600   1.197   1.316  0.1491  0.2790  0.1864
 3405TIP3    H131706   0.631   1.114   1.281  0.0036  0.7065 -0.9842
 3405TIP3    H231707   0.530   1.224   1.257 -1.5685  0.0158  1.9839
 3406TIP3   OH231708   3.754   3.865  15.883  0.0536  0.5724 -0.6892
 3406TIP3    H131709   3.737   3.901  15.796  1.6289  0.1263 -1.2040
 3406TIP3    H231710   3.780   3.775  15.868  1.7265  0.8733  0.0858
 3407TIP3   OH231711   3.916   2.468  14.651 -0.4677 -0.2352  0.4072
 3407TIP3    H131712   4.005   2.468  14.616 -1.2909 -0.4467 -1.8608
 3407TIP3    H231713   3.908   2.552  14.696  0.9062 -0.2569  0.7385
 3408TIP3   OH231714   2.642   0.888   5.016 -0.6368  0.1218 -0.2822
 3408TIP3    H131715   2.675   0.918   4.931  0.8280  1.1571  0.6095
 3408TIP3    H231716   2.623   0.796   5.003  0.0034  0.1506 -1.6157
 3409TIP3   OH231717   0.646   3.258  14.076 -0.9961  0.7191  0.3428
 3409TIP3    H131718   0.633   3.346  14.113 -0.4399  0.2248  1.7580
 3409TIP3    H231719   0.557   3.222  14.069 -1.2540  1.4895 -0.5216
 3410TIP3   OH231720   5.115   5.205   5.663  0.0230 -0.3024 -0.1638
 3410TIP3    H131721   5.177   5.204   5.590 -0.4731 -1.3956 -0.5908
 3410TIP3    H231722   5.052   5.137   5.641  0.5893 -1.5845  1.9041
 3411TIP3   OH231723   0.557   2.837   2.127 -0.3204 -0.6062  0.4030
 3411TIP3    H131724   0.512   2.795   2.054  0.9545 -1.2526 -0.0493
 3411TIP3    H231725   0.629   2.886   2.086  0.0646 -0.5110  1.1701
 3412TIP3   OH231726   2.205   5.886   3.637  0.3077 -0.3474  0.1504
 3412TIP3    H131727   2.216   5.907   3.544 -2.2826 -2.6685 -0.8074
 3412TIP3    H231728   2.149   5.956   3.670 -0.2599 -0.4708 -0.5248
 3413TIP3   OH231729   6.207   2.147   4.509  0.1052  0.0575 -0.0097
 3413TIP3    H131730   6.169   2.226   4.470 -0.2524 -1.0070 -1.9548
 3413TIP3    H231731   6.135   2.109   4.559 -0.1934  0.1447 -0.3667
 3414TIP3   OH231732   2.161   3.775  13.537  0.5376 -0.1040  0.3446
 3414TIP3    H131733   2.235   3.833  13.550  2.0032 -1.6178 -0.8127
 3414TIP3    H231734   2.121   3.767  13.624  1.4244  1.0980  0.8890
 3415TIP3   OH231735   6.041   5.431  16.782 -0.1993  0.3788  0.5541
 3415TIP3    H131736   6.055   5.497  16.714 -3.6441 -0.8569 -1.6322
 3415TIP3    H231737   5.988   5.476  16.848 -1.6285  0.2096 -0.4143
 3416TIP3   OH231738   3.262   3.165  13.462 -0.0276  0.2875  0.7518
 3416TIP3    H131739   3.311   3.139  13.540  2.0471 -1.5687 -1.0423
 3416TIP3    H231740   3.188   3.104  13.458  0.9451 -0.8781  0.2672
 3417TIP3   OH231741   5.025   4.592  14.804  0.1436 -0.2514 -0.0153
 3417TIP3    H131742   4.975   4.674  14.809  0.0664 -0.3776  1.6935
 3417TIP3    H231743   5.055   4.588  14.713  0.0919  1.6420 -0.1527
 3418TIP3   OH231744   2.145   6.296  15.479  0.3401  0.4858 -0.3608
 3418TIP3    H131745   2.222   6.347  15.506 -1.1703  2.8144 -0.1212
 3418TIP3    H231746   2.163   6.272  15.388  1.9611 -0.3552  0.1366
 3419TIP3   OH231747   3.591   5.049  16.300 -0.0899  0.1321  0.2301
 3419TIP3    H131748   3.597   5.041  16.205 -0.8866  0.3350  0.1579
 3419TIP3    H231749   3.669   5.003  16.333  0.5914  0.7205 -0.5359
 3420TIP3   OH231750   1.946   2.316  11.719  0.2930 -0.1268 -0.1761
 3420TIP3    H131751   1.902   2.386  11.671  1.0180 -0.7574 -1.8559
 3420TIP3    H231752   2.017   2.359  11.765 -0.6917  0.5628  0.7495
 3421TIP3   OH231753   5.763   2.622  14.161 -0.6914 -0.2452 -0.3169
 3421TIP3    H131754   5.813   2.542  14.148 -1.4000 -0.4667 -1.9171
 3421TIP3    H231755   5.816   2.673  14.223  0.0231 -1.7081  0.3299
 3422TIP3   OH231756   1.633   5.525   5.952  0.6280  0.4508 -0.3890
 3422TIP3    H131757   1.718   5.569   5.940 -0.0273  1.8251 -0.1279
 3422TIP3    H231758   1.653   5.450   6.007  1.5689  1.1746  0.2927
 3423TIP3   OH231759   4.798   4.219  15.326  0.3785 -0.4435  0.4354
 3423TIP3    H131760   4.875   4.219  15.383  1.1005  0.6336 -0.5009
 3423TIP3    H231761   4.819   4.282  15.258 -0.9142 -0.9150 -0.4284
 3424TIP3   OH231762   0.816   0.761  14.784  0.4012 -0.8086  0.3469
 3424TIP3    H131763   0.767   0.830  14.829 -0.5120 -1.1236 -0.1362
 3424TIP3    H231764   0.876   0.727  14.851  2.8578  2.2221 -0.0971
 3425TIP3   OH231765   5.195   4.979  16.788 -0.4397  0.0137  0.4298
 3425TIP3    H131766   5.192   4.936  16.703 -1.5900  2.6370 -0.9480
 3425TIP3    H231767   5.132   4.930  16.841 -1.3463 -0.3434 -0.9165
 3426TIP3   OH231768   1.114   0.877  13.112  0.2601 -0.1222  0.5660
 3426TIP3    H131769   1.098   0.942  13.043  0.4707 -1.9033 -1.2482
 3426TIP3    H231770   1.130   0.796  13.065  1.1417 -1.2809  2.7285
 3427TIP3   OH231771   4.764   1.044  10.881 -0.9403 -0.0333  0.0627
 3427TIP3    H131772   4.763   1.126  10.832  0.3611 -1.5627 -2.7195
 3427TIP3    H231773   4.706   0.986  10.833 -1.5557 -0.9135  1.7729
 3428TIP3   OH231774   3.237   3.063   2.659  0.5362 -0.2513 -0.3168
 3428TIP3    H131775   3.248   2.985   2.713 -1.0124 -1.2638 -1.3656
 3428TIP3    H231776   3.228   3.134   2.722 -1.1465 -1.3753  0.8017
 3429TIP3   OH231777   3.430   3.638   1.900 -0.0600 -0.0663  0.2954
 3429TIP3    H131778   3.382   3.687   1.966  0.4315 -0.0504  0.6447
 3429TIP3    H231779   3.397   3.549   1.907 -0.5078  0.0792  0.0840
 3430TIP3   OH231780   1.691   0.122  13.860  0.0572  0.4200 -0.0566
 3430TIP3    H131781   1.643   0.133  13.942  0.6829 -0.8853  0.5157
 3430TIP3    H231782   1.660   0.038  13.826  0.9427  0.2017 -0.3516
 3431TIP3   OH231783   2.051   1.659   1.979 -0.1024  0.0807  0.6376
 3431TIP3    H131784   2.002   1.598   2.034 -1.7964 -1.5106 -2.3409
 3431TIP3    H231785   1.985   1.723   1.949  0.5165  0.3284 -0.2511
 3432TIP3   OH231786   2.375   6.211  12.384  0.3406  0.4181  0.3189
 3432TIP3    H131787   2.397   6.206  12.477  1.7125 -1.7016 -0.0586
 3432TIP3    H231788   2.457   6.193  12.339 -0.5925  0.0336 -1.2934
 3433TIP3   OH231789   5.713   5.804  11.021 -0.0652  0.5473  0.2973
 3433TIP3    H131790   5.710   5.726  10.965 -0.7811 -0.7236  2.0121
 3433TIP3    H231791   5.772   5.863  10.975  0.4318 -0.9533 -1.1301
 3434TIP3   OH231792   1.107   5.115   3.050  0.1421 -0.8025 -0.3755
 3434TIP3    H131793   1.190   5.074   3.027  0.1523 -1.5663  0.9185
 3434TIP3    H231794   1.067   5.137   2.966  2.2614  0.9192 -1.0273
 3435TIP3   OH231795   3.514   1.302   4.794  0.0892  0.2016  0.2270
 3435TIP3    H131796   3.559   1.279   4.713 -0.7972  1.4438 -0.6589
 3435TIP3    H231797   3.440   1.356   4.766  0.3029  1.4667  1.9299
 3436TIP3   OH231798   2.381   5.258   1.392  0.6081  0.4003 -0.0820
 3436TIP3    H131799   2.374   5.200   1.469 -1.4812 -0.4999 -0.8726
 3436TIP3    H231800   2.309   5.319   1.402 -0.4928 -0.5293 -1.9209
 3437TIP3   OH231801   2.967   5.349  13.807 -0.1192  0.7942  0.1700
 3437TIP3    H131802   3.033   5.284  13.787  0.8632  2.1686 -1.3219
 3437TIP3    H231803   2.892   5.299  13.840  0.1628 -1.1894 -1.9866
 3438TIP3   OH231804   5.811   3.110  15.044  0.1245  0.3567  0.1046
 3438TIP3    H131805   5.753   3.179  15.011  1.1838  0.8742 -0.7143
 3438TIP3    H231806   5.765   3.074  15.120 -0.4868  1.9007  0.4834
 3439TIP3   OH231807   0.441   3.888  14.455 -0.0321 -0.6044  0.6203
 3439TIP3    H131808   0.397   3.902  14.539 -0.6415 -0.1702  0.2335
 3439TIP3    H231809   0.429   3.795  14.437 -1.7959 -0.2939 -0.0180
 3440TIP3   OH231810   4.628   6.188  12.957 -0.9230  0.3784  0.5511
 3440TIP3    H131811   4.670   6.228  13.033 -0.1734 -0.0769  0.3934
 3440TIP3    H231812   4.651   6.095  12.963  0.4098  0.5581 -1.0114
 3441TIP3   OH231813   3.230   5.091  15.246  0.2538  0.4167 -0.5422
 3441TIP3    H131814   3.160   5.057  15.190 -0.4446  0.3911  0.3236
 3441TIP3    H231815   3.289   5.136  15.186  1.5799 -2.8077 -1.8707
 3442TIP3   OH231816   2.677   3.432  13.131  0.1179 -0.8014 -0.4756
 3442TIP3    H131817   2.661   3.338  13.119 -2.1188 -0.5984  0.3070
 3442TIP3    H231818   2.623   3.474  13.064 -1.3595 -0.0624  1.0931
 3443TIP3   OH231819   2.992   5.477  17.039  0.1230  0.2502 -0.2763
 3443TIP3    H131820   2.934   5.416  16.993  1.4847 -1.0462 -0.3681
 3443TIP3    H231821   3.053   5.508  16.971  0.5239  0.3450  0.1183
 3444TIP3   OH231822   6.804   1.830   2.155  1.1296 -0.3786 -0.4109
 3444TIP3    H131823   6.769   1.747   2.123  1.2164  0.1724 -2.0334
 3444TIP3    H231824   6.825   1.879   2.076  0.4122  1.4839  0.4779
 3445TIP3   OH231825   0.742   3.976  11.495  0.0880 -0.1055  0.4426
 3445TIP3    H131826   0.678   4.031  11.539 -0.2312 -0.6244  0.6295
 3445TIP3    H231827   0.695   3.937  11.421  0.6338  0.8050 -0.4104
 3446TIP3   OH231828   0.129   0.912   3.969 -0.2756 -0.2033  0.1111
 3446TIP3    H131829   0.192   0.846   4.000 -0.0521  0.0899  0.2825
 3446TIP3    H231830   0.105   0.960   4.048 -1.3435 -0.8433  0.1906
 3447TIP3   OH231831   1.974   0.748  13.147  0.0273  0.2080 -0.4093
 3447TIP3    H131832   1.946   0.752  13.239 -0.4951 -0.5325 -0.5346
 3447TIP3    H231833   1.906   0.795  13.099  0.2605  0.5262 -0.4349
 3448TIP3   OH231834   3.543   4.896   4.817  0.8887 -0.2719  0.0026
 3448TIP3    H131835   3.472   4.953   4.787  0.0053 -1.1042  0.4491
 3448TIP3    H231836   3.615   4.955   4.836  0.6819  0.5013 -1.4832
 3449TIP3   OH231837   4.276   4.119  13.717  0.5253 -0.4594  0.0483
 3449TIP3    H131838   4.192   4.088  13.750  1.1533 -0.0326  2.1825
 3449TIP3    H231839   4.273   4.100  13.623 -1.4451 -1.5632  0.2801
 3450TIP3   OH231840   0.682   4.688   1.775 -0.0030 -0.7566  0.0029
 3450TIP3    H131841   0.656   4.628   1.706  1.0823 -3.6883  1.9621
 3450TIP3    H231842   0.747   4.745   1.734 -0.4032 -1.4795 -1.7040
 3451TIP3   OH231843   3.269   4.636   3.470 -0.0876  0.6387  0.2005
 3451TIP3    H131844   3.214   4.655   3.546 -2.5269  2.0008 -1.7547
 3451TIP3    H231845   3.290   4.543   3.479 -1.8920  0.3037  1.5857
 3452TIP3   OH231846   4.283   3.910   0.687  0.1848 -0.2691  0.7581
 3452TIP3    H131847   4.237   3.828   0.667  0.4071 -1.3164  3.9591
 3452TIP3    H231848   4.369   3.899   0.646 -0.0077 -1.3797  0.6008
 3453TIP3   OH231849   5.399   2.937  13.517  0.2296  0.2329  0.7771
 3453TIP3    H131850   5.391   2.993  13.439  1.6048  0.8376  1.0404
 3453TIP3    H231851   5.315   2.946  13.561 -0.0892  0.9628  0.0591
 3454TIP3   OH231852   6.155   1.374   5.874  0.0407 -0.3331  0.0570
 3454TIP3    H131853   6.108   1.439   5.926 -1.2265  0.5552 -2.0519
 3454TIP3    H231854   6.104   1.293   5.886 -1.2963  0.2896 -1.1140
 3455TIP3   OH231855   5.772   0.345  13.568  0.0045  0.0652  0.3774
 3455TIP3    H131856   5.787   0.342  13.474 -0.8586  0.9836  0.1945
 3455TIP3    H231857   5.809   0.263  13.601  0.1673 -0.3413 -0.7774
 3456TIP3   OH231858   1.704   0.573   4.103 -0.2400  0.2427  0.3747
 3456TIP3    H131859   1.746   0.487   4.102 -2.4128 -0.8868 -0.3526
 3456TIP3    H231860   1.733   0.613   4.185  2.3280 -0.3425 -0.1650
 3457TIP3   OH231861   1.854   1.876   1.965 -0.1800  0.0678  0.5296
 3457TIP3    H131862   1.797   1.809   2.002  0.0269  0.2942  1.2554
 3457TIP3    H231863   1.830   1.956   2.010 -1.6764  0.8906 -1.5509
 3458TIP3   OH231864   6.294   3.693   3.890 -0.1277  0.3022 -0.0717
 3458TIP3    H131865   6.211   3.729   3.923 -0.7715  0.5195 -1.8015
 3458TIP3    H231866   6.336   3.655   3.967 -1.1068  1.5543  1.1453
 3459TIP3   OH231867   0.294   0.503   1.141 -0.4779  0.0958 -0.0032
 3459TIP3    H131868   0.323   0.550   1.062 -0.8081  1.0597  0.4292
 3459TIP3    H231869   0.216   0.455   1.112 -0.3543  0.1104 -0.3710
 3460TIP3   OH231870   4.923   5.629  12.150  0.0149 -0.5020 -0.4634
 3460TIP3    H131871   4.928   5.724  12.149  0.6520 -0.5291 -0.2457
 3460TIP3    H231872   4.865   5.607  12.077 -1.7722  0.1342  0.6832
 3461TIP3   OH231873   4.998   6.417  16.122 -0.0415  0.1311  0.2064
 3461TIP3    H131874   4.904   6.406  16.133  0.1339 -0.3271  1.3788
 3461TIP3    H231875   5.027   6.336  16.080 -0.2461  0.5415 -0.7610
 3462TIP3   OH231876   6.189   0.581   3.634  0.0645  0.4841 -0.1087
 3462TIP3    H131877   6.141   0.605   3.713  0.4716  0.3291  0.1852
 3462TIP3    H231878   6.281   0.597   3.654  0.1319  0.9175 -0.7226
 3463TIP3   OH231879   4.820   4.905  12.046  0.2144 -0.5264  0.2758
 3463TIP3    H131880   4.725   4.909  12.037  0.3323 -0.8389 -1.5878
 3463TIP3    H231881   4.837   4.817  12.082 -0.1240 -1.3884 -1.5522
 3464TIP3   OH231882   2.137   0.700  12.190  0.0173  0.1434  0.4494
 3464TIP3    H131883   2.106   0.709  12.100  0.6906 -0.4092  0.1571
 3464TIP3    H231884   2.069   0.648  12.233  0.9154 -1.8481 -0.4266
 3465TIP3   OH231885   4.113   0.697  11.180  0.1359 -0.3770  0.7163
 3465TIP3    H131886   4.140   0.718  11.269  2.9336 -1.0714  0.1512
 3465TIP3    H231887   4.188   0.650  11.143 -0.3166  1.0886 -2.4273
 3466TIP3   OH231888   1.620   1.205  16.183  0.0236  0.7191  0.0954
 3466TIP3    H131889   1.632   1.292  16.145 -0.8597 -0.0984 -2.2580
 3466TIP3    H231890   1.614   1.146  16.107  1.8796 -1.6136  1.5917
 3467TIP3   OH231891   5.274   5.600   6.637 -0.0567 -0.1602 -0.0683
 3467TIP3    H131892   5.215   5.525   6.649 -1.3523  0.7168 -0.7657
 3467TIP3    H231893   5.349   5.563   6.591 -0.4684 -1.1302  0.0102
 3468TIP3   OH231894   1.570   1.787  11.332 -0.3520 -0.0321 -0.5267
 3468TIP3    H131895   1.635   1.717  11.325 -0.9488 -0.5434 -1.1875
 3468TIP3    H231896   1.523   1.768  11.414 -0.5630 -0.4629 -0.7421
 3469TIP3   OH231897   5.112   1.334  10.918  0.3436  0.0957  0.1076
 3469TIP3    H131898   5.054   1.385  10.973  0.0547 -1.6612  1.5164
 3469TIP3    H231899   5.065   1.324  10.835  0.8211  2.8258 -0.5963
 3470TIP3   OH231900   0.036   5.256   4.188  0.0345  0.4626 -0.0635
 3470TIP3    H131901  -0.009   5.336   4.214 -1.6311  0.2434 -2.0193
 3470TIP3    H231902   0.088   5.281   4.112  1.1689  0.1214  0.5844
 3471TIP3   OH231903   4.085   1.932  13.414  0.2156 -0.1303 -0.3475
 3471TIP3    H131904   4.123   1.963  13.332 -1.6886  0.8285 -0.9194
 3471TIP3    H231905   4.041   1.850  13.391 -0.5388  0.2713 -0.3626
 3472TIP3   OH231906   0.163   3.418   1.902  0.1390  1.0642  0.1328
 3472TIP3    H131907   0.239   3.423   1.960  0.0963 -0.7437  0.4138
 3472TIP3    H231908   0.200   3.402   1.816  0.1041  0.9102  0.1462
 3473TIP3   OH231909   4.313   0.201  11.483  0.2174  0.0014  0.2348
 3473TIP3    H131910   4.347   0.256  11.553 -1.0162 -1.1820  1.8475
 3473TIP3    H231911   4.218   0.212  11.488  0.1079 -0.1426 -1.2400
 3474TIP3   OH231912   3.648   2.093   4.654  0.2114 -0.0118  0.3522
 3474TIP3    H131913   3.582   2.118   4.589  0.8797  1.2145  0.0978
 3474TIP3    H231914   3.731   2.109   4.610  0.6718 -0.4102  1.0711
 3475TIP3   OH231915   1.558   6.614  16.561 -0.6029  0.4587 -0.4956
 3475TIP3    H131916   1.647   6.641  16.539 -1.3969  2.2769 -1.7744
 3475TIP3    H231917   1.547   6.529  16.517 -0.4638  1.6647 -3.0517
 3476TIP3   OH231918   6.406   3.265   2.152  0.1793  0.4531  0.3784
 3476TIP3    H131919   6.419   3.282   2.059 -0.5527  2.1238  0.5313
 3476TIP3    H231920   6.325   3.311   2.173 -1.0653 -1.9876  1.3324
 3477TIP3   OH231921   4.211   1.985   4.594 -0.1201  0.2707 -0.0843
 3477TIP3    H131922   4.198   1.890   4.597 -0.4315  0.3318  1.3623
 3477TIP3    H231923   4.198   2.014   4.684 -0.5795  1.7760 -0.5961
 3478TIP3   OH231924   4.141   1.735   1.791 -0.0668  0.5209  0.5845
 3478TIP3    H131925   4.146   1.828   1.768 -2.3523  0.6068  0.1588
 3478TIP3    H231926   4.051   1.710   1.767  1.2816 -2.4929 -1.9422
 3479TIP3   OH231927   1.416   6.565   3.586 -0.0021 -0.0137  0.0534
 3479TIP3    H131928   1.491   6.507   3.572  0.3882  0.5617 -0.3292
 3479TIP3    H231929   1.365   6.523   3.654  2.0928  0.8936  2.3461
 3480TIP3   OH231930   6.687   1.167  14.762  0.0212 -0.2093  0.0479
 3480TIP3    H131931   6.767   1.131  14.800 -0.3430  0.4153  1.4471
 3480TIP3    H231932   6.680   1.254  14.800 -0.9596  0.0089 -0.6108
 3481TIP3   OH231933   4.604   1.420  13.862  0.0050 -0.0473  0.1804
 3481TIP3    H131934   4.509   1.418  13.858 -0.0838  1.8761  0.4092
 3481TIP3    H231935   4.624   1.476  13.937  1.3159 -0.1794 -0.0411
 3482TIP3   OH231936   2.104   6.140   3.673 -0.6091  0.2873  0.0045
 3482TIP3    H131937   2.017   6.135   3.713 -1.8315  0.5904 -2.4263
 3482TIP3    H231938   2.122   6.234   3.665 -0.5561  0.2378 -0.4878
 3483TIP3   OH231939   1.798   3.333  16.511 -0.1904 -0.2828 -0.3001
 3483TIP3    H131940   1.756   3.371  16.434  3.3439 -2.1472 -3.4766
 3483TIP3    H231941   1.891   3.332  16.489  0.8806 -2.1109  3.5273
 3484TIP3   OH231942   3.504   0.190   2.828 -0.2747  0.2618  0.0205
 3484TIP3    H131943   3.599   0.181   2.829 -0.1979  0.9311 -0.5163
 3484TIP3    H231944   3.478   0.171   2.738 -0.5607  0.8340 -0.0257
 3485TIP3   OH231945   6.511   2.036  10.559  0.2860  0.2445 -0.1754
 3485TIP3    H131946   6.528   1.957  10.610 -1.9116  0.4543  0.9590
 3485TIP3    H231947   6.464   2.005  10.481  1.5579  0.2015 -0.9589
 3486TIP3   OH231948   4.466   0.035  14.807 -0.2291  0.4494 -0.1135
 3486TIP3    H131949   4.414   0.020  14.728  0.3335 -0.0084 -0.4061
 3486TIP3    H231950   4.464  -0.049  14.853  0.2696  0.4189 -0.1453
 3487TIP3   OH231951   2.286   5.339   2.786 -0.3341  0.0058  0.5953
 3487TIP3    H131952   2.213   5.391   2.819 -1.5122  0.0654 -1.9010
 3487TIP3    H231953   2.353   5.403   2.760 -2.0309  0.5386 -3.0732
 3488TIP3   OH231954   5.374   5.622   1.655 -0.1589  0.0120 -0.3878
 3488TIP3    H131955   5.404   5.656   1.739  0.3475 -0.6806 -0.2802
 3488TIP3    H231956   5.318   5.548   1.679 -2.7454  1.7823 -0.5350
 3489TIP3   OH231957   6.672   0.493   2.714  0.6729 -0.5967 -0.1151
 3489TIP3    H131958   6.675   0.493   2.810  0.4696  1.5742 -0.0459
 3489TIP3    H231959   6.762   0.513   2.688  0.0679  2.5008 -0.1820
 3490TIP3   OH231960   1.248   0.182   0.896 -0.6152 -0.5730  0.0466
 3490TIP3    H131961   1.162   0.223   0.905 -0.5879 -0.6569  0.6913
 3490TIP3    H231962   1.239   0.097   0.937 -0.1039 -0.4182  0.4904
 3491TIP3   OH231963   4.417   4.729   2.287 -0.2070 -0.7451  0.2517
 3491TIP3    H131964   4.465   4.705   2.207 -0.8678  2.2131 -1.1835
 3491TIP3    H231965   4.480   4.780   2.338 -0.7578  0.2338 -0.0199
 3492TIP3   OH231966   2.060   3.340  17.153 -0.0361 -0.2941  0.1417
 3492TIP3    H131967   2.080   3.327  17.060  0.9777 -0.3876  0.3705
 3492TIP3    H231968   2.126   3.289  17.200  0.0198  0.4872  0.9336
 3493TIP3   OH231969   4.510   2.105   5.569  0.3652  0.2267 -0.5716
 3493TIP3    H131970   4.427   2.075   5.533 -0.2504 -0.1266  1.0901
 3493TIP3    H231971   4.566   2.028   5.568  0.1865  0.0917 -0.3201
 3494TIP3   OH231972   1.096   5.649  16.142  0.2871  0.1469 -0.5054
 3494TIP3    H131973   1.099   5.709  16.217  0.7417  0.2464 -0.5993
 3494TIP3    H231974   1.152   5.576  16.168  1.3831  0.7228 -1.2066
 3495TIP3   OH231975   0.330   0.305  14.721 -0.5144 -0.6740 -0.1283
 3495TIP3    H131976   0.422   0.282  14.707 -0.4347 -0.8779  0.7022
 3495TIP3    H231977   0.332   0.375  14.786 -0.9078 -0.1741 -0.6493
 3496TIP3   OH231978   3.550   6.783  15.881  0.2606 -0.4969  0.0642
 3496TIP3    H131979   3.467   6.814  15.916 -0.1893 -0.8437 -0.6753
 3496TIP3    H231980   3.552   6.690  15.902  0.5329 -0.4613  0.2049
 3497TIP3   OH231981   6.322   0.356   5.318  0.4402  0.2764  0.1319
 3497TIP3    H131982   6.288   0.408   5.391  0.4228  0.1833  0.1905
 3497TIP3    H231983   6.371   0.286   5.360 -2.3765 -1.8277  0.2226
 3498TIP3   OH231984   3.581   4.766  11.690  0.1551  0.0549 -0.1589
 3498TIP3    H131985   3.578   4.825  11.615  1.8432  0.9079  0.3795
 3498TIP3    H231986   3.613   4.820  11.762 -0.7954 -0.9044  1.0325
 3499TIP3   OH231987   5.837   2.260   0.531  0.2542 -0.1998  0.4456
 3499TIP3    H131988   5.835   2.324   0.603 -0.8721  0.3563 -0.0449
 3499TIP3    H231989   5.761   2.283   0.477  1.0922 -0.5814 -0.9471
 3500TIP3   OH231990   5.981   3.672   2.036 -0.2495  0.1821 -0.1247
 3500TIP3    H131991   5.961   3.594   1.985  0.4210 -0.0724 -0.0063
 3500TIP3    H231992   6.074   3.663   2.058  0.3397  1.8810 -1.6598
 3501TIP3   OH231993   3.485   0.230  16.193 -0.0866 -0.3775 -0.0639
 3501TIP3    H131994   3.393   0.239  16.220 -0.4601 -0.7109 -1.1661
 3501TIP3    H231995   3.499   0.135  16.191 -0.1015 -0.3690 -1.0904
 3502TIP3   OH231996   4.190   1.347   2.685 -0.3384 -0.7490  0.2090
 3502TIP3    H131997   4.168   1.258   2.713  0.4921 -1.3277 -0.9109
 3502TIP3    H231998   4.228   1.336   2.598  2.7009  0.3436  1.2616
 3503TIP3   OH231999   5.343   4.847   3.673 -0.1387  0.3477 -0.2847
 3503TIP3    H132000   5.356   4.896   3.591 -1.7664 -0.0411 -0.8283
 3503TIP3    H232001   5.429   4.847   3.715  0.4466  1.6701 -1.3744
 3504TIP3   OH232002   1.565   0.189   1.824  0.3335  0.4588 -0.5513
 3504TIP3    H132003   1.512   0.109   1.825  1.5904 -0.4322 -1.3865
 3504TIP3    H232004   1.523   0.247   1.887  0.5679 -1.6550  1.6742
 3505TIP3   OH232005   4.539   4.981  11.137  0.1470  0.1738 -0.5227
 3505TIP3    H132006   4.456   5.028  11.129 -0.7904 -1.1469  0.9533
 3505TIP3    H232007   4.566   4.963  11.047 -0.4296  1.8248 -1.0598
 3506TIP3   OH232008   1.283   2.918  16.543 -0.0582  0.0246  0.1414
 3506TIP3    H132009   1.291   2.854  16.473 -0.2895 -1.2766  1.2664
 3506TIP3    H232010   1.325   2.878  16.618 -0.3627  1.1185  0.9341
 3507TIP3   OH232011   4.176   3.310  12.343 -0.0628 -0.1689  0.3514
 3507TIP3    H132012   4.118   3.351  12.280  0.6570 -2.0136 -1.6149
 3507TIP3    H232013   4.262   3.309  12.300  0.2965 -2.1353  0.9910
 3508TIP3   OH232014   4.737   0.073  16.585 -0.0857  0.4467 -0.3768
 3508TIP3    H132015   4.656   0.123  16.579 -1.2922 -1.3543 -0.1553
 3508TIP3    H232016   4.789   0.100  16.509 -1.4787  0.6651 -1.2847
 3509TIP3   OH232017   3.182   3.205   0.772  0.4068  0.9790 -0.3103
 3509TIP3    H132018   3.232   3.255   0.707  0.0139 -0.7412 -2.0059
 3509TIP3    H232019   3.091   3.212   0.744  0.0943  1.1473  0.7181
 3510TIP3   OH232020   0.473   0.921   2.646  0.1521  0.1160  0.1017
 3510TIP3    H132021   0.473   0.938   2.740 -2.5144  0.3852  0.1429
 3510TIP3    H232022   0.384   0.891   2.628 -0.1922  2.3889 -2.7151
 3511TIP3   OH232023   3.030   1.367   1.111 -0.2996  0.0459  0.5129
 3511TIP3    H132024   3.102   1.428   1.128 -2.0458  1.9481  1.5144
 3511TIP3    H232025   3.010   1.380   1.018 -0.1562  0.4365  0.5329
 3512TIP3   OH232026   0.039   5.940  14.423 -0.4809 -0.1612  0.4925
 3512TIP3    H132027   0.049   5.894  14.340  1.0697 -1.1174  1.1676
 3512TIP3    H232028   0.018   5.872  14.487 -1.7557  0.5773  0.8834
 3513TIP3   OH232029   5.265   5.149  15.947 -0.3271  0.4941 -0.1684
 3513TIP3    H132030   5.187   5.112  15.906  0.7253 -2.4975  0.2966
 3513TIP3    H232031   5.303   5.206  15.880 -1.9485  0.6160 -1.0252
 3514TIP3   OH232032   0.523   3.483  14.198 -0.8160 -0.1173 -0.0735
 3514TIP3    H132033   0.559   3.554  14.144 -0.5370 -0.0116  0.2469
 3514TIP3    H232034   0.432   3.507  14.211 -0.5253  0.6247  0.7295
 3515TIP3   OH232035   1.908   5.451   0.365 -0.5783  0.2865  0.3687
 3515TIP3    H132036   1.923   5.369   0.413 -1.0912  1.4452  2.6560
 3515TIP3    H232037   1.842   5.429   0.300  1.1451 -1.6908 -0.8496
 3516TIP3   OH232038   3.905   2.909  15.479  0.5574  0.0368 -0.0958
 3516TIP3    H132039   3.918   2.818  15.503  0.0624  0.3635  1.5441
 3516TIP3    H232040   3.985   2.934  15.433  1.3869 -0.7838  0.8664
 3517TIP3   OH232041   2.361   3.451   2.828 -0.3253 -0.4910 -0.5739
 3517TIP3    H132042   2.405   3.512   2.768 -0.1001  0.5840  0.6316
 3517TIP3    H232043   2.414   3.453   2.908 -0.6779 -1.8038 -0.2794
 3518TIP3   OH232044   6.676   3.221  14.705 -0.2008 -0.3611 -0.0850
 3518TIP3    H132045   6.611   3.161  14.668 -0.1646 -2.0042  2.2772
 3518TIP3    H232046   6.628   3.302  14.719 -1.2066 -0.9246 -0.1834
 3519TIP3   OH232047   3.285   4.199  13.988  0.3744  0.0618 -0.2466
 3519TIP3    H132048   3.317   4.124  14.039  0.1763 -0.6133 -1.0895
 3519TIP3    H232049   3.195   4.177  13.966  0.5701  0.1729 -1.1962
 3520TIP3   OH232050   3.700   4.446   2.857  0.1475  0.0409  0.1365
 3520TIP3    H132051   3.605   4.457   2.850  0.2225  0.4495 -0.3060
 3520TIP3    H232052   3.712   4.355   2.882 -0.3495 -0.1559 -0.3158
 3521TIP3   OH232053   6.111   3.031  12.377 -0.4228 -0.7150 -0.4691
 3521TIP3    H132054   6.106   3.098  12.309  2.9191 -0.1632 -0.3528
 3521TIP3    H232055   6.187   3.056  12.429 -1.1584 -2.7269  1.7493
 3522TIP3   OH232056   6.272   5.955  14.479  0.1038 -0.0295  0.0470
 3522TIP3    H132057   6.367   5.952  14.465  0.4001 -2.0964  1.9582
 3522TIP3    H232058   6.252   6.048  14.485  1.7392  0.5270 -1.7745
 3523TIP3   OH232059   3.387   1.462   0.177  0.2334 -0.6031  0.0893
 3523TIP3    H132060   3.336   1.517   0.236  0.8352 -0.5359  0.5642
 3523TIP3    H232061   3.418   1.390   0.232  1.8596  0.1274  0.1888
 3524TIP3   OH232062   4.770   1.042  14.357  0.3215  0.8497  0.7679
 3524TIP3    H132063   4.799   1.029  14.447 -0.1631 -1.2165  0.6737
 3524TIP3    H232064   4.736   1.132  14.356  2.2143  1.6438  2.0808
 3525TIP3   OH232065   4.077   1.852   2.907  0.3373 -0.1200  0.1606
 3525TIP3    H132066   4.091   1.909   2.982  1.9099 -0.8084  0.4304
 3525TIP3    H232067   3.982   1.851   2.895  0.2036  1.6114  0.8523
 3526TIP3   OH232068   2.796   6.472   4.980 -0.4891 -0.5505  0.0718
 3526TIP3    H132069   2.857   6.502   4.913 -1.5493  0.9965 -0.2621
 3526TIP3    H232070   2.742   6.549   5.000 -1.0389 -1.3142  1.7890
 3527TIP3   OH232071   3.297   0.208  16.943  0.5872  0.0156  0.6620
 3527TIP3    H132072   3.293   0.203  17.038  1.7067  2.1694  0.8713
 3527TIP3    H232073   3.378   0.163  16.920  0.4857 -0.2074  0.7299
 3528TIP3   OH232074   3.185   5.161  13.812  0.0210 -0.2288  0.3621
 3528TIP3    H132075   3.227   5.227  13.867  0.1283  0.5720 -0.6513
 3528TIP3    H232076   3.230   5.168  13.728 -1.0382 -0.4910 -0.2395
 3529TIP3   OH232077   3.196   2.146  15.043  0.0299 -0.4209  0.2908
 3529TIP3    H132078   3.188   2.240  15.026 -0.8023 -0.5891 -0.3718
 3529TIP3    H232079   3.115   2.123  15.090  0.1820 -0.8162  0.3667
 3530TIP3   OH232080   1.024   6.018   4.698  0.1547  0.3053 -0.7979
 3530TIP3    H132081   1.072   6.073   4.637  0.9042  0.4350 -0.0943
 3530TIP3    H232082   0.940   6.063   4.709  0.0292  0.3125 -1.6724
 3531TIP3   OH232083   5.371   5.911  11.363 -0.1101 -0.0304 -0.2958
 3531TIP3    H132084   5.375   5.815  11.360  0.4244 -0.0051 -0.5357
 3531TIP3    H232085   5.378   5.938  11.271  3.2808  0.3340 -0.0734
 3532TIP3   OH232086   4.379   6.362  11.735  0.2124  0.1319  0.0088
 3532TIP3    H132087   4.301   6.312  11.710  0.4698 -1.1390  1.5778
 3532TIP3    H232088   4.346   6.446  11.766 -0.4289  0.0665 -0.4800
 3533TIP3   OH232089   3.762   6.747   6.158  0.0905  0.6541 -0.4916
 3533TIP3    H132090   3.726   6.769   6.072  0.2293 -0.2661 -0.7979
 3533TIP3    H232091   3.738   6.656   6.171 -0.6456  1.0240  0.8298
 3534TIP3   OH232092   3.625   0.660  15.882 -0.1064  0.3956 -0.2658
 3534TIP3    H132093   3.646   0.735  15.826  1.6838 -0.9419 -1.4879
 3534TIP3    H232094   3.548   0.621  15.842 -0.0419  0.6239 -0.6183
 3535TIP3   OH232095   0.965   0.190  11.517 -0.3759  0.1895 -0.1259
 3535TIP3    H132096   0.899   0.173  11.450 -0.7877  0.6892  0.1344
 3535TIP3    H232097   0.921   0.249  11.578 -0.0064 -0.2499  0.5784
 3536TIP3   OH232098   1.602   1.003  11.904  0.1546 -0.1949 -0.4340
 3536TIP3    H132099   1.512   1.031  11.887  0.2436 -0.0279 -0.6318
 3536TIP3    H232100   1.615   0.925  11.850 -0.4398 -1.2710  0.9138
 3537TIP3   OH232101   2.038   0.030   0.986  0.8024 -0.1345 -0.2227
 3537TIP3    H132102   2.052   0.119   0.954  2.0886 -1.2357 -3.0840
 3537TIP3    H232103   1.984  -0.011   0.919  1.5131 -1.9264  0.2561
 3538TIP3   OH232104   3.913   0.002   1.270  0.1988  0.6625 -0.2566
 3538TIP3    H132105   3.982  -0.019   1.332  0.3127 -0.3457 -0.7099
 3538TIP3    H232106   3.932  -0.052   1.194 -1.1677  0.2448 -0.3270
 3539TIP3   OH232107   5.170   2.664   1.476  0.1749  0.4987 -0.1983
 3539TIP3    H132108   5.103   2.691   1.539  0.6148  0.2070  0.4069
 3539TIP3    H232109   5.148   2.712   1.396 -0.2859  1.0159  0.2247
 3540TIP3   OH232110   0.142   4.593  15.856  0.0721  0.0131 -0.1331
 3540TIP3    H132111   0.150   4.498  15.861  0.1986 -0.0023 -0.6429
 3540TIP3    H232112   0.100   4.617  15.939  0.9131 -0.3863  0.4336
 3541TIP3   OH232113   0.792   1.633   3.834  0.0898 -0.0961 -0.1475
 3541TIP3    H132114   0.723   1.696   3.855 -0.2159 -0.2552 -0.6781
 3541TIP3    H232115   0.786   1.620   3.740  0.1626 -0.9128 -0.0454
 3542TIP3   OH232116   5.497   5.508  12.296 -0.2905  0.2971 -0.1152
 3542TIP3    H132117   5.552   5.474  12.226 -0.8306 -1.4438  0.2607
 3542TIP3    H232118   5.526   5.599  12.307  2.7370 -0.5918  0.2718
 3543TIP3   OH232119   4.413   4.259  10.979 -0.2179 -0.7442 -0.1081
 3543TIP3    H132120   4.440   4.348  10.958 -2.3707  0.0191  0.0789
 3543TIP3    H232121   4.377   4.224  10.898 -0.2717 -1.0860  0.0576
 3544TIP3   OH232122   6.039   3.285  10.837 -0.4260 -0.0405 -0.0486
 3544TIP3    H132123   6.024   3.294  10.743  0.9824 -3.4606 -0.7807
 3544TIP3    H232124   6.128   3.318  10.850 -1.1782  1.9167  0.4770
 3545TIP3   OH232125   3.985   3.748   1.052  0.0116 -0.2458 -0.1149
 3545TIP3    H132126   4.003   3.819   0.990 -0.6752  0.1476  0.1216
 3545TIP3    H232127   4.041   3.676   1.023  1.9598  0.8937  0.5695
 3546TIP3   OH232128   4.534   5.734  12.527  0.0656 -0.6753  0.1782
 3546TIP3    H132129   4.442   5.710  12.541 -0.2504 -0.3762 -1.2773
 3546TIP3    H232130   4.583   5.657  12.555 -0.6910 -1.2238  0.0237
 3547TIP3   OH232131   0.652   5.066   4.161 -0.1332  0.3182 -0.4592
 3547TIP3    H132132   0.560   5.091   4.172  0.0102  0.6486  0.0209
 3547TIP3    H232133   0.657   5.032   4.071 -0.9857 -0.8689 -0.0819
 3548TIP3   OH232134   6.099   4.237  12.233 -0.2799  0.9918 -0.1126
 3548TIP3    H132135   6.194   4.227  12.234 -0.2804  0.5963 -1.6242
 3548TIP3    H232136   6.085   4.332  12.233  0.0620  1.0636  1.2842
 3549TIP3   OH232137   3.352   1.326  11.640  0.5406  0.6080  0.5285
 3549TIP3    H132138   3.431   1.307  11.589  0.4148  1.0490  0.1609
 3549TIP3    H232139   3.362   1.418  11.666  0.6841  0.3414  1.4511
 3550TIP3   OH232140   5.431   2.983   1.517  0.2228  0.8999  0.4671
 3550TIP3    H132141   5.502   2.976   1.453 -0.8538 -0.1998 -0.6760
 3550TIP3    H232142   5.394   2.895   1.520 -0.4609  1.2188  1.7983
 3551TIP3   OH232143   4.507   0.966   4.503 -0.4027 -0.6369 -0.0232
 3551TIP3    H132144   4.453   0.897   4.540 -1.0357 -0.8854 -1.3455
 3551TIP3    H232145   4.571   0.986   4.571 -0.9588 -1.6803  0.8336
 3552TIP3   OH232146   6.401   5.482  13.983  0.3868 -0.2716  0.4191
 3552TIP3    H132147   6.385   5.496  13.889 -0.1507 -0.6646  0.4493
 3552TIP3    H232148   6.369   5.562  14.025 -1.7121 -1.0814  0.4918
 3553TIP3   OH232149   5.602   1.642   1.538 -0.3332 -0.0376 -0.3017
 3553TIP3    H132150   5.564   1.567   1.492 -0.7507  1.3102 -2.3443
 3553TIP3    H232151   5.686   1.657   1.494 -0.0583  0.4258  0.3655
 3554TIP3   OH232152   6.415   5.157   0.378 -0.4300  0.5036 -0.0451
 3554TIP3    H132153   6.388   5.189   0.292  1.2914  0.9319 -0.4502
 3554TIP3    H232154   6.503   5.191   0.390 -0.0440 -0.8417  1.2291
 3555TIP3   OH232155   6.302   5.736  14.175 -0.0421  0.4212  0.4643
 3555TIP3    H132156   6.382   5.693  14.206  0.8541  1.0096 -0.9420
 3555TIP3    H232157   6.326   5.828  14.166 -0.1716  0.2732 -2.0577
 3556TIP3   OH232158   4.981   4.299   3.447 -1.2316  0.1394 -0.1642
 3556TIP3    H132159   4.899   4.250   3.455 -1.2691 -0.0146 -1.2991
 3556TIP3    H232160   5.050   4.232   3.457 -1.2064  0.3560  1.3725
 3557TIP3   OH232161   3.700   4.013  13.248 -0.2264  0.3518 -0.2295
 3557TIP3    H132162   3.644   3.936  13.236 -0.7438  0.7740 -0.5162
 3557TIP3    H232163   3.671   4.051  13.331  0.3856 -0.0539  0.1813
 3558TIP3   OH232164   6.196   0.150  16.334  0.8556  0.3513  0.2048
 3558TIP3    H132165   6.251   0.181  16.407  0.6713  2.9224 -0.6532
 3558TIP3    H232166   6.181   0.228  16.281 -1.5633 -0.8209 -0.9538
 3559TIP3   OH232167   5.479   5.321   4.446  0.1212  0.1466  0.3913
 3559TIP3    H132168   5.390   5.288   4.448 -0.1672  0.9306  0.7253
 3559TIP3    H232169   5.534   5.244   4.460 -0.4892 -0.3886 -0.1670
 3560TIP3   OH232170   6.483   0.264   4.584 -0.2340 -0.3834  0.6493
 3560TIP3    H132171   6.441   0.188   4.626  1.6925 -0.8736  1.8100
 3560TIP3    H232172   6.575   0.239   4.576  0.4752  1.8499  1.1444
 3561TIP3   OH232173   6.111   2.811   3.021 -0.2504  0.0824 -0.1285
 3561TIP3    H132174   6.152   2.880   2.969  1.5227 -0.5983  0.2978
 3561TIP3    H232175   6.184   2.765   3.062 -1.5131 -0.4428  1.6534
 3562TIP3   OH232176   6.143   6.566   5.627  0.4947 -1.0529  0.7644
 3562TIP3    H132177   6.050   6.559   5.648  0.7985 -1.4930  2.0639
 3562TIP3    H232178   6.188   6.540   5.708  1.7479 -1.3546  0.0050
 3563TIP3   OH232179   6.583   6.454  10.738 -0.0131  0.1963  0.5317
 3563TIP3    H132180   6.505   6.418  10.696 -0.0210 -2.8798  2.8831
 3563TIP3    H232181   6.654   6.396  10.712  0.5775  0.1902  2.0226
 3564TIP3   OH232182   2.708   2.322   0.915 -0.4263  0.4353 -0.3098
 3564TIP3    H132183   2.695   2.399   0.859  0.1692  1.2157  0.5966
 3564TIP3    H232184   2.795   2.336   0.953  0.0758 -1.1383 -0.8260
 3565TIP3   OH232185   1.928   3.976   5.546 -0.2815  0.2642 -0.0178
 3565TIP3    H132186   1.921   3.902   5.607 -1.0360  1.6054  1.6128
 3565TIP3    H232187   1.892   3.943   5.464 -1.2585 -0.9808  0.8728
 3566TIP3   OH232188   2.976   1.079   2.940  0.5425 -0.2355  0.5500
 3566TIP3    H132189   3.000   1.149   2.880 -2.6290 -1.4716 -2.5195
 3566TIP3    H232190   2.942   1.125   3.017 -0.4183  1.6701 -0.9041
 3567TIP3   OH232191   2.370   1.235   5.496  0.0296  0.3417  0.3205
 3567TIP3    H132192   2.428   1.216   5.570  3.2443  0.7629 -1.8460
 3567TIP3    H232193   2.343   1.149   5.464  1.3281 -0.0112  0.0974
 3568TIP3   OH232194   4.270   2.099   4.967 -0.5452  0.3959  0.4566
 3568TIP3    H132195   4.349   2.126   4.921 -0.0706  1.2161  1.7256
 3568TIP3    H232196   4.201   2.104   4.901  0.4540 -0.4389 -0.6950
 3569TIP3   OH232197   0.866   3.926   0.518  0.3954  0.5829 -0.0173
 3569TIP3    H132198   0.852   3.835   0.496  1.4433  0.4346 -0.1271
 3569TIP3    H232199   0.795   3.973   0.475  0.8600  0.0132 -1.4453
 3570TIP3   OH232200   2.638   6.119   5.921 -0.1394 -0.8117 -0.2229
 3570TIP3    H132201   2.687   6.164   5.990  0.5581 -1.2475 -0.4290
 3570TIP3    H232202   2.602   6.041   5.963 -1.4045 -0.0594  0.1516
 3571TIP3   OH232203   0.423   1.788  16.208  0.3544 -0.0071 -0.0613
 3571TIP3    H132204   0.455   1.833  16.129 -1.1931  1.8823  0.3050
 3571TIP3    H232205   0.383   1.708  16.176 -1.5674  1.4251 -1.4316
 3572TIP3   OH232206   3.965   4.675  10.614 -0.5148  0.5458  0.1090
 3572TIP3    H132207   3.877   4.642  10.635  0.0680 -0.7838  0.5765
 3572TIP3    H232208   4.018   4.653  10.691  0.2607  1.2154 -0.2218
 3573TIP3   OH232209   3.433   5.913  11.560 -0.1510 -0.1517  0.1053
 3573TIP3    H132210   3.493   5.961  11.617  1.8830 -2.3355 -0.0446
 3573TIP3    H232211   3.433   5.963  11.478  0.0571  0.8354  0.6903
 3574TIP3   OH232212   6.081   4.234  16.184 -0.3586 -0.1715  0.1029
 3574TIP3    H132213   6.043   4.293  16.118  0.9352  0.6791  0.0677
 3574TIP3    H232214   6.162   4.202  16.143  0.5726  0.5196  1.3197
 3575TIP3   OH232215   4.646   3.704   0.112 -0.3855  0.1052  0.3164
 3575TIP3    H132216   4.733   3.664   0.118 -0.4615 -0.1304 -0.0916
 3575TIP3    H232217   4.608   3.667   0.032 -0.3795  1.1505 -0.1784
 3576TIP3   OH232218   1.563   2.095  13.435  0.0972  0.3474  0.1459
 3576TIP3    H132219   1.646   2.052  13.412  1.2027  1.5165  1.7072
 3576TIP3    H232220   1.577   2.186  13.411 -0.5963  0.6220  0.7742
 3577TIP3   OH232221   5.293   5.130  14.030 -0.0429  0.0053  0.2671
 3577TIP3    H132222   5.325   5.108  13.943  2.9149  1.1987  0.9431
 3577TIP3    H232223   5.217   5.186  14.014  0.3299  0.0594 -1.5361
 3578TIP3   OH232224   5.015   0.556   2.810 -0.0663 -0.0589  0.5036
 3578TIP3    H132225   4.935   0.576   2.762  0.2254 -1.2765 -0.5397
 3578TIP3    H232226   5.084   0.604   2.763 -0.0062  0.0178  0.6693
 3579TIP3   OH232227   4.187   0.719  11.432 -0.0807 -0.1492  0.4652
 3579TIP3    H132228   4.241   0.752  11.504 -0.5804 -3.0543  2.3251
 3579TIP3    H232229   4.098   0.747  11.455 -0.2266 -0.9881  0.9414
 3580TIP3   OH232230   2.424   6.752  13.369 -0.6041 -0.3558 -0.1245
 3580TIP3    H132231   2.418   6.755  13.273  0.7686 -0.6160 -0.2387
 3580TIP3    H232232   2.471   6.832  13.393 -0.6216 -0.4697  0.3010
 3581TIP3   OH232233   6.511   6.201   1.453 -0.5702 -0.4906 -0.5616
 3581TIP3    H132234   6.583   6.264   1.459 -0.8578 -0.1536 -0.5767
 3581TIP3    H232235   6.457   6.234   1.382 -1.2706 -0.1840  0.0973
 3582TIP3   OH232236   1.812   1.600   1.580  0.6576 -0.3561 -0.2539
 3582TIP3    H132237   1.821   1.695   1.577  2.2168 -0.4462  0.6404
 3582TIP3    H232238   1.868   1.568   1.510 -0.8075 -0.6036 -1.3559
 3583TIP3   OH232239   4.720   1.493   3.843  0.1932  0.4906  0.3862
 3583TIP3    H132240   4.804   1.526   3.811 -0.0870 -0.1921 -1.1077
 3583TIP3    H232241   4.701   1.548   3.920  1.8843  0.7977  0.6260
 3584TIP3   OH232242   1.787   3.747  12.565  0.5472 -0.1467  0.1761
 3584TIP3    H132243   1.765   3.789  12.648 -0.8454 -0.0766 -0.2202
 3584TIP3    H232244   1.733   3.668  12.563  1.0471 -0.4809 -0.3866
 3585TIP3   OH232245   2.698   1.714  12.304  0.0635  0.0509  0.2315
 3585TIP3    H132246   2.760   1.760  12.247  2.4548 -2.0665  0.9020
 3585TIP3    H232247   2.744   1.707  12.388 -1.8424 -0.1283  1.3069
 3586TIP3   OH232248   2.064   6.699   5.775 -0.4688  0.0802  1.0184
 3586TIP3    H132249   1.993   6.754   5.811 -0.3226 -0.2858  1.8885
 3586TIP3    H232250   2.046   6.612   5.810 -0.5298 -0.3793 -0.1235
 3587TIP3   OH232251   4.484   3.056  13.694 -0.3266 -0.4732  0.6120
 3587TIP3    H132252   4.532   3.139  13.682  2.6052 -1.7739  2.1792
 3587TIP3    H232253   4.419   3.075  13.761  0.1325  0.6341  0.7651
 3588TIP3   OH232254   0.622   5.002  14.500  0.0025  0.3137 -0.0368
 3588TIP3    H132255   0.701   4.987  14.552 -1.4195 -0.0961  2.1427
 3588TIP3    H232256   0.550   4.983  14.561 -1.8065  2.4500 -1.3808
 3589TIP3   OH232257   3.713   4.059  16.227  0.1285  0.2767 -0.0982
 3589TIP3    H132258   3.757   4.094  16.149  1.3134 -0.2300  0.3111
 3589TIP3    H232259   3.764   4.093  16.301  1.4642 -2.3218  0.3176
 3590TIP3   OH232260   3.979   5.943   6.673 -0.6781 -0.2310  0.2011
 3590TIP3    H132261   3.904   5.989   6.636  0.6969  1.5708 -0.5303
 3590TIP3    H232262   4.032   6.012   6.714  0.6759 -1.4037  0.5349
 3591TIP3   OH232263   3.698   4.375  10.578  0.0861 -0.6263  0.0623
 3591TIP3    H132264   3.725   4.445  10.638  0.4458  1.1228 -2.0399
 3591TIP3    H232265   3.604   4.366  10.593  0.3763 -1.2417  1.8432
 3592TIP3   OH232266   1.962   5.944   0.057  0.0225 -0.6495  0.0799
 3592TIP3    H132267   2.054   5.931   0.033  0.3132 -1.3101  1.4058
 3592TIP3    H232268   1.941   5.866   0.110 -0.6128  0.5427  1.6616
 3593TIP3   OH232269   6.707   5.139   3.838 -0.0223  0.0341 -0.5576
 3593TIP3    H132270   6.665   5.119   3.921  1.1657  1.0479  0.3196
 3593TIP3    H232271   6.720   5.053   3.796 -1.5565 -0.4001 -0.1872
 3594TIP3   OH232272   3.831   4.260  11.370  0.7162 -0.0295 -0.2152
 3594TIP3    H132273   3.740   4.285  11.384  1.5552  2.7111  0.9762
 3594TIP3    H232274   3.827   4.190  11.304 -2.1822  0.1984 -0.4068
 3595TIP3   OH232275   5.189   0.558   4.157  0.0297 -0.2687  0.8369
 3595TIP3    H132276   5.151   0.579   4.072  0.6695  2.3535  1.1053
 3595TIP3    H232277   5.114   0.550   4.215 -0.3282  0.7396  0.5432
 3596TIP3   OH232278   1.275   3.756   2.537 -0.1455  0.0578  0.2336
 3596TIP3    H132279   1.246   3.824   2.599  0.5397  0.5869 -0.0217
 3596TIP3    H232280   1.222   3.680   2.559 -0.4776  0.4868  0.9448
 3597TIP3   OH232281   3.018   1.756  13.665  0.2037 -0.3650  0.4986
 3597TIP3    H132282   2.926   1.784  13.668  0.0477 -0.5049 -1.4298
 3597TIP3    H232283   3.067   1.828  13.703 -0.6853 -0.1423  1.2387
 3598TIP3   OH232284   5.047   2.202   3.707  0.4317 -0.1293 -0.0718
 3598TIP3    H132285   5.052   2.109   3.687  1.2646 -0.6172  2.1500
 3598TIP3    H232286   4.962   2.215   3.748 -0.1289  0.3277 -1.3282
 3599TIP3   OH232287   5.709   6.694  14.610 -0.1292  0.0754  0.3120
 3599TIP3    H132288   5.778   6.656  14.665 -1.4805 -0.7409  1.5072
 3599TIP3    H232289   5.632   6.641  14.629 -0.1522 -2.0570 -4.4194
 3600TIP3   OH232290   1.558   3.259   0.743 -0.3600  0.3227  0.1946
 3600TIP3    H132291   1.593   3.294   0.825  1.4510 -0.5258 -0.1728
 3600TIP3    H232292   1.570   3.165   0.750 -2.4683 -0.0074 -0.0579
 3601TIP3   OH232293   0.075   1.954  13.560  0.4917 -0.1315 -0.5726
 3601TIP3    H132294   0.047   1.936  13.470 -1.4330  0.3085 -0.0954
 3601TIP3    H232295   0.002   1.925  13.614  1.0886  0.8052  0.7843
 3602TIP3   OH232296   5.912   6.744  15.213  0.1838 -1.0049 -0.1199
 3602TIP3    H132297   5.909   6.796  15.293 -0.0526 -0.9922 -0.1383
 3602TIP3    H232298   5.834   6.769  15.165 -0.9434 -2.7310  0.7173
 3603TIP3   OH232299   6.052   3.838  15.321 -0.1260  0.6300  0.7839
 3603TIP3    H132300   5.971   3.818  15.273  0.7150  0.9033 -0.8528
 3603TIP3    H232301   6.039   3.800  15.407 -1.7055  0.0328  0.3275
 3604TIP3   OH232302   5.960   1.269   3.977 -0.3047 -0.3561 -0.3355
 3604TIP3    H132303   5.960   1.317   4.060  0.2375  0.5705 -0.8573
 3604TIP3    H232304   6.046   1.227   3.974 -0.2697 -0.2732 -0.4943
 3605TIP3   OH232305   6.210   5.972   4.131 -0.4641 -0.4764  0.2765
 3605TIP3    H132306   6.152   5.899   4.108  0.8276 -1.2905 -0.5240
 3605TIP3    H232307   6.154   6.050   4.121 -1.2298 -1.1608 -1.2977
 3606TIP3   OH232308   2.962   1.041  12.229  0.3504  0.1824 -0.2487
 3606TIP3    H132309   2.926   0.993  12.155 -0.4974 -0.5352  0.5986
 3606TIP3    H232310   3.036   0.987  12.259 -0.6559 -0.6826  0.7566
 3607TIP3   OH232311   0.853   4.875   1.672  0.2547 -0.8247 -0.9616
 3607TIP3    H132312   0.841   4.932   1.597  0.0303  1.0739  0.4513
 3607TIP3    H232313   0.948   4.862   1.677  0.2814 -0.8572 -1.4786
 3608TIP3   OH232314   0.022   0.130   0.650 -0.2653  0.6426  1.1502
 3608TIP3    H132315  -0.018   0.067   0.710  1.1737 -1.0084  0.4724
 3608TIP3    H232316  -0.044   0.143   0.581  0.2010 -1.9815  0.0744
 3609TIP3   OH232317   3.722   2.491   4.809 -0.0200  0.1963  0.4572
 3609TIP3    H132318   3.812   2.462   4.823 -0.1189  0.1413  0.9729
 3609TIP3    H232319   3.712   2.568   4.865  0.1457  1.0772 -0.6656
 3610TIP3   OH232320   4.449   1.888   5.794 -1.2476  0.4621  0.0379
 3610TIP3    H132321   4.528   1.891   5.741 -2.2478 -1.2456 -1.6701
 3610TIP3    H232322   4.478   1.853   5.878 -0.0329  0.8902 -0.1816
 3611TIP3   OH232323   3.615   5.795   3.977 -0.0383 -0.1846  0.8196
 3611TIP3    H132324   3.704   5.795   4.010 -0.5738  0.0268  2.3462
 3611TIP3    H232325   3.610   5.873   3.921  0.6493 -0.0530  0.9352
 3612TIP3   OH232326   5.064   1.520  13.863 -0.4356 -0.7669 -0.0538
 3612TIP3    H132327   5.022   1.445  13.905 -1.4879  0.0661  0.3941
 3612TIP3    H232328   5.073   1.585  13.932  0.5235 -0.4711 -0.4278
 3613TIP3   OH232329   4.449   4.425  13.285 -0.4197 -0.2533  0.4422
 3613TIP3    H132330   4.488   4.366  13.350  0.8643  1.2309  1.0925
 3613TIP3    H232331   4.360   4.441  13.318  0.0018 -0.0147  1.5239
 3614TIP3   OH232332   1.410   2.460   1.823  0.0913 -0.1649 -0.2260
 3614TIP3    H132333   1.365   2.398   1.766  1.1036 -0.2655 -0.9316
 3614TIP3    H232334   1.465   2.406   1.879 -0.2410 -0.0004  0.2771
 3615TIP3   OH232335   5.329   3.454   3.093 -0.0465 -0.0886 -0.0320
 3615TIP3    H132336   5.370   3.459   3.006  0.0607  1.6535  0.0960
 3615TIP3    H232337   5.248   3.505   3.084  0.1632  0.4348  1.0029
 3616TIP3   OH232338   1.712   5.578  13.662  0.0417 -0.2384  0.5697
 3616TIP3    H132339   1.802   5.596  13.688  0.0740 -0.6545  0.7582
 3616TIP3    H232340   1.662   5.653  13.695  0.3383  0.0672  0.3318
 3617TIP3   OH232341   1.013   4.809   4.571 -0.4068 -0.3422  0.1439
 3617TIP3    H132342   0.979   4.850   4.651  1.8234  2.9009 -0.3830
 3617TIP3    H232343   1.087   4.757   4.601 -0.5713 -0.4634  0.3459
 3618TIP3   OH232344   5.297   2.632  13.449  0.2106  0.2807 -0.1388
 3618TIP3    H132345   5.213   2.596  13.418  1.1054 -1.1643 -0.9701
 3618TIP3    H232346   5.299   2.721  13.412 -0.5382 -0.0010 -0.8975
 3619TIP3   OH232347   1.966   5.713   2.122 -0.3611 -0.6328 -0.1034
 3619TIP3    H132348   2.039   5.654   2.106 -0.8573 -1.1619 -0.4502
 3619TIP3    H232349   1.989   5.794   2.076 -0.4641 -1.1495 -1.0689
 3620TIP3   OH232350   5.536   4.890  11.936 -0.2284  0.7146 -1.2205
 3620TIP3    H132351   5.464   4.828  11.943 -0.1613  0.7421 -0.2396
 3620TIP3    H232352   5.505   4.969  11.980  1.7428 -0.5216  2.9098
 3621TIP3   OH232353   3.326   4.218  12.816  0.4190 -0.2308 -0.3953
 3621TIP3    H132354   3.360   4.149  12.872 -0.7101 -0.5956 -0.1263
 3621TIP3    H232355   3.294   4.285  12.877 -1.2867 -0.8548 -0.5328
 3622TIP3   OH232356   5.850   2.151   6.614 -0.4027 -0.2301  0.1695
 3622TIP3    H132357   5.850   2.059   6.588 -2.3182 -0.3534  0.4198
 3622TIP3    H232358   5.939   2.169   6.642 -0.1357 -2.2029  0.7047
 3623TIP3   OH232359   5.493   6.571   4.784  0.7194 -0.8469 -0.0309
 3623TIP3    H132360   5.582   6.535   4.789  0.4950 -1.4404 -0.2251
 3623TIP3    H232361   5.491   6.639   4.851  1.5501 -0.3197 -0.5273
 3624TIP3   OH232362   4.228   6.590   0.187 -0.5587 -0.1709  0.6799
 3624TIP3    H132363   4.305   6.636   0.154 -0.0499 -1.4961 -0.0484
 3624TIP3    H232364   4.154   6.645   0.160  0.0252  0.1809 -0.2615
 3625TIP3   OH232365   3.312   4.901   2.833 -0.0361 -0.6381  0.1476
 3625TIP3    H132366   3.339   4.989   2.808 -0.5877 -0.6736 -0.6021
 3625TIP3    H232367   3.218   4.908   2.848 -0.5680 -1.5726 -2.2596
 3626TIP3   OH232368   3.267   5.074  15.739  0.7330  0.1113  0.0548
 3626TIP3    H132369   3.290   5.163  15.715  1.1417  0.1031  0.3962
 3626TIP3    H232370   3.256   5.028  15.655  0.8910  0.3894 -0.1186
 3627TIP3   OH232371   6.697   6.167   3.387  0.5747 -0.4372 -0.4377
 3627TIP3    H132372   6.779   6.181   3.435  0.9804  0.5660 -1.3899
 3627TIP3    H232373   6.638   6.128   3.452  0.1602  3.3691  1.7953
 3628TIP3   OH232374   5.230   4.188  12.760  0.2215 -0.3974  0.1354
 3628TIP3    H132375   5.275   4.209  12.841  2.0626  0.4044 -1.0313
 3628TIP3    H232376   5.297   4.198  12.692 -1.4789 -0.1134 -1.5862
 3629TIP3   OH232377   3.110   2.368   3.049 -0.0828 -0.4988 -0.0893
 3629TIP3    H132378   3.143   2.281   3.027  0.7724 -0.1299 -0.2966
 3629TIP3    H232379   3.017   2.365   3.024  0.4912 -0.5631 -2.4404
 3630TIP3   OH232380   6.817   3.727  12.394  0.1090  0.3489 -0.3598
 3630TIP3    H132381   6.755   3.776  12.449  0.2184  0.0470  0.0364
 3630TIP3    H232382   6.903   3.745  12.433  0.3458  1.2413 -1.2605
 3631TIP3   OH232383   4.730   1.215  12.280  0.3843 -0.2263  0.5740
 3631TIP3    H132384   4.702   1.270  12.206  1.1801 -1.0085 -0.3421
 3631TIP3    H232385   4.705   1.264  12.358  1.3952  1.6189 -0.2111
 3632TIP3   OH232386   1.503   0.509   2.320 -0.5462 -0.4770  0.1475
 3632TIP3    H132387   1.439   0.501   2.249 -1.2344 -0.2230  0.7252
 3632TIP3    H232388   1.456   0.479   2.398  0.0359 -0.2553  0.5939
 3633TIP3   OH232389   3.895   5.650   3.451  0.3433  0.0620 -0.6553
 3633TIP3    H132390   3.892   5.730   3.503 -1.0622 -0.2431 -0.2126
 3633TIP3    H232391   3.979   5.654   3.406  1.0546  0.9337  0.6804
 3634TIP3   OH232392   2.566   4.919  15.428  0.5324 -0.1827 -0.1903
 3634TIP3    H132393   2.582   4.975  15.352  1.4117  1.7612  1.3340
 3634TIP3    H232394   2.626   4.846  15.417  0.8430  0.2156 -1.2458
 3635TIP3   OH232395   0.854   1.025  10.707 -0.3715  0.5401 -0.1629
 3635TIP3    H132396   0.937   1.066  10.682  0.5338  0.1251  1.9321
 3635TIP3    H232397   0.801   1.098  10.740  0.1367  0.4784  0.8337
 3636TIP3   OH232398   1.547   6.026  12.728  0.1267  0.2869 -0.2533
 3636TIP3    H132399   1.524   5.990  12.642  0.0622 -0.0777 -0.0835
 3636TIP3    H232400   1.487   6.100  12.739 -1.3741 -0.9717  0.4119
 3637TIP3   OH232401   2.973   0.816  15.582 -0.1377 -0.5998 -0.9112
 3637TIP3    H132402   2.880   0.839  15.587  0.2280  1.0444 -1.1415
 3637TIP3    H232403   2.992   0.809  15.488 -0.1458 -1.5207 -0.8551
 3638TIP3   OH232404   4.607   0.092   4.519 -0.1063 -0.2450  0.3532
 3638TIP3    H132405   4.647   0.023   4.572 -1.0845  0.5782  2.2731
 3638TIP3    H232406   4.639   0.173   4.558 -2.3973  0.4136  1.0084
 3639TIP3   OH232407   2.899   6.223  12.260  0.4433 -0.2850 -0.4340
 3639TIP3    H132408   2.936   6.311  12.245 -1.9288  0.8123 -0.2659
 3639TIP3    H232409   2.931   6.171  12.187  0.9058  1.0624 -1.2261
 3640TIP3   OH232410   3.694   5.293   1.275  0.2054 -0.1353  0.3307
 3640TIP3    H132411   3.618   5.348   1.256 -1.0848 -1.7480  0.5541
 3640TIP3    H232412   3.658   5.220   1.326  1.9390 -0.8794  0.5508
 3641TIP3   OH232413   5.399   5.851   2.340  0.2509 -0.3425  0.3405
 3641TIP3    H132414   5.451   5.865   2.418  1.2977  0.0402 -0.4082
 3641TIP3    H232415   5.444   5.781   2.293 -0.7112 -1.0050  0.3644
 3642TIP3   OH232416   4.485   6.373   0.593  0.2779 -0.0385  0.1806
 3642TIP3    H132417   4.534   6.371   0.675 -0.5239 -1.4593  0.6494
 3642TIP3    H232418   4.550   6.349   0.526  0.5672 -0.4551  0.6061
 3643TIP3   OH232419   4.225   1.752  14.421 -0.3847 -0.2779  0.2215
 3643TIP3    H132420   4.247   1.831  14.471  1.4802  0.3597 -1.5129
 3643TIP3    H232421   4.190   1.692  14.487  2.1508  0.4319  2.3915
 3644TIP3   OH232422   5.103   6.601   2.489  0.5058  0.0128  0.4651
 3644TIP3    H132423   5.072   6.679   2.536 -0.5372  0.0671 -0.2684
 3644TIP3    H232424   5.058   6.529   2.532 -0.7740  0.0955 -0.6377
 3645TIP3   OH232425   4.957   4.533   4.973 -0.0217  0.3031 -0.6801
 3645TIP3    H132426   4.877   4.571   5.011  1.0908  0.5521  1.6129
 3645TIP3    H232427   4.950   4.439   4.990 -0.2170  0.2142 -1.2532
 3646TIP3   OH232428   2.929   3.087   0.770  0.1071  0.0176  0.2385
 3646TIP3    H132429   2.972   3.017   0.720  0.3938 -0.2567  0.8597
 3646TIP3    H232430   2.836   3.062   0.771 -0.0298  0.4202 -0.7898
 3647TIP3   OH232431   6.297   1.280   3.039  0.3491  0.3628  0.1136
 3647TIP3    H132432   6.228   1.227   3.001 -0.1947  0.9371  0.2795
 3647TIP3    H232433   6.260   1.312   3.122  1.4694 -0.8017  1.1178
 3648TIP3   OH232434   1.065   3.888   1.505 -0.6716  0.1357  0.3928
 3648TIP3    H132435   0.989   3.929   1.465 -0.4915 -0.6376 -0.8045
 3648TIP3    H232436   1.105   3.838   1.434 -0.4837 -1.5337  1.6200
 3649TIP3   OH232437   0.054   4.127   0.781 -0.3657 -0.5497  0.3022
 3649TIP3    H132438   0.099   4.156   0.702 -2.6398  2.6983  0.0067
 3649TIP3    H232439   0.021   4.039   0.758  1.3292 -0.8281 -1.2992
 3650TIP3   OH232440   4.890   0.106  11.966  0.6938 -0.2977  0.5099
 3650TIP3    H132441   4.844   0.158  12.032 -0.3277 -0.9398  0.3368
 3650TIP3    H232442   4.829   0.104  11.892  0.8074 -1.5327  0.4279
 3651TIP3   OH232443   2.965   3.056  14.118 -0.3723  0.0789  0.4052
 3651TIP3    H132444   2.923   3.088  14.038 -0.4260 -1.7359 -0.3357
 3651TIP3    H232445   3.050   3.101  14.121  0.1366 -0.6979 -1.3339
 3652TIP3   OH232446   5.316   4.194  11.527  0.1884  0.0241  0.3572
 3652TIP3    H132447   5.237   4.217  11.577 -0.6720  0.5893 -1.1986
 3652TIP3    H232448   5.291   4.206  11.435  1.1422 -2.7874 -0.3594
 3653TIP3   OH232449   1.042   1.076   2.393 -0.4341  0.1980  0.2748
 3653TIP3    H132450   1.098   1.043   2.323 -2.2372  0.9618 -1.6307
 3653TIP3    H232451   0.973   1.010   2.401 -0.2674  0.1352  1.3636
 3654TIP3   OH232452   4.990   6.167  12.498 -0.4199 -0.4264  0.4676
 3654TIP3    H132453   4.938   6.159  12.578  0.0830 -0.6811  0.7661
 3654TIP3    H232454   4.926   6.153  12.427 -0.8498 -0.2762  0.8185
 3655TIP3   OH232455   6.011   6.427  11.403  0.0436  0.1121  0.1044
 3655TIP3    H132456   6.061   6.507  11.413 -0.4993  0.7219 -1.6274
 3655TIP3    H232457   6.073   6.357  11.424  0.6766  0.9485  1.1007
 3656TIP3   OH232458   4.312   1.376   4.560  0.0389  0.7492  0.3208
 3656TIP3    H132459   4.295   1.426   4.639 -1.4312 -0.3069  0.7144
 3656TIP3    H232460   4.402   1.345   4.570 -0.4998 -0.3365  2.1571
 3657TIP3   OH232461   5.017   3.364  14.099 -0.2249  0.0557 -0.0063
 3657TIP3    H132462   4.995   3.282  14.143  0.2556 -0.6268 -0.9856
 3657TIP3    H232463   4.933   3.406  14.083 -0.3634  1.2141  3.1015
 3658TIP3   OH232464   0.081   0.113  14.225  0.4260  0.2576  0.0113
 3658TIP3    H132465   0.011   0.049  14.209  2.3514 -2.1072  0.4652
 3658TIP3    H232466   0.114   0.092  14.312  1.6108  1.4336 -0.1140
 3659TIP3   OH232467   5.774   5.232   1.377  0.1184 -0.1955  0.4220
 3659TIP3    H132468   5.763   5.145   1.340 -0.4793  0.2757 -0.5391
 3659TIP3    H232469   5.757   5.221   1.470 -0.5221 -1.0051  0.2202
 3660TIP3   OH232470   5.024   2.522   1.990 -0.0720  0.2745  0.3421
 3660TIP3    H132471   5.094   2.483   2.043 -2.0156 -2.6975  0.9190
 3660TIP3    H232472   4.965   2.562   2.055  0.1997  1.3010 -0.0236
 3661TIP3   OH232473   5.982   0.464   0.603 -0.2313 -0.0907  0.6738
 3661TIP3    H132474   5.953   0.510   0.524 -1.3400 -2.0464 -0.1419
 3661TIP3    H232475   5.901   0.435   0.645  0.3892 -0.3963  1.6986
 3662TIP3   OH232476   2.248   0.650  15.534  0.0386 -0.0698 -0.5317
 3662TIP3    H132477   2.293   0.697  15.464 -0.9056  0.0068 -1.1001
 3662TIP3    H232478   2.198   0.582  15.489 -0.2610 -0.2810  0.1067
 3663TIP3   OH232479   6.630   4.771   5.743  0.2284  0.1062 -0.3113
 3663TIP3    H132480   6.628   4.866   5.739  0.3074  0.0975 -0.5927
 3663TIP3    H232481   6.712   4.747   5.701  0.1538 -0.0909 -0.3460
 3664TIP3   OH232482   6.778   1.160   4.266 -0.4603  0.0945 -0.2129
 3664TIP3    H132483   6.808   1.228   4.327 -0.4515 -0.8388  0.8419
 3664TIP3    H232484   6.694   1.131   4.301 -0.2682 -0.7320 -0.4255
 3665TIP3   OH232485   6.789   1.448   5.605 -0.6725 -0.3112  0.0081
 3665TIP3    H132486   6.822   1.446   5.515 -1.5611  2.1855 -0.4658
 3665TIP3    H232487   6.694   1.446   5.595 -0.8143  1.0454  0.7771
 3666TIP3   OH232488   2.739   1.464  12.671 -0.8173 -0.1281  0.0516
 3666TIP3    H132489   2.771   1.549  12.639  1.6752 -0.0235  2.4354
 3666TIP3    H232490   2.758   1.404  12.599 -2.4725  1.2233 -1.6168
 3667TIP3   OH232491   6.263   4.912  16.361  0.2762 -0.0885  0.1996
 3667TIP3    H132492   6.344   4.943  16.320 -0.1039  1.0315  0.2608
 3667TIP3    H232493   6.275   4.929  16.454 -0.4358  1.1037  0.1009
 3668TIP3   OH232494   4.141   5.881  15.356  0.2488 -0.1317 -0.1279
 3668TIP3    H132495   4.138   5.807  15.296 -1.9580  0.3287 -0.6860
 3668TIP3    H232496   4.210   5.859  15.419  1.1340 -1.6151 -1.5516
 3669TIP3   OH232497   6.406   3.892  14.989  0.4275 -0.5467  0.3546
 3669TIP3    H132498   6.394   3.797  14.989 -0.8903 -0.4165  1.9168
 3669TIP3    H232499   6.417   3.915  15.081 -1.4054  1.0282  0.2364
 3670TIP3   OH232500   6.625   0.362  13.423 -0.3001 -0.0396 -0.0288
 3670TIP3    H132501   6.647   0.272  13.402  3.0000  0.1356  1.9270
 3670TIP3    H232502   6.590   0.358  13.512  0.0490  0.6078  0.1431
 3671TIP3   OH232503   4.235   1.907  16.101  0.4716  0.3871  0.4076
 3671TIP3    H132504   4.226   1.908  16.006 -1.6482  1.9310  0.5747
 3671TIP3    H232505   4.155   1.865  16.133  1.0067  0.1778  1.5376
 3672TIP3   OH232506   5.635   0.279   3.101  0.2052  0.0995  0.0188
 3672TIP3    H132507   5.655   0.225   3.177  1.6032 -0.7847 -0.9411
 3672TIP3    H232508   5.695   0.354   3.108  0.6942 -0.2395 -0.4635
 3673TIP3   OH232509   1.888   6.765  11.519  0.0337 -0.2362 -0.3730
 3673TIP3    H132510   1.895   6.686  11.466  0.1381  0.3586 -1.2764
 3673TIP3    H232511   1.851   6.736  11.602  1.0817 -1.3939 -0.2993
 3674TIP3   OH232512   2.575   4.959  13.714  0.4221  0.1560 -0.2736
 3674TIP3    H132513   2.591   4.900  13.787 -0.6934  0.9541  0.6406
 3674TIP3    H232514   2.566   4.901  13.638 -0.3002 -0.8296  0.5355
 3675TIP3   OH232515   4.746   2.894   2.411 -0.2943  0.0707 -0.1295
 3675TIP3    H132516   4.838   2.871   2.414 -0.6651 -1.4250  0.2476
 3675TIP3    H232517   4.711   2.871   2.497 -1.0681  0.4543 -0.3200
 3676TIP3   OH232518   3.092   4.571   3.991 -0.6369  0.2701  0.8237
 3676TIP3    H132519   3.092   4.495   4.048 -0.0826 -0.3634  0.0092
 3676TIP3    H232520   3.163   4.626   4.024  2.1077 -1.7180 -1.2516
 3677TIP3   OH232521   1.640   5.614  14.233  0.2412 -0.6391 -0.5162
 3677TIP3    H132522   1.590   5.590  14.310  0.0596  0.1433 -0.3780
 3677TIP3    H232523   1.725   5.643  14.267  0.2628 -0.5658 -0.6299
 3678TIP3   OH232524   3.053   0.160  15.385  0.3963  0.3813 -0.2339
 3678TIP3    H132525   3.107   0.217  15.330  1.5134  0.8958  1.3236
 3678TIP3    H232526   3.088   0.172  15.474 -1.3915 -0.3446  0.6232
 3679TIP3   OH232527   3.158   5.420   3.948  0.2251  0.3695 -0.6463
 3679TIP3    H132528   3.076   5.370   3.940  0.5441 -0.2276 -0.2442
 3679TIP3    H232529   3.180   5.414   4.040  0.0393  1.6418 -0.5066
 3680TIP3   OH232530   5.015   0.351   3.213 -0.3018  0.0558 -0.0588
 3680TIP3    H132531   4.934   0.316   3.249  0.5365 -0.7418  1.1201
 3680TIP3    H232532   5.081   0.335   3.281  0.6649  1.5486 -0.5728
 3681TIP3   OH232533   5.365   2.263   3.959  0.6484  0.0036 -0.2671
 3681TIP3    H132534   5.390   2.300   3.874 -0.8980 -0.0659 -0.7979
 3681TIP3    H232535   5.280   2.303   3.977 -0.2232 -1.8851  0.0139
 3682TIP3   OH232536   1.625   1.018  15.756 -0.3164  0.2870  0.4841
 3682TIP3    H132537   1.543   1.011  15.804 -0.8547  1.0995 -0.2756
 3682TIP3    H232538   1.611   1.091  15.695 -0.1462 -1.4769 -1.7946
 3683TIP3   OH232539   0.746   0.851   2.637  0.8458  0.0055 -0.2729
 3683TIP3    H132540   0.677   0.878   2.698 -0.5588 -0.8694 -1.4198
 3683TIP3    H232541   0.810   0.922   2.641 -0.2273  0.9579  0.6687
 3684TIP3   OH232542   2.678   6.426  15.529  0.3909  0.2594 -0.1657
 3684TIP3    H132543   2.771   6.440  15.543  0.3679 -0.1701  0.4998
 3684TIP3    H232544   2.652   6.365  15.598 -0.2864  0.0069 -0.6247
 3685TIP3   OH232545   0.828   4.449  12.551 -0.2405  0.0131  0.1985
 3685TIP3    H132546   0.753   4.457  12.609 -0.2973 -0.6942  0.2410
 3685TIP3    H232547   0.904   4.447  12.609 -0.0494  2.1931  0.0784
 3686TIP3   OH232548   1.794   0.046   5.210  0.5743  0.2080 -0.6126
 3686TIP3    H132549   1.788  -0.047   5.234 -0.6567  0.2781 -0.5865
 3686TIP3    H232550   1.805   0.091   5.294  1.3692  0.0814 -0.6413
 3687TIP3   OH232551   5.227   4.570   3.989  0.4794 -0.3378  0.0468
 3687TIP3    H132552   5.190   4.659   3.985 -2.3687 -1.4583 -1.9221
 3687TIP3    H232553   5.293   4.568   3.920  0.1720  0.0976 -0.2634
 3688TIP3   OH232554   3.487   2.018  14.504 -0.6823  0.5269 -0.6015
 3688TIP3    H132555   3.460   1.992  14.592  0.6712  0.1447 -0.2815
 3688TIP3    H232556   3.478   2.113  14.504  0.0957  0.6187  0.2456
 3689TIP3   OH232557   5.263   4.473  15.728  0.1121  0.5262  0.0847
 3689TIP3    H132558   5.290   4.523  15.651  0.2770 -0.1548 -0.3093
 3689TIP3    H232559   5.178   4.436  15.704  0.1419  0.3519  0.2415
 3690TIP3   OH232560   4.392   4.221   0.918  0.2058  0.1847 -0.2117
 3690TIP3    H132561   4.331   4.280   0.962 -0.6933  0.0181 -1.2149
 3690TIP3    H232562   4.364   4.133   0.946  1.1296  0.1730  0.7522
 3691TIP3   OH232563   3.479   0.004  13.671  0.3125  0.0531 -0.2085
 3691TIP3    H132564   3.446   0.059  13.599 -0.4829 -0.8802 -0.5838
 3691TIP3    H232565   3.427   0.030  13.747 -0.5117 -0.6009 -0.5319
 3692TIP3   OH232566   2.800   3.096  13.520  0.3671 -0.0388  0.0138
 3692TIP3    H132567   2.891   3.091  13.547  0.3271  1.0330  0.3991
 3692TIP3    H232568   2.750   3.059  13.593  0.3068  2.2089  1.2069
 3693TIP3   OH232569   2.875   0.676  11.836  0.2087 -0.0713  0.7164
 3693TIP3    H132570   2.870   0.611  11.906 -1.9457 -0.2086  0.5297
 3693TIP3    H232571   2.783   0.690  11.811  0.8185  1.1158 -1.0278
 3694TIP3   OH232572   5.496   3.946  14.266  0.1832  0.5649  0.1079
 3694TIP3    H132573   5.456   3.890  14.333 -0.3108  0.2457 -0.4374
 3694TIP3    H232574   5.542   4.014  14.315 -0.3970  0.4931  0.7676
 3695TIP3   OH232575   4.977   1.305   3.799 -0.0823 -0.4813  0.0252
 3695TIP3    H132576   4.903   1.278   3.744  0.0928 -0.0125 -0.4455
 3695TIP3    H232577   5.004   1.389   3.764  2.1380 -1.6430 -1.2957
 3696TIP3   OH232578   3.415   5.088   6.616  0.2776  0.0560  0.3835
 3696TIP3    H132579   3.410   5.086   6.712  1.2577  1.3888  0.4739
 3696TIP3    H232580   3.485   5.026   6.595 -0.1535 -0.4810  0.4937
 3697TIP3   OH232581   3.317   2.681   3.233  0.5487  0.0859  0.1465
 3697TIP3    H132582   3.308   2.616   3.303 -1.4090  1.9444  1.7633
 3697TIP3    H232583   3.301   2.633   3.152  1.5350 -1.8640  1.0535
 3698TIP3   OH232584   4.338   0.980   3.159  0.6681 -0.1988 -0.1522
 3698TIP3    H132585   4.302   1.065   3.135 -0.6878 -0.4297  0.9467
 3698TIP3    H232586   4.350   0.986   3.254  0.8886 -1.1271 -0.1183
 3699TIP3   OH232587   3.003   0.330   4.108  0.1148 -0.0401 -0.4173
 3699TIP3    H132588   2.972   0.329   4.018 -0.9576 -0.3451 -0.0568
 3699TIP3    H232589   3.097   0.312   4.101 -0.2777 -2.0494 -1.3434
 3700TIP3   OH232590   5.371   1.382  13.836 -0.1767  0.4371  0.4039
 3700TIP3    H132591   5.332   1.297  13.859 -1.4133  1.2605  1.4840
 3700TIP3    H232592   5.296   1.439  13.818  0.5037  1.9316  2.0264
 3701TIP3   OH232593   5.369   4.138  15.028 -0.0826 -0.2858  0.3789
 3701TIP3    H132594   5.285   4.173  15.057  0.8040 -0.2144  3.1829
 3701TIP3    H232595   5.430   4.211  15.037  0.8667 -1.1748  1.5762
 3702TIP3   OH232596   5.392   3.235   5.088 -0.0105  0.2599 -0.1351
 3702TIP3    H132597   5.331   3.172   5.050 -0.5165  0.5095  0.2448
 3702TIP3    H232598   5.479   3.199   5.070 -0.2961 -0.6120  0.2026
 3703TIP3   OH232599   2.318   2.753   4.177 -0.1362  0.2297  0.5216
 3703TIP3    H132600   2.245   2.709   4.221 -0.8728  3.7545  3.3061
 3703TIP3    H232601   2.280   2.835   4.144  1.7378  0.2841 -1.7619
 3704TIP3   OH232602   5.614   0.769   6.386 -0.2991 -0.3844  0.0658
 3704TIP3    H132603   5.690   0.737   6.338 -0.0476  0.2388  0.0415
 3704TIP3    H232604   5.550   0.697   6.381 -1.4062  0.6290 -3.6835
 3705TIP3   OH232605   0.695   1.700   2.838  0.0270 -0.5538 -0.3039
 3705TIP3    H132606   0.608   1.737   2.852  0.1256  0.6224 -2.4172
 3705TIP3    H232607   0.680   1.618   2.791  0.0286 -1.0784  0.5783
 3706TIP3   OH232608   2.419   0.038   3.447  0.6222  0.3241  0.1265
 3706TIP3    H132609   2.456  -0.041   3.487  1.9983  0.8483 -0.0497
 3706TIP3    H232610   2.373   0.082   3.519 -0.3902 -0.7382  0.1675
 3707TIP3   OH232611   5.181   2.435   2.217  0.3080  0.3710  0.2989
 3707TIP3    H132612   5.253   2.428   2.279  0.3661  0.9200  0.2944
 3707TIP3    H232613   5.113   2.483   2.263 -0.1015 -0.2279  0.3367
 3708TIP3   OH232614   3.836   3.110  13.604  0.3435 -0.1957  0.1099
 3708TIP3    H132615   3.794   3.028  13.579 -2.1862  0.1905  2.5949
 3708TIP3    H232616   3.856   3.100  13.697  0.8005  1.6755  0.2634
 3709TIP3   OH232617   6.277   2.918  15.116  0.2172  0.3086 -0.2183
 3709TIP3    H132618   6.364   2.956  15.121  0.5735 -0.6132  2.0559
 3709TIP3    H232619   6.279   2.861  15.039  1.2458  1.1514 -0.8326
 3710TIP3   OH232620   3.130   6.343   2.314 -0.3680 -0.4589  0.4120
 3710TIP3    H132621   3.074   6.376   2.244  0.3849 -0.3553 -0.1531
 3710TIP3    H232622   3.089   6.260   2.340 -1.1140 -0.0945  0.4211
 3711TIP3   OH232623   2.801   0.901   2.640 -0.1245  0.0181 -0.3305
 3711TIP3    H132624   2.754   0.858   2.568  1.0060 -0.7149 -0.6656
 3711TIP3    H232625   2.880   0.849   2.650  1.1428  1.8281 -0.5102
 3712TIP3   OH232626   6.076   4.909  12.767 -0.2719  0.0211 -0.0688
 3712TIP3    H132627   6.103   4.986  12.817  0.5264 -0.3426  0.0854
 3712TIP3    H232628   5.985   4.895  12.791 -0.4422  0.9563 -0.1511
 3713TIP3   OH232629   2.052   0.312   1.219 -0.2539 -0.4647  0.0555
 3713TIP3    H132630   2.144   0.339   1.224 -0.6967  0.9869  1.0527
 3713TIP3    H232631   2.046   0.237   1.278  0.6414 -1.7858 -1.4381
 3714TIP3   OH232632   5.183   0.308  10.428 -0.2846  0.2235  0.2634
 3714TIP3    H132633   5.278   0.321  10.432 -0.4108  1.1251  0.6141
 3714TIP3    H232634   5.147   0.394  10.449 -1.1746  0.2824 -1.4199
 3715TIP3   OH232635   6.243   1.965   3.476 -0.2100  0.1272 -0.4848
 3715TIP3    H132636   6.188   1.905   3.527  0.1164  0.5250  0.3506
 3715TIP3    H232637   6.291   2.015   3.541 -0.0642  0.9266 -1.1856
 3716TIP3   OH232638   5.184   4.741  13.059 -0.1805  0.4878  0.0325
 3716TIP3    H132639   5.227   4.797  13.124 -0.3106  0.8952 -0.2322
 3716TIP3    H232640   5.253   4.719  12.997 -0.1709  0.5123  0.0341
 3717TIP3   OH232641   1.541   4.723   5.970  0.8862  0.1667 -0.0638
 3717TIP3    H132642   1.540   4.631   5.995 -2.7584 -0.1222 -0.6756
 3717TIP3    H232643   1.521   4.770   6.051  1.0717  0.2785 -0.0828
 3718TIP3   OH232644   5.060   0.823  16.761 -0.5016 -0.5719  0.3499
 3718TIP3    H132645   5.092   0.863  16.680  0.7567  0.5100  1.3375
 3718TIP3    H232646   4.965   0.835  16.758 -0.4020  0.0813 -0.6254
 3719TIP3   OH232647   5.950   6.466   3.310  0.2528  0.2995 -0.2242
 3719TIP3    H132648   6.020   6.406   3.336 -0.9171 -0.2911  1.7607
 3719TIP3    H232649   5.978   6.551   3.344  0.0253  0.0745  0.5247
 3720TIP3   OH232650   1.967   0.835   0.472 -0.5030 -0.2502 -0.1217
 3720TIP3    H132651   2.046   0.879   0.441 -0.7371  0.2209 -0.0498
 3720TIP3    H232652   1.944   0.774   0.401 -0.0220 -0.4614 -0.0987
 3721TIP3   OH232653   4.492   0.875  15.391  0.3894 -0.0715 -0.3101
 3721TIP3    H132654   4.477   0.832  15.476 -1.3949  1.9018  0.4628
 3721TIP3    H232655   4.421   0.938  15.384  1.5550  1.0858 -2.4757
 3722TIP3   OH232656   5.588   5.553  11.188 -0.2631  0.3135 -0.1911
 3722TIP3    H132657   5.630   5.637  11.203 -0.7354  0.6693 -0.8350
 3722TIP3    H232658   5.652   5.489  11.219  0.4559  0.8743 -0.5033
 3723TIP3   OH232659   0.854   4.101  12.885  0.3179 -0.3274 -0.8169
 3723TIP3    H132660   0.801   4.098  12.964  1.1659  0.8415 -0.1741
 3723TIP3    H232661   0.791   4.119  12.815 -0.6459 -2.7522 -0.6790
 3724TIP3   OH232662   2.326   2.726   0.413 -0.1599 -0.0123 -0.1767
 3724TIP3    H132663   2.338   2.730   0.318  0.4091 -0.1135 -0.1143
 3724TIP3    H232664   2.249   2.781   0.430  0.4782  1.0412 -0.5666
 3725TIP3   OH232665   3.906   6.426   1.668 -0.1362 -0.3112 -0.2527
 3725TIP3    H132666   3.932   6.338   1.640 -0.5682 -0.4987 -0.0790
 3725TIP3    H232667   3.818   6.414   1.704  0.8487 -0.3381  2.3806
 3726TIP3   OH232668   1.601   1.959   5.589  0.4441  0.8145  0.3031
 3726TIP3    H132669   1.548   2.037   5.570  0.5308  0.4729 -1.4952
 3726TIP3    H232670   1.690   1.993   5.597  0.0956  1.3677  3.1872
 3727TIP3   OH232671   3.293   6.603   2.227  0.0441  0.4733  0.7492
 3727TIP3    H132672   3.331   6.519   2.200  2.1857  1.5954  0.0453
 3727TIP3    H232673   3.289   6.655   2.147 -2.1502  0.7823  0.9889
 3728TIP3   OH232674   5.310   6.278  14.387  0.0884  0.1989 -0.1913
 3728TIP3    H132675   5.319   6.211  14.455 -1.2849  1.2928  1.1472
 3728TIP3    H232676   5.289   6.229  14.308  1.5368 -1.1025  0.1852
 3729TIP3   OH232677   3.910   0.897   0.214 -0.0629 -0.3267  0.3754
 3729TIP3    H132678   3.874   0.860   0.295 -1.1714 -1.0510 -0.4201
 3729TIP3    H232679   3.880   0.837   0.145  0.9021  0.2522 -0.5684
 3730TIP3   OH232680   3.421   1.195   0.321 -0.1384  0.5745 -0.0016
 3730TIP3    H132681   3.418   1.114   0.373  0.5410  1.1758  1.0203
 3730TIP3    H232682   3.467   1.171   0.241 -1.8789 -0.5590 -0.7111
 3731TIP3   OH232683   4.631   5.971   1.629  0.0937 -0.0165  0.4953
 3731TIP3    H132684   4.550   6.003   1.590  0.8138  1.5355  0.1994
 3731TIP3    H232685   4.696   5.976   1.558  1.1679  1.8357  1.5166
 3732TIP3   OH232686   3.356   5.012   6.149 -0.2147  0.1542 -0.4492
 3732TIP3    H132687   3.428   4.983   6.205 -0.1164  0.3572 -0.4680
 3732TIP3    H232688   3.338   5.102   6.179 -0.2864  0.1969 -0.6207
 3733TIP3   OH232689   1.480   0.249  16.044 -0.2213 -0.5981  0.2975
 3733TIP3    H132690   1.397   0.258  16.091  0.2088 -1.8616  1.3771
 3733TIP3    H232691   1.544   0.228  16.112  0.4237 -2.5583 -0.8259
 3734TIP3   OH232692   0.024   0.182  16.116  0.8064 -0.3267  0.1267
 3734TIP3    H132693  -0.039   0.110  16.115  0.0218  0.3487 -0.2869
 3734TIP3    H232694   0.086   0.161  16.046  0.3769 -0.4332 -0.2272
 3735TIP3   OH232695   0.027   5.538   2.587  0.3832 -0.5088  0.2442
 3735TIP3    H132696   0.079   5.499   2.517  0.0401 -0.7694  0.1317
 3735TIP3    H232697   0.067   5.624   2.602  1.9200 -1.3706  1.3404
 3736TIP3   OH232698   3.212   2.548   0.868  0.0434 -0.0499  0.0076
 3736TIP3    H132699   3.238   2.463   0.834 -0.4797  0.0949 -0.7817
 3736TIP3    H232700   3.293   2.600   0.866 -0.2249  0.4130 -2.4859
 3737TIP3   OH232701   2.861   1.960   4.045 -0.6469  0.0337 -0.1073
 3737TIP3    H132702   2.820   1.875   4.031  3.6941 -2.6378  1.5216
 3737TIP3    H232703   2.896   1.985   3.959 -1.5284 -0.0099 -0.4897
 3738TIP3   OH232704   5.982   5.806   4.038 -1.0559  0.0483 -0.3412
 3738TIP3    H132705   5.926   5.728   4.044 -3.2945  1.6383  0.3361
 3738TIP3    H232706   5.924   5.876   4.010  1.0927  1.3517 -1.8700
 3739TIP3   OH232707   2.283   4.933  12.725 -0.0872  0.0594  0.0379
 3739TIP3    H132708   2.331   4.968  12.650 -0.0527 -1.6410 -0.8003
 3739TIP3    H232709   2.204   4.987  12.730 -0.0777  0.2360 -1.2239
 3740TIP3   OH232710   0.533   3.348  15.244 -0.1378  0.2294  0.4105
 3740TIP3    H132711   0.529   3.282  15.174 -0.4207  0.0850  0.5560
 3740TIP3    H232712   0.471   3.315  15.310  0.9150 -0.1951  1.2154
 3741TIP3   OH232713   4.945   4.947   5.066 -0.3106 -0.4387 -0.2168
 3741TIP3    H132714   4.917   4.910   4.983 -0.6554  1.3500 -0.9392
 3741TIP3    H232715   5.037   4.970   5.052 -0.2852 -0.3978  0.0080
 3742TIP3   OH232716   1.493   6.770   1.257 -0.7201  0.7402  0.7911
 3742TIP3    H132717   1.402   6.786   1.282 -0.1283  0.9611  2.9396
 3742TIP3    H232718   1.512   6.682   1.287 -0.4698  0.3124 -0.5308
 3743TIP3   OH232719   4.683   2.629  14.981 -0.0661 -0.2852 -0.0671
 3743TIP3    H132720   4.692   2.605  15.073  0.8867  0.1604 -0.0346
 3743TIP3    H232721   4.755   2.584  14.938  0.0370  0.2397 -0.4502
 3744TIP3   OH232722   4.265   3.409   3.549  0.5403 -0.3011  0.3651
 3744TIP3    H132723   4.195   3.352   3.581 -0.1153  1.1524  1.6213
 3744TIP3    H232724   4.273   3.388   3.456 -1.0746 -0.9931  0.3585
 3745TIP3   OH232725   2.737   3.208   1.049 -0.2896 -0.0566 -0.0947
 3745TIP3    H132726   2.782   3.288   1.024 -0.0059 -0.0233  0.5021
 3745TIP3    H232727   2.807   3.143   1.059 -0.5245 -0.4095 -0.6609
 3746TIP3   OH232728   5.393   2.618  13.741  0.5864  0.3616  0.1597
 3746TIP3    H132729   5.407   2.631  13.647  2.2028 -1.0781  0.1599
 3746TIP3    H232730   5.311   2.569  13.746  1.1738 -0.7458 -0.6137
 3747TIP3   OH232731   3.350   5.164   3.847  0.2724 -0.4633  0.1415
 3747TIP3    H132732   3.300   5.244   3.840 -0.6812 -1.1413 -1.2650
 3747TIP3    H232733   3.441   5.193   3.860  0.1431  0.8774 -1.6310
 3748TIP3   OH232734   1.244   0.350   4.453  0.2505  0.1086 -0.4480
 3748TIP3    H132735   1.203   0.270   4.421  3.4176 -1.5254 -0.9030
 3748TIP3    H232736   1.280   0.391   4.374  1.0694  0.4534  0.0937
 3749TIP3   OH232737   4.088   3.977   2.397  0.4514  0.2061  0.0303
 3749TIP3    H132738   4.017   3.927   2.356 -1.1756  1.1323  1.6277
 3749TIP3    H232739   4.166   3.924   2.380 -0.8504 -1.7062 -0.3443
 3750TIP3   OH232740   1.554   4.238   5.477 -0.0462  0.2010 -0.1998
 3750TIP3    H132741   1.568   4.228   5.571  1.2487  0.7852 -0.2999
 3750TIP3    H232742   1.513   4.324   5.468  0.7413  0.5881 -0.2165
 3751TIP3   OH232743   6.254   0.830  14.530 -0.5770  0.8221 -0.1150
 3751TIP3    H132744   6.312   0.902  14.503  0.0961 -0.0950 -1.2274
 3751TIP3    H232745   6.174   0.873  14.559 -0.1169  2.0336 -0.5787
 3752TIP3   OH232746   3.061   0.013  13.455  0.7512  0.0437 -0.1703
 3752TIP3    H132747   3.109  -0.069  13.469 -0.5261 -0.5900  0.7208
 3752TIP3    H232748   2.980  -0.014  13.412  0.5388  0.9087 -0.3329
 3753TIP3   OH232749   5.130   6.512   4.875  0.0320  0.2396  0.4129
 3753TIP3    H132750   5.177   6.541   4.797 -0.7328  2.3743  0.6688
 3753TIP3    H232751   5.050   6.471   4.841  0.3808 -0.1578  0.0594
 3754TIP3   OH232752   3.871   4.327   0.296 -0.1255 -0.0161 -0.0247
 3754TIP3    H132753   3.855   4.420   0.312  0.2392  0.2491 -1.1324
 3754TIP3    H232754   3.834   4.283   0.373 -1.2157  0.9587  0.0444
 3755TIP3   OH232755   0.681   4.327   4.707  0.1390 -0.4025  0.1231
 3755TIP3    H132756   0.674   4.332   4.802  0.1800 -0.0710  0.1095
 3755TIP3    H232757   0.761   4.278   4.691  0.8131  0.6378  0.2565
 3756TIP3   OH232758   3.842   0.727   5.876 -0.6383 -0.4249  0.2219
 3756TIP3    H132759   3.860   0.691   5.963  0.0624 -2.8257 -0.8340
 3756TIP3    H232760   3.818   0.819   5.893  1.1438 -0.3063  2.7864
 3757TIP3   OH232761   1.796   5.610  16.977  0.5664  0.0549 -0.3115
 3757TIP3    H132762   1.758   5.689  16.937  0.1892  0.3328  0.5659
 3757TIP3    H232763   1.890   5.620  16.964  0.3945 -0.6438 -2.5270
 3758TIP3   OH232764   4.200   0.811  16.849 -0.1404 -0.0514 -0.8613
 3758TIP3    H132765   4.150   0.736  16.818  0.1908 -1.8767  2.5018
 3758TIP3    H232766   4.134   0.875  16.877 -0.5884 -0.9075  0.1231
 3759TIP3   OH232767   0.151   6.413  15.549 -0.1833 -0.4074 -0.3243
 3759TIP3    H132768   0.085   6.437  15.484 -0.7189  0.1833  0.4172
 3759TIP3    H232769   0.201   6.343  15.508 -1.5628 -1.1845 -0.7506
 3760TIP3   OH232770   6.302   1.359   0.928 -0.1274  0.6960  0.4594
 3760TIP3    H132771   6.322   1.452   0.942 -2.0591  1.4589 -1.4380
 3760TIP3    H232772   6.214   1.348   0.963 -1.3320  0.4739 -2.4189
 3761TIP3   OH232773   6.352   0.276   3.409 -0.2614  0.5241  0.8275
 3761TIP3    H132774   6.286   0.345   3.412 -1.2616 -0.3126 -0.4720
 3761TIP3    H232775   6.302   0.195   3.414  0.7111 -0.1247  0.3782
 3762TIP3   OH232776   3.815   2.396   1.882 -0.5832  0.3495  0.7628
 3762TIP3    H132777   3.815   2.491   1.898 -0.2012  0.3465  0.7827
 3762TIP3    H232778   3.907   2.371   1.888 -0.6975 -0.0427  0.8597
 3763TIP3   OH232779   0.561   3.475  11.876  0.1180 -0.0109  0.3389
 3763TIP3    H132780   0.468   3.487  11.898  0.1546  0.2548  0.3504
 3763TIP3    H232781   0.606   3.482  11.960  0.1353 -0.3073  0.3568
 3764TIP3   OH232782   3.087   5.876   6.450  0.1999 -0.0137  0.4182
 3764TIP3    H132783   3.139   5.796   6.458  1.2229  0.5639 -0.1432
 3764TIP3    H232784   2.997   5.848   6.463  0.5816 -1.1749  0.7083
 3765TIP3   OH232785   5.135   1.517   1.695 -0.9578 -0.0958 -0.0259
 3765TIP3    H132786   5.138   1.424   1.716 -3.7034 -0.7039 -1.7842
 3765TIP3    H232787   5.184   1.559   1.765  1.2304 -2.9002  0.2776
 3766TIP3   OH232788   2.356   0.849  16.617  0.1659 -0.6726  0.3142
 3766TIP3    H132789   2.353   0.933  16.570  0.7447 -1.0267 -0.3723
 3766TIP3    H232790   2.448   0.836  16.638  0.3408 -1.9253 -1.0754
 3767TIP3   OH232791   1.205   3.068   4.321 -0.2339 -0.2270 -0.3880
 3767TIP3    H132792   1.286   3.116   4.337  0.2625 -0.2266 -2.5647
 3767TIP3    H232793   1.234   2.981   4.294 -1.0183 -0.6540  0.1086
 3768TIP3   OH232794   4.226   5.898   6.520  0.7591  0.2255 -0.6949
 3768TIP3    H132795   4.179   5.974   6.487  0.9318  0.1047 -1.2323
 3768TIP3    H232796   4.182   5.876   6.602 -0.0019  0.2212 -1.0965
 3769TIP3   OH232797   3.083   3.252  13.217  0.4657 -0.0076 -0.5273
 3769TIP3    H132798   3.178   3.264  13.220  0.5353 -0.6669  0.1910
 3769TIP3    H232799   3.067   3.171  13.265 -0.6442  1.2794  1.4270
 3770TIP3   OH232800   3.830   5.708   1.175 -0.0739  0.0251  0.0336
 3770TIP3    H132801   3.746   5.728   1.215  1.5252  1.4180  2.9925
 3770TIP3    H232802   3.842   5.776   1.109 -0.7328  0.5712  0.4663
 3771TIP3   OH232803   2.266   1.887  11.934 -0.2722 -0.6533  0.0540
 3771TIP3    H132804   2.199   1.950  11.910  0.2993 -0.5401 -1.3152
 3771TIP3    H232805   2.348   1.935  11.927  0.5157 -2.1482 -4.0029
 3772TIP3   OH232806   1.678   6.792   2.813  0.3553  0.5351  0.3094
 3772TIP3    H132807   1.642   6.706   2.834 -2.4972  1.7336  0.8602
 3772TIP3    H232808   1.602   6.851   2.815  1.4291  2.4866 -3.7714
 3773TIP3   OH232809   6.526   6.184  12.181 -0.0195 -0.0576  0.5341
 3773TIP3    H132810   6.502   6.094  12.160  0.8173 -0.0953 -0.3221
 3773TIP3    H232811   6.549   6.223  12.097  0.6665  0.6383  1.0292
 3774TIP3   OH232812   1.508   1.072   0.444  0.3647  0.0106  0.0892
 3774TIP3    H132813   1.485   1.024   0.523  0.5840 -0.7113 -0.2800
 3774TIP3    H232814   1.603   1.062   0.435  0.3081 -0.1421 -0.4069
 3775TIP3   OH232815   4.458   4.627  11.848 -0.7183  0.3704 -0.4119
 3775TIP3    H132816   4.460   4.545  11.799  2.7229  0.2413 -0.2768
 3775TIP3    H232817   4.475   4.601  11.938 -0.9699  1.1291 -0.1411
 3776TIP3   OH232818   1.611   0.848  15.165 -0.3908 -0.0582 -0.4557
 3776TIP3    H132819   1.625   0.819  15.255 -1.2264  0.9123  0.0080
 3776TIP3    H232820   1.686   0.814  15.117  1.1713  1.1787  1.0100
 3777TIP3   OH232821   4.888   2.335  13.694 -0.3161  0.2344  0.3030
 3777TIP3    H132822   4.871   2.255  13.744  0.2602  1.4499  2.6045
 3777TIP3    H232823   4.966   2.315  13.643  0.4850 -0.3449  1.7090
 3778TIP3   OH232824   0.478   2.420  12.913  0.1246  0.0865  0.2577
 3778TIP3    H132825   0.568   2.443  12.937 -0.3979  1.5288  0.9481
 3778TIP3    H232826   0.487   2.349  12.850  1.6609 -1.8207  2.4924
 3779TIP3   OH232827   4.874   1.937   1.180  0.9693 -0.5357  0.4184
 3779TIP3    H132828   4.940   1.906   1.242 -0.1048 -2.3271  0.7206
 3779TIP3    H232829   4.843   1.858   1.135 -1.2197  0.1784  0.5348
 3780TIP3   OH232830   6.052   6.657   6.058  0.9065  0.0928  0.0633
 3780TIP3    H132831   6.107   6.593   6.104 -0.7839 -0.6373  1.1747
 3780TIP3    H232832   6.005   6.703   6.127 -0.6211 -0.0227 -0.8402
 3781TIP3   OH232833   1.596   4.849   3.579  1.2711  0.5637 -0.2678
 3781TIP3    H132834   1.691   4.835   3.576  1.2310 -0.2079  1.1925
 3781TIP3    H232835   1.573   4.837   3.671 -0.3422  0.1321 -0.7031
 3782TIP3   OH232836   6.332   1.731  10.109 -0.3331  0.1681  0.8803
 3782TIP3    H132837   6.322   1.637  10.094 -0.1396  0.1996  0.5435
 3782TIP3    H232838   6.243   1.763  10.120 -0.3459 -0.2341  2.1449
 3783TIP3   OH232839   4.620   0.364   3.038 -0.3369 -0.3742  0.7158
 3783TIP3    H132840   4.653   0.274   3.038  0.3458 -0.1765  2.7139
 3783TIP3    H232841   4.561   0.368   2.963  0.9196 -1.9797 -0.4386
 3784TIP3   OH232842   5.354   0.507  11.515 -0.6176 -0.3183  0.2187
 3784TIP3    H132843   5.446   0.533  11.514 -0.2456 -1.5734 -0.0382
 3784TIP3    H232844   5.327   0.517  11.606 -0.1978 -0.0128  0.3080
 3785TIP3   OH232845   0.568   6.562  14.859 -0.6944 -0.1020 -0.3611
 3785TIP3    H132846   0.514   6.617  14.916 -0.7417 -0.5179 -0.0027
 3785TIP3    H232847   0.584   6.483  14.910 -0.4019 -0.3113 -0.7733
 3786TIP3   OH232848   3.621   2.723   2.217 -0.2833  0.3463  0.0601
 3786TIP3    H132849   3.688   2.763   2.161  0.7751 -0.9231  0.3821
 3786TIP3    H232850   3.645   2.748   2.306  0.5432 -1.1366  0.2929
 3787TIP3   OH232851   1.062   5.536   4.492 -0.0424  0.1025 -0.0710
 3787TIP3    H132852   1.134   5.596   4.476  1.2495 -0.9604  1.4728
 3787TIP3    H232853   0.984   5.591   4.494  0.8912  1.4651 -0.3373
 3788TIP3   OH232854   3.708   3.888  15.611  0.3226  0.3135 -0.0107
 3788TIP3    H132855   3.784   3.877  15.555 -0.9459 -0.7430 -1.6093
 3788TIP3    H232856   3.651   3.947  15.563 -0.5446 -0.1475  0.4315
 3789TIP3   OH232857   6.146   1.836  16.409  0.3769 -0.8211  0.3766
 3789TIP3    H132858   6.185   1.922  16.398  1.2861 -1.1297  1.1133
 3789TIP3    H232859   6.198   1.779  16.352 -0.6422 -0.7880 -0.6374
 3790TIP3   OH232860   4.056   0.807  13.649 -0.5795 -0.0190  0.5804
 3790TIP3    H132861   4.038   0.799  13.743 -0.8587 -2.8129  0.3434
 3790TIP3    H232862   4.131   0.749  13.634  0.0682  1.1137 -0.7979
 3791TIP3   OH232863   2.482   3.587   0.885 -0.7631 -0.1868 -0.2591
 3791TIP3    H132864   2.442   3.653   0.829  0.4355  0.5823 -0.2299
 3791TIP3    H232865   2.463   3.504   0.841  0.0923  0.3906 -1.7692
 3792TIP3   OH232866   4.377   5.938  15.123  0.9460  0.1109  0.4963
 3792TIP3    H132867   4.283   5.948  15.108  0.6592 -0.1976  1.9267
 3792TIP3    H232868   4.392   5.979  15.209  2.0227 -0.2964  0.5146
 3793TIP3   OH232869   1.190   4.387   0.737  0.0485 -0.0371  0.3720
 3793TIP3    H132870   1.277   4.348   0.748 -1.0556 -2.4249  1.4785
 3793TIP3    H232871   1.132   4.330   0.787 -2.4316  0.4077 -1.7647
 3794TIP3   OH232872   6.324   4.502  16.527 -0.4565  0.6873  0.3416
 3794TIP3    H132873   6.283   4.484  16.611  1.1595 -0.6128  0.9111
 3794TIP3    H232874   6.369   4.586  16.540 -0.3681  0.5827  0.7271
 3795TIP3   OH232875   0.418   1.172  14.828 -0.4851 -0.1098  0.3490
 3795TIP3    H132876   0.441   1.170  14.921 -3.5070 -2.5945  1.2300
 3795TIP3    H232877   0.383   1.260  14.814 -0.4402  0.1570  1.7278
 3796TIP3   OH232878   3.974   2.827   1.259 -0.5374  0.0814  0.1371
 3796TIP3    H132879   3.981   2.732   1.269  1.3448 -0.0656 -1.6385
 3796TIP3    H232880   3.991   2.862   1.346 -0.6892 -1.2015  0.7032
 3797TIP3   OH232881   1.933   0.215  13.768 -0.0423 -0.3596  0.2374
 3797TIP3    H132882   1.897   0.240  13.683  0.3705  0.7128  0.3615
 3797TIP3    H232883   1.863   0.166  13.810 -0.0208 -1.4901 -0.9681
 3798TIP3   OH232884   1.161   4.847  12.022  0.5487 -0.0543  0.0476
 3798TIP3    H132885   1.166   4.905  12.098  4.1287  1.6575 -1.2936
 3798TIP3    H232886   1.142   4.906  11.948  0.2630 -1.2107 -0.8310
 3799TIP3   OH232887   4.622   2.196   6.031 -0.3931 -0.1053 -0.2139
 3799TIP3    H132888   4.716   2.183   6.045 -0.5921 -2.3154 -0.6785
 3799TIP3    H232889   4.585   2.196   6.119 -0.0902 -0.3719 -0.0846
 3800TIP3   OH232890   6.792   1.111  11.590 -0.1256  0.7004  0.3273
 3800TIP3    H132891   6.807   1.033  11.644 -1.6239 -0.1170 -0.3731
 3800TIP3    H232892   6.807   1.082  11.500 -0.7706  1.1762  0.0538
 3801TIP3   OH232893   3.134   1.392   5.263  0.6117 -0.1315  0.6255
 3801TIP3    H132894   3.172   1.476   5.238  1.7300 -0.9461 -0.5299
 3801TIP3    H232895   3.041   1.400   5.240  0.7045  0.7785  0.5199
 3802TIP3   OH232896   0.177   6.203  11.823  0.2005 -0.4398 -0.3421
 3802TIP3    H132897   0.130   6.121  11.839 -0.2699 -0.7537 -2.9062
 3802TIP3    H232898   0.259   6.193  11.871 -1.3503 -0.8125  2.4068
 3803TIP3   OH232899   5.002   0.106   2.080 -0.0505 -0.3095  0.2484
 3803TIP3    H132900   5.055   0.052   2.139  0.2377 -0.2991 -0.0028
 3803TIP3    H232901   5.061   0.174   2.049 -0.1914 -0.3385 -0.0884
 3804TIP3   OH232902   0.262   0.642  12.077 -0.1157  0.3469  0.4349
 3804TIP3    H132903   0.202   0.655  12.003  1.0124  0.9383 -0.3967
 3804TIP3    H232904   0.349   0.640  12.038  0.3687 -1.5637  1.5056
 3805TIP3   OH232905   3.695   2.306  12.608 -0.5011  0.2649  0.3141
 3805TIP3    H132906   3.732   2.378  12.659 -0.4823  1.5079 -1.3608
 3805TIP3    H232907   3.605   2.334  12.590 -0.5085 -0.1453 -0.3136
 3806TIP3   OH232908   1.906   2.982   2.095 -0.8733 -0.1174  0.4598
 3806TIP3    H132909   1.974   3.048   2.107 -1.9480  0.7816  1.9147
 3806TIP3    H232910   1.902   2.936   2.179 -1.3904 -0.8303  0.0630
 3807TIP3   OH232911   2.241   0.056  14.248  0.8329  0.0108 -0.5921
 3807TIP3    H132912   2.213  -0.014  14.189  2.4815 -2.7953  1.6757
 3807TIP3    H232913   2.336   0.051  14.247  0.9247  0.3569  1.6477
 3808TIP3   OH232914   4.375   1.213   0.836  0.7708  0.0572  0.2056
 3808TIP3    H132915   4.290   1.254   0.818  0.7898  0.0124  0.0122
 3808TIP3    H232916   4.362   1.167   0.919  0.6694  0.2318  0.2863
 3809TIP3   OH232917   0.745   3.160   5.139  0.0868  0.2427  0.0175
 3809TIP3    H132918   0.682   3.089   5.129  0.4014  0.2402 -2.8576
 3809TIP3    H232919   0.691   3.239   5.145 -0.2417  0.0362 -0.1407
 3810TIP3   OH232920   1.188   1.622  12.762  0.2104  0.2515  0.8916
 3810TIP3    H132921   1.155   1.622  12.852 -0.9906  0.5017  0.4756
 3810TIP3    H232922   1.195   1.714  12.740  0.3396  0.1883  0.6717
 3811TIP3   OH232923   4.520   5.410   3.579 -0.1429 -0.0095 -0.3632
 3811TIP3    H132924   4.487   5.343   3.639  0.8135  0.0208  0.2175
 3811TIP3    H232925   4.522   5.367   3.493 -0.6407 -0.3482 -0.2073
 3812TIP3   OH232926   4.219   4.489  16.426 -0.0235  0.0862  0.1211
 3812TIP3    H132927   4.169   4.569  16.409 -0.0465 -0.3694 -2.5266
 3812TIP3    H232928   4.310   4.518  16.430  0.0701  0.2369 -1.7893
 3813TIP3   OH232929   3.598   4.414   4.112  0.9344  0.0660  0.1402
 3813TIP3    H132930   3.584   4.490   4.055  0.9494 -0.0907 -0.0746
 3813TIP3    H232931   3.691   4.419   4.135  0.8873  0.2282  0.2924
 3814TIP3   OH232932   4.913   3.753   1.494 -0.5761  0.6069 -0.3369
 3814TIP3    H132933   4.917   3.842   1.531  0.9163  0.2284  0.4903
 3814TIP3    H232934   4.875   3.765   1.407 -0.4525  2.0443 -0.2215
 3815TIP3   OH232935   3.337   1.982  13.895  0.3908 -0.3682  0.3083
 3815TIP3    H132936   3.395   2.058  13.896 -1.0058  0.7326  1.4931
 3815TIP3    H232937   3.379   1.918  13.952  0.1673  0.6668  1.6891
 3816TIP3   OH232938   4.403   3.569  15.349  0.0104  0.3898  0.0501
 3816TIP3    H132939   4.347   3.526  15.414 -0.0393  2.2199  1.2967
 3816TIP3    H232940   4.342   3.617  15.294  0.2200  0.7600  0.1410
 3817TIP3   OH232941   4.177   0.417  13.262 -0.1936 -0.2477  0.1614
 3817TIP3    H132942   4.264   0.414  13.222  1.0620 -1.5586  2.7601
 3817TIP3    H232943   4.171   0.506  13.297 -0.1501  0.0338 -0.5354
 3818TIP3   OH232944   5.371   6.592   0.364 -0.0904 -0.4014  0.1018
 3818TIP3    H132945   5.366   6.543   0.281 -1.9563 -1.2208  0.6349
 3818TIP3    H232946   5.432   6.663   0.346 -0.9086 -0.1841 -2.2054
 3819TIP3   OH232947   5.718   1.077   1.763 -0.6031  0.6487  0.0840
 3819TIP3    H132948   5.783   1.011   1.738 -0.8558 -0.1884  1.4947
 3819TIP3    H232949   5.700   1.125   1.683  0.2858 -0.4028 -0.7791
 3820TIP3   OH232950   0.744   0.138   5.020  0.6585  0.3403  0.7170
 3820TIP3    H132951   0.697   0.055   5.014 -0.2591  0.5368  3.5842
 3820TIP3    H232952   0.680   0.203   4.991  0.3093  0.2997  1.3818
 3821TIP3   OH232953   2.830   6.025  13.502 -0.1142  0.2127  0.3303
 3821TIP3    H132954   2.839   6.107  13.550  3.3037  0.7741 -0.9712
 3821TIP3    H232955   2.866   5.959  13.561  3.0681  0.7397 -0.8369
 3822TIP3   OH232956   2.479   2.537  15.503  0.3343  0.3141 -0.1071
 3822TIP3    H132957   2.431   2.498  15.576  1.8322 -0.7963  0.3258
 3822TIP3    H232958   2.415   2.539  15.431 -0.1287 -1.9767  0.1699
 3823TIP3   OH232959   6.405   6.285  10.976 -0.0084 -0.2991 -0.3256
 3823TIP3    H132960   6.379   6.224  10.907 -2.1522 -1.9487  1.7850
 3823TIP3    H232961   6.485   6.247  11.012 -0.8480 -1.4400  0.3960
 3824TIP3   OH232962   5.765   5.248   4.590  0.1883 -0.3176 -0.6421
 3824TIP3    H132963   5.850   5.246   4.633 -0.2972  1.9152  0.5443
 3824TIP3    H232964   5.715   5.314   4.638 -0.7363  1.6279 -3.9598
 3825TIP3   OH232965   3.578   4.516  14.028 -0.4527  0.0984  0.0576
 3825TIP3    H132966   3.498   4.532  13.978 -1.3773 -0.9515  1.1395
 3825TIP3    H232967   3.613   4.604  14.045 -1.8523  0.6502  0.2948
 3826TIP3   OH232968   2.218   3.159  14.549 -0.7723  0.4118 -0.3204
 3826TIP3    H132969   2.134   3.182  14.509 -0.4401  0.0261 -1.2749
 3826TIP3    H232970   2.266   3.242  14.551  0.1594  0.0613 -3.1148
 3827TIP3   OH232971   2.013   1.575   4.949 -0.1033  0.2750  0.0063
 3827TIP3    H132972   2.072   1.502   4.931 -1.0082 -0.4224 -0.2179
 3827TIP3    H232973   1.995   1.614   4.863  0.8003  1.1117  0.1842
 3828TIP3   OH232974   5.739   1.544  15.323  0.5062  0.1025 -0.3735
 3828TIP3    H132975   5.801   1.561  15.252  1.8752  0.3274  0.8153
 3828TIP3    H232976   5.768   1.602  15.394 -1.1769  0.3121  0.1830
 3829TIP3   OH232977   2.413   4.488   4.982  0.3149  0.0823 -0.1684
 3829TIP3    H132978   2.396   4.398   4.952  1.4399 -0.0380 -0.4999
 3829TIP3    H232979   2.338   4.538   4.951 -1.0218 -0.9744  1.1934
 3830TIP3   OH232980   0.253   0.143   2.494  0.2924 -0.1203 -0.2795
 3830TIP3    H132981   0.295   0.058   2.485  0.8799  0.1564 -0.1963
 3830TIP3    H232982   0.322   0.206   2.475 -0.2071  0.3372 -0.6216
 3831TIP3   OH232983   2.514   2.851   4.599  0.1126 -0.5768 -0.2536
 3831TIP3    H132984   2.495   2.829   4.691  1.6485 -0.6660  0.0684
 3831TIP3    H232985   2.564   2.932   4.604 -1.2736  0.3613 -1.1463
 3832TIP3   OH232986   3.976   5.438  15.353 -0.3999  0.2846 -0.9069
 3832TIP3    H132987   4.048   5.384  15.387 -0.2058 -0.3653 -2.2520
 3832TIP3    H232988   3.907   5.375  15.331 -2.0604  1.0120  1.7559
 3833TIP3   OH232989   0.279   2.360   4.855 -0.3662  0.5574 -0.4893
 3833TIP3    H132990   0.247   2.318   4.775 -0.0012 -0.5043 -0.0945
 3833TIP3    H232991   0.289   2.288   4.917 -0.4389  1.3431  0.4485
 3834TIP3   OH232992   2.041   1.118  13.512  0.4284  0.0681  0.5267
 3834TIP3    H132993   2.038   1.201  13.559  0.8119  0.9792 -0.9873
 3834TIP3    H232994   2.054   1.143  13.420  1.5669 -1.7030  0.1650
 3835TIP3   OH232995   3.859   0.955   5.392 -0.2378  0.0809  0.0631
 3835TIP3    H132996   3.823   0.955   5.303  0.5421  3.0170 -0.3571
 3835TIP3    H232997   3.950   0.983   5.380  0.3258 -0.9439  1.6911
 3836TIP3   OH232998   2.883   1.762   4.608 -0.0467 -0.4675 -0.2222
 3836TIP3    H132999   2.899   1.685   4.662  0.6200 -0.1770  0.0051
 3836TIP3    H233000   2.794   1.750   4.575 -1.2754  0.3454  2.5622
 3837TIP3   OH233001   1.563   2.221  12.560  0.2224  0.1335 -0.0273
 3837TIP3    H133002   1.513   2.292  12.520 -0.1029  0.8331  1.5631
 3837TIP3    H233003   1.644   2.216  12.508 -0.0972  1.1175 -0.6456
 3838TIP3   OH233004   0.191   6.428  10.752 -0.3345  0.4040  0.0100
 3838TIP3    H133005   0.218   6.461  10.666 -0.3871  1.4187  0.3632
 3838TIP3    H233006   0.271   6.427  10.804 -0.6245  1.6913  0.5221
 3839TIP3   OH233007   5.688   3.764  14.442 -0.7286  0.1686 -0.0487
 3839TIP3    H133008   5.702   3.824  14.368  0.1557  1.3709  1.0498
 3839TIP3    H233009   5.593   3.751  14.443 -1.0732  2.2521  0.1599
 3840TIP3   OH233010   6.065   2.352   1.533 -0.3194  0.2558 -0.0950
 3840TIP3    H133011   5.979   2.327   1.568 -0.4535  1.4268  0.4799
 3840TIP3    H233012   6.091   2.279   1.478 -2.3803  0.5100 -1.5009
 3841TIP3   OH233013   0.530   5.535  10.475 -0.3764  0.2484  0.1541
 3841TIP3    H133014   0.444   5.495  10.489  0.5635 -1.2005  2.3170
 3841TIP3    H233015   0.510   5.624  10.447 -2.7022  1.1534  3.9689
 3842TIP3   OH233016   5.202   0.212  11.122  0.0003  0.1903 -0.2514
 3842TIP3    H133017   5.297   0.209  11.131  0.0679  0.6736 -0.8002
 3842TIP3    H233018   5.178   0.123  11.095  0.2155 -0.1292  0.5635
 3843TIP3   OH233019   5.388   0.118   2.090 -0.0630  0.2124 -0.4307
 3843TIP3    H133020   5.323   0.069   2.141  1.4320 -2.2717 -0.7478
 3843TIP3    H233021   5.346   0.202   2.073 -1.4299  0.4475  3.1795
 3844TIP3   OH233022   1.767   2.105  16.455 -0.4091  0.6209  0.2374
 3844TIP3    H133023   1.807   2.172  16.511  0.2793 -1.3974  2.3244
 3844TIP3    H233024   1.697   2.151  16.409 -0.0355  2.7468  1.6544
 3845TIP3   OH233025   1.943   6.682   6.626  0.3366 -0.3100  0.2595
 3845TIP3    H133026   1.965   6.605   6.679 -1.2409 -2.0489 -1.4647
 3845TIP3    H233027   1.848   6.679   6.617  0.4745  0.3565 -2.0001
 3846TIP3   OH233028   0.296   6.140   4.990  0.3519 -0.0139  0.0650
 3846TIP3    H133029   0.362   6.204   4.962  0.8860 -0.7216 -0.3618
 3846TIP3    H233030   0.320   6.119   5.080 -0.9301  1.7271  0.8641
 3847TIP3   OH233031   1.378   3.660   2.892  0.2875  0.5781 -0.6225
 3847TIP3    H133032   1.416   3.729   2.837  0.4586  2.3988  1.6148
 3847TIP3    H233033   1.411   3.679   2.980 -1.4509 -1.0659  0.4614
 3848TIP3   OH233034   6.525   1.199   4.792  0.0037 -0.4381  0.6807
 3848TIP3    H133035   6.598   1.169   4.845  2.4172  0.8270 -1.6663
 3848TIP3    H233036   6.503   1.125   4.735  0.8776 -0.2165  0.0291
 3849TIP3   OH233037   5.471   3.585  13.258  0.4205  0.2336 -0.0847
 3849TIP3    H133038   5.489   3.676  13.283 -1.5561  0.6278  0.0710
 3849TIP3    H233039   5.489   3.582  13.164 -2.3213  1.6700 -0.7663
 3850TIP3   OH233040   1.658   6.330  11.910 -0.1386 -0.0258  0.4560
 3850TIP3    H133041   1.690   6.267  11.974 -0.9398 -0.7256  0.1972
 3850TIP3    H233042   1.737   6.370  11.873  0.3451 -0.1452  1.3482
 3851TIP3   OH233043   5.262   2.273  15.198  0.3923 -0.0247  0.4023
 3851TIP3    H133044   5.351   2.259  15.228 -0.3735 -2.8869  1.6387
 3851TIP3    H233045   5.209   2.210  15.247 -2.0512  0.2715 -1.6278
 3852TIP3   OH233046   1.615   4.028   1.594  1.0536  0.1493 -0.3755
 3852TIP3    H133047   1.633   3.996   1.682  1.4084  0.8345 -0.1910
 3852TIP3    H233048   1.519   4.033   1.590  0.9055 -2.1395 -0.8653
 3853TIP3   OH233049   0.659   3.282  16.014 -0.4763 -0.5447  0.0423
 3853TIP3    H133050   0.724   3.227  15.970  0.4428  0.7525 -0.2720
 3853TIP3    H233051   0.709   3.356  16.048 -1.7722  0.4238 -0.1010
 3854TIP3   OH233052   5.166   0.190  11.887  0.0008 -0.3101 -0.3995
 3854TIP3    H133053   5.203   0.102  11.883 -0.0242 -0.3220 -0.3665
 3854TIP3    H233054   5.085   0.184  11.836 -1.0204 -0.8047  1.1993
 3855TIP3   OH233055   6.813   6.283   0.319  0.5508 -0.1204 -0.3691
 3855TIP3    H133056   6.884   6.222   0.337  0.1336 -0.5798 -0.2722
 3855TIP3    H233057   6.855   6.369   0.317  1.6523 -0.5933 -3.1138
 3856TIP3   OH233058   2.390   6.374   1.404  0.4148  0.0235 -0.3577
 3856TIP3    H133059   2.443   6.342   1.477  1.3749  0.8281 -0.6834
 3856TIP3    H233060   2.335   6.442   1.442  1.0033  0.5292 -0.4065
 3857TIP3   OH233061   3.489   6.748   1.715 -0.6714  0.0129  0.4767
 3857TIP3    H133062   3.563   6.698   1.681  0.2877  1.6789  0.0170
 3857TIP3    H233063   3.526   6.834   1.737 -2.5442  1.0495 -0.2176
 3858TIP3   OH233064   2.911   6.712   2.204 -0.0583 -0.1788  0.3054
 3858TIP3    H133065   2.861   6.723   2.123  1.1179 -0.9477 -0.5487
 3858TIP3    H233066   2.942   6.622   2.202  1.5632  0.3387  0.6851
 3859TIP3   OH233067   3.171   1.124  16.710 -0.1351 -0.3057  0.0057
 3859TIP3    H133068   3.145   1.061  16.643 -1.0228  0.2060 -0.1462
 3859TIP3    H233069   3.207   1.070  16.781  1.0735 -0.8310 -0.9755
 3860TIP3   OH233070   4.684   6.687   5.616  0.3998  0.1916 -0.0066
 3860TIP3    H133071   4.660   6.777   5.593  1.3721  0.3485 -0.4451
 3860TIP3    H233072   4.641   6.633   5.550 -2.4944  0.0657  1.8283
 3861TIP3   OH233073   0.660   5.502   4.382 -0.1719  0.0572 -0.1448
 3861TIP3    H133074   0.691   5.473   4.296 -0.6763  0.8309 -0.6026
 3861TIP3    H233075   0.566   5.514   4.370 -0.7703 -2.4924  1.2753
 3862TIP3   OH233076   6.062   2.034   4.726  0.2028  0.7253 -0.1526
 3862TIP3    H133077   5.987   1.994   4.770  0.4166  1.2436  0.7009
 3862TIP3    H233078   6.137   2.011   4.780  0.7817 -0.3507 -1.3604
 3863TIP3   OH233079   2.539   3.487   6.715  0.0345 -0.4599 -0.4154
 3863TIP3    H133080   2.452   3.525   6.727 -0.7555 -2.3495  0.1965
 3863TIP3    H233081   2.565   3.516   6.628 -1.1458  0.2632 -0.5576
 3864TIP3   OH233082   1.959   3.867   3.382 -0.4371  0.1508  0.0370
 3864TIP3    H133083   1.923   3.779   3.366  1.8957 -0.6525 -1.3342
 3864TIP3    H233084   1.952   3.878   3.476  1.0710 -2.4829  0.5816
 3865TIP3   OH233085   4.270   5.881   0.305  0.4675  0.0687  0.3220
 3865TIP3    H133086   4.366   5.887   0.307  0.5322 -0.8466  0.4629
 3865TIP3    H233087   4.240   5.956   0.356  1.1466 -0.2909  1.2796
 3866TIP3   OH233088   2.916   5.543   2.130  0.0738 -0.5267  0.4006
 3866TIP3    H133089   2.954   5.593   2.203  0.2363 -0.2171  0.1085
 3866TIP3    H233090   2.962   5.459   2.132  2.2497  0.5210 -1.1478
 3867TIP3   OH233091   6.577   2.625   5.311 -0.0626  0.3338  0.2042
 3867TIP3    H133092   6.606   2.558   5.249  0.1397  0.4501  0.1725
 3867TIP3    H233093   6.485   2.604   5.327 -0.5330  1.1698 -1.2570
 3868TIP3   OH233094   2.295   2.572   2.454 -0.0696 -0.3348 -0.1445
 3868TIP3    H133095   2.249   2.527   2.525  1.0743 -0.0404  0.8005
 3868TIP3    H233096   2.225   2.612   2.402 -0.9201 -0.5077  0.8345
 3869TIP3   OH233097   5.847   6.662   4.595  0.7292 -0.1429  0.4629
 3869TIP3    H133098   5.898   6.700   4.524  0.8466 -2.2829 -0.7015
 3869TIP3    H233099   5.768   6.716   4.601  0.0396 -0.7192 -2.3153
 3870TIP3   OH233100   0.271   4.715  13.221 -0.0798  0.3076 -0.3332
 3870TIP3    H133101   0.335   4.786  13.231  1.0723 -0.9407  2.4237
 3870TIP3    H233102   0.297   4.670  13.141  1.9408  0.4256  0.1980
 3871TIP3   OH233103   0.566   6.204  11.475  0.2909 -0.1575  0.1791
 3871TIP3    H133104   0.547   6.287  11.431 -0.5389  0.9892  2.5310
 3871TIP3    H233105   0.538   6.137  11.412  0.1050  1.3232 -1.4114
 3872TIP3   OH233106   1.880   1.311   2.426 -0.5965 -0.1034 -0.7153
 3872TIP3    H133107   1.956   1.275   2.379 -1.2168  1.1985 -2.8631
 3872TIP3    H233108   1.813   1.322   2.358 -1.5446  1.9732  0.4512
 3873TIP3   OH233109   5.760   0.396  11.801 -0.2107 -0.5610  0.1688
 3873TIP3    H133110   5.827   0.355  11.747 -0.6580  0.0888 -0.9142
 3873TIP3    H233111   5.732   0.326  11.861  1.6610 -0.7355  0.9032
 3874TIP3   OH233112   6.043   2.870  12.871  0.3942 -0.3635  0.1021
 3874TIP3    H133113   6.026   2.897  12.781  0.4922  0.0148  0.1953
 3874TIP3    H233114   6.139   2.867  12.877  0.3933  0.0298  0.3165
 3875TIP3   OH233115   4.004   3.265   2.555 -0.2067 -0.0661 -1.0220
 3875TIP3    H133116   4.075   3.322   2.582 -1.2464  0.3215  1.0813
 3875TIP3    H233117   4.044   3.206   2.491  2.0417  0.0529  0.1637
 3876TIP3   OH233118   1.266   4.205   0.999 -0.4282 -0.0877  0.1676
 3876TIP3    H133119   1.349   4.205   0.952  0.9158 -0.5796  2.4195
 3876TIP3    H233120   1.243   4.298   1.007 -0.4353  0.0288 -0.9508
 3877TIP3   OH233121   5.336   2.067   3.383 -0.3331  0.2394 -0.0883
 3877TIP3    H133122   5.256   2.014   3.377  0.3207 -0.7544 -0.3478
 3877TIP3    H233123   5.340   2.114   3.299 -0.6441  0.2958 -0.0721
 3878TIP3   OH233124   4.286   3.223   4.957 -0.3578 -0.3312 -0.5984
 3878TIP3    H133125   4.276   3.158   5.027  2.6751  0.0903  0.3714
 3878TIP3    H233126   4.371   3.203   4.919 -0.5527  1.4551 -2.0785
 3879TIP3   OH233127   1.657   0.179  16.244  0.3652 -0.2158  0.4356
 3879TIP3    H133128   1.707   0.254  16.276 -1.1231  0.4756  1.2158
 3879TIP3    H233129   1.648   0.121  16.320  3.6464 -2.5287 -0.6992
 3880TIP3   OH233130   1.754   3.045  15.315 -0.1197 -0.2682  1.0236
 3880TIP3    H133131   1.778   3.070  15.404  0.9391  1.1684  0.3679
 3880TIP3    H233132   1.837   3.031  15.270 -0.6447 -1.4251  0.3476
 3881TIP3   OH233133   0.357   2.297  12.387  0.0760  0.2863  0.0968
 3881TIP3    H133134   0.403   2.287  12.304  0.5316  0.2396  0.3506
 3881TIP3    H233135   0.372   2.388  12.412 -1.2317  0.6983 -0.5529
 3882TIP3   OH233136   2.630   3.587   5.622 -0.5486 -0.1778  0.3694
 3882TIP3    H133137   2.668   3.641   5.692 -1.0059 -1.1958  1.4256
 3882TIP3    H233138   2.640   3.497   5.653  0.1941 -0.7224 -1.3653
 3883TIP3   OH233139   6.290   0.003   3.477 -0.3769 -0.0999  0.2957
 3883TIP3    H133140   6.242  -0.021   3.556  1.4603  0.4431  1.6309
 3883TIP3    H233141   6.382   0.001   3.503  0.1747  3.0721 -0.9554
 3884TIP3   OH233142   2.090   2.347   5.625 -0.1134  0.4545  0.4764
 3884TIP3    H133143   2.122   2.408   5.692 -0.8560  0.6719  0.6391
 3884TIP3    H233144   2.107   2.393   5.542  2.5012 -0.5705  0.3388
 3885TIP3   OH233145   1.488   2.570  16.187 -0.0704 -0.3875  0.2225
 3885TIP3    H133146   1.542   2.649  16.191 -0.2619 -0.2945  1.0810
 3885TIP3    H233147   1.455   2.569  16.097  0.4933  0.1325 -0.0013
 3886TIP3   OH233148   2.192   6.149  13.938  0.3790 -0.0279 -0.2600
 3886TIP3    H133149   2.119   6.203  13.967  1.4865  1.0221  0.6666
 3886TIP3    H233150   2.207   6.177  13.847  0.6879  0.9523  0.0819
 3887TIP3   OH233151   2.923   4.650   4.994 -0.5184 -0.0338  0.1250
 3887TIP3    H133152   2.944   4.557   4.990  1.0440  0.1933  1.5454
 3887TIP3    H233153   2.946   4.684   4.907 -0.0185 -0.7807 -0.0456
 3888TIP3   OH233154   0.065   3.088  14.765 -0.1556 -0.1837  0.4852
 3888TIP3    H133155   0.105   3.169  14.797  1.4073 -1.0597  0.8473
 3888TIP3    H233156  -0.018   3.116  14.726  0.7692  1.7279 -0.2427
 3889TIP3   OH233157   2.598   4.056  14.817  0.0534 -0.0766  0.4948
 3889TIP3    H133158   2.565   4.037  14.729  2.1274 -0.1468 -0.3234
 3889TIP3    H233159   2.521   4.084  14.866 -0.9178  1.5861 -1.8031
 3890TIP3   OH233160   1.170   5.669  14.494  0.6134 -0.2985 -0.1850
 3890TIP3    H133161   1.149   5.753  14.535 -0.9412  0.5808 -2.5654
 3890TIP3    H233162   1.089   5.618  14.502  0.6361 -0.4978 -1.1986
 3891TIP3   OH233163   4.736   3.396  16.839  0.6344 -1.3103  0.3341
 3891TIP3    H133164   4.738   3.455  16.914  0.0268 -3.4648  2.1606
 3891TIP3    H233165   4.823   3.356  16.838  0.5926 -1.3931 -0.0359
 3892TIP3   OH233166   1.563   6.138  13.119 -0.1300 -0.6870 -0.4330
 3892TIP3    H133167   1.481   6.162  13.161  0.0139 -0.9507  0.0159
 3892TIP3    H233168   1.565   6.188  13.038 -0.5603 -0.3971 -0.2676
 3893TIP3   OH233169   2.102   4.045   3.559 -0.5633  0.0480  0.8024
 3893TIP3    H133170   2.089   4.008   3.472  0.5867  0.0577  0.6109
 3893TIP3    H233171   2.131   3.972   3.613 -0.8650  0.1254  1.0695
 3894TIP3   OH233172   1.820   2.177  12.439  0.2993  0.7627 -0.1679
 3894TIP3    H133173   1.896   2.227  12.409  0.0495  0.4790 -1.3306
 3894TIP3    H233174   1.855   2.118  12.505  0.9881  1.0162 -0.2919
 3895TIP3   OH233175   5.806   1.756   6.036 -0.2724  0.1499 -0.2843
 3895TIP3    H133176   5.829   1.782   6.126 -0.3553  0.7948 -0.4466
 3895TIP3    H233177   5.739   1.689   6.047  0.1223 -0.1813  0.1474
 3896TIP3   OH233178   0.218   1.759   3.597 -0.3291  0.2138  0.4707
 3896TIP3    H133179   0.189   1.707   3.522  1.2012 -0.3512  0.2203
 3896TIP3    H233180   0.212   1.700   3.672  0.6989 -0.1069  0.3137
 3897TIP3   OH233181   0.827   6.242   4.066  0.4529  0.7463 -0.2265
 3897TIP3    H133182   0.802   6.227   3.975  1.2718  3.7328 -1.0404
 3897TIP3    H233183   0.754   6.208   4.118 -0.1804 -0.6771 -1.9667
 3898TIP3   OH233184   1.640   2.558  15.396 -0.5988 -0.3780 -0.3598
 3898TIP3    H133185   1.719   2.613  15.403  0.5259 -2.0751  1.0425
 3898TIP3    H233186   1.665   2.490  15.333 -0.1977 -1.9973  1.4539
 3899TIP3   OH233187   6.620   1.268  16.937 -0.3263  0.7707 -0.0760
 3899TIP3    H133188   6.558   1.197  16.953  0.0237  0.3928 -0.3383
 3899TIP3    H233189   6.582   1.318  16.865 -0.3742  0.5973 -0.1718
 3900TIP3   OH233190   0.512   4.819  13.544 -0.5544 -0.2869  0.8878
 3900TIP3    H133191   0.467   4.736  13.527  0.5640 -0.9146  0.8781
 3900TIP3    H233192   0.511   4.864  13.460 -0.5592 -0.6104  0.7111
 3901TIP3   OH233193   4.077   3.378   4.694  0.1172 -0.1216 -0.0444
 3901TIP3    H133194   4.090   3.403   4.602  1.6639  0.4177  0.2914
 3901TIP3    H233195   4.043   3.457   4.736  4.1842  1.4101  0.8329
 3902TIP3   OH233196   0.256   4.875  16.143 -0.3442  0.8121  0.2710
 3902TIP3    H133197   0.236   4.911  16.229 -2.0954 -0.1097  0.2877
 3902TIP3    H233198   0.176   4.828  16.117  1.0450 -1.1615 -0.6994
 3903TIP3   OH233199   2.987   3.211   1.455 -0.0817 -0.0519 -0.3952
 3903TIP3    H133200   2.961   3.138   1.512  1.9217 -0.6714 -0.2052
 3903TIP3    H233201   3.067   3.181   1.413  0.8219  2.0626 -0.3062
 3904TIP3   OH233202   3.682   0.756   4.404  0.2783  0.5062 -0.3516
 3904TIP3    H133203   3.721   0.809   4.335  0.4266  0.3617 -0.3808
 3904TIP3    H233204   3.757   0.717   4.450  0.1630 -0.2940 -0.8178
 3905TIP3   OH233205   2.773   3.772   5.430 -0.6741  0.1718  0.8341
 3905TIP3    H133206   2.690   3.815   5.409 -0.5808 -0.3285 -0.7174
 3905TIP3    H233207   2.749   3.696   5.482 -1.1697  0.1964  0.6398
 3906TIP3   OH233208   4.064   6.476  16.497  0.4564 -0.4548  0.4450
 3906TIP3    H133209   3.972   6.474  16.524  0.0269 -2.0057 -0.9338
 3906TIP3    H233210   4.084   6.385  16.474  1.2997  0.3672 -2.5669
 3907TIP3   OH233211   3.586   5.312   3.753  0.5200  0.3138  0.4020
 3907TIP3    H133212   3.621   5.398   3.732  1.9021 -0.3599 -0.1644
 3907TIP3    H233213   3.605   5.258   3.676 -1.5387 -0.1815  0.1692
 3908TIP3   OH233214   2.498   1.237  13.315  0.1046  0.2306 -0.2776
 3908TIP3    H133215   2.566   1.298  13.287  0.2955 -0.8101 -2.1981
 3908TIP3    H233216   2.438   1.291  13.366  1.0183  1.7175 -0.7133
 3909TIP3   OH233217   3.657   4.765  16.552 -0.2758 -0.2799  0.3723
 3909TIP3    H133218   3.717   4.820  16.602  0.0710 -0.7172  0.4465
 3909TIP3    H233219   3.640   4.690  16.609  0.4454 -0.9890 -0.3140
 3910TIP3   OH233220   2.948   1.736  11.267 -0.4012 -0.1955 -0.2395
 3910TIP3    H133221   2.869   1.710  11.220 -0.6633  1.4090 -0.7686
 3910TIP3    H233222   3.019   1.715  11.206 -0.3916 -1.6936  0.2604
 3911TIP3   OH233223   3.000   1.079  11.824 -0.1597 -0.1256  0.1867
 3911TIP3    H133224   3.016   1.113  11.736 -1.4223  0.8775  0.3120
 3911TIP3    H233225   2.965   1.154  11.872 -0.9169 -1.0506  1.1150
 3912TIP3   OH233226   5.951   3.387   5.294  0.6050  0.2026  0.1502
 3912TIP3    H133227   6.005   3.392   5.373  0.5584 -0.9086  0.2594
 3912TIP3    H233228   5.873   3.339   5.321  0.5145 -0.0430 -0.5304
 3913TIP3   OH233229   1.503   4.880   5.545  0.6564 -0.5506  0.2009
 3913TIP3    H133230   1.510   4.916   5.634 -2.7417  1.9248 -0.3451
 3913TIP3    H233231   1.520   4.955   5.487  0.7791 -1.6413 -1.2291
 3914TIP3   OH233232   3.749   0.713  13.766  0.0531 -0.0609  0.2971
 3914TIP3    H133233   3.839   0.681  13.776  0.1094  0.2392  0.8365
 3914TIP3    H233234   3.695   0.635  13.771  0.3435 -0.3937 -1.2761
 3915TIP3   OH233235   4.986   4.241  13.431  0.7013 -0.3770  0.1255
 3915TIP3    H133236   4.938   4.196  13.500  1.5411  0.9421  1.6452
 3915TIP3    H233237   4.919   4.271  13.370 -0.4585  1.1483  2.0212
 3916TIP3   OH233238   6.008   6.027  13.463 -0.2445  0.3048  0.3581
 3916TIP3    H133239   5.917   6.019  13.438  0.2605  0.3500 -1.6266
 3916TIP3    H233240   6.054   5.963  13.409  0.9313  0.4671  1.1276
 3917TIP3   OH233241   5.477   2.281   5.822 -0.1856  0.5330  0.9541
 3917TIP3    H133242   5.441   2.207   5.773  1.5515 -1.0281  1.8890
 3917TIP3    H233243   5.405   2.311   5.878 -1.1312  0.0465  0.0174
 3918TIP3   OH233244   6.719   2.447   5.142  0.0643 -0.0945 -0.6521
 3918TIP3    H133245   6.814   2.449   5.139  0.1446 -0.5623  0.7885
 3918TIP3    H233246   6.692   2.433   5.051  1.4562 -2.6234 -0.7720
 3919TIP3   OH233247   6.412   3.736   4.398 -0.1944 -0.6498 -0.7959
 3919TIP3    H133248   6.472   3.663   4.416  0.0945 -0.4368 -0.8924
 3919TIP3    H233249   6.359   3.743   4.478 -1.6525 -2.3124 -1.5429
 3920TIP3   OH233250   4.944   5.004   4.711 -0.4679  0.2813  0.4134
 3920TIP3    H133251   4.918   4.929   4.764 -2.9330 -0.2890 -1.4745
 3920TIP3    H233252   5.014   4.972   4.655 -0.1218 -0.0095  1.0010
 3921TIP3   OH233253   4.149   3.901  14.509 -0.1300  0.1469 -0.4217
 3921TIP3    H133254   4.171   3.968  14.573 -0.3946  0.8505 -1.0583
 3921TIP3    H233255   4.081   3.940  14.455  1.2269  0.1999 -2.1761
 3922TIP3   OH233256   2.588   6.123  16.960  0.2017 -0.5616  0.3999
 3922TIP3    H133257   2.559   6.088  16.876 -0.4619 -0.4762  0.5855
 3922TIP3    H233258   2.586   6.048  17.020 -0.7569 -0.3332  0.6819
 3923TIP3   OH233259   6.595   4.709   5.104 -0.3818  0.0947  0.3474
 3923TIP3    H133260   6.597   4.665   5.019 -1.0207 -0.7166  0.7409
 3923TIP3    H233261   6.621   4.800   5.084 -1.5369  0.1896 -0.8730
 3924TIP3   OH233262   6.537   6.753  14.234  0.1467 -0.0606 -0.2454
 3924TIP3    H133263   6.461   6.749  14.176 -0.2382 -0.5679  0.2948
 3924TIP3    H233264   6.610   6.721  14.179 -0.3231 -1.1158 -0.2870
 3925TIP3   OH233265   4.737   5.484  11.721  0.2537  0.3973  0.4958
 3925TIP3    H133266   4.758   5.391  11.713  2.4132  0.9887 -2.9091
 3925TIP3    H233267   4.819   5.525  11.750 -0.0546  1.4418 -0.0502
 3926TIP3   OH233268   0.572   3.973   3.392  0.6485 -0.2993 -0.4887
 3926TIP3    H133269   0.582   3.962   3.487 -0.2228  2.1920 -0.0355
 3926TIP3    H233270   0.635   4.040   3.369  1.0254 -1.0585 -1.7496
 3927TIP3   OH233271   4.037   1.751   4.859 -0.0233 -0.0827 -0.3042
 3927TIP3    H133272   3.973   1.695   4.902  0.3354 -1.0711 -1.0218
 3927TIP3    H233273   4.092   1.784   4.930 -0.1542 -0.7573  0.1196
 3928TIP3   OH233274   0.912   6.394   1.564  0.4916 -0.3765 -0.2020
 3928TIP3    H133275   0.885   6.367   1.652  0.4663 -0.8100 -0.3401
 3928TIP3    H233276   0.901   6.315   1.511 -2.2705  0.6041 -1.2362
 3929TIP3   OH233277   5.098   1.802  11.891  0.2588 -0.3955  0.0399
 3929TIP3    H133278   5.005   1.813  11.873  0.2765  0.7294  0.5758
 3929TIP3    H233279   5.108   1.818  11.984  0.9487 -0.8441  0.0564
 3930TIP3   OH233280   4.511   4.090  14.586 -0.8762 -0.2531  0.4256
 3930TIP3    H133281   4.458   4.044  14.652 -0.6086 -0.3853  0.5499
 3930TIP3    H233282   4.600   4.058  14.601 -0.4851  1.1374  1.2419
 3931TIP3   OH233283   5.295   0.942   2.148  0.0631  0.1908 -0.4599
 3931TIP3    H133284   5.211   0.973   2.184  0.3566  1.1352 -0.5586
 3931TIP3    H233285   5.325   1.014   2.093  1.3081  0.1775  0.1768
 3932TIP3   OH233286   3.144   2.245   4.583  0.1406 -1.0530 -0.1500
 3932TIP3    H133287   3.137   2.171   4.643  0.2507 -0.1904  0.9738
 3932TIP3    H233288   3.059   2.248   4.538  0.1334 -1.8392 -0.1977
 3933TIP3   OH233289   3.574   2.657  11.795  0.1406  0.4069  0.1085
 3933TIP3    H133290   3.645   2.636  11.855  0.6556  1.6946 -0.0187
 3933TIP3    H233291   3.513   2.709  11.848 -1.3538 -1.6758  0.5584
 3934TIP3   OH233292   0.727   4.069   3.797 -0.1664  0.0390 -0.0148
 3934TIP3    H133293   0.748   4.084   3.704 -1.2590 -2.0763 -0.6678
 3934TIP3    H233294   0.677   3.988   3.797  2.7825 -2.0079  2.7871
 3935TIP3   OH233295   0.623   2.519   0.230  0.2056  0.0318  0.5075
 3935TIP3    H133296   0.617   2.424   0.246  1.0147 -0.2209 -0.5630
 3935TIP3    H233297   0.558   2.557   0.290 -0.6520 -1.2488  0.4461
 3936TIP3   OH233298   5.218   6.744  13.436  0.3949  0.5646 -0.1924
 3936TIP3    H133299   5.205   6.821  13.490 -0.1230  1.5644 -1.6695
 3936TIP3    H233300   5.164   6.759  13.359  1.5826 -0.4967 -1.2913
 3937TIP3   OH233301   2.143   2.292  16.978  0.2230  0.3551  0.1026
 3937TIP3    H133302   2.121   2.200  16.992 -0.8163  0.7242  1.0117
 3937TIP3    H233303   2.082   2.321  16.910 -0.0490  0.5903  0.4427
 3938TIP3   OH233304   2.444   3.142  12.310 -0.5320 -0.3866  0.1655
 3938TIP3    H133305   2.465   3.061  12.264 -0.5034 -0.7539  0.8150
 3938TIP3    H233306   2.398   3.113  12.389  1.1389  0.1043  1.3660
 3939TIP3   OH233307   4.464   0.310  14.441  0.2133  0.4622 -0.1089
 3939TIP3    H133308   4.554   0.342  14.453 -0.5239  2.7065 -0.2552
 3939TIP3    H233309   4.474   0.237  14.380  2.1915 -0.9623  1.7496
 3940TIP3   OH233310   0.058   4.595   3.701  0.0826  0.4739 -0.7581
 3940TIP3    H133311   0.072   4.600   3.795  0.1385  0.1582 -0.7489
 3940TIP3    H233312  -0.037   4.588   3.691  0.0616  0.7076 -0.7362
 3941TIP3   OH233313   0.537   1.922   0.182  0.4117  0.1204 -0.0160
 3941TIP3    H133314   0.553   1.978   0.107  0.2708 -0.0606 -0.1810
 3941TIP3    H233315   0.455   1.955   0.220  1.7822  1.9062  1.6095
 3942TIP3   OH233316   4.047   2.157  11.122  0.3678  0.1444  0.4709
 3942TIP3    H133317   3.984   2.158  11.194  0.4518 -0.3293  0.5550
 3942TIP3    H233318   4.090   2.242  11.126 -0.9183  0.8575 -0.1769
 3943TIP3   OH233319   6.302   4.887  13.732 -0.1369 -0.6079  0.8150
 3943TIP3    H133320   6.207   4.872  13.727 -0.4426  0.8823  1.5461
 3943TIP3    H233321   6.337   4.805  13.766 -1.0970 -1.3573  0.0739
 3944TIP3   OH233322   1.140   6.512  12.720 -0.2555 -0.2362 -0.2333
 3944TIP3    H133323   1.134   6.430  12.671  1.2432 -1.0676  0.8757
 3944TIP3    H233324   1.052   6.526  12.755 -0.0950 -2.5332  1.2955
 3945TIP3   OH233325   0.808   4.436  10.557 -0.3527  0.2134  0.0008
 3945TIP3    H133326   0.895   4.395  10.556 -1.0889 -1.4090 -0.8690
 3945TIP3    H233327   0.819   4.515  10.504  0.9188  0.7996  1.0814
 3946TIP3   OH233328   1.190   1.474  13.165 -0.1910 -0.1361 -0.7607
 3946TIP3    H133329   1.262   1.418  13.192 -1.9814 -1.5219  1.5331
 3946TIP3    H233330   1.225   1.563  13.169  1.0893 -0.6720  1.5381
 3947TIP3   OH233331   4.469   5.665   2.287  0.8397 -0.5658  0.0887
 3947TIP3    H133332   4.458   5.684   2.380 -3.5547 -1.5783 -0.0277
 3947TIP3    H233333   4.478   5.570   2.283  0.6469 -0.5565 -0.5626
 3948TIP3   OH233334   3.322   0.958  11.413 -0.8455  0.5327  0.6634
 3948TIP3    H133335   3.237   0.931  11.447 -0.5629  0.0442  0.9962
 3948TIP3    H233336   3.342   0.893  11.346 -1.3359  1.4105 -0.3575
 3949TIP3   OH233337   1.936   0.090   2.726  0.1601 -0.0672  0.0210
 3949TIP3    H133338   1.854   0.047   2.750 -0.5141  1.7621  1.2235
 3949TIP3    H233339   2.001   0.020   2.727 -1.6356 -1.9725 -2.8739
 3950TIP3   OH233340   3.371   1.690  11.525 -0.2509 -0.0292  0.0142
 3950TIP3    H133341   3.302   1.755  11.534 -1.9997 -1.9333  0.9930
 3950TIP3    H233342   3.403   1.676  11.614  0.5000 -0.1166 -0.2625
 3951TIP3   OH233343   4.483   1.298  16.311  0.2697 -0.1532 -0.4351
 3951TIP3    H133344   4.436   1.337  16.384 -0.8324 -0.0623 -1.1825
 3951TIP3    H233345   4.485   1.204  16.331  1.5356  0.0545  0.5696
 3952TIP3   OH233346   4.028   6.123  15.327  0.0417 -0.1212 -0.6884
 3952TIP3    H133347   4.025   6.179  15.405  1.7931  1.0917 -1.4031
 3952TIP3    H233348   4.081   6.048  15.354  1.5759  0.8121 -0.9362
 3953TIP3   OH233349   5.120   6.111   3.615  0.2969 -0.1405  0.0884
 3953TIP3    H133350   5.120   6.102   3.519  0.4583 -0.5939  0.1278
 3953TIP3    H233351   5.188   6.051   3.644  0.5774  0.3516  0.4618
 3954TIP3   OH233352   3.787   2.454  10.947  0.1630 -0.8823  0.2107
 3954TIP3    H133353   3.789   2.380  10.886  0.4714 -0.8911  0.2312
 3954TIP3    H233354   3.745   2.420  11.026  2.2360 -1.6666  1.0520
 3955TIP3   OH233355   2.394   2.655   5.903  0.1676 -0.3796 -0.7224
 3955TIP3    H133356   2.483   2.636   5.872  0.3569  0.3174 -0.6123
 3955TIP3    H233357   2.406   2.694   5.989 -0.3186 -1.4593 -0.1373
 3956TIP3   OH233358   0.293   0.421  11.423  0.1933  0.7808 -0.3286
 3956TIP3    H133359   0.353   0.492  11.447 -0.9799  1.3386  1.0701
 3956TIP3    H233360   0.236   0.411  11.498  0.3982 -1.7683 -0.4220
 3957TIP3   OH233361   2.205   0.317   5.994  0.6807  0.2560 -0.4359
 3957TIP3    H133362   2.211   0.292   6.087 -0.6669  0.0759 -0.3834
 3957TIP3    H233363   2.121   0.361   5.986  0.3247 -0.6167 -1.7785
 3958TIP3   OH233364   2.575   6.059   6.232  0.6036 -0.7952 -0.0182
 3958TIP3    H133365   2.606   6.032   6.319  1.0587 -0.6523 -0.1345
 3958TIP3    H233366   2.585   6.154   6.232  0.6380 -0.7996 -0.2430
 3959TIP3   OH233367   5.972   6.577  13.071 -0.0270 -0.2551  0.1053
 3959TIP3    H133368   6.005   6.585  13.161  0.7330 -0.0601 -0.1797
 3959TIP3    H233369   5.881   6.549  13.081  0.1849 -0.6900  0.9242
 3960TIP3   OH233370   1.137   3.799  13.615 -0.2222 -0.2236 -0.4730
 3960TIP3    H133371   1.053   3.809  13.571 -0.3047 -1.2148 -0.5789
 3960TIP3    H233372   1.173   3.717  13.580  1.6387  1.0817 -1.8036
 3961TIP3   OH233373   3.149   4.070   1.480  0.2806 -0.0515 -0.3491
 3961TIP3    H133374   3.079   4.130   1.457  0.2398 -0.8162 -2.3879
 3961TIP3    H233375   3.220   4.127   1.512  0.4308  1.1881 -2.6889
 3962TIP3   OH233376   4.208   4.868   0.652 -0.2575 -0.2641 -0.0702
 3962TIP3    H133377   4.234   4.910   0.570 -0.9276 -0.3585 -0.3418
 3962TIP3    H233378   4.243   4.779   0.646  2.3484  0.5832  1.0976
 3963TIP3   OH233379   4.920   3.128   1.442  0.1955  0.2524 -0.5401
 3963TIP3    H133380   4.887   3.043   1.412  0.1345  0.7372 -1.8824
 3963TIP3    H233381   4.998   3.143   1.389  0.1822  1.0616 -0.3354
 3964TIP3   OH233382   5.742   2.639  10.646  0.2243  0.1375 -0.5834
 3964TIP3    H133383   5.767   2.600  10.562 -2.2475 -1.1408 -0.8464
 3964TIP3    H233384   5.681   2.709  10.623 -0.7916 -0.4811  0.1030
 3965TIP3   OH233385   0.200   4.646  12.182  0.3457 -0.2079 -0.1801
 3965TIP3    H133386   0.280   4.633  12.131 -0.7177  1.6992 -2.5350
 3965TIP3    H233387   0.157   4.720  12.140 -2.2695 -0.6257  1.5439
 3966TIP3   OH233388   6.345   3.131  16.466 -0.1267 -0.1528 -0.3014
 3966TIP3    H133389   6.250   3.144  16.462 -0.3236 -1.6325 -2.5070
 3966TIP3    H233390   6.377   3.166  16.383  1.2953  0.4657  0.4826
 3967TIP3   OH233391   4.089   5.407   3.973  0.0919 -0.0772 -0.0738
 3967TIP3    H133392   4.079   5.314   3.994 -0.3494 -0.5819 -2.2656
 3967TIP3    H233393   4.154   5.439   4.036 -0.7629 -1.5211  1.6144
 3968TIP3   OH233394   2.155   3.405   0.872 -0.9734 -0.4510 -0.0311
 3968TIP3    H133395   2.220   3.392   0.941 -0.7340  1.5542  0.1891
 3968TIP3    H233396   2.077   3.436   0.918 -1.1657 -0.1586 -0.5435
 3969TIP3   OH233397   1.959   4.040   5.869  0.3996 -0.1293  0.2291
 3969TIP3    H133398   1.925   4.001   5.788 -0.7705  0.0307  0.6124
 3969TIP3    H233399   1.909   3.997   5.939  0.1241  0.9748  0.7419
 3970TIP3   OH233400   6.219   1.662  11.053  0.0133 -0.2333 -0.1952
 3970TIP3    H133401   6.207   1.601  10.981 -0.8721 -0.6378  0.2703
 3970TIP3    H233402   6.173   1.621  11.127  0.6912  0.2831  0.5336
 3971TIP3   OH233403   3.607   3.665   0.844  0.2484  0.6825 -0.2843
 3971TIP3    H133404   3.540   3.712   0.794 -2.1634 -1.0858  1.0220
 3971TIP3    H233405   3.638   3.730   0.907 -0.4782  1.4908 -0.7261
 3972TIP3   OH233406   5.566   3.953   5.491  0.0513  0.2832  0.0674
 3972TIP3    H133407   5.600   3.919   5.573  1.6489 -1.6778 -1.3152
 3972TIP3    H233408   5.609   4.039   5.481  0.7845  0.0020  0.7081
 3973TIP3   OH233409   3.353   6.677  11.350 -0.1305 -0.4807 -0.1204
 3973TIP3    H133410   3.416   6.717  11.290  0.9649 -3.2441 -0.9530
 3973TIP3    H233411   3.406   6.629  11.413 -1.3644 -0.4185  1.0216
 3974TIP3   OH233412   2.018   2.138   0.996  0.3227 -0.2557 -0.6432
 3974TIP3    H133413   1.935   2.184   1.009  0.1267 -0.7514 -0.1350
 3974TIP3    H233414   2.078   2.179   1.059  0.2963 -0.3264 -0.5724
 3975TIP3   OH233415   3.068   2.265  12.409 -0.3091  0.1307 -0.7120
 3975TIP3    H133416   3.099   2.190  12.358 -4.7016 -0.3006 -3.1941
 3975TIP3    H233417   3.019   2.226  12.481  1.3271  0.7691  0.8200
 3976TIP3   OH233418   2.897   1.416   1.342  0.3816 -0.7023  0.1511
 3976TIP3    H133419   2.945   1.384   1.266  1.5642  0.0858  0.5377
 3976TIP3    H233420   2.928   1.360   1.414 -2.9947 -3.5570 -0.3630
 3977TIP3   OH233421   6.324   4.100  16.096  0.0577  0.0420  0.1092
 3977TIP3    H133422   6.419   4.103  16.105  0.6071 -2.1044 -3.1285
 3977TIP3    H233423   6.298   4.020  16.141 -0.0007 -0.0860 -0.1475
 3978TIP3   OH233424   3.120   4.002  11.889 -0.0352 -0.2702 -0.1339
 3978TIP3    H133425   3.144   3.954  11.969 -0.0934 -0.1075 -0.0183
 3978TIP3    H233426   3.083   4.084  11.921 -0.6002 -0.4492 -0.3091
 3979TIP3   OH233427   6.120   4.061  11.354  0.2105 -0.3437  0.2369
 3979TIP3    H133428   6.214   4.040  11.362  0.0165 -0.8736  1.3255
 3979TIP3    H233429   6.117   4.156  11.349  0.7760 -0.2906  0.7993
 3980TIP3   OH233430   0.500   3.898  11.762 -0.0764  0.4524  0.4554
 3980TIP3    H133431   0.571   3.941  11.809  1.3564  1.1345 -2.1393
 3980TIP3    H233432   0.475   3.960  11.693  0.8293 -2.0238 -2.2909
 3981TIP3   OH233433   2.710   2.988   5.455  0.3241  0.4178  0.0146
 3981TIP3    H133434   2.748   2.932   5.387 -1.4738  0.8535 -1.4326
 3981TIP3    H233435   2.752   3.073   5.444 -0.6861  0.7860 -1.3132
 3982TIP3   OH233436   4.313   1.172   6.805  0.0060  0.3111  0.0653
 3982TIP3    H133437   4.387   1.159   6.864 -0.1833 -0.0809  0.2181
 3982TIP3    H233438   4.352   1.202   6.723  0.2173  1.6358  0.6204
 3983TIP3   OH233439   6.229   0.754   6.459  0.1120  0.0164  0.0917
 3983TIP3    H133440   6.241   0.668   6.498  0.9942  0.2021  0.2443
 3983TIP3    H233441   6.170   0.800   6.519 -1.2424 -0.8265 -0.5437
 3984TIP3   OH233442   3.115   6.763   2.980 -0.0390  0.4275 -0.1585
 3984TIP3    H133443   3.148   6.849   3.006  1.8961  0.1147 -1.3912
 3984TIP3    H233444   3.024   6.779   2.955 -0.6859  1.5039  2.5298
 3985TIP3   OH233445   0.653   4.318  11.754  0.4087 -0.3074 -0.3905
 3985TIP3    H133446   0.686   4.228  11.753 -0.4495 -0.6415  0.0338
 3985TIP3    H233447   0.731   4.372  11.768  1.0384 -0.9231 -1.3886
 3986TIP3   OH233448   1.347   3.354  16.482 -0.3100  0.8659  0.1571
 3986TIP3    H133449   1.361   3.329  16.574  0.0568 -0.7428 -0.3024
 3986TIP3    H233450   1.275   3.297  16.453 -2.3693  3.2963  0.1770
 3987TIP3   OH233451   2.714   1.963   1.091  0.4270 -0.2179  0.1773
 3987TIP3    H133452   2.791   1.933   1.043  0.3404 -0.9104  0.4489
 3987TIP3    H233453   2.640   1.939   1.036  0.2264 -2.3862  1.2580
 3988TIP3   OH233454   3.254   6.075   6.477  0.0089  0.8336 -0.1726
 3988TIP3    H133455   3.196   5.999   6.481 -0.1228  0.7908 -2.0492
 3988TIP3    H233456   3.197   6.149   6.497 -0.7587  0.7915 -2.0080
 3989TIP3   OH233457   2.153   6.106   1.936 -0.4352 -0.7161 -0.1423
 3989TIP3    H133458   2.163   6.199   1.959 -1.9941 -0.4641 -0.4154
 3989TIP3    H233459   2.243   6.075   1.925  0.1000  0.9217 -0.7046
 3990TIP3   OH233460   3.140   5.874   3.902 -0.1435  0.1398  0.1091
 3990TIP3    H133461   3.152   5.927   3.824  1.2424 -0.0975  0.1303
 3990TIP3    H233462   3.099   5.933   3.965 -1.6730  0.2138 -0.8975
 3991TIP3   OH233463   6.124   6.660  11.461  0.0444 -0.0067  0.2339
 3991TIP3    H133464   6.139   6.708  11.380 -1.0270 -0.2906 -0.1628
 3991TIP3    H233465   6.208   6.662  11.507  0.4096  0.9722 -0.4413
 3992TIP3   OH233466   1.599   0.463  14.398 -0.1061 -0.2498  0.0964
 3992TIP3    H133467   1.573   0.499  14.313 -0.6713 -1.1749 -0.1374
 3992TIP3    H233468   1.519   0.464  14.450  0.2321  0.2810  0.6142
 3993TIP3   OH233469   0.922   5.391   1.519  0.2526  0.4293 -0.0680
 3993TIP3    H133470   0.956   5.474   1.552 -0.6641  0.1402  1.6645
 3993TIP3    H233471   0.934   5.330   1.591  0.3086 -0.8089 -1.0941
 3994TIP3   OH233472   3.379   2.334   2.714 -0.5150 -0.6374  0.1375
 3994TIP3    H133473   3.390   2.240   2.731  1.5883 -0.8654 -1.9708
 3994TIP3    H233474   3.438   2.376   2.777 -0.0639 -0.8731 -0.1183
 3995TIP3   OH233475   6.564   2.314   1.200  0.4320 -0.1072 -0.6675
 3995TIP3    H133476   6.584   2.345   1.112  1.1746  0.8569 -0.1726
 3995TIP3    H233477   6.473   2.340   1.214  0.8305  1.2816 -0.5201
 3996TIP3   OH233478   5.330   3.478  12.943 -0.0275  0.6564 -0.5775
 3996TIP3    H133479   5.421   3.486  12.970  0.0874 -2.6972  0.3965
 3996TIP3    H233480   5.283   3.540  12.999  1.5762  2.4099 -1.0764
 3997TIP3   OH233481   1.027   3.633  16.414  0.1819  0.0039  0.4272
 3997TIP3    H133482   1.035   3.573  16.488 -3.0417 -0.2583  0.7102
 3997TIP3    H233483   0.967   3.701  16.445  1.1075  1.5598 -1.0045
 3998TIP3   OH233484   5.203   4.795  12.272 -0.3229 -0.4276  0.0370
 3998TIP3    H133485   5.121   4.761  12.235 -0.3350 -1.0116  0.5759
 3998TIP3    H233486   5.266   4.724  12.257  0.4093  0.4923 -1.4776
 3999TIP3   OH233487   0.586   5.427   3.560 -0.3488  0.0305 -0.1689
 3999TIP3    H133488   0.521   5.364   3.529 -0.5606  0.5528 -0.7985
 3999TIP3    H233489   0.659   5.419   3.499 -0.7686  1.0627 -0.8293
 4000TIP3   OH233490   3.096   0.968  14.707 -0.1871  0.1079  0.2494
 4000TIP3    H133491   3.159   0.907  14.746  1.0332  2.7382  2.6988
 4000TIP3    H233492   3.148   1.021  14.647 -0.9052 -0.2127 -0.6695
 4001TIP3   OH233493   4.601   6.505   0.118 -0.5143  0.3932  0.1323
 4001TIP3    H133494   4.648   6.541   0.194  0.2242  0.6782 -0.4445
 4001TIP3    H233495   4.655   6.432   0.089 -0.7734  0.3051 -0.1342
 4002TIP3   OH233496   3.682   3.704   6.095 -0.0019 -0.2775 -0.6086
 4002TIP3    H133497   3.756   3.645   6.080 -0.9955 -1.3797 -1.3391
 4002TIP3    H233498   3.612   3.648   6.127 -0.9229  0.5231 -1.1571
 4003TIP3   OH233499   1.627   0.627  13.071  0.2000  0.2558  0.3515
 4003TIP3    H133500   1.665   0.708  13.037 -0.3139  0.6848  0.7694
 4003TIP3    H233501   1.611   0.646  13.164 -0.0039 -0.2976  0.4306
 4004TIP3   OH233502   0.790   3.978  15.416 -0.3983  0.0995  0.7909
 4004TIP3    H133503   0.761   3.987  15.507 -0.7805  0.1325  0.6673
 4004TIP3    H233504   0.885   3.962  15.423 -0.5260 -0.5473  1.2276
 4005TIP3   OH233505   5.148   2.802   4.399  0.1516 -0.4116  0.6018
 4005TIP3    H133506   5.109   2.812   4.312 -1.2883  0.4503  1.3228
 4005TIP3    H233507   5.227   2.750   4.383  0.3342  0.3595 -1.3262
 4006TIP3   OH233508   0.586   6.132  11.872  0.4436 -0.3805 -1.1518
 4006TIP3    H133509   0.528   6.182  11.814 -1.5754  0.0414  1.0377
 4006TIP3    H233510   0.635   6.074  11.814  0.3159  1.6450 -3.4584
 4007TIP3   OH233511   1.816   5.322  15.050 -0.6696 -0.2631  0.0313
 4007TIP3    H133512   1.849   5.262  14.983  0.5481  1.0654 -0.6261
 4007TIP3    H233513   1.892   5.342  15.104 -1.1587  0.3346  0.5090
 4008TIP3   OH233514   2.129   1.024   0.890  0.1100  0.3801  0.1637
 4008TIP3    H133515   2.074   1.028   0.811  0.9906 -1.1402 -0.5697
 4008TIP3    H233516   2.166   1.112   0.898 -1.4349  1.0796 -0.0325
 4009TIP3   OH233517   1.135   5.908   6.053  0.4091  0.1291 -0.3676
 4009TIP3    H133518   1.172   5.995   6.039  0.7519  0.3284  1.5959
 4009TIP3    H233519   1.187   5.870   6.124 -1.4550 -0.5979  0.6799
 4010TIP3   OH233520   2.584   5.842   5.997  0.0518 -0.0828 -0.2372
 4010TIP3    H133521   2.663   5.789   6.009 -2.4044 -3.8945  0.8376
 4010TIP3    H233522   2.568   5.840   5.902  0.3079 -0.7580 -0.2702
 4011TIP3   OH233523   1.365   3.500  13.247 -0.4903  0.6589 -0.3109
 4011TIP3    H133524   1.438   3.561  13.258  0.5307 -0.4141 -0.9554
 4011TIP3    H233525   1.384   3.453  13.166  0.2127 -2.3972  1.4669
 4012TIP3   OH233526   3.765   2.307   4.217 -0.4658  0.2347  0.7707
 4012TIP3    H133527   3.801   2.307   4.129 -2.8955  2.4297 -0.3657
 4012TIP3    H233528   3.838   2.334   4.273  0.5633  1.0761 -0.9087
 4013TIP3   OH233529   6.654   3.476   2.695  0.5020 -0.2192  0.0911
 4013TIP3    H133530   6.601   3.550   2.665 -0.0355 -1.3443 -1.9477
 4013TIP3    H233531   6.601   3.435   2.763  0.8062  1.2334  1.2452
 4014TIP3   OH233532   1.013   0.206   4.629 -0.7013  0.2115 -0.5989
 4014TIP3    H133533   1.082   0.152   4.667 -0.9646  0.3620  0.1080
 4014TIP3    H233534   1.017   0.187   4.535 -1.2147 -1.5513 -0.3115
 4015TIP3   OH233535   5.843   0.059  14.850  0.0666  0.1874 -0.0019
 4015TIP3    H133536   5.877  -0.031  14.841 -0.0100  0.3723 -2.8965
 4015TIP3    H233537   5.748   0.048  14.856 -0.0848  0.0873 -1.9970
 4016TIP3   OH233538   6.824   3.100  10.696  0.0988 -0.8493  0.1137
 4016TIP3    H133539   6.849   3.157  10.623  1.1563 -1.9920 -0.4513
 4016TIP3    H233540   6.892   3.115  10.762 -0.5895 -0.1808  0.6992
 4017TIP3   OH233541   3.190   2.296   0.728 -0.0993 -0.0209 -0.5526
 4017TIP3    H133542   3.248   2.222   0.746  1.3883  0.8502 -1.5431
 4017TIP3    H233543   3.102   2.257   0.722  0.4300 -1.4475  0.4745
 4018TIP3   OH233544   4.560   0.321  11.263  0.1604 -0.2052  0.1022
 4018TIP3    H133545   4.480   0.332  11.314 -0.2568 -1.3141 -0.2809
 4018TIP3    H233546   4.535   0.265  11.190  1.2821 -0.5471 -0.0439
 4019TIP3   OH233547   2.387   4.058   3.792  0.0247  0.0445  0.1920
 4019TIP3    H133548   2.354   3.968   3.790 -0.5715  0.2458  0.6534
 4019TIP3    H233549   2.478   4.049   3.817  0.1168 -0.4668 -0.2901
 4020TIP3   OH233550   0.811   0.804   1.473  0.5339 -0.1935  0.1022
 4020TIP3    H133551   0.796   0.855   1.394  1.2155 -0.5980 -0.3003
 4020TIP3    H233552   0.771   0.719   1.454  0.6932 -0.2887  0.1910
 4021TIP3   OH233553   4.052   1.262   6.545 -0.0623 -0.4547  0.6093
 4021TIP3    H133554   3.973   1.281   6.494 -2.0996 -1.5693  3.1435
 4021TIP3    H233555   4.030   1.289   6.634  2.6245 -0.3925  1.3265
 4022TIP3   OH233556   1.445   2.753  12.529  0.1162 -0.0503  0.1543
 4022TIP3    H133557   1.538   2.775  12.523 -0.2101  1.6188  0.5923
 4022TIP3    H233558   1.411   2.766  12.440  0.3913 -1.2168 -0.1354
 4023TIP3   OH233559   6.386   2.600  16.152  0.0994  0.2186 -0.2566
 4023TIP3    H133560   6.336   2.527  16.188 -1.1097  1.8860  1.7003
 4023TIP3    H233561   6.474   2.564  16.138 -0.0191 -1.2386  2.1328
 4024TIP3   OH233562   4.243   0.658   2.362  0.0255  0.1718  0.3549
 4024TIP3    H133563   4.326   0.650   2.409  0.9071 -1.8785 -1.3963
 4024TIP3    H233564   4.204   0.739   2.396  2.3443  0.7798  1.8049
 4025TIP3   OH233565   0.098   0.976  16.410  0.4662 -0.1097  0.5135
 4025TIP3    H133566   0.193   0.974  16.397  0.1994 -0.9369 -1.8384
 4025TIP3    H233567   0.062   0.959  16.323 -1.8294 -1.0203  1.5593
 4026TIP3   OH233568   4.551   6.484  13.091  0.3216 -0.1122  0.4512
 4026TIP3    H133569   4.620   6.427  13.124 -1.2416 -1.3700  1.7139
 4026TIP3    H233570   4.567   6.489  12.997  3.2801  1.3180  0.9092
 4027TIP3   OH233571   4.908   1.432  11.091 -0.0086  0.0821  0.1298
 4027TIP3    H133572   4.896   1.527  11.102 -0.6392  0.0847 -0.5373
 4027TIP3    H233573   4.850   1.393  11.157  0.5521  0.1535  0.6799
 4028TIP3   OH233574   6.179   1.751  15.001 -0.1194 -0.4192  0.1115
 4028TIP3    H133575   6.203   1.690  14.931 -1.2565  1.1161 -1.7385
 4028TIP3    H233576   6.263   1.783  15.035  0.4762 -0.7158 -1.0296
 4029TIP3   OH233577   4.891   3.898   4.201  0.1536  0.1108 -0.2114
 4029TIP3    H133578   4.952   3.860   4.138 -0.8542 -0.9602 -0.5724
 4029TIP3    H233579   4.942   3.904   4.282  1.1684  0.5987 -0.8721
 4030TIP3   OH233580   5.737   2.255  11.079 -0.0287  0.3245 -0.2194
 4030TIP3    H133581   5.735   2.235  11.172  1.2186  1.5540  0.1005
 4030TIP3    H233582   5.722   2.170  11.036 -0.9729 -0.1991  1.0706
 4031TIP3   OH233583   5.879   6.737   1.865  0.4008 -0.7719  0.3655
 4031TIP3    H133584   5.792   6.750   1.827  1.2274  0.4331 -1.2287
 4031TIP3    H233585   5.939   6.779   1.803  2.2780 -2.8039  0.6650
 4032TIP3   OH233586   2.882   6.335  13.269 -0.4716  0.1314  0.4683
 4032TIP3    H133587   2.913   6.258  13.221  1.4113  1.1737 -0.0907
 4032TIP3    H233588   2.878   6.306  13.360  0.4185 -0.5890  0.3007
 4033TIP3   OH233589   0.685   4.954   1.241 -0.6573 -0.2171 -0.3771
 4033TIP3    H133590   0.671   4.886   1.307 -1.6488  1.5612  1.3450
 4033TIP3    H233591   0.599   4.995   1.231 -0.1383  0.6364 -1.5814
 4034TIP3   OH233592   4.566   1.226   6.607 -0.3414  0.4544  0.2750
 4034TIP3    H133593   4.529   1.313   6.624 -0.9104  0.0893  0.9245
 4034TIP3    H233594   4.491   1.175   6.575  0.5469  0.9843 -3.0981
 4035TIP3   OH233595   1.876   6.464  11.698 -0.2332  0.0197 -0.5411
 4035TIP3    H133596   1.880   6.369  11.690 -3.4290 -0.1968 -0.9569
 4035TIP3    H233597   1.907   6.496  11.613  0.9077 -0.6079 -0.3847
 4036TIP3   OH233598   6.255   2.750  12.630 -0.7515 -0.0850 -0.0092
 4036TIP3    H133599   6.166   2.768  12.601 -0.6859  0.7042  0.2448
 4036TIP3    H233600   6.246   2.727  12.723 -0.6428  0.6444  0.1964
 4037TIP3   OH233601   3.733   5.183  11.189 -0.3581 -0.3767  0.1690
 4037TIP3    H133602   3.660   5.123  11.203 -0.7570  0.3502  1.3090
 4037TIP3    H233603   3.708   5.263  11.233 -1.2268  1.8334 -3.8206
 4038TIP3   OH233604   1.730   3.291   2.034  0.1350 -0.0069 -0.2564
 4038TIP3    H133605   1.766   3.264   2.119 -0.3121 -1.3954 -0.4856
 4038TIP3    H233606   1.795   3.261   1.970 -0.2328 -0.2790 -0.5026
 4039TIP3   OH233607   3.292   2.077  12.855 -0.6207 -0.0566 -0.3915
 4039TIP3    H133608   3.325   2.166  12.860 -0.1810 -0.1729 -1.0885
 4039TIP3    H233609   3.284   2.059  12.761 -1.7007 -0.3939 -0.2576
 4040TIP3   OH233610   2.646   2.816   3.653  0.6056 -0.2476 -0.0423
 4040TIP3    H133611   2.656   2.732   3.698 -0.3577 -0.4179 -0.1142
 4040TIP3    H233612   2.563   2.808   3.607 -0.3029  1.3254  1.2216
 4041TIP3   OH233613   4.448   5.844  14.614 -0.1725  0.1543  0.6480
 4041TIP3    H133614   4.506   5.895  14.670  0.7283 -1.8590  1.6449
 4041TIP3    H233615   4.423   5.769  14.667 -2.3107  0.0412 -0.3828
 4042TIP3   OH233616   6.708   3.699  15.630  0.0074  0.2232  0.1446
 4042TIP3    H133617   6.622   3.714  15.591  0.0446  0.4560  0.1505
 4042TIP3    H233618   6.749   3.786  15.632  0.2246  0.1205  0.1837
 4043TIP3   OH233619   2.343   0.452  11.476 -0.4803  0.0969  0.0087
 4043TIP3    H133620   2.285   0.522  11.446 -0.1412 -0.0910 -1.1435
 4043TIP3    H233621   2.305   0.372  11.438  0.0192 -0.1379 -0.0011
 4044TIP3   OH233622   4.795   5.935  13.634  0.5959  0.3708 -0.2970
 4044TIP3    H133623   4.793   6.006  13.698  0.9338 -0.3153  0.5015
 4044TIP3    H233624   4.792   5.855  13.688 -0.1720 -0.2212 -1.1823
 4045TIP3   OH233625   2.085   4.152   4.988 -0.3889 -0.2531 -0.2743
 4045TIP3    H133626   2.053   4.227   5.038  1.2525  0.6436 -0.4896
 4045TIP3    H233627   2.016   4.087   4.995 -1.4538  0.9345  0.7079
 4046TIP3   OH233628   5.643   4.801  12.715 -0.4966 -0.1266 -0.0799
 4046TIP3    H133629   5.584   4.855  12.663 -1.2172 -1.0066 -0.1935
 4046TIP3    H233630   5.621   4.711  12.691  1.9914 -0.4748 -1.3257
 4047TIP3   OH233631   3.920   4.790   3.267 -0.6945  0.2215  0.1567
 4047TIP3    H133632   4.009   4.764   3.291  0.4391  2.0422 -1.6892
 4047TIP3    H233633   3.877   4.708   3.241  0.6561 -0.6032  0.4304
 4048TIP3   OH233634   1.928   0.367   2.649  0.2955 -0.2945  0.4068
 4048TIP3    H133635   1.854   0.309   2.629  0.0906 -0.3007  1.1547
 4048TIP3    H233636   1.999   0.308   2.673 -0.3535 -0.2366  2.6645
 4049TIP3   OH233637   6.521   3.926   3.952 -0.5864  0.4881  0.5513
 4049TIP3    H133638   6.544   3.847   3.903 -1.9413  0.2788  0.2229
 4049TIP3    H233639   6.526   3.899   4.044  1.3523  0.7179  0.5634
 4050TIP3   OH233640   2.716   2.813  14.522 -0.1118  0.4399 -0.3982
 4050TIP3    H133641   2.697   2.776  14.435  2.6771  2.0332 -1.8448
 4050TIP3    H233642   2.652   2.883  14.533 -0.9798 -0.2706 -0.8260
 4051TIP3   OH233643   5.217   3.108   3.837  0.2223 -0.1804 -0.1026
 4051TIP3    H133644   5.224   3.052   3.759 -2.8748 -1.8758  0.6591
 4051TIP3    H233645   5.150   3.172   3.814  0.4680  0.3297  0.5981
 4052TIP3   OH233646   0.065   5.423  14.591 -0.0897 -0.8733  0.2964
 4052TIP3    H133647  -0.002   5.492  14.592 -2.4397 -3.0241  1.2703
 4052TIP3    H233648   0.131   5.453  14.654 -0.5023  0.9105 -0.0386
 4053TIP3   OH233649   5.835   3.003  14.564 -0.5922  0.1720  0.0712
 4053TIP3    H133650   5.830   3.081  14.509 -0.7181 -0.4880 -0.8717
 4053TIP3    H233651   5.759   3.009  14.622 -0.0303  1.2670  0.7274
 4054TIP3   OH233652   6.120   2.284   5.692 -0.2861 -0.5060  0.7894
 4054TIP3    H133653   6.098   2.367   5.651  0.8144 -0.7988 -0.4724
 4054TIP3    H233654   6.192   2.305   5.752 -0.2802 -0.4928  0.7771
 4055TIP3   OH233655   1.853   5.683  16.442 -0.5341 -0.1375 -0.2023
 4055TIP3    H133656   1.759   5.697  16.456 -0.2606  2.1615 -0.3698
 4055TIP3    H233657   1.888   5.666  16.530 -0.8435  0.8177  0.1141
 4056TIP3   OH233658   6.004   2.150  14.894  0.0622 -0.2658 -0.5930
 4056TIP3    H133659   5.964   2.236  14.884  0.1881 -0.1006  0.2523
 4056TIP3    H233660   6.038   2.149  14.983 -2.8083 -2.3958  0.6435
 4057TIP3   OH233661   5.997   6.492  12.152 -0.0603  0.5700 -0.0239
 4057TIP3    H133662   6.079   6.486  12.201  0.7167  1.2579 -1.2017
 4057TIP3    H233663   6.009   6.566  12.093 -0.1482 -1.3984 -2.7098
 4058TIP3   OH233664   0.380   2.073  12.022 -1.2548  0.2056 -0.4448
 4058TIP3    H133665   0.424   2.157  12.037 -1.2752  0.5756 -2.2441
 4058TIP3    H233666   0.409   2.018  12.095 -0.9426  1.6444  0.5662
 4059TIP3   OH233667   4.467   3.251  16.604  0.4273  0.1872 -0.2220
 4059TIP3    H133668   4.438   3.166  16.637  0.9063  0.4632  0.9481
 4059TIP3    H233669   4.433   3.254  16.515  0.1284 -1.0949 -0.1798
 4060TIP3   OH233670   1.259   5.347   1.726  0.2157  0.3699 -0.3543
 4060TIP3    H133671   1.353   5.361   1.721  0.4585 -0.7718  0.5876
 4060TIP3    H233672   1.230   5.348   1.635  1.6000 -2.1107 -0.9039
 4061TIP3   OH233673   2.565   3.574   3.357  0.6295 -0.3308  0.5662
 4061TIP3    H133674   2.620   3.522   3.416  0.9277 -1.1330 -0.3924
 4061TIP3    H233675   2.612   3.572   3.274  1.3476  2.6198  0.7975
 4062TIP3   OH233676   0.856   2.087  16.006 -0.2322  0.2612 -0.4892
 4062TIP3    H133677   0.867   2.084  15.911  0.2686 -1.7024 -0.4059
 4062TIP3    H233678   0.938   2.052  16.040 -0.9957 -0.5095  0.6160
 4063TIP3   OH233679   3.547   5.037  12.712 -0.0563  0.4601 -0.2637
 4063TIP3    H133680   3.583   5.110  12.761 -0.1087  0.6780 -0.5477
 4063TIP3    H233681   3.466   5.071  12.673  0.6588  0.6972 -1.5880
 4064TIP3   OH233682   2.247   6.756  14.808 -0.1384 -0.0583  0.0879
 4064TIP3    H133683   2.334   6.725  14.782 -0.2832 -1.1272  0.8211
 4064TIP3    H233684   2.247   6.849  14.787  0.2517 -0.5495 -2.3987
 4065TIP3   OH233685   0.113   5.602  11.264 -0.3362  0.4342 -0.0751
 4065TIP3    H133686   0.037   5.551  11.292 -0.2354  1.2041  1.7263
 4065TIP3    H233687   0.173   5.536  11.229 -1.1978 -0.3722 -0.1004
 4066TIP3   OH233688   1.755   4.808  14.106  0.1783 -0.0773  0.0364
 4066TIP3    H133689   1.724   4.756  14.032  3.4961  1.1345 -2.4581
 4066TIP3    H233690   1.715   4.894  14.094 -1.5336 -0.6045  1.4392
 4067TIP3   OH233691   1.162   6.087  16.446 -0.1377  0.5191 -0.0779
 4067TIP3    H133692   1.125   6.131  16.370  1.3135 -0.4965 -1.4497
 4067TIP3    H233693   1.146   5.994  16.430  0.8149  0.2426  0.4897
 4068TIP3   OH233694   6.390   0.522  13.350  0.7507  0.0658  0.3305
 4068TIP3    H133695   6.353   0.504  13.263 -2.4318  1.4267  1.2387
 4068TIP3    H233696   6.422   0.438  13.381  0.3340 -0.7998 -1.4657
 4069TIP3   OH233697   4.561   0.162  11.053 -0.2230  0.1133 -0.1637
 4069TIP3    H133698   4.613   0.083  11.067 -0.1554  0.1220 -0.3634
 4069TIP3    H233699   4.524   0.151  10.965  0.0684  0.4686 -0.3299
 4070TIP3   OH233700   0.566   2.790   3.973 -0.3820  0.3924  0.7243
 4070TIP3    H133701   0.600   2.763   4.059 -0.4427  1.5933  1.1392
 4070TIP3    H233702   0.507   2.862   3.993 -3.4419 -1.7569  0.0676
 4071TIP3   OH233703   4.770   1.147  14.920  0.5800 -0.2930 -0.3925
 4071TIP3    H133704   4.833   1.076  14.927  0.9728 -0.0825 -1.5503
 4071TIP3    H233705   4.762   1.181  15.010 -0.7853 -2.7290  0.5139
 4072TIP3   OH233706   2.475   3.524   4.393 -0.1251  0.0273  0.2109
 4072TIP3    H133707   2.510   3.543   4.480 -0.0629  0.9022  0.0017
 4072TIP3    H233708   2.497   3.601   4.341 -1.5393  0.2220 -0.1590
 4073TIP3   OH233709   5.048   4.199   4.148 -0.2136 -0.4586 -0.2441
 4073TIP3    H133710   5.020   4.288   4.132 -0.5426 -0.7779 -1.5722
 4073TIP3    H233711   5.143   4.201   4.135 -0.0228 -0.0519  1.0462
 4074TIP3   OH233712   4.633   5.488   1.565  0.0922  0.2494 -0.2667
 4074TIP3    H133713   4.625   5.454   1.476 -0.1676  0.8309 -0.4712
 4074TIP3    H233714   4.544   5.485   1.600  0.1768  0.1174 -0.0633
 4075TIP3   OH233715   3.108   4.434   6.212 -0.3787 -0.5233 -0.1121
 4075TIP3    H133716   3.026   4.389   6.233 -1.9661  1.4978 -1.5833
 4075TIP3    H233717   3.087   4.527   6.217  1.6508  0.0609 -1.1828
 4076TIP3   OH233718   3.228   6.727   2.471  0.5636  0.1322 -0.1998
 4076TIP3    H133719   3.262   6.703   2.385  0.8408 -0.1615 -0.0091
 4076TIP3    H233720   3.236   6.648   2.524 -0.4507  0.0463 -0.1553
 4077TIP3   OH233721   4.332   1.203   1.392 -0.4971  0.0998  0.8491
 4077TIP3    H133722   4.336   1.219   1.487 -0.4661  1.5035  0.6347
 4077TIP3    H233723   4.355   1.287   1.353 -0.3460 -0.5088 -0.4159
 4078TIP3   OH233724   0.891   6.708  11.753 -0.0109 -0.1672 -0.0735
 4078TIP3    H133725   0.820   6.762  11.717 -0.3232 -0.5511 -0.0403
 4078TIP3    H233726   0.899   6.737  11.844 -0.3757 -0.3754  0.0265
 4079TIP3   OH233727   1.294   3.591  12.553 -0.2023 -0.1441  0.0010
 4079TIP3    H133728   1.330   3.586  12.642  2.9303  1.9049 -0.9901
 4079TIP3    H233729   1.331   3.514  12.508  0.4321  0.2692 -0.1973
 4080TIP3   OH233730   0.565   4.688   0.027 -0.2994 -0.6926  0.4214
 4080TIP3    H133731   0.598   4.768   0.069  0.2710 -0.4070 -0.5482
 4080TIP3    H233732   0.638   4.627   0.029 -0.1827 -0.5850 -0.3910
 4081TIP3   OH233733   1.850   3.331   3.336 -0.0529  0.0059 -0.1630
 4081TIP3    H133734   1.907   3.276   3.282  0.0216 -0.4398  0.3715
 4081TIP3    H233735   1.877   3.314   3.426 -0.7466  0.1127  0.0727
 4082TIP3   OH233736   2.666   6.308  14.984  0.0997 -0.2781 -0.2245
 4082TIP3    H133737   2.581   6.352  14.985  0.0852 -0.3122  0.4902
 4082TIP3    H233738   2.681   6.282  15.075  0.4291 -1.1307 -0.5109
 4083TIP3   OH233739   2.864   2.599   4.376 -0.2430  0.0949  0.7977
 4083TIP3    H133740   2.828   2.542   4.308 -1.5298  0.6361  0.9916
 4083TIP3    H233741   2.850   2.550   4.458  0.4026 -0.1268  0.7822
 4084TIP3   OH233742   4.020   0.111   2.670  0.8959 -0.7024  0.2182
 4084TIP3    H133743   4.024   0.018   2.646  2.9704 -0.4338 -0.6203
 4084TIP3    H233744   4.111   0.139   2.675  0.3149  1.4688 -0.2012
 4085TIP3   OH233745   4.274   5.336   3.115 -0.6311  0.0562 -0.2121
 4085TIP3    H133746   4.364   5.349   3.085 -1.1535 -0.1264 -1.9575
 4085TIP3    H233747   4.240   5.266   3.060 -1.6298 -0.3992  0.9252
 4086TIP3   OH233748   0.846   4.823  15.771 -0.0789 -0.5822 -0.9470
 4086TIP3    H133749   0.875   4.889  15.708  1.2973  0.0055  0.2363
 4086TIP3    H233750   0.802   4.873  15.839  1.7959 -0.6937  0.4366
 4087TIP3   OH233751   1.647   5.951   0.670 -0.9265  0.0452 -0.6074
 4087TIP3    H133752   1.590   5.995   0.607 -1.3298  0.0721 -0.2264
 4087TIP3    H233753   1.699   6.021   0.709  1.7190 -0.2699 -3.2408
 4088TIP3   OH233754   4.503   4.598   2.541  0.1257  0.0196 -0.4630
 4088TIP3    H133755   4.465   4.625   2.624 -1.2666 -1.0445 -0.7214
 4088TIP3    H233756   4.440   4.626   2.475  0.4662 -0.5263 -1.0278
 4089TIP3   OH233757   3.513   5.888  14.220 -0.2335 -0.1890  0.2435
 4089TIP3    H133758   3.602   5.915  14.195  0.4270 -1.6564  0.9064
 4089TIP3    H233759   3.467   5.876  14.137  0.1315  0.7097 -0.1029
 4090TIP3   OH233760   2.677   1.396   4.586  0.6245  0.2136  0.0925
 4090TIP3    H133761   2.647   1.345   4.661  1.0952 -0.6074 -0.2651
 4090TIP3    H233762   2.772   1.392   4.591  0.6653  0.9204 -0.0395
 4091TIP3   OH233763   6.383   5.959  14.022 -0.2160  0.1017 -0.0724
 4091TIP3    H133764   6.320   6.029  14.002 -0.7168 -0.4209 -0.3383
 4091TIP3    H233765   6.465   6.006  14.038 -0.4929  0.7419 -0.4560
 4092TIP3   OH233766   3.991   5.340  13.795 -0.1757  0.3509 -0.4095
 4092TIP3    H133767   3.969   5.384  13.878 -0.9608  1.0998 -0.9861
 4092TIP3    H233768   4.002   5.412  13.733 -1.6697 -0.2367 -1.4269
 4093TIP3   OH233769   4.026   1.934   0.328 -0.4695 -1.3137  0.2408
 4093TIP3    H133770   3.962   1.992   0.286 -0.4397 -2.0846 -0.9039
 4093TIP3    H233771   3.975   1.882   0.389 -0.6554 -0.7765  0.5507
 4094TIP3   OH233772   3.252   4.615  16.496  0.1749  0.4588  0.2377
 4094TIP3    H133773   3.168   4.598  16.453  1.1958 -1.2020 -1.2896
 4094TIP3    H233774   3.247   4.566  16.578 -0.9640  1.8278  1.0320
 4095TIP3   OH233775   4.340   6.501   2.488 -0.2028 -0.6082  0.1193
 4095TIP3    H133776   4.314   6.538   2.403  0.3315 -0.9660 -0.2132
 4095TIP3    H233777   4.326   6.407   2.478  1.2517 -0.8270 -0.1076
 4096TIP3   OH233778   6.415   3.355  14.674 -0.1956 -0.6020  0.0024
 4096TIP3    H133779   6.433   3.380  14.583 -2.0852 -0.2012 -0.2992
 4096TIP3    H233780   6.379   3.434  14.714 -2.2700 -1.5989  0.2142
 4097TIP3   OH233781   0.685   1.070  13.899 -0.0013 -0.1848 -0.8503
 4097TIP3    H133782   0.731   1.144  13.859 -0.1138 -0.2889 -1.1784
 4097TIP3    H233783   0.720   0.993  13.853  0.0960 -0.3307 -0.5288
 4098TIP3   OH233784   4.474   2.787  10.955  0.0649 -0.2583 -0.4531
 4098TIP3    H133785   4.516   2.813  10.873  3.7626 -2.1314  0.6158
 4098TIP3    H233786   4.465   2.692  10.949 -0.9665 -0.2691  0.7639
 4099TIP3   OH233787   6.034   5.825  15.687 -0.6645 -0.0064 -0.0548
 4099TIP3    H133788   6.127   5.840  15.704 -0.1332 -0.6807 -2.0609
 4099TIP3    H233789   6.000   5.910  15.659 -0.1019 -0.1949 -1.3994
 4100TIP3   OH233790   1.950   0.615  15.262  0.1671 -0.2698  0.0250
 4100TIP3    H133791   1.888   0.590  15.194 -1.5024  1.7071  0.7352
 4100TIP3    H233792   1.898   0.664  15.325  2.3296  0.9063  0.9884
 4101TIP3   OH233793   1.239   2.031   0.888 -0.1931  0.2956 -0.0150
 4101TIP3    H133794   1.144   2.019   0.884 -0.1472  0.0146 -0.2912
 4101TIP3    H233795   1.259   2.088   0.814 -0.0398 -0.3452 -0.4683
 4102TIP3   OH233796   5.903   3.005  16.717  0.4320 -0.6059 -0.3809
 4102TIP3    H133797   5.993   3.023  16.688  0.9745  0.4769  1.7007
 4102TIP3    H233798   5.850   3.015  16.639  1.8768  1.1279 -1.2159
 4103TIP3   OH233799   0.012   0.114  13.840 -0.8965  0.3418 -0.5984
 4103TIP3    H133800   0.041   0.037  13.889  2.3429  1.8868  0.2243
 4103TIP3    H233801   0.034   0.093  13.749 -0.5032  0.0941 -0.4508
 4104TIP3   OH233802   1.667   0.715   2.259  0.1756 -0.6324 -0.1383
 4104TIP3    H133803   1.617   0.633   2.267 -0.9767  0.0845  0.3234
 4104TIP3    H233804   1.633   0.770   2.330  1.2655  0.0821 -0.1560
 4105TIP3   OH233805   4.165   0.344   0.530 -0.9094 -0.0217  0.0847
 4105TIP3    H133806   4.243   0.387   0.564 -0.8929 -1.2629  1.7294
 4105TIP3    H233807   4.150   0.385   0.444  1.7585 -0.0402 -0.4659
 4106TIP3   OH233808   1.896   6.756   6.349  0.3014 -0.1610 -0.0891
 4106TIP3    H133809   1.802   6.768   6.365  0.0479 -0.3734 -1.2894
 4106TIP3    H233810   1.931   6.724   6.432 -0.5070  0.8264  0.6580
 4107TIP3   OH233811   1.328   0.703  15.501 -0.3655 -0.5132  0.2120
 4107TIP3    H133812   1.399   0.685  15.563 -0.9573 -0.8223  0.8191
 4107TIP3    H233813   1.360   0.775  15.448 -0.3641  0.6922  1.7734
 4108TIP3   OH233814   3.110   5.790   5.053  0.0462  0.4841  0.0160
 4108TIP3    H133815   3.141   5.744   4.975 -1.7551 -0.4026 -0.2239
 4108TIP3    H233816   3.065   5.868   5.019 -2.0552 -0.6692  0.0091
 4109TIP3   OH233817   3.364   6.125   2.634 -0.2208  0.2478  0.0089
 4109TIP3    H133818   3.378   6.208   2.588 -0.9287  0.4888  0.2299
 4109TIP3    H233819   3.452   6.100   2.663 -0.0061  0.9277 -0.0362
 4110TIP3   OH233820   5.083   2.268  16.765 -0.2515 -0.2427 -0.0250
 4110TIP3    H133821   5.147   2.313  16.820 -0.8863  1.0705 -0.3367
 4110TIP3    H233822   5.114   2.177  16.762  2.8182  0.7390 -1.9146
 4111TIP3   OH233823   2.764   3.185   5.856  0.1589  0.4819  0.9445
 4111TIP3    H133824   2.722   3.145   5.933 -1.1365 -0.7919 -0.3503
 4111TIP3    H233825   2.831   3.122   5.829  0.3674  0.7540  0.8184
 4112TIP3   OH233826   2.466   1.536   2.382 -0.7031 -0.0653  0.3005
 4112TIP3    H133827   2.547   1.536   2.330  0.2536 -1.1896  1.7117
 4112TIP3    H233828   2.452   1.628   2.403  0.4533  0.1104  0.3813
 4113TIP3   OH233829   4.777   2.255  11.694  0.4605 -0.1894  0.1731
 4113TIP3    H133830   4.694   2.288  11.728  0.8448  0.5554  0.4110
 4113TIP3    H233831   4.818   2.331  11.652  1.3688 -0.3547  0.7249
 4114TIP3   OH233832   4.369   5.379  15.213 -0.3219 -0.2200  0.2560
 4114TIP3    H133833   4.412   5.294  15.205  0.8539  0.4844 -1.4108
 4114TIP3    H233834   4.349   5.404  15.123 -0.1858  1.4819  0.6780
 4115TIP3   OH233835   6.305   2.504   2.913 -1.0501 -0.0559  0.2385
 4115TIP3    H133836   6.297   2.576   2.976  3.2332  0.1144  0.8901
 4115TIP3    H233837   6.330   2.548   2.831  1.1176 -0.6817  0.5171
 4116TIP3   OH233838   3.596   5.083   5.303 -0.0998  0.0562  0.2967
 4116TIP3    H133839   3.681   5.047   5.329 -0.1915 -0.1323  0.3353
 4116TIP3    H233840   3.533   5.041   5.361 -0.3198 -0.4844 -0.3305
 4117TIP3   OH233841   0.846   6.571   5.247 -0.3125 -0.1751 -0.1232
 4117TIP3    H133842   0.817   6.491   5.203 -0.2637 -0.5431  0.5087
 4117TIP3    H233843   0.941   6.561   5.254 -0.5702 -1.3828  2.4812
 4118TIP3   OH233844   5.740   0.764   5.518 -0.3902 -0.3227  0.3289
 4118TIP3    H133845   5.673   0.811   5.568 -1.0322 -1.2017  0.3242
 4118TIP3    H233846   5.797   0.725   5.584  0.6760  1.1453  0.3342
 4119TIP3   OH233847   3.007   5.692  16.611 -0.3001 -0.0272  0.1219
 4119TIP3    H133848   3.088   5.642  16.599 -0.5055 -0.1234 -1.0345
 4119TIP3    H233849   3.036   5.783  16.623 -0.0159  0.3989 -2.8566
 4120TIP3   OH233850   2.063   6.527   3.716  0.3379  0.5133  0.3708
 4120TIP3    H133851   2.041   6.477   3.795  0.8543 -2.6152 -1.2711
 4120TIP3    H233852   1.987   6.514   3.658  2.3028 -2.5328 -1.8277
 4121TIP3   OH233853   0.356   2.589   4.748 -0.2439 -0.4271 -0.4449
 4121TIP3    H133854   0.310   2.508   4.773 -2.8921  0.0216 -3.2212
 4121TIP3    H233855   0.358   2.641   4.828 -2.7858 -1.3923  0.3511
 4122TIP3   OH233856   3.051   0.107   2.087  0.4340  0.5802 -0.2238
 4122TIP3    H133857   3.119   0.087   2.022  0.3666  0.0832 -0.1516
 4122TIP3    H233858   3.017   0.021   2.112  0.2121  0.7908  0.2062
 4123TIP3   OH233859   6.565   3.694   2.339  0.1205  0.2206 -0.2467
 4123TIP3    H133860   6.521   3.770   2.300 -0.4931 -0.1235 -0.2465
 4123TIP3    H233861   6.654   3.723   2.355  0.0442  0.7673 -0.7634
 4124TIP3   OH233862   0.640   3.247   0.621 -0.3696 -0.5094 -0.0745
 4124TIP3    H133863   0.721   3.270   0.666 -1.7923  0.7758  2.0233
 4124TIP3    H233864   0.634   3.308   0.548  0.5549 -0.6117 -0.2379
 4125TIP3   OH233865   4.309   3.234  12.035 -0.9902 -0.5773  0.1859
 4125TIP3    H133866   4.386   3.185  12.064 -2.2294 -0.9664  3.2276
 4125TIP3    H233867   4.241   3.167  12.025 -1.9306  0.1499  1.4855
 4126TIP3   OH233868   6.488   4.312   0.674  0.3309  0.2278  0.0314
 4126TIP3    H133869   6.406   4.362   0.665  0.0918  0.3031  2.1112
 4126TIP3    H233870   6.495   4.263   0.592 -1.1050  1.2268 -0.7418
 4127TIP3   OH233871   5.026   1.045  14.596  0.1942 -0.2293 -0.0334
 4127TIP3    H133872   5.090   1.066  14.664  1.0711 -2.1395 -0.2056
 4127TIP3    H233873   4.957   1.111  14.606  2.3548  2.1865 -0.1170
 4128TIP3   OH233874   6.471   1.469   5.924  0.7365 -0.3522 -0.0665
 4128TIP3    H133875   6.417   1.547   5.907  0.9457  0.0917  1.1978
 4128TIP3    H233876   6.410   1.396   5.921  0.2849  0.0149  0.1000
 4129TIP3   OH233877   6.655   0.556  14.450  0.6673 -0.2620 -0.7031
 4129TIP3    H133878   6.637   0.463  14.442  2.8521 -0.7349 -0.7575
 4129TIP3    H233879   6.724   0.562  14.516 -1.6528  1.6574  1.8269
 4130TIP3   OH233880   5.987   6.132   4.560 -0.0847 -0.1864  0.2858
 4130TIP3    H133881   6.002   6.225   4.578 -0.4407 -0.0090 -0.3288
 4130TIP3    H233882   6.072   6.100   4.531  0.0437 -0.0548  0.5128
 4131TIP3   OH233883   4.590   5.039   0.535  0.6744  0.0100  0.0951
 4131TIP3    H133884   4.594   5.007   0.625 -1.2860 -0.4843  0.0496
 4131TIP3    H233885   4.588   5.134   0.543  4.0558  0.2033  0.3432
 4132TIP3   OH233886   2.820   2.069   3.397 -0.6631  0.8851  0.0335
 4132TIP3    H133887   2.780   2.059   3.483  0.3187  2.5851  0.7279
 4132TIP3    H233888   2.867   1.986   3.384  0.4132  1.1418  1.8406
 4133TIP3   OH233889   4.810   6.031   0.077 -0.2832 -0.4004  0.2984
 4133TIP3    H133890   4.876   6.019   0.009 -0.6800  0.7643 -0.3382
 4133TIP3    H233891   4.844   5.985   0.153  0.3463 -1.4276 -0.5854
 4134TIP3   OH233892   0.989   3.794  16.193  0.3341  0.3832 -0.0563
 4134TIP3    H133893   0.919   3.803  16.259  0.9480  2.0956  0.4117
 4134TIP3    H233894   1.052   3.735  16.234  0.5532  1.1744  0.7984
 4135TIP3   OH233895   1.701   3.347   5.510 -0.3082 -0.2860  0.6983
 4135TIP3    H133896   1.677   3.338   5.602  0.2960 -2.6795  0.6974
 4135TIP3    H233897   1.772   3.284   5.498  2.7707  3.0548 -0.4188
 4136TIP3   OH233898   2.323   5.004   2.406  0.3105 -0.1936 -0.1377
 4136TIP3    H133899   2.253   4.985   2.468  1.1688 -0.0103  0.9119
 4136TIP3    H233900   2.303   4.951   2.329 -1.3124  0.3280 -0.1085
 4137TIP3   OH233901   6.702   3.046  14.218  0.2708 -0.1042 -0.3086
 4137TIP3    H133902   6.712   2.969  14.273 -0.5334 -0.4192 -0.5816
 4137TIP3    H233903   6.787   3.090  14.222  0.1254  0.0878  1.4707
 4138TIP3   OH233904   2.032   6.520  15.713 -0.6968 -0.1374 -0.2506
 4138TIP3    H133905   1.965   6.522  15.780 -0.6996 -0.4299 -0.2410
 4138TIP3    H233906   1.986   6.545  15.632 -1.4079 -2.6760 -0.7235
 4139TIP3   OH233907   1.321   4.397  14.018 -0.0548 -0.1578 -0.8505
 4139TIP3    H133908   1.333   4.460  13.947 -0.2810  0.9918  0.1020
 4139TIP3    H233909   1.277   4.323  13.977 -0.3380  0.5506 -1.8746
 4140TIP3   OH233910   2.013   3.464  16.782 -0.2056 -0.3790 -0.2539
 4140TIP3    H133911   1.987   3.520  16.855  1.8918  0.1795  0.1338
 4140TIP3    H233912   2.041   3.524  16.714  0.0404 -0.9321 -0.6505
 4141TIP3   OH233913   1.517   3.491   5.976 -0.1712 -0.0049 -0.5567
 4141TIP3    H133914   1.510   3.586   5.985 -0.7064 -0.0231 -0.7473
 4141TIP3    H233915   1.451   3.456   6.036 -0.4999 -0.2345 -1.0436
 4142TIP3   OH233916   6.140   4.890   2.584 -0.2385  0.0473 -0.2700
 4142TIP3    H133917   6.167   4.965   2.532  2.0370 -1.0938 -0.8498
 4142TIP3    H233918   6.171   4.908   2.672 -1.3121  0.5647  0.0212
 4143TIP3   OH233919   1.295   3.192   6.058  0.2351 -0.5888 -0.6321
 4143TIP3    H133920   1.225   3.250   6.090 -0.3425 -1.0052 -1.1101
 4143TIP3    H233921   1.317   3.138   6.135 -0.7839 -1.2317 -0.7712
 4144TIP3   OH233922   6.297   2.688  15.834 -0.1339  0.1433 -0.3890
 4144TIP3    H133923   6.271   2.660  15.746  0.3287  0.4727 -0.6348
 4144TIP3    H233924   6.365   2.627  15.860 -1.1919 -0.7829  0.2974
 4145TIP3   OH233925   5.993   2.025  16.836  0.3215 -1.1914  0.3915
 4145TIP3    H133926   5.970   1.933  16.829 -2.0509 -0.6724  0.4881
 4145TIP3    H233927   5.952   2.054  16.917  1.3750 -0.1098  0.5759
 4146TIP3   OH233928   3.049   3.335  15.414 -0.3094 -0.2867  0.0038
 4146TIP3    H133929   2.964   3.375  15.436 -0.7077 -0.8429 -0.4882
 4146TIP3    H233930   3.055   3.343  15.319  1.7426  2.8213  0.2459
 4147TIP3   OH233931   0.839   2.420  16.442 -0.3432 -0.2208  0.2636
 4147TIP3    H133932   0.775   2.349  16.437 -0.7006 -0.0413  1.7265
 4147TIP3    H233933   0.910   2.392  16.384 -2.1459  0.0558 -2.2491
 4148TIP3   OH233934   4.188   2.173   2.838  0.0447 -0.4307 -0.2409
 4148TIP3    H133935   4.265   2.122   2.862 -0.2811 -1.3281 -1.0552
 4148TIP3    H233936   4.189   2.247   2.899  0.9678 -0.9758  0.4365
 4149TIP3   OH233937   5.968   0.800   6.566  0.6080 -0.7275 -0.0497
 4149TIP3    H133938   5.993   0.716   6.606  3.6708  1.2322  2.6471
 4149TIP3    H233939   5.890   0.828   6.614  1.1274 -0.8652  0.8939
 4150TIP3   OH233940   1.969   4.769   5.616 -0.1845  0.5527  0.1830
 4150TIP3    H133941   1.972   4.692   5.673 -0.6731 -0.7154 -1.4306
 4150TIP3    H233942   2.033   4.829   5.654 -0.1544 -0.4243  1.7811
 4151TIP3   OH233943   4.430   0.948  12.525  0.0798 -0.3071  0.6047
 4151TIP3    H133944   4.523   0.960  12.508  0.6213 -1.7413  2.2304
 4151TIP3    H233945   4.424   0.944  12.621 -1.7393  0.3447  0.5521
 4152TIP3   OH233946   2.243   1.787   1.386  0.4764  0.4546  0.0295
 4152TIP3    H133947   2.255   1.796   1.291 -0.2606 -0.7302 -0.1992
 4152TIP3    H233948   2.161   1.833   1.404 -0.7861 -1.5031 -0.3745
 4153TIP3   OH233949   3.410   1.675   5.823  0.1652  0.1538 -0.1203
 4153TIP3    H133950   3.414   1.715   5.736  1.6981  0.4416  0.0523
 4153TIP3    H233951   3.322   1.696   5.855 -0.3338  0.2515 -1.4914
 4154TIP3   OH233952   4.460   4.679   3.772  0.3548  0.0242  0.0149
 4154TIP3    H133953   4.413   4.711   3.848 -1.5605 -1.3135 -0.5471
 4154TIP3    H233954   4.396   4.683   3.700  1.5867 -0.3303 -1.1495
 4155TIP3   OH233955   0.391   3.065   1.254 -0.1560  0.2631  0.6131
 4155TIP3    H133956   0.391   2.987   1.199  0.0766 -0.1254  1.1512
 4155TIP3    H233957   0.463   3.119   1.220 -0.0785  0.0725  0.4736
 4156TIP3   OH233958   0.627   0.464  13.991 -0.8180 -0.1562  0.1585
 4156TIP3    H133959   0.551   0.425  14.035  0.6977 -0.6951  2.4545
 4156TIP3    H233960   0.653   0.537  14.047 -0.0392  0.4671 -0.9692
 4157TIP3   OH233961   1.346   2.474  16.600  0.2097 -0.2349 -0.7607
 4157TIP3    H133962   1.407   2.512  16.663  1.1259 -3.2383  0.3374
 4157TIP3    H233963   1.263   2.469  16.647  0.1148  0.2475 -0.8702
 4158TIP3   OH233964   4.775   4.883  11.692 -0.5605  0.6582 -0.4891
 4158TIP3    H133965   4.831   4.827  11.639  0.6349  1.5647 -0.2079
 4158TIP3    H233966   4.834   4.925  11.754 -1.7843  0.3632  0.9407
 4159TIP3   OH233967   2.083   0.826  11.012  0.0081 -0.1831 -0.4993
 4159TIP3    H133968   2.105   0.752  11.068  0.3612 -0.8426 -1.4939
 4159TIP3    H233969   2.042   0.787  10.935  0.2616  0.6447 -1.0723
 4160TIP3   OH233970   6.533   4.033   3.107 -0.1003 -0.2435 -0.2143
 4160TIP3    H133971   6.556   4.113   3.153 -2.3143  0.0593  0.4627
 4160TIP3    H233972   6.564   3.962   3.164 -0.2220  0.1395  0.3341
 4161TIP3   OH233973   2.840   0.331   0.500  0.1761  0.5398 -0.3529
 4161TIP3    H133974   2.760   0.358   0.455  0.0214  0.8781  0.1119
 4161TIP3    H233975   2.824   0.240   0.525  0.1524  0.4377 -0.7302
 4162TIP3   OH233976   1.530   3.745   3.994  0.1263 -0.4797  0.0644
 4162TIP3    H133977   1.509   3.666   4.044 -3.1493 -0.5692 -1.2220
 4162TIP3    H233978   1.567   3.712   3.912 -1.3676 -0.7666 -0.5305
 4163TIP3   OH233979   0.923   2.097  16.515  0.5816  0.1851 -0.0354
 4163TIP3    H133980   0.967   2.014  16.532 -0.0665 -0.1206  0.2168
 4163TIP3    H233981   0.914   2.100  16.420  1.6098  0.5063 -0.1302
 4164TIP3   OH233982   2.428   2.980  14.548  0.2841  0.0700 -0.5678
 4164TIP3    H133983   2.409   2.889  14.569  0.3261  0.0990 -0.3999
 4164TIP3    H233984   2.351   3.028  14.579  0.8140  0.2377  0.5131
 4165TIP3   OH233985   6.438   0.197   5.492  0.1338  0.1981  0.2045
 4165TIP3    H133986   6.507   0.136   5.517 -1.4172 -2.3169 -1.2219
 4165TIP3    H233987   6.357   0.156   5.521 -1.0723  1.0345 -1.7399
 4166TIP3   OH233988   0.530   5.095   3.565 -0.2402  0.1611 -0.4509
 4166TIP3    H133989   0.583   5.091   3.485 -1.1474  0.6227 -1.0878
 4166TIP3    H233990   0.492   5.007   3.573  1.8267 -0.6754  0.8801
 4167TIP3   OH233991   3.887   0.583   2.156  0.5937 -1.0943  0.6377
 4167TIP3    H133992   3.961   0.592   2.095  0.4919  1.3566  0.7881
 4167TIP3    H233993   3.926   0.546   2.235  0.9555 -3.1551 -0.4396
 4168TIP3   OH233994   5.125   4.569   3.221 -0.3114  0.3152  0.0778
 4168TIP3    H133995   5.068   4.622   3.276 -1.9276 -2.1404  0.9585
 4168TIP3    H233996   5.170   4.510   3.282  2.0381  1.0938 -0.7666
 4169TIP3   OH233997   2.314   6.505  13.643 -0.3953 -0.3504  0.1007
 4169TIP3    H133998   2.372   6.542  13.577  0.2131 -1.0592  0.2174
 4169TIP3    H233999   2.253   6.575  13.665 -0.3821 -0.0038 -0.9593
 4170TIP3   OH234000   3.629   2.042  14.045 -0.2746  0.0902  0.1485
 4170TIP3    H134001   3.605   1.958  14.084 -0.5817  0.8216  1.6544
 4170TIP3    H234002   3.555   2.100  14.068 -0.1995  0.7025 -1.0927
 4171TIP3   OH234003   3.311   1.771   1.518 -0.2015  0.7652  0.8946
 4171TIP3    H134004   3.231   1.822   1.505 -0.8650  0.2561  2.6258
 4171TIP3    H234005   3.354   1.812   1.593  0.8696  0.6647  0.3537
 4172TIP3   OH234006   5.400   5.234  15.455  0.1296  0.8527  0.1010
 4172TIP3    H134007   5.310   5.218  15.483 -0.5925 -0.3906 -2.5320
 4172TIP3    H234008   5.436   5.147  15.439  0.7349  1.3883 -1.7443
 4173TIP3   OH234009   6.576   0.611  16.874  0.8299 -0.4233  0.5433
 4173TIP3    H134010   6.492   0.567  16.858  1.3423 -0.9817 -0.6989
 4173TIP3    H234011   6.630   0.545  16.917  0.8955 -0.3216  0.6164
 4174TIP3   OH234012   5.771   2.189   5.841 -0.6461 -0.0049 -0.0941
 4174TIP3    H134013   5.676   2.200   5.834 -0.8482 -0.7959  1.0963
 4174TIP3    H234014   5.784   2.143   5.924  1.0382  3.3826  1.7324
 4175TIP3   OH234015   2.312   4.666  12.177 -0.7516  0.0325  0.1707
 4175TIP3    H134016   2.262   4.599  12.130  1.2321 -1.3724 -0.1137
 4175TIP3    H234017   2.285   4.749  12.139 -1.7489 -0.7938 -0.9731
 4176TIP3   OH234018   2.854   2.454   5.216  0.6455 -0.0124 -0.3213
 4176TIP3    H134019   2.792   2.407   5.273 -1.2567  2.1604 -0.4216
 4176TIP3    H234020   2.929   2.473   5.272  0.4205 -1.1051  0.3701
 4177TIP3   OH234021   2.508   4.345  11.831 -0.4531 -0.4492  0.2175
 4177TIP3    H134022   2.561   4.335  11.751 -0.7792  1.5075 -0.3007
 4177TIP3    H234023   2.494   4.255  11.861  4.2247 -1.1594  1.1350
 4178TIP3   OH234024   4.232   6.759   4.729 -0.3513 -0.2184  0.0752
 4178TIP3    H134025   4.191   6.841   4.698  0.2975  0.1142  0.0868
 4178TIP3    H234026   4.171   6.691   4.702 -0.9541  0.2784  0.1484
 4179TIP3   OH234027   2.311   3.320   5.923  0.4870 -0.5541 -0.1927
 4179TIP3    H134028   2.356   3.404   5.909  4.0298 -2.0898  0.6465
 4179TIP3    H234029   2.320   3.275   5.839 -0.0015 -0.6969 -0.1678
 4180TIP3   OH234030   2.639   5.094  16.860 -0.1729 -0.6397  0.2261
 4180TIP3    H134031   2.636   5.040  16.781  1.7592 -2.1402  1.0929
 4180TIP3    H234032   2.638   5.031  16.932 -2.4581  0.7110  1.4712
 4181TIP3   OH234033   4.797   5.181  16.668 -0.0755  0.4547  0.3682
 4181TIP3    H134034   4.889   5.204  16.651 -0.2350  2.7590  2.1344
 4181TIP3    H234035   4.765   5.148  16.584  2.0823  0.5760 -0.5776
 4182TIP3   OH234036   6.409   6.582  12.709 -0.1561 -0.0971 -0.4839
 4182TIP3    H134037   6.436   6.500  12.751 -0.0433  0.0088 -0.3459
 4182TIP3    H234038   6.348   6.621  12.772 -1.3344 -0.7606 -1.1896
 4183TIP3   OH234039   5.792   3.143   5.375  0.1841  0.1604 -0.3693
 4183TIP3    H134040   5.762   3.121   5.464 -0.1758  1.9156 -0.0134
 4183TIP3    H234041   5.717   3.124   5.319 -2.0418  4.9178  0.5699
 4184TIP3   OH234042   6.591   0.362  14.028  0.1250  0.3740 -0.8072
 4184TIP3    H134043   6.640   0.405  14.098  0.7904  0.9133 -1.5892
 4184TIP3    H234044   6.614   0.269  14.037  2.9621  0.8244 -2.3903
 4185TIP3   OH234045   5.586   0.132  16.238  0.0068 -0.1373 -0.3447
 4185TIP3    H134046   5.616   0.143  16.148 -0.4062  0.4833 -0.4150
 4185TIP3    H234047   5.591   0.038  16.254  2.4740 -0.0339 -0.1738
 4186TIP3   OH234048   0.359   5.586   6.683  0.1701 -0.4113  0.1774
 4186TIP3    H134049   0.311   5.669   6.683  0.6218 -0.1124 -2.0496
 4186TIP3    H234050   0.447   5.609   6.710  0.1665 -0.2634  0.0594
 4187TIP3   OH234051   3.326   4.006  15.870  0.0726 -0.5992 -0.0253
 4187TIP3    H134052   3.268   4.064  15.920 -0.5260 -1.2873  0.1054
 4187TIP3    H234053   3.411   4.049  15.871 -0.8783  1.4727 -1.9404
 4188TIP3   OH234054   0.337   4.713  11.137  0.0204 -0.2033  0.1524
 4188TIP3    H134055   0.354   4.769  11.061 -0.0699 -0.1047  0.2039
 4188TIP3    H234056   0.242   4.721  11.152 -0.3024 -1.7709 -0.9272
 4189TIP3   OH234057   3.345   0.775   1.038  0.7518 -0.6852  0.1760
 4189TIP3    H134058   3.262   0.820   1.054  0.6611 -0.6069 -0.4722
 4189TIP3    H234059   3.333   0.733   0.953  0.6768 -2.3105  0.9422
 4190TIP3   OH234060   2.561   3.383  14.249  0.0625 -0.4827 -0.1107
 4190TIP3    H134061   2.521   3.417  14.169 -0.1392  2.1333  1.0074
 4190TIP3    H234062   2.507   3.307  14.272 -0.3798 -0.7855 -1.9822
 4191TIP3   OH234063   0.159   1.394  16.596 -0.8547  0.5916 -0.1494
 4191TIP3    H134064   0.238   1.383  16.542 -0.9939  4.3355 -1.4059
 4191TIP3    H234065   0.192   1.400  16.685 -0.0654 -0.6651 -0.3285
 4192TIP3   OH234066   1.476   5.313  17.080 -0.2364  0.0978  0.8165
 4192TIP3    H134067   1.562   5.353  17.065 -0.4500  0.7281  1.2328
 4192TIP3    H234068   1.496   5.228  17.119  0.1910  0.5292  1.5751
 4193TIP3   OH234069   1.074   2.950   0.933  0.0715 -0.2144  0.0566
 4193TIP3    H134070   1.161   2.951   0.974 -0.2081  0.6206  0.6531
 4193TIP3    H234071   1.090   2.975   0.842  0.6114 -1.3773 -0.1845
 4194TIP3   OH234072   6.310   2.308   3.938  0.1139 -0.2790  0.2431
 4194TIP3    H134073   6.319   2.248   4.012 -2.7648 -0.7650  0.3315
 4194TIP3    H234074   6.399   2.326   3.911  1.2171 -1.4516  2.7380
 4195TIP3   OH234075   4.488   4.246   3.563 -0.3093 -0.0682  0.2360
 4195TIP3    H134076   4.451   4.305   3.629  2.0364  0.1602  1.4830
 4195TIP3    H234077   4.454   4.160   3.586  1.5267 -0.2306  2.7330
 4196TIP3   OH234078   0.297   5.207  16.807  0.1199 -0.1062 -0.4127
 4196TIP3    H134079   0.380   5.204  16.760  0.4704 -1.5716  0.2608
 4196TIP3    H234080   0.318   5.248  16.891  0.1244 -0.2821 -0.3274
 4197TIP3   OH234081   2.607   0.792  14.177  0.1292  0.4154  0.0150
 4197TIP3    H134082   2.699   0.786  14.148  0.7452  0.3926  1.8277
 4197TIP3    H234083   2.611   0.845  14.256 -1.5693  1.1417 -0.3489
 4198TIP3   OH234084   3.071   3.006   0.276  0.1323  0.4452 -0.0329
 4198TIP3    H134085   3.128   2.974   0.205 -0.7901  0.8594 -0.9862
 4198TIP3    H234086   3.115   2.977   0.356  0.2492 -1.7096 -0.7976
 4199TIP3   OH234087   3.944   3.485  14.148  0.0137  0.1968  0.2635
 4199TIP3    H134088   3.946   3.576  14.119 -0.2103 -0.3470 -1.5914
 4199TIP3    H234089   3.866   3.448  14.106  0.4175 -1.0042  0.5216
 4200TIP3   OH234090   2.946   0.868  12.729 -0.0276 -0.3839 -0.1851
 4200TIP3    H134091   2.986   0.948  12.763  0.2026 -0.9839  0.9922
 4200TIP3    H234092   2.853   0.878  12.747  0.2429 -1.3306  2.0699
 4201TIP3   OH234093   2.455   5.519  11.844  0.1889 -0.3040 -0.0859
 4201TIP3    H134094   2.487   5.507  11.755  0.5134 -0.7843  0.0920
 4201TIP3    H234095   2.364   5.546  11.833  0.5229  0.6557 -0.5836
 4202TIP3   OH234096   0.450   3.582   0.751  0.4178 -0.0653  0.0874
 4202TIP3    H134097   0.507   3.550   0.682 -0.6633 -0.9649 -0.4192
 4202TIP3    H234098   0.365   3.539   0.735  0.2717 -0.7326  2.2552
 4203TIP3   OH234099   2.481   2.327   1.081 -0.0150  0.0292  0.8716
 4203TIP3    H134100   2.492   2.270   1.157  0.0393 -0.2074  0.6901
 4203TIP3    H234101   2.559   2.310   1.028 -0.2449 -0.1012  0.5753
 4204TIP3   OH234102   2.824   1.868   0.527 -1.0126 -0.2009 -0.4883
 4204TIP3    H134103   2.734   1.893   0.550 -0.6727  1.6785 -1.0258
 4204TIP3    H234104   2.844   1.795   0.585 -1.5228  1.8741  2.5241
 4205TIP3   OH234105   5.912   4.437  15.207  0.1182 -0.0720 -0.1082
 4205TIP3    H134106   5.998   4.477  15.212 -0.9188  2.2800  0.3301
 4205TIP3    H234107   5.851   4.511  15.202 -1.9653 -1.6016  0.8689
 4206TIP3   OH234108   1.985   0.283  13.482  0.3742 -0.7347 -0.0112
 4206TIP3    H134109   1.898   0.315  13.505  0.6966  3.3682 -3.1963
 4206TIP3    H234110   1.970   0.224  13.407  0.2703  0.7704 -1.2246
 4207TIP3   OH234111   5.819   2.034   2.988  0.2697  0.3088 -0.3399
 4207TIP3    H134112   5.797   1.942   3.007 -1.3490  0.6997 -0.1599
 4207TIP3    H234113   5.904   2.047   3.028  0.0267 -0.8240  0.6078
 4208TIP3   OH234114   3.150   5.642  15.774 -0.6701 -0.1204 -0.4955
 4208TIP3    H134115   3.142   5.583  15.699  0.7229 -1.2782  0.2327
 4208TIP3    H234116   3.218   5.704  15.748 -1.9800  1.0882 -1.1731
 4209TIP3   OH234117   3.500   0.584   3.277  0.0588 -0.0093 -0.1131
 4209TIP3    H134118   3.494   0.488   3.284 -3.4544  0.2243  2.7898
 4209TIP3    H234119   3.427   0.608   3.220 -0.2432  1.0272  0.6997
 4210TIP3   OH234120   1.043   2.814   3.628 -0.4808  0.0992  0.1231
 4210TIP3    H134121   0.964   2.791   3.676 -1.1607  3.1769  0.7081
 4210TIP3    H234122   1.110   2.824   3.695  0.3272 -1.8541 -0.3122
 4211TIP3   OH234123   5.318   1.537   5.512 -0.2353 -0.3608  0.1694
 4211TIP3    H134124   5.224   1.534   5.491 -0.1753 -1.2493  0.0164
 4211TIP3    H234125   5.353   1.604   5.454 -0.6253 -0.6132 -0.3613
 4212TIP3   OH234126   1.412   1.162  16.838  0.1058  0.0393 -0.6412
 4212TIP3    H134127   1.479   1.194  16.776  0.4276 -0.3225 -0.4825
 4212TIP3    H234128   1.396   1.072  16.812  0.4086 -0.1855 -0.0548
 4213TIP3   OH234129   2.037   2.979  16.115  0.0254 -0.7285  0.0522
 4213TIP3    H134130   2.064   2.901  16.164 -0.3996 -1.6049 -1.0938
 4213TIP3    H234131   1.999   2.946  16.034 -0.7547  0.6462 -0.1832
 4214TIP3   OH234132   4.278   2.032   5.441 -0.0093 -0.0290 -0.2325
 4214TIP3    H134133   4.215   2.103   5.425  0.5890  0.2480 -1.5468
 4214TIP3    H234134   4.236   1.954   5.405 -0.3367 -0.1914  0.4967
 4215TIP3   OH234135   1.990   5.680  11.976 -0.0797 -0.1734 -0.6561
 4215TIP3    H134136   2.000   5.761  11.925 -1.9353 -0.2528 -1.1852
 4215TIP3    H234137   1.899   5.654  11.964  0.2709 -1.9365  0.1494
 4216TIP3   OH234138   5.920   6.126   0.004  0.3216  0.4955  0.1661
 4216TIP3    H134139   5.897   6.209  -0.037 -0.3376  0.0801 -0.3372
 4216TIP3    H234140   5.840   6.099   0.049  0.8144  0.5847  1.1289
 4217TIP3   OH234141   4.474   6.659   5.369  0.4380 -0.0201 -0.1193
 4217TIP3    H134142   4.480   6.563   5.364  1.1590 -0.0619  1.0040
 4217TIP3    H234143   4.439   6.686   5.285  0.0631 -1.2927 -0.3880
 4218TIP3   OH234144   0.412   5.062  14.686 -0.2355 -0.4421 -0.4054
 4218TIP3    H134145   0.443   5.099  14.769  1.8605 -0.4168 -1.1447
 4218TIP3    H234146   0.321   5.038  14.704 -0.0704  0.2265  1.6769
 4219TIP3   OH234147   4.629   0.487  15.737 -0.1057  0.8464 -0.1470
 4219TIP3    H134148   4.633   0.412  15.678  1.1476  0.0077  0.9361
 4219TIP3    H234149   4.681   0.554  15.693  0.7420  0.2587 -0.0784
 4220TIP3   OH234150   0.974   5.119   5.818 -0.6950  0.9540  0.0536
 4220TIP3    H134151   0.912   5.055   5.853 -0.1559  0.5881  0.3613
 4220TIP3    H234152   1.028   5.144   5.893  0.5440  0.0777 -0.5131
 4221TIP3   OH234153   0.400   1.542  12.816 -0.4376 -0.2774 -0.3074
 4221TIP3    H134154   0.331   1.525  12.881 -0.2137  1.1535  0.3525
 4221TIP3    H234155   0.353   1.548  12.733 -1.0358  0.0557  0.0424
 4222TIP3   OH234156   3.402   0.648  13.809 -0.3993  0.1483 -0.6864
 4222TIP3    H134157   3.409   0.663  13.714 -1.2628  0.8422 -0.6586
 4222TIP3    H234158   3.393   0.736  13.846  0.7708 -0.0568  0.1372
 4223TIP3   OH234159   0.164   0.150  13.155  0.0509 -0.4954 -0.2407
 4223TIP3    H134160   0.220   0.158  13.078  0.7291 -0.0038  0.2963
 4223TIP3    H234161   0.221   0.170  13.229 -1.2700  2.0393  0.2053
 4224TIP3   OH234162   4.836   1.249   1.697  0.3058  0.6449  0.8200
 4224TIP3    H134163   4.893   1.294   1.635 -0.0755  0.9001  0.6539
 4224TIP3    H234164   4.873   1.270   1.783 -0.8166  2.6816  0.8745
 4225TIP3   OH234165   3.989   5.178  12.576 -0.0855  0.4221 -0.3416
 4225TIP3    H134166   4.025   5.104  12.528  0.7564  0.4514  0.2188
 4225TIP3    H234167   3.994   5.152  12.668 -0.5116  0.8610 -0.1882
 4226TIP3   OH234168   3.020   0.158  11.517 -0.0313 -0.5669 -0.1088
 4226TIP3    H134169   3.020   0.101  11.441 -0.7843 -0.1955 -0.3896
 4226TIP3    H234170   2.948   0.219  11.502 -0.7234 -1.0007  1.2764
 4227TIP3   OH234171   3.334   6.274  12.927  0.2077  0.0049  0.0796
 4227TIP3    H134172   3.309   6.309  12.841  0.2575  0.3269  0.1927
 4227TIP3    H234173   3.311   6.182  12.923 -1.3343  0.3582  0.3093
 4228TIP3   OH234174   1.446   0.716   6.017  0.6212  0.0308 -0.0242
 4228TIP3    H134175   1.511   0.732   5.949  1.7867  0.9754  1.2678
 4228TIP3    H234176   1.496   0.679   6.090 -0.1664  1.3335  1.2257
 4229TIP3   OH234177   3.627   4.273   4.735  0.1113 -0.0381 -0.3428
 4229TIP3    H134178   3.683   4.349   4.752  0.0588  0.0199 -0.4291
 4229TIP3    H234179   3.610   4.276   4.640  0.4815 -0.4128 -0.4238
 4230TIP3   OH234180   3.980   0.951   3.268  0.2167 -0.1980  0.2364
 4230TIP3    H134181   4.043   1.023   3.274  1.2576 -0.9872 -0.7460
 4230TIP3    H234182   3.977   0.930   3.175 -1.5386 -0.1869  0.2516
 4231TIP3   OH234183   0.171   1.927   2.671 -0.1675  0.0882  0.0457
 4231TIP3    H134184   0.080   1.901   2.656 -0.3062  0.3729  0.3856
 4231TIP3    H234185   0.211   1.923   2.584 -0.3254 -0.7146  0.0073
 4232TIP3   OH234186   4.003   2.715  15.128  0.1298 -0.0690  0.2389
 4232TIP3    H134187   3.957   2.669  15.198 -0.9112 -2.9711 -2.0886
 4232TIP3    H234188   4.095   2.692  15.142  0.0860  0.3423  1.2787
 4233TIP3   OH234189   2.479   6.341   2.115 -0.1448  0.5877  0.2947
 4233TIP3    H134190   2.520   6.427   2.122  0.8379  0.1622 -0.1804
 4233TIP3    H234191   2.536   6.283   2.165  1.0177 -0.4002 -2.0169
 4234TIP3   OH234192   0.946   0.545   0.377  0.2678  0.6057 -0.0867
 4234TIP3    H134193   0.935   0.474   0.313 -0.5566 -1.7566  2.4705
 4234TIP3    H234194   1.037   0.573   0.366 -0.1606  1.1218 -3.0045
 4235TIP3   OH234195   0.193   6.321   5.367 -0.1506  0.2868 -0.1550
 4235TIP3    H134196   0.221   6.324   5.459 -0.2025 -2.3424  0.0079
 4235TIP3    H234197   0.273   6.305   5.318 -0.4363 -0.6086 -0.3352
 4236TIP3   OH234198   5.434   0.450   3.446 -0.0787  0.2885  0.1138
 4236TIP3    H134199   5.527   0.447   3.466 -0.5051 -0.2579  2.3975
 4236TIP3    H234200   5.413   0.544   3.443  0.3216  0.4235  1.0055
 4237TIP3   OH234201   2.923   3.088   2.037  0.0231  0.1563  0.0666
 4237TIP3    H134202   2.944   3.007   1.991 -0.3213 -0.1835  0.5028
 4237TIP3    H234203   2.974   3.155   1.991  0.1736 -0.2746 -0.4071
 4238TIP3   OH234204   6.622   5.896   1.972  0.0062 -0.7378  0.0853
 4238TIP3    H134205   6.526   5.902   1.973 -0.0271 -1.1883  0.0533
 4238TIP3    H234206   6.642   5.854   1.888  0.3189  0.5455 -0.5116
 4239TIP3   OH234207   6.045   1.245  15.846 -0.3574  0.4109 -0.2809
 4239TIP3    H134208   5.968   1.194  15.871 -1.0400  0.3709 -2.3363
 4239TIP3    H234209   6.115   1.180  15.837 -0.2012  0.3735  0.9755
 4240TIP3   OH234210   5.572   4.538   0.805  0.1781 -0.2640  0.5900
 4240TIP3    H134211   5.506   4.607   0.809  1.0916  0.7175 -0.4530
 4240TIP3    H234212   5.610   4.547   0.718  0.5385 -1.9077  0.5419
 4241TIP3   OH234213   1.062   5.606  12.942 -0.0848  0.5593  0.4616
 4241TIP3    H134214   1.143   5.657  12.939  0.8574 -0.8342  1.0746
 4241TIP3    H234215   1.014   5.643  13.016 -1.1823  2.9841 -1.3298
 4242TIP3   OH234216   5.932   3.089  15.740 -0.0534  0.2220  0.4287
 4242TIP3    H134217   5.913   3.146  15.665 -2.0917 -2.3978 -1.2299
 4242TIP3    H234218   6.012   3.043  15.714  1.3032  1.8401  1.5459
 4243TIP3   OH234219   4.429   5.235  14.459 -0.4327 -0.3030  0.3714
 4243TIP3    H134220   4.353   5.235  14.401 -0.4352 -2.2325  0.3022
 4243TIP3    H234221   4.478   5.157  14.433  1.1931  0.4887  0.9177
 4244TIP3   OH234222   5.411   3.334  16.878 -0.3371  0.0812  0.4147
 4244TIP3    H134223   5.443   3.248  16.852 -3.4565 -1.4467  1.2245
 4244TIP3    H234224   5.484   3.372  16.928  0.8982 -2.3538  0.6174
 4245TIP3   OH234225   4.704   4.782   2.983 -0.1002  0.2398  0.0516
 4245TIP3    H134226   4.720   4.719   3.053 -1.8718 -0.6554 -0.2980
 4245TIP3    H234227   4.635   4.839   3.018 -0.7655 -0.0102 -0.8154
 4246TIP3   OH234228   1.977   4.739  13.593 -0.5333 -0.1047 -0.3043
 4246TIP3    H134229   2.000   4.648  13.575 -0.1096 -0.3495  1.3367
 4246TIP3    H234230   2.050   4.773  13.645 -0.4521  1.3286 -1.2877
 4247TIP3   OH234231   5.895   4.343   2.040 -0.0153 -0.6362 -0.3234
 4247TIP3    H134232   5.870   4.253   2.020  1.9719 -1.1993 -0.5058
 4247TIP3    H234233   5.990   4.340   2.049  0.0151  1.2804  0.5804
 4248TIP3   OH234234   4.415   0.577  13.788 -0.0632 -0.0836  0.1841
 4248TIP3    H134235   4.462   0.500  13.757 -0.6407 -0.6470  0.6940
 4248TIP3    H234236   4.370   0.548  13.867 -1.2135  0.4591 -0.2467
 4249TIP3   OH234237   2.298   6.459   2.868  0.1163  0.2245 -0.8275
 4249TIP3    H134238   2.260   6.432   2.952 -2.0559 -0.4393 -1.9486
 4249TIP3    H234239   2.271   6.390   2.807  1.4447  0.8181 -2.1435
 4250TIP3   OH234240   0.523   5.531  14.461 -0.5390 -0.0062  0.9046
 4250TIP3    H134241   0.573   5.540  14.542  0.0301 -0.8165  0.6571
 4250TIP3    H234242   0.514   5.437  14.448  1.3853 -0.0093 -1.1422
 4251TIP3   OH234243   1.068   1.642   3.325 -0.0685 -0.2133 -0.2732
 4251TIP3    H134244   1.064   1.674   3.415  0.8286 -2.8175  0.7862
 4251TIP3    H234245   1.001   1.574   3.320 -0.3804  0.1602 -1.7084
 4252TIP3   OH234246   2.968   3.354  14.192 -0.0475 -0.7015 -0.4044
 4252TIP3    H134247   2.933   3.274  14.152  0.0015  0.0032 -1.9098
 4252TIP3    H234248   2.947   3.423  14.130 -0.5039  0.5535  1.1006
 4253TIP3   OH234249   2.739   3.670   1.581  0.1486 -0.5198 -0.1545
 4253TIP3    H134250   2.802   3.599   1.594 -0.6033 -1.4434 -1.3726
 4253TIP3    H234251   2.772   3.719   1.506 -0.7961 -1.2931 -1.1062
 4254TIP3   OH234252   3.180   5.410  11.172  0.3384 -0.4163 -0.1722
 4254TIP3    H134253   3.102   5.439  11.126  1.5491  0.4243 -1.8167
 4254TIP3    H234254   3.242   5.386  11.103  1.6921 -0.6674  1.0521
 4255TIP3   OH234255   6.646   2.779   4.865 -0.2303  0.3298  0.1014
 4255TIP3    H134256   6.622   2.870   4.882  0.6035  0.4673  0.5914
 4255TIP3    H234257   6.711   2.759   4.932  0.5880 -0.2126 -0.8387
 4256TIP3   OH234258   4.501   2.225   0.528 -0.7070  0.5327  0.6933
 4256TIP3    H134259   4.466   2.156   0.471  0.8917 -0.3810  0.7484
 4256TIP3    H234260   4.564   2.271   0.473  0.9468 -0.4319  1.6832
 4257TIP3   OH234261   0.851   4.875  16.731 -0.4771  0.1224  0.3713
 4257TIP3    H134262   0.847   4.938  16.659 -0.5748 -0.2864  0.0135
 4257TIP3    H234263   0.760   4.865  16.759 -1.2216 -3.1595 -2.4976
 4258TIP3   OH234264   1.822   3.498   6.654  0.6435 -0.3828  0.3410
 4258TIP3    H134265   1.811   3.428   6.590  1.3363 -1.6593  1.5546
 4258TIP3    H234266   1.744   3.492   6.710  0.4453  0.1701  0.1278
 4259TIP3   OH234267   5.114   3.911  17.096 -0.6034 -0.4204 -0.0147
 4259TIP3    H134268   5.182   3.977  17.080  1.2111 -1.6144  2.1310
 4259TIP3    H234269   5.046   3.958  17.144 -0.0777  0.2523  0.0816
 4260TIP3   OH234270   0.851   0.625   5.203  0.0220 -0.2404  0.2666
 4260TIP3    H134271   0.756   0.629   5.204  0.0307  1.6622 -1.6188
 4260TIP3    H234272   0.875   0.625   5.110  1.8802 -0.7247  0.6932
 4261TIP3   OH234273   0.110   5.014   5.064  0.7427 -0.0891  0.2923
 4261TIP3    H134274   0.164   5.022   4.985  0.2073 -0.1973 -0.0959
 4261TIP3    H234275   0.108   5.103   5.100  2.7601 -0.4541  1.4053
 4262TIP3   OH234276   5.230   1.903  13.486  0.1771 -0.1580 -0.4667
 4262TIP3    H134277   5.164   1.849  13.528  1.0357 -0.5257  0.4697
 4262TIP3    H234278   5.199   1.916  13.396 -2.5769  2.0515  0.6703
 4263TIP3   OH234279   6.398   5.672  16.812  0.1359  0.5276  0.1943
 4263TIP3    H134280   6.374   5.619  16.888 -2.3365  2.3424  0.8182
 4263TIP3    H234281   6.482   5.711  16.836  0.2031 -0.2468  1.2728
 4264TIP3   OH234282   1.191   2.988  12.870  0.4519 -0.2904  1.0115
 4264TIP3    H134283   1.203   2.956  12.781  0.6832  1.4769  0.3615
 4264TIP3    H234284   1.146   3.072  12.860  0.4056 -0.0900  2.5599
 4265TIP3   OH234285   0.205   6.537   5.095 -0.4215 -0.2785  0.2930
 4265TIP3    H134286   0.230   6.611   5.040  0.5636 -1.1553 -0.4814
 4265TIP3    H234287   0.138   6.572   5.154  0.4170  1.3637  0.3231
 4266TIP3   OH234288   5.326   1.005   0.475  0.6943 -0.4161 -0.3783
 4266TIP3    H134289   5.273   1.067   0.524 -0.9735 -0.4233 -2.0693
 4266TIP3    H234290   5.412   1.008   0.517  0.2612  1.9793  0.4444
 4267TIP3   OH234291   4.205   6.815   3.352  0.0189  0.1358 -0.0851
 4267TIP3    H134292   4.111   6.830   3.357  0.3091  1.8955  1.2604
 4267TIP3    H234293   4.220   6.737   3.406 -0.6587 -0.0798 -0.2006
 4268TIP3   OH234294   4.844   1.692  11.108 -0.2268  0.4206  0.8991
 4268TIP3    H134295   4.865   1.785  11.118 -0.0401  0.3805  0.8833
 4268TIP3    H234296   4.751   1.691  11.082 -0.2149  0.6044  0.8459
 4269TIP3   OH234297   6.297   1.899  12.162  0.1752 -0.0874  0.1673
 4269TIP3    H134298   6.242   1.976  12.146  0.9855  0.7974  1.4923
 4269TIP3    H234299   6.234   1.827  12.169 -0.9304  0.9489  1.9588
 4270TIP3   OH234300   5.905   6.106   3.188 -0.6057  0.1219  0.7719
 4270TIP3    H134301   5.857   6.120   3.107 -0.8526 -0.1334  0.8698
 4270TIP3    H234302   5.847   6.138   3.257  0.0021  1.2539  0.7881
 4271TIP3   OH234303   0.914   2.324  17.102  0.4278 -0.1468  0.2291
 4271TIP3    H134304   0.885   2.273  17.177 -1.1796 -0.0163 -0.2684
 4271TIP3    H234305   0.894   2.268  17.026  0.7476  0.2918 -0.1867
 4272TIP3   OH234306   3.393   5.925  12.076 -0.6136 -0.3638 -0.2075
 4272TIP3    H134307   3.305   5.888  12.073 -0.1637 -1.6279  1.1191
 4272TIP3    H234308   3.430   5.893  12.158 -0.5219  3.8428  1.6932
 4273TIP3   OH234309   3.455   0.880  16.746 -0.3238 -0.3576  0.5925
 4273TIP3    H134310   3.550   0.893  16.750 -0.2027 -0.3103 -1.4360
 4273TIP3    H234311   3.426   0.937  16.674 -1.8026 -0.8551  0.7572
 4274TIP3   OH234312   3.205   0.519   1.413 -0.6774  0.2323 -0.5369
 4274TIP3    H134313   3.186   0.608   1.441  1.1651  0.2064  1.0166
 4274TIP3    H234314   3.285   0.527   1.362  0.6052 -0.6852  1.2204
 4275TIP3   OH234315   3.343   3.690   2.372 -0.1295  0.3290  0.2344
 4275TIP3    H134316   3.260   3.648   2.393  0.9776 -1.6289  0.9032
 4275TIP3    H234317   3.366   3.740   2.450  0.8263 -1.6951  1.2951
 4276TIP3   OH234318   1.051   0.592  15.256 -0.1514 -0.3726 -0.2278
 4276TIP3    H134319   1.071   0.524  15.321 -1.2215 -0.8917 -0.4071
 4276TIP3    H234320   1.035   0.543  15.175  1.9687  0.3155 -1.1370
 4277TIP3   OH234321   0.735   3.464   5.957 -0.4240 -0.0175  0.4351
 4277TIP3    H134322   0.760   3.477   5.866 -1.6519  0.5694  0.1589
 4277TIP3    H234323   0.792   3.523   6.006 -0.6391  0.6400 -0.0927
 4278TIP3   OH234324   3.882   4.162  16.021  0.2938 -0.2491 -0.1934
 4278TIP3    H134325   3.889   4.189  15.930 -0.1412 -2.0013 -0.7842
 4278TIP3    H234326   3.965   4.118  16.040 -0.8515 -2.9572 -0.8916
 4279TIP3   OH234327   6.232   4.522   2.987 -0.2092 -0.2273 -0.0856
 4279TIP3    H134328   6.177   4.580   2.935  0.3205 -0.0644 -0.4656
 4279TIP3    H234329   6.196   4.435   2.970 -0.8861 -0.0342  0.3405
 4280TIP3   OH234330   0.604   0.170  12.112 -0.5479  0.1499  0.3094
 4280TIP3    H134331   0.558   0.109  12.169 -0.4047 -0.4760 -0.2255
 4280TIP3    H234332   0.640   0.115  12.042 -1.1556  0.9497 -0.6691
 4281TIP3   OH234333   1.846   6.321  14.337  0.4039 -0.2002  0.7907
 4281TIP3    H134334   1.794   6.266  14.277  0.1276 -0.2523  1.0702
 4281TIP3    H234335   1.874   6.260  14.406  1.5127 -0.3425  0.2334
 4282TIP3   OH234336   5.332   0.827   4.517 -0.6369 -0.5172  0.1325
 4282TIP3    H134337   5.346   0.808   4.424 -0.9325  1.2138 -0.3001
 4282TIP3    H234338   5.305   0.744   4.555 -0.7391 -1.2003 -1.3788
 4283TIP3   OH234339   0.325   5.056  13.586  0.0722 -0.0830 -0.3404
 4283TIP3    H134340   0.410   5.022  13.614  0.3796  0.8321 -0.1272
 4283TIP3    H234341   0.347   5.124  13.522 -0.5906 -1.7645 -2.4722
 4284TIP3   OH234342   2.111   6.510  13.385  0.7315 -0.6725  0.3829
 4284TIP3    H134343   2.197   6.468  13.387  0.4626 -1.2924 -0.5854
 4284TIP3    H234344   2.089   6.515  13.292 -0.1777 -0.2997  0.6096
 4285TIP3   OH234345   1.604   4.594   1.594  0.1176 -0.2728 -0.2115
 4285TIP3    H134346   1.514   4.580   1.622 -0.3830  1.5996 -0.7177
 4285TIP3    H234347   1.658   4.570   1.670 -1.0167  1.8483  1.3520
 4286TIP3   OH234348   4.132   1.964   1.369 -0.3807 -0.0435 -0.2282
 4286TIP3    H134349   4.131   1.943   1.462 -0.2439 -1.4203 -0.5154
 4286TIP3    H234350   4.093   2.051   1.364 -0.5263 -0.0054  1.0936
 4287TIP3   OH234351   0.473   4.611   4.041  0.1716 -0.2797 -0.0300
 4287TIP3    H134352   0.498   4.573   4.126  1.8790 -0.1829 -0.4576
 4287TIP3    H234353   0.549   4.596   3.985 -1.4137 -1.5393 -1.9676
 4288TIP3   OH234354   3.407   2.129   4.516 -0.5259  0.5579 -0.4326
 4288TIP3    H134355   3.328   2.180   4.528 -1.8513 -1.0736 -1.6813
 4288TIP3    H234356   3.445   2.161   4.434  0.7866  2.0887  0.7026
 4289TIP3   OH234357   4.152   5.468  11.688  0.3096 -0.0931 -0.0075
 4289TIP3    H134358   4.242   5.441  11.669  0.9905  0.7454  1.8488
 4289TIP3    H234359   4.104   5.385  11.697  1.3112 -0.6082  0.8117
 4290TIP3   OH234360   2.191   1.545   5.178 -0.0554 -0.1056  0.1026
 4290TIP3    H134361   2.118   1.591   5.137  0.5991  1.1841  0.3483
 4290TIP3    H234362   2.150   1.474   5.228 -1.1870  0.9453  0.7004
 4291TIP3   OH234363   4.838   0.330  13.001 -0.5523 -0.1304  0.1983
 4291TIP3    H134364   4.791   0.252  13.029  2.3270 -2.1319 -0.1064
 4291TIP3    H234365   4.907   0.341  13.067  0.4709  0.8115 -0.9903
 4292TIP3   OH234366   5.944   3.405   3.862  0.5564 -1.0562 -0.1678
 4292TIP3    H134367   5.933   3.335   3.798 -0.2321 -1.2032  0.1047
 4292TIP3    H234368   5.870   3.393   3.922  0.3942  0.0336 -0.1380
 4293TIP3   OH234369   1.223   5.625  11.550  0.4374 -0.5278  0.4128
 4293TIP3    H134370   1.134   5.602  11.576  1.0662 -1.2414  2.0613
 4293TIP3    H234371   1.222   5.720  11.539 -0.6113 -0.5754 -0.0187
 4294TIP3   OH234372   5.855   4.290  16.347  0.0256  0.2154  0.7033
 4294TIP3    H134373   5.779   4.293  16.287  0.0464  1.5755  0.7008
 4294TIP3    H234374   5.931   4.289  16.289  0.0268 -0.1631  0.7088
 4295TIP3   OH234375   6.781   3.427  12.865  0.1371  0.7135 -0.2978
 4295TIP3    H134376   6.714   3.491  12.890  0.4182  0.6586  0.6162
 4295TIP3    H234377   6.792   3.440  12.770  0.1441  1.9671 -0.1427
 4296TIP3   OH234378   0.386   3.593   5.128  0.1759  0.5576  0.2890
 4296TIP3    H134379   0.404   3.575   5.036 -0.6460  0.7020  0.0947
 4296TIP3    H234380   0.319   3.661   5.126 -1.1531 -0.6904  0.9710
 4297TIP3   OH234381   2.815   4.529   4.752  0.1877  0.3244  0.2825
 4297TIP3    H134382   2.884   4.588   4.723  1.2781 -1.4587 -0.9453
 4297TIP3    H234383   2.736   4.584   4.755  1.1582  1.8576 -0.6625
 4298TIP3   OH234384   1.324   3.418   3.430 -0.2774 -0.3258 -0.4309
 4298TIP3    H134385   1.304   3.326   3.442  1.2999 -0.9248 -2.0048
 4298TIP3    H234386   1.413   3.420   3.394  0.4199  1.8989  1.1331
 4299TIP3   OH234387   3.102   3.713  15.364 -0.8423 -0.0757 -0.3880
 4299TIP3    H134388   3.103   3.693  15.457  0.2596  2.7043  0.2900
 4299TIP3    H234389   3.012   3.695  15.337 -1.8179  1.1979  1.7703
 4300TIP3   OH234390   5.445   1.238  12.989 -0.1229  0.2994 -0.3413
 4300TIP3    H134391   5.371   1.299  12.993 -0.0084  0.4131  0.1609
 4300TIP3    H234392   5.519   1.288  13.024 -0.1692 -0.3141  0.6867
 4301TIP3   OH234393   5.014   0.079   4.049 -0.5051  0.2263  0.2080
 4301TIP3    H134394   5.015   0.002   4.106 -0.1612 -0.1859 -0.3555
 4301TIP3    H234395   5.105   0.105   4.041 -0.4121 -0.4801 -1.1815
 4302TIP3   OH234396   1.005   1.344  11.282 -0.3337 -0.0536  0.2932
 4302TIP3    H134397   0.923   1.298  11.303  0.4063 -0.5393  2.3523
 4302TIP3    H234398   0.978   1.415  11.224 -2.1905 -0.3071  0.7623
 4303TIP3   OH234399   3.391   6.273  12.102  0.2580  0.5713 -0.6337
 4303TIP3    H134400   3.478   6.289  12.137 -0.4442  0.1446  1.4593
 4303TIP3    H234401   3.374   6.347  12.044  0.5184  2.7610  1.9273
 4304TIP3   OH234402   2.885   0.822   3.632  0.0652  0.2701 -0.2121
 4304TIP3    H134403   2.943   0.747   3.621 -0.0568  0.2013 -0.3979
 4304TIP3    H234404   2.928   0.877   3.698 -0.4085 -0.5055  0.7654
 4305TIP3   OH234405   1.196   0.944   5.661 -0.1466 -0.3368  0.1530
 4305TIP3    H134406   1.190   0.908   5.750  1.9204 -0.6486  0.2162
 4305TIP3    H234407   1.190   1.039   5.673  1.2799 -0.3003  0.7948
 4306TIP3   OH234408   3.783   2.486  14.394 -0.3893 -0.0118 -0.3687
 4306TIP3    H134409   3.826   2.460  14.476 -2.3867 -0.3177  0.6312
 4306TIP3    H234410   3.770   2.580  14.402 -0.0717  0.0538 -0.5992
 4307TIP3   OH234411   2.333   4.952   1.564 -0.8313  0.2154 -0.2404
 4307TIP3    H134412   2.316   4.914   1.650  0.6622 -1.0561 -0.4574
 4307TIP3    H234413   2.425   4.977   1.567 -0.7812  0.2297 -1.4339
 4308TIP3   OH234414   1.897   3.681  11.210 -0.0960 -0.0218  0.0724
 4308TIP3    H134415   1.948   3.752  11.249  0.1169  1.0561 -2.0205
 4308TIP3    H234416   1.882   3.620  11.282  0.9808  1.4218  1.6012
 4309TIP3   OH234417   0.362   4.140  16.951  0.2011 -0.0908 -0.0669
 4309TIP3    H134418   0.363   4.048  16.978 -2.1502  0.1929  1.2188
 4309TIP3    H234419   0.275   4.171  16.976  1.3400  2.8121  0.6158
 4310TIP3   OH234420   5.041   3.392   2.911 -0.5616 -0.0820  0.1599
 4310TIP3    H134421   5.103   3.419   2.843 -0.4255  1.0052  0.7006
 4310TIP3    H234422   4.969   3.455   2.904 -1.4545 -1.1117 -0.2216
 4311TIP3   OH234423   3.847   1.731   5.789  0.3193  0.0345  0.2010
 4311TIP3    H134424   3.842   1.820   5.752  0.9895  0.5031  1.1928
 4311TIP3    H234425   3.836   1.744   5.883 -2.3310 -1.2308  0.1564
 4312TIP3   OH234426   1.703   0.093  16.661 -0.4035 -0.1099  0.6732
 4312TIP3    H134427   1.618   0.084  16.617 -1.2014 -1.1850  2.3190
 4312TIP3    H234428   1.735   0.003  16.670  2.4998  0.3741 -2.6851
 4313TIP3   OH234429   2.156   5.303   3.097  0.5453 -0.0490  0.4230
 4313TIP3    H134430   2.183   5.336   3.183  0.0350 -1.1540  1.0291
 4313TIP3    H234431   2.067   5.337   3.086  0.4899 -0.1725  0.4832
 4314TIP3   OH234432   4.036   2.294   3.206 -0.5299 -0.1254 -0.4270
 4314TIP3    H134433   4.061   2.352   3.278 -1.6301 -0.2506  0.0801
 4314TIP3    H234434   4.036   2.350   3.129  1.6307 -0.2058 -0.5404
 4315TIP3   OH234435   2.122   4.162  16.561 -0.3985  0.2796 -0.5219
 4315TIP3    H134436   2.181   4.107  16.613 -1.5962 -0.2357  0.3322
 4315TIP3    H234437   2.133   4.130  16.472  1.4420  0.9552 -0.5792
 4316TIP3   OH234438   3.231   4.580  12.733 -0.0605  0.3169 -0.0849
 4316TIP3    H134439   3.296   4.531  12.683  0.0528 -0.1421  0.5006
 4316TIP3    H234440   3.248   4.671  12.712  0.6844  0.1888 -0.0481
 4317TIP3   OH234441   3.541   1.011   4.559 -0.7209  0.3945 -0.1142
 4317TIP3    H134442   3.551   0.933   4.504  0.5498  2.2913 -2.7713
 4317TIP3    H234443   3.457   1.049   4.532 -1.0441  0.3056  0.7317
 4318TIP3   OH234444   5.449   5.218   0.292 -0.4208 -0.2581 -0.6555
 4318TIP3    H134445   5.387   5.214   0.364  1.1547  1.8891  0.9619
 4318TIP3    H234446   5.419   5.291   0.238  0.3746  0.4670 -0.1405
 4319TIP3   OH234447   4.325   2.760   3.621 -0.3958  0.2838 -0.7214
 4319TIP3    H134448   4.239   2.719   3.632 -1.0968  1.9566  0.4583
 4319TIP3    H234449   4.306   2.844   3.580  0.7412  0.4233 -0.9664
 4320TIP3   OH234450   5.996   3.035   0.462 -0.3054 -0.0321 -0.0542
 4320TIP3    H134451   5.930   3.012   0.527  0.0577  0.1749  0.3932
 4320TIP3    H234452   6.031   3.119   0.493  0.2236 -0.1828 -0.2468
 4321TIP3   OH234453   6.439   3.408  14.417 -0.2719  0.1369  0.2790
 4321TIP3    H134454   6.367   3.466  14.392  1.2867  2.3928  0.7397
 4321TIP3    H234455   6.445   3.345  14.345 -1.8600  0.6919 -0.3888
 4322TIP3   OH234456   3.364   6.640   4.476 -0.1856  0.5960  0.0951
 4322TIP3    H134457   3.372   6.594   4.559 -0.6828  0.3038 -0.0136
 4322TIP3    H234458   3.443   6.616   4.428 -0.8295 -0.8678 -0.3028
 4323TIP3   OH234459   2.403   1.142  13.903 -0.1582  0.2949 -0.4402
 4323TIP3    H134460   2.491   1.157  13.870 -0.3489  0.1345 -1.0446
 4323TIP3    H234461   2.353   1.116  13.825 -0.7143  0.3034 -0.0896
 4324TIP3   OH234462   5.208   6.541  15.028 -0.3943 -0.0583 -0.2165
 4324TIP3    H134463   5.291   6.495  15.024 -0.4295 -0.1659  0.2668
 4324TIP3    H234464   5.204   6.591  14.946 -0.8092 -1.6670 -1.2116
 4325TIP3   OH234465   0.104   4.987   0.917  0.3792  0.5219 -0.2206
 4325TIP3    H134466   0.172   4.921   0.924  0.3138  0.4573 -0.1917
 4325TIP3    H234467   0.110   5.019   0.827 -0.2447 -0.2248 -0.5353
 4326TIP3   OH234468   4.390   0.686   2.847  0.1571  0.1458 -0.5389
 4326TIP3    H134469   4.437   0.605   2.829  0.1615  0.1894 -0.7280
 4326TIP3    H234470   4.301   0.670   2.817 -0.4565 -0.5848  1.4863
 4327TIP3   OH234471   5.269   6.386   2.582  0.2812  0.0486  0.1945
 4327TIP3    H134472   5.175   6.383   2.565  0.0972 -0.3740  1.2306
 4327TIP3    H234473   5.284   6.476   2.613  0.1703  0.0191  0.3341
 4328TIP3   OH234474   5.980   5.187   0.545  0.3808 -0.2707 -0.2128
 4328TIP3    H134475   5.907   5.229   0.500  0.8631  0.8934  0.0677
 4328TIP3    H234476   6.057   5.238   0.520  0.7203  0.1683  1.5753
 4329TIP3   OH234477   1.017   2.315  16.283 -1.0962 -0.3061  0.3077
 4329TIP3    H134478   1.055   2.229  16.263 -2.6741 -1.4298  1.7686
 4329TIP3    H234479   0.938   2.319  16.229 -0.5623  0.6457 -0.4193
 4330TIP3   OH234480   4.316   0.222   1.238  0.2484 -0.3541  0.7785
 4330TIP3    H134481   4.282   0.150   1.292  0.3590 -2.4024 -1.6506
 4330TIP3    H234482   4.240   0.278   1.223  0.4638  0.9702  3.8780
 4331TIP3   OH234483   3.327   4.483  13.934 -0.5125  0.1055 -0.4457
 4331TIP3    H134484   3.322   4.407  13.877  0.9907 -0.6145  0.3303
 4331TIP3    H234485   3.298   4.452  14.020 -1.8308  0.9381 -0.5612
 4332TIP3   OH234486   2.239   5.238   2.322 -0.4988 -0.4938 -0.8821
 4332TIP3    H134487   2.264   5.163   2.377  1.7747  0.3689 -0.6586
 4332TIP3    H234488   2.295   5.231   2.245  0.0734  1.2136 -0.6551
 4333TIP3   OH234489   2.407   0.365   4.608 -0.0247  0.1296  0.3684
 4333TIP3    H134490   2.442   0.357   4.520  0.4950 -0.9853  0.6534
 4333TIP3    H234491   2.432   0.453   4.637 -0.0760  0.4490 -0.5322
 4334TIP3   OH234492   2.240   3.449   2.116 -0.5026 -0.2150 -0.3235
 4334TIP3    H134493   2.232   3.486   2.204  0.2465 -1.0411  0.1012
 4334TIP3    H234494   2.325   3.480   2.085 -0.7833  0.1094 -0.7891
 4335TIP3   OH234495   0.157   5.771   1.747 -0.5266  0.6813 -0.5957
 4335TIP3    H134496   0.168   5.839   1.813  1.1106  1.9058 -2.0367
 4335TIP3    H234497   0.239   5.721   1.751 -1.7732 -1.4044  0.5691
 4336TIP3   OH234498   0.407   0.199   3.704 -0.1697 -0.7056 -0.8018
 4336TIP3    H134499   0.492   0.161   3.724  0.5551  2.0182  1.9018
 4336TIP3    H234500   0.426   0.279   3.656 -1.0769  0.2543  0.3508
 4337TIP3   OH234501   5.740   0.204   0.493  0.5545  0.0762  0.2147
 4337TIP3    H134502   5.778   0.265   0.429 -0.6690  0.2219 -0.4108
 4337TIP3    H234503   5.750   0.118   0.452 -1.1029  0.2679 -0.6544
 4338TIP3   OH234504   0.588   2.418  14.789 -0.2572 -0.2620  1.0676
 4338TIP3    H134505   0.512   2.417  14.847 -0.1845  0.2279  1.1812
 4338TIP3    H234506   0.617   2.509  14.791 -2.1460  0.5820 -2.1770
 4339TIP3   OH234507   6.739   2.787   0.073 -0.1646  0.2124 -0.0968
 4339TIP3    H134508   6.800   2.859   0.092 -0.9810  1.4700 -1.9221
 4339TIP3    H234509   6.700   2.766   0.157  0.4907  1.5710  0.5814
 4340TIP3   OH234510   3.017   4.424  14.655 -0.0535 -0.5301 -0.7060
 4340TIP3    H134511   3.017   4.515  14.624 -0.7298 -0.2221  0.1466
 4340TIP3    H234512   2.925   4.399  14.656  0.1503 -1.3360 -1.2148
 4341TIP3   OH234513   5.941   4.261  12.455  0.1047  0.1098 -0.8367
 4341TIP3    H134514   5.998   4.203  12.404 -0.3373 -1.6878  0.6243
 4341TIP3    H234515   5.995   4.290  12.528 -0.5641 -0.9483  0.1050
 4342TIP3   OH234516   2.149   5.722  11.487 -0.0716  0.0795 -0.4916
 4342TIP3    H134517   2.104   5.798  11.450 -2.2749 -0.6819  0.4048
 4342TIP3    H234518   2.142   5.655  11.419 -1.2917 -0.3437  0.0092
 4343TIP3   OH234519   4.584   2.389  14.046  0.5121  0.1884  0.0596
 4343TIP3    H134520   4.616   2.442  14.119  0.1269  0.3327  0.1289
 4343TIP3    H234521   4.579   2.451  13.973 -0.1937  0.3208  0.2087
 4344TIP3   OH234522   2.732   6.230  15.239  0.5801  0.2884 -0.8217
 4344TIP3    H134523   2.743   6.135  15.243  2.0250  0.4919  1.5028
 4344TIP3    H234524   2.819   6.265  15.259 -0.3254  2.0883  0.1469
 4345TIP3   OH234525   1.388   5.669  11.187  0.7977  0.3583  0.3625
 4345TIP3    H134526   1.350   5.750  11.151  0.4478 -0.4812 -1.2832
 4345TIP3    H234527   1.480   5.690  11.201  1.1739  0.5263 -1.9351
 4346TIP3   OH234528   6.078   3.254  14.416 -0.8217 -0.7786  0.1843
 4346TIP3    H134529   6.026   3.310  14.357  1.3742  0.9920 -0.2170
 4346TIP3    H234530   6.052   3.282  14.504  0.1827  0.8874 -0.0121
 4347TIP3   OH234531   3.373   5.967   4.886  0.4314  0.4056  0.1319
 4347TIP3    H134532   3.457   6.010   4.903 -0.2771  1.2714  1.7340
 4347TIP3    H234533   3.329   5.968   4.971 -1.3873  0.4099 -0.7702
 4348TIP3   OH234534   3.556   5.760  13.281 -0.0312  0.0884 -0.4925
 4348TIP3    H134535   3.542   5.836  13.225 -2.4124  0.0101 -0.1165
 4348TIP3    H234536   3.570   5.797  13.368  2.4664  0.1659 -0.8688
 4349TIP3   OH234537   2.552   4.725   0.611 -0.2917  0.3874 -0.3901
 4349TIP3    H134538   2.559   4.644   0.661  0.6394  0.2140 -0.7790
 4349TIP3    H234539   2.551   4.696   0.519  0.1613  0.8123 -0.5346
 4350TIP3   OH234540   0.031   6.581   1.835 -0.0280  0.1463 -0.0400
 4350TIP3    H134541   0.122   6.556   1.824 -0.2715 -0.9435  0.3311
 4350TIP3    H234542  -0.019   6.503   1.810 -0.8208  0.3284  0.9154
 4351TIP3   OH234543   1.496   3.797   1.907 -0.3005 -0.1748  0.1239
 4351TIP3    H134544   1.409   3.832   1.926  0.1144 -0.1535  2.2055
 4351TIP3    H234545   1.484   3.702   1.903 -0.6098 -0.1050 -0.8170
 4352TIP3   OH234546   0.909   3.541   1.652 -0.2774  0.7199 -0.1087
 4352TIP3    H134547   0.854   3.612   1.620  1.8775  2.3101 -0.4362
 4352TIP3    H234548   0.885   3.532   1.745 -0.5003  1.9395 -0.0427
 4353TIP3   OH234549   1.834   2.553  14.374  0.3364  0.5696  0.0206
 4353TIP3    H134550   1.742   2.555  14.401 -0.2023  1.6851 -1.6930
 4353TIP3    H234551   1.858   2.645  14.363  0.6880  0.2702 -2.4238
 4354TIP3   OH234552   4.780   3.506  14.069  0.5407 -0.0471 -0.1015
 4354TIP3    H134553   4.781   3.598  14.042 -1.9160  0.0749  0.0394
 4354TIP3    H234554   4.790   3.508  14.164 -1.7137  0.2900  0.1834
 4355TIP3   OH234555   2.371   6.338  14.723  0.0247 -0.3996  0.3588
 4355TIP3    H134556   2.282   6.350  14.689  0.7315 -0.4405 -1.6334
 4355TIP3    H234557   2.427   6.343  14.645  1.7595 -0.5377  1.5510
 4356TIP3   OH234558   2.341   0.243  13.298  0.3263 -0.1733 -0.4921
 4356TIP3    H134559   2.415   0.190  13.329 -0.1346 -0.9610 -0.7144
 4356TIP3    H234560   2.374   0.285  13.219  0.9674  0.5517  0.1342
 4357TIP3   OH234561   4.996   2.277   4.431  0.1690 -0.2791  0.6310
 4357TIP3    H134562   4.938   2.206   4.404  0.0788 -0.4436  1.2559
 4357TIP3    H234563   4.974   2.293   4.523  1.1688 -0.3968  0.8970
 4358TIP3   OH234564   3.923   1.408  11.424 -0.4454  0.3925  0.2634
 4358TIP3    H134565   3.856   1.473  11.445 -1.6279 -0.6258 -0.2115
 4358TIP3    H234566   3.896   1.373  11.339 -1.3657 -2.5286  1.6134
 4359TIP3   OH234567   4.285   2.298  10.287 -0.2849 -0.3787 -0.6221
 4359TIP3    H134568   4.248   2.374  10.331 -0.1566 -1.3767  1.3483
 4359TIP3    H234569   4.210   2.254  10.247 -0.9878 -1.1756  1.4236
 4360TIP3   OH234570   6.221   5.296  14.430 -0.9182 -0.2516 -0.1543
 4360TIP3    H134571   6.207   5.383  14.393 -2.3992 -0.7313 -0.8098
 4360TIP3    H234572   6.236   5.240  14.353  0.2415 -0.5513  0.2722
 4361TIP3   OH234573   0.657   4.348  17.150  0.0826 -0.5202 -0.1746
 4361TIP3    H134574   0.595   4.357  17.078 -0.6833 -0.0112  0.5246
 4361TIP3    H234575   0.711   4.273  17.126 -1.3540 -1.5293 -0.4225
 4362TIP3   OH234576   0.355   0.151  16.235  0.0610 -0.4238  0.0670
 4362TIP3    H134577   0.286   0.091  16.264  0.5895 -1.3216 -0.4758
 4362TIP3    H234578   0.430   0.129  16.290  0.1639 -0.0300  0.0889
 4363TIP3   OH234579   2.889   6.403  16.100  0.6058  0.0835  1.0139
 4363TIP3    H134580   2.896   6.362  16.014  2.8829  0.3027  1.0278
 4363TIP3    H234581   2.941   6.347  16.157  1.0719  1.2077  1.7193
 4364TIP3   OH234582   4.591   0.759   0.875  0.1234  0.3383  0.3478
 4364TIP3    H134583   4.599   0.775   0.781 -2.4147  0.3882  0.0853
 4364TIP3    H234584   4.497   0.759   0.892  0.5249  1.0309  3.0295
 4365TIP3   OH234585   4.318   2.513  10.849 -0.2525  0.1659 -0.6596
 4365TIP3    H134586   4.231   2.476  10.860 -1.1120  2.1413 -0.3906
 4365TIP3    H234587   4.356   2.512  10.938  0.1650 -1.0435 -0.8426
 4366TIP3   OH234588   1.734   1.149  13.235  0.1692  0.0730 -0.4874
 4366TIP3    H134589   1.813   1.162  13.286 -1.2188 -0.1046  1.8554
 4366TIP3    H234590   1.689   1.234  13.238 -0.0899 -0.0295 -1.1655
 4367TIP3   OH234591   0.858   3.323   2.153  0.3398 -0.6326  0.0852
 4367TIP3    H134592   0.778   3.374   2.145  0.7766  0.2816  1.2158
 4367TIP3    H234593   0.869   3.311   2.247  1.7073 -0.4383 -0.0337
 4368TIP3   OH234594   3.707   5.533   3.658 -0.1302  0.0923  0.1854
 4368TIP3    H134595   3.765   5.526   3.734  0.0523 -0.9941 -0.0412
 4368TIP3    H234596   3.681   5.625   3.657  0.9714  0.4288  0.7452
 4369TIP3   OH234597   1.381   5.108  14.516  0.6265  0.0578 -0.3059
 4369TIP3    H134598   1.341   5.195  14.511  0.2782 -0.0007  0.9768
 4369TIP3    H234599   1.464   5.122  14.561  0.2539 -0.3490  0.5390
 4370TIP3   OH234600   1.571   6.618  13.567 -0.2810  0.2146 -0.0426
 4370TIP3    H134601   1.526   6.666  13.497  0.4609  1.3431  0.2247
 4370TIP3    H234602   1.530   6.532  13.568 -0.1806  0.0978 -2.0189
 4371TIP3   OH234603   1.801   0.209  15.751 -0.0222  0.2409 -0.1719
 4371TIP3    H134604   1.801   0.206  15.847 -0.0211  0.9507 -0.1445
 4371TIP3    H234605   1.721   0.258  15.729  0.3777  0.7462 -0.5063
 4372TIP3   OH234606   3.212   1.389  16.680  0.2161  0.1400 -0.5611
 4372TIP3    H134607   3.276   1.422  16.617  1.5901 -0.4771  0.4665
 4372TIP3    H234608   3.220   1.293  16.674 -0.2377  0.0652 -0.0552
 4373TIP3   OH234609   4.937   5.117   0.169  0.5170  0.0924  0.0097
 4373TIP3    H134610   4.895   5.062   0.235  0.6147 -0.1679 -0.1456
 4373TIP3    H234611   4.895   5.202   0.179 -0.5713 -0.3454 -0.6125
 4374TIP3   OH234612   1.882   5.092   1.124  0.0310  1.0610  0.3515
 4374TIP3    H134613   1.892   5.011   1.074  1.4107  0.8313  0.9504
 4374TIP3    H234614   1.800   5.130   1.091 -1.2319 -1.0824  0.7988
 4375TIP3   OH234615   0.871   2.340   4.855 -0.4105 -0.0813 -0.0406
 4375TIP3    H134616   0.954   2.303   4.886  0.2536  0.5670 -0.9988
 4375TIP3    H234617   0.852   2.292   4.775  0.0119  1.0352 -0.8273
 4376TIP3   OH234618   2.969   3.721  16.169 -0.1503 -0.2699 -0.5344
 4376TIP3    H134619   3.031   3.670  16.117  0.0742  0.0185 -0.5455
 4376TIP3    H234620   2.984   3.812  16.144  0.3052 -0.0705  0.3886
 4377TIP3   OH234621   3.678   6.286   0.464  0.1137 -0.2035 -0.2299
 4377TIP3    H134622   3.744   6.318   0.525 -0.1372 -0.0690 -0.0273
 4377TIP3    H234623   3.627   6.223   0.515 -0.3426  0.1991 -0.1804
 4378TIP3   OH234624   0.474   2.817  15.132 -0.0974  0.7196 -0.0445
 4378TIP3    H134625   0.529   2.739  15.137 -1.9707 -0.5964  1.5099
 4378TIP3    H234626   0.496   2.857  15.048 -0.5817 -2.6529 -1.9359
 4379TIP3   OH234627   1.348   6.230   0.591  0.8099  0.1503 -0.4383
 4379TIP3    H134628   1.362   6.224   0.497  0.9010  1.2826 -0.5107
 4379TIP3    H234629   1.333   6.323   0.608 -2.5658 -0.3435  0.2040
 4380TIP3   OH234630   0.097   1.232  16.053 -0.3158  0.3853  0.4868
 4380TIP3    H134631   0.167   1.296  16.046  1.4091 -1.2276  1.8067
 4380TIP3    H234632   0.142   1.147  16.054 -2.3899 -0.7977  0.0957
 4381TIP3   OH234633   3.578   3.145  13.767  0.8290  0.2705  0.7318
 4381TIP3    H134634   3.496   3.108  13.734  0.7557  0.5806  0.5606
 4381TIP3    H234635   3.644   3.117  13.704  0.7023  0.7922  0.3588
 4382TIP3   OH234636   1.768   3.132   0.183 -0.5208 -0.0593  0.1296
 4382TIP3    H134637   1.716   3.051   0.187 -0.0974 -0.4072 -0.9509
 4382TIP3    H234638   1.859   3.102   0.184 -0.3131  0.5473  2.0048
 4383TIP3   OH234639   4.133   3.220  16.212 -0.0211 -0.1239 -0.1682
 4383TIP3    H134640   4.106   3.301  16.257  0.1319 -0.0434 -0.2210
 4383TIP3    H234641   4.227   3.213  16.231 -0.1114 -0.4948  0.1630
 4384TIP3   OH234642   3.504   4.991  11.186  0.3045 -0.5607  0.3792
 4384TIP3    H134643   3.501   4.989  11.090 -0.0622  0.5282  0.3620
 4384TIP3    H234644   3.417   5.019  11.212  1.5056  3.2809  0.8698
 4385TIP3   OH234645   1.139   2.325   5.948  0.1691  0.5873  0.2652
 4385TIP3    H134646   1.069   2.373   5.903 -1.4786  0.0069  2.0981
 4385TIP3    H234647   1.161   2.253   5.889 -3.5033 -1.4984  1.1485
 4386TIP3   OH234648   2.618   1.441  11.558  0.3635 -0.2220  0.3716
 4386TIP3    H134649   2.680   1.369  11.556  0.8076  0.1154  1.5400
 4386TIP3    H234650   2.671   1.519  11.544  0.0280 -0.0301  0.1432
 4387TIP3   OH234651   5.302   5.515  12.059  0.0066  0.1256  0.2058
 4387TIP3    H134652   5.356   5.579  12.106 -0.5720 -0.4562  1.7327
 4387TIP3    H234653   5.212   5.540  12.080 -0.2358 -0.7596  0.2484
 4388TIP3   OH234654   3.435   2.815  11.973 -0.4353 -0.4128 -0.0178
 4388TIP3    H134655   3.477   2.886  12.020  0.0667 -0.8840  0.2521
 4388TIP3    H234656   3.346   2.811  12.009  0.1874 -1.3190  1.5302
 4389TIP3   OH234657   3.450   4.016  12.959 -0.5637  0.3764  0.1850
 4389TIP3    H134658   3.451   3.920  12.963  0.9911  0.1759 -2.4591
 4389TIP3    H234659   3.539   4.042  12.983 -0.7560  1.1036  0.1472
 4390TIP3   OH234660   5.439   2.012   3.977  0.3913  0.2354 -0.0214
 4390TIP3    H134661   5.402   2.099   3.960 -1.2240 -0.6548 -1.3058
 4390TIP3    H234662   5.432   2.001   4.072  0.0563  1.2637  0.0881
 4391TIP3   OH234663   2.207   3.459  11.212  0.1301  0.8050 -0.2513
 4391TIP3    H134664   2.205   3.552  11.234 -0.9292  1.0140 -1.1612
 4391TIP3    H234665   2.210   3.457  11.116  1.0695 -0.0993 -0.2214
 4392TIP3   OH234666   5.894   1.752  12.240  0.0724 -1.0552 -0.4522
 4392TIP3    H134667   5.844   1.823  12.199  1.1192  1.2120  1.9441
 4392TIP3    H234668   5.828   1.693  12.275 -0.8467 -0.6422 -1.4217
 4393TIP3   OH234669   0.394   2.617   4.425 -0.6422  0.4670  0.0370
 4393TIP3    H134670   0.352   2.700   4.447  0.6205  0.9551  0.6791
 4393TIP3    H234671   0.404   2.572   4.509  1.1879  0.8942  0.0871
 4394TIP3   OH234672   4.362   0.396  11.726  0.3050  0.3812 -0.1460
 4394TIP3    H134673   4.443   0.366  11.768  0.9358  0.6326 -1.1459
 4394TIP3    H234674   4.301   0.407  11.798  1.2660  0.5314  0.6766
 4395TIP3   OH234675   0.492   1.308  14.226 -0.4623  0.4424 -0.0106
 4395TIP3    H134676   0.579   1.283  14.257  0.2491  0.6612 -1.7373
 4395TIP3    H234677   0.440   1.317  14.306  0.8412 -0.5983  1.0081
 4396TIP3   OH234678   0.199   4.066  12.277 -0.1432  0.7088  0.3897
 4396TIP3    H134679   0.221   4.073  12.185 -0.2538 -1.0049  0.1980
 4396TIP3    H234680   0.107   4.092  12.282 -0.6684 -0.9001 -0.3058
 4397TIP3   OH234681   3.758   4.821   2.875  0.3692 -0.1246 -0.1930
 4397TIP3    H134682   3.731   4.869   2.953 -0.7795  2.3784 -1.9993
 4397TIP3    H234683   3.685   4.761   2.858 -0.2597  0.7039 -0.4279
 4398TIP3   OH234684   5.108   3.351   1.878  0.0967  0.1806 -0.0953
 4398TIP3    H134685   5.098   3.291   1.952 -0.9428  0.2999 -0.1282
 4398TIP3    H234686   5.038   3.326   1.818  1.2835 -0.3156 -1.3285
 4399TIP3   OH234687   2.665   0.618   4.369 -0.5191  0.1749  0.0976
 4399TIP3    H134688   2.704   0.705   4.364  0.2976 -0.2072 -0.5730
 4399TIP3    H234689   2.734   0.560   4.337 -1.6478 -0.5327 -1.1911
 4400TIP3   OH234690   5.626   6.507   2.207 -0.1425  0.0025  0.2911
 4400TIP3    H134691   5.572   6.452   2.264  1.8623 -0.8821  1.4357
 4400TIP3    H234692   5.564   6.546   2.145 -1.9113 -1.9057  0.7579
 4401TIP3   OH234693   6.389   4.761  12.759 -0.3531  0.1861  0.3357
 4401TIP3    H134694   6.386   4.769  12.663 -1.2116 -0.2462  0.3100
 4401TIP3    H234695   6.389   4.851  12.791 -1.0739  0.3422 -0.0671
 4402TIP3   OH234696   1.579   6.259   2.176  0.4081 -0.1564  0.0665
 4402TIP3    H134697   1.637   6.334   2.179  0.1528  0.0374  0.3006
 4402TIP3    H234698   1.597   6.211   2.257  0.8444 -0.5605 -0.2633
 4403TIP3   OH234699   0.315   1.544  10.828 -0.0967  0.8037 -0.2161
 4403TIP3    H134700   0.325   1.463  10.878  0.1669  2.3748  2.4459
 4403TIP3    H234701   0.246   1.524  10.764 -0.5660 -1.2725  0.8608
 4404TIP3   OH234702   2.892   1.253   1.628  0.0107  0.1155 -0.4732
 4404TIP3    H134703   2.804   1.289   1.632 -0.7145 -1.6695  2.3331
 4404TIP3    H234704   2.889   1.188   1.558 -0.5037  0.8423 -1.1529
 4405TIP3   OH234705   2.162   0.472   2.185  0.3219  0.3628 -0.9433
 4405TIP3    H134706   2.075   0.460   2.146  0.7364 -0.0426 -1.7718
 4405TIP3    H234707   2.221   0.479   2.110  1.3406 -1.8783 -0.4399
 4406TIP3   OH234708   0.268   5.870   6.655  0.4306 -0.5009 -0.3220
 4406TIP3    H134709   0.353   5.914   6.651 -0.3465  1.3872  1.9936
 4406TIP3    H234710   0.211   5.925   6.602  0.0303 -0.1932  0.4290
 4407TIP3   OH234711   4.884   4.897  13.688 -0.2859  0.0742 -0.2339
 4407TIP3    H134712   4.930   4.814  13.672  1.2037  1.0052 -1.0466
 4407TIP3    H234713   4.882   4.905  13.784 -0.7832 -1.0533 -0.1330
 4408TIP3   OH234714   5.171   5.865   5.052  0.2236  0.1765  0.2685
 4408TIP3    H134715   5.106   5.870   5.122  0.6855 -0.5016  0.7497
 4408TIP3    H234716   5.231   5.937   5.069 -1.9949  2.7213 -1.8470
 4409TIP3   OH234717   5.753   2.981   1.345 -0.8202 -0.7667  0.1673
 4409TIP3    H134718   5.678   2.935   1.307  0.4111 -1.6847 -1.2658
 4409TIP3    H234719   5.807   2.913   1.382  0.8155 -0.5093 -1.5897
 4410TIP3   OH234720   2.407   4.419  16.109  0.0049  0.0083 -0.1526
 4410TIP3    H134721   2.334   4.481  16.109  0.0470  0.0597  0.2332
 4410TIP3    H234722   2.456   4.439  16.029  0.1868  0.6773  0.1161
 4411TIP3   OH234723   4.620   3.212   4.985 -0.0844 -0.5731 -0.0298
 4411TIP3    H134724   4.705   3.255   4.997 -0.0862 -0.8685  1.0936
 4411TIP3    H234725   4.624   3.134   5.040 -1.1339 -0.5234  0.1296
 4412TIP3   OH234726   0.763   3.208  14.985  0.6415  0.9656  0.0610
 4412TIP3    H134727   0.820   3.213  14.908  1.1825  0.6296  0.4273
 4412TIP3    H234728   0.789   3.283  15.039  2.7607 -0.7096  1.5528
 4413TIP3   OH234729   5.750   5.585  15.393  0.4762 -0.5448 -0.2635
 4413TIP3    H134730   5.760   5.591  15.488  1.7030 -0.1740 -0.4003
 4413TIP3    H234731   5.657   5.566  15.380  0.4296 -1.3171  1.0340
 4414TIP3   OH234732   4.509   1.298  15.343  0.4530 -0.2430 -0.0328
 4414TIP3    H134733   4.558   1.264  15.418  1.1367  0.0337 -0.3449
 4414TIP3    H234734   4.456   1.369  15.379 -0.5207 -1.2170  0.5073
 4415TIP3   OH234735   2.370   2.462  10.812 -0.5426 -0.1623 -0.0304
 4415TIP3    H134736   2.318   2.540  10.791  2.0231  1.6106 -0.3232
 4415TIP3    H234737   2.371   2.412  10.731 -1.6088 -0.1683 -0.0622
 4416TIP3   OH234738   3.732   4.407   5.843  0.3634  0.3307 -0.2079
 4416TIP3    H134739   3.641   4.382   5.830 -0.3073  2.3662  0.2313
 4416TIP3    H234740   3.758   4.367   5.925  0.2323 -1.1338 -0.8525
 4417TIP3   OH234741   3.334   2.072   4.040  0.3276 -0.0010 -0.3819
 4417TIP3    H134742   3.413   2.114   4.007 -0.6435  0.4940 -2.2352
 4417TIP3    H234743   3.338   1.983   4.007 -0.7196  0.5366 -2.1130
 4418TIP3   OH234744   0.803   0.966   2.344  0.5885  0.3046 -0.0243
 4418TIP3    H134745   0.794   1.060   2.355  0.1518  0.2302  0.3074
 4418TIP3    H234746   0.714   0.932   2.355  0.6858 -0.1146 -0.4816
 4419TIP3   OH234747   2.443   1.649   4.968 -0.4008  0.2574 -0.6161
 4419TIP3    H134748   2.439   1.565   4.921 -1.8804 -0.8003  1.2090
 4419TIP3    H234749   2.372   1.701   4.930 -2.4423 -1.0699  1.1204
 4420TIP3   OH234750   6.626   4.981  13.257  0.0539 -0.0743  0.1629
 4420TIP3    H134751   6.594   4.902  13.214 -0.2101  0.8035 -1.3158
 4420TIP3    H234752   6.721   4.970  13.262 -0.0245 -0.6637  0.3585
 4421TIP3   OH234753   1.282   6.773   0.232 -0.6113 -0.0977 -0.1327
 4421TIP3    H134754   1.193   6.804   0.212 -0.6494 -1.0185 -1.5107
 4421TIP3    H234755   1.295   6.698   0.174  1.0390 -0.0329  0.1091
 4422TIP3   OH234756   5.429   5.659  14.818  0.7632 -0.4084  0.1850
 4422TIP3    H134757   5.472   5.664  14.732  1.3546 -0.2367  0.4832
 4422TIP3    H234758   5.338   5.683  14.801  0.9313 -0.1431 -0.3518
 4423TIP3   OH234759   5.895   2.646  15.096 -0.1567 -0.1529  0.1491
 4423TIP3    H134760   5.904   2.739  15.075 -2.0181  0.3946  1.4361
 4423TIP3    H234761   5.966   2.628  15.158  0.5671  0.2459 -0.5563
 4424TIP3   OH234762   4.514   1.712   2.627  0.0815 -0.7880  0.3814
 4424TIP3    H134763   4.516   1.744   2.717 -1.7356  1.7755 -0.3755
 4424TIP3    H234764   4.438   1.654   2.623 -0.8078  0.3645  0.1669
 4425TIP3   OH234765   2.250   1.417  16.009  0.5911  0.3923  0.0212
 4425TIP3    H134766   2.277   1.355  15.941  0.7536 -1.6344  1.8166
 4425TIP3    H234767   2.159   1.394  16.027  0.0659  1.9268 -0.5191
 4426TIP3   OH234768   3.780   5.896   0.486 -0.0926 -0.6595  0.1045
 4426TIP3    H134769   3.809   5.811   0.452 -1.4837 -0.0645 -2.9075
 4426TIP3    H234770   3.844   5.958   0.453 -0.9429 -0.1573 -0.6168
 4427TIP3   OH234771   4.652   3.406   3.161 -0.6031 -0.1186 -0.1953
 4427TIP3    H134772   4.682   3.465   3.092  0.2068 -0.1146  0.1460
 4427TIP3    H234773   4.731   3.360   3.189 -1.2819 -1.7051 -0.7687
 4428TIP3   OH234774   3.550   3.206  16.085  0.1009  0.5303  0.2364
 4428TIP3    H134775   3.607   3.179  16.157  0.6502 -1.5010 -0.9057
 4428TIP3    H234776   3.462   3.183  16.115  0.3434 -0.4828  0.2068
 4429TIP3   OH234777   1.143   0.841  15.672  0.2297 -0.5225 -0.1205
 4429TIP3    H134778   1.211   0.791  15.625  0.7814  0.4463 -0.3791
 4429TIP3    H234779   1.137   0.923  15.624 -0.0449  0.0103  0.8139
 4430TIP3   OH234780   6.263   1.038  10.375 -0.9876 -0.0175 -0.4997
 4430TIP3    H134781   6.242   1.112  10.432  0.8694 -0.1521  0.4074
 4430TIP3    H234782   6.303   1.079  10.298  0.3753 -0.0696  0.1606
 4431TIP3   OH234783   3.850   1.268   6.342 -0.0166 -0.6158 -0.8096
 4431TIP3    H134784   3.760   1.249   6.366  0.2308 -0.0962  0.6200
 4431TIP3    H234785   3.843   1.339   6.278 -0.5879  0.7286  0.6679
 4432TIP3   OH234786   2.192   6.752   3.786  0.0979 -0.4704  0.1889
 4432TIP3    H134787   2.231   6.723   3.868  1.3130 -1.0190 -0.5665
 4432TIP3    H234788   2.122   6.689   3.769  0.0346 -0.5252  0.6379
 4433TIP3   OH234789   2.952   3.815  12.585 -0.4665 -0.3179 -0.3815
 4433TIP3    H134790   2.980   3.867  12.659  0.1826 -1.1801 -0.0056
 4433TIP3    H234791   2.886   3.869  12.541 -1.3259 -0.0516  1.1676
 4434TIP3   OH234792   2.962   2.395  16.574 -0.1947 -0.0488 -0.2929
 4434TIP3    H134793   2.906   2.360  16.644 -0.2175  0.5087 -0.0307
 4434TIP3    H234794   2.904   2.400  16.498 -1.0694  2.3260  0.4510
 4435TIP3   OH234795   4.316   3.192   4.285 -0.1811  0.0117 -0.3216
 4435TIP3    H134796   4.391   3.251   4.275 -1.5501  1.8861 -0.1417
 4435TIP3    H234797   4.312   3.144   4.202  1.8938 -1.0329  0.1218
 4436TIP3   OH234798   1.558   3.072   3.317  0.0873 -0.1590  0.3745
 4436TIP3    H134799   1.476   3.031   3.343 -0.5871  0.6912 -0.3400
 4436TIP3    H234800   1.626   3.011   3.347 -0.7625 -0.5863  1.5149
 4437TIP3   OH234801   6.283   1.530   4.643  0.0277 -0.0575  0.4089
 4437TIP3    H134802   6.208   1.590   4.640  0.7962  0.9588  0.7891
 4437TIP3    H234803   6.353   1.577   4.596  0.9702 -0.1779  1.6546
 4438TIP3   OH234804   2.336   0.812  13.947 -0.2790 -0.0876 -0.4726
 4438TIP3    H134805   2.242   0.818  13.929 -0.3785  0.1976  0.1195
 4438TIP3    H234806   2.378   0.836  13.864 -0.7242  0.7967 -0.4578
 4439TIP3   OH234807   3.607   0.606  14.176  0.3713 -0.2918 -0.4000
 4439TIP3    H134808   3.571   0.620  14.264  0.4567  1.1106 -0.5559
 4439TIP3    H234809   3.625   0.695  14.144  2.6541 -0.8555 -0.8728
 4440TIP3   OH234810   1.736   0.721   0.997  0.1530 -0.1867 -0.1756
 4440TIP3    H134811   1.774   0.696   1.081  0.0554  2.3334  0.6967
 4440TIP3    H234812   1.770   0.809   0.980 -1.2254  0.0804 -1.8903
 4441TIP3   OH234813   1.252   6.020   4.427 -0.0408  0.7141 -0.3785
 4441TIP3    H134814   1.219   5.978   4.348 -0.3322 -1.3562  0.7917
 4441TIP3    H234815   1.207   6.105   4.429 -2.6105 -0.5440 -0.7215
 4442TIP3   OH234816   6.426   5.393   3.068  1.1378 -0.2538 -0.5183
 4442TIP3    H134817   6.368   5.431   3.133 -0.9312 -1.6944 -1.4159
 4442TIP3    H234818   6.434   5.460   3.000 -3.2060 -1.4528 -2.5364
 4443TIP3   OH234819   3.122   0.406  12.194 -0.1318  0.2957  0.0047
 4443TIP3    H134820   3.171   0.324  12.200  0.8436  0.9339  1.1822
 4443TIP3    H234821   3.069   0.396  12.115  0.4658 -1.1945 -0.2468
 4444TIP3   OH234822   2.492   5.575  14.099  0.0431 -0.3720 -0.6252
 4444TIP3    H134823   2.580   5.539  14.086 -0.3789 -1.6813  0.0900
 4444TIP3    H234824   2.476   5.569  14.193 -1.7845 -2.5802 -0.9761
 4445TIP3   OH234825   1.940   0.597   2.908 -0.2200 -0.0121 -0.1255
 4445TIP3    H134826   2.025   0.554   2.904 -0.8768 -1.4826  0.8904
 4445TIP3    H234827   1.879   0.528   2.937 -1.2015  1.7660  2.3415
 4446TIP3   OH234828   3.526   3.459  16.582  0.1275  0.4300 -0.2686
 4446TIP3    H134829   3.458   3.403  16.546  0.5943 -0.0197 -0.4643
 4446TIP3    H234830   3.598   3.400  16.601  0.5459  0.9351 -0.2613
 4447TIP3   OH234831   1.186   6.491  15.330 -0.5364 -0.1114 -0.3936
 4447TIP3    H134832   1.130   6.497  15.252  1.2933 -0.9766 -1.8503
 4447TIP3    H234833   1.256   6.555  15.314 -0.2488 -0.1542  0.6445
 4448TIP3   OH234834   1.038   0.666  14.932 -0.3224  0.3709  0.4602
 4448TIP3    H134835   1.061   0.573  14.934 -3.1727 -0.4137  1.9747
 4448TIP3    H234836   1.123   0.711  14.936  1.1784 -2.0986 -0.9049
 4449TIP3   OH234837   1.576   6.796  15.778  0.2663 -0.0629 -0.0291
 4449TIP3    H134838   1.504   6.844  15.736 -0.6221 -0.6796  0.7360
 4449TIP3    H234839   1.647   6.799  15.714 -0.3039  0.9025 -0.6467
 4450TIP3   OH234840   0.903   4.390  16.333  0.0630 -0.6349  0.3323
 4450TIP3    H134841   0.863   4.332  16.269 -1.4847  0.0444  0.6288
 4450TIP3    H234842   0.859   4.369  16.416  0.3308  0.1432  0.6822
 4451TIP3   OH234843   3.987   6.061   4.145  0.6997 -0.0868  0.3754
 4451TIP3    H134844   3.953   6.063   4.056  0.5084  0.5736  0.4580
 4451TIP3    H234845   3.909   6.063   4.200  0.6974 -2.6718  0.5882
 4452TIP3   OH234846   3.034   2.985  12.653 -0.1170 -0.7386  0.2508
 4452TIP3    H134847   3.113   2.993  12.599  0.9378 -0.9957  1.6875
 4452TIP3    H234848   3.022   3.073  12.690  0.8909 -1.2261  1.8427
 4453TIP3   OH234849   2.129   5.182  16.576 -0.3192 -0.0816 -0.0899
 4453TIP3    H134850   2.109   5.108  16.519 -0.5982  0.3982 -0.6209
 4453TIP3    H234851   2.219   5.166  16.606 -0.9356 -1.4795  1.1096
 4454TIP3   OH234852   4.794   1.939   0.032 -0.2252  0.0087  0.1377
 4454TIP3    H134853   4.866   1.889   0.070  0.3944  0.0722 -0.9130
 4454TIP3    H234854   4.783   2.013   0.092  0.4863 -0.0847  0.3971
 4455TIP3   OH234855   0.615   4.532  13.721  0.1713 -0.3701 -0.2919
 4455TIP3    H134856   0.568   4.557  13.641 -0.5777 -0.2383  0.1819
 4455TIP3    H234857   0.549   4.489  13.775  0.1841  1.1852  1.0393
 4456TIP3   OH234858   0.210   3.099   5.430 -0.2037  0.9601  0.3819
 4456TIP3    H134859   0.121   3.135   5.431 -0.5035  0.2378  0.7032
 4456TIP3    H234860   0.209   3.031   5.497  0.2569  0.1651 -0.3968
 4457TIP3   OH234861   2.278   2.905   3.836  0.2321 -0.0129  0.4188
 4457TIP3    H134862   2.274   2.994   3.802 -3.5113  0.5174  1.8209
 4457TIP3    H234863   2.352   2.907   3.898 -1.5420  3.1514  2.7336
 4458TIP3   OH234864   1.996   3.234   4.608  0.4650 -0.6233 -0.4589
 4458TIP3    H134865   1.904   3.207   4.614  0.3439  0.0958  1.6649
 4458TIP3    H234866   2.016   3.269   4.694  2.1678  1.1021 -1.4975
 4459TIP3   OH234867   5.544   6.478   3.801 -0.0039  0.0502 -0.5578
 4459TIP3    H134868   5.454   6.458   3.828 -0.0241 -0.6921 -1.1473
 4459TIP3    H234869   5.586   6.510   3.881 -0.4164 -0.8988  0.0610
 4460TIP3   OH234870   6.409   1.622   5.412 -0.5808  0.0563  0.3440
 4460TIP3    H134871   6.480   1.581   5.363 -0.5612  0.5090 -0.0037
 4460TIP3    H234872   6.349   1.549   5.433 -0.5960 -0.1352 -0.3558
 4461TIP3   OH234873   3.063   3.655   5.945  0.5666  0.3391  0.5352
 4461TIP3    H134874   3.078   3.566   5.976  0.8350  0.7099  1.4831
 4461TIP3    H234875   3.108   3.711   6.008  2.0813  1.0835 -1.1045
 4462TIP3   OH234876   4.667   5.267  12.021  0.2287  0.1323  0.0948
 4462TIP3    H134877   4.643   5.212  12.095 -3.1323  2.2571  0.8355
 4462TIP3    H234878   4.758   5.290  12.035  0.7141 -2.3575  1.5685
 4463TIP3   OH234879   3.911   2.552  12.518 -0.4465  0.0860  0.3460
 4463TIP3    H134880   3.981   2.549  12.453 -0.5535 -1.7385  0.2870
 4463TIP3    H234881   3.832   2.573  12.467 -0.7381 -2.4409 -0.3571
 4464TIP3   OH234882   6.160   5.190   1.508 -0.1526 -0.6066 -0.2735
 4464TIP3    H134883   6.093   5.257   1.501  0.6140  0.2231  0.0682
 4464TIP3    H234884   6.239   5.238   1.533  0.1136 -1.8062  1.3226
 4465TIP3   OH234885   6.732   1.129  15.113  0.5484  0.2108  0.6755
 4465TIP3    H134886   6.683   1.191  15.167  0.8383 -0.2801  1.5294
 4465TIP3    H234887   6.769   1.183  15.043  0.7658  1.0157  1.3800
 4466TIP3   OH234888   3.811   5.703   3.184 -0.2039  0.2251  0.2023
 4466TIP3    H134889   3.796   5.687   3.277  1.0532 -0.1892  0.3548
 4466TIP3    H234890   3.902   5.733   3.179  0.5799 -2.0622 -1.1165
 4467TIP3   OH234891   5.612   1.824   0.790 -0.4874 -0.3169 -0.2172
 4467TIP3    H134892   5.652   1.873   0.718  0.2969 -0.8397 -0.1476
 4467TIP3    H234893   5.572   1.892   0.845 -1.1831  0.0819 -1.1810
 4468TIP3   OH234894   2.420   4.761  16.645  0.3807  0.5992  0.7628
 4468TIP3    H134895   2.437   4.671  16.619  1.3220 -0.4170  4.3118
 4468TIP3    H234896   2.330   4.759  16.678 -0.2284  1.4478 -0.7594
 4469TIP3   OH234897   1.724   4.324   5.039 -0.2559 -0.1302 -0.1721
 4469TIP3    H134898   1.679   4.297   4.958 -1.3178  0.4523  0.2056
 4469TIP3    H234899   1.713   4.419   5.042  0.4928 -0.0519  0.2458
 4470TIP3   OH234900   0.591   1.516  13.541 -0.1948 -0.3117  0.3829
 4470TIP3    H134901   0.530   1.499  13.613 -0.1162  0.2975  0.6016
 4470TIP3    H234902   0.610   1.430  13.504  1.5368 -0.9569  2.5268
 4471TIP3   OH234903   0.315   1.123  11.853 -0.2430 -0.0170 -0.0105
 4471TIP3    H134904   0.318   1.073  11.935 -0.4098 -0.3791 -0.2236
 4471TIP3    H234905   0.319   1.214  11.881  0.4894 -0.1553  0.3633
 4472TIP3   OH234906   3.361   3.489  15.735  0.2986  0.7606 -0.3187
 4472TIP3    H134907   3.401   3.432  15.800 -1.4337  0.3942  0.4742
 4472TIP3    H234908   3.366   3.577  15.773  0.1354  0.6806 -0.1123
 4473TIP3   OH234909   5.195   5.485  11.203  0.5111 -0.0236 -0.1413
 4473TIP3    H134910   5.103   5.486  11.233  0.1257 -1.9692 -1.1394
 4473TIP3    H234911   5.243   5.527  11.275 -1.0789  0.5524  0.6486
 4474TIP3   OH234912   1.335   6.295  13.774  0.1037 -0.0747  0.8211
 4474TIP3    H134913   1.244   6.272  13.793  1.3323 -4.5897  2.6985
 4474TIP3    H234914   1.369   6.329  13.857  0.2179  1.5925  0.1283
 4475TIP3   OH234915   6.334   2.272   1.517 -0.4406  0.1686 -0.1804
 4475TIP3    H134916   6.375   2.340   1.465 -3.8246  0.5201 -2.7507
 4475TIP3    H234917   6.252   2.312   1.548 -1.0904 -1.7787  0.7846
 4476TIP3   OH234918   0.217   6.061  13.244  0.3497  0.2321  0.2535
 4476TIP3    H134919   0.246   6.143  13.285 -0.5381  0.3686  0.6362
 4476TIP3    H234920   0.238   6.072  13.152  2.1380  0.0362  0.6081
 4477TIP3   OH234921   1.248   4.701  13.037  0.5551 -0.5994  0.2469
 4477TIP3    H134922   1.343   4.694  13.042  0.4711 -1.6546  0.5994
 4477TIP3    H234923   1.226   4.673  12.948  0.6260  0.5070 -0.1385
 4478TIP3   OH234924   5.238   2.951  12.634 -0.0660  0.6985  0.3682
 4478TIP3    H134925   5.192   3.018  12.686 -1.1973  0.3301 -0.1181
 4478TIP3    H234926   5.220   2.975  12.543 -2.4955 -1.5046  0.1404
 4479TIP3   OH234927   1.359   2.423   3.694  0.1913  0.3596  0.2490
 4479TIP3    H134928   1.347   2.329   3.679 -0.3559  0.5585 -0.5998
 4479TIP3    H234929   1.356   2.432   3.790 -0.8957 -0.3475  0.2936
 4480TIP3   OH234930   1.676   5.017   0.794 -0.5854  0.4511 -0.5760
 4480TIP3    H134931   1.725   5.021   0.711 -0.8420 -0.0114 -0.7484
 4480TIP3    H234932   1.722   4.951   0.846 -1.6267 -0.7591 -1.1372
 4481TIP3   OH234933   6.479   2.036  13.602 -0.4329  0.2266 -0.2581
 4481TIP3    H134934   6.420   2.019  13.676 -0.6840 -1.1457 -0.7407
 4481TIP3    H234935   6.436   1.994  13.528  2.5448 -3.6828 -0.0679
 4482TIP3   OH234936   2.701   6.101  14.750 -0.1095 -0.2697  0.2585
 4482TIP3    H134937   2.688   6.056  14.834 -0.8245 -0.8506 -0.1618
 4482TIP3    H234938   2.706   6.193  14.774 -1.5930 -0.3131  0.8097
 4483TIP3   OH234939   0.016   5.896   0.449 -0.4419 -0.0707  0.0511
 4483TIP3    H134940   0.075   5.971   0.440 -1.3303  0.4077 -4.0165
 4483TIP3    H234941   0.068   5.821   0.418 -0.8515 -0.3348 -0.0077
 4484TIP3   OH234942   3.977   4.626   2.873  0.2316  0.4256 -0.2582
 4484TIP3    H134943   3.923   4.550   2.851  0.2423  0.0792  0.8260
 4484TIP3    H234944   3.917   4.700   2.869 -0.1308  0.1572  0.0845
 4485TIP3   OH234945   3.424   3.752   2.639  0.2155  0.0212 -0.4978
 4485TIP3    H134946   3.406   3.828   2.694 -0.0782  1.3228 -2.2897
 4485TIP3    H234947   3.343   3.701   2.640  0.1714  0.0998  0.1426
 4486TIP3   OH234948   0.735   5.115   5.514 -0.5500 -0.0619  0.1597
 4486TIP3    H134949   0.726   5.183   5.581  0.8776 -1.5212  1.9398
 4486TIP3    H234950   0.648   5.077   5.506 -0.9822  0.8561  0.3576
 4487TIP3   OH234951   1.030   1.243  15.352 -0.3434  0.3962 -1.0218
 4487TIP3    H134952   0.945   1.261  15.313 -0.0039  0.6708 -1.6565
 4487TIP3    H234953   1.079   1.197  15.283  0.0280  0.2569 -0.6721
 4488TIP3   OH234954   4.303   0.656   4.451  0.0103  0.0266 -0.3430
 4488TIP3    H134955   4.372   0.621   4.394  0.3930 -2.3499  1.4017
 4488TIP3    H234956   4.240   0.695   4.391  2.3136  1.3466 -2.0739
 4489TIP3   OH234957   1.691   1.813   4.634  0.0213 -0.2207  0.2274
 4489TIP3    H134958   1.742   1.893   4.645 -0.6026  0.2602 -0.2950
 4489TIP3    H234959   1.615   1.839   4.581  1.3704 -1.7982 -2.7168
 4490TIP3   OH234960   6.402   2.733  14.908 -0.3566 -0.6602  0.3374
 4490TIP3    H134961   6.486   2.762  14.944 -0.6189  0.0309  0.4020
 4490TIP3    H234962   6.382   2.652  14.956 -0.9517  0.5128  2.1513
 4491TIP3   OH234963   5.531   2.646   1.090  0.1499  0.6923 -0.8475
 4491TIP3    H134964   5.595   2.654   1.019 -1.0193  1.5576 -1.8553
 4491TIP3    H234965   5.447   2.640   1.045 -0.5142 -0.0399  0.4593
 4492TIP3   OH234966   5.777   4.650   3.826 -0.6447 -0.1781  0.0464
 4492TIP3    H134967   5.807   4.714   3.891  0.2763  0.4053 -0.9232
 4492TIP3    H234968   5.810   4.566   3.858 -0.4850  0.0576  0.5019
 4493TIP3   OH234969   1.368   4.170  13.399 -0.0164 -0.5500 -0.5254
 4493TIP3    H134970   1.272   4.166  13.403 -0.0595  0.9353  1.7662
 4493TIP3    H234971   1.386   4.217  13.317 -1.3960  1.1554  0.0753
 4494TIP3   OH234972   3.256   3.051   6.252 -0.1485  0.1462  0.6722
 4494TIP3    H134973   3.188   3.118   6.241 -0.3524 -0.1646 -0.0507
 4494TIP3    H234974   3.239   3.013   6.338 -0.8564  0.1192  0.5292
 4495TIP3   OH234975   5.840   2.500   4.169 -0.2612 -0.0885  0.1536
 4495TIP3    H134976   5.929   2.478   4.144 -0.6510 -0.1380 -1.2698
 4495TIP3    H234977   5.789   2.491   4.088 -1.7923 -1.2502  1.1882
 4496TIP3   OH234978   4.766   5.474   3.007  0.3589  0.1869 -0.2450
 4496TIP3    H134979   4.741   5.438   2.922 -0.2360 -0.6468  0.2641
 4496TIP3    H234980   4.837   5.417   3.037  0.1242  0.0717  0.1015
 4497TIP3   OH234981   1.067   6.483  14.131 -0.0387  0.5303  0.0405
 4497TIP3    H134982   1.007   6.493  14.205 -0.0568  0.9914 -0.0350
 4497TIP3    H234983   1.067   6.568  14.088  0.0315  0.2892 -0.4491
 4498TIP3   OH234984   5.126   2.108  14.089  0.2264  0.1504  0.4095
 4498TIP3    H134985   5.149   2.027  14.043  0.3727  0.0160  0.7159
 4498TIP3    H234986   5.131   2.175  14.022 -0.5481 -0.1927  0.0052
 4499TIP3   OH234987   6.682   0.822   4.256 -0.5168  0.4310 -0.5294
 4499TIP3    H134988   6.736   0.791   4.183  0.0879  1.7606 -0.6950
 4499TIP3    H234989   6.654   0.910   4.228 -0.9662  0.6183  0.4860
 4500TIP3   OH234990   0.547   3.934   2.665  0.3674  0.5429  0.1391
 4500TIP3    H134991   0.569   3.861   2.608  0.3412 -1.4662  2.5674
 4500TIP3    H234992   0.453   3.948   2.650  0.0626 -0.8457  0.6230
 4501TIP3   OH234993   0.014   4.301   3.869 -0.0360  0.4554 -0.9633
 4501TIP3    H134994  -0.068   4.334   3.833  0.1105 -0.1025 -1.8316
 4501TIP3    H234995   0.076   4.307   3.796  0.8947  1.5519 -0.1244
 4502TIP3   OH234996   2.088   5.328  15.127 -0.6476 -0.0943 -0.3435
 4502TIP3    H134997   2.101   5.423  15.126 -1.4866  0.0244 -0.2788
 4502TIP3    H234998   2.153   5.295  15.065 -0.9362  0.5934 -1.0247
 4503TIP3   OH234999   4.563   5.010   6.095 -0.2992  0.6017 -0.0346
 4503TIP3    H135000   4.646   4.978   6.059  0.3103  0.5421  1.3308
 4503TIP3    H235001   4.571   4.995   6.189 -1.5184  1.3984  0.2204
 4504TIP3   OH235002   6.030   5.073  16.290  0.2345 -0.5332  0.2244
 4504TIP3    H135003   6.097   5.018  16.330 -0.9983 -0.8115  2.0258
 4504TIP3    H235004   5.995   5.020  16.218 -0.8992 -2.1681  1.8915
 4505TIP3   OH235005   4.130   4.084   0.524 -0.7484 -0.1871  0.7550
 4505TIP3    H135006   4.194   4.045   0.584  1.5137 -0.3005 -1.5536
 4505TIP3    H235007   4.181   4.147   0.473 -1.9556 -1.6119 -2.4748
 4506TIP3   OH235008   5.470   4.340  13.609 -0.3633  0.4243 -0.4607
 4506TIP3    H135009   5.538   4.309  13.549 -0.8961 -0.0438 -0.8242
 4506TIP3    H235010   5.423   4.407  13.559 -0.9324 -0.1049 -0.6470
 4507TIP3   OH235011   5.224   6.372   5.106 -0.0948 -0.6406 -0.0157
 4507TIP3    H135012   5.191   6.438   5.167 -0.1371  0.0018 -0.7315
 4507TIP3    H235013   5.202   6.405   5.019  0.1970 -1.4253 -0.3972
 4508TIP3   OH235014   3.291   0.936  11.085  0.2183  0.2447  0.5267
 4508TIP3    H135015   3.246   0.984  11.154  1.1492  0.9121  0.6868
 4508TIP3    H235016   3.239   0.953  11.006 -0.8971 -0.5885  1.0479
 4509TIP3   OH235017   3.823   5.533   2.937  0.0132  0.1800  0.1343
 4509TIP3    H135018   3.834   5.577   3.021 -0.8519  1.8081 -0.5692
 4509TIP3    H235019   3.905   5.549   2.891  0.8567 -1.4880  0.9535
 4510TIP3   OH235020   6.132   4.089   0.765  0.1248  0.1869 -0.2872
 4510TIP3    H135021   6.161   4.177   0.786  0.7761 -0.2800  0.8533
 4510TIP3    H235022   6.192   4.031   0.812  0.3730 -0.9074 -1.8432
 4511TIP3   OH235023   1.849   1.210   6.124 -0.1539 -0.2322 -0.4205
 4511TIP3    H135024   1.843   1.131   6.071 -0.2795  0.7100 -1.8612
 4511TIP3    H235025   1.922   1.259   6.086 -1.3720  1.2910 -0.8806
 4512TIP3   OH235026   5.531   2.986   3.297 -0.2147  0.1067 -0.6937
 4512TIP3    H135027   5.470   2.919   3.265  1.9517 -1.9504 -0.7771
 4512TIP3    H235028   5.602   2.988   3.233  1.4066  0.0330  1.0082
 4513TIP3   OH235029   2.303   5.831   1.764 -0.0840 -0.3861  0.2546
 4513TIP3    H135030   2.326   5.770   1.694 -0.4455 -1.1099  0.7406
 4513TIP3    H235031   2.306   5.917   1.724 -1.7080 -0.8771 -1.0523
 4514TIP3   OH235032   6.783   4.372   3.549 -1.0050 -0.4520  0.0069
 4514TIP3    H135033   6.718   4.314   3.510 -1.3358 -0.5888  0.7364
 4514TIP3    H235034   6.732   4.440   3.593 -0.6726 -0.6985  0.7925
 4515TIP3   OH235035   5.462   4.212   2.362 -0.0925  0.0162  0.1273
 4515TIP3    H135036   5.536   4.269   2.382 -0.9821  0.9043  0.9666
 4515TIP3    H235037   5.388   4.272   2.349 -0.6915 -0.8577 -0.6401
 4516TIP3   OH235038   5.479   0.839   0.754 -0.0728 -0.1368 -0.4183
 4516TIP3    H135039   5.572   0.822   0.768 -0.2804 -1.8263 -0.8923
 4516TIP3    H235040   5.476   0.924   0.710  1.4530 -1.2680 -2.8899
 4517TIP3   OH235041   1.617   3.741   4.246  0.4067 -0.2932  0.0723
 4517TIP3    H135042   1.572   3.776   4.170  0.9619 -1.3047 -0.7409
 4517TIP3    H235043   1.649   3.655   4.218  0.3657 -0.8161  1.5336
 4518TIP3   OH235044   1.825   2.840  13.531 -0.4453 -0.0178  0.1044
 4518TIP3    H135045   1.735   2.866  13.513 -0.7776  0.1956  1.8831
 4518TIP3    H235046   1.866   2.918  13.568  0.2737 -0.3095 -0.0502
 4519TIP3   OH235047   0.599   4.833   4.941 -0.1972  0.1708 -0.0369
 4519TIP3    H135048   0.543   4.889   4.888 -0.7413 -0.2351  0.1054
 4519TIP3    H235049   0.603   4.877   5.026 -0.3599  0.1629 -0.0244
 4520TIP3   OH235050   1.984   1.110   1.868  0.2522  0.0412 -0.5640
 4520TIP3    H135051   1.904   1.129   1.819 -0.5485 -0.4134  0.5145
 4520TIP3    H235052   2.026   1.195   1.880 -1.5383  0.7521  1.2711
 4521TIP3   OH235053   5.685   1.012  13.689  0.2285  0.0074  0.0706
 4521TIP3    H135054   5.730   1.033  13.771 -1.5971 -1.6841  1.5831
 4521TIP3    H235055   5.615   0.952  13.714 -1.0850  0.2909 -2.6006
 4522TIP3   OH235056   5.064   1.355   1.098 -0.5926 -0.0902  0.5557
 4522TIP3    H135057   5.139   1.413   1.108 -0.5957 -0.1407  0.8762
 4522TIP3    H235058   4.991   1.403   1.137 -0.7227 -0.0489  0.2613
 4523TIP3   OH235059   0.438   3.906   5.113  0.0647 -0.1345  0.1549
 4523TIP3    H135060   0.365   3.862   5.070 -0.2033  1.1511 -0.7578
 4523TIP3    H235061   0.402   3.989   5.144  1.1398  0.5560 -0.3854
 4524TIP3   OH235062   1.573   2.233  16.266  0.3811 -0.2790  0.3630
 4524TIP3    H135063   1.610   2.317  16.237 -2.4743  1.0870  0.3008
 4524TIP3    H235064   1.480   2.251  16.277 -0.3620 -3.5088  0.2872
 4525TIP3   OH235065   3.993   4.849  16.564  0.1465 -0.5195  0.1805
 4525TIP3    H135066   4.017   4.803  16.483  1.2001 -0.5920  0.5159
 4525TIP3    H235067   4.033   4.797  16.633  0.4619  0.3131  0.6419
 4526TIP3   OH235068   6.203   6.059   1.474 -0.0099  0.2156  0.2823
 4526TIP3    H135069   6.109   6.060   1.455  0.2215  0.5029 -0.9064
 4526TIP3    H235070   6.244   6.101   1.398  1.0243  0.8480  1.1605
 4527TIP3   OH235071   2.362   3.119   2.337 -0.5296 -0.4629 -0.0267
 4527TIP3    H135072   2.392   3.079   2.255 -0.5273  0.9571 -0.7643
 4527TIP3    H235073   2.290   3.176   2.310  0.3473  1.0680  0.7270
 4528TIP3   OH235074   2.406   1.451   4.777 -0.3018  0.7648  0.4165
 4528TIP3    H135075   2.457   1.371   4.781  0.8992  1.4484 -0.5984
 4528TIP3    H235076   2.372   1.454   4.688 -0.9823  1.0229  0.6713
 4529TIP3   OH235077   0.128   0.355   0.732  0.1330 -0.1514  0.5777
 4529TIP3    H135078   0.208   0.360   0.679 -0.5298  1.9212 -0.3115
 4529TIP3    H235079   0.087   0.273   0.705  1.6803 -0.9983  0.6703
 4530TIP3   OH235080   4.297   5.102  15.959  0.2520  0.1197 -0.3837
 4530TIP3    H135081   4.255   5.017  15.967  1.7777 -0.6242  0.1013
 4530TIP3    H235082   4.249   5.146  15.888 -1.7114 -0.3960  0.5666
 4531TIP3   OH235083   5.784   5.031   2.154 -0.0100  0.4545  0.5145
 4531TIP3    H135084   5.791   5.065   2.065  0.0150  0.1357  0.3936
 4531TIP3    H235085   5.799   4.937   2.145  0.0717  0.4327  0.8661
 4532TIP3   OH235086   4.321   1.113  14.342  0.2039  0.5487 -0.0737
 4532TIP3    H135087   4.329   1.182  14.408  1.3421  0.8002 -0.4631
 4532TIP3    H235088   4.277   1.155  14.268 -0.1782  0.5313  0.1413
 4533TIP3   OH235089   5.654   1.920  13.199 -0.0410  0.4132  0.4438
 4533TIP3    H135090   5.703   1.849  13.240 -0.9029  0.1622  1.0740
 4533TIP3    H235091   5.597   1.953  13.269 -2.3900 -0.7760 -0.7926
 4534TIP3   OH235092   2.968   0.808   5.818 -0.0217 -0.1744 -0.7598
 4534TIP3    H135093   2.907   0.773   5.753  0.1115 -1.0303 -0.4375
 4534TIP3    H235094   3.017   0.876   5.771 -1.6182  0.9654 -0.8654
 4535TIP3   OH235095   5.188   0.224  13.346  0.2738  0.6626 -0.5069
 4535TIP3    H135096   5.283   0.234  13.340  0.1565  1.4895 -1.1802
 4535TIP3    H235097   5.160   0.291  13.408  0.3666 -1.2258  1.7188
 4536TIP3   OH235098   3.066   1.768   6.393 -0.2165  0.3366  0.0517
 4536TIP3    H135099   3.065   1.859   6.421 -1.7318 -0.2033  2.0177
 4536TIP3    H235100   3.149   1.734   6.425 -0.4136  0.6245  0.9168
 4537TIP3   OH235101   2.191   6.430  14.550 -0.2227 -0.5268 -0.1909
 4537TIP3    H135102   2.255   6.490  14.514  0.4309 -2.3751 -2.2756
 4537TIP3    H235103   2.137   6.404  14.476 -2.2717 -0.4395  1.1661
 4538TIP3   OH235104   4.844   1.252  12.745  0.6843 -0.2966  0.2238
 4538TIP3    H135105   4.785   1.239  12.820 -1.0148 -1.4613 -1.2176
 4538TIP3    H235106   4.785   1.265  12.671  2.3122  2.4239 -0.7264
 4539TIP3   OH235107   5.567   0.454  16.520 -0.2426 -0.0300 -0.2544
 4539TIP3    H135108   5.658   0.438  16.497 -0.2376  1.4114 -1.3826
 4539TIP3    H235109   5.517   0.395  16.464 -0.0322 -0.4815  0.0250
 4540TIP3   OH235110   1.986   3.795  16.448  0.5295  0.2504 -0.1986
 4540TIP3    H135111   1.938   3.728  16.399 -0.9946  1.1207  0.0341
 4540TIP3    H235112   1.936   3.875  16.433  1.4094  1.0141  0.8301
 4541TIP3   OH235113   6.343   5.556  12.575  0.1646  0.3065 -0.5139
 4541TIP3    H135114   6.422   5.605  12.596 -0.3125  1.6583 -1.7800
 4541TIP3    H235115   6.303   5.603  12.502 -2.1273  0.0104  0.4558
 4542TIP3   OH235116   4.612   3.409  11.912  0.0885 -0.4215 -0.2394
 4542TIP3    H135117   4.554   3.373  11.845 -0.3812 -0.7147  0.3094
 4542TIP3    H235118   4.677   3.340  11.927 -0.1064 -0.5615 -0.0345
 4543TIP3   OH235119   3.764   5.532  13.249 -0.2316  0.0367  0.0812
 4543TIP3    H135120   3.834   5.582  13.208  0.8092 -0.2086  1.4707
 4543TIP3    H235121   3.768   5.558  13.342  0.6000 -2.8216  0.9516
 4544TIP3   OH235122   3.782   6.549   2.513  0.4132  0.4825  0.1074
 4544TIP3    H135123   3.874   6.554   2.489  0.5322  1.0215  0.6453
 4544TIP3    H235124   3.744   6.487   2.451  1.0356  0.6196 -0.4200
 4545TIP3   OH235125   6.271   6.225  11.250  0.1695  0.1761  0.0458
 4545TIP3    H135126   6.254   6.253  11.340 -0.6788  0.6767 -0.2554
 4545TIP3    H235127   6.335   6.287  11.216 -1.0041  1.2370 -0.3177
 4546TIP3   OH235128   1.789   6.671  13.269  0.0891 -0.8004  0.0536
 4546TIP3    H135129   1.712   6.624  13.238  0.1711 -0.6244 -0.4265
 4546TIP3    H235130   1.807   6.633  13.355 -0.9863 -0.3025  0.5146
 4547TIP3   OH235131   1.194   2.584   5.283  0.0133 -0.0459  0.2286
 4547TIP3    H135132   1.159   2.637   5.355  0.1586  0.1387  0.1633
 4547TIP3    H235133   1.137   2.604   5.209  0.6509  0.7700 -0.0615
 4548TIP3   OH235134   3.751   3.987   5.215  0.4365 -1.0624 -0.5575
 4548TIP3    H135135   3.768   3.974   5.308  2.1390  1.5982 -0.4049
 4548TIP3    H235136   3.834   3.964   5.172  0.6162  0.4898 -1.0972
 4549TIP3   OH235137   2.526   5.909  16.085 -0.1094  0.7240  0.2939
 4549TIP3    H135138   2.523   5.938  16.176  0.8492  0.7291  0.3361
 4549TIP3    H235139   2.505   5.987  16.034  0.1713  0.9237  0.4829
 4550TIP3   OH235140   4.074   2.481   5.226  0.2384  0.6555  0.4237
 4550TIP3    H135141   4.000   2.541   5.238 -1.3810 -0.8597 -1.4025
 4550TIP3    H235142   4.145   2.537   5.195 -0.6722  1.8888  0.4825
 4551TIP3   OH235143   4.944   2.230   3.449  0.0126  0.2636  0.4134
 4551TIP3    H135144   4.964   2.292   3.519  0.3994  1.7784 -0.9632
 4551TIP3    H235145   4.852   2.207   3.463  0.1671  0.2877  1.5845
 4552TIP3   OH235146   0.295   0.495  14.066  0.1425  0.1600 -0.9651
 4552TIP3    H135147   0.301   0.554  13.990  0.8660 -0.8855 -1.7380
 4552TIP3    H235148   0.267   0.412  14.029  2.2969 -0.8899 -0.3746
 4553TIP3   OH235149   6.460   0.679   3.920 -0.6061 -0.0993 -0.1580
 4553TIP3    H135150   6.531   0.686   3.984 -0.7018 -2.9498  0.3552
 4553TIP3    H235151   6.503   0.695   3.836  0.4161 -0.5764  0.2513
 4554TIP3   OH235152   6.427   2.222  11.978  0.6727  0.3475  0.1186
 4554TIP3    H135153   6.393   2.227  12.067  1.0373 -0.4234  0.3059
 4554TIP3    H235154   6.422   2.129  11.955 -2.4397  0.8677 -1.8730
 4555TIP3   OH235155   2.694   6.384  13.958 -0.2754  0.4633 -0.1266
 4555TIP3    H135156   2.773   6.425  13.921  1.1018 -1.1604  0.8422
 4555TIP3    H235157   2.728   6.311  14.009 -2.5443 -1.3526 -1.0606
 4556TIP3   OH235158   2.794   3.488   4.247 -0.5190 -0.5521  0.1735
 4556TIP3    H135159   2.801   3.502   4.341 -0.5012 -0.9899  0.2360
 4556TIP3    H235160   2.726   3.549   4.219 -0.5294 -0.4276  0.4702
 4557TIP3   OH235161   4.508   0.921  11.564  0.0601  0.4883  0.3721
 4557TIP3    H135162   4.590   0.884  11.598 -0.0003  0.7439  0.8141
 4557TIP3    H235163   4.440   0.862  11.596  0.1469 -0.3438 -0.9140
 4558TIP3   OH235164   3.182   2.024  12.305 -0.3999 -0.2960 -0.2619
 4558TIP3    H135165   3.095   2.030  12.267  0.0478  0.5152 -1.2262
 4558TIP3    H235166   3.213   1.937  12.282 -1.1746 -0.8071  0.5973
 4559TIP3   OH235167   0.454   3.684  16.312  0.2650 -0.1818 -0.4102
 4559TIP3    H135168   0.422   3.601  16.276 -1.5505  0.3805 -0.2233
 4559TIP3    H235169   0.408   3.692  16.396  1.6289  0.2818  0.3288
 4560TIP3   OH235170   1.451   5.332  10.927  0.0797  0.7981 -0.2128
 4560TIP3    H135171   1.410   5.246  10.921 -0.4109  1.1280 -2.5411
 4560TIP3    H235172   1.381   5.389  10.960  0.0952  0.5235  0.3112
 4561TIP3   OH235173   1.958   2.894   5.043  0.2773  0.0048  0.0031
 4561TIP3    H135174   1.899   2.819   5.035  2.0249 -1.4188 -0.4085
 4561TIP3    H235175   1.903   2.970   5.026 -1.0262 -1.3747 -2.5787
 4562TIP3   OH235176   4.325   5.247   0.816  0.0401  0.1471 -0.2769
 4562TIP3    H135177   4.314   5.321   0.876  1.6142  0.0807  0.1501
 4562TIP3    H235178   4.241   5.201   0.819 -0.4919  1.1312  0.5273
 4563TIP3   OH235179   1.515   2.968   5.005 -0.5216  0.1961 -0.4550
 4563TIP3    H135180   1.577   2.956   4.933 -0.6417 -1.4091 -0.3111
 4563TIP3    H235181   1.431   2.979   4.961 -0.6406 -1.0764 -0.5832
 4564TIP3   OH235182   2.746   2.340   1.326 -0.9831 -0.6100  0.2602
 4564TIP3    H135183   2.688   2.413   1.304 -0.1873  0.3292  1.1589
 4564TIP3    H235184   2.723   2.318   1.417  0.0619 -0.2034  0.6358
 4565TIP3   OH235185   2.096   6.726  14.097 -0.2050 -0.1930  0.1612
 4565TIP3    H135186   2.010   6.766  14.089  0.3023  1.2927  1.4644
 4565TIP3    H235187   2.083   6.634  14.074 -2.2238 -0.1007  0.7627
 4566TIP3   OH235188   2.735   2.290  14.012  0.2714  0.1135  0.3239
 4566TIP3    H135189   2.664   2.354  14.003  0.0188 -0.1585  0.3981
 4566TIP3    H235190   2.722   2.229  13.940  0.3405 -0.0238  0.4267
 4567TIP3   OH235191   5.267   0.777   5.606 -0.4361  0.1537 -0.2774
 4567TIP3    H135192   5.221   0.839   5.549 -0.4904 -0.2448 -0.6729
 4567TIP3    H235193   5.205   0.759   5.676 -1.8190 -2.0329 -1.9098
 4568TIP3   OH235194   2.792   1.274  12.482  0.7761 -0.9087  0.1250
 4568TIP3    H135195   2.877   1.283  12.439 -0.6500 -0.3751 -2.8415
 4568TIP3    H235196   2.760   1.188  12.452 -0.3895 -0.3870 -0.1795
 4569TIP3   OH235197   1.063   4.259   4.125 -0.6373  0.3477  0.0890
 4569TIP3    H135198   1.017   4.259   4.041 -1.0284  0.7156  0.3012
 4569TIP3    H235199   0.995   4.274   4.190 -0.1560  1.3827  0.3766
 4570TIP3   OH235200   1.852   2.988  12.677 -0.1896 -0.3111  0.6923
 4570TIP3    H135201   1.812   2.925  12.737 -4.4740  0.1502 -1.3423
 4570TIP3    H235202   1.830   2.957  12.590  1.8006  1.4884 -0.5674
 4571TIP3   OH235203   1.141   5.044  14.053  0.0548  0.4887 -0.2419
 4571TIP3    H135204   1.195   5.110  14.009 -0.9050  1.0070 -0.6750
 4571TIP3    H235205   1.186   5.027  14.136 -0.4084  2.7604  0.5442
 4572TIP3   OH235206   1.190   0.974   0.925 -0.3346  0.4918  0.1452
 4572TIP3    H135207   1.146   0.898   0.962  1.5824 -0.6995  0.1088
 4572TIP3    H235208   1.279   0.971   0.962  0.1752  1.9823 -0.8587
 4573TIP3   OH235209   2.786   0.691  13.437 -0.0699  0.3555  0.4230
 4573TIP3    H135210   2.774   0.778  13.476 -0.0092  0.7704 -0.4493
 4573TIP3    H235211   2.736   0.695  13.355 -1.0969 -0.8563  0.9585
 4574TIP3   OH235212   4.032   5.541  13.595 -0.4945 -0.1432  0.3729
 4574TIP3    H135213   4.041   5.457  13.550 -2.2872  0.3736 -1.1033
 4574TIP3    H235214   3.991   5.599  13.529  0.6623  1.8825  1.3355
 4575TIP3   OH235215   2.913   0.167  14.812  0.4662 -0.3765  0.0039
 4575TIP3    H135216   3.007   0.163  14.828  0.4575  1.7088  0.9319
 4575TIP3    H235217   2.892   0.260  14.817 -2.0290 -0.9432  2.0851
 4576TIP3   OH235218   5.319   2.815   3.713 -0.1218 -0.0054 -0.0082
 4576TIP3    H135219   5.411   2.788   3.721  0.1226  0.9104  0.3517
 4576TIP3    H235220   5.320   2.886   3.649 -0.5922 -0.0004 -0.0136
 4577TIP3   OH235221   1.405   1.058  13.009  0.3527  0.2400  0.0733
 4577TIP3    H135222   1.331   1.047  12.949  1.1814  1.0587 -1.1343
 4577TIP3    H235223   1.371   1.030  13.094 -0.6291 -1.7039 -0.9007
 4578TIP3   OH235224   6.165   2.498  14.909 -0.2011 -0.4542 -0.2714
 4578TIP3    H135225   6.085   2.446  14.914 -0.2629 -0.3192  0.1133
 4578TIP3    H235226   6.134   2.589  14.900 -0.1234 -0.1297  2.1853
 4579TIP3   OH235227   2.514   3.147   1.296  0.2122 -0.2040 -0.2881
 4579TIP3    H135228   2.574   3.158   1.369 -0.1055  1.5011 -0.2429
 4579TIP3    H235229   2.558   3.084   1.238  1.0055 -0.6674  0.7797
 4580TIP3   OH235230   6.836   3.590   0.365  0.6301  0.1049  0.5236
 4580TIP3    H135231   6.815   3.622   0.453 -1.3606 -0.4887  0.3133
 4580TIP3    H235232   6.865   3.500   0.380  1.5297  0.4060  0.6649
 4581TIP3   OH235233   2.143   2.798  12.675  0.2925  0.1761  0.1696
 4581TIP3    H135234   2.145   2.769  12.584 -0.4472 -1.3196  0.5853
 4581TIP3    H235235   2.169   2.720  12.725 -1.4127  0.2940  1.3291
 4582TIP3   OH235236   6.008   3.047   4.437 -0.1770 -0.2558  0.6845
 4582TIP3    H135237   5.943   3.053   4.507 -1.0702  0.5440 -0.1887
 4582TIP3    H235238   5.969   3.094   4.363  1.9794  1.5342  0.5725
 4583TIP3   OH235239   5.858   6.384   4.318  0.2632  0.0398 -0.1320
 4583TIP3    H135240   5.906   6.462   4.346 -0.2770  0.0932  0.6907
 4583TIP3    H235241   5.780   6.383   4.373 -0.5200 -0.2350 -1.2158
 4584TIP3   OH235242   2.182   6.453   0.752 -0.2285  0.1900  0.1948
 4584TIP3    H135243   2.268   6.456   0.794  0.6102  0.0550 -1.4426
 4584TIP3    H235244   2.177   6.534   0.702 -0.3524 -0.5362 -1.0086
 4585TIP3   OH235245   5.014   2.958   0.581  0.4043 -0.2480  0.4237
 4585TIP3    H135246   5.015   2.941   0.487 -0.1429 -1.7845  0.6647
 4585TIP3    H235247   5.005   2.872   0.621  1.1180  0.3369  1.9131
 4586TIP3   OH235248   2.968   4.896   1.776  0.6395  0.4005  0.0950
 4586TIP3    H135249   2.954   4.814   1.730  0.0307  0.6124 -0.1051
 4586TIP3    H235250   2.998   4.957   1.708  0.5342  0.4932  0.1300
 4587TIP3   OH235251   4.035   4.145  13.390  0.2597  0.0031 -0.4110
 4587TIP3    H135252   3.973   4.078  13.362  2.1734 -1.7570 -0.7170
 4587TIP3    H235253   4.060   4.189  13.308  3.0622 -2.6638 -1.1691
 4588TIP3   OH235254   5.482   0.191  11.214 -0.0996 -0.5939  0.1149
 4588TIP3    H135255   5.568   0.174  11.175  1.0209  0.5984  1.9356
 4588TIP3    H235256   5.493   0.168  11.306 -2.3479 -2.2786  0.0532
 4589TIP3   OH235257   5.951   0.500  13.696  0.1444 -0.0327 -0.6159
 4589TIP3    H135258   6.019   0.479  13.632 -0.5711  0.0859 -1.4405
 4589TIP3    H235259   5.869   0.477  13.652 -0.3260 -0.7878  0.6002
 4590TIP3   OH235260   1.777   6.167   0.798  0.3035 -0.3805 -0.1855
 4590TIP3    H135261   1.692   6.196   0.829  0.4565 -0.1716  0.0438
 4590TIP3    H235262   1.840   6.209   0.857  0.7611  2.0573 -2.2268
 4591TIP3   OH235263   5.889   3.240  13.294  0.0658 -0.3733  0.0352
 4591TIP3    H135264   5.823   3.173  13.275 -0.2076 -0.2157  0.4118
 4591TIP3    H235265   5.856   3.283  13.373 -0.1879  0.7735 -0.6867
 4592TIP3   OH235266   1.280   6.645  16.678 -0.2355  0.3967 -0.3999
 4592TIP3    H135267   1.346   6.594  16.726 -0.4884  0.0575 -0.4058
 4592TIP3    H235268   1.317   6.733  16.672  0.4214  0.0973 -0.7959
 4593TIP3   OH235269   0.153   3.646   3.668 -0.2500 -0.0050 -0.5890
 4593TIP3    H135270   0.152   3.699   3.748 -0.3075  1.8852 -1.7832
 4593TIP3    H235271   0.145   3.556   3.699 -0.5962  0.6914  1.5088
 4594TIP3   OH235272   0.759   6.792  11.992 -0.2370 -0.2366 -0.4248
 4594TIP3    H135273   0.679   6.742  11.975 -1.3416  0.9474  0.9787
 4594TIP3    H235274   0.799   6.749  12.067 -1.4759  1.1967  1.1348
 4595TIP3   OH235275   5.599   1.636   6.336  0.2887  0.6995  0.1799
 4595TIP3    H135276   5.518   1.639   6.286  2.1525  0.6382 -3.1541
 4595TIP3    H235277   5.607   1.544   6.362 -0.8394  0.7761  0.8566
 4596TIP3   OH235278   2.149   0.277  12.541  0.3339 -0.5022  0.2556
 4596TIP3    H135279   2.205   0.238  12.608  0.4182  0.3347  0.6871
 4596TIP3    H235280   2.107   0.351  12.585  0.7661  0.3667 -0.7445
 4597TIP3   OH235281   3.340   5.135  16.466  0.2278  0.4493  0.0268
 4597TIP3    H135282   3.367   5.174  16.383  0.9718  1.0210  0.5275
 4597TIP3    H235283   3.381   5.049  16.467  0.8547  0.7445  0.1396
 4598TIP3   OH235284   5.610   1.505   0.176 -0.3787 -0.6804 -0.1842
 4598TIP3    H135285   5.629   1.574   0.240  0.1332 -0.5760 -0.4419
 4598TIP3    H235286   5.515   1.496   0.178 -0.2747 -1.9913  1.9602
 4599TIP3   OH235287   1.498   0.292   0.897  0.3602 -0.0820  0.1954
 4599TIP3    H135288   1.403   0.280   0.901  0.3428  0.2793  3.8908
 4599TIP3    H235289   1.510   0.363   0.835 -2.0752  1.7933  1.6756
 4600TIP3   OH235290   1.830   4.380   3.679  0.0786 -0.0983  0.5745
 4600TIP3    H135291   1.901   4.444   3.677 -0.5395  0.6309  1.2635
 4600TIP3    H235292   1.872   4.298   3.704  0.9602 -0.0892 -0.7754
 4601TIP3   OH235293   2.570   2.490  15.005 -0.5303  0.1179  0.8027
 4601TIP3    H135294   2.600   2.550  15.074  2.0218 -0.0295 -0.1035
 4601TIP3    H235295   2.592   2.403  15.038 -1.2686 -0.1189  0.6915
 4602TIP3   OH235296   3.468   1.874   3.325  0.0044 -0.5919 -0.9318
 4602TIP3    H135297   3.444   1.841   3.412  0.8561  0.9734 -0.0664
 4602TIP3    H235298   3.388   1.864   3.273 -1.3321  0.7499  0.7499
 4603TIP3   OH235299   4.478   2.191  12.253 -0.3506 -0.3027  0.2264
 4603TIP3    H135300   4.485   2.265  12.193 -1.7168 -0.9091 -0.7253
 4603TIP3    H235301   4.569   2.168  12.273  0.1017  1.8710  0.9006
 4604TIP3   OH235302   4.101   4.722   1.450  0.0500 -0.2371 -0.7432
 4604TIP3    H135303   4.145   4.639   1.469 -1.2065 -0.7055  0.1970
 4604TIP3    H235304   4.013   4.698   1.424 -0.2118  0.7950 -0.8522
 4605TIP3   OH235305   3.539   1.496   5.298  0.1774  0.0916  0.3952
 4605TIP3    H135306   3.632   1.488   5.274 -0.2325 -0.5067 -1.0923
 4605TIP3    H235307   3.492   1.488   5.215 -1.2150  0.5179  1.1139
 4606TIP3   OH235308   2.562   2.394  14.652 -0.3401  0.2451  0.2063
 4606TIP3    H135309   2.500   2.321  14.653 -0.9429  0.7410 -0.3130
 4606TIP3    H235310   2.519   2.462  14.600  0.2172  0.9671  0.6633
 4607TIP3   OH235311   6.602   0.318  11.995  0.5118  0.5646 -0.2625
 4607TIP3    H135312   6.552   0.271  11.928 -2.4049  1.0341  1.4103
 4607TIP3    H235313   6.614   0.406  11.960 -1.0435  0.8218 -0.1904
 4608TIP3   OH235314   6.477   2.491  15.887  0.6356 -0.4927 -0.5692
 4608TIP3    H135315   6.546   2.530  15.940  0.5531 -1.1293  0.0223
 4608TIP3    H235316   6.506   2.400  15.874 -0.3592 -0.9368  0.1750
 4609TIP3   OH235317   5.779   3.246   6.147  0.4066 -0.6382  0.2142
 4609TIP3    H135318   5.721   3.317   6.121 -1.1941 -2.5599 -1.8835
 4609TIP3    H235319   5.803   3.266   6.238 -0.3994  2.2170 -0.1177
 4610TIP3   OH235320   0.002   5.827  12.351  0.4411  0.1896 -0.0513
 4610TIP3    H135321   0.098   5.829  12.354  0.5438  1.0962 -2.0528
 4610TIP3    H235322  -0.019   5.740  12.318  0.5187 -0.2008  0.8854
 4611TIP3   OH235323   3.846   6.186   5.581 -0.6204 -0.5472  0.2199
 4611TIP3    H135324   3.875   6.111   5.633  1.0582 -0.0832  0.0152
 4611TIP3    H235325   3.801   6.148   5.506 -2.3826 -1.2480  1.5558
 4612TIP3   OH235326   0.284   3.376  11.855 -0.2971 -0.0077  0.3012
 4612TIP3    H135327   0.296   3.334  11.770 -1.8565 -0.8291  0.4470
 4612TIP3    H235328   0.189   3.381  11.866 -0.1336 -0.1940  2.1205
 4613TIP3   OH235329   4.370   6.218   2.246  0.9869  0.1685  0.1466
 4613TIP3    H135330   4.364   6.266   2.163 -0.6556 -2.0441 -1.1441
 4613TIP3    H235331   4.313   6.142   2.234  1.0533 -0.5029  3.1781
 4614TIP3   OH235332   5.635   6.404   0.389  0.0500 -0.0853 -0.1695
 4614TIP3    H135333   5.655   6.381   0.480  0.3566  0.1922 -0.1624
 4614TIP3    H235334   5.565   6.469   0.395  0.2893  0.1687 -0.1159
 4615TIP3   OH235335   6.774   3.516  11.056 -0.2861 -0.1598 -0.5506
 4615TIP3    H135336   6.830   3.504  11.133 -2.6200 -0.3164  1.2405
 4615TIP3    H235337   6.816   3.586  11.007  1.0704  0.2695  1.1148
 4616TIP3   OH235338   0.917   4.220  14.165  0.0936  0.4207 -0.1294
 4616TIP3    H135339   0.824   4.206  14.184 -0.1015  0.1385 -1.2111
 4616TIP3    H235340   0.923   4.311  14.136  0.7196  1.5171  3.0631
 4617TIP3   OH235341   1.467   6.673  13.096  0.1681 -0.4984 -0.3264
 4617TIP3    H135342   1.404   6.649  13.028  1.3776 -1.9622 -0.9944
 4617TIP3    H235343   1.488   6.590  13.139  0.3139  0.2323  1.0881
 4618TIP3   OH235344   0.663   6.166   5.989 -0.5072  0.6349 -0.5436
 4618TIP3    H135345   0.731   6.101   5.970 -0.2903  0.5495  0.4390
 4618TIP3    H235346   0.688   6.244   5.940  0.0259  0.4361 -0.5880
 4619TIP3   OH235347   1.327   2.530  15.553  0.1691 -0.3998 -0.3209
 4619TIP3    H135348   1.264   2.460  15.539 -1.2983  0.9250 -0.6175
 4619TIP3    H235349   1.337   2.572  15.468  0.1020  0.4892  0.0940
 4620TIP3   OH235350   5.379   6.484  14.104 -0.1949  0.0330  0.4390
 4620TIP3    H135351   5.420   6.543  14.167 -0.5133 -0.1590  0.8237
 4620TIP3    H235352   5.353   6.408  14.155 -0.5568 -0.0732  0.1003
 4621TIP3   OH235353   3.476   0.090  13.364 -0.5162 -0.1023 -0.1325
 4621TIP3    H135354   3.392   0.122  13.398 -0.6594 -1.8303  1.2967
 4621TIP3    H235355   3.539   0.159  13.387 -1.5268  1.2870 -1.3540
 4622TIP3   OH235356   0.517   2.049   1.522 -0.3928 -0.4240  0.1597
 4622TIP3    H135357   0.434   2.084   1.556 -0.8281 -1.2041 -0.0793
 4622TIP3    H235358   0.504   2.044   1.427 -0.3232 -1.1918  0.1874
 4623TIP3   OH235359   3.111   0.967   1.505  0.0021 -0.7299 -0.3564
 4623TIP3    H135360   3.205   0.985   1.510 -0.2123  0.4306 -0.2563
 4623TIP3    H235361   3.080   1.024   1.434 -0.5877 -1.2646 -0.5326
 4624TIP3   OH235362   2.617   6.640  13.996 -0.2690  0.4539 -0.6954
 4624TIP3    H135363   2.639   6.549  14.018  2.8488  0.8169 -1.8276
 4624TIP3    H235364   2.530   6.635  13.958 -0.2353 -2.0558 -0.6167
 4625TIP3   OH235365   5.148   2.766   1.215  0.0405 -0.3270 -0.7361
 4625TIP3    H135366   5.191   2.848   1.191  1.7890 -0.8816  0.3676
 4625TIP3    H235367   5.128   2.724   1.131  0.0944  0.7139 -1.2912
 4626TIP3   OH235368   1.043   2.960   4.934 -0.5893  0.8417  0.6343
 4626TIP3    H135369   1.134   2.970   4.906 -0.4200 -0.1991  0.7541
 4626TIP3    H235370   0.997   3.032   4.892 -0.2197 -0.2541 -1.8234
 4627TIP3   OH235371   4.555   1.518  16.694  0.5585 -0.4592  0.6436
 4627TIP3    H135372   4.628   1.580  16.684  2.3338 -2.3802  1.0188
 4627TIP3    H235373   4.595   1.439  16.731 -1.6754 -1.7230  0.5485
 4628TIP3   OH235374   0.486   1.717  11.963  0.5305  0.4125 -0.0807
 4628TIP3    H135375   0.529   1.780  11.906 -0.1967  1.5333  0.5613
 4628TIP3    H235376   0.398   1.707  11.927  0.0321  1.2052  0.8526
 4629TIP3   OH235377   2.714   5.929  15.846 -0.4162  0.5671  0.4594
 4629TIP3    H135378   2.627   5.961  15.869 -1.4398 -1.1451 -0.8180
 4629TIP3    H235379   2.726   5.850  15.900  0.3538  0.7649  0.6005
 4630TIP3   OH235380   5.693   5.983  11.768 -0.1184 -0.8645  0.2272
 4630TIP3    H135381   5.608   5.978  11.812 -0.9045  2.3549 -0.6310
 4630TIP3    H235382   5.679   5.939  11.684 -1.1026 -0.1172 -0.0294
 4631TIP3   OH235383   3.105   3.721  11.749  0.5090 -0.1215 -0.2165
 4631TIP3    H135384   3.077   3.808  11.777 -1.1364 -0.9996  1.0819
 4631TIP3    H235385   3.094   3.721  11.654 -2.8086  0.0614  0.0692
 4632TIP3   OH235386   5.333   3.195  12.969 -0.0406 -0.2646 -0.2792
 4632TIP3    H135387   5.360   3.286  12.959 -0.2071  0.1482  2.4308
 4632TIP3    H235388   5.241   3.194  12.943  0.5932 -0.2385 -2.7455
 4633TIP3   OH235389   5.403   3.801  16.672  0.3705 -0.2022 -0.2231
 4633TIP3    H135390   5.385   3.708  16.685 -1.4618  0.3874  2.1060
 4633TIP3    H235391   5.491   3.814  16.708  0.2121 -0.8596  0.4311
 4634TIP3   OH235392   3.828   4.821   5.030  0.0998 -0.4507  0.3404
 4634TIP3    H135393   3.828   4.825   5.126  4.0441  1.5664  0.4528
 4634TIP3    H235394   3.797   4.908   5.002 -1.7115 -1.2602 -0.3270
 4635TIP3   OH235395   5.967   2.502   0.497 -0.1216 -0.1778  0.0284
 4635TIP3    H135396   5.892   2.443   0.491  0.7043 -1.1309 -1.9028
 4635TIP3    H235397   5.942   2.579   0.444 -0.0662 -0.1262  0.0767
 4636TIP3   OH235398   0.882   2.734  11.812  0.1060 -0.3457  0.1135
 4636TIP3    H135399   0.831   2.813  11.794 -1.0424 -0.9274  0.6715
 4636TIP3    H235400   0.817   2.664  11.814  0.8277 -1.0187  1.5747
 4637TIP3   OH235401   0.415   4.990  12.514 -0.2485 -0.6486 -0.1046
 4637TIP3    H135402   0.410   4.919  12.578 -1.0421 -1.6955 -1.2772
 4637TIP3    H235403   0.493   4.970  12.462  0.3746  0.1799  0.4743
 4638TIP3   OH235404   0.758   6.405   2.831  0.3433  0.1329  0.0869
 4638TIP3    H135405   0.732   6.355   2.754  1.2175  0.5919 -0.5182
 4638TIP3    H235406   0.722   6.492   2.817  0.0936  0.0924  0.4390
 4639TIP3   OH235407   1.181   2.200   5.362 -0.0596 -0.3315  0.3866
 4639TIP3    H135408   1.155   2.185   5.453 -2.4447 -1.0526 -0.3360
 4639TIP3    H235409   1.141   2.128   5.314  3.1477 -1.3518 -1.0122
 4640TIP3   OH235410   3.607   1.194   2.005 -0.0489  0.3462 -0.1431
 4640TIP3    H135411   3.556   1.130   1.956  0.9767 -1.1135  0.6164
 4640TIP3    H235412   3.545   1.265   2.024 -1.3847 -0.7072 -0.4518
 4641TIP3   OH235413   2.073   3.235   2.138 -0.9820 -0.0063  0.3828
 4641TIP3    H135414   2.029   3.279   2.211 -0.6306  1.1503 -0.0902
 4641TIP3    H235415   2.134   3.300   2.104 -0.4958 -0.8448 -0.3749
 4642TIP3   OH235416   2.096   3.601  14.506  0.3715 -0.2434  0.0359
 4642TIP3    H135417   2.157   3.628  14.437  0.8516 -0.6325  0.3038
 4642TIP3    H235418   2.012   3.639  14.479  0.7508  0.3993 -0.2755
 4643TIP3   OH235419   5.158   1.155  16.563  0.1411 -0.0886  0.4032
 4643TIP3    H135420   5.185   1.066  16.538  1.8043  0.3627  0.4748
 4643TIP3    H235421   5.214   1.176  16.638 -1.2875  0.4726  1.3374
 4644TIP3   OH235422   4.511   1.033  17.149 -0.1140 -0.5865  0.1061
 4644TIP3    H135423   4.566   0.989  17.084 -0.3014 -3.5546  1.8011
 4644TIP3    H235424   4.572   1.073  17.210  0.0825 -0.2794 -0.2870
 4645TIP3   OH235425   3.226   6.474   5.567  0.2305  0.3162 -0.4143
 4645TIP3    H135426   3.319   6.490   5.551  0.9356 -1.4604  1.4170
 4645TIP3    H235427   3.208   6.391   5.523 -0.1645  0.0853  0.1610
 4646TIP3   OH235428   4.038   0.480  16.434  0.4624 -0.1604  0.1335
 4646TIP3    H135429   3.985   0.403  16.456 -0.4270  1.0256  2.6857
 4646TIP3    H235430   3.979   0.536  16.383  0.5851 -0.5199 -0.3996
 4647TIP3   OH235431   1.395   5.015   6.058 -0.7819 -0.2004  0.0447
 4647TIP3    H135432   1.367   4.993   6.146 -2.2780  1.1430 -0.0443
 4647TIP3    H235433   1.483   5.050   6.069 -1.1586  0.4743  1.1090
 4648TIP3   OH235434   3.409   6.403  14.112 -0.3054  0.0403  0.3411
 4648TIP3    H135435   3.475   6.333  14.109 -0.3195 -0.0073  0.9813
 4648TIP3    H235436   3.340   6.367  14.168  0.3513  1.1245  1.9261
 4649TIP3   OH235437   4.385   2.702   4.274  0.1477 -0.0315 -0.2398
 4649TIP3    H135438   4.463   2.669   4.318 -0.0114  0.5585  0.5028
 4649TIP3    H235439   4.364   2.783   4.321 -0.5290  0.1539 -0.8550
 4650TIP3   OH235440   1.851   3.339   6.394  0.0897 -0.1440  0.5112
 4650TIP3    H135441   1.785   3.270   6.398  0.4069 -0.4849 -0.0685
 4650TIP3    H235442   1.814   3.404   6.334  0.3103 -0.3746  0.1198
 4651TIP3   OH235443   0.286   6.608   5.408 -0.2299 -0.4710 -0.0228
 4651TIP3    H135444   0.224   6.537   5.388 -0.4750 -0.1626 -0.3708
 4651TIP3    H235445   0.338   6.574   5.480 -0.2016 -1.0915 -0.3301
 4652TIP3   OH235446   6.446   2.088   2.776  0.0688 -0.2765  0.4027
 4652TIP3    H135447   6.353   2.086   2.752  0.2106  1.7333 -0.4703
 4652TIP3    H235448   6.488   2.025   2.717 -0.8599 -2.2525  1.7166
 4653TIP3   OH235449   6.051   3.426  12.724 -0.3409  0.2573  0.4079
 4653TIP3    H135450   6.139   3.459  12.742 -0.5647  0.5438  1.0100
 4653TIP3    H235451   6.052   3.405  12.631 -0.2115  2.0902 -0.0558
 4654TIP3   OH235452   5.006   4.805  16.903  0.0667  0.4889  0.8081
 4654TIP3    H135453   4.971   4.821  16.990  1.0125  1.2861  1.0606
 4654TIP3    H235454   4.931   4.773  16.852 -0.8453  1.4373  1.5180
 4655TIP3   OH235455   5.971   3.225   4.784 -0.2986 -0.2798  0.2793
 4655TIP3    H135456   5.888   3.245   4.828  0.7535 -0.0852  2.2467
 4655TIP3    H235457   5.949   3.230   4.691 -2.9205 -1.9772  0.6827
 4656TIP3   OH235458   0.108   0.081   4.687 -0.0251  0.5588  0.0754
 4656TIP3    H135459   0.129  -0.012   4.692 -0.1882  0.6099  2.8452
 4656TIP3    H235460   0.045   0.096   4.758 -0.5685  2.6569 -0.7527
 4657TIP3   OH235461   5.524   3.708   0.734 -0.1264  0.1488 -0.2209
 4657TIP3    H135462   5.459   3.720   0.804 -0.2287  1.4305 -0.5033
 4657TIP3    H235463   5.592   3.772   0.753  1.4642 -1.6695  0.4740
 4658TIP3   OH235464   1.387   4.140   4.679  0.0450  0.3835  0.3656
 4658TIP3    H135465   1.386   4.232   4.654 -1.0044  0.4663  0.6580
 4658TIP3    H235466   1.339   4.137   4.762  0.3615 -0.3862  0.5377
 4659TIP3   OH235467   0.065   3.188  15.447  0.5982 -0.4179  0.2935
 4659TIP3    H135468   0.026   3.274  15.433  0.1950 -0.8664 -1.5910
 4659TIP3    H235469   0.113   3.197  15.529  1.3039  1.8727 -0.2942
 4660TIP3   OH235470   6.049   6.694  14.469  0.2053  0.6367  0.3902
 4660TIP3    H135471   6.068   6.760  14.402  1.7829 -0.1994 -0.0471
 4660TIP3    H235472   6.011   6.621  14.420  1.5693 -0.0668  0.3188
 4661TIP3   OH235473   2.087   4.303  16.159  0.5997 -0.1385 -0.5863
 4661TIP3    H135474   2.124   4.379  16.204  1.7860 -0.3209 -1.2119
 4661TIP3    H235475   2.111   4.229  16.215  0.0033 -0.1225 -0.3061
 4662TIP3   OH235476   6.295   0.244   3.683 -0.3672  0.1048  0.0218
 4662TIP3    H135477   6.374   0.192   3.672 -0.8224 -0.9740  1.5424
 4662TIP3    H235478   6.324   0.325   3.725 -0.2457 -1.0370  2.2622
 4663TIP3   OH235479   5.453   2.149  11.792 -0.3426 -0.1756 -0.5603
 4663TIP3    H135480   5.469   2.224  11.849 -0.0390 -0.8379  0.2465
 4663TIP3    H235481   5.372   2.110  11.826  0.1718 -0.9317 -0.1843
 4664TIP3   OH235482   3.220   2.173  14.731  0.2386 -0.2067 -0.5381
 4664TIP3    H135483   3.223   2.158  14.826  0.3654  0.2435 -0.4710
 4664TIP3    H235484   3.272   2.101  14.695  0.0403 -0.4839 -0.2806
 4665TIP3   OH235485   6.122   5.717   0.620 -0.3625 -0.0431 -0.2748
 4665TIP3    H135486   6.076   5.664   0.684 -0.5755 -1.4305 -1.5121
 4665TIP3    H235487   6.187   5.766   0.670 -1.1432 -0.3714  1.0930
 4666TIP3   OH235488   5.547   1.302   4.365 -0.7259 -0.4912  0.6904
 4666TIP3    H135489   5.495   1.334   4.292 -0.8913 -0.3924  0.8515
 4666TIP3    H235490   5.511   1.215   4.383  0.2189 -1.0970 -0.2393
 4667TIP3   OH235491   3.172   2.804   6.176  0.2291 -0.0925  0.0292
 4667TIP3    H135492   3.205   2.735   6.234  0.4171 -0.1266 -0.1164
 4667TIP3    H235493   3.222   2.882   6.201 -0.6259  0.2184  0.8181
 4668TIP3   OH235494   5.992   5.571  11.228  0.0208  0.6039  0.0756
 4668TIP3    H135495   6.060   5.632  11.256  1.2263 -0.4249 -0.5045
 4668TIP3    H235496   6.040   5.492  11.201 -1.5415 -1.2059  2.2387
 4669TIP3   OH235497   5.495   0.215  12.625  1.1764 -0.1323  0.7085
 4669TIP3    H135498   5.490   0.291  12.567 -0.1160 -0.5472  0.2390
 4669TIP3    H235499   5.507   0.141  12.565 -2.4292 -0.8574  0.6551
 4670TIP3   OH235500   6.181   3.416  13.577 -0.2487 -0.1399  0.0961
 4670TIP3    H135501   6.173   3.511  13.583  0.4355  0.0251 -1.1392
 4670TIP3    H235502   6.260   3.395  13.627  0.2047  0.0816 -0.5130
 4671TIP3   OH235503   0.816   4.322  11.217  0.2829  1.0946  0.0951
 4671TIP3    H135504   0.848   4.263  11.148  1.7143  0.9201  0.8684
 4671TIP3    H235505   0.721   4.312  11.214  0.4406 -0.6775 -0.3061
 4672TIP3   OH235506   3.310   2.404   5.268  0.2590 -0.5553  0.4933
 4672TIP3    H135507   3.246   2.334   5.254  1.4249 -1.6861  0.6489
 4672TIP3    H235508   3.333   2.434   5.180 -1.7672  1.1327  0.4486
 4673TIP3   OH235509   3.478   3.985  11.229  0.1835 -0.1244  0.3100
 4673TIP3    H135510   3.432   3.975  11.312  2.8603 -4.0270  1.6300
 4673TIP3    H235511   3.529   4.066  11.240 -1.7607  1.0486  1.1580
 4674TIP3   OH235512   3.557   0.439   0.433 -0.1721  0.1328 -0.8111
 4674TIP3    H135513   3.612   0.473   0.363 -2.2537  3.0278 -1.1914
 4674TIP3    H235514   3.487   0.391   0.388  0.2876 -0.8893 -0.4804
 4675TIP3   OH235515   1.479   5.046  14.835 -0.2218 -0.3116  0.1242
 4675TIP3    H135516   1.544   5.039  14.766  0.7658 -3.1957  1.2047
 4675TIP3    H235517   1.492   5.134  14.871  1.5763 -0.0302 -1.0806
 4676TIP3   OH235518   0.575   0.763   1.862  0.2540  0.1519  0.0394
 4676TIP3    H135519   0.613   0.691   1.911 -1.4900 -0.0150  1.2470
 4676TIP3    H235520   0.649   0.803   1.817  1.7488 -0.4619  1.8185
 4677TIP3   OH235521   5.165   1.112  16.224  0.6689  0.6956  0.4100
 4677TIP3    H135522   5.224   1.052  16.269  1.1207  0.9684  0.1942
 4677TIP3    H235523   5.210   1.197  16.229 -0.5289  1.3046  1.8458
 4678TIP3   OH235524   4.445   6.080   3.569  0.8212 -0.6944  0.0104
 4678TIP3    H135525   4.409   6.044   3.650  0.1023 -3.0247 -1.2563
 4678TIP3    H235526   4.525   6.028   3.554  1.1301 -0.0438 -0.6059
 4679TIP3   OH235527   2.060   2.130   0.127  0.0943  0.3828  0.3460
 4679TIP3    H135528   1.997   2.125   0.199  1.2025  0.7444  1.3787
 4679TIP3    H235529   2.049   2.217   0.091  0.3414  0.6291  0.8541
 4680TIP3   OH235530   2.058   1.143  13.225 -0.0971 -0.5223  0.0943
 4680TIP3    H135531   2.092   1.229  13.203  0.4339 -0.7054  0.1759
 4680TIP3    H235532   2.021   1.109  13.144 -0.9702  0.0717  0.2269
 4681TIP3   OH235533   1.790   3.000  12.152  0.1892  0.3046  0.0661
 4681TIP3    H135534   1.791   3.070  12.218  0.0942  1.1708 -0.8356
 4681TIP3    H235535   1.780   2.920  12.203 -0.5394  1.0081  1.0800
 4682TIP3   OH235536   6.430   4.908  11.865  0.1453 -0.4626  0.0085
 4682TIP3    H135537   6.509   4.903  11.810  2.1027 -0.0329  2.6211
 4682TIP3    H235538   6.364   4.860  11.815  2.1822 -1.2942 -2.0789
 4683TIP3   OH235539   3.758   2.933  14.091  0.1608 -0.4603 -0.3878
 4683TIP3    H135540   3.836   2.877  14.094  0.3231 -0.3681 -1.8936
 4683TIP3    H235541   3.715   2.919  14.174  2.1756  0.0558  0.8159
 4684TIP3   OH235542   6.469   4.798   2.284 -0.0564  0.4854 -0.3924
 4684TIP3    H135543   6.456   4.824   2.375  1.9475 -0.6778  0.3023
 4684TIP3    H235544   6.529   4.864   2.248  1.0997 -0.3547 -0.0900
 4685TIP3   OH235545   4.747   6.342  16.215  0.1077 -0.4011  0.4132
 4685TIP3    H135546   4.701   6.399  16.277 -1.1982 -0.4679 -0.4412
 4685TIP3    H235547   4.703   6.257  16.223 -1.6553  0.1419 -2.1182
 4686TIP3   OH235548   5.205   1.491  16.617 -0.3605  0.1420  0.1160
 4686TIP3    H135549   5.196   1.585  16.602  1.1571  0.7934  2.6624
 4686TIP3    H235550   5.147   1.472  16.690 -1.0206 -1.0320 -0.6825
 4687TIP3   OH235551   1.678   0.719  10.828  0.1767 -0.0642  0.1342
 4687TIP3    H135552   1.631   0.664  10.766 -0.9712 -0.3590  1.2114
 4687TIP3    H235553   1.637   0.805  10.820  0.1742 -0.0479  0.3079
 4688TIP3   OH235554   6.747   2.680  12.277  0.1748  0.5453 -0.3408
 4688TIP3    H135555   6.693   2.757  12.294  0.3296  0.5645  0.0669
 4688TIP3    H235556   6.683   2.612  12.252 -0.0373  0.5973  0.0364
 4689TIP3   OH235557   2.961   2.188   2.348 -0.0233 -0.0679  0.3741
 4689TIP3    H135558   2.960   2.277   2.383  0.3605 -0.7878  2.3215
 4689TIP3    H235559   2.878   2.150   2.377  0.3885 -0.7423  0.6937
 4690TIP3   OH235560   6.466   5.887   4.071  0.1539 -0.0976 -0.3273
 4690TIP3    H135561   6.372   5.904   4.081  0.3593  0.3763  0.9737
 4690TIP3    H235562   6.471   5.819   4.003 -1.0154  1.0934 -1.6833
 4691TIP3   OH235563   3.542   1.021   0.608  0.7241  0.0916  0.1952
 4691TIP3    H135564   3.486   0.945   0.596 -1.1423  0.9472  2.5848
 4691TIP3    H235565   3.607   1.015   0.538  0.1292 -3.1710 -0.2229
 4692TIP3   OH235566   1.818   0.701   3.569  0.5400 -0.2537  0.1128
 4692TIP3    H135567   1.821   0.725   3.662 -1.1154 -1.1300  0.4162
 4692TIP3    H235568   1.753   0.631   3.564  0.2858  0.0753 -1.7749
 4693TIP3   OH235569   2.842   0.499  14.248 -0.2760 -0.1413  0.2056
 4693TIP3    H135570   2.858   0.563  14.178  3.3584 -0.4625  0.5393
 4693TIP3    H235571   2.819   0.552  14.324 -4.7221  0.2003 -1.0592
 4694TIP3   OH235572   4.653   3.002   1.175 -0.0592  0.2451 -0.2371
 4694TIP3    H135573   4.705   3.045   1.107 -0.5007 -0.2179 -0.8870
 4694TIP3    H235574   4.716   2.951   1.225  0.3102  0.8013 -0.1355
 4695TIP3   OH235575   6.605   2.438  12.633 -0.5989  0.0033 -0.4884
 4695TIP3    H135576   6.588   2.531  12.623  0.3607  0.2206 -0.1712
 4695TIP3    H235577   6.550   2.411  12.707  0.6619  0.7724  0.7790
 4696TIP3   OH235578   2.044   6.259  12.264  0.0230 -0.0361  0.0385
 4696TIP3    H135579   2.136   6.241  12.279  0.0864  0.0040 -0.2903
 4696TIP3    H235580   2.032   6.349  12.293  0.0600 -0.0831  0.1984
 4697TIP3   OH235581   1.520   2.453   3.920  0.1274 -0.2017  1.0323
 4697TIP3    H135582   1.495   2.443   4.012 -0.0601 -1.1305  0.8861
 4697TIP3    H235583   1.614   2.438   3.919  0.1762  0.0919  1.1116
 4698TIP3   OH235584   2.637   3.952  15.180  0.4430 -0.0783  0.1289
 4698TIP3    H135585   2.664   4.026  15.126 -0.6703 -0.4309 -0.9701
 4698TIP3    H235586   2.546   3.972  15.204  0.0438 -1.1731 -0.3935
 4699TIP3   OH235587   0.854   6.725   1.705  0.1503  0.0586 -0.4467
 4699TIP3    H135588   0.942   6.690   1.693  0.5464  0.2852  1.4144
 4699TIP3    H235589   0.795   6.652   1.689  0.7062 -0.2671 -1.0278
 4700TIP3   OH235590   4.123   4.680   2.304  1.2520 -0.3839 -0.1443
 4700TIP3    H135591   4.168   4.758   2.271 -1.9357  1.9276  0.4340
 4700TIP3    H235592   4.166   4.660   2.387  1.1215  1.8471  0.5118
 4701TIP3   OH235593   5.845   6.309   5.126 -0.1691 -0.8686 -0.0901
 4701TIP3    H135594   5.813   6.237   5.180  0.0259 -1.2547 -0.4855
 4701TIP3    H235595   5.888   6.368   5.188 -1.2012 -0.5896  0.3746
 4702TIP3   OH235596   0.145   1.660  14.704  0.0391 -0.2243 -0.1550
 4702TIP3    H135597   0.172   1.736  14.653 -1.0609  0.2117 -0.1185
 4702TIP3    H235598   0.150   1.689  14.795  0.8412 -0.6204 -0.0590
 4703TIP3   OH235599   0.348   2.211  13.345  0.0074 -0.2510  0.0605
 4703TIP3    H135600   0.426   2.266  13.358  0.7819 -1.0351 -1.0509
 4703TIP3    H235601   0.384   2.123  13.332 -1.1576 -0.8655  0.8399
 4704TIP3   OH235602   2.937   1.610   2.078  0.2963  0.2728  0.4969
 4704TIP3    H135603   2.983   1.581   2.157  0.4611  0.2983  0.4100
 4704TIP3    H235604   2.982   1.690   2.052  2.0189 -1.1432 -1.1767
 4705TIP3   OH235605   3.819   5.203   2.400 -0.0811 -0.3888 -0.1705
 4705TIP3    H135606   3.754   5.201   2.330  2.6861  1.7649 -3.0516
 4705TIP3    H235607   3.890   5.147   2.369  1.9739  1.9925 -0.0481
 4706TIP3   OH235608   4.847   4.802  16.025  0.6321 -0.1701 -0.1410
 4706TIP3    H135609   4.820   4.829  15.937 -1.0733 -0.3251  0.2964
 4706TIP3    H235610   4.897   4.876  16.059  0.6839  0.1836 -0.9656
 4707TIP3   OH235611   0.898   2.977  14.291  0.2121 -0.2136  0.4078
 4707TIP3    H135612   0.819   2.937  14.328 -0.8826  1.5711  0.1419
 4707TIP3    H235613   0.874   2.997  14.200  1.7138 -1.5018 -0.3185
 4708TIP3   OH235614   4.487   3.100   3.771 -0.1210 -0.0767 -0.0627
 4708TIP3    H135615   4.507   3.032   3.835 -0.5236  0.0965  0.2565
 4708TIP3    H235616   4.453   3.052   3.695 -0.1426 -0.2489  0.0545
 4709TIP3   OH235617   6.784   2.169  16.402 -0.1341 -0.7205 -0.0427
 4709TIP3    H135618   6.796   2.232  16.331  0.8992  0.8304  1.4302
 4709TIP3    H235619   6.689   2.156  16.407 -0.3589  0.6161 -0.4721
 4710TIP3   OH235620   4.755   0.212  13.581 -0.1675 -0.4040 -0.0915
 4710TIP3    H135621   4.742   0.155  13.505 -0.3291  0.4408 -0.7092
 4710TIP3    H235622   4.782   0.296  13.544  2.4610 -0.7241  0.9224
 4711TIP3   OH235623   1.266   3.689   4.367 -0.5213  0.7363  0.6991
 4711TIP3    H135624   1.237   3.690   4.276  2.0607  3.6207 -0.2548
 4711TIP3    H235625   1.228   3.768   4.405  0.6699  1.0495  1.2887
 4712TIP3   OH235626   5.454   4.941  16.658  0.2625  0.3220  0.0822
 4712TIP3    H135627   5.394   4.996  16.709  0.1169 -0.5072  0.8413
 4712TIP3    H235628   5.428   4.955  16.567 -0.4197  0.7421  0.3312
 4713TIP3   OH235629   1.499   6.815  11.258 -0.2121 -0.1059  0.7897
 4713TIP3    H135630   1.546   6.734  11.241 -0.5540  0.0566 -1.1603
 4713TIP3    H235631   1.566   6.876  11.289  0.5645 -0.3469 -0.3723
 4714TIP3   OH235632   2.180   6.712   0.332 -0.2200  0.3009 -0.8690
 4714TIP3    H135633   2.215   6.642   0.387 -0.3288  2.2735  1.9422
 4714TIP3    H235634   2.101   6.741   0.378  1.1752  3.8864 -0.4273
 4715TIP3   OH235635   5.231   1.594  11.752  0.4646  0.4639 -0.9432
 4715TIP3    H135636   5.198   1.661  11.812 -0.4929 -1.5268  0.8784
 4715TIP3    H235637   5.163   1.527  11.751  1.0867 -0.2198 -3.2427
 4716TIP3   OH235638   6.043   6.005   5.153 -0.3850  0.0824 -0.5137
 4716TIP3    H135639   6.029   5.941   5.223 -0.0467  0.3108 -0.2368
 4716TIP3    H235640   5.994   6.082   5.180 -1.5920 -0.3674 -1.3040
 4717TIP3   OH235641   6.120   6.256   0.458 -0.2497 -0.3729  0.3437
 4717TIP3    H135642   6.068   6.334   0.439 -1.2315 -1.5158 -2.0511
 4717TIP3    H235643   6.081   6.187   0.405  0.4372 -2.6067  2.5296
 4718TIP3   OH235644   3.859   3.955   0.261 -0.3686  0.0028  0.2809
 4718TIP3    H135645   3.902   4.040   0.260  0.9891 -0.5971  1.8949
 4718TIP3    H235646   3.823   3.944   0.173 -0.1466  2.0052 -0.0985
 4719TIP3   OH235647   2.057   3.307   0.395 -0.2886 -0.5181  0.3167
 4719TIP3    H135648   2.099   3.379   0.443  1.6093 -0.8878 -0.6790
 4719TIP3    H235649   2.128   3.244   0.381 -1.3963 -1.5713 -0.7513
 4720TIP3   OH235650   3.665   5.472  14.628 -0.2407  0.0688  0.4868
 4720TIP3    H135651   3.709   5.465  14.713  1.0887 -1.4193 -0.2508
 4720TIP3    H235652   3.580   5.432  14.642 -0.2056  0.2323  1.2261
 4721TIP3   OH235653   2.824   6.550   5.834 -0.2384  0.0686  0.8038
 4721TIP3    H135654   2.771   6.495   5.777 -0.7288 -0.7790  2.0346
 4721TIP3    H235655   2.826   6.635   5.791 -0.6044 -0.5390 -0.4471
 4722TIP3   OH235656   1.387   0.324  15.615  0.1339  0.5226  0.6764
 4722TIP3    H135657   1.455   0.296  15.555 -1.9455  0.7475 -1.9556
 4722TIP3    H235658   1.392   0.260  15.687  0.9004 -1.5656 -1.1030
 4723TIP3   OH235659   2.821   2.325  14.785  0.3408 -0.2521  0.0080
 4723TIP3    H135660   2.738   2.287  14.813  0.4643 -0.2463  0.3880
 4723TIP3    H235661   2.807   2.419  14.788  0.5253 -0.2374  0.6002
 4724TIP3   OH235662   3.802   3.765   0.441  0.3254  0.0210  0.3185
 4724TIP3    H135663   3.867   3.694   0.437  1.1187  0.6564  1.4158
 4724TIP3    H235664   3.831   3.828   0.376 -0.4236 -0.6756 -0.7131
 4725TIP3   OH235665   4.242   1.124  11.617  0.0050  0.6504  0.2850
 4725TIP3    H135666   4.225   1.042  11.664  0.1819  0.8847  0.7678
 4725TIP3    H235667   4.155   1.155  11.591  0.0420 -0.6647 -1.6189
 4726TIP3   OH235668   6.216   5.544   1.475  0.6374 -0.4554 -0.2954
 4726TIP3    H135669   6.140   5.497   1.508 -0.2536 -1.0335 -2.9742
 4726TIP3    H235670   6.290   5.486   1.494 -0.3268 -2.6164 -2.6891
 4727TIP3   OH235671   0.030   5.330  15.464  0.3237  0.3341  0.0833
 4727TIP3    H135672   0.062   5.242  15.441 -1.4277 -0.7878  1.6486
 4727TIP3    H235673   0.027   5.377  15.381  3.6675 -0.1994 -0.4909
 4728TIP3   OH235674   1.905   1.585  10.517 -0.4664 -0.0664 -0.3648
 4728TIP3    H135675   1.966   1.641  10.567 -0.8023 -1.2498  1.4665
 4728TIP3    H235676   1.846   1.647  10.474 -0.1220  1.0331  0.6724
 4729TIP3   OH235677   2.174   4.526   4.796 -0.7581 -0.2290  0.0744
 4729TIP3    H135678   2.119   4.465   4.746 -0.9823 -0.7917  0.9721
 4729TIP3    H235679   2.115   4.561   4.863 -0.4780  0.5498 -0.0831
 4730TIP3   OH235680   5.673   4.649  10.838  0.2068 -0.2720 -0.8559
 4730TIP3    H135681   5.718   4.721  10.795  0.7138 -0.0308  0.0433
 4730TIP3    H235682   5.716   4.570  10.805  0.4442 -0.1044 -0.9460
 4731TIP3   OH235683   0.252   1.561   0.446 -0.5127  0.0268 -0.3562
 4731TIP3    H135684   0.277   1.487   0.501 -0.3254  0.1412 -0.2855
 4731TIP3    H235685   0.330   1.579   0.393 -0.4436  0.3855 -0.1349
 4732TIP3   OH235686   1.959   3.549  10.972 -0.1895  0.1516  0.5914
 4732TIP3    H135687   1.886   3.498  10.938  1.5785 -2.4056  0.3107
 4732TIP3    H235688   1.942   3.556  11.066 -2.3494  2.4630  0.1134
 4733TIP3   OH235689   0.254   6.438   1.268  0.2591 -0.4509  0.9522
 4733TIP3    H135690   0.264   6.501   1.340 -0.5766  0.7073  0.1058
 4733TIP3    H235691   0.317   6.468   1.203 -0.0311 -0.5912  0.6100
 4734TIP3   OH235692   0.066   6.322  15.064  0.1474 -0.2503  0.4937
 4734TIP3    H135693   0.006   6.248  15.069 -0.6657  0.3127 -0.5704
 4734TIP3    H235694   0.011   6.399  15.079  0.5370  0.2883 -0.7378
 4735TIP3   OH235695   2.761   5.919   3.359  0.2182  0.3727 -0.2814
 4735TIP3    H135696   2.706   5.978   3.410 -0.8497 -0.6213 -0.2219
 4735TIP3    H235697   2.850   5.942   3.383 -0.2192  1.0146  0.8023
 4736TIP3   OH235698   6.565   5.036   4.676 -0.3003  0.1318 -0.2503
 4736TIP3    H135699   6.559   5.066   4.767 -0.5561 -0.2405 -0.1384
 4736TIP3    H235700   6.656   5.051   4.651  0.4455 -2.0347  0.8872
 4737TIP3   OH235701   6.576   2.417  17.022 -0.0662  0.0222 -0.1312
 4737TIP3    H135702   6.652   2.384  16.975  0.3286 -0.4672  0.8136
 4737TIP3    H235703   6.588   2.512  17.024 -1.0082  0.2536 -2.5247
 4738TIP3   OH235704   0.138   4.144   3.539  0.2212 -0.1289 -0.5455
 4738TIP3    H135705   0.181   4.199   3.604  0.4004 -0.7662 -0.1169
 4738TIP3    H235706   0.045   4.153   3.558  0.1459  1.1383 -1.3846
 4739TIP3   OH235707   6.348   0.822  11.967  0.1162 -0.1592 -0.2878
 4739TIP3    H135708   6.287   0.820  11.893 -0.2618 -2.7420 -0.0315
 4739TIP3    H235709   6.330   0.740  12.014 -0.4949  1.8645  3.3751
 4740TIP3   OH235710   0.119   2.291  11.343 -0.3278 -0.3454  0.2999
 4740TIP3    H135711   0.078   2.307  11.259 -1.0708 -0.1685  0.6864
 4740TIP3    H235712   0.188   2.226  11.325  0.3459  0.6072 -0.6520
 4741TIP3   OH235713   2.480   6.419  16.801 -0.2493  0.1611  0.5409
 4741TIP3    H135714   2.409   6.365  16.767 -0.4860  0.9237 -0.2123
 4741TIP3    H235715   2.443   6.462  16.878 -0.4837  0.2642  0.3719
 4742TIP3   OH235716   3.652   1.316   1.090  0.7592  0.3586 -0.0066
 4742TIP3    H135717   3.626   1.260   1.017  0.4815  0.2468  0.1788
 4742TIP3    H235718   3.748   1.311   1.091  0.7085 -1.1077  0.7763
 4743TIP3   OH235719   0.842   0.374  11.703 -0.0230  0.2350 -0.4213
 4743TIP3    H135720   0.800   0.374  11.789 -0.3454  0.8982 -0.5749
 4743TIP3    H235721   0.795   0.440  11.653 -1.1510 -1.5034 -1.7708
 4744TIP3   OH235722   6.224   6.253   3.330  0.2484  0.2470  0.1829
 4744TIP3    H135723   6.305   6.275   3.377 -0.1181  1.1034  0.4439
 4744TIP3    H235724   6.161   6.232   3.399 -0.0692  0.7223  0.0427
 4745TIP3   OH235725   1.603   4.495   4.358  0.0080  0.4205  0.2921
 4745TIP3    H135726   1.646   4.460   4.280  0.1978  1.4868 -0.0976
 4745TIP3    H235727   1.524   4.538   4.325  0.4942  1.5658  0.5771
 4746TIP3   OH235728   4.497   4.419  11.604 -0.4376  0.1821  1.0525
 4746TIP3    H135729   4.402   4.413  11.591 -0.2189 -1.3154 -0.0947
 4746TIP3    H235730   4.535   4.396  11.519  0.9732 -1.4272  2.0571
 4747TIP3   OH235731   3.432   4.890   5.391 -0.8642 -0.4157 -0.4998
 4747TIP3    H135732   3.505   4.873   5.451 -0.8139  0.3730 -0.3262
 4747TIP3    H235733   3.463   4.858   5.307 -0.8725 -1.3895 -0.1415
 4748TIP3   OH235734   5.658   1.102   3.786  0.1871  0.3119  0.2951
 4748TIP3    H135735   5.657   1.152   3.705  0.0959  0.7276  0.5524
 4748TIP3    H235736   5.643   1.011   3.758  1.8371  0.1885 -0.3252
 4749TIP3   OH235737   0.105   2.423  10.755 -0.5898 -0.0277 -0.2007
 4749TIP3    H135738   0.014   2.451  10.751 -0.2803  0.9806 -0.4812
 4749TIP3    H235739   0.131   2.436  10.846 -0.5567  0.2345 -0.2483
 4750TIP3   OH235740   6.743   4.019  13.580  0.6218 -0.3253 -0.2065
 4750TIP3    H135741   6.826   4.028  13.627  0.7520  1.4931 -0.6985
 4750TIP3    H235742   6.768   3.996  13.491  0.6352  0.3601 -0.3905
 4751TIP3   OH235743   1.138   0.436  16.887  0.0439 -0.0564 -0.0577
 4751TIP3    H135744   1.101   0.469  16.969  0.0728 -1.5761  0.6144
 4751TIP3    H235745   1.065   0.436  16.826 -0.3985 -0.4272  0.4559
 4752TIP3   OH235746   5.194   2.059   0.035  0.5851 -0.1933 -0.0415
 4752TIP3    H135747   5.176   2.065   0.129 -1.4651  0.0053 -0.4106
 4752TIP3    H235748   5.109   2.041  -0.005  1.6389 -1.7107 -1.7572
 4753TIP3   OH235749   1.038   0.955   1.658  0.2320  0.0681  0.0413
 4753TIP3    H135750   0.992   1.028   1.618 -0.2595  0.7166  1.6925
 4753TIP3    H235751   1.063   0.899   1.585  0.7240  1.9268 -1.2805
 4754TIP3   OH235752   5.458   1.860   6.064  0.1575  0.1610  0.9115
 4754TIP3    H135753   5.411   1.807   6.128  0.2487 -1.4648 -0.3249
 4754TIP3    H235754   5.396   1.929   6.040 -0.5253 -0.2689  1.4091
 4755TIP3   OH235755   5.000   5.629   5.628 -0.1897 -0.3795  0.0625
 4755TIP3    H135756   5.089   5.663   5.621 -1.6045  3.7577 -0.2968
 4755TIP3    H235757   4.995   5.560   5.562  2.9854 -1.5570  0.8791
 4756TIP3   OH235758   4.875   0.750  14.398 -0.0848 -0.1361 -0.8706
 4756TIP3    H135759   4.794   0.702  14.384 -0.5472 -0.1710  1.5232
 4756TIP3    H235760   4.876   0.769  14.492  2.6525 -0.1095 -0.8095
 4757TIP3   OH235761   0.140   5.362  16.001 -0.0868 -0.6906  0.7765
 4757TIP3    H135762   0.174   5.393  15.917  0.7015 -0.2712  1.2341
 4757TIP3    H235763   0.060   5.412  16.014  0.4279  0.1556  0.8308
 4758TIP3   OH235764   5.676   5.870  14.769 -0.1422  0.2913  0.4012
 4758TIP3    H135765   5.710   5.958  14.786  0.8425  0.1300 -0.5722
 4758TIP3    H235766   5.754   5.815  14.764 -0.5918 -0.2773 -0.9227
 4759TIP3   OH235767   4.252   1.280  12.005 -0.3830  0.1360  0.4245
 4759TIP3    H135768   4.346   1.260  12.005 -0.6169 -1.0488  0.5503
 4759TIP3    H235769   4.224   1.264  12.095 -0.5851  1.1638  0.5572
 4760TIP3   OH235770   0.853   4.358  16.701 -0.5991  0.0231 -0.1306
 4760TIP3    H135771   0.782   4.340  16.639 -0.5675  1.3466 -0.5711
 4760TIP3    H235772   0.875   4.450  16.687  1.6699 -0.5056 -0.4805
 4761TIP3   OH235773   3.741   4.951  15.137  0.2861  0.1557 -0.4756
 4761TIP3    H135774   3.811   4.996  15.184 -0.3054  1.1842 -0.5591
 4761TIP3    H235775   3.779   4.866  15.114  0.1604 -1.0793  3.1298
 4762TIP3   OH235776   3.632   4.349  13.143 -0.1530 -0.0527 -0.3949
 4762TIP3    H135777   3.659   4.415  13.206  0.3632  0.6937 -1.3837
 4762TIP3    H235778   3.564   4.299  13.189  0.1242  0.5488  0.6995
 4763TIP3   OH235779   1.753   2.866  13.875 -0.5121  0.3748  0.2032
 4763TIP3    H135780   1.844   2.895  13.863 -0.6623  0.9227  0.3523
 4763TIP3    H235781   1.701   2.945  13.860 -0.8981  0.3157  1.2179
 4764TIP3   OH235782   4.708   5.242   5.172 -0.3356 -0.2565 -0.3646
 4764TIP3    H135783   4.681   5.250   5.081 -1.2817 -0.2809 -0.0950
 4764TIP3    H235784   4.794   5.200   5.168  1.0055  2.3915 -1.3766
 4765TIP3   OH235785   1.511   5.470   3.086 -0.6871 -0.0323  0.0296
 4765TIP3    H135786   1.495   5.535   3.018 -0.6098  0.8670  0.8415
 4765TIP3    H235787   1.567   5.515   3.149 -2.4680 -0.0711  1.7609
 4766TIP3   OH235788   1.580   1.491  16.109 -0.5853 -0.5333 -0.0805
 4766TIP3    H135789   1.518   1.505  16.180  1.2069  0.6728  1.3356
 4766TIP3    H235790   1.605   1.579  16.082 -0.2997 -0.9967 -1.3689
 4767TIP3   OH235791   4.691   6.698  11.071  0.2613 -0.5308 -0.3476
 4767TIP3    H135792   4.650   6.612  11.075  1.7059 -1.2147  0.8357
 4767TIP3    H235793   4.698   6.717  10.978  0.0746 -1.7747 -0.6344
 4768TIP3   OH235794   1.476   0.508   0.188  0.4871  0.6189  0.3197
 4768TIP3    H135795   1.401   0.533   0.242 -1.4282 -1.7472 -0.9947
 4768TIP3    H235796   1.448   0.527   0.098  0.3345 -2.4733 -0.4158
 4769TIP3   OH235797   5.976   0.337  15.159 -0.6662 -0.0749  0.4774
 4769TIP3    H135798   5.909   0.377  15.105 -0.8765 -0.1498  0.6809
 4769TIP3    H235799   5.995   0.402  15.227  2.0722  1.5310 -1.5999
 4770TIP3   OH235800   1.343   4.443  12.215  0.4451  0.0992  0.3201
 4770TIP3    H135801   1.423   4.488  12.186  0.2553  0.6730  0.6750
 4770TIP3    H235802   1.365   4.411  12.302  0.3720  0.0386  0.3163
 4771TIP3   OH235803   5.140   2.767  11.523 -0.3607  0.2243 -0.6763
 4771TIP3    H135804   5.219   2.784  11.471 -0.2156  0.2149 -0.4592
 4771TIP3    H235805   5.113   2.853  11.555  1.1812 -0.0616  1.5942
 4772TIP3   OH235806   4.535   1.245   0.617  0.3718  0.0622 -0.0759
 4772TIP3    H135807   4.457   1.289   0.583  0.1140 -1.5272 -1.6900
 4772TIP3    H235808   4.507   1.208   0.701 -0.5751 -0.3445 -0.5526
 4773TIP3   OH235809   1.820   2.174   3.520 -0.1113  0.0005 -0.0740
 4773TIP3    H135810   1.878   2.220   3.581 -0.5246 -0.0259  0.3442
 4773TIP3    H235811   1.874   2.161   3.442 -0.1907  1.8450 -0.4971
 4774TIP3   OH235812   1.567   1.208   1.538  0.2457  0.2016  0.4614
 4774TIP3    H135813   1.564   1.300   1.564 -0.2923  0.0783  0.8496
 4774TIP3    H235814   1.484   1.171   1.569  0.9148 -0.6723  1.2805
 4775TIP3   OH235815   5.399   1.941  14.955 -0.1108  0.0464 -0.3939
 4775TIP3    H135816   5.316   1.975  14.990  0.0533  1.0405 -0.9245
 4775TIP3    H235817   5.458   1.940  15.031 -0.4725 -0.2063 -0.1148
 4776TIP3   OH235818   4.714   0.569  14.699  0.4146  0.2589  0.2881
 4776TIP3    H135819   4.660   0.647  14.684  1.9314  1.3941  0.4887
 4776TIP3    H235820   4.679   0.532  14.780 -0.8558  0.2262 -0.2392
 4777TIP3   OH235821   6.366   0.748   6.069 -0.2722  0.3520  0.2288
 4777TIP3    H135822   6.287   0.788   6.031  0.3954  0.5764 -0.9878
 4777TIP3    H235823   6.412   0.711   5.994  0.7416  0.1555  0.9287
 4778TIP3   OH235824   2.053   3.120   1.633 -1.1843 -0.5759 -0.3561
 4778TIP3    H135825   2.059   3.032   1.596  1.4008 -0.1522 -1.1738
 4778TIP3    H235826   2.079   3.178   1.562 -0.1122  0.5934  0.9291
 4779TIP3   OH235827   0.470   1.035   0.497  0.0430 -0.0197 -0.4276
 4779TIP3    H135828   0.481   0.967   0.430  0.5859  0.6221 -1.0145
 4779TIP3    H235829   0.552   1.035   0.546  0.2299  0.5111 -0.7273
 4780TIP3   OH235830   5.397   1.108  14.306 -1.0067  0.0447 -0.5479
 4780TIP3    H135831   5.328   1.042  14.315 -1.6106  0.6505 -0.6383
 4780TIP3    H235832   5.367   1.165  14.235 -1.5757  1.6917  0.9196
 4781TIP3   OH235833   5.736   2.740   0.625  0.0349 -0.3978  0.5484
 4781TIP3    H135834   5.803   2.754   0.557  1.3090  0.5978  1.9570
 4781TIP3    H235835   5.714   2.828   0.655 -2.2604 -0.6637 -0.1302
 4782TIP3   OH235836   0.994   3.708  14.619 -0.0820 -0.4703  0.1294
 4782TIP3    H135837   0.993   3.802  14.632  0.9407 -0.5074  0.5894
 4782TIP3    H235838   0.903   3.685  14.603 -0.4494  0.4976  0.7488
 4783TIP3   OH235839   1.983   5.181   4.043  0.2940 -0.3549  0.1321
 4783TIP3    H135840   1.994   5.140   3.957 -0.8967 -1.1137  0.3287
 4783TIP3    H235841   2.044   5.255   4.041  0.5976 -0.6024 -1.2013
 4784TIP3   OH235842   6.348   1.291  14.941 -0.1919  0.1179  0.0287
 4784TIP3    H135843   6.370   1.203  14.970  0.3531  0.2026 -0.1152
 4784TIP3    H235844   6.327   1.281  14.848  0.4202  0.2198 -0.1286
 4785TIP3   OH235845   1.330   2.737   0.412  0.0891 -0.0108 -0.3727
 4785TIP3    H135846   1.259   2.739   0.347 -1.2878 -1.3213  0.9768
 4785TIP3    H235847   1.329   2.646   0.444  1.5823  0.2800  0.5584
 4786TIP3   OH235848   6.044   6.074  11.250  0.2966 -0.2927 -0.1182
 4786TIP3    H135849   6.074   6.011  11.316 -0.8059 -0.3869  0.3183
 4786TIP3    H235850   6.113   6.140  11.246  1.2702 -1.2958 -0.2751
 4787TIP3   OH235851   1.426   1.185  16.541  0.3008 -0.0673  0.7889
 4787TIP3    H135852   1.364   1.117  16.565  0.4583 -0.6255 -0.3206
 4787TIP3    H235853   1.403   1.208  16.451  0.7737  0.7665  0.8702
 4788TIP3   OH235854   2.523   2.334   3.984 -0.8849 -0.7092  1.0005
 4788TIP3    H135855   2.608   2.377   3.991 -0.5298 -0.8217 -1.6536
 4788TIP3    H235856   2.542   2.241   3.994 -0.7083 -0.7199  0.5848
 4789TIP3   OH235857   3.325   4.694   4.064  0.1684 -0.6372  0.1036
 4789TIP3    H135858   3.340   4.644   4.144 -0.1481 -0.4504  0.2776
 4789TIP3    H235859   3.348   4.784   4.087  0.0739 -0.5822 -0.0139
 4790TIP3   OH235860   1.556   0.342  12.640 -0.4278 -0.5428  0.4910
 4790TIP3    H135861   1.503   0.381  12.709 -0.0021  0.5946  0.1945
 4790TIP3    H235862   1.563   0.410  12.573  1.5564 -0.5599  0.6049
 4791TIP3   OH235863   1.534   5.312   2.239  0.5292  0.4524  0.6820
 4791TIP3    H135864   1.621   5.330   2.275  1.7229 -1.4578 -1.0440
 4791TIP3    H235865   1.544   5.321   2.145 -1.0873 -0.0920  0.4170
 4792TIP3   OH235866   4.440   4.633  12.136 -0.3145 -0.5902 -0.5105
 4792TIP3    H135867   4.406   4.702  12.193  1.2620 -0.1860 -0.0068
 4792TIP3    H235868   4.441   4.555  12.191  2.2560  0.0369  0.4731
 4793TIP3   OH235869   6.778   3.239  13.052 -0.5512 -0.2330 -0.9054
 4793TIP3    H135870   6.789   3.292  12.973  1.9353  1.1356  0.2254
 4793TIP3    H235871   6.857   3.257  13.104 -2.5495 -0.2087  2.3994
 4794TIP3   OH235872   1.014   4.382   3.005 -0.0697 -0.3360 -0.2788
 4794TIP3    H135873   1.079   4.319   3.038 -0.3245 -0.6420 -0.3568
 4794TIP3    H235874   0.981   4.342   2.924 -1.1749 -0.7306  0.3493
 4795TIP3   OH235875   2.283   3.948  15.788 -0.1371 -0.3620  0.4355
 4795TIP3    H135876   2.202   3.937  15.738  0.6040  1.0635 -1.1889
 4795TIP3    H235877   2.343   3.882  15.753  1.0368  1.8815 -2.1543
 4796TIP3   OH235878   0.827   2.152   4.088  0.0828 -0.6504 -0.3164
 4796TIP3    H135879   0.769   2.225   4.066 -1.0344 -1.6978 -1.0121
 4796TIP3    H235880   0.816   2.090   4.016  0.3728 -1.8641  0.6369
 4797TIP3   OH235881   6.628   3.987   4.521  0.1558 -0.5149 -0.0660
 4797TIP3    H135882   6.636   4.034   4.438 -1.4833 -0.9404 -0.5106
 4797TIP3    H235883   6.711   3.940   4.531  0.4312 -0.3450 -1.3943
 4798TIP3   OH235884   4.596   2.011  10.946 -0.5434  0.0645 -0.0385
 4798TIP3    H135885   4.501   2.016  10.948 -0.6375 -0.9965 -0.8843
 4798TIP3    H235886   4.624   2.095  10.910 -1.2079  0.0202 -0.6721
 4799TIP3   OH235887   4.258   3.501   2.992 -0.1263 -0.2855  0.7260
 4799TIP3    H135888   4.290   3.585   3.024  1.1338  0.5621 -2.3915
 4799TIP3    H235889   4.209   3.523   2.913  1.3782 -2.5550 -0.9203
 4800TIP3   OH235890   1.784   4.769  10.923  0.3758  0.4867  0.3460
 4800TIP3    H135891   1.757   4.756  10.832 -0.8682  0.0230  0.7674
 4800TIP3    H235892   1.817   4.684  10.950 -1.9427 -0.2089  1.1843
 4801TIP3   OH235893   5.205   0.299  14.087  0.4397 -0.2381  0.7128
 4801TIP3    H135894   5.244   0.289  14.001 -1.5307 -0.3297 -0.2284
 4801TIP3    H235895   5.247   0.377  14.124  1.9597 -0.7301  0.0775
 4802TIP3   OH235896   0.049   5.373   3.555 -0.5105 -0.2299 -0.5823
 4802TIP3    H135897   0.026   5.433   3.484  0.0173  1.3279  0.4890
 4802TIP3    H235898   0.013   5.415   3.634 -2.5898 -2.7400 -0.0547
 4803TIP3   OH235899   1.936   1.468   0.128 -0.0633  0.5997 -0.2992
 4803TIP3    H135900   1.922   1.551   0.173 -0.4288  0.8668 -0.8902
 4803TIP3    H235901   1.956   1.406   0.198  0.4339  1.2258  0.1296
 4804TIP3   OH235902   6.255   4.658   0.040 -0.6918 -0.3790  0.1176
 4804TIP3    H135903   6.179   4.675   0.095  0.0610 -0.6582  1.2913
 4804TIP3    H235904   6.315   4.610   0.097  0.3163 -0.2476 -0.8078
 4805TIP3   OH235905   2.153   1.390  13.656  0.1756 -0.0491  0.5584
 4805TIP3    H135906   2.213   1.393  13.582 -2.8738 -0.3322 -2.1449
 4805TIP3    H235907   2.124   1.481  13.667 -1.0972 -0.3333 -0.2124
 4806TIP3   OH235908   6.457   1.495   1.219 -0.3309 -0.4037 -0.3317
 4806TIP3    H135909   6.472   1.566   1.156 -2.5968 -1.5450 -2.3244
 4806TIP3    H235910   6.369   1.464   1.199 -0.7119 -1.5807  2.7444
 4807TIP3   OH235911   6.587   3.358  10.942  0.0653 -0.3942 -0.2312
 4807TIP3    H135912   6.653   3.414  10.983 -0.4770  0.3621 -0.3644
 4807TIP3    H235913   6.599   3.372  10.848 -0.2912 -0.2517 -0.2548
 4808TIP3   OH235914   3.423   6.372   2.135  0.3045 -0.1795 -0.3735
 4808TIP3    H135915   3.424   6.336   2.224 -2.2285 -0.3261 -0.3512
 4808TIP3    H235916   3.417   6.295   2.078  2.9979 -0.1636 -0.8207
 4809TIP3   OH235917   4.853   4.931  13.971  0.1470 -0.1325 -0.5505
 4809TIP3    H135918   4.758   4.925  13.965  0.1278  0.3393 -0.7578
 4809TIP3    H235919   4.871   4.961  14.060  0.0981 -0.1395 -0.5383
 4810TIP3   OH235920   0.731   1.634   3.540 -0.4886 -0.4078  0.0681
 4810TIP3    H135921   0.736   1.639   3.444 -0.8012 -2.0482 -0.0561
 4810TIP3    H235922   0.638   1.643   3.560 -0.2594  1.7838  0.3866
 4811TIP3   OH235923   5.146   4.283  15.122 -0.8575 -0.1505  0.2704
 4811TIP3    H135924   5.080   4.285  15.053 -0.6171  2.2839  0.0255
 4811TIP3    H235925   5.096   4.286  15.203 -1.1281  1.2494  0.0889
 4812TIP3   OH235926   4.580   1.742  14.272 -0.4770  0.1115  0.1538
 4812TIP3    H135927   4.666   1.784  14.275 -0.4916  0.1163  0.4441
 4812TIP3    H235928   4.599   1.650  14.254 -0.4958  0.4521 -1.8444
 4813TIP3   OH235929   2.978   5.040   1.558  0.1400 -0.8198 -0.0976
 4813TIP3    H135930   2.958   5.036   1.465 -1.2884 -1.4631  0.2086
 4813TIP3    H235931   2.957   5.130   1.583  2.0884 -0.1527 -0.6873
 4814TIP3   OH235932   2.714   1.966  13.142 -0.1045  0.1265 -0.1337
 4814TIP3    H135933   2.776   1.895  13.159 -0.0010 -0.0407 -1.1337
 4814TIP3    H235934   2.715   2.019  13.221  1.1507 -0.0066 -0.0474
 4815TIP3   OH235935   0.299   2.329   0.883  0.0407 -0.3913  0.5640
 4815TIP3    H135936   0.336   2.279   0.956  1.1523  0.4958  0.6406
 4815TIP3    H235937   0.208   2.342   0.907 -0.8291 -3.8455 -0.2688
 4816TIP3   OH235938   0.500   3.493  14.961 -0.0862 -0.5009 -0.3962
 4816TIP3    H135939   0.523   3.430  15.030  0.7552  1.1162  0.8941
 4816TIP3    H235940   0.529   3.452  14.880  3.4438 -0.5217  0.6885
 4817TIP3   OH235941   3.654   3.077   5.433  0.0850  0.1587  0.3580
 4817TIP3    H135942   3.706   2.997   5.427  0.9537  0.5390  2.1287
 4817TIP3    H235943   3.568   3.048   5.463  0.0608 -0.2050 -0.0509
 4818TIP3   OH235944   5.345   6.698  15.781 -0.3436  0.1048  0.4155
 4818TIP3    H135945   5.330   6.623  15.724  0.5579 -0.1095  0.4443
 4818TIP3    H235946   5.259   6.719  15.816 -0.4827 -1.4694  1.1023
 4819TIP3   OH235947   4.154   6.095   1.982 -0.2837  0.2334  0.0008
 4819TIP3    H135948   4.189   6.047   2.058 -0.9507 -0.3515 -0.0523
 4819TIP3    H235949   4.116   6.027   1.926  0.4927  0.6173 -1.0291
 4820TIP3   OH235950   3.165   1.590   2.254 -0.3149  0.0053 -0.3709
 4820TIP3    H135951   3.248   1.638   2.253 -0.2614  0.0562 -3.2042
 4820TIP3    H235952   3.108   1.643   2.310  0.9992  1.0155  0.0734
 4821TIP3   OH235953   6.495   4.987  16.182 -0.1489 -0.1636 -0.4254
 4821TIP3    H135954   6.463   5.014  16.096  0.8775 -1.4666 -1.2563
 4821TIP3    H235955   6.501   4.892  16.176  0.8507 -0.1900  0.7676
 4822TIP3   OH235956   1.776   6.579   5.989  0.0884  0.1600  0.1992
 4822TIP3    H135957   1.866   6.549   6.001  0.3768  0.5598 -0.9050
 4822TIP3    H235958   1.777   6.626   5.906 -1.1590  0.0993  0.1372
 4823TIP3   OH235959   4.372   1.969  15.239  0.7239  0.1057  0.4172
 4823TIP3    H135960   4.441   2.017  15.285 -0.9216  1.8572  1.1463
 4823TIP3    H235961   4.324   2.036  15.190  1.9747 -1.5559 -3.5145
 4824TIP3   OH235962   0.954   3.518  11.476 -0.3295 -0.3609  0.3539
 4824TIP3    H135963   0.988   3.535  11.563  0.0626  0.1324  0.1080
 4824TIP3    H235964   0.906   3.435  11.485 -0.9208  0.0585  1.2056
 4825TIP3   OH235965   1.422   6.021   6.350 -0.7524 -0.2143  0.4204
 4825TIP3    H135966   1.375   5.965   6.288 -1.4672  0.5919  0.2131
 4825TIP3    H235967   1.509   5.980   6.358 -1.3198 -1.4693  0.4638
 4826TIP3   OH235968   1.707   0.772  15.435 -0.1805  0.1262  0.3851
 4826TIP3    H135969   1.751   0.849  15.471 -3.3086  2.4772 -0.3845
 4826TIP3    H235970   1.662   0.734  15.511 -1.6395  1.3502  0.1885
 4827TIP3   OH235971   2.146   4.128   5.575 -0.3121  0.2596  0.4600
 4827TIP3    H135972   2.232   4.087   5.584 -0.2218 -0.5048 -2.9021
 4827TIP3    H235973   2.084   4.056   5.587 -0.2854 -0.1182 -1.4452
 4828TIP3   OH235974   0.976   5.389  11.197  0.0156  0.3144  0.5526
 4828TIP3    H135975   0.987   5.295  11.181  2.6443  0.5572  0.5324
 4828TIP3    H235976   0.882   5.400  11.213 -0.8599 -1.8671 -2.2689
 4829TIP3   OH235977   6.214   6.460   0.884 -0.0374 -0.7554 -0.6606
 4829TIP3    H135978   6.135   6.414   0.857 -0.6454 -1.4726  2.0685
 4829TIP3    H235979   6.278   6.390   0.900 -0.0304 -0.4607  0.6725
 4830TIP3   OH235980   2.232   1.312  11.757  0.1346 -0.2552  0.0394
 4830TIP3    H135981   2.323   1.339  11.753 -0.0204  0.2631 -0.0806
 4830TIP3    H235982   2.187   1.384  11.803 -0.4794  0.2510 -1.2863
 4831TIP3   OH235983   1.397   0.298  13.418 -0.0854 -0.0725 -0.3088
 4831TIP3    H135984   1.377   0.377  13.368  2.3356  0.4525 -0.6110
 4831TIP3    H235985   1.421   0.330  13.505  0.7626 -0.4499 -0.3874
 4832TIP3   OH235986   0.839   5.622   3.062 -0.0083 -0.4023 -0.3216
 4832TIP3    H135987   0.793   5.626   3.146  0.5658  2.0367 -0.0313
 4832TIP3    H235988   0.818   5.706   3.020  2.0409 -0.3274 -1.3160
 4833TIP3   OH235989   0.576   4.723  15.535 -0.1837 -0.0377 -0.2481
 4833TIP3    H135990   0.518   4.792  15.568 -0.1009  0.6298 -1.4174
 4833TIP3    H235991   0.584   4.661  15.607 -1.7814  0.2155  0.1850
 4834TIP3   OH235992   5.071   2.810   2.216 -0.1684  0.2230  1.0497
 4834TIP3    H135993   5.030   2.723   2.221  0.7950 -0.4009 -0.9514
 4834TIP3    H235994   5.132   2.812   2.290 -1.3897 -0.1253  2.0977
 4835TIP3   OH235995   1.714   3.255   4.627  0.0631 -0.1650  0.9260
 4835TIP3    H135996   1.718   3.325   4.563 -0.5095  0.9207  2.0492
 4835TIP3    H235997   1.651   3.285   4.693  1.6246 -0.6251  2.7085
 4836TIP3   OH235998   1.423   4.331  16.040 -0.0034  0.6891  0.0547
 4836TIP3    H135999   1.489   4.341  15.971  0.0588  1.1815  0.1845
 4836TIP3    H236000   1.397   4.420  16.062 -1.0504  0.4869 -0.3046
 4837TIP3   OH236001   5.954   2.330   0.143  0.0907  0.0368 -0.1348
 4837TIP3    H136002   6.018   2.288   0.201  0.7071 -0.1186 -0.9108
 4837TIP3    H236003   5.876   2.274   0.149  0.4032 -0.3920 -0.0209
 4838TIP3   OH236004   0.415   3.900  14.732  0.0689 -0.0375  0.7036
 4838TIP3    H136005   0.364   3.914  14.812  1.1127 -1.5997  1.6916
 4838TIP3    H236006   0.499   3.941  14.749 -0.9241  3.1310 -1.1870
 4839TIP3   OH236007   1.220   2.002   4.109 -0.5469  0.0668  0.5786
 4839TIP3    H136008   1.312   1.975   4.120 -0.7745 -1.3707 -0.8003
 4839TIP3    H236009   1.218   2.043   4.022 -1.0641  0.8702  0.9576
 4840TIP3   OH236010   4.935   2.976   5.844 -0.0200  0.3440 -0.0074
 4840TIP3    H136011   4.958   2.970   5.937 -1.7034 -0.3326  0.4086
 4840TIP3    H236012   4.919   3.070   5.830  0.9828  0.5545  0.1745
 4841TIP3   OH236013   0.740   6.210   2.340 -0.0082 -0.3735 -0.0094
 4841TIP3    H136014   0.732   6.288   2.286  1.4392 -0.2313 -0.0480
 4841TIP3    H236015   0.777   6.144   2.282  0.5620 -0.5313  0.5235
 4842TIP3   OH236016   2.251   0.803  16.319 -0.1453  0.0600 -0.5835
 4842TIP3    H136017   2.325   0.847  16.360 -0.4470 -0.4710  0.5615
 4842TIP3    H236018   2.210   0.871  16.265 -0.3754  1.0887  0.8416
 4843TIP3   OH236019   1.052   1.378  16.112  0.2556 -0.3162  0.4082
 4843TIP3    H136020   1.106   1.314  16.066  1.3900  0.6966  0.2493
 4843TIP3    H236021   1.114   1.448  16.136 -1.1599  1.3734 -0.6378
 4844TIP3   OH236022   6.649   2.055  10.212 -0.6011  0.2975 -0.3582
 4844TIP3    H136023   6.711   2.117  10.174  0.2665 -1.0512 -1.2602
 4844TIP3    H236024   6.674   1.971  10.174 -3.5311 -0.1836 -1.4452
 4845TIP3   OH236025   2.567   4.752   1.710  0.0159 -0.2880  0.4612
 4845TIP3    H136026   2.604   4.683   1.765  1.3010 -0.3747 -0.4532
 4845TIP3    H236027   2.619   4.830   1.731 -0.2963 -0.0273  0.2673
 4846TIP3   OH236028   0.079   1.485   0.081  0.3545 -0.5481  0.4853
 4846TIP3    H136029   0.103   1.406   0.031  1.1885  0.6556 -1.1071
 4846TIP3    H236030   0.098   1.557   0.022  0.0582  0.8986  2.0807
 4847TIP3   OH236031   5.382   3.023  13.197  0.4138 -0.3137  0.0282
 4847TIP3    H136032   5.320   3.086  13.235  0.8247 -0.0130  0.2075
 4847TIP3    H236033   5.351   3.011  13.107  1.2317  1.3606 -0.5212
 4848TIP3   OH236034   2.376   0.267  13.718 -0.6372  0.4428 -0.2506
 4848TIP3    H136035   2.327   0.292  13.640 -1.1882  0.0261 -0.0399
 4848TIP3    H236036   2.341   0.182  13.743 -3.0968  2.0960  2.5867
 4849TIP3   OH236037   0.299   6.712  11.853 -0.0932  0.6200  0.1865
 4849TIP3    H136038   0.264   6.774  11.918  1.2746  1.1495  0.4385
 4849TIP3    H236039   0.284   6.755  11.769 -0.6548  0.5294  0.2322
 4850TIP3   OH236040   1.038   5.637   1.617  0.0691  0.4575  0.4935
 4850TIP3    H136041   1.050   5.591   1.700 -4.0720  0.6130  1.4195
 4850TIP3    H236042   1.031   5.729   1.642 -0.9783  0.5294  0.0084
 4851TIP3   OH236043   2.998   0.283   1.362  0.6538  0.0363 -0.0771
 4851TIP3    H136044   3.079   0.292   1.413 -0.3783  0.3101  1.6119
 4851TIP3    H236045   2.943   0.226   1.416 -0.9097  1.2328 -0.3487
 4852TIP3   OH236046   5.175   5.865   0.417  0.5174  0.0449  0.0466
 4852TIP3    H136047   5.228   5.941   0.440 -1.0726  0.4579  2.7392
 4852TIP3    H236048   5.234   5.791   0.426  1.1104  0.6409  1.2532
 4853TIP3   OH236049   0.585   2.263   0.312  0.3420  0.5679  0.8656
 4853TIP3    H136050   0.509   2.214   0.281  0.7762 -0.5071  1.4505
 4853TIP3    H236051   0.574   2.266   0.407  0.8663  0.6836  0.9225
 4854TIP3   OH236052   0.018   0.271   0.304  0.3690  0.2752 -0.0201
 4854TIP3    H136053   0.020   0.367   0.303 -2.0209  0.4134  1.1634
 4854TIP3    H236054  -0.055   0.249   0.362 -0.6486 -2.2607 -2.0644
 4855TIP3   OH236055   5.142   4.775   5.289  0.0042  0.2177  0.0521
 4855TIP3    H136056   5.050   4.784   5.312  0.3689  2.1809  1.0083
 4855TIP3    H236057   5.160   4.851   5.234  0.9437 -0.4026 -0.5286
 4856TIP3   OH236058   4.995   0.633   4.843  0.1187  0.6677 -0.5520
 4856TIP3    H136059   4.969   0.721   4.815 -2.2199  0.0687 -0.4711
 4856TIP3    H236060   4.995   0.581   4.762 -2.3313 -0.0689 -0.1631
 4857TIP3   OH236061   1.455   0.224   5.770 -0.1846 -0.3409  0.8172
 4857TIP3    H136062   1.371   0.211   5.814  0.3471 -3.1761  1.1762
 4857TIP3    H236063   1.505   0.280   5.829 -0.9094 -0.7978  1.8894
 4858TIP3   OH236064   5.756   1.766   5.368 -0.0414 -0.0272  0.0000
 4858TIP3    H136065   5.842   1.797   5.395 -0.3198  1.1171 -0.3690
 4858TIP3    H236066   5.774   1.703   5.299  0.4902  0.8559 -0.6930
 4859TIP3   OH236067   4.064   3.731   0.636  0.3412 -0.0402 -0.4372
 4859TIP3    H136068   4.015   3.660   0.596  1.5269 -0.5706 -1.0004
 4859TIP3    H236069   4.036   3.731   0.728  0.5112 -1.4004 -0.3639
 4860TIP3   OH236070   2.291   6.605   2.307 -0.1848  0.6030 -0.0879
 4860TIP3    H136071   2.295   6.511   2.287 -0.3966  0.5047  0.3352
 4860TIP3    H236072   2.323   6.647   2.227  0.9082  0.1347  0.0846
 4861TIP3   OH236073   0.107   2.964  12.454  0.0737 -0.2879 -0.4789
 4861TIP3    H136074   0.165   2.892  12.479 -0.7398 -1.5259 -1.9213
 4861TIP3    H236075   0.129   2.981  12.362 -0.5948  0.4631 -0.5099
 4862TIP3   OH236076   5.459   6.346   2.024  0.2061  0.0988 -0.5379
 4862TIP3    H136077   5.428   6.390   2.104  0.5338 -0.8322  0.1165
 4862TIP3    H236078   5.516   6.276   2.056  2.2978  1.1998 -1.6720
 4863TIP3   OH236079   0.105   1.388   2.836  0.3994 -0.0611 -0.2977
 4863TIP3    H136080   0.168   1.423   2.773 -0.8452  0.0713 -1.5149
 4863TIP3    H236081   0.156   1.326   2.888  1.6778  0.5072 -0.8089
 4864TIP3   OH236082   4.987   2.570  16.751 -0.5410 -0.2174 -0.7643
 4864TIP3    H136083   4.958   2.479  16.756 -3.4209  0.6701  1.9134
 4864TIP3    H236084   4.913   2.616  16.710  0.1242  1.1339 -0.4974
 4865TIP3   OH236085   2.329   3.037  11.411  0.5626  0.3753  0.2395
 4865TIP3    H136086   2.307   3.012  11.501 -2.3949 -1.1388 -0.7864
 4865TIP3    H236087   2.343   2.954  11.365  0.5024  1.0466 -1.0438
 4866TIP3   OH236088   4.501   4.791  15.838  0.4331  0.1674 -0.4808
 4866TIP3    H136089   4.471   4.768  15.926 -1.0723  1.9395 -0.4871
 4866TIP3    H236090   4.517   4.707  15.795  1.4188 -0.7390  1.5206
 4867TIP3   OH236091   1.397   4.647   4.011 -0.3101  0.9479  0.8149
 4867TIP3    H136092   1.330   4.704   3.972 -0.9376 -1.2207 -1.5237
 4867TIP3    H236093   1.473   4.657   3.955  0.1219  0.6797  1.3428
 4868TIP3   OH236094   5.052   1.891  15.810 -0.6413  0.3773 -0.3261
 4868TIP3    H136095   5.084   1.858  15.894 -0.9763  1.9964  0.4719
 4868TIP3    H236096   5.057   1.815  15.752 -0.1014 -0.7057  1.0571
 4869TIP3   OH236097   4.561   6.621   1.490 -0.5216  0.0634 -0.6243
 4869TIP3    H136098   4.507   6.573   1.428 -1.3209 -0.9040  0.7496
 4869TIP3    H236099   4.643   6.636   1.444 -0.9080 -1.0412 -1.7392
 4870TIP3   OH236100   4.318   5.599   4.456 -0.4175 -0.2646  0.2133
 4870TIP3    H136101   4.303   5.616   4.549  0.8409 -0.2666  0.4290
 4870TIP3    H236102   4.361   5.678   4.423 -0.1616 -0.5653 -0.1912
 4871TIP3   OH236103   1.293   4.850  13.828  0.5915 -0.4161 -0.0521
 4871TIP3    H136104   1.267   4.874  13.739  0.5005 -1.1384 -0.2317
 4871TIP3    H236105   1.242   4.908  13.884 -0.5456 -1.0112 -0.4359
 4872TIP3   OH236106   6.740   1.224  15.899 -0.1307 -0.5792  0.0160
 4872TIP3    H136107   6.828   1.222  15.938  0.0609  1.5978 -0.1942
 4872TIP3    H236108   6.692   1.287  15.952 -1.4408 -1.3491 -0.2081
 4873TIP3   OH236109   2.994   4.374   4.986  0.9732  0.1122 -0.1672
 4873TIP3    H136110   3.074   4.352   4.938  0.7963 -0.0223 -0.4056
 4873TIP3    H236111   2.924   4.339   4.932  0.8224 -0.9826  0.7070
 4874TIP3   OH236112   3.107   2.535  11.758  0.2879 -0.2651  0.0988
 4874TIP3    H136113   3.126   2.602  11.692  1.3413  0.4836  1.1085
 4874TIP3    H236114   3.037   2.482  11.720 -0.7565  1.5612 -0.6362
 4875TIP3   OH236115   3.773   2.680   4.337  0.1276  0.0038  0.2381
 4875TIP3    H136116   3.797   2.711   4.250 -0.6360  1.4308  0.5143
 4875TIP3    H236117   3.680   2.700   4.346 -0.4417 -2.3849  0.4772
 4876TIP3   OH236118   3.970   2.293  13.331 -0.5674  0.5566  0.0217
 4876TIP3    H136119   3.909   2.242  13.383  0.2184 -0.3270  0.1087
 4876TIP3    H236120   3.924   2.375  13.313 -0.8969  0.8458  1.9938
 4877TIP3   OH236121   4.533   3.750   2.799  0.5143 -0.2760  0.3972
 4877TIP3    H136122   4.460   3.692   2.776 -1.4752  1.0040  3.0077
 4877TIP3    H236123   4.502   3.838   2.777  0.3629  0.4968  3.3567
 4878TIP3   OH236124   6.371   4.196  13.968  0.2034 -0.0461 -0.0853
 4878TIP3    H136125   6.337   4.106  13.970  0.3337 -0.1193 -0.8827
 4878TIP3    H236126   6.407   4.206  13.880  2.2794  0.0238  0.7263
 4879TIP3   OH236127   3.357   5.690   3.966  0.0565 -0.3759  0.2127
 4879TIP3    H136128   3.453   5.694   3.959  0.1722  0.7171  1.8109
 4879TIP3    H236129   3.328   5.779   3.946 -0.7758 -1.0001 -1.5646
 4880TIP3   OH236130   2.665   0.044   4.898  0.0660  0.4339 -0.4743
 4880TIP3    H136131   2.751   0.019   4.865  0.8984  2.1754  0.2374
 4880TIP3    H236132   2.620   0.080   4.821  0.6083  1.0380 -0.5243
 4881TIP3   OH236133   0.369   1.933  15.600 -0.2019  0.1180 -0.3903
 4881TIP3    H136134   0.456   1.971  15.605  0.3190 -1.2197  1.8271
 4881TIP3    H236135   0.350   1.928  15.506  2.4228 -0.2747 -0.9634
 4882TIP3   OH236136   6.439   2.858   0.449  0.8404 -0.4064  0.4489
 4882TIP3    H136137   6.378   2.908   0.396  1.8268 -0.1081 -0.4313
 4882TIP3    H236138   6.385   2.790   0.489  0.1391 -0.9542 -1.3201
 4883TIP3   OH236139   4.288   0.205  12.863  0.0364  0.3068 -0.8190
 4883TIP3    H136140   4.230   0.175  12.793  0.8749 -1.7978 -0.6704
 4883TIP3    H236141   4.229   0.227  12.935 -0.6559 -3.2869 -0.0919
 4884TIP3   OH236142   0.258   1.895   2.086  0.6860  0.1294 -0.0996
 4884TIP3    H136143   0.305   1.948   2.150  1.3192 -0.6736  0.1125
 4884TIP3    H236144   0.321   1.829   2.058 -0.0516 -0.4514 -0.4381
 4885TIP3   OH236145   3.655   6.422  11.616  0.5063  0.2075 -0.1103
 4885TIP3    H136146   3.588   6.415  11.547  0.3671  0.2194  0.0237
 4885TIP3    H236147   3.723   6.477  11.577  0.8835 -0.5800 -0.5922
 4886TIP3   OH236148   3.540   6.288   3.943  0.8259 -0.0151 -0.1078
 4886TIP3    H136149   3.532   6.225   4.015 -0.3964 -0.7669 -0.8501
 4886TIP3    H236150   3.521   6.373   3.982  1.4045 -0.2572  0.6984
 4887TIP3   OH236151   6.428   1.856  15.042 -0.4877 -0.1442  0.0049
 4887TIP3    H136152   6.442   1.932  14.986  2.1329 -0.7929 -0.3346
 4887TIP3    H236153   6.471   1.880  15.125 -2.4061 -0.0655  1.0349
 4888TIP3   OH236154   0.345   5.961   1.469 -0.2705 -0.2789 -0.1266
 4888TIP3    H136155   0.336   6.011   1.388 -1.9942  2.2516  1.4825
 4888TIP3    H236156   0.257   5.926   1.485 -0.2977  0.3503  1.2521
 4889TIP3   OH236157   3.178   2.479  12.648 -0.2215 -0.1526 -0.0002
 4889TIP3    H136158   3.110   2.412  12.647 -0.4598  0.0915 -0.6775
 4889TIP3    H236159   3.136   2.556  12.611  1.0879 -0.6787 -2.8862
 4890TIP3   OH236160   0.914   6.317  17.074 -0.2629  0.1730  0.2821
 4890TIP3    H136161   0.994   6.367  17.090 -0.0693 -0.3087  0.9166
 4890TIP3    H236162   0.883   6.295  17.162 -1.6400  1.1858  0.0712
 4891TIP3   OH236163   3.562   0.466   0.696 -0.1534 -0.2447 -0.2548
 4891TIP3    H136164   3.574   0.457   0.602  1.7893 -0.7869 -0.0024
 4891TIP3    H236165   3.582   0.379   0.731 -0.5457  0.0275  0.7003
 4892TIP3   OH236166   3.597   6.710  11.234  0.5576  0.0744 -0.0948
 4892TIP3    H136167   3.680   6.754  11.254  0.0496  0.9978  0.0282
 4892TIP3    H236168   3.593   6.710  11.138  1.8496 -2.2047 -0.2288
 4893TIP3   OH236169   1.495   6.083   1.513  0.1363  0.4794  0.3911
 4893TIP3    H136170   1.588   6.074   1.533  0.3576 -0.0110 -0.7480
 4893TIP3    H236171   1.465   5.993   1.502  0.2850  0.6800 -2.3576
 4894TIP3   OH236172   0.462   2.694   2.364  0.2644  0.1201 -0.5828
 4894TIP3    H136173   0.421   2.656   2.287 -0.6735  0.3075 -0.1906
 4894TIP3    H236174   0.551   2.656   2.365  0.2205 -0.0431 -1.6191
 4895TIP3   OH236175   5.004   3.754   1.950  0.0580  0.2830 -0.4405
 4895TIP3    H136176   4.958   3.815   2.006  0.3149  0.2574 -0.1996
 4895TIP3    H236177   5.068   3.808   1.903 -0.4521  0.3794 -1.0416
 4896TIP3   OH236178   4.694   1.109   5.677  0.5442  0.3881 -0.3466
 4896TIP3    H136179   4.745   1.167   5.733 -0.5630 -0.1539  1.3191
 4896TIP3    H236180   4.750   1.033   5.664  0.3985 -0.0110  1.0950
 4897TIP3   OH236181   5.557   5.109   5.732  0.1006  0.0439 -0.2118
 4897TIP3    H136182   5.487   5.146   5.785 -0.0060  0.0285 -0.3406
 4897TIP3    H236183   5.517   5.094   5.646  0.4607  0.7468 -0.5103
 4898TIP3   OH236184   0.868   2.353   2.109  0.2316  0.2808 -0.4731
 4898TIP3    H136185   0.959   2.380   2.122  0.4905 -0.7023 -0.0942
 4898TIP3    H236186   0.873   2.285   2.041 -0.4158  1.2937 -1.5622
 4899TIP3   OH236187   3.782   1.806  12.927  0.0105 -0.1450 -0.1546
 4899TIP3    H136188   3.854   1.850  12.881  1.3321 -2.1939 -0.1659
 4899TIP3    H236189   3.815   1.718  12.944 -2.3131 -0.9773  0.3509
 4900TIP3   OH236190   2.549   4.849  10.718 -0.4495 -0.0576 -1.0489
 4900TIP3    H136191   2.480   4.787  10.696 -0.9552  0.6757 -1.5542
 4900TIP3    H236192   2.505   4.934  10.723 -0.0653  0.0826  1.1463
 4901TIP3   OH236193   0.304   2.435  10.557 -0.0225 -0.2983 -0.5542
 4901TIP3    H136194   0.298   2.340  10.548  2.6303 -0.9067  2.4245
 4901TIP3    H236195   0.235   2.458  10.618  1.3600 -0.9135  1.3297
 4902TIP3   OH236196   3.438   3.909  11.627 -0.0640  0.1320 -0.3164
 4902TIP3    H136197   3.390   3.885  11.706  0.2093  0.2494 -0.1132
 4902TIP3    H236198   3.371   3.912  11.559 -0.3844  0.4985  0.0061
 4903TIP3   OH236199   0.539   6.105  16.429  0.7012  0.5027 -0.0015
 4903TIP3    H136200   0.592   6.147  16.361  1.1423 -0.7717 -0.4789
 4903TIP3    H236201   0.470   6.168  16.448  1.1618  1.3065 -0.9071
 4904TIP3   OH236202   4.516   6.621   2.677 -0.1424  0.7108 -0.7672
 4904TIP3    H136203   4.456   6.569   2.625 -0.8403 -1.0005  1.5612
 4904TIP3    H236204   4.495   6.712   2.656 -2.8050  0.1418 -0.8436
 4905TIP3   OH236205   3.092   4.930   3.040 -0.3214  0.3632 -0.1979
 4905TIP3    H136206   3.090   4.878   3.120 -3.9837 -0.6342 -0.7649
 4905TIP3    H236207   3.111   5.019   3.068  0.5044 -0.3119  1.4884
 4906TIP3   OH236208   3.849   0.122  14.972 -0.4990 -0.1445  0.3761
 4906TIP3    H136209   3.926   0.179  14.970 -1.4973  1.2463  0.6890
 4906TIP3    H236210   3.858   0.073  15.054  0.4276 -0.5601  0.0463
 4907TIP3   OH236211   6.112   3.330   2.869  0.1294  0.1678 -0.5777
 4907TIP3    H136212   6.109   3.383   2.788 -0.5390 -1.8805 -1.9658
 4907TIP3    H236213   6.088   3.392   2.938  0.7966  2.0230 -1.9101
 4908TIP3   OH236214   0.028   5.835  13.047  0.7463  0.2858 -0.4253
 4908TIP3    H136215  -0.003   5.826  12.957 -1.7423  1.7323  0.1904
 4908TIP3    H236216  -0.030   5.900  13.086  0.9259 -1.1829  2.6080
 4909TIP3   OH236217   2.741   2.022   5.279  0.0846 -0.6093  0.2433
 4909TIP3    H136218   2.663   1.991   5.325 -0.0570 -2.2041 -0.9674
 4909TIP3    H236219   2.813   2.004   5.340 -0.3021 -0.8831  0.6315
 4910TIP3   OH236220   6.397   1.795   4.933 -0.5189  0.0594 -0.2435
 4910TIP3    H136221   6.378   1.802   4.839  2.1591 -0.2268 -0.8978
 4910TIP3    H236222   6.455   1.719   4.940 -1.7901 -0.8107  1.9012
 4911TIP3   OH236223   6.454   6.665  16.714 -0.2968  0.3179 -0.2381
 4911TIP3    H136224   6.439   6.742  16.768  0.9416 -0.5073  1.3390
 4911TIP3    H236225   6.539   6.680  16.672  0.0174 -0.2304  0.1866
 4912TIP3   OH236226   2.622   2.337   4.963 -0.9082 -0.0534  0.3434
 4912TIP3    H136227   2.616   2.408   5.028  1.1248  1.9463 -1.5056
 4912TIP3    H236228   2.577   2.371   4.886  0.4690 -0.5536 -0.7255
 4913TIP3   OH236229   0.772   4.658  13.240  0.5223 -0.2057 -0.7112
 4913TIP3    H136230   0.863   4.630  13.243 -0.4877 -4.1270 -0.3797
 4913TIP3    H236231   0.752   4.686  13.329  0.9833 -1.0844 -0.3190
 4914TIP3   OH236232   1.801   3.795  12.981 -0.4246  0.0542 -0.0817
 4914TIP3    H136233   1.712   3.791  12.949 -0.5023  0.9321 -0.0191
 4914TIP3    H236234   1.842   3.865  12.930  0.5462 -1.0246 -0.8488
 4915TIP3   OH236235   1.576   2.635   1.638  0.8772  0.0613 -0.1953
 4915TIP3    H136236   1.655   2.641   1.690 -0.2747 -0.0801  1.6643
 4915TIP3    H236237   1.513   2.591   1.695 -0.9300  1.3037 -1.1294
 4916TIP3   OH236238   0.923   1.371   4.966  0.2188 -0.6040  0.1589
 4916TIP3    H136239   0.865   1.326   4.904 -0.4729 -1.4076  1.3413
 4916TIP3    H236240   0.871   1.379   5.046  1.2563 -0.0382  0.7988
 4917TIP3   OH236241   0.645   2.435   4.988  0.2975  0.2117 -0.4086
 4917TIP3    H136242   0.713   2.403   4.929  1.8021 -1.1161  1.8985
 4917TIP3    H236243   0.651   2.531   4.981  1.2222  0.0939 -1.5259
 4918TIP3   OH236244   1.618   0.094  15.068  0.1171 -0.0134  0.2674
 4918TIP3    H136245   1.679   0.167  15.082  0.5662 -0.1605 -0.8789
 4918TIP3    H236246   1.659   0.021  15.114 -0.1041  0.3302  1.0296
 4919TIP3   OH236247   3.842   6.838   2.331 -0.1656  0.0773  0.3410
 4919TIP3    H136248   3.753   6.803   2.326 -0.0650 -0.3354  1.1746
 4919TIP3    H236249   3.861   6.840   2.425  1.1114 -0.9009  0.1193
 4920TIP3   OH236250   4.062   3.188  13.417  0.2031 -0.5804 -0.2715
 4920TIP3    H136251   4.025   3.272  13.390 -0.1536 -0.8091 -0.5050
 4920TIP3    H236252   3.990   3.143  13.460  0.8244 -0.1305  1.2993
 4921TIP3   OH236253   4.184   5.212  16.604 -0.5412 -0.0065 -0.6655
 4921TIP3    H136254   4.116   5.148  16.627 -0.6463 -0.3975 -1.9636
 4921TIP3    H236255   4.224   5.236  16.687 -1.1561 -1.0394 -0.0524
 4922TIP3   OH236256   1.977   2.219   1.322  0.0938 -0.6735 -0.2925
 4922TIP3    H136257   1.979   2.271   1.242 -3.4884 -1.2205 -0.9355
 4922TIP3    H236258   1.893   2.173   1.318 -0.6335 -0.1522  4.1151
 4923TIP3   OH236259   2.864   6.063  16.555 -0.4638  0.1216  0.1123
 4923TIP3    H136260   2.786   6.115  16.575 -0.3948 -0.5580  2.5343
 4923TIP3    H236261   2.852   5.982  16.606  2.3373  0.4773  1.5217
 4924TIP3   OH236262   0.670   0.602  11.604 -0.4879  0.2411  0.1083
 4924TIP3    H136263   0.584   0.598  11.562  0.0271  0.7340 -1.0334
 4924TIP3    H236264   0.654   0.649  11.686 -1.0226  1.9584 -0.9182
 4925TIP3   OH236265   6.110   5.942   0.042  0.4973  0.3331 -0.0920
 4925TIP3    H136266   6.037   5.999   0.019  0.6744 -0.0275 -1.6809
 4925TIP3    H236267   6.091   5.859  -0.002  1.3481 -0.1001  0.3218
 4926TIP3   OH236268   0.123   3.815  11.428  0.3388 -0.2764 -0.1647
 4926TIP3    H136269   0.175   3.850  11.500  2.4235 -0.5011 -1.4814
 4926TIP3    H236270   0.164   3.731  11.406 -1.5706 -1.2583 -0.2506
 4927TIP3   OH236271   1.002   4.732  10.531  0.3353  0.8491  0.3595
 4927TIP3    H136272   1.071   4.792  10.504  0.1489  0.7920 -0.2780
 4927TIP3    H236273   0.931   4.748  10.469  1.0362 -1.4343 -1.1818
 4928TIP3   OH236274   5.526   6.164  11.201  0.8142 -0.2857 -0.3992
 4928TIP3    H136275   5.517   6.198  11.290 -0.3801 -1.0924 -0.1792
 4928TIP3    H236276   5.619   6.174  11.181  1.6289 -2.2944  1.8629
 4929TIP3   OH236277   4.948   5.527  13.153  0.0771  0.1044  0.4375
 4929TIP3    H136278   4.854   5.530  13.135  0.0772  1.1708  0.5308
 4929TIP3    H236279   4.988   5.581  13.085  0.5986 -0.1061  0.5685
 4930TIP3   OH236280   2.536   6.605  12.647  0.1803  0.3282  0.2044
 4930TIP3    H136281   2.603   6.673  12.660 -0.3553  1.0929 -0.8735
 4930TIP3    H236282   2.531   6.595  12.552 -1.4269  0.4942  0.2524
 4931TIP3   OH236283   0.111   6.447  14.496 -0.6718  1.3834 -0.5601
 4931TIP3    H136284   0.109   6.540  14.473 -1.7737  1.2749 -0.9327
 4931TIP3    H236285   0.121   6.402  14.412 -0.0318  1.1613 -0.3704
 4932TIP3   OH236286   1.111   6.245   1.245 -0.1826 -0.2674 -0.2588
 4932TIP3    H136287   1.185   6.292   1.284 -1.5361  0.0867  2.0705
 4932TIP3    H236288   1.133   6.153   1.257 -0.2557 -0.1641  0.7731
 4933TIP3   OH236289   0.093   5.322  16.588  0.2290 -0.1534 -0.5688
 4933TIP3    H136290   0.048   5.249  16.547 -1.5202 -0.0844  1.1203
 4933TIP3    H236291   0.133   5.285  16.666 -2.7888  1.0169  1.7226
 4934TIP3   OH236292   1.181   0.626  12.310  0.1305 -0.0466  0.2432
 4934TIP3    H136293   1.178   0.564  12.383 -0.7113  1.4902  1.5724
 4934TIP3    H236294   1.238   0.697  12.341 -0.4720  0.7673 -0.4752
 4935TIP3   OH236295   2.593   4.375   3.563  0.5032  1.1177  0.4906
 4935TIP3    H136296   2.530   4.345   3.498 -0.4982 -0.3983  2.0830
 4935TIP3    H236297   2.619   4.463   3.533 -2.2905  1.7634 -0.2939
 4936TIP3   OH236298   5.756   4.704  11.491 -0.2889 -0.0161  0.5937
 4936TIP3    H136299   5.775   4.628  11.547 -0.4767  0.2596  1.0382
 4936TIP3    H236300   5.690   4.753  11.540 -0.3070  0.3353  0.2176
 4937TIP3   OH236301   1.028   0.707   3.410  0.5167  0.2997  0.0431
 4937TIP3    H136302   0.940   0.730   3.437 -0.0142 -1.4509 -0.1298
 4937TIP3    H236303   1.022   0.695   3.315  0.4497 -1.7836  0.2715
 4938TIP3   OH236304   3.245   2.738   4.677 -0.1594 -0.1459 -0.0775
 4938TIP3    H136305   3.180   2.676   4.710 -0.1214 -0.8841 -1.3302
 4938TIP3    H236306   3.278   2.698   4.596  1.4468  0.4769  0.2310
 4939TIP3   OH236307   6.615   6.556  12.212  0.3684 -0.4712 -0.0535
 4939TIP3    H136308   6.569   6.636  12.236  0.5883  0.1211 -1.5531
 4939TIP3    H236309   6.566   6.486  12.256 -0.1658  0.4169  0.7993
 4940TIP3   OH236310   2.167   2.774   5.459 -0.4331  0.4470  0.1332
 4940TIP3    H136311   2.245   2.797   5.510 -0.8955  1.0967  0.5580
 4940TIP3    H236312   2.177   2.822   5.377 -0.8030  1.2304  0.5354
 4941TIP3   OH236313   2.003   1.493   3.220 -0.0067 -0.0443  0.0767
 4941TIP3    H136314   2.003   1.459   3.309 -0.1137  0.7586  0.3910
 4941TIP3    H236315   1.928   1.450   3.178  0.4446 -0.9361  0.1638
 4942TIP3   OH236316   5.893   4.825   5.495 -0.2710  0.0950 -0.0727
 4942TIP3    H136317   5.807   4.788   5.481 -1.1242  1.8015  0.3509
 4942TIP3    H236318   5.920   4.792   5.581 -0.2301 -0.8964 -0.4528
 4943TIP3   OH236319   1.713   4.346  14.521  0.2639  0.3254 -0.2030
 4943TIP3    H136320   1.636   4.310  14.477 -1.2492  1.6620  1.1871
 4943TIP3    H236321   1.735   4.281  14.588  0.8011 -0.3884 -1.0613
 4944TIP3   OH236322   2.671   2.700  13.939  0.6217  0.4132  0.6340
 4944TIP3    H136323   2.699   2.770  13.880  0.7147  1.4508  1.8838
 4944TIP3    H236324   2.742   2.636  13.936  1.5270  1.3910  1.1293
 4945TIP3   OH236325   5.496   1.226   5.101  0.1726 -0.1237  0.1944
 4945TIP3    H136326   5.578   1.276   5.107  0.7266 -0.8061 -1.2465
 4945TIP3    H236327   5.430   1.286   5.135  1.0721  0.9490  0.1333
 4946TIP3   OH236328   6.702   5.673  11.019 -0.6886  0.7693 -0.6165
 4946TIP3    H136329   6.683   5.583  11.047 -1.1138  1.1962  0.5055
 4946TIP3    H236330   6.793   5.687  11.045 -1.1398  1.2330  0.8253
 4947TIP3   OH236331   5.217   3.217   0.658  0.3737 -0.1304 -0.1587
 4947TIP3    H136332   5.220   3.238   0.565  1.8406  0.2402 -0.0542
 4947TIP3    H236333   5.309   3.205   0.682  0.1189  0.8877  1.4763
 4948TIP3   OH236334   5.344   2.865   5.301 -0.2739 -0.2005  0.7343
 4948TIP3    H136335   5.307   2.874   5.389 -0.1001 -1.8359  1.0087
 4948TIP3    H236336   5.365   2.772   5.294  2.2662  0.3502  0.0012
 4949TIP3   OH236337   1.585   5.825  13.714  0.0864  0.9264 -0.0645
 4949TIP3    H136338   1.601   5.860  13.801 -1.0276  0.0538  0.5261
 4949TIP3    H236339   1.492   5.843  13.698 -0.0390 -0.0695 -0.5189
 4950TIP3   OH236340   0.438   5.870  15.834 -0.0765 -0.8247 -0.8254
 4950TIP3    H136341   0.440   5.812  15.910 -0.7443 -0.4226 -0.4959
 4950TIP3    H236342   0.410   5.813  15.762  2.4629 -1.6943 -1.2373
 4951TIP3   OH236343   3.475   0.921   2.786 -0.6971 -0.0744 -0.2456
 4951TIP3    H136344   3.425   1.002   2.802 -1.4578 -0.2070 -1.7427
 4951TIP3    H236345   3.431   0.881   2.711  0.0514 -1.5798  0.0952
 4952TIP3   OH236346   1.634   6.409   4.787 -0.4177 -0.8420  0.2929
 4952TIP3    H136347   1.542   6.412   4.761 -0.4521  0.9470  0.4477
 4952TIP3    H236348   1.673   6.341   4.732 -1.7616 -1.4313  0.0278
 4953TIP3   OH236349   2.876   2.286   2.915  0.6097  0.4939  0.1928
 4953TIP3    H136350   2.785   2.307   2.933  0.8557  0.1955  1.9458
 4953TIP3    H236351   2.900   2.343   2.842 -0.8251  0.9356  0.0489
 4954TIP3   OH236352   3.331   6.358  11.659  0.2382  0.0496  0.0574
 4954TIP3    H136353   3.239   6.351  11.632 -0.0628 -2.9175  1.4119
 4954TIP3    H236354   3.381   6.336  11.581 -0.2920 -0.5023 -0.1350
 4955TIP3   OH236355   5.721   0.983  13.068  0.7760 -0.3651 -0.0114
 4955TIP3    H136356   5.705   1.021  13.155 -1.3312  0.6048 -0.7564
 4955TIP3    H236357   5.696   0.891  13.078 -1.8598  0.2693 -0.1282
 4956TIP3   OH236358   0.194   3.737  10.419  0.7585 -0.2412  0.5071
 4956TIP3    H136359   0.264   3.748  10.355 -0.1934 -0.4968 -0.6004
 4956TIP3    H236360   0.219   3.794  10.492  0.5931  2.1408 -1.1619
 4957TIP3   OH236361   4.047   4.548   5.731 -0.7001  0.1248 -0.0304
 4957TIP3    H136362   4.134   4.584   5.713 -0.3800 -0.7191 -0.2509
 4957TIP3    H236363   4.055   4.504   5.816 -0.7998 -0.2660 -0.2165
 4958TIP3   OH236364   6.620   5.602   4.441  0.2276 -0.1602  0.8584
 4958TIP3    H136365   6.640   5.529   4.500 -0.8743 -1.5034 -0.3520
 4958TIP3    H236366   6.528   5.622   4.459 -0.0713 -0.4697 -0.2340
 4959TIP3   OH236367   2.303   3.578   5.019  0.6629 -0.2600 -0.0270
 4959TIP3    H136368   2.249   3.538   5.087 -0.4661  0.0718 -0.7195
 4959TIP3    H236369   2.307   3.670   5.042  0.6231 -0.2192 -0.1821
 4960TIP3   OH236370   1.898   4.932  12.562  0.5913  0.6063  0.0107
 4960TIP3    H136371   1.979   4.975  12.536 -0.4393  2.5494 -0.1431
 4960TIP3    H236372   1.848   4.924  12.481  0.5496 -0.4676  0.1241
 4961TIP3   OH236373   3.052   6.317  11.597 -0.3105  0.0435 -0.5134
 4961TIP3    H136374   2.958   6.308  11.583 -0.2146 -1.0082 -0.5674
 4961TIP3    H236375   3.091   6.248  11.544  0.5127  0.6043 -0.6604
 4962TIP3   OH236376   6.664   1.783   1.292 -0.0428  0.1198 -0.0407
 4962TIP3    H136377   6.711   1.856   1.251  1.1316  0.0046  1.0426
 4962TIP3    H236378   6.732   1.719   1.312 -0.4373  0.4222  2.5986
 4963TIP3   OH236379   6.702   0.625   1.665  0.1886 -0.4309  0.1057
 4963TIP3    H136380   6.762   0.572   1.718 -0.1969 -1.0873 -0.0942
 4963TIP3    H236381   6.655   0.561   1.612  0.0486  0.1613 -0.4960
 4964TIP3   OH236382   3.485   3.550  11.325  0.5802  0.2722  0.0679
 4964TIP3    H136383   3.433   3.479  11.361  1.3208  0.0740  0.7716
 4964TIP3    H236384   3.548   3.572  11.394  0.9422  1.0056 -0.4775
 4965TIP3   OH236385   5.061   1.373  13.134  0.4438  0.7779  0.9762
 4965TIP3    H136386   5.139   1.362  13.080  1.2063  0.6825  2.0497
 4965TIP3    H236387   5.010   1.294  13.118  1.3340  0.0823  1.4197
 4966TIP3   OH236388   5.301   3.956  15.996  0.0847  0.5997  0.3399
 4966TIP3    H136389   5.242   3.885  16.023  0.3061  0.8402  1.5151
 4966TIP3    H236390   5.297   3.956  15.901  1.1676 -1.9445  0.2220
 4967TIP3   OH236391   0.595   5.770  11.818 -0.1848 -0.2514  0.2219
 4967TIP3    H136392   0.623   5.847  11.769  2.5183 -1.4311 -0.2393
 4967TIP3    H236393   0.652   5.768  11.895 -0.4643 -1.6157  0.4176
 4968TIP3   OH236394   2.777   5.531  15.443 -0.3167 -0.4055  0.6777
 4968TIP3    H136395   2.709   5.466  15.429  1.4314 -1.8190 -1.9910
 4968TIP3    H236396   2.753   5.604  15.386 -0.2289 -0.4130  0.6302
 4969TIP3   OH236397   1.264   4.742   2.254  0.6490 -0.0416 -0.0747
 4969TIP3    H136398   1.177   4.770   2.282  0.8940  1.9347 -1.0539
 4969TIP3    H236399   1.324   4.804   2.297  1.3171  0.3917 -1.5565
 4970TIP3   OH236400   0.524   4.383   3.758  0.2740  0.1095  0.5854
 4970TIP3    H136401   0.504   4.456   3.700 -0.5276 -1.5295 -1.3123
 4970TIP3    H236402   0.573   4.322   3.703  0.1294 -1.1931  1.8511
 4971TIP3   OH236403   0.130   0.117   1.036 -0.1790  0.7448  0.6364
 4971TIP3    H136404   0.166   0.090   1.121  0.2070 -1.3865 -0.1420
 4971TIP3    H236405   0.200   0.098   0.974 -1.4576 -0.4562 -0.5066
 4972TIP3   OH236406   5.204   3.313  12.013  0.2678  0.1034 -0.2171
 4972TIP3    H136407   5.177   3.243  12.073 -0.5924  1.2304  0.7643
 4972TIP3    H236408   5.142   3.307  11.940  0.8989 -0.8507 -0.6887
 4973TIP3   OH236409   0.321   1.373  11.994  0.0262 -0.0841 -0.5353
 4973TIP3    H136410   0.260   1.443  11.972  1.2166  0.9012 -0.7527
 4973TIP3    H236411   0.352   1.395  12.082 -0.1346 -0.7465 -0.3030
 4974TIP3   OH236412   2.195   2.396   0.388  0.0493 -0.6488  0.8386
 4974TIP3    H136413   2.260   2.412   0.319 -0.4275 -1.3195  0.2202
 4974TIP3    H236414   2.181   2.481   0.428 -0.6886  0.0368 -0.8065
 4975TIP3   OH236415   1.810   4.672   4.102  0.2051 -0.5213 -0.0682
 4975TIP3    H136416   1.831   4.718   4.183 -2.3023 -1.4611  1.2055
 4975TIP3    H236417   1.792   4.742   4.039  0.2363  0.2205  0.7284
 4976TIP3   OH236418   4.728   0.379  14.499  0.7788 -0.0935 -0.1416
 4976TIP3    H136419   4.804   0.423  14.460  1.7695 -1.1238  0.5962
 4976TIP3    H236420   4.702   0.436  14.571 -0.0560  0.9817 -1.2409
 4977TIP3   OH236421   1.510   1.786   5.814  0.4891  0.7123 -0.1882
 4977TIP3    H136422   1.556   1.710   5.777  1.3376  2.2477 -2.4753
 4977TIP3    H236423   1.420   1.755   5.826  0.8610 -0.7247 -0.8095
 4978TIP3   OH236424   2.439   5.534   2.114  0.1554  0.4521 -0.5947
 4978TIP3    H136425   2.365   5.531   2.175  1.5535 -1.5611  1.1638
 4978TIP3    H236426   2.400   5.523   2.027 -1.5912 -0.9312  0.3152
 4979TIP3   OH236427   5.795   3.950   3.288 -0.7540  0.6960 -0.2979
 4979TIP3    H136428   5.850   3.939   3.366  0.6856  0.2115 -1.3444
 4979TIP3    H236429   5.720   4.000   3.319 -0.2146  0.5307  1.4001
 4980TIP3   OH236430   3.814   4.158   6.382 -0.2847 -0.4077 -0.5363
 4980TIP3    H136431   3.861   4.133   6.302 -0.8767 -1.5421 -0.5567
 4980TIP3    H236432   3.750   4.222   6.352  0.6702  0.5102 -0.6517
 4981TIP3   OH236433   1.158   1.832  13.986 -0.1126  0.3618  0.4070
 4981TIP3    H136434   1.094   1.894  13.952 -0.9813 -0.5361  0.3844
 4981TIP3    H236435   1.127   1.809  14.073 -1.5445 -2.3526 -0.6920
 4982TIP3   OH236436   0.031   6.065   2.472  0.0282  0.4323  0.1230
 4982TIP3    H136437  -0.027   6.128   2.430 -0.9104 -1.1347 -1.0371
 4982TIP3    H236438   0.110   6.067   2.419 -0.6758 -0.6157 -1.0256
 4983TIP3   OH236439   6.237   4.532  14.586 -0.2555  0.0008 -0.5711
 4983TIP3    H136440   6.304   4.465  14.594 -1.0844 -0.8005 -0.1308
 4983TIP3    H236441   6.279   4.603  14.536  1.7208  0.5931  1.7479
 4984TIP3   OH236442   6.246   0.123  14.097  0.2223  0.4474  0.2978
 4984TIP3    H136443   6.158   0.117  14.059 -1.2868  1.6810  3.2704
 4984TIP3    H236444   6.251   0.211  14.134  2.4411  0.1620  0.8322
 4985TIP3   OH236445   5.812   5.803  11.336  0.1748  0.2198 -0.1982
 4985TIP3    H136446   5.804   5.808  11.241  1.0182 -0.7815 -0.3384
 4985TIP3    H236447   5.863   5.724  11.352 -0.3311  0.1302  1.1148
 4986TIP3   OH236448   3.127   1.729   1.228  0.1414 -0.2547 -0.3371
 4986TIP3    H136449   3.122   1.744   1.323  1.7440  0.0233 -0.2728
 4986TIP3    H236450   3.036   1.729   1.199 -0.3101  1.5067  0.9150
 4987TIP3   OH236451   5.497   2.439  11.078  0.4571  0.2025  0.1042
 4987TIP3    H136452   5.543   2.489  11.144  3.1689 -2.0021  0.0442
 4987TIP3    H236453   5.565   2.387  11.034 -1.7158 -1.1357 -1.9603
 4988TIP3   OH236454   6.744   1.590  10.173  0.3540  0.3439 -0.3495
 4988TIP3    H136455   6.715   1.503  10.146 -0.6638  0.6719 -0.3628
 4988TIP3    H236456   6.823   1.575  10.225 -1.1568 -0.8218  1.7694
 4989TIP3   OH236457   2.447   1.998   0.880 -0.2350  0.5749  0.1734
 4989TIP3    H136458   2.408   1.961   0.801  0.5774 -1.7613  0.7785
 4989TIP3    H236459   2.393   1.963   0.952  0.0337  1.3082  0.7427
 4990TIP3   OH236460   1.906   5.320   1.329  0.2019 -0.2549 -0.4362
 4990TIP3    H136461   1.913   5.241   1.275  0.9867  0.0528 -0.7974
 4990TIP3    H236462   1.857   5.382   1.275 -0.8720 -0.6575  0.0515
 4991TIP3   OH236463   2.128   0.670  16.598  0.6057 -0.3155  0.4608
 4991TIP3    H136464   2.141   0.670  16.503 -1.1565  1.0466  0.1540
 4991TIP3    H236465   2.195   0.730  16.631  1.7368 -1.4005  0.1987
 4992TIP3   OH236466   3.309   1.938  14.320  0.1484  0.3522 -0.1209
 4992TIP3    H136467   3.251   2.010  14.297  0.7385  0.5475 -1.0289
 4992TIP3    H236468   3.371   1.976  14.382  1.0013  0.8740 -1.2673
 4993TIP3   OH236469   6.060   1.971  10.401 -0.1443 -0.3319  0.7447
 4993TIP3    H136470   5.997   2.033  10.440  1.4378  0.4221  2.2381
 4993TIP3    H236471   6.014   1.887  10.401 -1.7251  0.4935  0.2556
 4994TIP3   OH236472   4.830   1.078   6.118  0.4488  0.3944 -0.1087
 4994TIP3    H136473   4.738   1.055   6.123  0.4044  0.3485 -0.9129
 4994TIP3    H236474   4.874   0.997   6.092  0.7993  0.2650  0.8600
 4995TIP3   OH236475   0.489   2.605   3.732  0.0681 -0.1062 -0.3274
 4995TIP3    H136476   0.543   2.679   3.704 -0.3658  1.6884  3.0841
 4995TIP3    H236477   0.490   2.609   3.827 -1.2059 -3.6892 -0.0043
 4996TIP3   OH236478   1.788   1.878   4.005  0.1811 -0.2686  0.0650
 4996TIP3    H136479   1.806   1.952   3.947 -0.5041  0.2913  0.5630
 4996TIP3    H236480   1.694   1.883   4.023  0.2650 -0.8207  0.6996
 4997TIP3   OH236481   0.741   3.750   4.292 -0.2420 -0.6536  0.4644
 4997TIP3    H136482   0.691   3.817   4.339 -2.2534 -1.8763  0.1872
 4997TIP3    H236483   0.815   3.730   4.350  0.4188  1.7614  0.5413
 4998TIP3   OH236484   5.358   5.094   4.101 -0.7946  0.3644  0.3512
 4998TIP3    H136485   5.422   5.086   4.171 -1.6807  1.7379  1.3730
 4998TIP3    H236486   5.391   5.036   4.031  0.3883 -0.6158  1.6662
 4999TIP3   OH236487   3.294   4.847   2.274  0.3668  0.1482 -0.4364
 4999TIP3    H136488   3.254   4.783   2.333 -0.3155  2.0597  1.2715
 4999TIP3    H236489   3.244   4.840   2.193  0.1830 -1.2979 -0.2278
 5000TIP3   OH236490   0.745   4.323   2.903 -0.2355 -0.1920 -0.2563
 5000TIP3    H136491   0.696   4.377   2.841  0.9570 -0.8425 -1.8487
 5000TIP3    H236492   0.681   4.261   2.937 -1.3350  1.3444  0.6393
 5001TIP3   OH236493   0.236   2.405   1.625  0.1047 -0.6668  0.1320
 5001TIP3    H136494   0.318   2.360   1.644 -1.3323 -2.9983  1.3754
 5001TIP3    H236495   0.229   2.473   1.692  0.7827 -0.7763  0.3175
 5002TIP3   OH236496   1.786   3.489  14.740 -0.4695  0.3394 -0.3342
 5002TIP3    H136497   1.725   3.559  14.715 -1.2379  0.0365  0.6416
 5002TIP3    H236498   1.761   3.415  14.685 -0.5519  0.4085 -0.3913
 5003TIP3   OH236499   1.686   3.963   3.911  0.0828 -0.0676 -0.7324
 5003TIP3    H136500   1.628   3.892   3.940 -0.1674 -0.2859 -1.7229
 5003TIP3    H236501   1.637   4.043   3.927 -0.3973 -0.2360 -1.3145
 5004TIP3   OH236502   6.316   1.915  13.418 -0.2592  0.2826 -0.4250
 5004TIP3    H136503   6.233   1.906  13.371 -0.6105  0.4882  0.1407
 5004TIP3    H236504   6.325   1.832  13.466  1.0974 -0.7663 -2.3926
 5005TIP3   OH236505   5.473   1.693   3.363  0.4417  0.2523 -0.0059
 5005TIP3    H136506   5.497   1.684   3.455 -1.0421  1.8729  0.6041
 5005TIP3    H236507   5.555   1.716   3.319  0.8595  1.2044  1.2107
 5006TIP3   OH236508   2.413   1.262  17.076 -0.3050 -0.2441  0.2627
 5006TIP3    H136509   2.366   1.249  16.993  0.9418  1.0848 -0.7024
 5006TIP3    H236510   2.343   1.269  17.141 -1.4290  0.6556 -0.9776
 5007TIP3   OH236511   6.679   2.118   3.775 -0.1980  0.1607  0.2078
 5007TIP3    H136512   6.758   2.153   3.733 -0.5459 -1.8009 -2.2984
 5007TIP3    H236513   6.700   2.027   3.796 -1.1012  0.2250  1.5849
 5008TIP3   OH236514   1.314   6.032  11.997  0.1130  0.9299 -0.0136
 5008TIP3    H136515   1.401   6.024  12.036  0.5490  4.8112  0.2585
 5008TIP3    H236516   1.275   5.945  12.007  3.3166 -0.5243  1.3371
 5009TIP3   OH236517   5.687   3.233  11.283 -0.9432  0.1900  0.3991
 5009TIP3    H136518   5.780   3.254  11.286 -0.6353 -0.6416 -1.5572
 5009TIP3    H236519   5.645   3.314  11.252 -0.8811  0.5435  1.2173
 5010TIP3   OH236520   3.797   4.463  17.043  0.3551  0.4471  0.7045
 5010TIP3    H136521   3.777   4.391  16.983  1.5021  2.0523 -1.7594
 5010TIP3    H236522   3.725   4.525  17.031  1.7794  1.9049 -1.0472
 5011TIP3   OH236523   0.630   6.807   4.651 -0.0746 -0.1913  0.5509
 5011TIP3    H136524   0.627   6.892   4.607 -2.5724 -0.5510 -0.0869
 5011TIP3    H236525   0.722   6.798   4.677  0.2796  2.6679  0.6328
 5012TIP3   OH236526   1.829   1.016  14.883  0.0516 -0.1334 -0.1194
 5012TIP3    H136527   1.854   1.095  14.931  0.1895  0.9237 -1.8318
 5012TIP3    H236528   1.734   1.019  14.880  0.0898  0.8297 -1.4600
 5013TIP3   OH236529   5.479   6.746  16.392 -0.2311  0.5662  0.3473
 5013TIP3    H136530   5.465   6.659  16.428  0.2341  0.8266  1.1635
 5013TIP3    H236531   5.396   6.792  16.408 -1.1749 -0.2487 -1.7162
 5014TIP3   OH236532   2.354   3.669  15.152 -0.3482  0.2227  0.1857
 5014TIP3    H136533   2.406   3.722  15.212 -1.9177  1.0927  0.8230
 5014TIP3    H236534   2.408   3.662  15.074  0.3207  1.9481  0.4473
 5015TIP3   OH236535   6.531   6.190  15.029  0.0155 -0.4406 -0.0726
 5015TIP3    H136536   6.610   6.139  15.010  0.2934 -1.0124  2.2656
 5015TIP3    H236537   6.547   6.275  14.988  2.7717  0.1481  1.9218
 5016TIP3   OH236538   2.498   2.377   0.704 -0.5666  0.2786 -0.2586
 5016TIP3    H136539   2.417   2.327   0.716 -1.0609  1.2276  0.4035
 5016TIP3    H236540   2.508   2.384   0.609  0.6011 -2.7859 -0.4831
 5017TIP3   OH236541   0.034   6.481   3.853 -0.4644  0.2444 -0.6885
 5017TIP3    H136542  -0.013   6.410   3.809 -0.9137  1.2398 -1.8516
 5017TIP3    H236543  -0.032   6.521   3.910  0.0939 -0.9865  0.8849
 5018TIP3   OH236544   3.490   1.413  11.342  0.3355 -0.0692 -0.2734
 5018TIP3    H136545   3.567   1.465  11.321  1.0037  0.9224  3.7654
 5018TIP3    H236546   3.416   1.473  11.331  0.2033 -0.5428 -2.5428
 5019TIP3   OH236547   0.324   0.859   1.817 -0.5188 -0.4147 -0.0959
 5019TIP3    H136548   0.392   0.901   1.870 -1.5659  1.5427 -0.2130
 5019TIP3    H236549   0.369   0.787   1.772  1.1063 -0.1131  0.9776
 5020TIP3   OH236550   0.854   1.886  12.358 -0.3490  0.0407  0.3689
 5020TIP3    H136551   0.772   1.872  12.312 -0.5450  0.0036  0.7271
 5020TIP3    H236552   0.904   1.946  12.301 -0.5581 -0.0576  0.0803
 5021TIP3   OH236553   3.083   5.649   1.541  0.4774 -0.4721 -0.1076
 5021TIP3    H136554   3.169   5.648   1.582  0.1600 -0.9734  0.5600
 5021TIP3    H236555   3.022   5.628   1.612 -0.1507 -0.5687 -0.6676
 5022TIP3   OH236556   1.804   3.851  14.053 -0.2642  0.3190 -0.0784
 5022TIP3    H136557   1.717   3.813  14.043 -0.7739  1.4803 -0.1831
 5022TIP3    H236558   1.825   3.840  14.146  2.0848 -5.3588 -0.8569
 5023TIP3   OH236559   2.173   0.460  16.363  0.4568 -0.4133  0.1822
 5023TIP3    H136560   2.166   0.554  16.343  1.9227  0.1232  1.8660
 5023TIP3    H236561   2.240   0.428  16.303  0.0627 -0.3403 -0.2961
 5024TIP3   OH236562   4.722   5.073  16.442  0.1429 -0.0763 -0.1529
 5024TIP3    H136563   4.764   5.015  16.379 -1.3209 -0.6770 -0.6293
 5024TIP3    H236564   4.648   5.110  16.395 -0.2836  0.3871  0.8506
 5025TIP3   OH236565   5.783   3.100  17.131 -0.2214  0.2601 -0.7045
 5025TIP3    H136566   5.703   3.142  17.101 -0.4335  0.0383 -0.4527
 5025TIP3    H236567   5.789   3.019  17.080  0.3955  0.7720 -1.4805
 5026TIP3   OH236568   2.949   1.734   2.358 -0.2469  0.2299  0.1770
 5026TIP3    H136569   2.984   1.799   2.419 -0.2245  0.4683 -0.0889
 5026TIP3    H236570   2.860   1.717   2.390  0.1494 -0.5016  0.9518
 5027TIP3   OH236571   5.009   0.999   1.722 -0.0225  0.0252 -0.1777
 5027TIP3    H136572   4.914   0.983   1.730 -0.1247  0.7783  0.1697
 5027TIP3    H236573   5.030   0.973   1.633 -0.5301 -0.2681 -0.2194
 5028TIP3   OH236574   4.658   4.849  14.890  0.1786 -0.3701 -0.3705
 5028TIP3    H136575   4.592   4.833  14.823  1.7954 -1.4554 -1.8092
 5028TIP3    H236576   4.740   4.823  14.849  1.6251  1.6000  1.0906
 5029TIP3   OH236577   0.733   2.606   3.380 -0.3318 -0.4529  0.2561
 5029TIP3    H136578   0.755   2.543   3.311  0.2662 -0.1190  0.1369
 5029TIP3    H236579   0.650   2.574   3.416 -0.9922 -0.2642 -1.0619
 5030TIP3   OH236580   2.664   5.164   2.531  0.3999 -0.0120  0.1600
 5030TIP3    H136581   2.725   5.103   2.488  1.8273  0.5278  1.3345
 5030TIP3    H236582   2.634   5.221   2.460  1.3634 -0.2270 -0.4438
 5031TIP3   OH236583   5.813   4.741  15.239  0.5236  0.0453  0.4264
 5031TIP3    H136584   5.872   4.814  15.260  1.4322 -0.4873 -0.2619
 5031TIP3    H236585   5.769   4.769  15.158  0.3343  0.1386  0.5597
 5032TIP3   OH236586   4.564   4.079   2.123  0.2867 -0.0021 -0.1585
 5032TIP3    H136587   4.563   4.165   2.081 -0.9373  0.7082  1.2513
 5032TIP3    H236588   4.517   4.091   2.205  1.1977 -1.7321  0.6829
 5033TIP3   OH236589   5.938   4.730   5.237  0.5047 -0.1145  0.0978
 5033TIP3    H136590   5.902   4.802   5.185 -0.0033  0.2275  0.8906
 5033TIP3    H236591   5.925   4.758   5.328  0.2149 -1.2451  0.4245
 5034TIP3   OH236592   2.974   5.373   2.850 -0.3006  0.1248 -0.0928
 5034TIP3    H136593   3.036   5.353   2.920 -1.9447  0.7294  1.6140
 5034TIP3    H236594   3.025   5.364   2.770  1.7362 -0.2946  1.1753
 5035TIP3   OH236595   5.717   2.352  15.692 -0.1184  0.4361  0.3339
 5035TIP3    H136596   5.787   2.315  15.746  0.4717 -0.3069 -0.8994
 5035TIP3    H236597   5.723   2.306  15.609 -0.3984  2.1873 -0.7210
 5036TIP3   OH236598   6.536   5.273   4.489  0.2773 -0.4450 -0.0021
 5036TIP3    H136599   6.604   5.212   4.518 -1.8837 -2.3015  1.4706
 5036TIP3    H236600   6.547   5.350   4.545  0.1156 -1.4383  1.4391
 5037TIP3   OH236601   6.754   6.591   0.078  0.4680  0.1170 -0.2142
 5037TIP3    H136602   6.827   6.569   0.135  0.5768  0.3889 -0.2467
 5037TIP3    H236603   6.688   6.524   0.096  1.8606 -2.0003 -2.3686
 5038TIP3   OH236604   0.011   1.888  11.836  0.0550 -0.1572 -0.1613
 5038TIP3    H136605  -0.047   1.816  11.811 -0.7963  0.2128  0.7050
 5038TIP3    H236606   0.064   1.904  11.757 -2.1032  0.5423 -1.5543
 5039TIP3   OH236607   6.211   6.663  12.541  0.1159 -0.3130 -0.2977
 5039TIP3    H136608   6.133   6.615  12.567 -0.3013  1.8474  3.1214
 5039TIP3    H236609   6.282   6.623  12.592 -0.0863  1.8889  1.8949
 5040TIP3   OH236610   3.880   1.100  12.287 -0.0362  0.0226  0.2713
 5040TIP3    H136611   3.881   1.046  12.366  1.4041 -0.2054  0.1099
 5040TIP3    H236612   3.839   1.182  12.315  1.0427  0.1959  1.4396
 5041TIP3   OH236613   4.031   6.775  13.443 -0.4719  0.1422  0.4482
 5041TIP3    H136614   4.101   6.781  13.378 -0.9789 -0.0918 -0.1303
 5041TIP3    H236615   4.053   6.841  13.508 -0.2246  0.7378 -0.2240
 5042TIP3   OH236616   5.017   4.806  11.556  0.4359  0.4919 -0.3194
 5042TIP3    H136617   5.086   4.871  11.544  0.5347  0.5060  0.2618
 5042TIP3    H236618   4.973   4.800  11.472  1.2337  0.3925 -0.7378
 5043TIP3   OH236619   5.972   4.359  13.095  1.4079 -0.4096 -0.3958
 5043TIP3    H136620   5.927   4.353  13.179  2.2623 -1.0551  0.0317
 5043TIP3    H236621   5.902   4.360  13.030  0.7804 -1.4695  0.2447
 5044TIP3   OH236622   3.843   3.523   5.472 -0.3465  0.0991  0.2496
 5044TIP3    H136623   3.750   3.514   5.489 -0.4483  0.3911 -0.1379
 5044TIP3    H236624   3.881   3.545   5.558 -0.1984 -2.8491  1.0455
 5045TIP3   OH236625   6.595   6.357  17.004  0.6631 -0.4047  0.2949
 5045TIP3    H136626   6.688   6.378  17.017  0.5738 -0.0479  0.3721
 5045TIP3    H236627   6.571   6.307  17.081  1.0448 -1.3586 -0.1895
 5046TIP3   OH236628   5.535   5.002  12.554  0.1111 -0.7586 -0.4607
 5046TIP3    H136629   5.573   5.037  12.473 -0.1506 -3.4415 -1.8566
 5046TIP3    H236630   5.572   5.057  12.623  0.8919  1.2045 -2.3212
 5047TIP3   OH236631   1.676   5.067  13.078 -0.1143 -0.3000 -0.1089
 5047TIP3    H136632   1.595   5.017  13.068  1.4326 -2.9522 -0.3036
 5047TIP3    H236633   1.702   5.088  12.988  0.4957 -1.3408 -0.1830
 5048TIP3   OH236634   4.174   0.931  16.154  0.2840 -0.0333  0.3047
 5048TIP3    H136635   4.138   0.926  16.065 -1.0181 -0.5798  0.8358
 5048TIP3    H236636   4.219   1.015  16.157 -0.6348  0.5104 -0.5259
 5049TIP3   OH236637   2.468   3.320   0.710  0.4729  0.2693 -0.2064
 5049TIP3    H136638   2.451   3.297   0.802  0.7286 -0.4976 -0.3471
 5049TIP3    H236639   2.563   3.319   0.703  0.4274 -1.3859 -0.8973
 5050TIP3   OH236640   0.563   0.646   4.690  0.0895 -0.1984  0.0269
 5050TIP3    H136641   0.482   0.697   4.694 -0.2100 -0.7363  1.1578
 5050TIP3    H236642   0.608   0.679   4.613 -1.5725 -0.4443 -1.0993
 5051TIP3   OH236643   6.651   1.790   4.002 -0.1971  0.3650  0.1050
 5051TIP3    H136644   6.692   1.798   3.916 -0.6386  2.0928  0.0103
 5051TIP3    H236645   6.563   1.757   3.982 -0.4552  1.1798 -0.1876
 5052TIP3   OH236646   6.043   2.221   2.095 -0.4733 -0.3317  0.1619
 5052TIP3    H136647   6.076   2.299   2.050 -3.5247  0.8199 -0.2744
 5052TIP3    H236648   6.105   2.207   2.166  0.6137  2.0276 -0.2086
 5053TIP3   OH236649   0.534   3.354   3.029  0.1007  0.0081  0.5041
 5053TIP3    H136650   0.455   3.407   3.018 -0.7992 -1.2869  0.6099
 5053TIP3    H236651   0.606   3.418   3.029 -0.9844  1.2528  1.0293
 5054TIP3   OH236652   1.170   5.100   1.932 -0.1104  0.3637  0.1276
 5054TIP3    H136653   1.220   5.173   1.894  0.3945  0.1598  0.3934
 5054TIP3    H236654   1.192   5.101   2.025 -0.2885  0.0195  0.1754
 5055TIP3   OH236655   6.837   3.976   2.941  0.9523 -0.0002  0.0434
 5055TIP3    H136656   6.832   3.931   3.025  0.9291  0.9240  0.5463
 5055TIP3    H236657   6.746   3.981   2.912  1.0267 -1.0201 -0.4384
 5056TIP3   OH236658   5.160   3.502  14.407  0.0686 -0.3164 -0.5638
 5056TIP3    H136659   5.175   3.507  14.313  1.4567  0.0809 -0.3483
 5056TIP3    H236660   5.242   3.469  14.443 -0.0940  0.4806  0.6048
 5057TIP3   OH236661   5.071   0.571  16.295  0.9180  0.3162  0.3010
 5057TIP3    H136662   5.076   0.553  16.201  0.9460 -0.0062  0.3651
 5057TIP3    H236663   5.148   0.625  16.313  1.8034 -0.9354  0.4329
 5058TIP3   OH236664   2.514   2.865   3.990 -0.3626 -0.3606  0.2868
 5058TIP3    H136665   2.496   2.793   3.929  1.7460 -1.1718  0.5506
 5058TIP3    H236666   2.487   2.832   4.075 -1.2804 -0.0392  0.1374
 5059TIP3   OH236667   5.685   2.408   3.260 -0.0416  0.1564  0.1035
 5059TIP3    H136668   5.691   2.499   3.289  0.0509  0.4782 -0.9040
 5059TIP3    H236669   5.630   2.411   3.182  0.1527 -0.6215 -0.0704
 5060TIP3   OH236670   5.134   2.052  12.467 -0.7608 -0.4398  0.2688
 5060TIP3    H136671   5.143   2.093  12.553  0.8787 -3.4490  1.6718
 5060TIP3    H236672   5.042   2.025  12.462 -0.9036 -0.0884  0.9825
 5061TIP3   OH236673   4.459   1.716   1.091  0.7787  0.6567 -0.8490
 5061TIP3    H136674   4.426   1.689   1.005  0.5318  0.9303 -0.8419
 5061TIP3    H236675   4.386   1.765   1.130  0.5966 -0.1471 -0.1527
 5062TIP3   OH236676   6.349   6.410   6.710  0.0801  0.1641  0.4128
 5062TIP3    H136677   6.279   6.375   6.766 -0.3506  0.5256  0.1046
 5062TIP3    H236678   6.401   6.334   6.686  0.3953  0.0204  1.4720
 5063TIP3   OH236679   0.658   6.556   5.651  0.3662  0.6710 -0.7322
 5063TIP3    H136680   0.666   6.479   5.594 -0.0522 -0.7413  1.0390
 5063TIP3    H236681   0.596   6.612   5.606 -1.7715 -1.4528 -0.6145
 5064TIP3   OH236682   3.877   0.594  15.188  0.2241  0.4813  0.6425
 5064TIP3    H136683   3.946   0.619  15.126 -0.2931 -0.0817 -0.1758
 5064TIP3    H236684   3.920   0.598  15.274  1.4018 -0.2633  0.1128
 5065TIP3   OH236685   5.366   2.935  16.102 -0.3060  0.1112  0.0060
 5065TIP3    H136686   5.456   2.969  16.104  0.1060 -0.9388 -0.1263
 5065TIP3    H236687   5.369   2.857  16.157 -1.4376  0.7460  0.9944
 5066TIP3   OH236688   1.680   3.138  14.907 -0.4383 -0.0026 -0.1095
 5066TIP3    H136689   1.773   3.159  14.894 -0.8216  3.2649  1.3853
 5066TIP3    H236690   1.647   3.119  14.819  1.5018 -0.6632 -0.7342
 5067TIP3   OH236691   2.368   3.351  15.088 -0.6140 -0.3931 -0.1651
 5067TIP3    H136692   2.373   3.411  15.162 -0.8176  0.2152 -0.6435
 5067TIP3    H236693   2.459   3.336  15.063 -0.6080  0.8250 -0.9280
 5068TIP3   OH236694   1.070   4.650  13.249  0.0770  0.8322  0.2394
 5068TIP3    H136695   1.157   4.652  13.211  0.5781 -1.4611  1.0906
 5068TIP3    H236696   1.077   4.701  13.330  0.5817  0.8437  0.1876
 5069TIP3   OH236697   3.965   2.214   0.531 -0.1145  0.3575  0.6412
 5069TIP3    H136698   3.970   2.302   0.567 -0.6389 -0.2587  2.3332
 5069TIP3    H236699   4.053   2.178   0.541  0.5877  1.2601 -1.7353
 5070TIP3   OH236700   1.281   0.857   4.942  0.2013  0.0385 -0.6311
 5070TIP3    H136701   1.199   0.828   4.901  0.2218 -0.6426 -0.1959
 5070TIP3    H236702   1.340   0.871   4.868 -0.6586  1.7824 -1.0710
 5071TIP3   OH236703   6.106   4.258  15.447 -0.5661  0.2521 -0.2152
 5071TIP3    H136704   6.021   4.299  15.466 -1.4915 -1.2239 -1.0202
 5071TIP3    H236705   6.101   4.233  15.355  0.7872  0.1913 -0.2903
 5072TIP3   OH236706   1.355   6.061   5.376  0.3345 -0.4377 -0.9070
 5072TIP3    H136707   1.286   6.047   5.442  0.2142 -1.5424 -1.2393
 5072TIP3    H236708   1.425   6.001   5.402  2.1111  2.0580  0.5986
 5073TIP3   OH236709   4.668   6.259   1.235 -0.1237  0.0618 -0.4856
 5073TIP3    H136710   4.627   6.323   1.177  0.6749 -0.6280 -1.8590
 5073TIP3    H236711   4.615   6.262   1.315 -0.4692  1.9754 -0.7343
 5074TIP3   OH236712   4.853   2.929   3.960  0.1510 -0.0621  0.5682
 5074TIP3    H136713   4.850   3.019   3.991  0.2786  0.2313 -0.2317
 5074TIP3    H236714   4.845   2.936   3.865  1.1792 -0.8198  0.4004
 5075TIP3   OH236715   6.768   3.960   0.127 -0.1002 -0.5953  1.0149
 5075TIP3    H136716   6.678   3.943   0.098  0.4773 -2.0559 -0.0156
 5075TIP3    H236717   6.779   4.055   0.116 -1.5669 -0.3607  1.3442
 5076TIP3   OH236718   4.115   2.849   2.130  0.1578  0.6327  0.2761
 5076TIP3    H136719   4.097   2.845   2.224 -0.4772  0.0760  0.1353
 5076TIP3    H236720   4.140   2.760   2.106 -3.6149 -0.3339 -0.8309
 5077TIP3   OH236721   5.807   1.590  13.529 -0.0632 -0.1144  0.2824
 5077TIP3    H136722   5.858   1.516  13.496  1.4249  0.8046  0.4006
 5077TIP3    H236723   5.818   1.586  13.624  0.7117  0.7056  0.2386
 5078TIP3   OH236724   3.158   0.166   1.827 -0.0138  0.0777 -0.2751
 5078TIP3    H136725   3.177   0.257   1.804 -2.1973  0.3046 -1.4270
 5078TIP3    H236726   3.181   0.116   1.748 -0.3192 -0.1592 -0.2144
 5079TIP3   OH236727   6.202   5.346  11.221 -0.2668 -0.7579  0.0371
 5079TIP3    H136728   6.184   5.254  11.241 -1.1674  0.0880  4.0082
 5079TIP3    H236729   6.293   5.359  11.247 -0.8233 -0.1145  1.8705
 5080TIP3   OH236730   2.196   6.026  11.865  0.2486 -0.7601  0.5436
 5080TIP3    H136731   2.221   5.961  11.932  0.4519 -0.3604  0.8583
 5080TIP3    H236732   2.115   6.065  11.897 -0.8382 -2.0623 -0.4826
 5081TIP3   OH236733   1.930   4.158  12.301 -0.1187 -0.2089  0.1074
 5081TIP3    H136734   1.878   4.238  12.302 -0.2461 -0.2718 -0.8518
 5081TIP3    H236735   1.888   4.101  12.237 -0.1154 -1.1185  0.8746
 5082TIP3   OH236736   1.470   1.547  15.216  0.3256 -0.0214  0.1357
 5082TIP3    H136737   1.388   1.555  15.264 -0.5044  0.1843 -1.2473
 5082TIP3    H236738   1.448   1.494  15.140  1.8049 -1.1164  0.4237
 5083TIP3   OH236739   4.386   4.575   1.096  0.1068  0.4382 -0.0137
 5083TIP3    H136740   4.338   4.632   1.156  0.3623 -0.2259  0.8425
 5083TIP3    H236741   4.354   4.598   1.009 -0.4050  1.2885  0.3949
 5084TIP3   OH236742   1.816   6.696  11.830  0.3094  0.0673  0.6623
 5084TIP3    H136743   1.842   6.688  11.922  1.8163  1.3558  0.3933
 5084TIP3    H236744   1.852   6.618  11.788  0.7498  0.1232  0.9336
 5085TIP3   OH236745   0.459   4.818   1.579  0.1364 -0.3315  0.6766
 5085TIP3    H136746   0.411   4.802   1.660 -2.3605  0.5815 -0.5052
 5085TIP3    H236747   0.394   4.806   1.509  1.2711  2.1067 -0.9886
 5086TIP3   OH236748   3.799   4.772  12.174 -0.0302  0.5211 -0.0488
 5086TIP3    H136749   3.862   4.707  12.143 -0.6950 -0.1622  0.0024
 5086TIP3    H236750   3.799   4.762  12.269  0.6540  1.3464  0.0472
 5087TIP3   OH236751   6.005   1.880   5.411 -0.4805  0.3850 -0.2203
 5087TIP3    H136752   5.999   1.968   5.448 -0.1025 -0.7173  2.7990
 5087TIP3    H236753   6.067   1.888   5.339 -0.1640  2.5031  0.2298
 5088TIP3   OH236754   1.574   5.075   0.013 -0.0681  0.1066 -0.0170
 5088TIP3    H136755   1.658   5.030   0.008 -0.2044 -0.3338  1.4393
 5088TIP3    H236756   1.543   5.060   0.102  0.2008  3.6355  0.8222
 5089TIP3   OH236757   2.460   3.211  11.756 -0.3637 -0.6375  0.3999
 5089TIP3    H136758   2.555   3.212  11.742 -0.0648  1.4233  2.1505
 5089TIP3    H236759   2.427   3.281  11.700 -1.4264 -3.3257 -2.7446
 5090TIP3   OH236760   4.514   3.042  11.377 -0.2883  0.2805 -0.1815
 5090TIP3    H136761   4.419   3.052  11.376 -0.2152  2.1424  1.8801
 5090TIP3    H236762   4.542   3.091  11.455  2.3271 -0.5687 -0.4841
 5091TIP3   OH236763   3.360   6.475  10.986 -0.1576 -0.5262 -0.2655
 5091TIP3    H136764   3.298   6.546  10.968  0.0551 -0.4914 -0.8920
 5091TIP3    H236765   3.311   6.414  11.041 -0.1448  0.3962  0.7992
 5092TIP3   OH236766   3.138   0.102   2.686  0.3575 -0.2205 -0.2169
 5092TIP3    H136767   3.143   0.197   2.692 -0.5210 -0.0219 -2.0860
 5092TIP3    H236768   3.130   0.083   2.593  0.5426 -2.1387  0.1060
 5093TIP3   OH236769   0.215   4.904   2.626  0.2470  0.0411  0.1811
 5093TIP3    H136770   0.150   4.914   2.695 -0.8681  1.4742 -1.0031
 5093TIP3    H236771   0.166   4.919   2.545  1.8039 -0.0975 -0.8258
 5094TIP3   OH236772   1.995   1.414   4.513  0.2125 -0.0338 -0.4233
 5094TIP3    H136773   1.961   1.324   4.506  0.3941 -0.1572  0.2739
 5094TIP3    H236774   1.926   1.468   4.476  0.0179 -0.4434 -0.6726
 5095TIP3   OH236775   1.430   4.354  12.435 -0.0460  0.1645 -0.4665
 5095TIP3    H136776   1.431   4.442  12.472 -1.5414 -0.4415  1.1492
 5095TIP3    H236777   1.354   4.312  12.475 -0.6240 -1.1955 -2.8023
 5096TIP3   OH236778   5.883   4.872  11.279  0.0234  0.0889 -0.0588
 5096TIP3    H136779   5.811   4.916  11.234  1.3777  0.3243 -2.1019
 5096TIP3    H236780   5.842   4.834  11.357 -2.1267  0.9337 -0.6966
 5097TIP3   OH236781   4.785   4.547  11.689  0.5664  0.2671 -0.1536
 5097TIP3    H136782   4.727   4.595  11.629 -1.3865  0.7319  1.9817
 5097TIP3    H236783   4.726   4.499  11.747  2.4063 -1.0324  0.7648
 5098TIP3   OH236784   4.487   4.655  16.078  0.4402  0.2250  0.4481
 5098TIP3    H136785   4.572   4.623  16.108  1.5675  2.0679 -0.5714
 5098TIP3    H236786   4.429   4.579  16.084  1.7421 -0.7004  2.6338
 5099TIP3   OH236787   0.343   1.913  13.367 -0.2569 -0.2820  0.1102
 5099TIP3    H136788   0.316   1.909  13.459 -0.2943  1.4242  0.2015
 5099TIP3    H236789   0.402   1.839  13.356  1.2735  0.5685  2.0548
 5100TIP3   OH236790   1.101   5.269   4.435 -0.2944 -0.3298  0.3760
 5100TIP3    H136791   1.162   5.279   4.361 -0.2820  0.8404  0.5283
 5100TIP3    H236792   1.081   5.358   4.462 -0.3634 -0.7313  1.7448
 5101TIP3   OH236793   6.064   6.622  13.816  0.1373 -0.3257 -0.1186
 5101TIP3    H136794   6.016   6.664  13.887 -0.6111 -0.6121 -0.4534
 5101TIP3    H236795   6.116   6.693  13.777 -0.2396  0.0455  0.0539
 5102TIP3   OH236796   0.827   0.988   3.709  0.1637 -0.2925 -0.1079
 5102TIP3    H136797   0.812   1.056   3.775  0.0228  1.6763 -2.0816
 5102TIP3    H236798   0.827   0.906   3.759 -1.7768  0.9287  2.0848
 5103TIP3   OH236799   1.989   5.911  13.142  0.0879 -0.4759  0.1886
 5103TIP3    H136800   1.922   5.877  13.083  0.7945  1.1363 -1.6801
 5103TIP3    H236801   2.062   5.935  13.085  2.0225 -1.5108  2.0702
 5104TIP3   OH236802   5.624   4.103  14.453  0.0924 -0.0059 -0.6172
 5104TIP3    H136803   5.636   4.192  14.485  0.7509 -0.1022 -0.5636
 5104TIP3    H236804   5.710   4.079  14.418 -0.1006 -0.5880 -0.7043
 5105TIP3   OH236805   4.029   3.982   5.656 -0.4401 -0.0968  0.5824
 5105TIP3    H136806   3.981   3.919   5.709  0.5779 -1.2749  0.1535
 5105TIP3    H236807   3.997   4.068   5.684 -2.0508 -0.8102  0.9861
 5106TIP3   OH236808   5.456   5.527   5.864  0.1303 -0.4098  0.1080
 5106TIP3    H136809   5.424   5.443   5.832  0.4003  0.0148 -1.3542
 5106TIP3    H236810   5.470   5.513   5.957 -0.8634 -1.6624  0.1069
 5107TIP3   OH236811   2.838   0.801   5.574  0.1690 -1.0049  0.8020
 5107TIP3    H136812   2.893   0.823   5.499 -0.3961  0.3631  0.7747
 5107TIP3    H236813   2.841   0.705   5.578  0.6428 -1.0718 -0.6344
 5108TIP3   OH236814   1.976   0.665   3.205 -0.4059 -0.0520  0.3251
 5108TIP3    H136815   1.961   0.630   3.118  1.3442 -1.2095  0.4461
 5108TIP3    H236816   2.071   0.666   3.215 -0.4740  2.0230  1.4531
 5109TIP3   OH236817   3.109   5.051   3.419  0.2581 -0.0398 -0.2624
 5109TIP3    H136818   3.041   5.097   3.370  0.0451 -1.0763 -0.9900
 5109TIP3    H236819   3.067   5.026   3.501  0.2446  0.6777 -0.0491
 5110TIP3   OH236820   6.226   6.713   0.977 -0.0677 -0.0727  0.3002
 5110TIP3    H136821   6.208   6.619   0.982  1.1014 -0.2676  1.3418
 5110TIP3    H236822   6.178   6.751   1.051  0.3037  0.0022  0.5035
 5111TIP3   OH236823   1.948   5.367  13.966  0.2964  0.1742 -0.0942
 5111TIP3    H136824   1.924   5.451  13.928  4.5063  1.1844 -0.9946
 5111TIP3    H236825   1.976   5.313  13.892 -1.2325 -1.7267  0.5979
 5112TIP3   OH236826   2.396   4.377   2.724 -0.1924  0.2228 -0.1556
 5112TIP3    H136827   2.356   4.445   2.670 -1.6124 -1.0436 -0.7705
 5112TIP3    H236828   2.378   4.404   2.814  0.0038  1.0801 -0.3662
 5113TIP3   OH236829   3.012   4.025  16.176  0.5843  0.1145 -0.0377
 5113TIP3    H136830   2.946   4.072  16.227  0.4449  1.2850 -1.2402
 5113TIP3    H236831   3.050   4.092  16.118  1.9959 -0.7878 -0.1997
 5114TIP3   OH236832   2.217   6.597   4.050  0.3947 -0.0199  0.0930
 5114TIP3    H136833   2.225   6.597   4.145  1.0161  0.6750  0.0480
 5114TIP3    H236834   2.179   6.512   4.029 -0.5692  0.1621  1.0266
 5115TIP3   OH236835   5.279   4.383   5.750 -0.8657  0.1724  0.3092
 5115TIP3    H136836   5.203   4.326   5.765  0.3645 -1.4275  0.7228
 5115TIP3    H236837   5.332   4.374   5.829  0.1343  0.6548 -0.2828
 5116TIP3   OH236838   2.793   2.630  11.080 -0.1708 -0.2264  0.3286
 5116TIP3    H136839   2.873   2.680  11.062 -0.6559  0.9495  1.2862
 5116TIP3    H236840   2.726   2.673  11.027 -0.5297 -0.0471  0.9195
 5117TIP3   OH236841   5.822   6.439   1.301  0.1763  0.3192 -0.6356
 5117TIP3    H136842   5.750   6.401   1.351  1.6376  1.2681  2.3901
 5117TIP3    H236843   5.804   6.533   1.299  0.6062  0.3961 -1.1408
 5118TIP3   OH236844   1.606   1.200  15.280 -0.4307 -0.3227  0.4145
 5118TIP3    H136845   1.608   1.222  15.373 -4.1287 -0.4516  0.6726
 5118TIP3    H236846   1.688   1.154  15.264  1.1705  1.3721  3.1286
 5119TIP3   OH236847   2.799   3.706   5.831  0.1263 -0.0702 -0.6970
 5119TIP3    H136848   2.779   3.715   5.924 -0.3877 -1.7334 -0.6120
 5119TIP3    H236849   2.891   3.677   5.830 -0.5792 -2.5718 -0.5107
 5120TIP3   OH236850   1.893   6.099  14.479 -0.1789 -0.4150 -0.4029
 5120TIP3    H136851   1.974   6.118  14.432  0.8261 -0.5290  1.2214
 5120TIP3    H236852   1.883   6.004  14.474  0.4781 -0.5394  0.4502
 5121TIP3   OH236853   1.768   3.014   3.908  0.0679  0.1254 -0.3443
 5121TIP3    H136854   1.849   2.983   3.948  0.5744 -0.0987 -1.4970
 5121TIP3    H236855   1.708   3.028   3.982  1.6930  2.0055  0.7163
 5122TIP3   OH236856   4.100   0.662   0.633 -0.1483  0.5614 -0.0120
 5122TIP3    H136857   4.079   0.636   0.544  0.7671 -0.6966  0.0961
 5122TIP3    H236858   4.079   0.585   0.686  2.0368  0.1832  0.4352
 5123TIP3   OH236859   4.988   0.052  13.308 -0.2437 -0.3270  0.3659
 5123TIP3    H136860   4.958   0.040  13.218 -1.3611 -0.9025  0.7974
 5123TIP3    H236861   5.074   0.094  13.300 -1.3917  1.9842 -0.9407
 5124TIP3   OH236862   2.194   1.638   6.266  0.5085  0.7999 -0.2280
 5124TIP3    H136863   2.261   1.706   6.268  0.6797  0.6267  0.1371
 5124TIP3    H236864   2.206   1.594   6.182  0.6810  0.9365 -0.2756
 5125TIP3   OH236865   0.128   6.062  15.200 -0.0216  0.4086 -0.8884
 5125TIP3    H136866   0.129   6.000  15.273 -1.9199 -0.3875 -1.4740
 5125TIP3    H236867   0.123   6.148  15.241 -0.7218 -0.0125 -0.0607
 5126TIP3   OH236868   2.275   3.691   1.179 -0.4234  0.1766  0.1216
 5126TIP3    H136869   2.234   3.687   1.266  0.3448 -0.8277  0.4562
 5126TIP3    H236870   2.359   3.647   1.191  0.4120  1.4628 -0.7424
 5127TIP3   OH236871   0.523   6.543   3.885 -0.7074 -0.2722  0.2014
 5127TIP3    H136872   0.441   6.586   3.862  0.2224  1.4631 -0.0408
 5127TIP3    H236873   0.586   6.575   3.821  0.3119 -1.0502  0.7812
 5128TIP3   OH236874   2.954   3.463  14.955 -0.4119 -0.0243  0.2006
 5128TIP3    H136875   2.929   3.541  15.006  0.6867  0.3438  0.2056
 5128TIP3    H236876   2.960   3.494  14.865 -1.2086 -0.4114  0.0011
 5129TIP3   OH236877   0.597   0.260  14.715  0.0883  0.3326  0.2089
 5129TIP3    H136878   0.606   0.210  14.796  0.3936  0.8655  0.5178
 5129TIP3    H236879   0.687   0.282  14.691 -0.0759  1.5478  0.6144
 5130TIP3   OH236880   6.365   0.295  13.887  0.1999 -0.2087  0.0954
 5130TIP3    H136881   6.410   0.337  13.960 -0.5913 -0.7856  0.9360
 5130TIP3    H236882   6.326   0.216  13.924 -2.1558  0.6330 -0.3792
 5131TIP3   OH236883   0.839   1.927   0.122  0.5066  0.2385  0.1566
 5131TIP3    H136884   0.872   1.838   0.134  1.1522  0.3239 -0.9151
 5131TIP3    H236885   0.796   1.926   0.037  0.8909  1.0521 -0.0608
 5132TIP3   OH236886   5.779   5.620   1.463  0.0064 -0.3634 -0.7604
 5132TIP3    H136887   5.692   5.622   1.423  0.4107  0.6868 -1.6447
 5132TIP3    H236888   5.767   5.573   1.545 -1.6476  0.7741 -0.3002
 5133TIP3   OH236889   3.569   5.894  17.057  0.1383  0.1927 -0.2350
 5133TIP3    H136890   3.558   5.906  17.151 -0.9940  0.7417 -0.4099
 5133TIP3    H236891   3.641   5.952  17.033  0.6584 -0.2092  0.3388
 5134TIP3   OH236892   6.297   6.362   1.641  0.1936  0.0424 -0.4274
 5134TIP3    H136893   6.216   6.312   1.646  1.0486 -1.3029  0.6786
 5134TIP3    H236894   6.363   6.299   1.612  1.2056  0.6363  0.4866
 5135TIP3   OH236895   4.362   4.915  11.387  0.3973 -0.3262  0.1039
 5135TIP3    H136896   4.326   4.914  11.298  1.4895  0.5763 -0.3730
 5135TIP3    H236897   4.454   4.936  11.375  0.5875 -0.2977  1.4599
 5136TIP3   OH236898   2.352   1.047  15.517 -0.1123  0.1448 -0.5015
 5136TIP3    H136899   2.410   0.988  15.565 -1.2646 -0.1341  0.5864
 5136TIP3    H236900   2.383   1.135  15.541 -0.4003  0.0027  0.4479
 5137TIP3   OH236901   2.137   6.723  13.573  0.0636 -0.3268 -0.0233
 5137TIP3    H136902   2.103   6.648  13.525 -1.4063  0.0676  0.3721
 5137TIP3    H236903   2.217   6.748  13.526 -1.1704 -0.1397 -2.0890
 5138TIP3   OH236904   4.517   2.073   1.461  0.8075 -1.1507 -0.2569
 5138TIP3    H136905   4.463   2.150   1.477  1.5815 -1.0185  2.3010
 5138TIP3    H236906   4.478   2.031   1.385 -2.4222 -0.6893  0.9947
 5139TIP3   OH236907   5.075   1.718   2.382 -0.0928  0.3733  0.1755
 5139TIP3    H136908   5.157   1.697   2.428 -0.4908 -0.3588  0.5726
 5139TIP3    H236909   5.103   1.750   2.296  0.6044 -1.6321 -0.4171
 5140TIP3   OH236910   6.522   6.346   1.175  0.0883 -0.4749  0.5257
 5140TIP3    H136911   6.508   6.396   1.094 -0.1658 -0.7430  0.4015
 5140TIP3    H236912   6.615   6.324   1.173 -0.0644 -1.1248 -0.0756
 5141TIP3   OH236913   3.410   3.388  12.949 -0.7278 -0.0578  0.2929
 5141TIP3    H136914   3.426   3.420  12.860 -0.3349 -0.3534  0.2523
 5141TIP3    H236915   3.330   3.432  12.976  0.5092  2.0685  0.7517
 5142TIP3   OH236916   5.825   2.817  15.812 -0.5850  0.0893 -0.9507
 5142TIP3    H136917   5.911   2.794  15.846 -0.4562 -0.4282 -1.6014
 5142TIP3    H236918   5.824   2.913  15.811 -0.5379  0.1181  0.3351
 5143TIP3   OH236919   0.831   6.754   5.949 -0.0358 -0.3554  0.1596
 5143TIP3    H136920   0.783   6.706   6.017 -0.0194 -0.4200  0.1254
 5143TIP3    H236921   0.922   6.751   5.977 -0.0558 -0.2007  0.2434
 5144TIP3   OH236922   1.657   0.250  15.407 -0.0948  0.1474  0.1357
 5144TIP3    H136923   1.738   0.300  15.418 -0.4539  0.6606  0.4749
 5144TIP3    H236924   1.592   0.315  15.380 -0.6820 -0.0407  1.0493
 5145TIP3   OH236925   3.145   2.438  13.810 -0.1471 -0.6208 -0.1142
 5145TIP3    H136926   3.209   2.386  13.763  0.5655  0.5190 -0.4407
 5145TIP3    H236927   3.191   2.519  13.833 -1.3690  0.0993 -0.0984
 5146TIP3   OH236928   3.462   2.197  11.057  0.0178  0.0477 -0.2239
 5146TIP3    H136929   3.461   2.102  11.046  1.2936 -0.3036  1.9723
 5146TIP3    H236930   3.395   2.229  10.996 -1.7203 -2.3982  0.2217
 5147TIP3   OH236931   3.327   3.813  16.068 -0.1882  0.0563  0.7072
 5147TIP3    H136932   3.320   3.885  16.005  0.2307  0.2742  0.9055
 5147TIP3    H236933   3.380   3.849  16.139 -0.3454 -0.3108  1.0078
 5148TIP3   OH236934   1.382   0.707  13.694  0.0074 -0.5287  0.0466
 5148TIP3    H136935   1.463   0.753  13.669 -0.8401  0.5782 -0.8057
 5148TIP3    H236936   1.360   0.742  13.780  0.2685 -0.5959  0.1404
 5149TIP3   OH236937   5.790   1.765   4.142  0.1669  0.2614  0.1465
 5149TIP3    H136938   5.859   1.765   4.076  1.1822 -0.2397  1.1600
 5149TIP3    H236939   5.812   1.692   4.200 -1.8365 -0.6039 -0.1034
 5150TIP3   OH236940   4.530   5.899   0.346  0.0052 -0.8271  0.5369
 5150TIP3    H136941   4.526   5.992   0.327 -3.8266 -0.8381  0.5095
 5150TIP3    H236942   4.579   5.893   0.428  0.8158  1.1266  0.2275
 5151TIP3   OH236943   1.093   4.703  15.324 -0.2426 -0.4252  0.2410
 5151TIP3    H136944   1.096   4.771  15.257 -1.6301 -1.6596 -1.1549
 5151TIP3    H236945   1.062   4.748  15.403  1.2011  1.0039  0.0416
 5152TIP3   OH236946   2.279   1.645  13.268 -0.0584 -0.0268 -0.4107
 5152TIP3    H136947   2.344   1.716  13.271  0.4918 -0.5331 -0.1024
 5152TIP3    H236948   2.226   1.665  13.191  1.8361 -0.7451 -2.0068
 5153TIP3   OH236949   0.333   3.102   0.939  0.4522 -0.0995 -0.8122
 5153TIP3    H136950   0.361   3.012   0.924  1.2448  0.2037 -1.1725
 5153TIP3    H236951   0.359   3.120   1.030  1.2015  0.0951 -1.0614
 5154TIP3   OH236952   0.224   1.607  14.229  0.2008 -0.1696  0.2823
 5154TIP3    H136953   0.304   1.555  14.227  0.5584  0.3175  1.1760
 5154TIP3    H236954   0.228   1.661  14.151  1.3350  0.6930  0.9049
 5155TIP3   OH236955   0.883   3.604   2.214  0.0101  0.3932 -0.0910
 5155TIP3    H136956   0.917   3.617   2.303  0.6728  1.4048 -0.4777
 5155TIP3    H236957   0.959   3.618   2.157 -0.3682 -0.4151 -0.8198
 5156TIP3   OH236958   1.183   2.859  15.400 -0.0592 -0.6649 -0.2585
 5156TIP3    H136959   1.094   2.832  15.379 -0.7028  1.1519 -0.0815
 5156TIP3    H236960   1.213   2.906  15.322 -1.0038  2.6710  1.1972
 5157TIP3   OH236961   5.783   3.351   0.656 -0.0140  0.1358  0.1347
 5157TIP3    H136962   5.786   3.387   0.744 -0.5970  0.4912  0.0167
 5157TIP3    H236963   5.787   3.256   0.668  0.2732  0.1971  0.5185
 5158TIP3   OH236964   0.953   2.687  14.492  0.3978 -0.2538 -0.5689
 5158TIP3    H136965   0.882   2.740  14.528  1.8254  0.8519  0.7575
 5158TIP3    H236966   0.908   2.618  14.443 -1.7621 -1.9723  3.3706
 5159TIP3   OH236967   1.244   5.348   5.759 -0.1388 -0.1250 -0.2898
 5159TIP3    H136968   1.275   5.357   5.849 -0.8028  0.2229 -0.0835
 5159TIP3    H236969   1.230   5.438   5.729 -2.2416 -0.2528  0.1162
 5160TIP3   OH236970   3.932   0.291  12.739  0.2723 -0.0233  0.0984
 5160TIP3    H136971   3.934   0.222  12.805 -0.4887  0.1501  0.3167
 5160TIP3    H236972   3.885   0.363  12.781 -0.4849 -0.0139 -0.7163
 5161TIP3   OH236973   5.081   1.494  14.823 -0.0144  0.1958 -0.6488
 5161TIP3    H136974   5.154   1.454  14.776  0.4848  0.4160 -0.0796
 5161TIP3    H236975   5.115   1.580  14.850 -0.7921  0.6725 -1.1585
 5162TIP3   OH236976   5.637   3.484   2.799  0.5351 -0.3292 -0.4711
 5162TIP3    H136977   5.547   3.469   2.830  0.8018 -1.3243 -0.1532
 5162TIP3    H236978   5.645   3.427   2.722  2.1392 -3.4537  1.7720
 5163TIP3   OH236979   3.162   2.532  16.366 -0.5899 -0.7912  0.1316
 5163TIP3    H136980   3.190   2.486  16.445 -1.2469 -3.1771 -0.9233
 5163TIP3    H236981   3.066   2.523  16.365 -0.7094  0.3014 -0.3167
 5164TIP3   OH236982   5.900   1.048  13.485 -0.0917 -0.6829 -0.2944
 5164TIP3    H136983   5.820   1.077  13.528 -0.1350  0.1127 -0.8869
 5164TIP3    H236984   5.922   0.966  13.528 -1.9634 -1.6236 -0.9960
 5165TIP3   OH236985   5.776   2.289  12.324  0.0325 -0.0323 -0.0483
 5165TIP3    H136986   5.707   2.270  12.261  0.5074  0.3262 -0.6862
 5165TIP3    H236987   5.842   2.221  12.308  0.8089  0.9035 -0.9426
 5166TIP3   OH236988   6.554   0.013   1.541  0.1641 -0.7534  0.0892
 5166TIP3    H136989   6.498  -0.052   1.584 -1.0473 -0.2826 -0.6981
 5166TIP3    H236990   6.531   0.006   1.448  1.8004 -0.8869 -0.3353
 5167TIP3   OH236991   2.253   2.195  13.769 -0.7124 -0.0165  0.4847
 5167TIP3    H136992   2.162   2.200  13.796 -0.4899  0.7444  1.1275
 5167TIP3    H236993   2.253   2.132  13.696 -1.9434  0.9374 -0.3865
 5168TIP3   OH236994   0.933   0.481   0.961  0.2994  0.8910  0.0451
 5168TIP3    H136995   0.922   0.513   0.871  1.2050  1.5846  0.1570
 5168TIP3    H236996   0.981   0.399   0.952 -0.3352  0.5450 -0.1517
 5169TIP3   OH236997   5.227   3.155   3.096  0.3662  0.2526 -0.2265
 5169TIP3    H136998   5.161   3.212   3.058 -0.6654 -0.9603 -0.2950
 5169TIP3    H236999   5.209   3.157   3.190 -1.1077 -1.6484 -0.4140
 5170TIP3   OH237000   1.073   2.073   0.122 -0.2873 -0.1426 -0.2934
 5170TIP3    H137001   0.985   2.037   0.134 -0.3239  0.1299  0.3074
 5170TIP3    H237002   1.082   2.086   0.028 -1.3087  0.8734 -0.2615
 5171TIP3   OH237003   6.559   1.904  12.456 -0.5029  0.5942  0.3322
 5171TIP3    H137004   6.584   1.953  12.378  0.8093  1.7341  1.4047
 5171TIP3    H237005   6.476   1.943  12.483  1.0150  3.1260  1.7605
 5172TIP3   OH237006   4.533   2.035  12.613  0.4437 -0.4319  0.3620
 5172TIP3    H137007   4.443   2.039  12.582 -0.3938  1.0885  2.7428
 5172TIP3    H237008   4.527   2.052  12.707  2.9809 -2.8376  1.0952
 5173TIP3   OH237009   3.745   0.788   3.996  1.0070  0.2849  0.2567
 5173TIP3    H137010   3.780   0.820   3.913 -0.1832  1.4910  0.1709
 5173TIP3    H237011   3.820   0.785   4.055  2.1819 -2.0462 -1.2161
 5174TIP3   OH237012   1.794   4.201  11.793  0.2758 -0.2349  0.0790
 5174TIP3    H137013   1.876   4.187  11.840 -0.4587 -0.6771  1.2608
 5174TIP3    H237014   1.799   4.291  11.761  0.8172  0.0425  0.9309
 5175TIP3   OH237015   3.735   2.306   5.215 -0.6690 -0.7019  0.0181
 5175TIP3    H137016   3.816   2.276   5.174 -0.8672 -0.2313 -0.7482
 5175TIP3    H237017   3.686   2.226   5.234 -1.2008 -0.9211 -2.0123
 5176TIP3   OH237018   3.327   2.488  15.850 -0.1049  1.0183 -0.4938
 5176TIP3    H137019   3.385   2.412  15.846  1.2718  1.9550  0.8219
 5176TIP3    H237020   3.281   2.479  15.933  1.7200  2.7187  0.7877
 5177TIP3   OH237021   2.055   6.284   4.353  0.1327  0.4370 -0.0826
 5177TIP3    H137022   2.003   6.270   4.274 -1.3093  0.6720  0.7852
 5177TIP3    H237023   2.042   6.205   4.406  0.2826  0.6873  0.3385
 5178TIP3   OH237024   6.067   1.958   0.529  0.0680  0.7684  0.0785
 5178TIP3    H137025   6.007   1.883   0.521  1.0147  0.1169 -1.3509
 5178TIP3    H237026   6.061   2.002   0.444  2.7669 -0.2283 -0.7221
 5179TIP3   OH237027   0.009   2.017   4.701 -0.6893 -0.0991 -0.4926
 5179TIP3    H137028   0.095   2.045   4.669 -0.2818 -1.3583 -0.5377
 5179TIP3    H237029  -0.029   2.096   4.738  0.2051  0.6349 -1.0865
 5180TIP3   OH237030   4.030   4.012   2.765  0.6735  0.0209 -0.0028
 5180TIP3    H137031   3.987   4.097   2.776  0.0332 -0.4393  1.2705
 5180TIP3    H237032   3.964   3.948   2.793  1.2825 -0.8841 -0.5556
 5181TIP3   OH237033   5.090   6.436  16.394 -0.6003  0.1005  0.4735
 5181TIP3    H137034   5.028   6.422  16.322 -1.7938  1.0351  1.3038
 5181TIP3    H237035   5.171   6.462  16.350 -0.7694 -1.1379 -0.6245
 5182TIP3   OH237036   5.750   0.019   6.311  0.2195 -0.0871  0.8287
 5182TIP3    H137037   5.829  -0.032   6.329  0.0172 -0.5152  0.5345
 5182TIP3    H237038   5.683  -0.019   6.369 -0.1788 -0.8110 -0.0757
 5183TIP3   OH237039   1.927   2.301  16.017 -0.0342 -0.4353 -0.3965
 5183TIP3    H137040   2.010   2.265  16.049 -0.0995 -2.0467 -1.8869
 5183TIP3    H237041   1.865   2.228  16.023 -0.5053 -0.2479 -2.3841
 5184TIP3   OH237042   4.692   5.853   1.881  0.1981 -0.7492  0.1293
 5184TIP3    H137043   4.643   5.899   1.813  0.4284 -0.1874  0.3373
 5184TIP3    H237044   4.784   5.870   1.860  0.2889  1.2788  1.7771
 5185TIP3   OH237045   4.989   0.433  15.738  0.6497  0.6102  0.2941
 5185TIP3    H137046   5.060   0.380  15.775  0.8523 -0.1527 -1.0989
 5185TIP3    H237047   4.909   0.385  15.761  0.5181  1.6339  2.1351
 5186TIP3   OH237048   1.695   2.871  16.611  0.0139  0.0277 -0.3657
 5186TIP3    H137049   1.694   2.910  16.699  0.3879 -2.0942  0.6606
 5186TIP3    H237050   1.786   2.844  16.597  0.0032  0.5321 -1.5216
 5187TIP3   OH237051   3.823   6.120   6.305 -0.3960 -0.3741 -0.0862
 5187TIP3    H137052   3.822   6.111   6.209  0.0701 -0.9811 -0.0400
 5187TIP3    H237053   3.731   6.117   6.330 -0.4907 -0.8415 -0.4659
 5188TIP3   OH237054   4.802   5.181  16.968  0.1656  0.2186 -0.0855
 5188TIP3    H137055   4.736   5.111  16.975  0.8396 -0.2717  2.5320
 5188TIP3    H237056   4.816   5.191  16.874 -2.3491 -0.8626 -0.6665
 5189TIP3   OH237057   3.464   1.205  10.883 -0.4717 -0.0910  0.0228
 5189TIP3    H137058   3.417   1.214  10.966  0.8733  0.2229  0.7897
 5189TIP3    H237059   3.520   1.283  10.879 -2.0742  1.0874 -2.2802
 5190TIP3   OH237060   1.733   2.897   4.517 -0.1373  0.3112  0.3879
 5190TIP3    H137061   1.810   2.906   4.460  0.5914  4.1081  1.6369
 5190TIP3    H237062   1.664   2.945   4.472 -0.8463 -0.3674  0.7317
 5191TIP3   OH237063   3.644   2.122  13.199 -0.2728 -0.5208 -0.5846
 5191TIP3    H137064   3.583   2.196  13.199  3.3649  2.9113  1.6469
 5191TIP3    H237065   3.634   2.083  13.286  0.4022 -0.2129 -0.3661
 5192TIP3   OH237066   5.919   2.763   1.515  0.5266 -0.9566 -0.2964
 5192TIP3    H137067   5.894   2.758   1.608  1.9550 -0.1469  0.1687
 5192TIP3    H237068   6.011   2.790   1.517  0.3302 -0.0564 -1.9669
 5193TIP3   OH237069   4.992   3.186   4.818 -0.1411 -0.0064  0.1954
 5193TIP3    H137070   4.952   3.245   4.881  0.2101 -0.3290  0.7229
 5193TIP3    H237071   4.983   3.232   4.734 -2.0748 -0.2966  0.1926
 5194TIP3   OH237072   6.189   6.290  15.722  0.2517  0.0139  0.4635
 5194TIP3    H137073   6.152   6.375  15.746 -0.6950 -0.5135  0.9027
 5194TIP3    H237074   6.282   6.297  15.746  0.7464  1.6945 -1.5387
 5195TIP3   OH237075   3.328   5.084  12.932 -0.3004 -0.4813 -0.1131
 5195TIP3    H137076   3.262   5.121  12.990  0.7184  0.2622  0.6096
 5195TIP3    H237077   3.301   5.112  12.844 -0.6740  0.2532  0.2262
 5196TIP3   OH237078   2.582   3.113   3.074  0.5239  0.1033 -0.2358
 5196TIP3    H137079   2.661   3.101   3.127 -0.3873  3.2518  2.1181
 5196TIP3    H237080   2.608   3.176   3.006  0.2755  0.5204  0.0488
 5197TIP3   OH237081   1.621   6.229  11.463 -0.6730 -0.5980 -0.1259
 5197TIP3    H137082   1.682   6.260  11.530 -0.6786  0.8085 -0.7395
 5197TIP3    H237083   1.677   6.203  11.390 -0.7615  1.3156 -0.9468
 5198TIP3   OH237084   0.985   3.715  11.245 -0.1418  0.3496 -0.0741
 5198TIP3    H137085   0.952   3.626  11.238  2.1417 -0.5656 -0.1725
 5198TIP3    H237086   0.941   3.762  11.174 -1.9452 -0.4686  0.4484
 5199TIP3   OH237087   0.762   2.537  12.737 -0.2445  0.0848 -0.7838
 5199TIP3    H137088   0.730   2.613  12.785  0.3389 -0.5022  0.6043
 5199TIP3    H237089   0.729   2.549  12.648 -2.4565  0.5898  0.0312
 5200TIP3   OH237090   5.229   1.544  11.036 -0.1473 -0.1803 -0.4062
 5200TIP3    H137091   5.187   1.470  10.991  1.3536 -0.3979 -1.4990
 5200TIP3    H237092   5.193   1.622  10.993 -1.6447 -0.2270  0.6719
 5201TIP3   OH237093   0.582   3.901   4.097  0.2333 -0.1137  0.0535
 5201TIP3    H137094   0.579   3.847   4.018 -0.4383 -1.5023  0.9795
 5201TIP3    H237095   0.616   3.842   4.165 -0.1835  0.7326  1.0282
 5202TIP3   OH237096   0.467   6.079  14.384 -0.0791  0.0665  0.6735
 5202TIP3    H137097   0.405   6.113  14.449  0.0443 -0.5027  1.1025
 5202TIP3    H237098   0.526   6.023  14.435  1.5636  1.5651  0.4771
 5203TIP3   OH237099   4.002   6.321   2.051 -0.6203  0.1169 -0.1818
 5203TIP3    H137100   4.060   6.258   2.009  0.7298  0.1238  1.5719
 5203TIP3    H237101   4.024   6.405   2.009  0.0322 -0.0231 -0.1338
 5204TIP3   OH237102   5.439   3.938  11.477  0.8196 -0.0790 -0.0516
 5204TIP3    H137103   5.409   3.915  11.389  0.1466  0.8594 -0.0786
 5204TIP3    H237104   5.413   4.029  11.488  0.0578 -0.4560  1.4791
 5205TIP3   OH237105   1.335   5.028   6.315  0.6831  0.8300  0.5121
 5205TIP3    H137106   1.273   4.956   6.334  1.8850 -0.7035 -1.0583
 5205TIP3    H237107   1.279   5.105   6.305 -1.0187 -0.4832 -0.7770
 5206TIP3   OH237108   4.814   1.730   5.459 -0.0282  0.2153 -0.5737
 5206TIP3    H137109   4.799   1.652   5.404 -1.1077  0.4183 -0.5791
 5206TIP3    H237110   4.890   1.706   5.512 -0.3848 -0.8798 -0.5188
 5207TIP3   OH237111   6.829   4.240   4.596 -0.2895  0.3389  0.3398
 5207TIP3    H137112   6.903   4.182   4.613 -0.4491 -0.2523 -0.9382
 5207TIP3    H237113   6.853   4.322   4.640  0.4500 -0.3134  1.1802
 5208TIP3   OH237114   0.918   6.080   4.351 -0.2303  0.2890 -0.1666
 5208TIP3    H137115   0.880   6.066   4.264  1.4507  0.0805 -0.9272
 5208TIP3    H237116   0.848   6.118   4.403 -1.7970 -1.1535 -1.1225
 5209TIP3   OH237117   2.858   0.178   4.266 -0.8463  0.1772 -0.0054
 5209TIP3    H137118   2.902   0.238   4.206 -0.6730  1.5479  1.4297
 5209TIP3    H237119   2.779   0.150   4.219  0.7469 -1.1815 -2.0361
 5210TIP3   OH237120   4.164   6.303   1.098  0.1707  0.2724 -0.6547
 5210TIP3    H137121   4.252   6.277   1.070 -0.0801  0.4162 -1.6262
 5210TIP3    H237122   4.159   6.276   1.190  1.6591  1.3795 -0.2143
 5211TIP3   OH237123   3.485   3.202   2.032 -0.0083  0.5297 -0.4829
 5211TIP3    H137124   3.422   3.130   2.035  2.3345 -1.6761  0.2173
 5211TIP3    H237125   3.542   3.186   2.108  1.6470  2.1038 -1.3250
 5212TIP3   OH237126   2.526   0.422   1.496 -0.0843  0.1802  0.0063
 5212TIP3    H137127   2.539   0.516   1.486  0.0066  0.0568 -1.1672
 5212TIP3    H237128   2.579   0.383   1.427 -0.3277 -0.7222  0.3157
 5213TIP3   OH237129   5.667   1.279   1.557 -0.4815  0.3558  0.0319
 5213TIP3    H137130   5.608   1.310   1.626 -1.7326 -1.1735 -0.2789
 5213TIP3    H237131   5.614   1.281   1.477 -0.0293 -0.7022 -0.3202
 5214TIP3   OH237132   5.471   3.882  12.552  0.1955  0.0302 -0.1925
 5214TIP3    H137133   5.431   3.836  12.478 -0.8663 -0.0897  0.4292
 5214TIP3    H237134   5.439   3.834  12.629  1.0970  0.2886  0.3542
 5215TIP3   OH237135   0.632   1.774  12.200 -0.0780  0.3034  0.5955
 5215TIP3    H137136   0.603   1.750  12.112 -2.0354 -3.2772  1.9983
 5215TIP3    H237137   0.558   1.819  12.240  0.5711  1.3547  0.6609
 5216TIP3   OH237138   3.142   0.853   0.815 -0.2445  0.7196 -0.1214
 5216TIP3    H137139   3.200   0.792   0.770  0.6369  0.6945  0.9838
 5216TIP3    H237140   3.069   0.799   0.845  0.2953  0.2785  0.4396
 5217TIP3   OH237141   4.405   5.986   4.613  0.2294  0.6379 -0.4376
 5217TIP3    H137142   4.446   5.916   4.663  1.1815  0.5488 -1.3079
 5217TIP3    H237143   4.340   5.942   4.557  0.6773  0.4722 -0.8302
 5218TIP3   OH237144   3.150   6.727  14.474 -0.8107 -0.5726 -0.6450
 5218TIP3    H137145   3.204   6.677  14.413  3.0309  0.7742  1.2917
 5218TIP3    H237146   3.127   6.807  14.427  1.3543  0.0582 -0.7130
 5219TIP3   OH237147   1.812   6.796  16.066  0.0103 -0.6212 -0.0185
 5219TIP3    H137148   1.764   6.865  16.020 -0.3532  1.1920  2.8834
 5219TIP3    H237149   1.904   6.815  16.046 -0.1836 -0.8522 -1.2336
 5220TIP3   OH237150   6.104   0.080   2.442 -0.3326 -0.4669  0.5568
 5220TIP3    H137151   6.061  -0.003   2.460  0.5517 -0.5087  2.7724
 5220TIP3    H237152   6.075   0.138   2.512  1.1525  0.2713  0.6010
 5221TIP3   OH237153   2.557   5.047  13.192  0.3486 -0.8474  0.4271
 5221TIP3    H137154   2.466   5.019  13.180  0.2893 -0.7074  0.5439
 5221TIP3    H237155   2.596   5.041  13.105 -0.6945  2.4017 -0.4310
 5222TIP3   OH237156   3.564   5.065   3.561  0.6473 -0.3057 -0.0516
 5222TIP3    H137157   3.564   4.976   3.525 -2.2805 -0.5183  0.1742
 5222TIP3    H237158   3.482   5.103   3.530  0.9757  1.6910  1.3243
 5223TIP3   OH237159   5.336   2.738   0.697  0.0835  0.0665 -0.4468
 5223TIP3    H137160   5.328   2.788   0.777  1.2576  0.3766 -0.5088
 5223TIP3    H237161   5.332   2.803   0.627 -0.1711 -0.1209 -0.6092
 5224TIP3   OH237162   4.305   4.627  15.048 -0.1122  0.3461  0.3238
 5224TIP3    H137163   4.283   4.717  15.072 -2.2004 -0.0719  0.1446
 5224TIP3    H237164   4.238   4.573  15.091  1.9664 -1.3119  1.7073
 5225TIP3   OH237165   3.857   5.746  14.401 -0.3582  0.5423  0.2313
 5225TIP3    H137166   3.767   5.761  14.431 -1.0536 -0.6219 -1.1165
 5225TIP3    H237167   3.850   5.744  14.305  1.0846  0.2422  0.1089
 5226TIP3   OH237168   2.279   6.188   3.002 -0.2204  0.4802 -0.1982
 5226TIP3    H137169   2.328   6.241   3.065 -1.8621  0.4668  1.1573
 5226TIP3    H237170   2.188   6.199   3.027 -0.8616 -0.3317 -1.9978
 5227TIP3   OH237171   2.205   5.738  11.759 -0.3020  0.4243  0.0849
 5227TIP3    H137172   2.172   5.717  11.671 -0.9383  0.2246  0.3694
 5227TIP3    H237173   2.246   5.824  11.749 -0.1443  0.2897 -0.4669
 5228TIP3   OH237174   5.796   4.348  12.897 -0.3587 -0.0050 -0.8654
 5228TIP3    H137175   5.722   4.287  12.888 -0.9968  0.0719  2.5855
 5228TIP3    H237176   5.755   4.434  12.904  0.1273  0.1703 -0.1068
 5229TIP3   OH237177   3.610   1.405   5.550 -0.1415 -0.3419 -0.0520
 5229TIP3    H137178   3.550   1.332   5.534  0.1702 -0.4075 -0.9781
 5229TIP3    H237179   3.587   1.470   5.484 -0.9958  0.7893  1.2988
 5230TIP3   OH237180   5.921   2.017   3.554 -0.3740  0.2178 -0.0751
 5230TIP3    H137181   5.910   2.034   3.648 -0.3668  1.9852 -0.3473
 5230TIP3    H237182   5.835   2.035   3.517 -0.5501 -1.1232 -0.3408
 5231TIP3   OH237183   2.158   0.568  13.086  0.0067 -0.6658 -0.3539
 5231TIP3    H137184   2.124   0.657  13.092  0.2597 -0.5124 -1.0361
 5231TIP3    H237185   2.253   0.578  13.091  0.1239 -0.7339 -1.8136
 5232TIP3   OH237186   2.948   0.561   1.277 -0.8425 -0.4799 -0.2180
 5232TIP3    H137187   2.912   0.480   1.312  0.4839 -1.4966 -1.0922
 5232TIP3    H237188   3.042   0.551   1.283 -0.6294  0.6158 -1.1863
 5233TIP3   OH237189   2.005   5.037  17.002  0.3025 -0.2446 -0.1961
 5233TIP3    H137190   1.983   5.006  16.914 -2.0606  1.5413 -0.3242
 5233TIP3    H237191   1.935   5.002  17.058  1.8145 -1.4275  1.0440
 5234TIP3   OH237192   2.290   6.018   2.781 -0.1175 -0.5030 -0.3122
 5234TIP3    H137193   2.280   6.066   2.863  2.8053 -0.0233 -0.1514
 5234TIP3    H237194   2.359   5.955   2.798 -0.0156 -0.9520 -2.1765
 5235TIP3   OH237195   2.929   6.478  12.491 -0.5731  0.4560  0.2954
 5235TIP3    H137196   3.002   6.481  12.430  0.7605 -1.3927  1.6596
 5235TIP3    H237197   2.851   6.474  12.436  0.5585 -0.9747 -1.3143
 5236TIP3   OH237198   0.651   0.123  14.980  0.2086 -0.3090  0.1453
 5236TIP3    H137199   0.746   0.121  14.985  0.4908 -0.8518 -3.1359
 5236TIP3    H237200   0.623   0.040  15.020  1.0572 -0.1398  1.1359
 5237TIP3   OH237201   0.393   1.477  17.112  0.3581  0.5135  0.1263
 5237TIP3    H137202   0.456   1.416  17.072 -0.3184  0.3475 -0.7199
 5237TIP3    H237203   0.371   1.437  17.196  1.2434  0.4899  0.3616
 5238TIP3   OH237204   2.231   1.817   4.980  0.2549 -0.0172 -0.7208
 5238TIP3    H137205   2.289   1.831   5.055  0.2134 -1.1308 -0.4612
 5238TIP3    H237206   2.144   1.812   5.017  0.1126  0.5024 -0.9767
 5239TIP3   OH237207   6.160   1.634   0.857  0.5899 -0.2535  0.4352
 5239TIP3    H137208   6.098   1.705   0.872  0.6474  0.4553 -2.1971
 5239TIP3    H237209   6.240   1.663   0.900  1.1106  2.1606 -1.8396
 5240TIP3   OH237210   1.946   3.725   5.647 -0.0149 -0.1277 -0.3834
 5240TIP3    H137211   2.010   3.654   5.639 -0.4727 -1.1488  3.1654
 5240TIP3    H237212   1.878   3.704   5.582  1.1664 -1.3850 -1.2602
 5241TIP3   OH237213   4.766   0.214   2.203 -0.4223  0.4268 -0.8108
 5241TIP3    H137214   4.730   0.240   2.119 -1.2828 -0.7814 -0.8490
 5241TIP3    H237215   4.839   0.156   2.181 -1.1714 -0.5686 -0.7535
 5242TIP3   OH237216   2.384   5.883  16.495 -0.5891 -0.1190  0.4060
 5242TIP3    H137217   2.331   5.814  16.455  0.4362 -1.1518  0.7772
 5242TIP3    H237218   2.464   5.885  16.443 -0.5670  0.7582  0.4474
 5243TIP3   OH237219   2.994   4.011  15.337 -0.0400 -0.0909 -0.0736
 5243TIP3    H137220   3.088   4.016  15.318 -0.0588  1.4517  0.1443
 5243TIP3    H237221   2.952   4.023  15.252 -0.0503 -1.1648 -0.2308
 5244TIP3   OH237222   6.432   2.355   5.040 -0.3516  0.1984  0.5031
 5244TIP3    H137223   6.377   2.346   4.963 -0.4167 -0.5531  0.6277
 5244TIP3    H237224   6.455   2.448   5.043  1.9025 -0.1442 -1.9678
 5245TIP3   OH237225   5.726   2.095  12.964 -0.2676 -0.2031 -0.8760
 5245TIP3    H137226   5.689   2.175  13.003  1.3429 -0.2649  0.9136
 5245TIP3    H237227   5.728   2.032  13.036  2.5029 -0.4448 -1.0793
 5246TIP3   OH237228   0.547   0.856   2.914 -0.0910  0.0413  0.4090
 5246TIP3    H137229   0.615   0.795   2.944 -1.1531 -3.0823 -2.7750
 5246TIP3    H237230   0.466   0.820   2.949 -0.5869  0.5297 -0.2111
 5247TIP3   OH237231   2.650   0.334  14.632  0.7345  0.4345  0.7900
 5247TIP3    H137232   2.582   0.336  14.564  0.7201 -0.6369  0.7558
 5247TIP3    H237233   2.630   0.409  14.688 -0.2768  0.3375  0.5806
 5248TIP3   OH237234   3.736   5.625  17.107  0.0002 -0.1718  0.3534
 5248TIP3    H137235   3.711   5.576  17.028 -0.5077 -1.0074  1.0176
 5248TIP3    H237236   3.684   5.705  17.102  0.0361 -0.1765 -0.2057
 5249TIP3   OH237237   1.015   2.478   5.774 -0.0195 -0.3601 -0.4933
 5249TIP3    H137238   0.945   2.491   5.711  0.7584 -1.7780 -1.7152
 5249TIP3    H237239   1.095   2.499   5.726  0.5988 -1.6559 -0.0653
 5250TIP3   OH237240   2.085   5.668   0.430  0.3897  0.3963 -0.4521
 5250TIP3    H137241   2.011   5.608   0.419  0.1831  0.0456  2.2512
 5250TIP3    H237242   2.138   5.628   0.499  2.0522  1.6562 -0.9434
 5251TIP3   OH237243   5.114   3.389   0.142 -0.2071  0.0570  0.0659
 5251TIP3    H137244   5.095   3.324   0.210 -3.2450  1.1844  0.4347
 5251TIP3    H237245   5.141   3.467   0.191  1.6096 -0.3056 -0.2881
 5252TIP3   OH237246   2.489   0.152  11.697 -0.3400  0.5852 -0.7986
 5252TIP3    H137247   2.447   0.170  11.613 -1.2315 -0.5137 -0.6128
 5252TIP3    H237248   2.427   0.186  11.762  0.2852  1.3154 -0.5627
 5253TIP3   OH237249   4.591   6.068  11.871  0.0024 -0.0261  0.2965
 5253TIP3    H137250   4.596   5.986  11.920 -0.1528  0.5051  1.2275
 5253TIP3    H237251   4.515   6.114  11.907  2.0662  2.0916  2.3597
 5254TIP3   OH237252   6.099   1.307   3.336 -0.0965 -0.7838 -0.0585
 5254TIP3    H137253   6.053   1.374   3.387 -1.4184 -1.0697 -0.8513
 5254TIP3    H237254   6.154   1.262   3.401 -0.7447 -0.2778  0.8653
 5255TIP3   OH237255   2.524   2.156  13.573 -0.6047  0.2036  0.1541
 5255TIP3    H137256   2.514   2.093  13.645  0.3821 -0.5534 -0.3556
 5255TIP3    H237257   2.590   2.118  13.516 -0.6385  1.2832 -0.6434
 5256TIP3   OH237258   0.503   0.808   5.090 -0.2874 -0.5655  0.7108
 5256TIP3    H137259   0.511   0.716   5.117  1.1527 -0.5724  0.3613
 5256TIP3    H237260   0.423   0.838   5.131 -0.8677 -2.0264  0.7187
 5257TIP3   OH237261   1.024   1.964  15.329  0.7792 -0.2178 -0.0510
 5257TIP3    H137262   0.964   1.929  15.262  0.5667 -0.2657  0.1646
 5257TIP3    H237263   1.093   2.006  15.278  1.7749 -2.1280 -0.3706
 5258TIP3   OH237264   4.621   5.874  12.863 -0.1631  0.2690  0.2217
 5258TIP3    H137265   4.540   5.825  12.847 -0.1273  0.2062  0.2315
 5258TIP3    H237266   4.640   5.859  12.956  0.6254 -0.8851 -0.0994
 5259TIP3   OH237267   0.238   0.944   5.105 -0.4931 -0.7143 -0.6579
 5259TIP3    H137268   0.219   0.953   5.011  0.1329 -1.2830 -0.8519
 5259TIP3    H237269   0.158   0.908   5.142 -1.6401  1.7734 -0.5198
 5260TIP3   OH237270   5.259   0.550  14.798 -0.2379  0.0935 -0.1808
 5260TIP3    H137271   5.176   0.529  14.754 -0.3829 -0.1924  0.2189
 5260TIP3    H237272   5.272   0.478  14.860 -0.2534  0.6962  0.5327
 5261TIP3   OH237273   5.921   3.270   3.363  0.0081  0.3010 -0.2135
 5261TIP3    H137274   5.963   3.232   3.441 -0.3464 -0.5064 -0.4162
 5261TIP3    H237275   5.955   3.360   3.360  2.7026 -0.6435 -1.0505
 5262TIP3   OH237276   4.152   0.756  13.362 -0.2234 -0.1555  0.1227
 5262TIP3    H137277   4.224   0.766  13.425  0.9182  1.4899 -1.3290
 5262TIP3    H237278   4.188   0.790  13.280 -2.7091  0.8363 -0.6373
 5263TIP3   OH237279   3.857   5.583  12.325 -0.3318 -0.3194 -0.1496
 5263TIP3    H137280   3.840   5.523  12.253  3.6587 -0.7605 -0.9924
 5263TIP3    H237281   3.910   5.532  12.387 -1.2189  0.8854  1.7138
 5264TIP3   OH237282   3.455   3.073  14.999 -0.6936 -0.0726 -0.1908
 5264TIP3    H137283   3.411   3.091  15.082  0.5833 -0.5417  0.6131
 5264TIP3    H237284   3.513   3.147  14.985 -2.6472  1.2238 -1.9439
 5265TIP3   OH237285   6.247   4.775   1.734 -0.1005 -0.7235 -0.1588
 5265TIP3    H137286   6.257   4.740   1.822  1.0588 -2.1655 -0.8181
 5265TIP3    H237287   6.246   4.870   1.745 -1.6186 -0.8842  1.5335
 5266TIP3   OH237288   3.092   3.239   2.244 -0.4453  0.4728 -0.1885
 5266TIP3    H137289   3.123   3.260   2.156  0.2169 -0.3058 -0.1545
 5266TIP3    H237290   3.014   3.185   2.230  0.7926 -1.3670 -0.3609
 5267TIP3   OH237291   1.170   1.787  11.371  0.3021 -0.2865 -0.1269
 5267TIP3    H137292   1.208   1.872  11.391 -2.8155  0.8248  1.7851
 5267TIP3    H237293   1.132   1.797  11.284  0.6391  0.0272 -0.2360
 5268TIP3   OH237294   2.498   0.482  14.243  0.8381  0.2952  0.2524
 5268TIP3    H137295   2.413   0.438  14.250 -0.1399  2.3168  3.0126
 5268TIP3    H237296   2.559   0.412  14.218 -1.2236 -1.7684  0.6493
 5269TIP3   OH237297   0.293   4.473  13.879 -0.6135  1.0474  0.3251
 5269TIP3    H137298   0.309   4.393  13.930  1.8077  1.3758  0.1948
 5269TIP3    H237299   0.304   4.544  13.943 -1.4372  1.3503  0.1482
 5270TIP3   OH237300   0.956   1.019  12.919 -0.1687  0.4213 -0.5580
 5270TIP3    H137301   0.932   1.110  12.903 -1.3588  0.0230 -1.1164
 5270TIP3    H237302   0.873   0.972  12.920  0.4220 -0.6497 -0.1491
 5271TIP3   OH237303   0.021   0.779   5.516  0.3062 -0.3387 -0.5505
 5271TIP3    H137304  -0.053   0.772   5.576  0.4209 -0.1290 -0.3812
 5271TIP3    H237305   0.076   0.848   5.554 -0.1264  0.5211 -1.4255
 5272TIP3   OH237306   2.124   5.405   1.470  0.6666 -0.2381  0.1085
 5272TIP3    H137307   2.030   5.401   1.450  1.0393  0.0937 -1.8286
 5272TIP3    H237308   2.141   5.323   1.518 -0.3357 -1.0178 -0.8068
 5273TIP3   OH237309   4.097   4.648  16.702  0.0075 -0.4523  0.4475
 5273TIP3    H137310   4.038   4.637  16.776  0.6118  0.9213  1.1740
 5273TIP3    H237311   4.182   4.622  16.735  0.0753 -1.0007 -0.1457
 5274TIP3   OH237312   2.998   1.590   6.109 -0.9428  0.2771  0.4124
 5274TIP3    H137313   2.916   1.544   6.129 -0.1678 -0.4801  2.0165
 5274TIP3    H237314   3.033   1.615   6.194  1.5301 -1.2478 -0.0590
 5275TIP3   OH237315   1.137   0.565   2.743  0.1496 -0.5661 -0.4560
 5275TIP3    H137316   1.161   0.525   2.827  0.2048  0.0294 -0.1863
 5275TIP3    H237317   1.091   0.495   2.696  0.9039 -1.1822 -0.2955
 5276TIP3   OH237318   3.982   3.629   5.999  0.4533 -0.0259  0.2455
 5276TIP3    H137319   3.997   3.611   6.092 -0.2924 -0.8665  0.2179
 5276TIP3    H237320   4.053   3.688   5.974  0.6624  0.2117  1.3500
 5277TIP3   OH237321   0.651   5.472   0.129 -0.9763 -0.0503 -0.1856
 5277TIP3    H137322   0.689   5.458   0.042 -0.1201 -0.7608  0.2788
 5277TIP3    H237323   0.702   5.544   0.166 -0.0265 -0.9938  0.4317
 5278TIP3   OH237324   6.089   2.403   4.059 -0.2648  0.1243  0.3983
 5278TIP3    H137325   6.029   2.387   3.987  0.3700  2.4563 -0.7355
 5278TIP3    H237326   6.175   2.376   4.025 -0.4147 -2.1216  1.6091
 5279TIP3   OH237327   3.573   2.181   0.549  0.0445 -0.3115 -0.0781
 5279TIP3    H137328   3.498   2.239   0.556 -0.3023 -0.8201  0.5165
 5279TIP3    H237329   3.539   2.095   0.574  0.4295 -0.8681 -1.3842
 5280TIP3   OH237330   5.070   1.683  14.417 -0.1041 -0.5673  0.1533
 5280TIP3    H137331   5.054   1.646  14.504 -0.3330 -0.6286  0.0844
 5280TIP3    H237332   5.125   1.618  14.374 -1.1085 -1.1835 -0.2239
 5281TIP3   OH237333   5.079   6.487   2.918 -0.6298 -0.4181 -0.0134
 5281TIP3    H137334   5.173   6.471   2.909 -0.5959  0.0077 -0.5144
 5281TIP3    H237335   5.040   6.401   2.926 -0.0308 -0.5416  1.9816
 5282TIP3   OH237336   1.881   0.885  16.903  0.0936 -0.0096  0.8517
 5282TIP3    H137337   1.858   0.875  16.996  0.1394 -1.2025  0.7511
 5282TIP3    H237338   1.806   0.848  16.856  0.3975 -0.0960  0.4296
 5283TIP3   OH237339   0.470   5.367   1.730  0.4350  0.2868 -0.7088
 5283TIP3    H137340   0.528   5.350   1.804 -1.3147 -1.8342  0.2724
 5283TIP3    H237341   0.478   5.289   1.675 -1.1557  0.1143 -0.7337
 5284TIP3   OH237342   1.012   1.248  11.556  0.3993  0.7166  0.2796
 5284TIP3    H137343   1.106   1.231  11.560  0.7675  2.5825  0.5252
 5284TIP3    H237344   0.990   1.239  11.463  0.7791  0.1941  0.2319
 5285TIP3   OH237345   2.005   6.815  12.305  0.0862  0.4599 -0.7385
 5285TIP3    H137346   1.931   6.799  12.363  0.2192  0.4066 -0.5837
 5285TIP3    H237347   2.002   6.910  12.289  1.4176  0.8880  1.2293
 5286TIP3   OH237348   1.929   1.682   5.706  0.3313 -0.3112 -0.0773
 5286TIP3    H137349   1.930   1.769   5.745 -0.7221  0.2604 -1.2244
 5286TIP3    H237350   1.879   1.628   5.768  0.8751 -0.0823  0.5726
 5287TIP3   OH237351   6.245   1.171   2.511  0.6905 -0.1236  0.2845
 5287TIP3    H137352   6.328   1.178   2.464  0.9090  0.1772  0.7043
 5287TIP3    H237353   6.253   1.091   2.563  0.3386 -0.6107 -0.3854
 5288TIP3   OH237354   1.035   5.654  15.865 -0.3914  0.5402  0.5737
 5288TIP3    H137355   1.105   5.635  15.803 -0.2405 -0.2242  0.9664
 5288TIP3    H237356   1.078   5.657  15.950 -1.0246 -1.3556  1.0055
 5289TIP3   OH237357   5.197   5.547  16.648 -0.2006  0.3025 -0.6103
 5289TIP3    H137358   5.282   5.571  16.684 -0.5544  0.2032  0.3247
 5289TIP3    H237359   5.217   5.502  16.566  0.7147 -0.6793  0.1198
 5290TIP3   OH237360   5.244   2.383  11.031 -0.1628 -0.2631 -0.2002
 5290TIP3    H137361   5.218   2.439  10.958 -0.8923 -0.7902 -0.3516
 5290TIP3    H237362   5.335   2.407  11.048 -0.5465  1.1617 -0.0708
 5291TIP3   OH237363   0.632   0.707  11.011  0.5778 -0.2598  0.0083
 5291TIP3    H137364   0.710   0.762  11.001  0.8575 -0.6101  0.2504
 5291TIP3    H237365   0.633   0.649  10.936 -0.6469  1.1799 -1.1916
 5292TIP3   OH237366   5.160   6.836   4.530  0.0244 -0.3219 -0.3186
 5292TIP3    H137367   5.234   6.868   4.479 -0.1378  2.4910  1.0324
 5292TIP3    H237368   5.200   6.783   4.599  0.8889  1.3900  0.5569
 5293TIP3   OH237369   1.769   5.063   2.927 -0.1806 -0.0258 -0.3221
 5293TIP3    H137370   1.735   5.143   2.968 -0.1366 -0.1788  0.0183
 5293TIP3    H237371   1.775   5.084   2.834 -0.5730  0.2274 -0.2937
 5294TIP3   OH237372   0.424   6.471  14.334 -0.2489 -0.3034  0.0805
 5294TIP3    H137373   0.503   6.523  14.348 -0.1969 -0.1683 -0.6513
 5294TIP3    H237374   0.450   6.404  14.271 -1.2303  1.0580 -1.8745
 5295TIP3   OH237375   0.822   1.116   5.220 -0.3301 -0.6535  0.1320
 5295TIP3    H137376   0.809   1.211   5.225  1.2042 -0.4604  1.0318
 5295TIP3    H237377   0.779   1.082   5.299 -2.0097 -0.8943 -0.8281
 5296TIP3   OH237378   2.044   5.848   2.882 -0.5005  0.0261  0.4575
 5296TIP3    H137379   2.070   5.764   2.921 -1.7071 -1.0414 -0.9064
 5296TIP3    H237380   2.118   5.873   2.827 -0.7256 -0.9327 -0.3006
 5297TIP3   OH237381   4.059   0.916  15.917  0.3368  0.0996 -0.4624
 5297TIP3    H137382   4.111   0.959  15.849  2.0092 -0.4545  0.3874
 5297TIP3    H237383   3.985   0.974  15.932  1.6150  1.8272 -0.5544
 5298TIP3   OH237384   2.549   3.470   3.675  0.2503 -0.2020  0.4198
 5298TIP3    H137385   2.496   3.445   3.751  0.8827  0.0702  0.9693
 5298TIP3    H237386   2.630   3.504   3.713  1.4052 -1.8852 -0.4163
 5299TIP3   OH237387   1.541   6.536   5.411  0.2759 -0.4810 -0.3425
 5299TIP3    H137388   1.612   6.493   5.459 -0.7230 -0.2157  1.4558
 5299TIP3    H237389   1.461   6.507   5.455 -0.7698 -0.7410 -2.2991
 5300TIP3   OH237390   0.730   3.169   4.353 -0.4258  0.1102 -0.8852
 5300TIP3    H137391   0.760   3.110   4.284 -0.3160 -0.0229 -0.7231
 5300TIP3    H237392   0.811   3.200   4.395 -0.5359 -0.9739  0.1630
 5301TIP3   OH237393   5.766   4.316   5.643 -0.2985  0.2741  0.3539
 5301TIP3    H137394   5.795   4.272   5.563  1.0348  2.5620 -0.5134
 5301TIP3    H237395   5.685   4.271   5.666 -1.1507 -0.0265 -2.7065
 5302TIP3   OH237396   2.459   1.091  16.834 -0.5873 -0.2307 -0.4264
 5302TIP3    H137397   2.528   1.029  16.810 -0.8609 -0.1203 -1.5617
 5302TIP3    H237398   2.383   1.036  16.851 -0.7016 -0.2549 -0.9745
 5303TIP3   OH237399   2.225   0.569   2.891 -0.3152 -0.1576  0.4261
 5303TIP3    H137400   2.272   0.504   2.944  1.0207  1.1434  0.8890
 5303TIP3    H237401   2.289   0.598   2.826 -0.3235  1.8918  1.2655
 5304TIP3   OH237402   3.426   5.037   4.582 -0.1618  0.8026  0.0722
 5304TIP3    H137403   3.459   5.120   4.546 -4.8055  2.1045 -1.9424
 5304TIP3    H237404   3.381   5.062   4.663  1.5476 -0.4815  1.4869
 5305TIP3   OH237405   5.711   2.321  12.592 -0.0902  0.4408 -0.8107
 5305TIP3    H137406   5.719   2.230  12.621 -2.1968  0.6351  0.6325
 5305TIP3    H237407   5.725   2.318  12.498  0.3797 -1.2834 -0.7154
 5306TIP3   OH237408   1.446   6.230  15.532  0.3435 -0.8909 -0.0988
 5306TIP3    H137409   1.511   6.186  15.476  2.1435  1.5423 -0.1001
 5306TIP3    H237410   1.499   6.277  15.596 -1.6090 -1.8232  2.3434
 5307TIP3   OH237411   6.080   5.537  13.539  0.4627  0.2898  0.1259
 5307TIP3    H137412   5.993   5.499  13.529  1.1012 -1.7339  1.7021
 5307TIP3    H237413   6.070   5.605  13.605  0.0365  0.2269  0.1247
 5308TIP3   OH237414   5.667   5.690   6.456  0.2004 -0.2750 -0.0457
 5308TIP3    H137415   5.672   5.716   6.364  1.9299 -1.6023 -0.3889
 5308TIP3    H237416   5.749   5.722   6.494  0.4164 -1.4172  0.5194
 5309TIP3   OH237417   4.139   6.107  12.929 -0.0176 -0.2845 -0.5217
 5309TIP3    H137418   4.097   6.046  12.868 -2.7665  1.7892 -0.8903
 5309TIP3    H237419   4.095   6.093  13.012  0.7394 -0.1468 -0.0843
 5310TIP3   OH237420   4.804   4.828  11.322  0.4522 -0.2387 -0.7006
 5310TIP3    H137421   4.723   4.826  11.374  1.1691 -0.9653  0.4177
 5310TIP3    H237422   4.830   4.920  11.324 -0.3561  0.0125 -1.1078
 5311TIP3   OH237423   3.212   2.354   4.831  0.2268 -0.1146 -0.3226
 5311TIP3    H137424   3.200   2.331   4.739  0.3096 -0.6274 -0.2089
 5311TIP3    H237425   3.302   2.387   4.835  0.2597 -0.1932 -0.4063
 5312TIP3   OH237426   0.246   1.937   4.920  0.1224 -0.2829  0.6904
 5312TIP3    H137427   0.152   1.928   4.936  0.5332 -0.7119  3.5346
 5312TIP3    H237428   0.252   1.994   4.844 -2.4300 -1.1936 -0.3205
 5313TIP3   OH237429   2.654   0.714   2.429  0.2696 -0.9722 -0.5089
 5313TIP3    H137430   2.671   0.766   2.350 -2.0387 -1.2815 -1.2801
 5313TIP3    H237431   2.690   0.627   2.409 -0.7428 -1.1915 -1.4458
 5314TIP3   OH237432   5.633   2.417  10.760  0.6657  0.3642 -0.4838
 5314TIP3    H137433   5.567   2.353  10.786  0.6117  0.5485 -0.1702
 5314TIP3    H237434   5.590   2.471  10.694  1.2660 -1.0513 -2.1276
 5315TIP3   OH237435   6.273   1.361   2.064 -0.0960  0.5053  0.0909
 5315TIP3    H137436   6.279   1.282   2.118 -1.6338 -0.0114 -0.4380
 5315TIP3    H237437   6.179   1.381   2.061  0.2466  2.2815  0.0900
 5316TIP3   OH237438   1.531   0.647  15.664  0.3193 -0.0355 -0.4807
 5316TIP3    H137439   1.512   0.553  15.667 -0.4614  0.0154 -2.3434
 5316TIP3    H237440   1.513   0.678  15.752 -1.0132 -1.3560 -0.2521
 5317TIP3   OH237441   0.557   6.791   5.503  0.3504  0.5832 -0.5608
 5317TIP3    H137442   0.590   6.813   5.590 -0.2196 -2.1878  0.4640
 5317TIP3    H237443   0.466   6.821   5.503  0.2005  0.1503  0.0201
 5318TIP3   OH237444   4.658   5.292  11.306 -0.4786 -0.1638 -0.1992
 5318TIP3    H137445   4.609   5.237  11.366 -0.9367  1.4881  1.0169
 5318TIP3    H237446   4.631   5.382  11.328 -1.3318  0.5219 -3.4337
 5319TIP3   OH237447   2.196   1.913   3.585 -0.4223 -0.1225  0.2954
 5319TIP3    H137448   2.128   1.892   3.521 -0.8563 -0.7412  0.9470
 5319TIP3    H237449   2.206   2.008   3.580 -2.4778  0.2016  1.3133
 5320TIP3   OH237450   4.761   1.317  10.916 -0.2802  0.5566  0.6371
 5320TIP3    H137451   4.782   1.352  11.002  0.4257 -1.0323  1.1625
 5320TIP3    H237452   4.825   1.356  10.856 -1.5822  2.6822  0.5388
 5321TIP3   OH237453   4.023   5.089  11.989  0.4178  0.4470 -0.2049
 5321TIP3    H137454   3.956   5.080  12.056 -0.8630 -1.8256 -1.6566
 5321TIP3    H237455   4.068   5.004  11.988  0.5491  0.4998 -2.0380
 5322TIP3   OH237456   1.846   1.913  14.107  0.1324  0.3772  0.6672
 5322TIP3    H137457   1.872   2.001  14.081 -1.5653  0.4991 -0.7386
 5322TIP3    H237458   1.813   1.923  14.197  0.4652  1.0471  0.7194
 5323TIP3   OH237459   5.653   1.235   5.675 -0.1818  0.2046 -0.3339
 5323TIP3    H137460   5.602   1.159   5.703 -1.6916  1.4675  0.5475
 5323TIP3    H237461   5.606   1.270   5.600 -1.0250  1.7269  0.8472
 5324TIP3   OH237462   6.608   2.882  16.219 -0.1893  0.0294 -0.3522
 5324TIP3    H137463   6.676   2.839  16.166 -0.6392 -0.0949 -0.8323
 5324TIP3    H237464   6.531   2.884  16.163 -0.3507  0.9270 -0.1071
 5325TIP3   OH237465   2.878   2.190   5.078  0.4972 -0.1241 -0.1207
 5325TIP3    H137466   2.812   2.158   5.139 -0.2857  0.8216 -0.4333
 5325TIP3    H237467   2.845   2.275   5.049  0.4070 -0.8739 -2.4993
 5326TIP3   OH237468   0.428   2.880   1.056 -0.2965 -0.1442  0.2961
 5326TIP3    H137469   0.509   2.831   1.065 -0.8509 -1.3268 -0.8122
 5326TIP3    H237470   0.362   2.814   1.036 -1.3908  0.8793  0.3939
 5327TIP3   OH237471   0.867   1.151   1.955  0.4427  0.3211 -0.2185
 5327TIP3    H137472   0.954   1.185   1.976  1.3891 -1.1471 -1.5012
 5327TIP3    H237473   0.818   1.228   1.926  1.2828  1.1905  0.5804
 5328TIP3   OH237474   6.692   6.683  15.460 -0.1684  0.6190  0.4539
 5328TIP3    H137475   6.619   6.734  15.497 -1.3501 -0.5126 -0.2329
 5328TIP3    H237476   6.744   6.657  15.536  0.0899  2.2597  0.8761
 5329TIP3   OH237477   6.344   0.702   2.546 -0.2111  0.1287 -0.0000
 5329TIP3    H137478   6.415   0.742   2.495  1.5984 -1.4019  1.1850
 5329TIP3    H237479   6.273   0.690   2.483  1.1257  0.3706 -1.6197
 5330TIP3   OH237480   0.338   4.514   1.472 -0.2558 -0.2106  0.4143
 5330TIP3    H137481   0.329   4.454   1.398 -1.7406 -0.4139  0.7323
 5330TIP3    H237482   0.315   4.600   1.437 -1.2083 -0.3454  0.6640
 5331TIP3   OH237483   1.344   6.230  12.676  0.4435  0.0724 -0.5279
 5331TIP3    H137484   1.281   6.207  12.744  1.1783 -2.4894 -0.6194
 5331TIP3    H237485   1.357   6.325  12.687 -0.7510  0.0499  1.7540
 5332TIP3   OH237486   2.633   0.722   3.658 -0.0389  0.2999  0.4139
 5332TIP3    H137487   2.716   0.769   3.648 -0.2748  0.8642  1.0253
 5332TIP3    H237488   2.625   0.708   3.752  0.2855 -1.4641  0.2091
 5333TIP3   OH237489   4.974   6.061   4.076 -0.6684  0.0414 -0.0831
 5333TIP3    H137490   5.042   6.002   4.110 -2.6287 -1.8825  0.7394
 5333TIP3    H237491   4.960   6.032   3.986  0.9058  1.7397 -0.9296
 5334TIP3   OH237492   2.608   6.349   2.809  0.5795  0.5297  0.2807
 5334TIP3    H137493   2.583   6.385   2.894 -0.7302  0.2636  0.0376
 5334TIP3    H237494   2.590   6.255   2.817  0.0712  0.5627 -0.4013
 5335TIP3   OH237495   1.048   1.839  16.102  0.0531 -0.2094  0.0031
 5335TIP3    H137496   1.103   1.906  16.060 -0.3734 -0.1725 -0.5037
 5335TIP3    H237497   1.109   1.767  16.122 -0.1083 -1.2042 -2.7615
 5336TIP3   OH237498   5.034   0.621  13.020 -0.0549  0.2357  0.0923
 5336TIP3    H137499   5.048   0.546  13.078 -0.0337 -0.7491 -1.1400
 5336TIP3    H237500   5.122   0.653  13.001  0.0353 -0.3471 -0.5224
 5337TIP3   OH237501   4.144   0.701  15.644 -0.0845  0.1547 -0.4326
 5337TIP3    H137502   4.159   0.686  15.737 -0.4191  1.4369 -0.1486
 5337TIP3    H237503   4.049   0.717  15.638 -0.4688 -2.1450 -1.3403
 5338TIP3   OH237504   6.756   6.662  14.107 -0.0642 -0.4803 -0.4393
 5338TIP3    H137505   6.767   6.567  14.115  1.3718 -0.2297  0.9948
 5338TIP3    H237506   6.842   6.695  14.081 -0.7026  0.3951 -1.5364
 5339TIP3   OH237507   2.651   3.209   4.091 -0.4557  0.4524  0.1532
 5339TIP3    H137508   2.703   3.165   4.024  1.5315  0.2504  1.7247
 5339TIP3    H237509   2.621   3.290   4.048  0.4087  0.1462 -1.1002
 5340TIP3   OH237510   3.878   5.147   4.679  0.2282  0.1313  0.5346
 5340TIP3    H137511   3.931   5.193   4.613  0.4605 -0.0684  0.5807
 5340TIP3    H237512   3.847   5.068   4.635  0.4850 -0.0642  0.7016
 5341TIP3   OH237513   0.267   5.706  13.070 -0.0364  0.6725  0.7755
 5341TIP3    H137514   0.228   5.663  12.994 -0.3052  2.0474  0.1071
 5341TIP3    H237515   0.205   5.776  13.093  0.2998  0.6083  1.9313
 5342TIP3   OH237516   6.233   0.270   1.552 -0.2648  0.6000 -0.5415
 5342TIP3    H137517   6.329   0.276   1.549 -0.1547 -0.1941  0.4527
 5342TIP3    H237518   6.210   0.311   1.635 -0.3105 -3.2159  1.5878
 5343TIP3   OH237519   6.576   6.673  14.935  0.4774 -0.5447  0.9567
 5343TIP3    H137520   6.563   6.721  15.017  1.2767  0.6820  0.3913
 5343TIP3    H237521   6.514   6.714  14.874  0.1040 -1.2512  0.8457
 5344TIP3   OH237522   1.350   5.014  12.376 -0.4197 -0.2880  0.2174
 5344TIP3    H137523   1.260   4.984  12.362 -1.2331  2.1373 -0.3074
 5344TIP3    H237524   1.375   5.052  12.291  1.2393 -1.2074  0.2626
 5345TIP3   OH237525   1.079   2.489  14.124 -0.1369  0.0882  0.0970
 5345TIP3    H137526   1.040   2.567  14.163 -0.6534 -0.8652  1.5944
 5345TIP3    H237527   1.072   2.422  14.192  1.2581 -0.9883 -0.7541
 5346TIP3   OH237528   6.173   6.185  15.446  0.0089  0.3733  0.1015
 5346TIP3    H137529   6.251   6.195  15.391 -0.4105  4.4336 -0.0035
 5346TIP3    H237530   6.199   6.220  15.531 -1.3769  0.8038  0.3715
 5347TIP3   OH237531   3.129   1.730   5.909 -0.2306 -0.2169  0.4432
 5347TIP3    H137532   3.129   1.826   5.906  0.2635 -0.2243 -2.2144
 5347TIP3    H237533   3.097   1.709   5.996 -1.3048  2.3608  0.7641
 5348TIP3   OH237534   1.938   3.840   3.915  0.2306 -0.6395  0.2413
 5348TIP3    H137535   2.002   3.864   3.849 -1.9377 -0.0461 -1.7766
 5348TIP3    H237536   1.879   3.915   3.920 -1.6017 -2.0232  0.3424
 5349TIP3   OH237537   1.998   5.479  14.381  0.0986 -0.0408  0.1032
 5349TIP3    H137538   2.013   5.406  14.321  0.7707 -0.4316  0.7409
 5349TIP3    H237539   2.047   5.552  14.343 -1.0730  0.2809 -0.8705
 5350TIP3   OH237540   6.413   1.134   5.918 -0.0734  0.7168 -0.0055
 5350TIP3    H137541   6.320   1.114   5.913  0.1145 -0.2749  0.3311
 5350TIP3    H237542   6.424   1.170   6.006 -0.4446  2.6114 -0.6745
 5351TIP3   OH237543   4.989   3.543  15.028 -0.4038  0.1754 -0.1470
 5351TIP3    H137544   5.043   3.620  15.010 -0.3432  0.4613  1.1835
 5351TIP3    H237545   4.906   3.561  14.983  0.7241 -0.4965 -2.6342
 5352TIP3   OH237546   4.744   4.334   2.410  0.2007  0.1634  0.3842
 5352TIP3    H137547   4.786   4.248   2.416  1.9295  0.8289 -1.2413
 5352TIP3    H237548   4.729   4.347   2.317 -1.8941  0.8306  0.7536
 5353TIP3   OH237549   1.637   1.154  14.640 -0.4597  0.6158  0.2329
 5353TIP3    H137550   1.655   1.192  14.554 -0.1642 -0.5284 -0.2269
 5353TIP3    H237551   1.548   1.119  14.633 -0.9743  1.7260  0.8566
 5354TIP3   OH237552   6.332   6.179   3.631 -0.2962 -0.0144  0.2887
 5354TIP3    H137553   6.397   6.155   3.565 -1.0397  2.2294 -1.4247
 5354TIP3    H237554   6.265   6.111   3.624  1.4336 -1.9685  1.5954
 5355TIP3   OH237555   4.331   1.288   2.206  0.2186  0.2241  0.2566
 5355TIP3    H137556   4.406   1.231   2.188  0.0800  0.5163 -1.3190
 5355TIP3    H237557   4.319   1.339   2.127 -1.2256  0.6897  0.7341
 5356TIP3   OH237558   0.994   0.069   2.502 -0.1975 -0.0588  0.2815
 5356TIP3    H137559   1.083   0.066   2.467 -0.9545 -2.2317 -1.6899
 5356TIP3    H237560   0.945   0.009   2.447 -2.7613  0.5590  1.7604
 5357TIP3   OH237561   3.360   0.455   4.399  0.1056  0.3342  0.1629
 5357TIP3    H137562   3.439   0.403   4.388  0.2165  0.5097  0.1306
 5357TIP3    H237563   3.289   0.391   4.398  0.4139 -0.2367  3.2646
 5358TIP3   OH237564   5.407   2.929  16.978  0.1142 -0.0086  0.4588
 5358TIP3    H137565   5.440   3.005  17.025 -0.0795 -0.3390  1.1512
 5358TIP3    H237566   5.366   2.875  17.046 -0.9071 -0.1134 -0.2127
 5359TIP3   OH237567   2.925   5.825   4.779  0.2157 -0.2378  0.5350
 5359TIP3    H137568   2.983   5.831   4.704  1.5790 -1.0647  1.4736
 5359TIP3    H237569   2.944   5.903   4.831 -1.2789  0.7365 -0.3115
 5360TIP3   OH237570   5.738   0.471  17.017  0.2108 -0.6466 -0.4967
 5360TIP3    H137571   5.716   0.438  16.930 -0.6083 -1.7808  0.1204
 5360TIP3    H237572   5.660   0.455  17.070  0.9539 -0.6409  0.6306
 5361TIP3   OH237573   1.320   0.634  16.831  0.0880 -0.1544 -0.0790
 5361TIP3    H137574   1.248   0.571  16.828 -1.1195  1.1427 -2.9746
 5361TIP3    H237575   1.368   0.620  16.749 -1.2840  3.6424 -1.7699
 5362TIP3   OH237576   5.550   2.249  15.263  0.5558 -0.7735  0.3320
 5362TIP3    H137577   5.574   2.332  15.223  0.9047 -0.6948  0.6943
 5362TIP3    H237578   5.595   2.249  15.348  1.4988 -1.8320 -0.1321
 5363TIP3   OH237579   6.006   6.532  15.343 -0.7491 -0.8827  0.5794
 5363TIP3    H137580   6.019   6.460  15.282 -0.9213  0.0443 -0.6021
 5363TIP3    H237581   5.979   6.606  15.287 -0.5378  0.1010  1.7360
 5364TIP3   OH237582   1.088   1.495  11.725  0.5590 -0.0220 -0.0981
 5364TIP3    H137583   1.026   1.543  11.779  0.0476 -1.2302  0.4326
 5364TIP3    H237584   1.033   1.436  11.673  1.1919 -0.3396 -0.4143
 5365TIP3   OH237585   1.863   1.608  15.396 -0.1987  0.1309 -1.0035
 5365TIP3    H137586   1.887   1.561  15.316  2.0431 -0.3758 -0.1061
 5365TIP3    H237587   1.907   1.561  15.466 -1.2963  1.1571  0.4491
 5366TIP3   OH237588   5.794   6.243  15.533 -0.2149 -0.0124 -0.4485
 5366TIP3    H137589   5.843   6.321  15.509 -0.7081  0.6940  0.7462
 5366TIP3    H237590   5.744   6.221  15.454 -0.4612  1.1839 -0.6473
 5367TIP3   OH237591   0.826   6.713   2.024 -0.4213 -0.2082  0.0939
 5367TIP3    H137592   0.921   6.726   2.017 -0.1934 -1.8300 -0.1351
 5367TIP3    H237593   0.788   6.788   1.978  0.6549  2.0080  2.5437
 5368TIP3   OH237594   6.390   4.798  12.389 -0.4651 -0.3877 -0.3601
 5368TIP3    H137595   6.471   4.835  12.423 -1.1281  0.2568  0.5839
 5368TIP3    H237596   6.404   4.792  12.295  0.3080  0.6635 -0.3301
 5369TIP3   OH237597   3.056   0.663  11.524 -0.3714  0.0161 -0.2496
 5369TIP3    H137598   3.027   0.704  11.443  0.8299  2.3263  0.3835
 5369TIP3    H237599   3.014   0.715  11.593 -1.1269 -1.7099  0.6450
 5370TIP3   OH237600   0.305   0.404   4.054  0.2896  0.2629  0.1886
 5370TIP3    H137601   0.267   0.332   4.004  0.9020 -0.4317  0.7108
 5370TIP3    H237602   0.285   0.383   4.145  1.2987  0.2591  0.4111
 5371TIP3   OH237603   0.524   4.011  13.951 -0.0634  0.0957  0.3426
 5371TIP3    H137604   0.472   3.978  14.024 -0.2460 -1.7600 -0.5677
 5371TIP3    H237605   0.476   3.985  13.873 -0.4908  3.0711 -0.5153
 5372TIP3   OH237606   6.318   6.666  13.623 -0.4518  0.9500  0.6922
 5372TIP3    H137607   6.308   6.575  13.648 -0.1717  0.3540 -1.2125
 5372TIP3    H237608   6.400   6.694  13.663  0.3723 -0.1943 -0.1291
 5373TIP3   OH237609   0.950   2.165   2.763  0.0063  0.8157  0.2222
 5373TIP3    H137610   0.888   2.096   2.787 -0.1037 -0.8199 -3.8883
 5373TIP3    H237611   1.031   2.119   2.741  1.4166  2.5280  1.5294
 5374TIP3   OH237612   6.434   5.081  12.188 -0.3122  0.6763 -0.5470
 5374TIP3    H137613   6.403   5.028  12.115 -0.8933 -1.7654  1.3289
 5374TIP3    H237614   6.524   5.104  12.165  0.1157 -1.5291 -1.2910
 5375TIP3   OH237615   4.963   4.694  12.192  0.2835 -0.4520 -0.0759
 5375TIP3    H137616   4.922   4.669  12.275 -0.4874  0.6704 -0.0918
 5375TIP3    H237617   4.958   4.615  12.138 -0.8422 -0.6777  0.3278
 5376TIP3   OH237618   5.697   6.774  13.242  0.4633  0.0573  0.2708
 5376TIP3    H137619   5.714   6.685  13.273 -1.0034  0.4380  2.4087
 5376TIP3    H237620   5.781   6.818  13.246  0.5485 -0.2238  2.9168
 5377TIP3   OH237621   5.346   6.222   4.228 -0.3958  0.2146  0.3920
 5377TIP3    H137622   5.303   6.141   4.200  1.0149 -1.1485  1.9384
 5377TIP3    H237623   5.305   6.290   4.175 -3.1883 -1.1918  0.5441
 5378TIP3   OH237624   2.647   0.659   2.040  0.1907 -0.0218 -0.0632
 5378TIP3    H137625   2.687   0.738   2.005  0.7263 -0.5040 -0.5591
 5378TIP3    H237626   2.554   0.680   2.048  0.0136  0.0574 -1.9623
 5379TIP3   OH237627   5.649   3.832  16.100 -0.0898 -0.2779  0.2044
 5379TIP3    H137628   5.606   3.747  16.097 -0.1641 -0.2130 -1.4997
 5379TIP3    H237629   5.578   3.896  16.088  0.0678 -0.0094  0.6704
 5380TIP3   OH237630   0.216   1.685   1.535 -0.8288 -0.5401  0.2357
 5380TIP3    H137631   0.302   1.727   1.531 -0.9419 -0.3868 -0.6709
 5380TIP3    H237632   0.200   1.674   1.629 -0.8995  1.6617  0.5280
 5381TIP3   OH237633   5.447   0.267   6.457  0.7180  0.8394  0.0159
 5381TIP3    H137634   5.456   0.210   6.381 -2.1593 -1.5663  1.2755
 5381TIP3    H237635   5.469   0.211   6.531 -0.6163  1.8275  1.2031
 5382TIP3   OH237636   1.799   0.931  14.585  0.4085  0.3454 -0.0339
 5382TIP3    H137637   1.766   0.903  14.500  0.8639  1.7081 -0.6951
 5382TIP3    H237638   1.764   1.019  14.596  1.7814  0.8586  0.3775
 5383TIP3   OH237639   0.716   3.316   2.783  0.2896  0.3957  0.0009
 5383TIP3    H137640   0.642   3.366   2.818  1.5343  0.0412  3.5656
 5383TIP3    H237641   0.722   3.240   2.841  0.8463 -1.9125 -2.8876
 5384TIP3   OH237642   5.683   0.987   3.030 -0.3215 -1.1187  0.5499
 5384TIP3    H137643   5.731   1.053   2.980 -2.3286 -0.0615 -0.1122
 5384TIP3    H237644   5.726   0.904   3.009  2.3816 -0.0487  1.5405
 5385TIP3   OH237645   5.584   1.759   1.278 -0.3660  0.1797 -0.0109
 5385TIP3    H137646   5.660   1.700   1.282 -0.4064  0.1715  0.8242
 5385TIP3    H237647   5.512   1.707   1.313 -1.0263 -0.1837 -1.8001
 5386TIP3   OH237648   2.548   4.773   2.037 -0.2813  0.5840  0.2512
 5386TIP3    H137649   2.604   4.833   1.988 -0.3106 -0.1084 -0.6388
 5386TIP3    H237650   2.497   4.727   1.971  0.5499 -1.2642  0.8129
 5387TIP3   OH237651   0.199   5.498  15.154 -0.4241 -0.2838  0.0940
 5387TIP3    H137652   0.267   5.436  15.180 -0.0018  0.6647  1.3697
 5387TIP3    H237653   0.218   5.577  15.205 -2.4677  0.0261  0.4537
 5388TIP3   OH237654   2.455   2.625   3.857  0.4078  0.5622  0.3746
 5388TIP3    H137655   2.370   2.582   3.860  1.0492 -0.6977  2.6066
 5388TIP3    H237656   2.513   2.561   3.815  0.9974 -0.1253  2.1600
 5389TIP3   OH237657   1.539   5.947   0.421  0.1973 -0.0289 -0.1307
 5389TIP3    H137658   1.602   6.018   0.419 -0.7322  0.9385  1.9143
 5389TIP3    H237659   1.590   5.869   0.445  1.2497 -0.1546 -2.5714
 5390TIP3   OH237660   0.150   2.414   2.452 -0.2822 -0.2703  0.7196
 5390TIP3    H137661   0.154   2.504   2.486 -0.8894  0.1741 -0.3323
 5390TIP3    H237662   0.241   2.389   2.439 -0.0690 -0.1710  1.9169
 5391TIP3   OH237663   1.830   5.642   6.191 -0.0274 -0.5632 -0.2134
 5391TIP3    H137664   1.784   5.589   6.255 -1.1286  1.3986  0.7014
 5391TIP3    H237665   1.876   5.579   6.136 -0.9660 -2.4114  1.0357
 5392TIP3   OH237666   5.472   1.890  12.550  0.1340 -0.2508  0.2832
 5392TIP3    H137667   5.440   1.972  12.588 -1.1972 -0.1103 -1.0298
 5392TIP3    H237668   5.511   1.843  12.623 -1.9475  0.1839  1.7619
 5393TIP3   OH237669   1.380   5.619   3.449  0.3799 -0.3330  0.3205
 5393TIP3    H137670   1.295   5.629   3.491  0.7510 -0.9059  1.2416
 5393TIP3    H237671   1.390   5.525   3.436  0.5525 -0.2116 -0.4787
 5394TIP3   OH237672   5.393   3.481  11.905 -0.6536  0.0174  0.1608
 5394TIP3    H137673   5.341   3.402  11.917 -1.3068  0.3894 -0.1757
 5394TIP3    H237674   5.483   3.452  11.916 -0.7735 -1.0564 -1.4370
 5395TIP3   OH237675   4.199   2.432  15.412 -0.4757 -0.1451  0.3378
 5395TIP3    H137676   4.258   2.360  15.432 -1.4378 -0.9925  0.2312
 5395TIP3    H237677   4.166   2.460  15.497 -0.8622 -0.5029  0.3077
 5396TIP3   OH237678   0.846   1.895  13.226 -0.0336 -0.0613  0.5184
 5396TIP3    H137679   0.842   1.984  13.260  1.2881 -0.0086  0.5560
 5396TIP3    H237680   0.933   1.863  13.250  1.1190  0.0683 -2.9561
 5397TIP3   OH237681   0.457   1.650   0.309 -0.2063 -0.2287  0.2165
 5397TIP3    H137682   0.461   1.676   0.217 -0.1031  1.1696  0.5929
 5397TIP3    H237683   0.547   1.625   0.330 -0.1962 -0.3919 -0.0084
 5398TIP3   OH237684   4.084   3.536  14.753 -0.7960  0.1725  0.5907
 5398TIP3    H137685   4.097   3.442  14.745  0.5896  0.4189 -0.2635
 5398TIP3    H237686   4.021   3.557  14.684 -1.9299 -0.2496  1.4520
 5399TIP3   OH237687   1.435   1.171   0.876 -0.0215  0.0208  0.4944
 5399TIP3    H137688   1.376   1.186   0.802 -0.6292 -0.4834  0.8765
 5399TIP3    H237689   1.523   1.180   0.838 -0.2948 -1.2866 -0.5322
 5400TIP3   OH237690   3.418   1.030   5.797 -0.3810 -0.1115 -0.0330
 5400TIP3    H137691   3.423   1.125   5.809 -0.6401 -0.3397  2.5117
 5400TIP3    H237692   3.447   0.994   5.881  2.0079 -2.3790 -1.6795
 5401TIP3   OH237693   6.077   2.041  14.656 -0.2390 -0.5426  0.3430
 5401TIP3    H137694   6.081   2.066  14.749 -0.5824 -0.3819  0.3168
 5401TIP3    H237695   6.038   1.954  14.656 -1.7690  0.1131  0.2533
 5402TIP3   OH237696   3.555   2.115   0.062  0.5768  0.2312  0.5227
 5402TIP3    H137697   3.463   2.088   0.071  0.8098 -0.9772 -0.3204
 5402TIP3    H237698   3.601   2.033   0.041  1.4953  1.1308 -1.2279
 5403TIP3   OH237699   6.520   6.519  10.389 -0.5968 -0.5611 -0.3026
 5403TIP3    H137700   6.485   6.488  10.472  0.0208  0.1436  0.2374
 5403TIP3    H237701   6.452   6.499  10.325 -2.3491  1.3720  0.8113
 5404TIP3   OH237702   4.829   5.972   2.561 -0.1722  0.1142  0.4564
 5404TIP3    H137703   4.871   6.045   2.606  0.5609 -0.1092  0.1479
 5404TIP3    H237704   4.842   5.991   2.468 -0.9783  0.1679  0.3490
 5405TIP3   OH237705   4.235   6.365   3.754 -0.2090  0.3516 -0.5367
 5405TIP3    H137706   4.330   6.360   3.749 -0.1803 -1.6685  0.8684
 5405TIP3    H237707   4.217   6.426   3.825  0.0678 -0.0185 -0.1483
 5406TIP3   OH237708   2.027   0.240  12.303 -0.0931 -0.2228  0.3864
 5406TIP3    H137709   1.954   0.278  12.351  0.3803  0.8315  0.3032
 5406TIP3    H237710   2.095   0.228  12.369  0.5859  1.2983  0.0143
 5407TIP3   OH237711   6.677   6.757   4.572 -0.3947  0.4537  0.4405
 5407TIP3    H137712   6.677   6.830   4.633 -0.5903  0.8011  0.0254
 5407TIP3    H237713   6.655   6.681   4.626 -0.0638  0.6765  0.8959
 5408TIP3   OH237714   4.698   0.028  13.906 -0.0226 -0.4615  0.3620
 5408TIP3    H137715   4.763  -0.012  13.964 -0.8498 -1.9481  0.2879
 5408TIP3    H237716   4.742   0.035  13.821  0.9325  1.0370  0.9234
 5409TIP3   OH237717   6.605   2.831  15.275 -0.1785  0.6257 -0.3400
 5409TIP3    H137718   6.593   2.828  15.180 -0.0996  0.0410 -0.3353
 5409TIP3    H237719   6.641   2.918  15.292  0.9599  0.3023 -0.9813
 5410TIP3   OH237720   6.185   4.063  12.778  0.0346 -0.7207 -0.3206
 5410TIP3    H137721   6.166   4.157  12.780 -1.4136 -0.9692 -0.7591
 5410TIP3    H237722   6.120   4.028  12.717  1.6859 -1.7785 -1.5202
 5411TIP3   OH237723   5.889   0.483  11.315 -0.7513 -0.3543 -0.2075
 5411TIP3    H137724   5.885   0.391  11.343  0.5851 -0.0447  1.1425
 5411TIP3    H237725   5.836   0.486  11.235  4.0318 -3.6795 -4.0685
 5412TIP3   OH237726   3.930   2.746  16.540 -0.8147 -0.3998  0.1783
 5412TIP3    H137727   4.018   2.723  16.510  0.1716  1.0435  1.7535
 5412TIP3    H237728   3.893   2.797  16.468 -0.3884 -1.0529 -0.5187
 5413TIP3   OH237729   1.160   5.766   2.221 -0.6334  0.1887 -0.0154
 5413TIP3    H137730   1.194   5.842   2.267  0.9855 -0.5369  0.0422
 5413TIP3    H237731   1.140   5.798   2.133 -0.9164  0.8900  0.2994
 5414TIP3   OH237732   0.815   1.397  14.754 -0.0115  0.3556 -0.1341
 5414TIP3    H137733   0.863   1.449  14.819  0.9547  0.2888 -0.7686
 5414TIP3    H237734   0.786   1.319  14.802 -3.2056  2.2585  1.3834
 5415TIP3   OH237735   3.108   1.330  11.332  0.3947  0.6576 -0.1683
 5415TIP3    H137736   3.070   1.322  11.244  1.2182 -0.0444 -0.4736
 5415TIP3    H237737   3.173   1.400  11.323  0.1818  0.8787 -0.0035
 5416TIP3   OH237738   2.568   5.711  16.837 -0.6202  0.8217 -0.1688
 5416TIP3    H137739   2.631   5.677  16.773 -0.6191  0.3600  0.0821
 5416TIP3    H237740   2.559   5.642  16.902 -2.3871  0.3368 -0.8843
 5417TIP3   OH237741   4.610   6.797   0.710  0.4443 -0.0818 -0.0209
 5417TIP3    H137742   4.539   6.801   0.647  0.5994 -1.9199 -0.3801
 5417TIP3    H237743   4.586   6.859   0.778 -1.7871 -1.0300  0.1400
 5418TIP3   OH237744   5.056   0.989  14.265 -0.2457  0.0325 -0.9767
 5418TIP3    H137745   5.095   0.935  14.334 -0.0592  0.2669 -0.8987
 5418TIP3    H237746   4.965   0.960  14.260 -0.2944  0.1101 -0.5406
 5419TIP3   OH237747   6.514   1.438  14.429  1.2076 -0.0639 -0.0655
 5419TIP3    H137748   6.508   1.513  14.369 -1.8406 -1.1800 -1.3699
 5419TIP3    H237749   6.566   1.374  14.381 -0.3510 -0.5615 -1.1907
 5420TIP3   OH237750   0.850   0.500  16.983 -0.1535  0.1876  0.0095
 5420TIP3    H137751   0.769   0.463  17.018 -0.5338  0.0414 -0.9775
 5420TIP3    H237752   0.894   0.538  17.059 -1.7808  1.4573  0.3770
 5421TIP3   OH237753   1.432   6.787  13.389 -0.0270  0.2182 -0.0373
 5421TIP3    H137754   1.455   6.783  13.296  0.4418  0.2699  0.0787
 5421TIP3    H237755   1.348   6.833  13.390  0.3936  1.0144 -0.3666
 5422TIP3   OH237756   5.521   1.965   3.165 -0.5466  0.3817 -0.0819
 5422TIP3    H137757   5.456   1.974   3.235  0.8296  1.2983  1.1457
 5422TIP3    H237758   5.596   1.923   3.208  0.2510  0.7609 -1.0621
 5423TIP3   OH237759   3.070   6.545   2.643  0.3675  0.3910 -0.4004
 5423TIP3    H137760   3.055   6.639   2.657 -0.1004  0.3227 -0.4331
 5423TIP3    H237761   2.984   6.510   2.623  0.3617 -0.2268  0.6440
 5424TIP3   OH237762   4.636   0.884  13.107 -0.6521 -0.1947  0.3870
 5424TIP3    H137763   4.722   0.897  13.066 -1.5044  1.0137 -1.1262
 5424TIP3    H237764   4.582   0.847  13.037 -1.9396  1.1236  0.6583
 5425TIP3   OH237765   4.271   1.281  14.138 -0.1489 -0.3043 -0.0119
 5425TIP3    H137766   4.305   1.266  14.049 -0.1428 -1.2645  0.1416
 5425TIP3    H237767   4.279   1.375  14.151  0.8525 -0.2923 -0.6277
 5426TIP3   OH237768   5.360   2.333   5.024  0.1364 -0.1476 -0.2831
 5426TIP3    H137769   5.330   2.386   5.097 -0.1708 -1.9828  1.0098
 5426TIP3    H237770   5.454   2.353   5.017  0.0174  0.5930  0.1200
 5427TIP3   OH237771   3.725   3.334   0.595 -0.5614  0.6859 -0.0190
 5427TIP3    H137772   3.679   3.255   0.568 -0.6285  0.8796 -0.4797
 5427TIP3    H237773   3.669   3.406   0.564  1.2128  1.0015 -2.8222
 5428TIP3   OH237774   1.747   5.390  14.446 -0.5224 -0.3918  0.8859
 5428TIP3    H137775   1.841   5.406  14.433 -0.8534  0.9963  0.0581
 5428TIP3    H237776   1.734   5.301  14.414  0.2623 -0.0723 -0.4146
 5429TIP3   OH237777   1.874   2.854   5.714 -0.4569 -0.1596 -0.0049
 5429TIP3    H137778   1.815   2.817   5.649 -0.4139  0.3919 -0.3618
 5429TIP3    H237779   1.939   2.902   5.663 -0.9259  1.0174  0.4680
 5430TIP3   OH237780   4.347   5.516   5.781  0.6592  0.5873 -0.1391
 5430TIP3    H137781   4.410   5.465   5.731  0.2766 -0.2676  0.2310
 5430TIP3    H237782   4.332   5.464   5.860 -1.4941  0.1215 -0.7999
 5431TIP3   OH237783   5.681   4.279  16.128  0.1803  0.3043  0.3285
 5431TIP3    H137784   5.654   4.338  16.058  0.1876 -0.1785 -0.0882
 5431TIP3    H237785   5.601   4.232  16.151 -0.0676  1.1873  1.3765
 5432TIP3   OH237786   3.080   0.512   6.175 -0.4373  0.1218 -0.0935
 5432TIP3    H137787   3.017   0.557   6.119 -0.7914  0.4281  0.5498
 5432TIP3    H237788   3.065   0.548   6.262  0.0841 -0.3835  0.2078
 5433TIP3   OH237789   3.648   4.748  11.149  0.2117 -0.3608  0.1337
 5433TIP3    H137790   3.686   4.756  11.062  0.7902 -0.9016  0.3291
 5433TIP3    H237791   3.582   4.817  11.153 -0.0805 -0.5681 -0.8646
 5434TIP3   OH237792   3.139   2.574   3.597  0.1355 -0.3301 -0.4558
 5434TIP3    H137793   3.197   2.525   3.540  0.2454 -0.3382 -0.3371
 5434TIP3    H237794   3.082   2.508   3.636  1.2484 -0.5596  0.8484
 5435TIP3   OH237795   6.399   2.151   5.224 -0.4222 -0.8549  0.3603
 5435TIP3    H137796   6.490   2.145   5.253 -0.2382 -2.6855 -0.4423
 5435TIP3    H237797   6.399   2.220   5.158  0.1596 -0.1365  1.0871
 5436TIP3   OH237798   2.035   1.887   2.639  0.2557  0.5549 -0.1455
 5436TIP3    H137799   2.065   1.838   2.562  0.3481  0.5394 -0.0998
 5436TIP3    H237800   1.952   1.927   2.611 -1.0787 -1.5469  0.5502
 5437TIP3   OH237801   0.397   0.933   0.880  0.4204 -0.4928  0.4510
 5437TIP3    H137802   0.315   0.923   0.928 -1.2523 -0.2078 -2.1386
 5437TIP3    H237803   0.417   1.026   0.886  0.0561 -0.4069  0.3561
 5438TIP3   OH237804   4.836   5.771  13.424 -0.0508  0.3823  0.4230
 5438TIP3    H137805   4.819   5.834  13.493 -0.4754  1.3513 -0.5264
 5438TIP3    H237806   4.926   5.787  13.397  0.4335 -0.6401  1.3698
 5439TIP3   OH237807   5.647   0.938   1.990  0.1813 -0.0212  0.4256
 5439TIP3    H137808   5.663   0.979   1.904  0.6368  1.1133  1.0281
 5439TIP3    H237809   5.553   0.921   1.992  0.3202 -1.0906 -0.7279
 5440TIP3   OH237810   3.580   3.932  15.361 -0.2258  0.1192  0.1170
 5440TIP3    H137811   3.493   3.972  15.358 -0.5083 -0.5185 -0.9022
 5440TIP3    H237812   3.566   3.848  15.406  0.0517  0.4484  0.8199
 5441TIP3   OH237813   3.167   3.366   0.503 -0.3635  0.5817 -0.3977
 5441TIP3    H137814   3.188   3.459   0.517 -1.0005  0.5046  1.3049
 5441TIP3    H237815   3.239   3.333   0.450  0.3332  1.8534 -0.2858
 5442TIP3   OH237816   0.205   3.757   5.003 -0.4867  0.3148  0.1275
 5442TIP3    H137817   0.121   3.713   5.014 -0.1926  0.0254  1.3035
 5442TIP3    H237818   0.187   3.829   4.942 -1.0909 -1.0856 -1.3978
 5443TIP3   OH237819   3.940   5.389   2.095  0.4430  0.4020 -0.0035
 5443TIP3    H137820   3.992   5.435   2.030  0.9663  0.4852  0.4641
 5443TIP3    H237821   3.902   5.458   2.149  1.6855  0.3166  1.0500
 5444TIP3   OH237822   4.363   3.596  10.871 -0.3819  0.0237 -0.4685
 5444TIP3    H137823   4.291   3.601  10.809 -0.4622  1.2350 -0.2877
 5444TIP3    H237824   4.397   3.507  10.860 -3.2935 -1.4252  1.0331
 5445TIP3   OH237825   5.495   5.216  11.289 -0.1171 -1.1561  0.0565
 5445TIP3    H137826   5.447   5.231  11.370  0.1237 -0.9614  0.1654
 5445TIP3    H237827   5.508   5.121  11.286 -0.9655 -1.2773 -0.2425
 5446TIP3   OH237828   0.378   4.335  15.576  0.3380  0.2278  0.1996
 5446TIP3    H137829   0.325   4.342  15.655  0.1477  0.5279  0.0465
 5446TIP3    H237830   0.386   4.241  15.560 -0.1352  0.1821  0.2294
 5447TIP3   OH237831   3.585   6.301  14.893  0.0910 -0.1236  0.0493
 5447TIP3    H137832   3.603   6.394  14.881 -1.8704  0.4338  0.9626
 5447TIP3    H237833   3.619   6.259  14.814 -0.0119  1.5293 -0.9036
 5448TIP3   OH237834   0.660   1.508  15.079  0.4093 -0.5157  0.4848
 5448TIP3    H137835   0.617   1.569  15.020  3.2841  0.9550 -0.2522
 5448TIP3    H237836   0.616   1.520  15.163 -2.4616 -1.2500 -0.7985
 5449TIP3   OH237837   6.768   2.595   1.635  0.5428  0.1661 -0.1159
 5449TIP3    H137838   6.763   2.661   1.704 -0.0571  0.5337 -0.5012
 5449TIP3    H237839   6.677   2.574   1.616  0.7219 -1.2477  0.4353
 5450TIP3   OH237840   0.239   1.681   1.799  0.8249  0.1037 -0.0020
 5450TIP3    H137841   0.316   1.626   1.782 -0.2141 -1.5193  0.3054
 5450TIP3    H237842   0.216   1.662   1.890 -0.1094  0.3323 -0.1835
 5451TIP3   OH237843   1.513   0.416   0.656 -0.2217  0.2144  0.0812
 5451TIP3    H137844   1.576   0.346   0.642 -0.9501 -0.3464 -0.4327
 5451TIP3    H237845   1.512   0.464   0.573  1.6063  1.9695  0.9864
 5452TIP3   OH237846   3.773   0.998  11.452 -0.2969 -0.3301  0.0094
 5452TIP3    H137847   3.683   1.024  11.475 -0.2081 -0.2867  0.3177
 5452TIP3    H237848   3.764   0.951  11.369 -0.7292 -1.1345  0.4971
 5453TIP3   OH237849   0.960   4.311   3.550  0.1812  0.0691  0.1480
 5453TIP3    H137850   0.877   4.310   3.502  0.8830 -1.8681 -1.1519
 5453TIP3    H237851   1.024   4.342   3.486  0.4930  1.8102  1.2187
 5454TIP3   OH237852   2.208   0.092   5.415 -0.5341 -0.2975  0.0175
 5454TIP3    H137853   2.173   0.033   5.483 -1.3110 -1.1523 -1.0774
 5454TIP3    H237854   2.134   0.105   5.355  1.0516 -2.5193 -2.6383
 5455TIP3   OH237855   6.116   2.560  13.973 -0.4882 -0.3621 -0.3027
 5455TIP3    H137856   6.060   2.602  13.908 -1.0433 -0.2985  0.2066
 5455TIP3    H237857   6.057   2.504  14.023 -0.9557  2.5150  2.7400
 5456TIP3   OH237858   6.263   0.139   5.711 -0.5558 -0.0506 -0.4391
 5456TIP3    H137859   6.325   0.117   5.781  0.5981 -0.1881 -1.4642
 5456TIP3    H237860   6.177   0.123   5.749  0.0908 -1.8113  0.3914
 5457TIP3   OH237861   2.559   4.015  11.406  0.3969 -0.3345 -0.5116
 5457TIP3    H137862   2.608   4.063  11.339  0.3894  1.2518  0.5426
 5457TIP3    H237863   2.591   4.051  11.489 -1.2751 -0.5144  0.2578
 5458TIP3   OH237864   3.551   2.622   1.428  0.3236  0.3423  0.6338
 5458TIP3    H137865   3.479   2.669   1.469  0.2490  1.0757 -0.2784
 5458TIP3    H237866   3.519   2.601   1.340  1.0043  0.1680  0.4175
 5459TIP3   OH237867   4.154   5.508   1.428 -0.8786 -0.3424  0.1865
 5459TIP3    H137868   4.072   5.460   1.441 -1.0031 -0.2456 -0.2284
 5459TIP3    H237869   4.128   5.600   1.429 -0.6990 -0.2933  0.5670
 5460TIP3   OH237870   3.862   4.674  14.121 -0.2989  0.0339 -0.7553
 5460TIP3    H137871   3.928   4.646  14.057  1.9558  1.9709  0.5539
 5460TIP3    H237872   3.876   4.768  14.131 -1.9624  0.1660  1.0475
 5461TIP3   OH237873   3.614   5.154   5.704  0.6696 -0.0968 -0.3896
 5461TIP3    H137874   3.614   5.240   5.662  2.4953 -0.8453 -2.1370
 5461TIP3    H237875   3.684   5.159   5.769 -0.1769  0.1489  0.5183
 5462TIP3   OH237876   6.192   4.309  17.134 -0.9455 -0.8879 -0.7602
 5462TIP3    H137877   6.257   4.377  17.152  0.0766 -1.5276 -1.8599
 5462TIP3    H237878   6.150   4.293  17.219  0.7789 -0.9043  0.1316
 5463TIP3   OH237879   0.417   2.758  17.171  0.2498  0.1983  0.3417
 5463TIP3    H137880   0.434   2.811  17.249  0.1811 -0.8600  1.1059
 5463TIP3    H237881   0.352   2.807  17.122 -0.3810  0.4627  1.4117
 5464TIP3   OH237882   2.622   5.849  13.432  0.4557  0.2732 -0.0756
 5464TIP3    H137883   2.713   5.873  13.449  0.6131  0.3299 -0.9342
 5464TIP3    H237884   2.613   5.855  13.337 -0.8660  1.7564  0.1053
 5465TIP3   OH237885   6.544   3.383   0.241 -0.1225  0.2816  0.0104
 5465TIP3    H137886   6.481   3.414   0.306 -0.0000 -0.9043  0.7186
 5465TIP3    H237887   6.490   3.347   0.171 -0.2449 -0.1773  0.3378
 5466TIP3   OH237888   0.317   1.234  11.612 -0.1423 -0.0056 -0.4870
 5466TIP3    H137889   0.319   1.192  11.698 -1.3823 -0.3715 -0.6240
 5466TIP3    H237890   0.230   1.272  11.605 -0.7488 -1.5370 -2.2943
 5467TIP3   OH237891   1.575   4.022  14.349  0.8948  0.4494 -0.7186
 5467TIP3    H137892   1.571   4.096  14.289 -0.3069  0.4135 -0.7243
 5467TIP3    H237893   1.484   4.012  14.379  0.8072 -1.6201 -1.4837
 5468TIP3   OH237894   6.259   5.117   2.301  1.0881  0.0748  0.0439
 5468TIP3    H137895   6.354   5.123   2.306  1.1456 -0.0632 -0.7811
 5468TIP3    H237896   6.227   5.175   2.371  1.7725 -0.2317  0.6197
 5469TIP3   OH237897   4.939   0.609   5.507 -0.4992 -0.0092  0.0407
 5469TIP3    H137898   5.033   0.601   5.524 -0.5600  0.3439  0.5469
 5469TIP3    H237899   4.897   0.562   5.579 -0.7186 -0.1684 -0.1855
 5470TIP3   OH237900   0.997   6.401   0.688  0.1254 -0.6076 -0.1569
 5470TIP3    H137901   0.927   6.459   0.718 -0.9208 -1.7111 -0.3848
 5470TIP3    H237902   1.078   6.444   0.716 -0.6487  0.5604  0.3475
 5471TIP3   OH237903   0.357   4.663   4.916 -0.1642 -0.2901 -0.0148
 5471TIP3    H137904   0.379   4.640   4.825 -1.7530  0.0564 -0.5219
 5471TIP3    H237905   0.416   4.736   4.936 -0.4679  0.2890 -1.1308
 5472TIP3   OH237906   3.223   5.225   0.165 -0.3106 -0.2163 -0.8651
 5472TIP3    H137907   3.247   5.297   0.223 -2.2122 -0.6947  0.6141
 5472TIP3    H237908   3.281   5.153   0.190  1.1058  0.5269 -1.8611
 5473TIP3   OH237909   3.295   0.336   2.526 -0.1871 -0.0046 -0.1765
 5473TIP3    H137910   3.293   0.349   2.431 -0.4686  0.0570 -0.1610
 5473TIP3    H237911   3.388   0.343   2.549 -0.0948 -0.2376 -0.4771
 5474TIP3   OH237912   5.693   6.809   0.699  0.0476 -0.3828 -0.0264
 5474TIP3    H137913   5.766   6.792   0.759 -0.6141 -2.7211  0.2131
 5474TIP3    H237914   5.727   6.784   0.613  0.1031  0.3657 -0.2350
 5475TIP3   OH237915   4.109   5.011  16.953  0.4586 -0.2254 -0.4763
 5475TIP3    H137916   4.139   5.055  17.033 -0.6141  0.1234 -0.2477
 5475TIP3    H237917   4.050   4.942  16.984 -0.6677  0.4779 -0.9871
 5476TIP3   OH237918   3.034   3.471   1.141 -0.2631 -0.6281  0.3114
 5476TIP3    H137919   3.084   3.532   1.195  0.0624 -0.0476 -0.6163
 5476TIP3    H237920   2.985   3.528   1.081  0.9099 -1.2686 -1.3310
 5477TIP3   OH237921   3.548   0.307   5.372  0.1252  0.0701 -0.5520
 5477TIP3    H137922   3.551   0.382   5.431 -2.1711  0.4444 -0.8024
 5477TIP3    H237923   3.569   0.343   5.286  0.9158  0.0379 -0.3744
 5478TIP3   OH237924   5.704   5.858   3.375 -0.2062  0.3093 -0.0692
 5478TIP3    H137925   5.641   5.788   3.358 -0.8910  1.1475 -1.1794
 5478TIP3    H237926   5.786   5.827   3.337 -0.4075 -0.0556 -0.2061
 5479TIP3   OH237927   0.926   3.725  13.380 -0.3231 -0.4803  0.3045
 5479TIP3    H137928   0.907   3.802  13.434  1.6131 -0.4105  0.9309
 5479TIP3    H237929   0.842   3.678  13.376 -0.8061  0.1062  2.4019
 5480TIP3   OH237930   4.046   2.860   4.192 -0.1580  0.5858  0.4728
 5480TIP3    H137931   3.965   2.838   4.146  0.3250 -0.5758  0.1583
 5480TIP3    H237932   4.060   2.953   4.172 -1.2589  0.7295  0.3151
 5481TIP3   OH237933   4.954   4.720   1.306  0.4392  0.5185  0.3606
 5481TIP3    H137934   4.922   4.673   1.228 -1.8256 -0.4585  1.7747
 5481TIP3    H237935   5.049   4.722   1.295  0.1484  1.5754 -3.0244
 5482TIP3   OH237936   0.483   1.856   2.675 -0.6462  0.6559  0.1227
 5482TIP3    H137937   0.422   1.884   2.607 -0.7760  1.0723  0.3991
 5482TIP3    H237938   0.569   1.885   2.644 -0.2524 -1.7212 -1.2404
 5483TIP3   OH237939   6.247   1.874  16.668 -0.5993 -0.2083 -0.0880
 5483TIP3    H137940   6.217   1.964  16.684 -0.2798 -0.1418  0.1372
 5483TIP3    H237941   6.204   1.849  16.586  2.1331  1.4811 -2.2076
 5484TIP3   OH237942   3.684   6.399   4.863  0.3346 -0.2081 -0.2837
 5484TIP3    H137943   3.776   6.379   4.842  0.1982 -1.1607  0.0012
 5484TIP3    H237944   3.689   6.453   4.942  0.6680  0.1746 -0.5598
 5485TIP3   OH237945   3.809   5.233  14.150  0.1415 -0.8188 -0.0423
 5485TIP3    H137946   3.751   5.264  14.220  1.6353 -1.3450  1.4869
 5485TIP3    H237947   3.858   5.310  14.123 -0.4107 -0.6229 -0.5127
 5486TIP3   OH237948   3.325   3.844  14.798 -0.6571 -0.1249 -0.5083
 5486TIP3    H137949   3.383   3.768  14.797  2.3694  1.9324  1.7425
 5486TIP3    H237950   3.354   3.898  14.724 -1.4757 -0.1967 -0.9025
 5487TIP3   OH237951   2.538   4.686  14.516  0.3649  0.0496 -0.3704
 5487TIP3    H137952   2.583   4.763  14.549  1.2285 -0.0010 -1.3506
 5487TIP3    H237953   2.607   4.620  14.507 -0.3178 -0.7760  0.2346
 5488TIP3   OH237954   0.833   0.509  12.205  0.2881  0.6416  0.4159
 5488TIP3    H137955   0.892   0.583  12.220  3.0278 -0.7186 -2.3871
 5488TIP3    H237956   0.891   0.437  12.181 -2.4343 -1.5907 -0.0172
 5489TIP3   OH237957   3.028   5.954  17.012 -0.7002 -0.6093  0.4816
 5489TIP3    H137958   2.976   6.031  17.034 -0.9129 -0.6425  0.1064
 5489TIP3    H237959   2.968   5.880  17.027 -2.0983 -0.5211 -3.3966
 5490TIP3   OH237960   1.771   2.689   5.012  0.0538 -0.2645  0.2804
 5490TIP3    H137961   1.697   2.691   5.073  0.1583  0.1586  0.3950
 5490TIP3    H237962   1.742   2.631   4.942 -1.5020  1.9991 -1.0882
 5491TIP3   OH237963   0.928   0.763   3.871  0.1211  1.3847 -0.1444
 5491TIP3    H137964   0.898   0.777   3.961 -0.0521 -1.4327  0.3278
 5491TIP3    H237965   1.022   0.747   3.880 -0.1179 -0.2457 -0.2342
 5492TIP3   OH237966   1.310   5.967  12.443 -0.1655  0.0153  0.1829
 5492TIP3    H137967   1.308   6.042  12.503  1.7060 -0.0232  0.3443
 5492TIP3    H237968   1.402   5.943  12.436 -0.4092 -0.5619 -2.0313
 5493TIP3   OH237969   6.274   4.969  15.546 -0.6900 -0.2864  0.1203
 5493TIP3    H137970   6.233   4.888  15.516 -0.5515 -0.4897  0.4665
 5493TIP3    H237971   6.296   4.952  15.638 -0.7788  0.1921  0.2324
 5494TIP3   OH237972   5.156   6.248   3.947  0.6175  0.1094  0.5940
 5494TIP3    H137973   5.085   6.269   3.886  1.3813  0.0698 -0.3384
 5494TIP3    H237974   5.128   6.168   3.991 -0.0912  0.3235  0.5354
 5495TIP3   OH237975   4.732   6.314   1.625 -0.6335  0.0204 -0.0089
 5495TIP3    H137976   4.775   6.360   1.553 -0.8994  1.1899  0.5638
 5495TIP3    H237977   4.668   6.257   1.581  0.4218 -0.6131 -0.7818
 5496TIP3   OH237978   3.052   4.195   3.596 -0.0132 -0.4407 -0.0921
 5496TIP3    H137979   3.027   4.249   3.521  0.4477 -0.6432 -0.3955
 5496TIP3    H237980   3.106   4.253   3.650 -0.2317 -0.3370  0.0182
 5497TIP3   OH237981   0.657   6.692   6.181 -0.2977  0.4522 -0.7814
 5497TIP3    H137982   0.671   6.767   6.239 -1.5117 -0.5524  0.8923
 5497TIP3    H237983   0.562   6.680   6.178 -0.4529  1.3679 -4.2753
 5498TIP3   OH237984   5.607   4.129   3.677 -0.4298  0.1088 -0.2774
 5498TIP3    H137985   5.638   4.161   3.762 -2.0156  2.5626 -0.5107
 5498TIP3    H237986   5.618   4.034   3.682  0.8558  0.2945  2.1001
 5499TIP3   OH237987   2.363   1.993  15.681 -0.0214 -0.1676  0.1538
 5499TIP3    H137988   2.377   1.922  15.618 -0.0352  0.2834 -0.3624
 5499TIP3    H237989   2.274   1.978  15.715 -0.1716 -0.1792 -0.2378
 5500TIP3   OH237990   4.697   1.438   3.405  0.5182  0.1446  0.1676
 5500TIP3    H137991   4.786   1.466   3.384  0.3604  1.5143  1.2171
 5500TIP3    H237992   4.641   1.511   3.377 -0.1470 -0.1427  0.7162
 5501TIP3   OH237993   5.502   6.393  12.334 -1.2024  0.4493  0.1319
 5501TIP3    H137994   5.499   6.360  12.424 -1.2402 -0.3716 -0.1624
 5501TIP3    H237995   5.593   6.418  12.321 -0.2032 -3.0603 -0.8268
 5502TIP3   OH237996   5.891   6.825   6.674  0.2722 -0.3285 -0.4246
 5502TIP3    H137997   5.968   6.819   6.731 -0.7634 -1.8842  0.9252
 5502TIP3    H237998   5.895   6.747   6.619 -0.5533 -0.6698 -0.0215
 5503TIP3   OH237999   6.478   6.366   3.404 -0.2413 -0.4950 -0.0289
 5503TIP3    H138000   6.495   6.438   3.344 -1.7632 -0.4646 -0.4859
 5503TIP3    H238001   6.553   6.308   3.395  1.1250  1.1164  0.5111
 5504TIP3   OH238002   3.766   6.766  16.510 -0.1963 -0.7151  0.1125
 5504TIP3    H138003   3.682   6.800  16.539  0.1706 -0.3357  0.7537
 5504TIP3    H238004   3.790   6.821  16.435 -0.0401 -0.1501  0.5703
 5505TIP3   OH238005   2.652   2.530   3.701  0.1118  0.0112  0.1263
 5505TIP3    H138006   2.662   2.515   3.607  0.1594 -0.0171  0.1355
 5505TIP3    H238007   2.690   2.452   3.742  1.1359  0.5233  0.1953
 5506TIP3   OH238008   1.476   1.892   6.378 -0.3762  0.0510  0.3408
 5506TIP3    H138009   1.395   1.905   6.427  0.4857 -0.1887  1.8868
 5506TIP3    H238010   1.540   1.865   6.444  1.4910  2.1440 -0.5101
 5507TIP3   OH238011   2.016   0.369   4.262 -0.0329 -0.0239  0.2995
 5507TIP3    H138012   2.060   0.448   4.294 -0.1094  0.2172 -0.1884
 5507TIP3    H238013   1.998   0.387   4.170 -1.2186 -0.0878  0.5038
 5508TIP3   OH238014   3.980   2.674  10.535  0.0384  0.4784  0.2252
 5508TIP3    H138015   3.897   2.632  10.558 -0.4577  1.3986  0.1655
 5508TIP3    H238016   3.998   2.734  10.608  0.4939  0.5138  0.0894
 5509TIP3   OH238017   3.349   4.507   4.562 -0.2503  0.0124 -0.1447
 5509TIP3    H138018   3.304   4.464   4.635  1.5473 -1.7739  0.0116
 5509TIP3    H238019   3.407   4.571   4.605 -0.4585  0.2066 -0.1480
 5510TIP3   OH238020   6.333   5.167  14.162 -0.0196 -0.7488 -0.3561
 5510TIP3    H138021   6.373   5.143  14.246 -0.0229 -0.0125 -0.1330
 5510TIP3    H238022   6.387   5.123  14.096 -1.1661 -2.9434  0.0834
 5511TIP3   OH238023   5.386   3.901  11.218 -0.7047 -0.2294 -0.2713
 5511TIP3    H138024   5.406   3.949  11.137  1.2296 -0.8778 -0.2148
 5511TIP3    H238025   5.347   3.819  11.188 -0.1933 -0.3768 -0.5323
 5512TIP3   OH238026   6.692   5.904   0.660  0.0788 -0.3733  0.1431
 5512TIP3    H138027   6.610   5.887   0.612 -0.6848 -1.6333  1.8116
 5512TIP3    H238028   6.761   5.886   0.596 -0.9124  0.4379 -1.2188
 5513TIP3   OH238029   6.189   5.826   5.796  0.5101  0.1856  0.3841
 5513TIP3    H138030   6.094   5.829   5.781  0.8780 -0.7390 -2.9973
 5513TIP3    H238031   6.220   5.914   5.773  0.4877  0.6710  2.0545
 5514TIP3   OH238032   3.090   5.902  16.747 -0.1462 -0.1669 -0.4212
 5514TIP3    H138033   3.158   5.964  16.718  0.0153 -0.5968 -0.9804
 5514TIP3    H238034   3.091   5.909  16.843 -0.8876  1.4904 -0.4926
 5515TIP3   OH238035   5.999   4.755  16.544  0.1781  0.5345 -0.5676
 5515TIP3    H138036   5.989   4.844  16.577 -1.3559 -0.6486  2.6719
 5515TIP3    H238037   6.075   4.721  16.592  0.9394  0.1600 -1.9993
 5516TIP3   OH238038   3.025   1.632   3.947 -0.4279 -0.1868  0.1677
 5516TIP3    H138039   2.936   1.659   3.970  0.2140  1.2546  1.0905
 5516TIP3    H238040   3.081   1.676   4.011  1.0479 -0.1190 -1.1064
 5517TIP3   OH238041   1.158   4.201  11.289 -0.3645 -0.1580  0.0196
 5517TIP3    H138042   1.122   4.195  11.201 -0.0193 -1.2181 -0.0684
 5517TIP3    H238043   1.191   4.113  11.308  0.1069  0.2002  0.9784
 5518TIP3   OH238044   1.683   1.626   3.165  0.4018  0.0240 -0.0826
 5518TIP3    H138045   1.721   1.543   3.137 -2.4950 -1.1923 -0.8641
 5518TIP3    H238046   1.723   1.692   3.109  0.3265 -1.3540 -1.8416
 5519TIP3   OH238047   0.822   6.159  14.766 -0.1131 -0.7563  0.1733
 5519TIP3    H138048   0.904   6.187  14.806 -0.5591 -0.1067  0.6577
 5519TIP3    H238049   0.830   6.064  14.759  0.0398 -0.8784  1.6888
 5520TIP3   OH238050   0.176   4.849  12.652 -0.5019 -0.6919  0.3776
 5520TIP3    H138051   0.170   4.773  12.594  0.1638 -1.5433  1.4093
 5520TIP3    H238052   0.224   4.818  12.728  2.7122  1.5943 -0.5394
 5521TIP3   OH238053   6.373   0.169   1.842 -0.3425 -0.1728  0.3900
 5521TIP3    H138054   6.407   0.249   1.801 -0.3975 -0.4170 -0.1404
 5521TIP3    H238055   6.447   0.132   1.888 -0.1757 -0.1096  0.1742
 5522TIP3   OH238056   6.273   0.973  12.312  0.2237 -0.0532  0.0226
 5522TIP3    H138057   6.353   0.927  12.287  1.1214  0.4211  1.8765
 5522TIP3    H238058   6.293   1.065  12.296  0.7914  0.2565  2.2219
 5523TIP3   OH238059   0.383   3.298   2.685 -0.2254  0.4099 -0.0191
 5523TIP3    H138060   0.330   3.336   2.755 -1.8462 -1.6859 -0.0280
 5523TIP3    H238061   0.433   3.228   2.728 -0.1108  0.0770 -0.6870
 5524TIP3   OH238062   2.963   5.818  15.558 -0.0558  0.2897  0.9601
 5524TIP3    H138063   2.964   5.723  15.548 -1.8762  0.0292  2.6167
 5524TIP3    H238064   3.054   5.842  15.574  0.4078 -1.1771  0.6131
 5525TIP3   OH238065   5.862   1.203  11.992 -0.1935  0.2675 -0.3295
 5525TIP3    H138066   5.889   1.228  12.081  1.3139  0.3750 -0.7859
 5525TIP3    H238067   5.771   1.230  11.986 -0.0322  1.1557  0.8555
 5526TIP3   OH238068   5.837   4.714  12.885 -0.5400 -0.0454  0.0981
 5526TIP3    H138069   5.767   4.656  12.914  0.2286 -2.1193 -1.8828
 5526TIP3    H238070   5.798   4.764  12.812 -1.4775  2.7684  2.3450
 5527TIP3   OH238071   4.717   1.764  13.502 -0.2038 -0.3697  0.3143
 5527TIP3    H138072   4.723   1.712  13.582  0.0470 -0.3887  0.2865
 5527TIP3    H238073   4.697   1.700  13.434  1.9111 -0.7505 -0.0280
 5528TIP3   OH238074   2.937   2.456   2.695  0.1859  0.0855  0.3047
 5528TIP3    H138075   2.863   2.517   2.697 -1.1779 -1.1445 -3.8204
 5528TIP3    H238076   3.004   2.501   2.644  0.5145 -0.5369  0.1789
 5529TIP3   OH238077   3.630   3.219  14.058  0.4127 -0.1886 -0.3652
 5529TIP3    H138078   3.643   3.136  14.105 -0.2212  0.2948  0.6946
 5529TIP3    H238079   3.537   3.221  14.037 -0.0816  1.2974  1.6981
 5530TIP3   OH238080   5.947   4.593  11.683  0.0130  0.2042 -0.3607
 5530TIP3    H138081   5.940   4.499  11.699 -1.0618  0.3605  0.1822
 5530TIP3    H238082   5.950   4.632  11.771 -1.4306  0.7839 -0.5410
 5531TIP3   OH238083   5.690   1.346   0.655  0.1246  0.6954  0.3935
 5531TIP3    H138084   5.678   1.432   0.614 -0.1797  1.1218  1.3470
 5531TIP3    H238085   5.644   1.353   0.739  2.3374  0.4803  1.6765
 5532TIP3   OH238086   4.955   1.160   0.109  0.0697  0.5892 -0.2332
 5532TIP3    H138087   4.954   1.081   0.055  0.2449 -0.8521  1.7746
 5532TIP3    H238088   4.864   1.173   0.135  0.3900 -0.5348  1.5763
 5533TIP3   OH238089   5.621   2.238  11.547  0.7146 -0.1257  0.4123
 5533TIP3    H138090   5.598   2.179  11.618  2.2173  0.8648  1.7958
 5533TIP3    H238091   5.652   2.180  11.477 -0.3028 -1.0810  0.7221
 5534TIP3   OH238092   0.755   0.132  16.209  0.2320 -0.5972  0.3162
 5534TIP3    H138093   0.692   0.060  16.208 -0.0272 -0.3687  0.0156
 5534TIP3    H238094   0.816   0.112  16.138  0.0343 -0.4133  0.0904
 5535TIP3   OH238095   5.703   6.599  16.720  0.3554 -0.2324 -0.1915
 5535TIP3    H138096   5.728   6.562  16.635 -0.6812  0.1103 -0.6633
 5535TIP3    H238097   5.773   6.661  16.740 -0.0484  0.7059 -1.4817
 5536TIP3   OH238098   0.128   5.455   0.878 -0.4750  0.0610  0.1915
 5536TIP3    H138099   0.126   5.540   0.835  2.3388  0.1000 -0.1011
 5536TIP3    H238100   0.208   5.457   0.931 -2.5913 -0.8257  3.7243
 5537TIP3   OH238101   4.469   3.878  10.858  0.1742  0.0405  0.0363
 5537TIP3    H138102   4.400   3.897  10.795  0.8328  0.3848 -0.5950
 5537TIP3    H238103   4.500   3.790  10.834  0.7912  0.3878 -0.4806
 5538TIP3   OH238104   3.594   1.652  14.415  0.4823  0.0883  0.1494
 5538TIP3    H138105   3.630   1.600  14.487 -0.4418  0.4816  0.9228
 5538TIP3    H238106   3.500   1.655  14.433  0.1455 -0.3148 -1.4211
 5539TIP3   OH238107   4.626   2.883  14.172 -0.4404  0.1477 -0.3883
 5539TIP3    H138108   4.647   2.930  14.091 -0.9802 -1.9606 -1.8352
 5539TIP3    H238109   4.711   2.855  14.206 -0.2993 -1.2400 -1.7374
 5540TIP3   OH238110   1.909   3.813   0.683 -0.7249 -0.0409 -0.3789
 5540TIP3    H138111   1.919   3.801   0.588 -0.3977  0.8550 -0.4648
 5540TIP3    H238112   1.969   3.884   0.705 -1.4400  0.3586  0.3548
 5541TIP3   OH238113   1.077   2.330  14.350  0.4798  0.5947  0.2391
 5541TIP3    H138114   1.041   2.286  14.428 -0.5348 -0.4113 -0.7571
 5541TIP3    H238115   1.057   2.270  14.278  2.0084  1.1911 -0.7142
 5542TIP3   OH238116   1.347   2.382  16.875 -0.3899  0.7218 -0.1313
 5542TIP3    H138117   1.356   2.299  16.828 -0.3716  0.9279 -0.5029
 5542TIP3    H238118   1.255   2.385  16.900 -0.6484  1.0767 -1.0650
 5543TIP3   OH238119   2.504   1.281   5.718 -0.1632  0.3860  0.2427
 5543TIP3    H138120   2.464   1.366   5.737  2.2322  1.5586  0.4197
 5543TIP3    H238121   2.535   1.250   5.803 -0.9024 -0.6245  0.1561
 5544TIP3   OH238122   5.150   4.386   1.390  0.9958  0.8973  0.0974
 5544TIP3    H138123   5.225   4.329   1.376 -0.1137 -1.5877  3.0481
 5544TIP3    H238124   5.147   4.399   1.485 -2.6547  0.2218  0.2298
 5545TIP3   OH238125   3.072   4.689  14.548  0.1508  0.1725 -0.0966
 5545TIP3    H138126   3.092   4.693  14.455 -1.0136  0.8990 -0.3389
 5545TIP3    H238127   3.029   4.772  14.567  2.9866  1.4044  1.7603
 5546TIP3   OH238128   2.271   5.209  14.943  0.3488 -0.4487  1.2010
 5546TIP3    H138129   2.363   5.229  14.960  0.6939 -1.0530  0.1477
 5546TIP3    H238130   2.274   5.140  14.877 -0.8831  1.1457 -0.6269
 5547TIP3   OH238131   3.408   1.464  16.121  0.3936  0.5539  0.1303
 5547TIP3    H138132   3.354   1.532  16.162  1.8163  0.9914  1.3879
 5547TIP3    H238133   3.445   1.506  16.044  0.1185  0.7365  0.0976
 5548TIP3   OH238134   3.816   5.739  11.945 -0.4687 -0.1997 -0.2604
 5548TIP3    H138135   3.754   5.730  11.873  0.0991 -3.4862 -0.4786
 5548TIP3    H238136   3.762   5.741  12.023 -0.9648  0.3529 -0.6116
 5549TIP3   OH238137   3.265   1.420  13.291 -0.1434 -0.3214  0.2633
 5549TIP3    H138138   3.227   1.342  13.331  1.2593  0.2570  2.9320
 5549TIP3    H238139   3.221   1.493  13.334  0.6620  0.3429 -0.0147
 5550TIP3   OH238140   4.881   2.696  11.421  0.1571 -0.7390 -0.9555
 5550TIP3    H138141   4.850   2.779  11.383 -0.3687  0.4946  1.9010
 5550TIP3    H238142   4.976   2.702  11.415  0.1713  0.5311 -0.0431
 5551TIP3   OH238143   4.744   1.342   6.820 -0.4225  0.4976 -0.2558
 5551TIP3    H138144   4.751   1.267   6.762 -0.6698  0.0582  0.2795
 5551TIP3    H238145   4.707   1.412   6.765 -0.0967  0.2594 -0.7762
 5552TIP3   OH238146   2.146   6.468  11.561 -0.6604  0.2828  0.2295
 5552TIP3    H138147   2.119   6.494  11.474  0.9477  1.1011 -0.0611
 5552TIP3    H238148   2.232   6.428  11.549 -1.1309 -1.1275  1.2432
 5553TIP3   OH238149   5.523   4.029  12.233  0.1090 -0.1949 -0.0529
 5553TIP3    H138150   5.557   4.005  12.147  1.1382 -0.6631  0.4703
 5553TIP3    H238151   5.600   4.031  12.289 -0.6180 -0.3729  0.9722
 5554TIP3   OH238152   6.679   2.409   3.149 -0.4673  0.4969  0.0757
 5554TIP3    H138153   6.747   2.457   3.100 -1.1842  2.1078  0.5766
 5554TIP3    H238154   6.631   2.360   3.082  2.0853 -1.9759 -0.1372
 5555TIP3   OH238155   3.556   3.890   4.241 -0.1600 -0.3201  0.1809
 5555TIP3    H138156   3.507   3.808   4.232 -0.9191  0.0952  0.3882
 5555TIP3    H238157   3.558   3.926   4.152 -4.9006  2.2275  0.7477
 5556TIP3   OH238158   1.543   3.062  12.468  0.1402 -0.3793 -0.0109
 5556TIP3    H138159   1.500   3.094  12.388  1.2430  1.6408  0.1310
 5556TIP3    H238160   1.588   2.982  12.441  0.0994  0.0134 -1.3076
 5557TIP3   OH238161   6.615   3.109  15.610 -0.2949  0.4725 -0.7294
 5557TIP3    H138162   6.667   3.088  15.533  1.1535 -0.4443  0.4451
 5557TIP3    H238163   6.665   3.177  15.656 -1.0299  0.8609 -0.4755
 5558TIP3   OH238164   6.518   2.909   0.726  0.7326  0.2309  0.2992
 5558TIP3    H138165   6.517   2.895   0.632 -1.2582 -1.6687  0.5213
 5558TIP3    H238166   6.610   2.904   0.751  1.1697 -0.5393 -1.3658
 5559TIP3   OH238167   6.169   5.832  16.798  0.7369  0.2356 -0.2222
 5559TIP3    H138168   6.171   5.906  16.859 -1.8195  0.6017 -0.4643
 5559TIP3    H238169   6.257   5.795  16.802  1.4871  2.0220  1.4654
 5560TIP3   OH238170   4.537   3.261   4.734  0.2573  0.1850 -0.3510
 5560TIP3    H138171   4.572   3.273   4.822 -2.5234  1.8793  0.6567
 5560TIP3    H238172   4.473   3.331   4.724  0.1991 -0.1818 -3.6190
 5561TIP3   OH238173   0.609   0.147   3.072  0.4159 -0.3443  0.5254
 5561TIP3    H138174   0.565   0.128   3.155  1.9281  0.9397  1.7041
 5561TIP3    H238175   0.668   0.073   3.059 -0.4368 -0.9675  0.1184
 5562TIP3   OH238176   2.804   6.278  14.203  0.2704 -0.0536 -1.0109
 5562TIP3    H138177   2.789   6.357  14.255 -0.4015 -0.5288 -0.4690
 5562TIP3    H238178   2.858   6.222  14.259 -2.0602 -1.3885  0.0336
 5563TIP3   OH238179   1.532   1.447   0.691 -0.5425 -0.2707 -0.3588
 5563TIP3    H138180   1.583   1.382   0.740  1.7121 -0.4317 -2.7114
 5563TIP3    H238181   1.446   1.407   0.682 -0.3576 -1.2164  1.4534
 5564TIP3   OH238182   4.413   2.132   2.177 -0.5714 -0.2749 -0.3064
 5564TIP3    H138183   4.485   2.185   2.210  0.3629 -0.9138 -1.2672
 5564TIP3    H238184   4.425   2.047   2.220 -2.8475  0.5742  2.3020
 5565TIP3   OH238185   2.125   2.455  11.358 -0.1348  0.6543  0.0893
 5565TIP3    H138186   2.162   2.375  11.397  0.1891 -0.9500 -3.1941
 5565TIP3    H238187   2.106   2.511  11.433 -0.8258 -2.6673  2.6438
 5566TIP3   OH238188   6.438   0.919   0.817  0.4955 -0.3196 -0.0232
 5566TIP3    H138189   6.454   1.003   0.861  1.2870  0.0993 -1.0647
 5566TIP3    H238190   6.517   0.868   0.835  0.4375 -0.4765 -0.2124
 5567TIP3   OH238191   6.355   2.651  13.352  0.0420  0.3220  0.0072
 5567TIP3    H138192   6.391   2.738  13.335 -1.0013  0.5762 -1.0163
 5567TIP3    H238193   6.396   2.594  13.287 -0.9498  0.5127 -0.8209
 5568TIP3   OH238194   3.109   3.069  14.903 -0.1559  0.0354 -0.3277
 5568TIP3    H138195   3.170   3.006  14.865 -0.1826 -0.0592 -0.2156
 5568TIP3    H238196   3.023   3.028  14.893 -0.0615 -0.4472  0.7342
 5569TIP3   OH238197   2.188   5.863   4.460 -0.2035  0.5441 -0.2287
 5569TIP3    H138198   2.148   5.949   4.474  0.0784  0.7137 -0.4637
 5569TIP3    H238199   2.161   5.812   4.536 -0.9351  0.6331 -0.4118
 5570TIP3   OH238200   2.968   5.750  11.311 -0.0143 -0.4283 -0.0254
 5570TIP3    H138201   2.962   5.770  11.218 -0.3321  2.1738  0.4812
 5570TIP3    H238202   3.062   5.742  11.329  0.0346 -1.2006 -0.5924
 5571TIP3   OH238203   1.229   2.181   6.161  0.0097 -0.6526 -0.2197
 5571TIP3    H138204   1.177   2.101   6.151  0.0705 -0.8016  0.6498
 5571TIP3    H238205   1.194   2.239   6.093  0.5077 -1.6783 -1.4094
 5572TIP3   OH238206   2.150   1.053  11.252 -0.6174  0.3413  0.2626
 5572TIP3    H138207   2.129   1.136  11.209 -0.5437 -0.5134 -1.4719
 5572TIP3    H238208   2.157   1.076  11.345 -1.9395  2.0102 -0.0085
 5573TIP3   OH238209   4.031   1.312  13.454  0.2947  0.2242  0.0315
 5573TIP3    H138210   4.001   1.221  13.447  0.4709  0.0820  0.9676
 5573TIP3    H238211   4.126   1.306  13.454  0.4444  0.7076 -3.3828
 5574TIP3   OH238212   2.794   4.908  15.685 -0.0138  0.4523 -0.0822
 5574TIP3    H138213   2.786   4.999  15.658  1.5045  1.2005  1.6740
 5574TIP3    H238214   2.704   4.877  15.696 -0.5604  1.4482 -1.5085
 5575TIP3   OH238215   3.062   0.868  13.354  0.4180 -0.5616 -0.6408
 5575TIP3    H138216   3.126   0.922  13.401 -0.1419  1.2676 -1.8844
 5575TIP3    H238217   2.977   0.900  13.386  0.0465  0.3333 -2.4324
 5576TIP3   OH238218   1.112   2.871  16.182 -0.6879 -0.0040  0.2672
 5576TIP3    H138219   1.166   2.792  16.187  0.0088  0.2100 -2.4295
 5576TIP3    H238220   1.135   2.910  16.097 -1.2586  2.9243  1.3611
 5577TIP3   OH238221   5.373   4.452  14.211  0.4039  0.5202  0.2860
 5577TIP3    H138222   5.363   4.448  14.306 -0.2373  1.2780  0.2563
 5577TIP3    H238223   5.464   4.480  14.198  1.2171 -1.7549  0.6254
 5578TIP3   OH238224   2.650   3.210   1.545 -0.4566  0.2471  0.2806
 5578TIP3    H138225   2.714   3.167   1.603  0.1216 -0.1199 -0.6045
 5578TIP3    H238226   2.591   3.256   1.605  1.4376  1.7457  1.0981
 5579TIP3   OH238227   0.898   1.103  17.039  0.1749 -0.1411 -0.2042
 5579TIP3    H138228   0.857   1.020  17.012 -0.4265  0.0536  0.0999
 5579TIP3    H238229   0.835   1.142  17.100  0.2058  0.7966 -0.7537
 5580TIP3   OH238230   6.513   1.137  15.375 -0.4532 -0.0713 -0.1224
 5580TIP3    H138231   6.606   1.116  15.375 -0.2938  0.5426  1.0993
 5580TIP3    H238232   6.500   1.187  15.456 -2.0736 -1.1757  0.3316
 5581TIP3   OH238233   3.111   4.019   0.179  0.0985  0.6513  0.8638
 5581TIP3    H138234   3.163   4.090   0.216 -1.1009  1.1608  1.6169
 5581TIP3    H238235   3.121   4.028   0.084  0.6401  1.2882  0.9770
 5582TIP3   OH238236   0.448   5.137  11.213 -0.0932  0.6782 -0.1120
 5582TIP3    H138237   0.362   5.165  11.180  0.5572  4.3540  0.9118
 5582TIP3    H238238   0.511   5.183  11.157  1.1903 -0.3653  0.4336
 5583TIP3   OH238239   5.920   6.639   5.790 -0.0892  0.7895  0.0207
 5583TIP3    H138240   5.869   6.562   5.813 -0.2958  1.3139  1.4170
 5583TIP3    H238241   5.978   6.652   5.865 -1.3882  3.0874  0.7196
 5584TIP3   OH238242   3.637   3.658   5.197 -0.4856 -0.2408  0.0521
 5584TIP3    H138243   3.618   3.722   5.128 -0.6865 -1.3508 -0.9516
 5584TIP3    H238244   3.730   3.670   5.216 -0.8913  1.5361  1.1441
 5585TIP3   OH238245   2.851   5.102   0.126  0.6503  0.2157 -0.0347
 5585TIP3    H138246   2.888   5.187   0.151 -0.4730  0.9226 -0.6785
 5585TIP3    H238247   2.854   5.049   0.206 -0.7161  1.6346  1.0209
 5586TIP3   OH238248   5.780   2.161  13.578  0.2158 -0.2309 -0.3272
 5586TIP3    H138249   5.715   2.208  13.525  0.8716  0.4354 -0.5640
 5586TIP3    H238250   5.758   2.069  13.566  0.4596 -0.1101 -1.9188
 5587TIP3   OH238251   2.035   1.808   0.374  0.4001 -0.6827  0.1292
 5587TIP3    H138252   2.098   1.879   0.384  2.0328 -1.8514 -1.2711
 5587TIP3    H238253   1.977   1.838   0.303  0.0817 -0.1081  0.6175
 5588TIP3   OH238254   4.020   6.053  12.205  0.4683 -0.0949 -0.3269
 5588TIP3    H138255   3.986   5.975  12.250  1.6360 -0.8605 -0.7382
 5588TIP3    H238256   4.091   6.084  12.261 -1.0057  1.6819  0.6823
 5589TIP3   OH238257   6.821   1.050  13.398 -0.3722  0.6725  0.0359
 5589TIP3    H138258   6.730   1.072  13.418 -0.3788  0.1720  0.5834
 5589TIP3    H238259   6.872   1.121  13.437 -0.5873  1.6491 -1.4036
 5590TIP3   OH238260   1.544   4.277   2.205 -0.1808 -0.3928  0.6899
 5590TIP3    H138261   1.624   4.269   2.257  0.0897  0.8638  0.5000
 5590TIP3    H238262   1.510   4.363   2.227 -1.2204 -0.7168  0.3861
 5591TIP3   OH238263   5.236   0.264  11.401  0.0935 -0.4640  0.1710
 5591TIP3    H138264   5.289   0.344  11.403 -0.5561 -0.0370  1.6430
 5591TIP3    H238265   5.225   0.245  11.307  3.1343 -0.8268 -0.2152
 5592TIP3   OH238266   2.316   4.146  16.989  0.2263  0.5422 -0.6431
 5592TIP3    H138267   2.358   4.099  17.061  1.7865  1.2093 -1.0745
 5592TIP3    H238268   2.256   4.207  17.032  0.2025  0.0718  0.0142
 5593TIP3   OH238269   4.681   2.234   5.746  0.2557  0.4083 -0.3840
 5593TIP3    H138270   4.619   2.246   5.818  0.6029  0.7500 -0.1336
 5593TIP3    H238271   4.627   2.206   5.672 -0.1474  0.3520 -0.0724
 5594TIP3   OH238272   0.626   1.999  12.460  0.1757 -0.4384 -0.9561
 5594TIP3    H138273   0.682   1.947  12.517  1.8053  1.3982 -0.7795
 5594TIP3    H238274   0.684   2.065  12.423 -1.5458  0.4975 -2.1295
 5595TIP3   OH238275   3.583   4.508   3.603 -0.6251  0.3639 -0.3285
 5595TIP3    H138276   3.633   4.467   3.673 -2.3702 -0.6995  0.3735
 5595TIP3    H238277   3.547   4.435   3.553  1.8491  1.0635 -3.4271
 5596TIP3   OH238278   2.680   0.284  14.167 -0.3790  0.0036  0.8306
 5596TIP3    H138279   2.721   0.205  14.201  0.0574  0.0832  0.5023
 5596TIP3    H238280   2.744   0.353  14.183 -1.5184  0.6763  2.8397
 5597TIP3   OH238281   1.384   5.132   0.622  0.2398 -0.0329  0.0880
 5597TIP3    H138282   1.442   5.096   0.555 -0.7400  1.1581 -1.4794
 5597TIP3    H238283   1.368   5.059   0.681 -0.3462 -1.7165 -2.0202
 5598TIP3   OH238284   6.829   6.073   4.394 -0.3659  0.0917 -0.6822
 5598TIP3    H138285   6.756   6.014   4.375 -1.7883  1.5610 -0.0473
 5598TIP3    H238286   6.800   6.158   4.360  0.5547  0.9611  0.6223
 5599TIP3   OH238287   5.662   0.962  12.570 -0.3410 -0.4370  0.0988
 5599TIP3    H138288   5.684   0.870  12.557  1.2215  0.0400 -0.9608
 5599TIP3    H238289   5.706   0.985  12.652 -0.3917 -0.5287  0.1522
 5600TIP3   OH238290   6.424   5.649  11.111  0.0391  0.1274  0.4473
 5600TIP3    H138291   6.465   5.571  11.074  1.6468  1.2459 -0.2492
 5600TIP3    H238292   6.346   5.616  11.157 -0.3821 -1.6569 -1.3990
 5601TIP3   OH238293   1.098   1.258  13.680  0.1772  0.5687  0.3250
 5601TIP3    H138294   1.130   1.346  13.657  0.6430  0.4946  0.6595
 5601TIP3    H238295   1.096   1.258  13.776  1.8323 -0.3454  0.3928
 5602TIP3   OH238296   0.504   6.060   4.742 -0.2451 -0.5422 -0.2663
 5602TIP3    H138297   0.462   6.145   4.727  1.0861  0.5485  1.7238
 5602TIP3    H238298   0.440   6.010   4.792 -0.2668  0.0712  0.3349
 5603TIP3   OH238299   2.015   3.866   1.867 -0.7876  0.0527  0.0354
 5603TIP3    H138300   1.996   3.940   1.924  0.5271  0.0422  0.5263
 5603TIP3    H238301   2.057   3.802   1.925 -0.8534 -0.6034 -0.6292
 5604TIP3   OH238302   4.876   6.495   0.579  0.2510 -0.0602 -0.0464
 5604TIP3    H138303   4.854   6.585   0.554  0.3158 -0.0014  0.1106
 5604TIP3    H238304   4.805   6.468   0.636 -1.3377 -1.1223 -2.3524
 5605TIP3   OH238305   0.010   3.385  16.939 -0.1700  0.2988  0.3440
 5605TIP3    H138306  -0.066   3.345  16.982 -1.0449 -1.4170 -2.5326
 5605TIP3    H238307   0.083   3.328  16.961 -0.1539  0.6572  1.2547
 5606TIP3   OH238308   4.211   5.062  14.708 -0.1333  0.1526 -0.1062
 5606TIP3    H138309   4.145   4.995  14.723 -0.6933  0.5756 -0.6356
 5606TIP3    H238310   4.220   5.106  14.792  1.3142 -1.5033  0.6776
 5607TIP3   OH238311   0.387   4.792   2.271  0.4340 -0.7803  0.4641
 5607TIP3    H138312   0.344   4.755   2.348 -0.0321  0.1218  0.6451
 5607TIP3    H238313   0.480   4.797   2.296  0.3211 -0.7080  0.8721
 5608TIP3   OH238314   4.154   4.210  11.887 -0.0486  0.1143  0.1312
 5608TIP3    H138315   4.115   4.285  11.841  0.4752 -0.9164 -2.1317
 5608TIP3    H238316   4.099   4.199  11.965 -4.1897 -1.0079 -2.6140
 5609TIP3   OH238317   2.148   0.584   4.367  0.8431 -0.0840 -0.0584
 5609TIP3    H138318   2.184   0.597   4.278 -0.1490  0.6239 -0.3654
 5609TIP3    H238319   2.156   0.669   4.409  0.5383 -0.2063  0.2520
 5610TIP3   OH238320   6.093   4.210   2.300 -0.4348  0.3825 -0.0662
 5610TIP3    H138321   6.106   4.298   2.266 -1.5366 -0.0503 -1.7023
 5610TIP3    H238322   6.010   4.213   2.347 -0.4601  0.2185 -0.0975
 5611TIP3   OH238323   5.822   1.906   0.109 -0.1987  0.7767 -0.1058
 5611TIP3    H138324   5.825   1.941   0.198 -1.3086  0.7799 -0.0506
 5611TIP3    H238325   5.913   1.900   0.082  0.0889  2.1309  0.4999
 5612TIP3   OH238326   5.266   2.078   2.327 -0.5355 -0.0107 -0.0753
 5612TIP3    H138327   5.204   2.144   2.360 -0.4472 -0.3073  0.7175
 5612TIP3    H238328   5.352   2.115   2.345 -0.4859 -0.1399 -0.0457
 5613TIP3   OH238329   5.293   3.931   3.273  0.7669  0.1978  0.0879
 5613TIP3    H138330   5.324   3.865   3.211 -0.6664 -1.5391  1.1130
 5613TIP3    H238331   5.320   3.899   3.358  1.7488  1.9907  0.5059
 5614TIP3   OH238332   0.084   0.439  13.173 -1.0145  0.1202 -0.6300
 5614TIP3    H138333   0.113   0.348  13.166  0.0749  0.3096  0.8321
 5614TIP3    H238334  -0.010   0.437  13.155 -1.3744 -1.5931  1.1230
 5615TIP3   OH238335   4.653   3.784  14.315  0.1418 -0.4936 -0.4880
 5615TIP3    H138336   4.715   3.722  14.276 -1.0599 -1.7856 -0.4233
 5615TIP3    H238337   4.656   3.766  14.408 -0.1891 -0.4427 -0.4637
 5616TIP3   OH238338   2.998   3.792   1.156 -0.4952 -0.5358  0.2314
 5616TIP3    H138339   2.976   3.732   1.227 -2.1529  0.6705  0.8037
 5616TIP3    H238340   3.061   3.853   1.194 -0.2762 -0.7546  0.2212
 5617TIP3   OH238341   4.241   0.121  15.302 -0.1676 -0.3030  0.8281
 5617TIP3    H138342   4.313   0.062  15.324 -0.6435 -1.7936 -1.2900
 5617TIP3    H238343   4.256   0.144  15.210 -1.4957  0.7066  0.8268
 5618TIP3   OH238344   2.805   0.470  13.869 -0.1352  0.5609 -0.0384
 5618TIP3    H138345   2.871   0.504  13.809  0.4399  1.8953  1.2815
 5618TIP3    H238346   2.846   0.392  13.907  0.4467  1.0119  0.2879
 5619TIP3   OH238347   1.035   4.807  17.122 -0.2919 -0.1224 -1.2085
 5619TIP3    H138348   1.093   4.881  17.106 -0.8968  0.9543  1.1267
 5619TIP3    H238349   0.965   4.818  17.058  1.0847 -0.4151 -2.8437
 5620TIP3   OH238350   5.083   6.149   2.573 -0.3815  0.8343 -0.0239
 5620TIP3    H138351   5.155   6.119   2.628  0.9907  1.7288 -1.2576
 5620TIP3    H238352   5.106   6.120   2.485 -2.4077 -0.3490 -0.2205
 5621TIP3   OH238353   1.189   0.384  16.022  0.3850  0.2210  0.0115
 5621TIP3    H138354   1.131   0.446  16.067 -0.9101 -0.7140 -0.2879
 5621TIP3    H238355   1.203   0.314  16.085  2.2549  1.0164  0.5272
 5622TIP3   OH238356   2.688   3.239  16.490 -0.4834 -0.1903  0.2669
 5622TIP3    H138357   2.729   3.211  16.408 -2.5370 -1.4667 -0.3991
 5622TIP3    H238358   2.611   3.290  16.462 -0.5018  0.4441  1.4313
 5623TIP3   OH238359   0.449   5.395   4.006 -0.3409  0.0828  0.0748
 5623TIP3    H138360   0.399   5.476   3.993 -0.5018  0.0292  0.3534
 5623TIP3    H238361   0.459   5.359   3.917  0.4469  0.8265 -0.1441
 5624TIP3   OH238362   3.932   0.986   5.885 -0.1794 -0.0609  0.0442
 5624TIP3    H138363   4.012   0.944   5.856 -0.1578  1.3701 -2.2159
 5624TIP3    H238364   3.895   1.025   5.806 -0.7279  3.2246  1.7426
 5625TIP3   OH238365   5.891   1.016  17.147 -0.0025 -0.2343 -0.1761
 5625TIP3    H138366   5.826   0.949  17.169 -0.5309  0.0514 -0.8206
 5625TIP3    H238367   5.883   1.027  17.053 -0.9610  1.7686  0.0828
 5626TIP3   OH238368   2.942   5.609   5.218 -0.1780  0.3454  0.3272
 5626TIP3    H138369   2.969   5.686   5.169  0.8473  0.3486  0.8679
 5626TIP3    H238370   2.855   5.587   5.183  0.4180  0.4813 -1.2933
 5627TIP3   OH238371   0.148   6.276   6.034  0.8556  0.0116  0.0238
 5627TIP3    H138372   0.113   6.225   6.107 -1.8077 -0.5227 -1.4483
 5627TIP3    H238373   0.216   6.331   6.072 -0.5073 -0.1270  2.9145
 5628TIP3   OH238374   1.897   4.585  16.507  0.0648 -0.2537 -0.3586
 5628TIP3    H138375   1.913   4.678  16.522 -0.8411 -0.2157  0.4892
 5628TIP3    H238376   1.936   4.542  16.583  0.5589 -0.5832 -0.7909
 5629TIP3   OH238377   1.502   0.023   3.204  0.3863 -0.9056  0.5197
 5629TIP3    H138378   1.573   0.009   3.267 -0.5119  1.2819  2.1328
 5629TIP3    H238379   1.422  -0.001   3.251 -0.1956 -0.5979 -0.2888
 5630TIP3   OH238380   2.767   1.715   0.861 -0.3318  0.1727  0.5641
 5630TIP3    H138381   2.761   1.656   0.936 -1.2008  0.7430  0.9582
 5630TIP3    H238382   2.800   1.660   0.790  0.1647 -0.4596  1.2649
 5631TIP3   OH238383   2.947   0.267   0.796  0.1425  0.4989 -0.2974
 5631TIP3    H138384   2.875   0.204   0.788  0.1636  0.1399  1.8094
 5631TIP3    H238385   2.965   0.295   0.706 -1.8226 -0.2998 -0.9823
 5632TIP3   OH238386   4.337   3.630  12.903  0.2039 -0.4655  0.6085
 5632TIP3    H138387   4.352   3.724  12.912  0.2500 -0.1299 -2.0678
 5632TIP3    H238388   4.420   3.595  12.872 -0.7786 -0.7332 -1.9302
 5633TIP3   OH238389   6.574   1.268   1.596  0.0467 -0.6717  0.5292
 5633TIP3    H138390   6.534   1.259   1.682  0.9212  0.3825  1.0588
 5633TIP3    H238391   6.573   1.362   1.577  2.4179 -0.5426  0.6718
 5634TIP3   OH238392   6.697   6.074  15.602  0.3207  0.4122  0.3472
 5634TIP3    H138393   6.701   6.097  15.509  0.2064  3.5636  1.0173
 5634TIP3    H238394   6.789   6.066  15.629  0.3671  0.1964  0.1262
 5635TIP3   OH238395   5.751   5.646  12.571 -0.0435  0.0418  0.6744
 5635TIP3    H138396   5.839   5.629  12.604  0.7401  2.1768 -0.1171
 5635TIP3    H238397   5.753   5.615  12.480  0.0168  0.4055  0.5493
 5636TIP3   OH238398   0.778   5.326   6.171 -0.4169 -0.2930 -1.1403
 5636TIP3    H138399   0.828   5.316   6.252 -0.7905  2.9468 -0.3497
 5636TIP3    H238400   0.694   5.283   6.188 -0.0447 -0.6826 -0.2705
 5637TIP3   OH238401   6.489   3.945   0.049 -0.1961  0.3307 -0.3441
 5637TIP3    H138402   6.419   3.990   0.095  0.5605  0.3941  0.7720
 5637TIP3    H238403   6.481   3.853   0.076 -0.6435  0.0881 -1.2410
 5638TIP3   OH238404   1.742   3.948  16.631  0.2286  0.0738 -0.0129
 5638TIP3    H138405   1.821   3.966  16.682  0.5125  0.1291 -0.4694
 5638TIP3    H238406   1.671   3.989  16.680  0.2034 -1.5422  1.3956
 5639TIP3   OH238407   6.299   5.141   3.834 -0.3853 -0.2804 -0.1420
 5639TIP3    H138408   6.302   5.049   3.858  0.8649 -0.2473 -0.1361
 5639TIP3    H238409   6.362   5.150   3.762  0.6480  0.8470  0.8639
 5640TIP3   OH238410   0.076   3.640   3.416  0.7400 -0.1231 -0.7770
 5640TIP3    H138411   0.121   3.618   3.498 -0.2796 -0.6587 -0.3353
 5640TIP3    H238412   0.098   3.731   3.399 -0.1545  0.4186  0.8494
 5641TIP3   OH238413   4.875   5.120  15.863 -0.1281 -0.3797  0.4723
 5641TIP3    H138414   4.857   5.136  15.955 -0.5781  1.0822  0.1660
 5641TIP3    H238415   4.793   5.142  15.818 -0.1634 -1.8254 -0.2144
 5642TIP3   OH238416   3.534   0.047  14.596  0.2283  0.0781  0.0106
 5642TIP3    H138417   3.587   0.091  14.663  0.4422 -0.8718  0.4798
 5642TIP3    H238418   3.453   0.024  14.642 -0.5115  1.3010 -0.6383
 5643TIP3   OH238419   4.363   5.681  10.609  0.1692  0.0843 -0.5733
 5643TIP3    H138420   4.322   5.715  10.689 -0.7249 -2.0985 -0.0322
 5643TIP3    H238421   4.298   5.696  10.540 -0.5602 -1.1633 -0.1862
 5644TIP3   OH238422   3.087   0.489   1.967 -0.4109  0.0430 -0.1725
 5644TIP3    H138423   3.086   0.581   1.995 -1.4035  0.4487 -1.4248
 5644TIP3    H238424   3.017   0.484   1.901 -0.7459 -1.7523  0.2828
 5645TIP3   OH238425   1.348   5.705   4.371  0.4770 -0.5793 -0.2284
 5645TIP3    H138426   1.266   5.737   4.335  1.1790 -0.1745 -1.5330
 5645TIP3    H238427   1.415   5.764   4.336  1.4546 -1.5795 -0.1394
 5646TIP3   OH238428   2.230   5.187  12.795 -0.4421 -0.2725 -0.6091
 5646TIP3    H138429   2.155   5.224  12.747  0.6984  1.3362 -1.2316
 5646TIP3    H238430   2.303   5.246  12.776  0.8525 -1.4220  0.5171
 5647TIP3   OH238431   6.537   1.027   2.180  0.2972 -0.7467 -0.0716
 5647TIP3    H138432   6.517   1.035   2.273 -0.0680  0.4916 -0.2394
 5647TIP3    H238433   6.452   1.029   2.136  0.3416 -2.9293 -0.3726
 5648TIP3   OH238434   3.740   0.591  11.715 -0.3496  0.2089 -0.0368
 5648TIP3    H138435   3.769   0.577  11.624  0.6895 -0.1214  0.3261
 5648TIP3    H238436   3.646   0.573  11.714 -0.0555 -1.4245 -0.7217
 5649TIP3   OH238437   4.724   2.384   1.669 -0.4254 -1.1345 -0.1645
 5649TIP3    H138438   4.659   2.389   1.739 -1.8731 -0.3092 -1.5083
 5649TIP3    H238439   4.793   2.445   1.696 -1.9102  0.7113 -0.3562
 5650TIP3   OH238440   0.699   0.395  11.969 -0.4959  0.2962 -0.7929
 5650TIP3    H138441   0.742   0.428  12.048 -0.5146  0.6259 -0.9179
 5650TIP3    H238442   0.660   0.312  11.996  0.6524 -0.2718 -0.7991
 5651TIP3   OH238443   3.903   1.256   2.030  0.0009  0.0572 -0.0300
 5651TIP3    H138444   3.818   1.229   2.065 -0.7879  0.7370 -1.3410
 5651TIP3    H238445   3.916   1.343   2.067 -0.4392  0.4327 -0.7394
 5652TIP3   OH238446   2.106   3.382  14.990  0.6329  0.4630  0.5286
 5652TIP3    H138447   2.124   3.438  14.915  1.6719 -2.5853 -1.6748
 5652TIP3    H238448   2.192   3.354  15.021  0.1387 -1.2984  0.4050
 5653TIP3   OH238449   0.108   5.775   5.082  0.7572  0.1830 -0.5462
 5653TIP3    H138450   0.087   5.866   5.101  0.1316  0.0495 -0.5799
 5653TIP3    H238451   0.160   5.779   5.001  0.1474  0.4652 -0.9339
 5654TIP3   OH238452   2.575   6.256   1.589 -0.1518 -0.2771  0.0650
 5654TIP3    H138453   2.573   6.162   1.570  1.2948 -0.7115  1.8238
 5654TIP3    H238454   2.668   6.275   1.604 -0.5443  1.2425  0.6736
 5655TIP3   OH238455   5.796   0.817  10.537 -0.0023  0.5129  0.2318
 5655TIP3    H138456   5.807   0.734  10.491  0.9328 -0.3181  1.8445
 5655TIP3    H238457   5.862   0.875  10.499  0.6409 -0.1027  0.3873
 5656TIP3   OH238458   2.789   0.202   2.388  0.0702  0.0027 -0.2498
 5656TIP3    H138459   2.872   0.155   2.396  0.1934  0.3914  0.8664
 5656TIP3    H238460   2.802   0.259   2.313  0.8565  0.1291 -0.0331
 5657TIP3   OH238461   2.303   3.418  12.438 -0.1987  0.2949  0.4478
 5657TIP3    H138462   2.355   3.340  12.421  0.5463  0.7388  0.6671
 5657TIP3    H238463   2.299   3.423  12.534 -1.5657 -0.3382  0.4449
 5658TIP3   OH238464   5.742   2.626  12.332 -0.1632 -0.0707  0.4908
 5658TIP3    H138465   5.719   2.542  12.293  0.6912 -1.1150  2.1199
 5658TIP3    H238466   5.812   2.605  12.394  1.3331  2.1263 -0.3344
 5659TIP3   OH238467   4.198   1.989  13.146 -0.3171 -0.0985 -0.3357
 5659TIP3    H138468   4.117   2.013  13.101 -0.0460  0.4079 -0.5678
 5659TIP3    H238469   4.256   2.063  13.130  0.0283 -0.2454  0.2388
 5660TIP3   OH238470   5.850   1.987  11.139 -0.3698 -0.3093  0.3568
 5660TIP3    H138471   5.942   2.000  11.117 -0.6784 -0.7680 -1.3451
 5660TIP3    H238472   5.808   1.962  11.056 -2.1871  0.6838  0.8960
 5661TIP3   OH238473   4.852   4.868   5.356  0.5524  0.6239  0.3153
 5661TIP3    H138474   4.861   4.930   5.283  1.3068  1.2780  0.9476
 5661TIP3    H238475   4.765   4.886   5.392  0.2656  0.4512 -0.2824
 5662TIP3   OH238476   1.183   0.652  14.405  0.4952  0.3056  0.4275
 5662TIP3    H138477   1.168   0.639  14.498  0.1661  1.8804  0.6239
 5662TIP3    H238478   1.247   0.586  14.381  0.4492 -0.2285  1.7301
 5663TIP3   OH238479   3.636   1.366   1.439 -0.0824 -0.0087  0.2460
 5663TIP3    H138480   3.578   1.439   1.417  0.5152  1.0417  2.0074
 5663TIP3    H238481   3.709   1.374   1.377  1.2089  2.4530  1.9095
 5664TIP3   OH238482   3.223   2.962  11.296  0.2822 -0.3014 -0.2613
 5664TIP3    H138483   3.182   2.905  11.361  1.3382 -1.0819 -0.2448
 5664TIP3    H238484   3.271   3.027  11.347 -0.6322  0.4202 -0.2818
 5665TIP3   OH238485   4.372   2.203  13.869  0.3398 -0.6115  0.3126
 5665TIP3    H138486   4.289   2.184  13.913 -0.0374  1.7911  0.7442
 5665TIP3    H238487   4.353   2.276  13.811  2.1107 -0.1533  0.2383
 5666TIP3   OH238488   2.024   1.114   4.723  0.2200 -0.7124 -0.3711
 5666TIP3    H138489   1.953   1.129   4.660 -0.3363 -2.5163 -0.2181
 5666TIP3    H238490   2.034   1.019   4.725  0.7753 -0.6491  1.6676
 5667TIP3   OH238491   2.334   4.290  12.972 -0.4705  0.2014  0.0135
 5667TIP3    H138492   2.416   4.303  13.020 -0.6893 -2.1197  1.1872
 5667TIP3    H238493   2.333   4.196  12.953 -1.5687  0.6315 -2.4960
 5668TIP3   OH238494   2.978   1.459  16.185  0.1316 -0.6296  0.2214
 5668TIP3    H138495   2.908   1.419  16.133 -0.4774  1.4442 -0.6219
 5668TIP3    H238496   2.974   1.412  16.269 -2.8424 -0.0553  0.5068
 5669TIP3   OH238497   1.615   4.260   6.116 -0.4648 -0.6449 -0.4017
 5669TIP3    H138498   1.577   4.232   6.200 -0.9675 -0.6860 -0.6403
 5669TIP3    H238499   1.703   4.224   6.117 -0.7884 -1.4477 -0.2957
 5670TIP3   OH238500   4.703   5.703  14.168 -0.1726 -0.4169 -0.0337
 5670TIP3    H138501   4.663   5.673  14.087  1.3158 -0.5076 -0.7720
 5670TIP3    H238502   4.773   5.640  14.186  0.3225  0.2971  0.6312
 5671TIP3   OH238503   1.056   3.977  15.489  0.4276  0.1266 -0.8782
 5671TIP3    H138504   1.132   3.945  15.537  1.0123 -0.9450 -2.4372
 5671TIP3    H238505   1.030   4.058  15.534  0.7182 -0.9906  1.4016
 5672TIP3   OH238506   6.841   6.806  13.254  0.1387  0.6953  0.8056
 5672TIP3    H138507   6.883   6.873  13.200 -0.4905  0.1326 -0.4241
 5672TIP3    H238508   6.821   6.851  13.336  1.2117  1.5441  0.6232
 5673TIP3   OH238509   0.904   4.731  13.814 -0.2892  0.1022  0.2563
 5673TIP3    H138510   0.836   4.707  13.878  0.5415 -0.1650  1.0655
 5673TIP3    H238511   0.929   4.820  13.838 -0.6607  0.3737 -0.3317
 5674TIP3   OH238512   4.711   3.443  12.566  0.1790 -0.1739 -0.0910
 5674TIP3    H138513   4.683   3.481  12.649  0.2022  1.2464 -0.6939
 5674TIP3    H238514   4.727   3.519  12.510 -0.4614 -1.1115 -1.6049
 5675TIP3   OH238515   4.346   3.937   3.713  0.0268  0.1216  0.5566
 5675TIP3    H138516   4.301   3.866   3.666  0.7005 -1.1271  1.7470
 5675TIP3    H238517   4.277   4.001   3.731 -0.8509 -0.7890  0.5236
 5676TIP3   OH238518   3.526   3.545  12.322  0.1263  0.4805  0.5334
 5676TIP3    H138519   3.581   3.472  12.346  0.4296  0.6214  0.2728
 5676TIP3    H238520   3.586   3.611  12.287 -0.1154  0.9355  0.9479
 5677TIP3   OH238521   5.969   4.006  12.140  0.1189  0.3983 -0.5795
 5677TIP3    H138522   5.975   4.006  12.044  2.7612  0.2856 -0.4726
 5677TIP3    H238523   6.023   4.080  12.167  1.0269 -0.7454  0.8763
 5678TIP3   OH238524   1.055   1.982   2.382  0.2643 -0.2945  0.2201
 5678TIP3    H138525   1.083   1.967   2.292 -2.4271 -1.1594 -0.5462
 5678TIP3    H238526   0.999   2.060   2.378 -0.8492 -1.0340  0.8916
 5679TIP3   OH238527   5.003   6.596   6.037  0.0100 -0.6603 -0.0694
 5679TIP3    H138528   5.016   6.583   5.943  1.5753 -1.5261  0.2209
 5679TIP3    H238529   4.956   6.517   6.066  0.6699 -1.0162  0.0628
 5680TIP3   OH238530   0.467   0.286  16.929  0.1511  0.2847  0.0687
 5680TIP3    H138531   0.488   0.209  16.981  1.6171 -0.4154 -1.4539
 5680TIP3    H238532   0.372   0.295  16.937 -0.1666 -2.0812 -0.2082
 5681TIP3   OH238533   2.687   3.461  13.413 -0.4841 -0.1415  0.0624
 5681TIP3    H138534   2.653   3.444  13.325  0.2346 -1.6411  0.0485
 5681TIP3    H238535   2.769   3.507  13.399  1.2614 -3.1278 -0.2535
 5682TIP3   OH238536   2.992   2.725   6.484 -0.4594 -0.4650  0.0492
 5682TIP3    H138537   3.058   2.656   6.487  0.0401 -0.0636 -1.1943
 5682TIP3    H238538   3.033   2.795   6.433 -0.8369  0.8877  1.4927
 5683TIP3   OH238539   6.422   3.936   1.125  0.0807 -0.5796  0.4737
 5683TIP3    H138540   6.348   3.881   1.153  1.1394 -1.8314  0.9361
 5683TIP3    H238541   6.441   3.991   1.201 -1.0257  0.5083 -0.0112
 5684TIP3   OH238542   4.750   4.209  16.132  0.2203  0.1897 -0.4373
 5684TIP3    H138543   4.770   4.216  16.225  0.9430 -0.3594 -0.5417
 5684TIP3    H238544   4.656   4.191  16.129  0.4973 -1.5922  0.2836
 5685TIP3   OH238545   6.691   0.259   5.718  0.0075  0.2542  0.0882
 5685TIP3    H138546   6.696   0.258   5.814 -0.0473  0.3637  0.0929
 5685TIP3    H238547   6.715   0.349   5.694  0.7334  0.0290 -0.0453
 5686TIP3   OH238548   3.342   0.884  13.210  0.0282 -0.3205  0.0266
 5686TIP3    H138549   3.337   0.796  13.172  1.1591 -0.9680  1.2967
 5686TIP3    H238550   3.431   0.914  13.189 -0.2833  0.4449 -0.2274
 5687TIP3   OH238551   0.711   2.745  12.865  0.3129  0.3020 -0.6225
 5687TIP3    H138552   0.805   2.760  12.862  0.1635  1.4183 -0.2091
 5687TIP3    H238553   0.675   2.807  12.802  0.0100 -1.8435 -2.6696
 5688TIP3   OH238554   4.658   2.268  15.502  0.0278  0.0376 -0.0422
 5688TIP3    H138555   4.602   2.266  15.579 -0.8644 -0.2992 -0.6858
 5688TIP3    H238556   4.725   2.202  15.520  1.9185  2.3000  1.9281
 5689TIP3   OH238557   6.747   0.539  11.620 -0.0465 -0.1384  0.4010
 5689TIP3    H138558   6.701   0.484  11.558  0.6433  1.1062 -1.2818
 5689TIP3    H238559   6.816   0.483  11.656 -1.3865 -1.3167  1.2317
 5690TIP3   OH238560   6.388   4.296  14.641 -0.0149 -0.2888  0.0098
 5690TIP3    H138561   6.378   4.229  14.573  0.3417  0.6864 -1.0410
 5690TIP3    H238562   6.350   4.257  14.719 -1.8650 -0.8729 -1.1110
 5691TIP3   OH238563   1.788   2.543  13.436 -0.1782 -0.1706 -0.2581
 5691TIP3    H138564   1.740   2.625  13.447 -0.3146 -0.3476  0.5447
 5691TIP3    H238565   1.818   2.522  13.524  0.2473 -0.7501 -0.5384
 5692TIP3   OH238566   1.941   6.396  16.546 -0.5014 -0.1594  0.1881
 5692TIP3    H138567   2.014   6.420  16.489  0.5966 -1.5166  0.9677
 5692TIP3    H238568   1.898   6.480  16.566  1.9594  0.9811  1.1641
 5693TIP3   OH238569   2.556   2.129  11.083 -0.2721  0.3060 -0.3498
 5693TIP3    H138570   2.530   2.074  11.157 -0.7093  1.3264  0.2711
 5693TIP3    H238571   2.474   2.151  11.039 -0.0785  0.2974 -0.7269
 5694TIP3   OH238572   1.330   0.891  16.911  0.5017  0.2742  0.2258
 5694TIP3    H138573   1.248   0.904  16.958  0.5389 -0.2045  0.4228
 5694TIP3    H238574   1.318   0.808  16.865  1.2932 -0.3574  1.1394
 5695TIP3   OH238575   4.173   5.993  13.877 -0.9104 -0.0076 -0.1530
 5695TIP3    H138576   4.156   5.904  13.845 -0.4701  0.3460 -1.4298
 5695TIP3    H238577   4.233   6.030  13.812  1.7626  0.0472  2.1568
 5696TIP3   OH238578   5.877   3.242   2.190  0.1599 -0.0844 -0.1372
 5696TIP3    H138579   5.884   3.188   2.268 -0.4474 -1.2652 -0.8642
 5696TIP3    H238580   5.784   3.237   2.165  0.0526  1.4235 -0.1485
 5697TIP3   OH238581   3.008   4.495  12.284 -0.0211  0.4830 -0.4747
 5697TIP3    H138582   2.980   4.581  12.315 -1.3326 -0.6385  1.7189
 5697TIP3    H238583   2.939   4.467  12.224 -0.9196  0.0042  0.7204
 5698TIP3   OH238584   1.511   3.507   0.937 -0.2981  0.5059  0.2467
 5698TIP3    H138585   1.586   3.496   0.995 -0.5236  0.6296  0.5637
 5698TIP3    H238586   1.435   3.512   0.996 -0.3460  2.5537  0.0905
 5699TIP3   OH238587   6.742   3.187   1.954  0.0216 -0.5145  0.0836
 5699TIP3    H138588   6.836   3.199   1.943 -0.2093  1.6847  0.0082
 5699TIP3    H238589   6.718   3.249   2.023 -2.1397  3.1383 -3.5480
 5700TIP3   OH238590   3.024   6.257   0.222 -0.1892  0.1037  0.0029
 5700TIP3    H138591   2.949   6.307   0.254 -0.9603  0.4266 -2.1757
 5700TIP3    H238592   2.994   6.166   0.221 -0.0991  0.0696  0.3642
 5701TIP3   OH238593   0.298   4.972   3.317  0.0893  0.5936 -0.0453
 5701TIP3    H138594   0.234   5.014   3.376 -1.2815 -0.2150 -0.9106
 5701TIP3    H238595   0.320   4.890   3.361 -1.2233 -0.1903 -0.7772
 5702TIP3   OH238596   4.664   3.005   1.644 -0.3923  0.0050  0.5964
 5702TIP3    H138597   4.664   3.047   1.558 -1.2427 -0.5579  0.3159
 5702TIP3    H238598   4.691   2.915   1.627 -2.3224 -0.6223  0.6351
 5703TIP3   OH238599   1.126   5.816   4.243 -0.2806  0.1847 -0.0019
 5703TIP3    H138600   1.039   5.796   4.278 -0.0009 -0.4473  0.3511
 5703TIP3    H238601   1.111   5.837   4.151 -1.2066  3.1805  0.7133
 5704TIP3   OH238602   1.952   6.430  16.115  0.8741 -0.5047  0.0277
 5704TIP3    H138603   1.991   6.354  16.071 -0.5525 -0.1560 -1.9538
 5704TIP3    H238604   1.991   6.506  16.072 -0.3892 -0.1469 -0.5089
 5705TIP3   OH238605   5.250   3.066  11.612 -0.5821 -0.1929  0.2063
 5705TIP3    H138606   5.320   3.001  11.624 -0.5108  0.1119  1.6710
 5705TIP3    H238607   5.287   3.131  11.552 -1.0056 -1.9535 -2.1134
 5706TIP3   OH238608   2.087   4.527   0.234  0.3153 -0.2345  0.1052
 5706TIP3    H138609   2.038   4.491   0.308  0.2929 -0.1958  0.1093
 5706TIP3    H238610   2.154   4.461   0.215 -2.0811 -2.1787 -2.3772
 5707TIP3   OH238611   4.203   2.170  15.135  0.1601 -0.2317 -0.1065
 5707TIP3    H138612   4.138   2.194  15.069  1.4037  0.8188 -1.0116
 5707TIP3    H238613   4.161   2.187  15.219 -1.2412 -1.0232 -0.6178
 5708TIP3   OH238614   4.808   3.208   1.064 -0.3244  0.2091 -0.5024
 5708TIP3    H138615   4.823   3.270   1.135  2.0791 -0.4148 -0.3731
 5708TIP3    H238616   4.830   3.257   0.985  2.0543 -0.4976 -0.3672
 5709TIP3   OH238617   6.297   6.626   4.643 -0.5026 -0.1630 -0.3957
 5709TIP3    H138618   6.317   6.664   4.557 -0.9252 -0.3117 -0.5631
 5709TIP3    H238619   6.211   6.586   4.632 -0.1244 -1.0467 -0.1783
 5710TIP3   OH238620   3.403   5.268   5.246  0.7515  0.8706  0.0545
 5710TIP3    H138621   3.464   5.338   5.266  1.1137  1.1846 -1.9767
 5710TIP3    H238622   3.450   5.187   5.269  1.3353  1.1754 -0.0692
 5711TIP3   OH238623   1.135   5.129   4.650  0.2598  0.4505 -0.0165
 5711TIP3    H138624   1.056   5.129   4.703 -0.4497 -0.0205 -1.0238
 5711TIP3    H238625   1.109   5.172   4.568  1.6154  2.1638  0.3902
 5712TIP3   OH238626   2.433   4.159   4.486 -0.1388 -0.1400 -0.0057
 5712TIP3    H138627   2.441   4.194   4.575 -1.8360  1.8143 -0.5442
 5712TIP3    H238628   2.353   4.107   4.488  0.8253 -1.6728  0.0406
 5713TIP3   OH238629   3.605   4.665   3.963 -0.2136  0.1335  0.0678
 5713TIP3    H138630   3.682   4.717   3.984  0.0475 -0.2135 -0.0126
 5713TIP3    H238631   3.577   4.698   3.878  1.1993 -1.2459 -0.9941
 5714TIP3   OH238632   6.392   6.435  13.388 -0.0781 -0.2123 -0.3349
 5714TIP3    H138633   6.400   6.341  13.398 -0.4623 -0.0856  1.4131
 5714TIP3    H238634   6.298   6.450  13.373  0.1696 -0.1943 -2.0961
 5715TIP3   OH238635   6.493   0.848   6.400 -0.2104 -0.0162 -0.3066
 5715TIP3    H138636   6.476   0.757   6.378 -0.1201  0.6487 -3.7056
 5715TIP3    H238637   6.406   0.889   6.402 -0.1032  0.6268 -3.5328
 5716TIP3   OH238638   5.854   4.498  14.574  0.2235  0.5866  0.0633
 5716TIP3    H138639   5.898   4.414  14.563  0.3401  0.8112 -1.3132
 5716TIP3    H238640   5.767   4.476  14.606 -0.0872 -0.1354 -1.2164
 5717TIP3   OH238641   0.240   0.963  13.505 -0.1146 -0.0326 -0.3576
 5717TIP3    H138642   0.290   0.960  13.423  0.4589  0.1659 -0.0173
 5717TIP3    H238643   0.152   0.936  13.480  0.5733 -2.2303 -0.6423
 5718TIP3   OH238644   2.925   0.017  13.921  0.2708  0.1995 -0.0102
 5718TIP3    H138645   3.007  -0.032  13.921  0.6242  0.3141 -4.4751
 5718TIP3    H238646   2.948   0.104  13.890 -1.4186  0.4206 -0.8065
 5719TIP3   OH238647   0.890   3.350  13.742 -0.2797 -0.0301 -0.5483
 5719TIP3    H138648   0.859   3.356  13.652 -0.8746  2.5355 -0.2401
 5719TIP3    H238649   0.822   3.393  13.794  0.6552 -0.3153  0.9690
 5720TIP3   OH238650   4.730   5.396   2.028 -0.6663  0.1220  0.1776
 5720TIP3    H138651   4.788   5.464   1.995  1.0328 -1.5205 -0.3963
 5720TIP3    H238652   4.748   5.392   2.122  2.6096 -2.4016 -0.3734
 5721TIP3   OH238653   1.513   6.799  12.076  0.4333 -0.3631  0.0500
 5721TIP3    H138654   1.425   6.784  12.111  0.4116 -0.7661 -0.1727
 5721TIP3    H238655   1.568   6.735  12.120  0.2547 -1.4526 -1.2563
 5722TIP3   OH238656   5.933   0.979  11.833 -0.3046  0.8229  0.4506
 5722TIP3    H138657   5.938   1.049  11.898  1.3367  1.2720 -0.0976
 5722TIP3    H238658   5.883   1.017  11.761  0.8789  1.6117  0.0021
 5723TIP3   OH238659   6.153   6.445   2.739 -0.1540  0.2888  0.5591
 5723TIP3    H138660   6.104   6.400   2.670  2.6367 -1.4221 -0.4898
 5723TIP3    H238661   6.106   6.425   2.820 -0.9552 -1.5944 -0.3288
 5724TIP3   OH238662   2.814   0.965   0.766 -0.1343  0.8351 -0.7694
 5724TIP3    H138663   2.823   1.055   0.735 -0.4955  1.4329  0.8246
 5724TIP3    H238664   2.819   0.971   0.861  0.1480 -0.8712 -0.6451
 5725TIP3   OH238665   3.677   0.044  14.019  0.1301 -0.8473  0.1860
 5725TIP3    H138666   3.614  -0.028  14.017 -0.8090 -0.0480 -1.4589
 5725TIP3    H238667   3.761   0.004  13.995 -0.0006 -1.6961  1.1187
 5726TIP3   OH238668   4.397   3.475   2.577  0.2558 -0.1133  0.5944
 5726TIP3    H138669   4.440   3.412   2.635 -2.7222 -1.0932  1.9220
 5726TIP3    H238670   4.378   3.550   2.633 -0.9763 -0.2754  0.4046
 5727TIP3   OH238671   4.860   4.747  16.671 -0.2667  0.2305 -0.3786
 5727TIP3    H138672   4.861   4.652  16.681 -0.2805  0.0197 -2.0729
 5727TIP3    H238673   4.774   4.774  16.703 -1.3941 -0.6944 -2.4380
 5728TIP3   OH238674   0.036   0.854  14.871 -0.4496  0.2473  0.5278
 5728TIP3    H138675   0.115   0.799  14.880 -1.9851 -1.7677  4.0014
 5728TIP3    H238676   0.070   0.940  14.846  2.5471 -1.1341 -0.7499
 5729TIP3   OH238677   5.886   0.529   2.461  0.7200  0.0657 -0.2301
 5729TIP3    H138678   5.844   0.597   2.409  1.1355  1.0443  0.6956
 5729TIP3    H238679   5.829   0.452   2.449 -0.9819  1.1567  0.4544
 5730TIP3   OH238680   0.119   3.300   6.787 -0.0976 -0.3773 -0.0222
 5730TIP3    H138681   0.091   3.353   6.712  0.4929  1.2042  0.8353
 5730TIP3    H238682   0.193   3.250   6.753 -0.2579 -0.1795 -0.6866
 5731TIP3   OH238683   3.598   6.772  12.078  0.1376  0.4309 -0.2228
 5731TIP3    H138684   3.594   6.853  12.028 -0.5358  0.0549 -0.7930
 5731TIP3    H238685   3.514   6.730  12.062  0.4694 -0.3665  0.0954
 5732TIP3   OH238686   5.909   0.604  16.867  0.5475 -0.6799  0.1809
 5732TIP3    H138687   5.843   0.550  16.909 -1.0169  0.0761 -1.2113
 5732TIP3    H238688   5.861   0.658  16.805  2.5059 -0.3192 -1.1336
 5733TIP3   OH238689   1.887   3.623   4.074  0.1364  0.3395 -0.3719
 5733TIP3    H138690   1.975   3.633   4.108  0.1897  0.3607 -0.5139
 5733TIP3    H238691   1.879   3.690   4.006  1.0140 -1.4399 -2.3758
 5734TIP3   OH238692   5.184   6.746   3.849  0.1539  0.5902 -0.0563
 5734TIP3    H138693   5.149   6.718   3.933  1.0147 -0.6294 -0.0814
 5734TIP3    H238694   5.220   6.666   3.810 -0.2872  1.1135 -1.6167
 5735TIP3   OH238695   4.318   2.466   3.725 -0.5923 -0.2608  0.1375
 5735TIP3    H138696   4.299   2.544   3.778  1.0493 -0.5887  1.2603
 5735TIP3    H238697   4.246   2.406   3.746 -0.3563 -0.1151  1.4868
 5736TIP3   OH238698   2.418   4.634  17.171  0.7245 -0.8471  0.4285
 5736TIP3    H138699   2.354   4.690  17.127  1.5084 -1.9952 -2.3787
 5736TIP3    H238700   2.503   4.671  17.145  1.2629 -0.7517  2.1836
 5737TIP3   OH238701   3.942   1.526   2.119 -0.0477 -0.3066 -0.8963
 5737TIP3    H138702   3.927   1.615   2.090 -0.4587  0.5615  1.6691
 5737TIP3    H238703   3.998   1.535   2.197 -0.0313 -2.2738 -0.6147
 5738TIP3   OH238704   5.938   5.249   2.704 -0.6156  0.4089 -0.0684
 5738TIP3    H138705   6.002   5.217   2.767  2.8833  1.1968 -2.8869
 5738TIP3    H238706   5.911   5.171   2.656 -1.1821  0.1843  0.5990
 5739TIP3   OH238707   1.679   5.201   0.992  1.0528  0.9158 -0.2513
 5739TIP3    H138708   1.638   5.141   0.930  0.3131  0.4425  0.6657
 5739TIP3    H238709   1.673   5.287   0.951  1.3607  0.4951 -1.2078
 5740TIP3   OH238710   4.957   5.081  14.863 -0.6416 -0.4494  0.0914
 5740TIP3    H138711   5.008   5.038  14.931  0.1116  0.3297  0.0379
 5740TIP3    H238712   4.911   5.151  14.909 -0.0307  0.1601 -0.2084
 5741TIP3   OH238713   0.022   4.826   4.520 -0.1638  0.2460 -0.1289
 5741TIP3    H138714   0.002   4.829   4.614  1.4975 -0.5920  0.2845
 5741TIP3    H238715  -0.013   4.908   4.485  0.1371  1.0622  1.4246
 5742TIP3   OH238716   6.017   1.405   0.865 -0.1009 -0.0999  0.0125
 5742TIP3    H138717   6.012   1.347   0.790 -0.8881  0.7299 -0.6010
 5742TIP3    H238718   6.070   1.479   0.835 -1.3711  0.7825 -0.1347
 5743TIP3   OH238719   1.806   1.376  16.661 -0.5341 -0.2297 -0.4932
 5743TIP3    H138720   1.896   1.383  16.630 -0.9082  0.6560 -1.4078
 5743TIP3    H238721   1.815   1.364  16.756  0.5621 -1.1157 -0.6716
 5744TIP3   OH238722   5.490   5.928   1.113  0.0076  0.3272 -0.1156
 5744TIP3    H138723   5.575   5.965   1.137 -0.0482 -0.5127  1.5006
 5744TIP3    H238724   5.497   5.835   1.134 -0.5962 -0.1976 -2.0585
 5745TIP3   OH238725   4.854   6.805   3.858  0.2808  0.1435  0.0440
 5745TIP3    H138726   4.784   6.868   3.839  0.0943 -0.4566 -1.3710
 5745TIP3    H238727   4.908   6.849   3.923 -1.5248  0.5387  1.3715
 5746TIP3   OH238728   0.420   0.950   1.302  0.6504 -0.0674 -0.2930
 5746TIP3    H138729   0.483   0.883   1.275  0.3535 -0.8512  0.9232
 5746TIP3    H238730   0.441   0.968   1.393 -1.7559 -1.3904  0.6088
 5747TIP3   OH238731   0.198   6.296  16.214 -0.2615  0.4397 -0.5239
 5747TIP3    H138732   0.281   6.343  16.204 -0.0234  0.6773  1.8900
 5747TIP3    H238733   0.156   6.337  16.289 -1.6265 -1.0119 -0.4294
 5748TIP3   OH238734   6.746   2.240  11.908 -0.0451 -0.1478 -0.5425
 5748TIP3    H138735   6.828   2.235  11.860  1.2977  0.9794  1.4748
 5748TIP3    H238736   6.723   2.149  11.927  1.4569 -0.4484 -0.0508
 5749TIP3   OH238737   5.012   4.949  13.046 -0.1266 -0.1637 -0.6302
 5749TIP3    H138738   4.931   4.918  13.005 -0.7108 -0.9456  1.0077
 5749TIP3    H238739   5.077   4.881  13.027  0.2116  0.5148 -2.0369
 5750TIP3   OH238740   3.649   0.018   1.393  0.0091  0.3141  0.6149
 5750TIP3    H138741   3.664  -0.020   1.480  2.2305  0.0093  0.1710
 5750TIP3    H238742   3.729  -0.002   1.345 -1.3651  0.0195 -1.6874
 5751TIP3   OH238743   1.766   1.049   6.551  0.5517 -0.0532  0.6257
 5751TIP3    H138744   1.711   1.128   6.550 -0.0485 -0.4680 -0.1786
 5751TIP3    H238745   1.855   1.083   6.536  0.1432  0.3943 -1.1409
 5752TIP3   OH238746   6.105   5.228  15.653 -0.3017 -0.7987 -0.2161
 5752TIP3    H138747   6.059   5.216  15.736  1.3579  0.0668  0.8836
 5752TIP3    H238748   6.131   5.139  15.626  1.3961 -0.9019  1.5754
 5753TIP3   OH238749   5.264   0.257   3.389 -0.1087 -0.1395 -0.8668
 5753TIP3    H138750   5.273   0.197   3.463 -3.6210  1.5925  1.2369
 5753TIP3    H238751   5.325   0.328   3.409 -0.3929 -0.1048 -0.0587
 5754TIP3   OH238752   0.692   3.372   5.691  0.1647  0.0479  0.3783
 5754TIP3    H138753   0.733   3.342   5.610 -2.5595 -2.8585 -0.1538
 5754TIP3    H238754   0.615   3.421   5.663  0.5187  1.1355  1.2507
 5755TIP3   OH238755   1.655   5.838  11.945  0.3678 -0.0396 -0.0255
 5755TIP3    H138756   1.716   5.878  12.006 -0.8395  2.0911 -0.1444
 5755TIP3    H238757   1.598   5.784  12.000  1.9790 -1.6947  0.1349
 5756TIP3   OH238758   2.023   0.174   3.689 -0.0102 -1.0370 -0.3149
 5756TIP3    H138759   2.012   0.263   3.656  1.5206 -0.2190  1.2008
 5756TIP3    H238760   2.059   0.125   3.615 -0.4982 -0.2955 -1.0536
 5757TIP3   OH238761   2.795   0.128   1.471 -0.6311 -0.0948 -0.0821
 5757TIP3    H138762   2.700   0.118   1.459 -0.7567 -0.7642  1.2708
 5757TIP3    H238763   2.834   0.063   1.413 -0.8406  1.9009 -2.6464
 5758TIP3   OH238764   1.892   2.341  16.844 -0.3695 -0.0288 -0.5784
 5758TIP3    H138765   1.851   2.255  16.841  1.1261 -0.7419 -2.7193
 5758TIP3    H238766   1.902   2.367  16.753  1.5282  1.2391 -0.0795
 5759TIP3   OH238767   2.281   4.919   0.056  0.2831  0.4592  0.0797
 5759TIP3    H138768   2.250   4.920  -0.035 -0.2802  3.9022  0.1562
 5759TIP3    H238769   2.208   4.882   0.106  0.6657 -1.6329 -0.8312
 5760TIP3   OH238770   0.665   5.997   3.158 -0.0734 -0.2012  0.2929
 5760TIP3    H138771   0.713   6.067   3.202 -0.8522  2.0884 -2.2289
 5760TIP3    H238772   0.728   5.961   3.095 -0.4214 -0.0958 -0.1130
 5761TIP3   OH238773   4.835   2.974  13.752  0.1224  0.2839  0.4180
 5761TIP3    H138774   4.770   2.971  13.823 -0.6813  0.7315 -0.2867
 5761TIP3    H238775   4.876   3.060  13.761  0.0993  0.2961  0.4065
 5762TIP3   OH238776   1.560   5.525   5.253  0.0001  0.3730 -0.2921
 5762TIP3    H138777   1.594   5.473   5.180  0.4802  0.5618 -0.2062
 5762TIP3    H238778   1.621   5.508   5.325 -0.9459 -0.4797  0.3307
 5763TIP3   OH238779   0.199   6.220  15.923 -0.3525  0.4029  0.4711
 5763TIP3    H138780   0.173   6.309  15.899 -0.0020  0.7017  1.1698
 5763TIP3    H238781   0.263   6.232  15.993 -0.2504 -0.4002  0.5236
 5764TIP3   OH238782   0.092   0.292  16.357 -0.1376  0.0556  0.1020
 5764TIP3    H138783   0.150   0.367  16.346 -1.2413  0.8091 -0.8436
 5764TIP3    H238784   0.084   0.255  16.269 -0.3207 -0.6177  0.3987
 5765TIP3   OH238785   2.492   0.436   0.619  0.1794  0.1822 -0.2073
 5765TIP3    H138786   2.405   0.462   0.589  0.0928 -0.4068 -0.4885
 5765TIP3    H238787   2.553   0.478   0.558  0.1667  1.6105  0.7220
 5766TIP3   OH238788   1.149   3.945   2.675 -0.1716 -0.1190  0.0337
 5766TIP3    H138789   1.167   3.999   2.752  0.1710  1.9130 -1.3742
 5766TIP3    H238790   1.055   3.957   2.658 -0.6968 -2.1307  1.1942
 5767TIP3   OH238791   6.402   6.695   3.270 -0.0532 -0.3366 -0.4113
 5767TIP3    H138792   6.355   6.704   3.187  0.9899  0.9597 -0.8934
 5767TIP3    H238793   6.350   6.747   3.332  0.5545  0.8949 -0.8898
 5768TIP3   OH238794   3.041   4.736  12.065  0.6311  0.6169  0.3395
 5768TIP3    H138795   2.978   4.797  12.102 -0.2394 -1.2763  2.2047
 5768TIP3    H238796   2.998   4.651  12.070  2.6515 -0.4930 -0.0156
 5769TIP3   OH238797   5.807   3.575  12.331  0.4459  0.0648  0.5615
 5769TIP3    H138798   5.748   3.599  12.402  1.6935 -1.4241  2.1777
 5769TIP3    H238799   5.763   3.502  12.287  0.3206  0.0569  0.7013
 5770TIP3   OH238800   4.278   1.678  13.700  0.0717  0.0447 -0.2552
 5770TIP3    H138801   4.257   1.602  13.646 -0.1889  0.9576 -1.4751
 5770TIP3    H238802   4.200   1.692  13.753  0.6767 -1.4298  1.1004
 5771TIP3   OH238803   6.517   2.629   5.621 -0.0470 -0.1272 -0.0401
 5771TIP3    H138804   6.441   2.660   5.669  0.4008 -1.1444  1.3885
 5771TIP3    H238805   6.503   2.659   5.531 -1.4297  0.8983  0.4925
 5772TIP3   OH238806   6.683   0.464   4.446  0.0356  0.9928  0.0872
 5772TIP3    H138807   6.750   0.489   4.382  2.0949 -1.2802  1.2093
 5772TIP3    H238808   6.687   0.369   4.449 -1.9038  0.9078  1.6644
 5773TIP3   OH238809   0.772   5.341   3.222  0.3700  0.0608  0.7759
 5773TIP3    H138810   0.750   5.250   3.241 -0.3168 -0.4513 -2.0848
 5773TIP3    H238811   0.857   5.336   3.178  0.4963  0.8409  0.9209
 5774TIP3   OH238812   3.444   0.734  17.138 -0.1843 -0.5520 -0.1788
 5774TIP3    H138813   3.494   0.696  17.210 -0.0425 -0.8333 -0.4257
 5774TIP3    H238814   3.389   0.801  17.180 -0.1719 -0.7789  0.2029
 5775TIP3   OH238815   3.166   5.254  13.129  0.1043 -0.2939 -0.0044
 5775TIP3    H138816   3.153   5.326  13.067 -0.0546  0.4239  0.8278
 5775TIP3    H238817   3.086   5.202  13.122  0.8265 -1.2373 -1.6572
 5776TIP3   OH238818   1.656   4.762   4.912  0.2036  0.1183 -0.0432
 5776TIP3    H138819   1.613   4.770   4.997  0.5713  3.1929 -0.0261
 5776TIP3    H238820   1.748   4.744   4.932  0.1389  0.0285  0.1694
 5777TIP3   OH238821   4.216   0.432   5.421 -0.2214  0.3097  0.6676
 5777TIP3    H138822   4.248   0.470   5.340  0.9397 -0.6105  0.6725
 5777TIP3    H238823   4.208   0.506   5.481  1.0258  0.6948  0.3765
 5778TIP3   OH238824   4.069   2.424  10.969 -0.1843 -0.3563 -0.1760
 5778TIP3    H138825   3.997   2.480  10.999 -1.1974 -2.5291  1.8074
 5778TIP3    H238826   4.026   2.354  10.920  0.6674 -1.1666  0.2012
 5779TIP3   OH238827   6.126   5.914   6.640 -0.1154  0.0633  0.2461
 5779TIP3    H138828   6.190   5.985   6.633 -0.5726  0.4218 -0.4138
 5779TIP3    H238829   6.056   5.951   6.695  0.0463 -0.1856  0.6249
 5780TIP3   OH238830   2.837   6.005  16.191  0.0065  0.4385 -0.0625
 5780TIP3    H138831   2.881   5.988  16.108  1.5302  1.5205  0.4789
 5780TIP3    H238832   2.750   6.037  16.166 -0.6828 -2.0363 -1.1504
 5781TIP3   OH238833   5.445   6.628   3.106 -0.3668  0.1081  0.6987
 5781TIP3    H138834   5.430   6.576   3.026 -0.2768 -0.2391  0.9042
 5781TIP3    H238835   5.502   6.700   3.077  1.0678 -0.9442  0.7742
 5782TIP3   OH238836   4.286   5.417  14.591  0.3959 -0.3608  0.5353
 5782TIP3    H138837   4.352   5.440  14.657  1.6597  1.6019 -1.2762
 5782TIP3    H238838   4.330   5.352  14.536 -0.6563 -1.9950  1.5455
 5783TIP3   OH238839   0.354   4.867  11.857 -0.2176  0.0299 -0.2483
 5783TIP3    H138840   0.298   4.845  11.782 -0.1102  0.8684 -0.5897
 5783TIP3    H238841   0.390   4.783  11.886  0.2181 -0.2421 -1.5124
 5784TIP3   OH238842   5.834   1.508  16.040  0.5153 -0.3407 -0.1984
 5784TIP3    H138843   5.811   1.525  16.132  0.0542 -0.0796 -0.3550
 5784TIP3    H238844   5.917   1.461  16.044  0.0864 -1.0728  0.3910
 5785TIP3   OH238845   1.004   5.571   2.463 -0.2509 -0.2001 -0.0073
 5785TIP3    H138846   1.002   5.647   2.521 -0.7675 -0.3125  0.1331
 5785TIP3    H238847   1.022   5.606   2.376  2.9106 -0.2388  0.5215
 5786TIP3   OH238848   2.031   4.876  15.183 -0.0533 -0.2508  0.3174
 5786TIP3    H138849   2.082   4.880  15.102 -0.2719 -1.2335  0.1179
 5786TIP3    H238850   2.053   4.792  15.221  0.0802  0.2191  1.3208
 5787TIP3   OH238851   0.744   2.278   2.576  0.1281 -0.4569 -0.1093
 5787TIP3    H138852   0.785   2.249   2.658  0.1177  2.7821  1.1746
 5787TIP3    H238853   0.654   2.247   2.582  0.0627 -0.0682  1.2504
 5788TIP3   OH238854   2.222   3.874  15.002  0.1704 -0.2825  1.0059
 5788TIP3    H138855   2.244   3.818  15.077 -1.1156 -1.7660  0.3178
 5788TIP3    H238856   2.127   3.868  14.994  0.1096  1.2124  0.2704
 5789TIP3   OH238857   0.066   0.530   0.314  0.6405 -0.1106  0.6429
 5789TIP3    H138858   0.016   0.592   0.262  0.7192 -0.1410  0.5285
 5789TIP3    H238859   0.089   0.577   0.394  0.6216 -0.0234  0.5968
 5790TIP3   OH238860   5.259   1.473   0.484  0.3794  0.3624 -0.1178
 5790TIP3    H138861   5.310   1.427   0.551  0.6239  1.0902  0.2040
 5790TIP3    H238862   5.170   1.477   0.518  0.4101  0.3382 -0.0361
 5791TIP3   OH238863   4.357   3.045  10.956  0.1561 -0.1204 -0.0516
 5791TIP3    H138864   4.393   2.956  10.961 -0.5623 -0.4319 -0.2626
 5791TIP3    H238865   4.277   3.041  11.008 -0.7755 -0.0676 -1.4091
 5792TIP3   OH238866   5.629   1.908   5.598  0.9272 -0.0156  0.3995
 5792TIP3    H138867   5.657   1.853   5.525  1.3550  1.1729 -0.3678
 5792TIP3    H238868   5.687   1.884   5.670  0.5362 -1.1675  0.3460
 5793TIP3   OH238869   5.272   5.627  12.546  0.5395 -0.2531  0.3245
 5793TIP3    H138870   5.219   5.670  12.613  0.8939  0.2130  0.3081
 5793TIP3    H238871   5.210   5.606  12.476 -0.0712 -1.8376  1.2926
 5794TIP3   OH238872   0.931   2.446   2.776 -0.2771  0.5240  0.0453
 5794TIP3    H138873   0.939   2.351   2.769 -0.1706  0.5965 -0.9983
 5794TIP3    H238874   0.888   2.461   2.860  1.4205 -0.3493  1.1077
 5795TIP3   OH238875   5.815   2.836   1.815 -0.0541 -0.1484 -0.4959
 5795TIP3    H138876   5.736   2.789   1.843 -0.5266 -1.1318 -3.1836
 5795TIP3    H238877   5.801   2.926   1.843 -0.8032 -0.8310  1.5535
 5796TIP3   OH238878   4.617   0.658   4.531  0.4512  0.5034 -0.9375
 5796TIP3    H138879   4.605   0.641   4.437  1.7408 -0.5004 -0.9326
 5796TIP3    H238880   4.689   0.721   4.534  1.3486 -0.5084 -0.5867
 5797TIP3   OH238881   4.181   4.658  11.800 -0.4636  0.2937 -0.0312
 5797TIP3    H138882   4.272   4.668  11.830 -0.1879 -0.7353 -0.4678
 5797TIP3    H238883   4.175   4.717  11.724 -0.3195  0.7574  0.3119
 5798TIP3   OH238884   1.651   1.881  14.710  0.5795  0.4572 -0.1585
 5798TIP3    H138885   1.640   1.830  14.790 -0.3704  1.0614  0.1127
 5798TIP3    H238886   1.714   1.950  14.734  0.6641  0.3497 -0.0722
 5799TIP3   OH238887   1.553   0.742  14.575  0.3796  0.2588  0.0308
 5799TIP3    H138888   1.622   0.762  14.512 -0.8116  0.7852 -1.1574
 5799TIP3    H238889   1.479   0.797  14.548 -0.4471 -0.1401  1.3820
 5800TIP3   OH238890   4.336   0.690  14.215 -0.3068  0.0788 -0.1457
 5800TIP3    H138891   4.390   0.638  14.275 -0.8876  0.1575  0.4528
 5800TIP3    H238892   4.382   0.773  14.206  1.0596 -0.7761 -1.7389
 5801TIP3   OH238893   5.716   2.399   2.403 -0.0790 -0.7491  0.4132
 5801TIP3    H138894   5.780   2.332   2.427  0.0968 -0.5099  0.6242
 5801TIP3    H238895   5.723   2.407   2.308  1.4845  0.5435  0.6075
 5802TIP3   OH238896   0.267   2.926  11.112  0.3782  0.1907  0.2608
 5802TIP3    H138897   0.273   2.849  11.168  0.3249  0.3531  0.4935
 5802TIP3    H238898   0.240   2.997  11.172 -1.0583  0.0775 -0.2070
 5803TIP3   OH238899   4.409   5.132  13.755 -0.0447 -0.6761 -0.6274
 5803TIP3    H138900   4.383   5.056  13.702  0.6360 -0.8622 -0.7071
 5803TIP3    H238901   4.344   5.135  13.825  1.2612 -2.8303  0.8046
 5804TIP3   OH238902   2.376   6.687  13.126 -1.1786  0.0969 -0.0824
 5804TIP3    H138903   2.297   6.664  13.078 -1.7148  0.7218  0.4663
 5804TIP3    H238904   2.420   6.751  13.071 -1.3541  0.1778 -0.1300
 5805TIP3   OH238905   4.614   2.049  15.375  0.5482 -0.0461 -0.5409
 5805TIP3    H138906   4.605   2.127  15.430 -1.4398 -0.0189 -0.8422
 5805TIP3    H238907   4.677   1.995  15.421  2.6716  2.0766 -0.7658
 5806TIP3   OH238908   2.909   5.330   0.271  0.0961 -0.1850  0.4218
 5806TIP3    H138909   2.994   5.337   0.314  0.0856 -0.1786  0.4416
 5806TIP3    H238910   2.849   5.299   0.339 -0.0442  0.3911  0.5710
 5807TIP3   OH238911   4.630   3.647   0.972 -0.7227 -0.2495  0.0620
 5807TIP3    H138912   4.616   3.630   1.065 -0.3160 -1.2879 -0.0488
 5807TIP3    H238913   4.615   3.741   0.962 -0.1473 -0.0046  1.2889
 5808TIP3   OH238914   2.058   5.823   6.547 -0.3733 -0.0776  0.0636
 5808TIP3    H138915   2.048   5.828   6.642  0.3159 -0.5068  0.1581
 5808TIP3    H238916   2.135   5.769   6.533  1.3915  2.4606 -0.6806
 5809TIP3   OH238917   6.356   6.496   4.193  0.3903  0.7160  0.2539
 5809TIP3    H138918   6.336   6.463   4.280  1.4146 -0.6095  0.0186
 5809TIP3    H238919   6.348   6.420   4.136  2.7516  0.8213 -0.3276
 5810TIP3   OH238920   3.383   6.071  12.490 -0.1145 -0.2159  0.3852
 5810TIP3    H138921   3.381   6.156  12.447 -0.5638  0.6423  2.0259
 5810TIP3    H238922   3.294   6.037  12.481  0.0348 -0.4680 -0.1677
 5811TIP3   OH238923   0.547   5.999  13.502 -0.4352 -0.2596  0.1099
 5811TIP3    H138924   0.597   5.953  13.570 -0.4319  0.0186  0.3019
 5811TIP3    H238925   0.465   6.024  13.546 -1.1464 -1.5129 -0.4658
 5812TIP3   OH238926   3.090   4.141  12.665 -0.4180  0.2989  0.1088
 5812TIP3    H138927   3.113   4.171  12.576  0.2639 -0.8457 -0.1209
 5812TIP3    H238928   3.148   4.191  12.722 -0.9055  1.0928 -0.0683
 5813TIP3   OH238929   5.682   2.119   1.405 -0.7286 -0.5059  0.2651
 5813TIP3    H138930   5.696   2.102   1.312  1.8491  0.0124  0.4953
 5813TIP3    H238931   5.724   2.046   1.450 -0.8854 -0.1213  1.0652
 5814TIP3   OH238932   4.073   5.104   4.349 -0.2366 -0.0074  0.5480
 5814TIP3    H138933   4.154   5.142   4.384 -0.6700  0.6469  0.8491
 5814TIP3    H238934   4.030   5.176   4.303 -0.1350 -0.6256 -0.5509
 5815TIP3   OH238935   3.469   6.414   5.400  0.1791  0.2915 -0.2440
 5815TIP3    H138936   3.474   6.501   5.361  0.7438 -0.3910 -1.7628
 5815TIP3    H238937   3.554   6.403   5.444  0.5019  0.1578 -0.8777
 5816TIP3   OH238938   1.329   3.575  17.027 -0.0926  0.3364  0.1323
 5816TIP3    H138939   1.369   3.492  17.052  0.5510 -0.2388 -2.4856
 5816TIP3    H238940   1.386   3.642  17.064  2.0641 -0.4678 -1.5349
 5817TIP3   OH238941   5.697   1.387  13.110  0.2812 -0.1865 -0.7711
 5817TIP3    H138942   5.704   1.478  13.081 -0.6307  0.2273  0.2541
 5817TIP3    H238943   5.783   1.349  13.092  1.2544  1.3595  0.3950
 5818TIP3   OH238944   5.764   3.706  15.086  0.0931  0.0518 -0.4658
 5818TIP3    H138945   5.798   3.709  14.997 -0.3443  1.1227 -0.6096
 5818TIP3    H238946   5.689   3.766  15.086  0.2089  0.2288  0.6766
 5819TIP3   OH238947   1.142   2.555   4.913 -0.1248  0.3557  0.7376
 5819TIP3    H138948   1.233   2.582   4.906  0.3537 -1.0497  1.2323
 5819TIP3    H238949   1.142   2.485   4.979 -1.1547 -1.3312 -0.9314
 5820TIP3   OH238950   4.911   3.983  12.305 -0.2040 -0.0301  0.1050
 5820TIP3    H138951   4.901   4.076  12.285 -0.3457  0.2035  1.1620
 5820TIP3    H238952   5.006   3.971  12.313 -0.2025  0.1305  0.3783
 5821TIP3   OH238953   5.714   0.148  11.060  0.5046  0.4199  0.3758
 5821TIP3    H138954   5.807   0.124  11.067  0.6534  0.6429 -0.7247
 5821TIP3    H238955   5.683   0.102  10.983 -0.5511 -0.3656  1.2352
 5822TIP3   OH238956   0.618   2.050  16.540  0.1767  0.0199 -0.4917
 5822TIP3    H138957   0.588   2.085  16.455  0.9329  0.7307 -0.4794
 5822TIP3    H238958   0.712   2.065  16.540  0.4465 -1.5109 -0.2121
 5823TIP3   OH238959   6.647   0.974  12.389 -0.1793  0.2932 -0.4539
 5823TIP3    H138960   6.571   0.920  12.365 -1.4958  1.6453  0.4487
 5823TIP3    H238961   6.719   0.939  12.338 -1.3278 -1.3124 -1.0468
 5824TIP3   OH238962   0.493   3.220   3.254  0.0814 -0.3966 -0.0437
 5824TIP3    H138963   0.522   3.253   3.169 -1.2677 -1.7910 -1.0962
 5824TIP3    H238964   0.398   3.211   3.245 -0.0154 -1.0874  1.4274
 5825TIP3   OH238965   3.574   2.570  14.086 -0.5933 -0.5937  0.2100
 5825TIP3    H138966   3.525   2.635  14.037 -0.8917 -0.3605  0.7999
 5825TIP3    H238967   3.514   2.542  14.155  0.2092 -0.0436  1.1627
 5826TIP3   OH238968   1.604   1.993  14.985 -0.2130 -0.2533  0.2282
 5826TIP3    H138969   1.614   1.947  15.068  0.8263  0.4636  0.5278
 5826TIP3    H238970   1.666   2.066  14.991 -0.1796 -0.1446 -1.1428
 5827TIP3   OH238971   1.543   2.421  13.083 -0.3117  0.3093  0.0399
 5827TIP3    H138972   1.637   2.408  13.096 -0.6678 -0.6583  1.9319
 5827TIP3    H238973   1.528   2.394  12.992  0.5128 -4.3313  1.0479
 5828TIP3   OH238974   1.007   2.213  12.436 -0.3738  0.1632 -0.0311
 5828TIP3    H138975   0.919   2.225  12.401  0.0335  0.8070 -0.8803
 5828TIP3    H238976   1.042   2.302  12.443  0.0028 -0.0410  0.8555
 5829TIP3   OH238977   1.734   3.422  17.000 -0.3053  0.0491 -0.2105
 5829TIP3    H138978   1.664   3.450  16.940 -1.3483  0.7169  1.2473
 5829TIP3    H238979   1.789   3.499  17.010  1.5878 -0.8856 -2.4984
 5830TIP3   OH238980   1.904   4.645  11.271  0.1068  0.0741 -0.6036
 5830TIP3    H138981   1.897   4.740  11.261  3.4649  0.5503  0.3650
 5830TIP3    H238982   1.907   4.612  11.181  1.6926  1.2497 -1.0306
 5831TIP3   OH238983   2.375   4.357  14.219 -1.0604 -0.2687 -0.4518
 5831TIP3    H138984   2.451   4.346  14.275 -1.7930 -1.4216  0.3623
 5831TIP3    H238985   2.344   4.445  14.237  0.2135  0.3094 -0.9863
 5832TIP3   OH238986   0.025   1.520  15.834 -0.4110  0.0420  0.0806
 5832TIP3    H138987   0.098   1.581  15.827 -1.2165  0.9710 -0.3568
 5832TIP3    H238988   0.037   1.459  15.761 -1.7163  2.0163 -1.8925
 5833TIP3   OH238989   6.599   4.901   0.345  0.1358  0.3462 -0.2868
 5833TIP3    H138990   6.526   4.944   0.301 -0.2461  0.5409  0.5259
 5833TIP3    H238991   6.647   4.973   0.387 -0.7929 -0.0101  1.5127
 5834TIP3   OH238992   6.367   2.747   3.056 -0.1910 -0.4140  0.3959
 5834TIP3    H138993   6.425   2.824   3.051  0.0243 -0.5035  1.2985
 5834TIP3    H238994   6.419   2.682   3.104 -0.1833 -1.3112 -0.7908
 5835TIP3   OH238995   0.807   4.063  15.141  0.3369  0.4883  0.4785
 5835TIP3    H138996   0.716   4.061  15.110 -0.0744 -1.1553  1.6099
 5835TIP3    H238997   0.799   4.063  15.236  1.5274  0.6730  0.5870
 5836TIP3   OH238998   6.172   6.359  11.773  0.1306 -0.2110 -0.3694
 5836TIP3    H138999   6.228   6.431  11.804 -0.3346 -0.2337  0.5577
 5836TIP3    H239000   6.093   6.402  11.742  0.3220 -0.2426 -0.9087
 5837TIP3   OH239001   3.372   3.965   2.827 -0.6970  0.1425  0.0475
 5837TIP3    H139002   3.311   3.950   2.900  0.2443 -1.3414  0.5796
 5837TIP3    H239003   3.456   3.932   2.859 -0.6680 -2.5425 -2.4271
 5838TIP3   OH239004   4.351   6.408  16.310 -0.1761  0.5837  0.7640
 5838TIP3    H139005   4.278   6.347  16.321 -1.8602  2.3497  0.0146
 5838TIP3    H239006   4.374   6.402  16.217 -0.7233  1.4489  0.5620
 5839TIP3   OH239007   1.840   3.048  15.568  0.0367 -0.1130 -0.2858
 5839TIP3    H139008   1.830   2.957  15.596  1.9206 -0.9106 -2.0114
 5839TIP3    H239009   1.889   3.090  15.639  1.0585 -1.0196 -0.4293
 5840TIP3   OH239010   2.667   0.560   0.424 -0.0899  0.3102  0.3948
 5840TIP3    H139011   2.649   0.528   0.336 -0.3290 -0.7595  0.8207
 5840TIP3    H239012   2.629   0.648   0.426  2.1764  1.4464 -1.4006
 5841TIP3   OH239013   5.174   5.832   4.556  0.5072 -0.4794  0.2465
 5841TIP3    H139014   5.256   5.825   4.508  0.1524  0.1975 -0.4956
 5841TIP3    H239015   5.178   5.763   4.622  0.9815 -1.4951 -0.8124
 5842TIP3   OH239016   4.413   0.539  11.490  0.0318  0.1475  0.6699
 5842TIP3    H139017   4.367   0.499  11.564 -0.2543 -0.2065  0.3076
 5842TIP3    H239018   4.345   0.585  11.442 -0.0164 -0.6546 -0.0530
 5843TIP3   OH239019   6.486   1.407  14.021 -0.4087  0.0112  0.1562
 5843TIP3    H139020   6.503   1.451  14.104 -1.5323 -1.9099  1.4920
 5843TIP3    H239021   6.523   1.320  14.031  0.9660  0.2509 -2.0708
 5844TIP3   OH239022   3.885   0.702  13.414  0.4300 -0.5693  0.1433
 5844TIP3    H139023   3.906   0.678  13.505  1.0948 -1.0241 -0.1295
 5844TIP3    H239024   3.964   0.744  13.381 -0.1974  0.6292  0.1205
 5845TIP3   OH239025   1.730   6.444   5.683  0.2315  0.2453 -0.0767
 5845TIP3    H139026   1.702   6.366   5.731 -1.8041  1.5603  1.0310
 5845TIP3    H239027   1.823   6.453   5.704  0.0936 -0.9185  1.1567
 5846TIP3   OH239028   6.156   4.560   1.522  0.1706  0.1702 -0.1439
 5846TIP3    H139029   6.104   4.587   1.597  1.3144  1.9134  0.0595
 5846TIP3    H239030   6.100   4.577   1.446 -0.8700 -1.3180  0.2487
 5847TIP3   OH239031   2.626   1.945   3.214  0.2777 -0.5760  0.7156
 5847TIP3    H139032   2.645   1.963   3.306  2.2778  1.3888  0.0251
 5847TIP3    H239033   2.553   2.004   3.193  0.1077 -0.7069  0.9335
 5848TIP3   OH239034   1.570   6.099   4.738 -0.8124 -0.1155 -0.0205
 5848TIP3    H139035   1.493   6.136   4.782 -0.8333 -2.4820  2.1515
 5848TIP3    H239036   1.534   6.038   4.675 -0.7291  0.1322 -0.3085
 5849TIP3   OH239037   2.615   1.539   1.371  0.1786  0.9107  0.2011
 5849TIP3    H139038   2.693   1.483   1.367 -0.6432 -0.7766  3.6163
 5849TIP3    H239039   2.648   1.623   1.402  0.8666  0.7863 -0.1699
 5850TIP3   OH239040   0.868   2.953   0.256  0.2148 -0.3195 -1.0276
 5850TIP3    H139041   0.845   2.974   0.347 -2.2044  0.1224 -1.6674
 5850TIP3    H239042   0.869   2.858   0.253 -1.6728 -0.3814 -0.9230
 5851TIP3   OH239043   0.915   2.185   1.903 -0.4230 -0.9086  0.1274
 5851TIP3    H139044   0.968   2.110   1.874 -0.1999 -0.2931 -1.1019
 5851TIP3    H239045   0.951   2.260   1.856 -1.4969 -0.2452  0.3267
 5852TIP3   OH239046   4.980   4.116   3.767 -0.7727 -0.4220 -0.0188
 5852TIP3    H139047   4.893   4.144   3.796 -0.4559  0.0016  0.5470
 5852TIP3    H239048   5.035   4.193   3.781  0.3475 -1.5792  2.5121
 5853TIP3   OH239049   2.407   1.017  14.159  0.5578  0.3904 -0.2682
 5853TIP3    H139050   2.380   1.074  14.087 -1.2917 -0.1739 -0.0651
 5853TIP3    H239051   2.423   0.932  14.119  0.3758  0.2942 -0.1379
 5854TIP3   OH239052   6.829   2.566  14.634  0.2994  0.2608  0.3432
 5854TIP3    H139053   6.746   2.519  14.624 -0.8264  2.2282 -0.1509
 5854TIP3    H239054   6.887   2.527  14.569 -0.4978 -0.6139  0.1406
 5855TIP3   OH239055   2.790   4.679   3.324  0.4456  0.2574 -0.0235
 5855TIP3    H139056   2.854   4.738   3.284 -0.3954  1.9445  1.0266
 5855TIP3    H239057   2.842   4.624   3.383  1.2026  0.0730 -0.8413
 5856TIP3   OH239058   0.818   3.751  12.261 -0.3157 -0.3375  0.4690
 5856TIP3    H139059   0.796   3.758  12.354 -0.5197  1.7899  0.3037
 5856TIP3    H239060   0.912   3.733  12.260  0.0586  1.4010  1.1084
 5857TIP3   OH239061   6.531   5.370  11.768 -0.7954  0.3959 -0.0492
 5857TIP3    H139062   6.513   5.301  11.703 -1.0069  1.0869 -0.7430
 5857TIP3    H239063   6.445   5.404  11.790 -1.1197 -1.9780  3.1031
 5858TIP3   OH239064   5.211   1.655   4.359 -0.4028  0.2685 -0.0590
 5858TIP3    H139065   5.301   1.653   4.328 -0.4942  0.1937 -0.3146
 5858TIP3    H239066   5.203   1.578   4.416  0.2410  1.2706  1.4713
 5859TIP3   OH239067   4.490   3.340  13.623 -0.0134 -0.0530  0.0728
 5859TIP3    H139068   4.461   3.373  13.708  0.7494 -0.3265  0.4478
 5859TIP3    H239069   4.572   3.387  13.606  0.2620 -0.5938 -0.1184
 5860TIP3   OH239070   4.338   3.502  13.848 -0.2033 -0.3904  0.3957
 5860TIP3    H139071   4.375   3.590  13.844 -1.6939  0.3216  1.4983
 5860TIP3    H239072   4.261   3.506  13.791  0.1007 -1.1907 -0.0845
 5861TIP3   OH239073   0.771   5.452   1.286  0.1330 -0.0171  0.3194
 5861TIP3    H139074   0.798   5.456   1.377  0.9084  0.5001  0.0785
 5861TIP3    H239075   0.783   5.361   1.261  2.3081  0.2748  0.0551
 5862TIP3   OH239076   5.983   0.000  11.013  0.2090  0.0195  0.2326
 5862TIP3    H139077   5.992  -0.007  10.918  2.3460 -0.7891  0.4410
 5862TIP3    H239078   5.926  -0.074  11.037  2.0512 -1.5958 -0.1663
 5863TIP3   OH239079   2.023   2.745  10.765  0.0018  0.7069  0.0009
 5863TIP3    H139080   2.004   2.837  10.749  0.2282  0.7741  0.1157
 5863TIP3    H239081   2.100   2.727  10.712  1.1871  1.1123  1.5088
 5864TIP3   OH239082   3.360   6.182  14.991  0.3033  0.4378 -0.0961
 5864TIP3    H139083   3.369   6.095  14.953 -1.3943  0.4316 -0.5751
 5864TIP3    H239084   3.429   6.233  14.950 -0.7575  0.1445 -2.4131
 5865TIP3   OH239085   0.701   4.200  14.336  0.4208 -0.1586 -0.5762
 5865TIP3    H139086   0.748   4.209  14.419 -0.0440 -0.4419 -0.2787
 5865TIP3    H239087   0.662   4.113  14.340  1.0409 -0.4870 -1.4288
 5866TIP3   OH239088   4.111   0.937  11.800  0.1887  0.3411  0.0624
 5866TIP3    H139089   4.083   1.004  11.863 -0.2613  0.8221 -0.6384
 5866TIP3    H239090   4.069   0.857  11.831 -1.2155  0.8622 -0.4213
 5867TIP3   OH239091   2.844   2.115   4.787 -0.5087 -0.2766 -0.3574
 5867TIP3    H139092   2.912   2.062   4.745  0.4949  0.9468 -0.3616
 5867TIP3    H239093   2.886   2.201   4.800 -2.5400  1.0270 -1.8029
 5868TIP3   OH239094   5.587   4.938   0.474  0.1753 -0.0851 -0.2713
 5868TIP3    H139095   5.616   4.984   0.552  0.6709 -1.1026  0.1724
 5868TIP3    H239096   5.493   4.924   0.487  0.3501 -0.6990  0.4031
 5869TIP3   OH239097   2.258   0.846   1.825  0.0351 -0.5248  0.1793
 5869TIP3    H139098   2.270   0.774   1.762  0.3571 -0.6153  0.3430
 5869TIP3    H239099   2.341   0.892   1.825 -1.3150  2.2634 -2.8622
 5870TIP3   OH239100   2.298   4.052  13.250  0.0864 -0.2094 -0.8906
 5870TIP3    H139101   2.224   4.113  13.248 -0.5238 -0.9142 -0.2350
 5870TIP3    H239102   2.346   4.077  13.329 -0.4795 -0.9317 -0.3098
 5871TIP3   OH239103   6.691   4.405   1.164  0.4638 -0.3558  0.1569
 5871TIP3    H139104   6.714   4.496   1.182 -0.3415 -0.0884 -0.1100
 5871TIP3    H239105   6.700   4.397   1.069 -0.6227 -0.2066  0.0265
 5872TIP3   OH239106   5.042   4.374   3.876 -0.1239  0.0822 -0.1889
 5872TIP3    H139107   5.121   4.406   3.921 -0.1224 -0.6931  0.3678
 5872TIP3    H239108   4.974   4.436   3.901  0.0700  0.1458  0.1877
 5873TIP3   OH239109   4.516   4.046  16.365  0.1996  0.0299  0.0669
 5873TIP3    H139110   4.544   3.959  16.394  1.6009  0.1836 -0.6958
 5873TIP3    H239111   4.451   4.029  16.297  1.0068 -0.4519 -0.5973
 5874TIP3   OH239112   4.914   2.601   4.424 -0.2651  0.5738  0.2137
 5874TIP3    H139113   4.892   2.691   4.448  1.9425  1.5667 -1.1286
 5874TIP3    H239114   4.992   2.581   4.475 -1.7177 -1.3374  1.8642
 5875TIP3   OH239115   1.576   2.841   4.233 -0.3814 -0.2805 -0.0257
 5875TIP3    H139116   1.537   2.816   4.149  2.0710 -1.0607 -1.0518
 5875TIP3    H239117   1.601   2.932   4.222  0.9613 -0.6884 -0.6459
 5876TIP3   OH239118   4.352   6.624  11.073 -0.3915  0.6586 -0.6948
 5876TIP3    H139119   4.344   6.604  10.980 -0.0439 -0.5234 -0.4777
 5876TIP3    H239120   4.417   6.562  11.106 -2.4512 -0.8138  0.9001
 5877TIP3   OH239121   2.897   3.563  11.913 -0.2674  0.1026 -0.3536
 5877TIP3    H139122   2.904   3.468  11.921  0.5808  0.2707  1.4772
 5877TIP3    H239123   2.980   3.590  11.873  1.0047  0.2922  2.1880
 5878TIP3   OH239124   3.968   1.158  11.554 -0.4028  0.4884 -0.3222
 5878TIP3    H139125   3.951   1.243  11.514 -0.9832 -0.2270 -1.6626
 5878TIP3    H239126   3.902   1.100  11.516 -0.4194 -0.4436  1.0321
 5879TIP3   OH239127   3.468   1.592  15.485 -0.0175 -0.5337  0.0771
 5879TIP3    H139128   3.466   1.643  15.403  1.7091 -0.7342 -0.1246
 5879TIP3    H239129   3.418   1.513  15.465 -1.0163  0.1515 -0.2392
 5880TIP3   OH239130   2.840   0.251  12.707  0.0215  0.2585  0.3690
 5880TIP3    H139131   2.907   0.191  12.740  0.8305  0.0558 -1.4611
 5880TIP3    H239132   2.878   0.286  12.626 -2.1589 -0.0171 -0.8618
 5881TIP3   OH239133   1.582   1.784   3.742 -0.5008 -0.1399 -0.0071
 5881TIP3    H139134   1.492   1.806   3.768 -0.3558  1.3699 -0.6697
 5881TIP3    H239135   1.595   1.833   3.661  1.2022  0.3104  0.5113
 5882TIP3   OH239136   0.932   6.134  12.714  0.0571 -0.1409 -0.2876
 5882TIP3    H139137   0.893   6.064  12.766 -0.5295  0.6751  0.3852
 5882TIP3    H239138   0.876   6.140  12.637  0.7970 -1.1960 -0.9435
 5883TIP3   OH239139   6.515   2.665   6.447  0.2442 -0.2696  0.3261
 5883TIP3    H139140   6.586   2.629   6.393  1.8728  0.5917  1.7962
 5883TIP3    H239141   6.436   2.623   6.413  1.2291 -0.1097 -2.4104
 5884TIP3   OH239142   6.589   3.205   0.475  0.1887 -0.3920 -0.1513
 5884TIP3    H139143   6.629   3.246   0.400  0.0903 -0.4186 -0.2187
 5884TIP3    H239144   6.662   3.180   0.532  0.3182 -1.1443 -0.6327
 5885TIP3   OH239145   6.300   1.903  15.723  0.2813 -0.0498 -0.0210
 5885TIP3    H139146   6.206   1.899  15.707  0.2212 -1.4164  0.5163
 5885TIP3    H239147   6.337   1.945  15.645 -0.5689 -1.3007 -1.1356
 5886TIP3   OH239148   3.448   3.392   1.542  0.0020  0.1413  0.4005
 5886TIP3    H139149   3.526   3.419   1.494  0.3416 -1.2065  0.1449
 5886TIP3    H239150   3.478   3.387   1.633  0.2110 -0.3247  0.3103
 5887TIP3   OH239151   2.931   3.445   1.628 -0.5995  0.1000  0.0123
 5887TIP3    H139152   3.008   3.499   1.610  1.3421 -1.5690  2.5909
 5887TIP3    H239153   2.949   3.362   1.585  2.3340 -2.5706  5.2973
 5888TIP3   OH239154   1.449   3.313   6.449  0.5987  0.2235 -0.4641
 5888TIP3    H139155   1.376   3.261   6.417  0.1881  0.6238 -0.1868
 5888TIP3    H239156   1.526   3.258   6.435  0.7426  1.1080 -4.0318
 5889TIP3   OH239157   4.849   0.988  16.718 -0.2847  0.4806 -0.0624
 5889TIP3    H139158   4.831   1.048  16.646 -1.8426 -0.0581 -0.1618
 5889TIP3    H239159   4.852   1.045  16.796 -0.1042  0.8845 -0.3619
 5890TIP3   OH239160   1.731   2.808   5.479  0.2509  0.1967  0.4458
 5890TIP3    H139161   1.733   2.875   5.411  2.6732  0.0316  0.2660
 5890TIP3    H239162   1.758   2.728   5.434 -0.6459 -0.4907  1.0857
 5891TIP3   OH239163   5.166   4.129  11.019  0.1014  0.1544  0.3687
 5891TIP3    H139164   5.113   4.053  10.994  0.7221 -0.2831  0.3749
 5891TIP3    H239165   5.144   4.195  10.953 -0.4250 -0.0296  0.3500
 5892TIP3   OH239166   6.366   3.270   2.446 -0.5162 -0.5283 -0.6806
 5892TIP3    H139167   6.434   3.248   2.382 -0.2557  0.9671 -0.9721
 5892TIP3    H239168   6.335   3.356   2.419 -2.1531 -0.9393 -0.2110
 5893TIP3   OH239169   0.356   0.614  12.871  0.2477 -0.5373  0.1563
 5893TIP3    H139170   0.356   0.618  12.966  0.1886 -0.8262  0.1678
 5893TIP3    H239171   0.267   0.590  12.847 -0.2331  1.2484 -0.0462
 5894TIP3   OH239172   5.971   0.135   5.362 -0.2896  0.6954 -0.0722
 5894TIP3    H139173   6.042   0.165   5.305  2.1029  0.0515  2.3139
 5894TIP3    H239174   5.987   0.042   5.373 -2.8378  0.0701 -1.0803
 5895TIP3   OH239175   5.952   1.796   2.515 -0.2113  0.7418 -0.0178
 5895TIP3    H139176   5.997   1.778   2.597  0.8158  2.8947 -0.0213
 5895TIP3    H239177   5.941   1.711   2.473  1.7611 -0.1122  1.0911
 5896TIP3   OH239178   2.635   6.047  14.422  0.1075 -0.4361  0.4802
 5896TIP3    H139179   2.633   6.110  14.494 -0.3598  1.1743 -0.8523
 5896TIP3    H239180   2.720   6.062  14.380 -1.5582  2.4033 -2.3131
 5897TIP3   OH239181   1.160   6.477   4.272  0.3072  0.3053 -0.0620
 5897TIP3    H139182   1.181   6.413   4.204 -2.7786  1.9033 -2.7778
 5897TIP3    H239183   1.072   6.454   4.301 -0.5882  2.7624 -0.6018
 5898TIP3   OH239184   0.499   4.522  14.539  0.0851 -0.3259 -0.3030
 5898TIP3    H139185   0.416   4.532  14.492  0.9718  1.7082 -1.5471
 5898TIP3    H239186   0.566   4.517  14.471  1.1135 -0.6517  0.6913
 5899TIP3   OH239187   1.601   4.732   1.362 -0.1128 -0.1342  0.6500
 5899TIP3    H139188   1.601   4.671   1.436  1.4812  0.1546  0.9157
 5899TIP3    H239189   1.679   4.710   1.312  1.0808  2.2496  1.2810
 5900TIP3   OH239190   5.315   6.742   3.349 -0.2610  0.6419  0.6761
 5900TIP3    H139191   5.357   6.717   3.266 -1.9752 -2.3404  0.5544
 5900TIP3    H239192   5.385   6.735   3.414  0.8814  2.0588 -0.3366
 5901TIP3   OH239193   0.137   5.081  15.621  0.2894 -0.1258  0.1158
 5901TIP3    H139194   0.132   5.057  15.714 -1.5063  0.2700  0.1763
 5901TIP3    H239195   0.080   5.017  15.577 -0.9389  1.2086 -0.3198
 5902TIP3   OH239196   5.214   4.361   2.258  0.1504 -0.3182 -0.6897
 5902TIP3    H139197   5.193   4.429   2.322  0.5307  1.4966 -2.3787
 5902TIP3    H239198   5.135   4.307   2.254 -0.4209  0.4058  0.2566
 5903TIP3   OH239199   2.220   1.814  16.710  0.0108 -0.2738 -0.1957
 5903TIP3    H139200   2.218   1.893  16.657 -0.1227 -0.2236 -0.1172
 5903TIP3    H239201   2.312   1.787  16.711  0.4491  1.0614  1.5326
 5904TIP3   OH239202   2.337   5.929   5.121 -0.1236 -0.2525 -0.0955
 5904TIP3    H139203   2.347   5.922   5.026 -0.3768  1.1045 -0.2443
 5904TIP3    H239204   2.242   5.939   5.134  0.0947  2.6816 -0.0062
 5905TIP3   OH239205   0.196   3.728   2.236 -0.4983  0.4129  0.2078
 5905TIP3    H139206   0.287   3.710   2.261 -1.1145  0.3951  2.6921
 5905TIP3    H239207   0.192   3.823   2.226 -0.3803  0.4976  0.9290
 5906TIP3   OH239208   1.955   1.763   4.201 -0.4332  0.4557  0.4093
 5906TIP3    H139209   1.882   1.776   4.140 -0.6102 -2.0785 -0.0226
 5906TIP3    H239210   2.033   1.776   4.149 -0.5909 -1.2249 -0.3230
 5907TIP3   OH239211   3.493   0.619   5.843 -0.7103 -0.4692  0.3353
 5907TIP3    H139212   3.421   0.558   5.823 -0.5315 -0.8058  0.7021
 5907TIP3    H239213   3.459   0.673   5.914 -1.0871  0.2603 -0.3853
 5908TIP3   OH239214   3.106   0.495  16.879 -0.2396 -0.4283  0.5661
 5908TIP3    H139215   3.109   0.582  16.839 -0.9852 -0.3674  0.6334
 5908TIP3    H239216   3.083   0.436  16.807  1.3346 -0.7334  0.2837
 5909TIP3   OH239217   0.082   0.655  14.201  0.6411 -0.2826 -1.0984
 5909TIP3    H139218   0.132   0.601  14.140  2.1371  0.5493 -0.6659
 5909TIP3    H239219   0.147   0.686  14.264 -0.4659  0.6849 -0.3910
 5910TIP3   OH239220   1.821   6.431   3.111  0.6334 -0.1228  0.4124
 5910TIP3    H139221   1.831   6.526   3.109 -1.2648  0.1643  1.5604
 5910TIP3    H239222   1.900   6.397   3.069  1.4640  1.9425  0.1963
 5911TIP3   OH239223   3.704   5.839  15.459 -0.1186  0.0563 -0.2671
 5911TIP3    H139224   3.744   5.908  15.513 -2.1080  0.4562  0.8161
 5911TIP3    H239225   3.757   5.837  15.380 -0.1449  3.0860 -0.4974
 5912TIP3   OH239226   6.092   5.932   3.124 -0.3618  0.0058 -0.5685
 5912TIP3    H139227   6.032   5.991   3.171  1.0533  0.0049  1.3604
 5912TIP3    H239228   6.110   5.978   3.041 -1.0782  1.1940 -0.0967
 5913TIP3   OH239229   5.145   3.790  15.014  0.1899  0.0782  0.0187
 5913TIP3    H139230   5.234   3.806  14.983  0.5866 -1.6621  0.1763
 5913TIP3    H239231   5.155   3.767  15.106 -0.5860  1.1649  0.4019
 5914TIP3   OH239232   5.531   0.542   1.522  0.2225 -0.2324  0.0543
 5914TIP3    H139233   5.502   0.633   1.529  0.9191  0.0560 -0.5183
 5914TIP3    H239234   5.472   0.503   1.458 -0.5323 -0.3914  0.8376
 5915TIP3   OH239235   4.539   0.706   4.257 -0.1428  0.6074 -0.1423
 5915TIP3    H139236   4.475   0.776   4.248 -0.9923 -0.2291 -0.8212
 5915TIP3    H239237   4.596   0.715   4.180  0.8452  1.5989  0.6670
 5916TIP3   OH239238   2.798   5.289   4.203 -0.0822 -0.0461 -0.5055
 5916TIP3    H139239   2.723   5.327   4.250  1.2078  1.3207  0.5550
 5916TIP3    H239240   2.771   5.200   4.184 -2.5232  0.7831 -1.4035
 5917TIP3   OH239241   0.066   2.473   2.141  0.3778  0.5765 -0.0424
 5917TIP3    H139242   0.010   2.442   2.212 -0.3255  0.3016 -0.7004
 5917TIP3    H239243   0.061   2.404   2.075 -1.7867  2.3043 -1.8484
 5918TIP3   OH239244   2.701   6.335  16.412 -0.1757  0.4352 -0.2987
 5918TIP3    H139245   2.642   6.296  16.476 -0.6021  0.6912 -0.5291
 5918TIP3    H239246   2.765   6.383  16.465  0.1272 -0.2549 -0.0315
 5919TIP3   OH239247   5.974   3.485  11.912 -0.5939  0.0183 -0.3329
 5919TIP3    H139248   5.930   3.421  11.967 -1.9700  0.7808 -0.5145
 5919TIP3    H239249   6.056   3.504  11.959 -1.1739 -0.2480  0.8273
 5920TIP3   OH239250   2.279   0.437  12.332 -0.4997 -0.4210  0.0634
 5920TIP3    H139251   2.299   0.501  12.400 -0.3401  0.0345 -0.4057
 5920TIP3    H239252   2.215   0.379  12.373 -1.3122  0.5455  0.2352
 5921TIP3   OH239253   5.333   6.126   3.288 -0.3695 -0.2426  0.3267
 5921TIP3    H139254   5.342   6.220   3.300  0.6678  0.0088 -1.8900
 5921TIP3    H239255   5.252   6.116   3.237  0.1657 -0.4032 -0.5230
 5922TIP3   OH239256   2.400   5.562  14.368  0.1814  0.5694 -0.2063
 5922TIP3    H139257   2.438   5.514  14.441  0.1940  0.6380 -0.1678
 5922TIP3    H239258   2.415   5.654  14.389  0.8737  0.5662 -0.6737
 5923TIP3   OH239259   2.619   5.986   0.968 -0.2326 -0.7046  0.9287
 5923TIP3    H139260   2.670   6.060   0.935 -1.0717 -0.0620  1.0101
 5923TIP3    H239261   2.565   5.959   0.894 -1.5906  0.2710  1.5061
 5924TIP3   OH239262   3.380   2.597  12.429  0.7372  0.1074  1.0443
 5924TIP3    H139263   3.350   2.534  12.494 -1.0466 -0.6803 -0.4366
 5924TIP3    H239264   3.338   2.569  12.347  0.4512  2.7813  0.1636
 5925TIP3   OH239265   1.568   2.996  15.111  0.1869  0.5241  0.3329
 5925TIP3    H139266   1.623   3.048  15.051  1.2022 -1.3192 -0.4260
 5925TIP3    H239267   1.615   2.998  15.194 -0.1519  1.3860  0.5120
 5926TIP3   OH239268   0.430   6.585  14.602 -0.1804 -0.2321 -0.5025
 5926TIP3    H139269   0.477   6.567  14.684 -2.2885 -1.6852  0.4839
 5926TIP3    H239270   0.458   6.516  14.542  3.0649  2.0632 -1.9340
 5927TIP3   OH239271   0.600   0.294  10.906  0.1743 -0.4867 -0.0132
 5927TIP3    H139272   0.600   0.342  10.823  0.4338  1.3071  0.9779
 5927TIP3    H239273   0.519   0.321  10.949  0.2037 -1.1470  0.4637
 5928TIP3   OH239274   6.340   0.417   5.717 -0.1185  0.0564 -0.1463
 5928TIP3    H139275   6.348   0.323   5.699 -0.9577 -0.3313  1.3529
 5928TIP3    H239276   6.269   0.447   5.661 -0.7243 -0.4905  0.3185
 5929TIP3   OH239277   4.410   4.752   2.839 -0.3689 -0.3184  0.3940
 5929TIP3    H139278   4.337   4.794   2.885 -1.1326 -1.0587 -0.1165
 5929TIP3    H239279   4.442   4.687   2.902 -0.1729 -0.0219  0.6033
 5930TIP3   OH239280   5.365   3.805  12.297 -0.5118  0.2899  0.0409
 5930TIP3    H139281   5.441   3.857  12.271  1.0678 -0.9557  1.8362
 5930TIP3    H239282   5.374   3.723  12.247 -1.6472  0.7553 -0.9800
 5931TIP3   OH239283   2.783   6.027   4.387 -0.3537  0.2920 -0.6153
 5931TIP3    H139284   2.727   6.103   4.375 -0.2964  0.3504 -0.5221
 5931TIP3    H239285   2.743   5.979   4.460 -0.8454 -0.1988 -1.2004
 5932TIP3   OH239286   5.038   1.415  17.155 -0.3112 -0.3413 -0.9878
 5932TIP3    H139287   5.009   1.330  17.187  0.2251  0.1116  0.8782
 5932TIP3    H239288   4.964   1.449  17.105 -0.6413 -1.7538 -1.4974
 5933TIP3   OH239289   6.676   2.118   1.881  0.2355 -0.5086 -0.0759
 5933TIP3    H139290   6.720   2.166   1.810  0.6729  1.5979  1.5017
 5933TIP3    H239291   6.748   2.075   1.928  0.1662 -0.3094  0.2120
 5934TIP3   OH239292   4.209   4.341  13.502  0.5633 -0.3056  0.7582
 5934TIP3    H139293   4.224   4.427  13.461 -0.6401  0.3819  1.6826
 5934TIP3    H239294   4.134   4.304  13.456  1.5443 -1.2262 -0.1412
 5935TIP3   OH239295   5.958   4.349   3.267  0.1070  0.0987 -0.2103
 5935TIP3    H139296   5.985   4.310   3.184 -0.9530 -0.2152 -0.4293
 5935TIP3    H239297   5.995   4.291   3.334  1.7349  0.8553 -0.4148
 5936TIP3   OH239298   5.788   3.861  16.361 -0.3188 -0.1673  0.0442
 5936TIP3    H139299   5.777   3.791  16.425 -2.2603  1.6175  1.8632
 5936TIP3    H239300   5.732   3.836  16.288  1.0096 -1.6695 -0.5253
 5937TIP3   OH239301   5.514   2.475  12.695 -0.4831 -0.8790 -0.0988
 5937TIP3    H139302   5.577   2.412  12.659 -0.1169 -1.0270  0.7542
 5937TIP3    H239303   5.441   2.422  12.727 -0.3980 -0.8374  0.1740
 5938TIP3   OH239304   2.341   4.273   1.330  0.4786  0.0993  0.4660
 5938TIP3    H139305   2.351   4.183   1.361 -1.0853 -0.7486 -1.3168
 5938TIP3    H239306   2.335   4.266   1.235 -2.0212  1.7838  0.3931
 5939TIP3   OH239307   6.743   1.418   3.918 -0.1645  0.2100  0.2367
 5939TIP3    H139308   6.728   1.466   4.000  0.1751  0.5173  0.1211
 5939TIP3    H239309   6.792   1.340   3.946 -0.4378  0.0860  0.3814
 5940TIP3   OH239310   5.757   6.017  13.338 -0.2634 -0.4601 -0.8503
 5940TIP3    H139311   5.696   5.943  13.330  1.1263 -1.5765 -1.4271
 5940TIP3    H239312   5.766   6.049  13.249  1.4890 -1.5774 -1.1220
 5941TIP3   OH239313   5.006   6.213   1.432  0.5077 -0.1405 -0.4123
 5941TIP3    H139314   5.071   6.175   1.373  1.3836  0.1777  0.3214
 5941TIP3    H239315   5.040   6.195   1.520 -0.4349 -0.0252 -0.0147
 5942TIP3   OH239316   5.976   1.712   4.374  0.5891  0.1743  0.2321
 5942TIP3    H139317   5.972   1.803   4.404 -0.7919  0.7720 -1.5544
 5942TIP3    H239318   6.006   1.719   4.283 -0.2179 -1.0974 -0.1487
 5943TIP3   OH239319   4.217   3.918  11.427 -0.3595 -0.0712  0.6052
 5943TIP3    H139320   4.167   3.907  11.346 -1.0500 -0.8568  1.1207
 5943TIP3    H239321   4.187   4.001  11.463  0.4196  0.6026 -0.2565
 5944TIP3   OH239322   1.026   2.998   5.969  0.2352 -0.3607 -0.1748
 5944TIP3    H139323   1.010   3.075   5.914  0.7568 -1.2497 -1.6200
 5944TIP3    H239324   1.094   2.949   5.923 -0.8943 -2.2861  0.0924
 5945TIP3   OH239325   6.331   4.807   1.383 -0.2771  0.6028 -0.2296
 5945TIP3    H139326   6.286   4.884   1.346  1.2280  1.2825 -0.7274
 5945TIP3    H239327   6.266   4.767   1.440 -1.0465  2.3769  0.2224
 5946TIP3   OH239328   2.293   2.544  16.110 -0.1141 -0.3566 -0.7255
 5946TIP3    H139329   2.280   2.468  16.167  2.1132  0.7651  1.4411
 5946TIP3    H239330   2.233   2.610  16.146  1.7978  0.5853  0.9313
 5947TIP3   OH239331   0.192   0.527  15.884  0.3286 -0.2937 -0.5581
 5947TIP3    H139332   0.169   0.516  15.976  0.9696  0.0720 -0.3430
 5947TIP3    H239333   0.261   0.462  15.869 -1.7222 -2.3755 -1.5691
 5948TIP3   OH239334   1.300   5.105   3.802  0.6161 -0.2221  0.5238
 5948TIP3    H139335   1.239   5.066   3.740  1.7980 -0.5683 -0.4801
 5948TIP3    H239336   1.363   5.036   3.821  2.3373  0.9049 -0.7275
 5949TIP3   OH239337   1.528   6.318  15.021  0.7589  0.4899  0.5683
 5949TIP3    H139338   1.531   6.246  14.958  0.5790  1.2497 -0.3310
 5949TIP3    H239339   1.446   6.305  15.068  0.5502  0.3129  0.1640
 5950TIP3   OH239340   1.387   0.993  15.866  0.1636 -0.7037 -0.1773
 5950TIP3    H139341   1.337   0.925  15.911 -0.7866  0.4102  0.5014
 5950TIP3    H239342   1.353   1.075  15.901  0.7365  0.1518 -1.5434
 5951TIP3   OH239343   5.099   2.855  15.446  0.2412  0.3647  0.0882
 5951TIP3    H139344   5.149   2.774  15.435 -0.7670 -0.6192  2.2200
 5951TIP3    H239345   5.160   2.924  15.423  1.5742 -0.9404 -0.4378
 5952TIP3   OH239346   3.856   2.973   6.498 -0.1535  0.0644 -0.2421
 5952TIP3    H139347   3.841   2.882   6.473  0.0619  0.0253 -0.2302
 5952TIP3    H239348   3.770   3.005   6.523 -0.4876  0.2676 -1.5695
 5953TIP3   OH239349   1.756   2.461  15.026  0.7441  0.4413 -0.0255
 5953TIP3    H139350   1.748   2.453  14.931  1.2282  1.7405 -0.1912
 5953TIP3    H239351   1.732   2.552  15.045  1.0192  0.3052  1.0533
 5954TIP3   OH239352   3.469   5.066  13.188  0.1328 -0.0889  0.1818
 5954TIP3    H139353   3.425   5.088  13.106  0.3901  1.0579  0.3339
 5954TIP3    H239354   3.448   4.974  13.203  1.4231 -0.8309 -2.0198
 5955TIP3   OH239355   3.036   2.911  12.224  0.0556 -0.2148  0.0344
 5955TIP3    H139356   3.111   2.882  12.173 -0.9337 -0.3901 -1.3618
 5955TIP3    H239357   3.053   3.004  12.240  0.3733 -0.1541 -0.6202
 5956TIP3   OH239358   2.290   2.998   6.378  0.1328  0.3269 -0.3255
 5956TIP3    H139359   2.366   2.959   6.421  0.5905 -1.2535 -2.4255
 5956TIP3    H239360   2.214   2.957   6.422  0.4993  0.6182  0.6107
 5957TIP3   OH239361   1.437   2.060   3.051  0.1007  0.0728 -0.4438
 5957TIP3    H139362   1.359   2.065   3.106 -0.3599 -0.2570 -1.0505
 5957TIP3    H239363   1.431   1.975   3.008  0.1305  0.5497 -1.4455
 5958TIP3   OH239364   2.295   3.430  14.605 -0.4060  0.0014 -0.0710
 5958TIP3    H139365   2.289   3.458  14.696 -2.8727 -1.6495  0.3749
 5958TIP3    H239366   2.274   3.509  14.554 -0.1001  0.6696  0.8195
 5959TIP3   OH239367   0.432   5.160   0.882 -0.8359 -0.1747 -0.0643
 5959TIP3    H139368   0.471   5.097   0.821  0.2335 -0.3646  0.7899
 5959TIP3    H239369   0.341   5.168   0.853 -0.6091 -1.0158 -1.0646
 5960TIP3   OH239370   5.451   3.842   0.293 -0.8880  0.4453 -0.3046
 5960TIP3    H139371   5.494   3.891   0.223  0.7725  0.1198  0.4132
 5960TIP3    H239372   5.429   3.908   0.359  1.1187  0.3413  0.5519
 5961TIP3   OH239373   3.369   3.502   5.887  0.6899 -1.0353  0.5084
 5961TIP3    H139374   3.436   3.438   5.912  2.0026  0.3500  0.6377
 5961TIP3    H239375   3.361   3.560   5.963  1.1171  0.2424 -0.3863
 5962TIP3   OH239376   0.540   3.592   2.798  0.0449  0.0570  0.1284
 5962TIP3    H139377   0.483   3.591   2.875 -0.4120  2.1694 -0.1154
 5962TIP3    H239378   0.480   3.604   2.724  0.7260  1.9113 -0.1691
 5963TIP3   OH239379   4.484   3.803  14.786  0.0194  0.1218  0.0503
 5963TIP3    H139380   4.419   3.784  14.853 -0.7602 -0.1689 -0.7605
 5963TIP3    H239381   4.567   3.778  14.824 -0.5095 -0.8487  0.5898
 5964TIP3   OH239382   2.626   5.059  15.211  0.0259 -0.3117 -0.4874
 5964TIP3    H139383   2.718   5.056  15.185 -0.4161 -1.4777 -2.0779
 5964TIP3    H239384   2.579   5.079  15.131 -1.2546 -1.9942 -0.2224
 5965TIP3   OH239385   5.716   2.299   5.240  0.0246 -0.3161  0.5664
 5965TIP3    H139386   5.752   2.244   5.170 -0.8861 -0.2639  0.0373
 5965TIP3    H239387   5.788   2.311   5.301  1.5182  1.3848 -1.4045
 5966TIP3   OH239388   5.223   3.499  16.768  0.2885  0.7137  0.2189
 5966TIP3    H139389   5.216   3.407  16.742  0.4173  1.0232 -0.9934
 5966TIP3    H239390   5.256   3.496  16.858  0.0179 -0.4271  0.2972
 5967TIP3   OH239391   0.420   6.089  13.013 -0.3755 -0.2159  0.4998
 5967TIP3    H139392   0.360   6.083  12.939 -1.0004 -0.4322  1.0140
 5967TIP3    H239393   0.468   6.007  13.012 -0.3762 -0.2150  0.3369
 5968TIP3   OH239394   5.633   1.367   3.047  1.0290 -0.3607  0.5769
 5968TIP3    H139395   5.695   1.333   2.983  0.9539  1.5098 -0.5518
 5968TIP3    H239396   5.592   1.441   3.004 -0.8441 -0.5584  1.9065
 5969TIP3   OH239397   3.387   4.939  15.972 -0.3221 -0.0818 -0.1770
 5969TIP3    H139398   3.360   5.011  15.915  0.3387 -0.3891 -0.8846
 5969TIP3    H239399   3.482   4.941  15.971 -0.0815  2.4120  4.0673
 5970TIP3   OH239400   6.233   2.690  11.036  0.0453  0.4585 -0.1732
 5970TIP3    H139401   6.316   2.648  11.055 -0.9934 -1.4072  0.4891
 5970TIP3    H239402   6.227   2.761  11.101  0.1186 -0.8416  1.3195
 5971TIP3   OH239403   2.534   1.163   0.782 -0.5851  0.4406 -0.1517
 5971TIP3    H139404   2.577   1.216   0.850 -1.8054  0.3516  0.7106
 5971TIP3    H239405   2.442   1.163   0.806 -0.8726 -0.5516 -1.1885
 5972TIP3   OH239406   5.921   5.032  13.005  0.0056  0.2672  0.1397
 5972TIP3    H139407   5.847   4.983  13.041 -0.6179  1.3279  0.3266
 5972TIP3    H239408   5.997   4.997  13.052 -0.3719 -0.7503  0.0279
 5973TIP3   OH239409   4.792   0.409   4.861 -0.1636 -0.4652 -0.1054
 5973TIP3    H139410   4.723   0.459   4.904 -0.3258 -0.4320 -0.4053
 5973TIP3    H239411   4.853   0.475   4.827  0.3221 -0.5060  0.6556
 5974TIP3   OH239412   1.568   4.202  11.642 -0.7395  0.5374  0.2860
 5974TIP3    H139413   1.640   4.177  11.700  1.7400  0.3141 -2.6683
 5974TIP3    H239414   1.495   4.145  11.668  1.1724 -1.5949  1.2901
 5975TIP3   OH239415   1.152   4.728   0.839  0.2081 -0.1444 -0.1199
 5975TIP3    H139416   1.116   4.801   0.790  1.8479 -1.0516 -2.9095
 5975TIP3    H239417   1.178   4.766   0.923 -1.4062  1.8287 -0.4390
 5976TIP3   OH239418   4.553   1.371   1.576  0.1087  0.5175 -0.3930
 5976TIP3    H139419   4.469   1.362   1.622  0.2653  0.0412 -0.1952
 5976TIP3    H239420   4.613   1.314   1.624  0.5415  0.8379 -0.5490
 5977TIP3   OH239421   3.912   6.780  11.988  0.0858 -0.6483 -0.3015
 5977TIP3    H139422   3.822   6.791  11.958 -0.2106 -0.8457  0.4838
 5977TIP3    H239423   3.940   6.868  12.015 -0.4026 -0.8360  0.8681
 5978TIP3   OH239424   1.863   5.229   5.895  0.0359 -0.0153 -0.8962
 5978TIP3    H139425   1.799   5.163   5.921  0.8499 -0.8051 -0.8354
 5978TIP3    H239426   1.948   5.188   5.911  0.5740  0.2733 -2.7353
 5979TIP3   OH239427   5.332   4.962  10.641 -0.4572  0.1855 -0.2509
 5979TIP3    H139428   5.378   5.021  10.700  0.4494 -0.0702 -0.6867
 5979TIP3    H239429   5.351   4.874  10.675  3.7231 -0.3860 -3.1918
 5980TIP3   OH239430   3.411   5.038  16.762 -0.1395  0.4370 -0.0486
 5980TIP3    H139431   3.473   5.003  16.826 -0.7017 -0.7990 -0.1539
 5980TIP3    H239432   3.465   5.055  16.684  0.5960  2.2240  0.8027
 5981TIP3   OH239433   1.398   5.914   0.927 -0.0414  0.1857  0.2862
 5981TIP3    H139434   1.443   5.863   0.995  1.2450 -0.7245 -1.1782
 5981TIP3    H239435   1.445   5.997   0.923 -1.1339  0.9051  1.5704
 5982TIP3   OH239436   2.110   3.527  12.267  0.4727  0.3662 -0.0995
 5982TIP3    H139437   2.101   3.622  12.274  0.2362  0.6320 -2.9372
 5982TIP3    H239438   2.200   3.509  12.295  0.1578  1.2113  1.6071
 5983TIP3   OH239439   5.381   5.971  15.950 -0.5965 -0.2410  0.3514
 5983TIP3    H139440   5.396   5.912  16.024 -0.3833 -1.2655 -0.4691
 5983TIP3    H239441   5.413   6.056  15.979  3.7339 -1.5142 -0.0282
 5984TIP3   OH239442   1.629   2.599  16.433 -0.4206 -0.3068  0.1340
 5984TIP3    H139443   1.700   2.651  16.396  0.5597 -2.1237 -0.6838
 5984TIP3    H239444   1.552   2.624  16.382  0.1697 -0.1565 -0.7018
 5985TIP3   OH239445   5.368   3.902   1.547 -0.7525 -0.3078 -0.0235
 5985TIP3    H139446   5.441   3.941   1.499 -1.6077 -0.3653 -1.4396
 5985TIP3    H239447   5.291   3.952   1.518 -1.7076 -2.1904 -0.9107
 5986TIP3   OH239448   2.335   6.661  14.440  0.0132 -0.0686  0.1768
 5986TIP3    H139449   2.288   6.737  14.475  0.3668  0.6761 -0.9044
 5986TIP3    H239450   2.415   6.696  14.403  0.2325 -0.9795 -0.2644
 5987TIP3   OH239451   2.783   4.629  15.583 -0.0346 -0.3623  0.6659
 5987TIP3    H139452   2.784   4.707  15.639  0.8713 -0.3561  0.6559
 5987TIP3    H239453   2.777   4.663  15.494 -3.3993 -0.3983  0.7396
 5988TIP3   OH239454   0.431   4.006   0.063  0.1936  0.4254  0.8960
 5988TIP3    H139455   0.390   3.945   0.125  0.6100  0.1559  0.9130
 5988TIP3    H239456   0.449   3.953  -0.015  0.4850  0.5388  0.8822
 5989TIP3   OH239457   5.365   2.710  11.105  0.4705  0.1607  0.3023
 5989TIP3    H139458   5.422   2.739  11.034  0.1570 -0.1587 -0.0818
 5989TIP3    H239459   5.410   2.635  11.143  0.8745  0.6225  0.7605
 5990TIP3   OH239460   2.975   1.519   1.753 -0.5459 -0.0577 -0.1317
 5990TIP3    H139461   3.050   1.525   1.694 -0.0837 -0.7247  0.3639
 5990TIP3    H239462   2.934   1.435   1.731 -1.0742  0.2410 -0.3076
 5991TIP3   OH239463   6.114   1.553   0.085 -0.3739  0.1458  0.1253
 5991TIP3    H139464   6.031   1.516   0.117  0.0048  0.2500  1.2914
 5991TIP3    H239465   6.180   1.512   0.140  0.3976 -0.1720 -1.0036
 5992TIP3   OH239466   4.967   6.590   0.163 -0.3531  0.0266  0.2587
 5992TIP3    H139467   4.903   6.630   0.104 -0.8543  1.4295  1.6797
 5992TIP3    H239468   5.052   6.623   0.134 -0.3562 -0.9988 -0.9758
 5993TIP3   OH239469   4.071   5.568  16.789 -0.5387  0.6710 -0.5166
 5993TIP3    H139470   4.068   5.488  16.737  1.7033 -1.1071  1.8969
 5993TIP3    H239471   3.979   5.590  16.804 -1.2028 -0.9825 -1.8323
 5994TIP3   OH239472   1.392   3.265  14.105  0.4927  0.1334  0.2042
 5994TIP3    H139473   1.309   3.229  14.136  1.3005 -0.8659  1.2838
 5994TIP3    H239474   1.370   3.307  14.022 -1.0156 -0.4372  0.2788
 5995TIP3   OH239475   2.628   4.515   5.431  0.2557 -0.1114  0.0433
 5995TIP3    H139476   2.611   4.485   5.520 -0.5413  0.9290  0.2520
 5995TIP3    H239477   2.611   4.438   5.377 -2.0626 -0.0159  0.5386
 5996TIP3   OH239478   6.205   2.371  16.204 -0.1759  0.2618  0.4281
 5996TIP3    H139479   6.204   2.418  16.120  0.5647  1.4163  1.0496
 5996TIP3    H239480   6.127   2.315  16.200  0.4211 -0.5457 -1.4767
 5997TIP3   OH239481   1.806   4.455   2.592 -0.1755 -0.4219  0.6045
 5997TIP3    H139482   1.724   4.502   2.585  0.5542  1.2130  2.2413
 5997TIP3    H239483   1.783   4.373   2.635 -1.2231 -0.9579 -0.8752
 5998TIP3   OH239484   6.836   6.407   6.324  0.0591 -0.1824  0.2843
 5998TIP3    H139485   6.879   6.322   6.327  0.8613  0.2467  1.7207
 5998TIP3    H239486   6.904   6.467   6.290 -0.8805 -0.2923 -1.9562
 5999TIP3   OH239487   4.762   2.742   1.598  0.0690  0.1329  0.1363
 5999TIP3    H139488   4.849   2.776   1.618  0.1290 -0.3629  0.7640
 5999TIP3    H239489   4.770   2.704   1.511 -0.0778  1.9395 -0.7179
 6000TIP3   OH239490   1.930   5.571  16.046  0.2592  0.6044  0.0627
 6000TIP3    H139491   1.966   5.522  16.120  0.2496 -1.6652 -1.3529
 6000TIP3    H239492   1.838   5.546  16.042 -0.0094  1.5726 -0.0594
 6001TIP3   OH239493   2.044   5.834  16.111  0.5044 -0.1473 -0.3160
 6001TIP3    H139494   2.043   5.745  16.077  0.7709 -0.9538  1.6516
 6001TIP3    H239495   1.956   5.847  16.147 -0.1583  1.1138 -2.2247
 6002TIP3   OH239496   1.836   2.273  14.365 -0.7608 -0.0915 -0.2692
 6002TIP3    H139497   1.845   2.360  14.404  0.4447  0.3177 -1.4069
 6002TIP3    H239498   1.752   2.241  14.399 -0.7716  1.1009  0.9370
 6003TIP3   OH239499   0.940   4.384   4.446  0.5271 -0.8684  0.1141
 6003TIP3    H139500   0.881   4.457   4.428 -0.7091 -1.8433  0.1309
 6003TIP3    H239501   1.025   4.426   4.460 -0.2640  0.6300  0.7234
 6004TIP3   OH239502   1.516   5.158  12.763  0.0142  0.4869  0.1226
 6004TIP3    H139503   1.463   5.092  12.719  0.6354  0.0453  0.0100
 6004TIP3    H239504   1.464   5.185  12.838 -0.6942  0.6303 -0.4143
 6005TIP3   OH239505   1.221   0.211  13.820  0.2910  0.2056 -0.1028
 6005TIP3    H139506   1.246   0.122  13.840  1.3631 -0.0313 -2.2199
 6005TIP3    H239507   1.294   0.247  13.770  0.5775  2.8152  1.9493
 6006TIP3   OH239508   3.151   4.683  15.367  0.0838  0.5291  0.3041
 6006TIP3    H139509   3.103   4.746  15.422 -1.3563  0.0927 -0.4037
 6006TIP3    H239510   3.178   4.734  15.291 -1.5310  0.2280 -0.5156
 6007TIP3   OH239511   2.826   1.583  15.438 -0.1673  0.3601 -0.2400
 6007TIP3    H139512   2.773   1.663  15.433 -0.7984 -0.0977 -1.3072
 6007TIP3    H239513   2.904   1.609  15.486  0.0983  1.8993 -1.4189
 6008TIP3   OH239514   1.709   5.948  15.194 -0.2887  0.2684 -0.2084
 6008TIP3    H139515   1.741   6.028  15.234  0.9767  0.6922 -1.9615
 6008TIP3    H239516   1.752   5.877  15.241  1.1538  0.7545 -0.7519
 6009TIP3   OH239517   4.311   1.937  13.600  0.3512  0.0909 -0.5606
 6009TIP3    H139518   4.289   1.848  13.626 -2.4603  0.4504 -1.4146
 6009TIP3    H239519   4.236   1.967  13.548  1.4410  2.7701 -0.7719
 6010TIP3   OH239520   3.585   1.957  13.412  0.0037 -0.0067  0.0058
 6010TIP3    H139521   3.621   1.884  13.362  1.7358 -0.0485  1.2292
 6010TIP3    H239522   3.545   1.916  13.489 -1.3946  0.1655 -0.5946
 6011TIP3   OH239523   2.610   3.691  11.320  0.5223 -0.0690  0.5701
 6011TIP3    H139524   2.580   3.635  11.392  0.8857  0.2044  0.9336
 6011TIP3    H239525   2.615   3.778  11.357  2.2178 -0.1719  0.6502
 6012TIP3   OH239526   4.904   1.184   2.459  0.4252  0.5012  0.0897
 6012TIP3    H139527   4.826   1.197   2.514  0.0043  2.5993 -0.9087
 6012TIP3    H239528   4.940   1.272   2.448  2.6607 -0.3649  0.0640
 6013TIP3   OH239529   3.880   1.232  13.013  0.5070  0.3719  0.2295
 6013TIP3    H139530   3.915   1.241  12.925 -0.0050 -0.4755 -0.0745
 6013TIP3    H239531   3.785   1.241  13.002  0.3624 -0.6073  0.5558
 6014TIP3   OH239532   0.092   0.206  16.640  0.3577  0.0802 -0.2673
 6014TIP3    H139533   0.092   0.239  16.550  0.4585 -3.5865 -1.7564
 6014TIP3    H239534   0.178   0.231  16.674  0.1313  1.9585 -0.9264
 6015TIP3   OH239535   0.537   5.495  15.161 -0.0492 -0.0778 -0.4418
 6015TIP3    H139536   0.492   5.413  15.140  2.5402 -2.1904  1.5186
 6015TIP3    H239537   0.620   5.489  15.115  0.9545  0.5572  1.1998
 6016TIP3   OH239538   4.053   4.319  13.128 -0.9916 -0.1550 -0.1873
 6016TIP3    H139539   4.137   4.290  13.093 -0.6079  0.1454  0.4731
 6016TIP3    H239540   4.027   4.391  13.071 -0.2501  0.4949  0.2892
 6017TIP3   OH239541   2.123   0.963  15.424  0.4055 -0.0548  0.3701
 6017TIP3    H139542   2.209   0.985  15.461  0.5597  2.6012 -1.3109
 6017TIP3    H239543   2.142   0.903  15.352  0.5780 -1.2956  1.4167
 6018TIP3   OH239544   6.193   6.126   5.530 -0.0796  0.2640  0.1843
 6018TIP3    H139545   6.257   6.071   5.486 -0.0080  1.2822 -1.0252
 6018TIP3    H239546   6.221   6.126   5.622 -1.0004 -2.9830  0.6015
 6019TIP3   OH239547   5.459   1.254   3.897  0.2248  0.0282  0.4531
 6019TIP3    H139548   5.392   1.196   3.861 -0.4513  0.0227  1.6742
 6019TIP3    H239549   5.542   1.210   3.878 -0.1326 -0.2041 -0.6353
 6020TIP3   OH239550   4.396   2.666  12.864 -0.2046  0.8066  0.2144
 6020TIP3    H139551   4.355   2.707  12.940  0.9613  1.9998  0.2270
 6020TIP3    H239552   4.453   2.733  12.828  0.3771 -0.2245 -0.8651
 6021TIP3   OH239553   6.364   2.712  12.032 -0.3233 -0.0730  0.5285
 6021TIP3    H139554   6.349   2.697  12.126 -0.4515 -2.4933  0.1769
 6021TIP3    H239555   6.326   2.636  11.989  2.4095 -0.5865 -1.2711
 6022TIP3   OH239556   0.673   6.723   4.927  0.0070 -0.4899 -0.1887
 6022TIP3    H139557   0.637   6.661   4.990 -0.3627 -0.1977 -0.1093
 6022TIP3    H239558   0.598   6.749   4.873 -0.4719  1.9470  1.4653
 6023TIP3   OH239559   3.930   3.337  15.095  0.3634  0.0588 -0.2254
 6023TIP3    H139560   3.963   3.344  15.185 -0.0522 -2.2128  0.1798
 6023TIP3    H239561   4.001   3.371  15.041  0.2980  2.2773  0.9503
 6024TIP3   OH239562   0.912   2.145  15.743 -0.0688 -0.1503  0.2093
 6024TIP3    H139563   0.893   2.129  15.650 -3.4763 -0.8536  0.8703
 6024TIP3    H239564   0.874   2.232  15.760  2.3852  0.9182  0.5656
 6025TIP3   OH239565   2.371   3.312   5.254 -0.2279 -0.7115 -0.0549
 6025TIP3    H139566   2.325   3.241   5.300 -1.1381  0.2525  0.5623
 6025TIP3    H239567   2.319   3.390   5.273  1.1834  0.2616 -0.1062
 6026TIP3   OH239568   4.690   2.336  16.202  0.2740 -0.1901 -0.2755
 6026TIP3    H139569   4.702   2.260  16.258  2.3251  0.3487  0.0672
 6026TIP3    H239570   4.735   2.407  16.247 -0.4722  0.9369 -1.2395
 6027TIP3   OH239571   2.762   1.059   5.839  0.2193 -0.5280  0.6946
 6027TIP3    H139572   2.765   1.091   5.749 -1.4807 -2.0745  0.0351
 6027TIP3    H239573   2.740   1.136   5.891 -0.4291  0.0740 -0.4322
 6028TIP3   OH239574   6.636   0.017   0.080 -0.0079  0.1103 -0.1363
 6028TIP3    H139575   6.685  -0.022   0.152 -0.3258 -0.5405 -0.2644
 6028TIP3    H239576   6.550   0.036   0.117 -0.8248 -1.9788 -0.8024
 6029TIP3   OH239577   3.114   4.261   4.609 -0.4625 -0.2548  0.7817
 6029TIP3    H139578   3.178   4.190   4.620 -0.2342 -0.0717  0.6436
 6029TIP3    H239579   3.148   4.333   4.662  0.3801  0.4520 -0.6494
 6030TIP3   OH239580   3.747   3.849   0.973  0.1872 -0.0530 -0.0782
 6030TIP3    H139581   3.827   3.803   0.998  1.5754  2.1990 -0.1068
 6030TIP3    H239582   3.735   3.916   1.040  1.4626  3.1776 -2.8361
 6031TIP3   OH239583   6.280   3.309   1.524  0.5513  0.4736 -0.6188
 6031TIP3    H139584   6.212   3.344   1.581  0.6325  1.7725 -1.2909
 6031TIP3    H239585   6.236   3.241   1.473  0.0735  0.4501 -0.1793
 6032TIP3   OH239586   5.785   5.735  15.730  0.5653  0.5741 -0.7217
 6032TIP3    H139587   5.877   5.761  15.726  0.3226  1.9099  1.0470
 6032TIP3    H239588   5.737   5.814  15.705 -0.1340  0.4826  0.2938
 6033TIP3   OH239589   1.349   1.850  12.636  0.6093  0.4806  0.0278
 6033TIP3    H139590   1.402   1.829  12.559 -0.4497  2.6212 -1.3979
 6033TIP3    H239591   1.405   1.907  12.689  1.7406 -1.8540  1.4954
 6034TIP3   OH239592   6.426   5.042  14.410 -0.2197 -0.2407  0.3323
 6034TIP3    H139593   6.433   5.043  14.506  0.4277  0.5464  0.2949
 6034TIP3    H239594   6.517   5.051  14.380 -0.6280  2.2601 -0.3246
 6035TIP3   OH239595   0.177   5.377   1.526  0.2115 -0.3560  0.3629
 6035TIP3    H139596   0.158   5.469   1.510 -3.8977 -1.2627 -1.1759
 6035TIP3    H239597   0.141   5.360   1.613  0.1265 -0.6896  0.2636
 6036TIP3   OH239598   4.305   1.103  15.319  0.7065  0.4215 -0.5161
 6036TIP3    H139599   4.313   1.046  15.242  0.7116 -2.0374  1.2250
 6036TIP3    H239600   4.388   1.150  15.323  1.8115 -1.4588 -0.4910
 6037TIP3   OH239601   4.208   1.562  16.165  0.1312 -0.0348 -0.7686
 6037TIP3    H139602   4.135   1.522  16.213  0.9859 -1.9166 -0.9368
 6037TIP3    H239603   4.171   1.585  16.080 -0.6292  0.4368 -0.3197
 6038TIP3   OH239604   6.463   1.252  11.772  0.6178 -0.4487 -0.1119
 6038TIP3    H139605   6.453   1.181  11.835  0.6225  0.9966  1.5998
 6038TIP3    H239606   6.447   1.212  11.687 -0.5943 -2.2177  0.9092
 6039TIP3   OH239607   1.871   0.945  11.704  0.3179  0.0976  0.1309
 6039TIP3    H139608   1.932   0.894  11.652 -0.1005  0.1673 -0.4449
 6039TIP3    H239609   1.926   0.994  11.766  0.7884 -0.3037  0.0317
 6040TIP3   OH239610   5.985   5.466   5.767 -0.1576 -0.4239 -0.3756
 6040TIP3    H139611   5.970   5.544   5.715  2.8888  0.2969 -0.3539
 6040TIP3    H239612   6.007   5.498   5.854 -1.1855 -1.4349  0.2852
 6041TIP3   OH239613   6.574   2.115  14.011 -0.4611 -0.0214  0.2965
 6041TIP3    H139614   6.626   2.147  14.086 -1.5807 -0.0459  1.1127
 6041TIP3    H239615   6.583   2.184  13.945 -2.5498  1.9395  1.8949
 6042TIP3   OH239616   4.362   6.312  13.217  0.0226  0.4050  0.1507
 6042TIP3    H139617   4.392   6.224  13.194 -0.9983  0.3826 -1.2406
 6042TIP3    H239618   4.427   6.370  13.177  0.3153  0.2920  0.4643
 6043TIP3   OH239619   2.201   3.092   4.433 -0.1020  0.0690  0.1987
 6043TIP3    H139620   2.125   3.134   4.474  0.9743  1.8103  0.4980
 6043TIP3    H239621   2.275   3.147   4.457  0.9461 -0.2387 -2.0733
 6044TIP3   OH239622   0.798   6.420  13.956 -0.3109 -0.8834  0.0307
 6044TIP3    H139623   0.825   6.403  14.047  1.3177 -1.1213 -0.4653
 6044TIP3    H239624   0.820   6.511  13.941 -1.8763 -0.4412  0.2810
 6045TIP3   OH239625   6.725   6.611  15.749 -0.2517  0.4053  0.5953
 6045TIP3    H139626   6.644   6.561  15.758  0.5358 -0.7558  1.4988
 6045TIP3    H239627   6.712   6.689  15.803 -0.7952  0.2652  0.6678
 6046TIP3   OH239628   5.287   0.817  13.253  0.2684 -0.1008 -0.4760
 6046TIP3    H139629   5.339   0.896  13.239  1.8524 -0.9127  0.6424
 6046TIP3    H239630   5.346   0.745  13.231 -0.4834 -1.0445  0.5185
 6047TIP3   OH239631   2.694   1.564   2.179 -0.2468  0.2851 -0.4664
 6047TIP3    H139632   2.785   1.548   2.157  0.0691  1.1872  0.1476
 6047TIP3    H239633   2.693   1.651   2.218 -1.0394 -0.5158  1.4211
 6048TIP3   OH239634   0.109   5.676   4.486  0.1846  0.0557  0.1734
 6048TIP3    H139635   0.064   5.693   4.569  1.0992  0.6286  0.5706
 6048TIP3    H239636   0.200   5.696   4.504  0.6106 -1.1070 -0.6147
 6049TIP3   OH239637   0.111   0.949  14.047  0.4563  0.3573  0.8382
 6049TIP3    H139638   0.190   0.899  14.029 -0.5891 -2.0601  2.5090
 6049TIP3    H239639   0.134   1.003  14.123  0.6330  0.0355  1.0144
 6050TIP3   OH239640   1.784   0.927  11.095 -0.2451  0.3819  0.0879
 6050TIP3    H139641   1.873   0.952  11.072  1.1050 -4.1791 -0.7489
 6050TIP3    H239642   1.795   0.865  11.168 -2.3570 -2.1507 -1.5632
 6051TIP3   OH239643   2.171   1.226   4.336  0.3984  0.3299 -0.1617
 6051TIP3    H139644   2.260   1.232   4.370 -0.6440  0.1359  2.8700
 6051TIP3    H239645   2.146   1.317   4.319  1.0826  0.3982 -0.8836
 6052TIP3   OH239646   2.176   0.078   3.124  0.3420  0.1653  0.4293
 6052TIP3    H139647   2.091   0.033   3.129  0.3045  0.2283  0.3602
 6052TIP3    H239648   2.153   0.170   3.115  0.4196  0.2279  0.8449
 6053TIP3   OH239649   3.769   2.450  16.719 -0.0177 -0.2428 -0.3774
 6053TIP3    H139650   3.752   2.463  16.626  2.1467 -0.5448 -0.8580
 6053TIP3    H239651   3.855   2.487  16.733  0.4100 -1.6931  1.1449
 6054TIP3   OH239652   6.549   5.930  16.559  0.3223  0.0742  0.2869
 6054TIP3    H139653   6.581   6.018  16.580  2.3244 -0.4965 -0.0932
 6054TIP3    H239654   6.624   5.888  16.516 -0.6597 -1.7498  0.2895
 6055TIP3   OH239655   3.393   3.998  13.434 -0.0959 -0.0635 -0.1631
 6055TIP3    H139656   3.316   3.967  13.480  0.7203 -1.0655  0.5786
 6055TIP3    H239657   3.399   3.941  13.356  0.4926 -0.7453  0.3593
 6056TIP3   OH239658   1.707   5.150   4.042 -0.4988 -0.0457 -0.9959
 6056TIP3    H139659   1.800   5.170   4.052 -0.8673  1.5877 -0.4363
 6056TIP3    H239660   1.679   5.205   3.969 -0.8658 -1.1819 -1.7357
 6057TIP3   OH239661   5.044   5.305  16.643  0.8168 -0.0458  0.1433
 6057TIP3    H139662   5.073   5.273  16.729 -0.5997  2.0942  1.4930
 6057TIP3    H239663   5.091   5.388  16.631 -0.4381  0.6208 -0.2546
 6058TIP3   OH239664   1.083   6.246   4.547  0.1604  0.5390 -0.5100
 6058TIP3    H139665   1.056   6.320   4.602 -2.8820 -0.5093 -0.4176
 6058TIP3    H239666   1.012   6.237   4.483  1.1953 -1.3926 -1.4625
 6059TIP3   OH239667   2.557   2.434  11.202  0.3528 -0.1202  0.0804
 6059TIP3    H139668   2.549   2.339  11.194 -1.2988 -0.1086  0.9639
 6059TIP3    H239669   2.470   2.467  11.177  0.8449  1.1382 -0.0272
 6060TIP3   OH239670   1.125   1.267  16.444 -0.7918 -0.1080 -0.1215
 6060TIP3    H139671   1.180   1.218  16.383 -0.1682  0.2091  0.1844
 6060TIP3    H239672   1.065   1.316  16.388  0.1873  0.6638 -0.5088
 6061TIP3   OH239673   1.171   6.680   2.927  0.9610 -0.0261  0.0981
 6061TIP3    H139674   1.259   6.708   2.954  0.9909  1.8236 -1.6815
 6061TIP3    H239675   1.113   6.719   2.991  1.3254  0.3800  0.1876
 6062TIP3   OH239676   2.465   1.676  12.501  0.8556  0.2519  0.1761
 6062TIP3    H139677   2.531   1.745  12.491  1.0063 -0.0837 -1.6780
 6062TIP3    H239678   2.397   1.715  12.555  1.0399  1.7974 -0.6485
 6063TIP3   OH239679   0.672   4.363  15.482 -0.6456  0.4400 -0.5274
 6063TIP3    H139680   0.585   4.323  15.491 -0.7232  0.3634 -1.5510
 6063TIP3    H239681   0.664   4.421  15.406 -0.4862  2.3084  0.8164
 6064TIP3   OH239682   1.296   0.620   0.742 -0.7648 -0.2803 -0.0197
 6064TIP3    H139683   1.391   0.614   0.752 -0.8375 -0.8222  0.3784
 6064TIP3    H239684   1.281   0.617   0.647 -0.2277  2.4214 -0.2759
 6065TIP3   OH239685   4.338   4.980   0.423  0.0224  0.1732  0.2960
 6065TIP3    H139686   4.428   4.987   0.456  0.1160  2.2979 -0.3021
 6065TIP3    H239687   4.348   4.958   0.330 -0.0385  1.1241  0.0574
 6066TIP3   OH239688   5.511   6.637  16.140 -0.1385  0.6163 -0.1283
 6066TIP3    H139689   5.505   6.696  16.216 -2.7645 -0.3696  0.5323
 6066TIP3    H239690   5.453   6.564  16.161  0.8841 -0.8749 -2.1138
 6067TIP3   OH239691   0.074   1.107  14.492 -0.0654  0.3107 -0.3624
 6067TIP3    H139692  -0.012   1.098  14.450 -0.0845 -1.0174 -0.0836
 6067TIP3    H239693   0.101   1.017  14.509  1.1902  0.7389 -0.0391
 6068TIP3   OH239694   4.390   5.126  11.966 -0.4748 -0.3290 -0.4993
 6068TIP3    H139695   4.416   5.216  11.950  0.1119 -0.5439 -0.7860
 6068TIP3    H239696   4.403   5.113  12.060 -1.5192  0.1785 -0.2691
 6069TIP3   OH239697   2.287   6.316   2.388  0.3077 -0.1024 -0.0742
 6069TIP3    H139698   2.253   6.234   2.353 -1.4800  1.2923 -1.8025
 6069TIP3    H239699   2.210   6.362   2.421  1.4236  0.4666  1.9188
 6070TIP3   OH239700   0.611   0.555  13.647 -0.1338  0.4117  0.1006
 6070TIP3    H139701   0.569   0.591  13.568  3.9445  0.0577 -2.5068
 6070TIP3    H239702   0.623   0.630  13.704 -2.7192  0.7820  0.2873
 6071TIP3   OH239703   0.603   2.211  11.831 -0.1497  0.1835 -0.6399
 6071TIP3    H139704   0.616   2.299  11.867  0.5129 -0.5163  0.9657
 6071TIP3    H239705   0.667   2.204  11.760 -0.3217  1.0497 -0.8856
 6072TIP3   OH239706   1.749   0.743   4.371  0.6138  0.1325  0.7311
 6072TIP3    H139707   1.805   0.794   4.430  0.6439  0.8878  0.0645
 6072TIP3    H239708   1.708   0.678   4.428  0.0559  1.3188  1.7329
 6073TIP3   OH239709   3.313   3.551  16.977  0.3127 -0.0538  0.5172
 6073TIP3    H139710   3.288   3.635  17.015 -1.3275 -0.2567 -0.0424
 6073TIP3    H239711   3.361   3.575  16.897  1.6407  0.3429  1.4030
 6074TIP3   OH239712   6.430   3.615  14.959  0.3080 -0.3307  0.4460
 6074TIP3    H139713   6.371   3.614  14.883  1.3364  0.8225 -0.4150
 6074TIP3    H239714   6.374   3.593  15.033 -1.3039  1.0954 -0.2720
 6075TIP3   OH239715   2.160   5.263  16.961  0.0402  0.4452 -0.1400
 6075TIP3    H139716   2.121   5.201  17.023  1.9921  0.2250  0.9465
 6075TIP3    H239717   2.254   5.255  16.975  0.4266  2.2717 -1.3533
 6076TIP3   OH239718   3.051   1.509   0.823 -0.3017 -0.0627  0.1832
 6076TIP3    H139719   3.100   1.462   0.755  0.6984 -0.6541  1.2644
 6076TIP3    H239720   3.075   1.601   0.810  0.2486 -0.2244  0.0150
 6077TIP3   OH239721   3.535   2.809   4.366 -0.0702 -0.4688 -0.2528
 6077TIP3    H139722   3.552   2.902   4.353 -1.7328 -0.1122 -0.1180
 6077TIP3    H239723   3.440   2.803   4.376 -0.1100 -2.2951 -1.2182
 6078TIP3   OH239724   4.313   0.437  16.411 -0.0952 -0.3301 -0.2358
 6078TIP3    H139725   4.308   0.397  16.325 -3.1196 -1.3361  0.3110
 6078TIP3    H239726   4.228   0.478  16.424 -0.3851 -1.6125  2.8809
 6079TIP3   OH239727   3.172   4.272   0.752 -0.1166 -0.2593 -0.4772
 6079TIP3    H139728   3.136   4.238   0.834  0.1557 -0.9398 -0.6331
 6079TIP3    H239729   3.095   4.295   0.700 -0.3076 -0.4850 -0.2973
 6080TIP3   OH239730   5.813   6.035   0.694  0.3101  0.6183 -0.0851
 6080TIP3    H139731   5.906   6.055   0.704  0.2594 -0.0310  2.1068
 6080TIP3    H239732   5.785   6.006   0.781 -2.5430  3.2192  0.0356
 6081TIP3   OH239733   6.837   1.003   0.897  0.1129 -0.4467  0.4850
 6081TIP3    H139734   6.777   0.960   0.837  1.0146 -0.2529 -0.5819
 6081TIP3    H239735   6.908   0.940   0.909  1.2555  0.5298 -0.7911
 6082TIP3   OH239736   3.852   1.316   5.646  0.0057  0.3514 -0.4393
 6082TIP3    H139737   3.764   1.331   5.610 -0.1056 -0.5729 -0.5993
 6082TIP3    H239738   3.859   1.220   5.651  0.1065  0.4284  1.7969
 6083TIP3   OH239739   6.393   3.870   0.568  0.0790 -0.1996  0.2433
 6083TIP3    H139740   6.307   3.897   0.534  0.1767 -0.3305 -0.0999
 6083TIP3    H239741   6.377   3.856   0.662 -0.2490 -0.1102  0.2041
 6084TIP3   OH239742   0.552   0.532  14.560 -0.4448 -0.6222  0.4484
 6084TIP3    H139743   0.494   0.488  14.622 -1.3873 -1.7169 -1.1258
 6084TIP3    H239744   0.508   0.523  14.476  0.2494  1.7735 -0.2576
 6085TIP3   OH239745   5.990   6.672   2.528 -0.1781  0.3462 -0.6699
 6085TIP3    H139746   6.028   6.686   2.614  3.5898 -0.1782 -2.0471
 6085TIP3    H239747   5.910   6.622   2.544  1.4779 -1.5925  2.4352
 6086TIP3   OH239748   2.031   5.059  16.040 -0.4888 -0.6968  0.1907
 6086TIP3    H139749   1.939   5.074  16.064 -0.4317 -0.2653  0.1451
 6086TIP3    H239750   2.048   5.124  15.972 -0.2829 -1.0823 -0.1233
 6087TIP3   OH239751   0.253   6.462   1.783  0.2535 -0.3367  0.2291
 6087TIP3    H139752   0.276   6.383   1.735 -0.3096 -0.3465 -0.0324
 6087TIP3    H239753   0.323   6.524   1.762 -1.0961  0.4592 -2.5161
 6088TIP3   OH239754   4.193   1.293   5.984  0.5729  0.3567 -0.0745
 6088TIP3    H139755   4.142   1.339   5.918 -0.5546  0.0894  0.5825
 6088TIP3    H239756   4.151   1.316   6.067  0.3561 -1.3303  0.3277
 6089TIP3   OH239757   1.715   3.486  15.004  0.2311  0.1272  0.2035
 6089TIP3    H139758   1.753   3.487  14.916 -1.2266 -0.3286 -0.4723
 6089TIP3    H239759   1.746   3.405  15.043  0.0035 -0.2200 -0.3219
 6090TIP3   OH239760   3.553   2.192   3.945  0.2146  0.1576  0.3354
 6090TIP3    H139761   3.614   2.187   3.871  0.4217  1.3113  0.4018
 6090TIP3    H239762   3.517   2.281   3.939  0.2502  0.2701  1.6193
 6091TIP3   OH239763   2.937   1.253  14.289 -0.3091 -0.0411 -0.4413
 6091TIP3    H139764   3.019   1.297  14.270 -0.8649  1.2210 -0.0706
 6091TIP3    H239765   2.879   1.277  14.216  0.0322 -2.0923 -1.4669
 6092TIP3   OH239766   0.043   3.155   1.487  0.0698  0.1896  0.4248
 6092TIP3    H139767  -0.011   3.212   1.543 -0.7849 -0.4740  0.2935
 6092TIP3    H239768  -0.007   3.147   1.406 -0.3472 -1.6202  0.8338
 6093TIP3   OH239769   1.521   1.358   2.991 -0.0621  0.0032  0.1986
 6093TIP3    H139770   1.505   1.269   2.960  2.6610  0.1092 -1.8650
 6093TIP3    H239771   1.481   1.414   2.924  0.3480  0.3048  0.2034
 6094TIP3   OH239772   2.468   0.441   3.120  0.3992  0.1517 -0.0264
 6094TIP3    H139773   2.461   0.383   3.045 -0.4191  0.3698 -0.1307
 6094TIP3    H239774   2.517   0.516   3.088  0.5762 -0.0221 -0.1702
 6095TIP3   OH239775   3.353   3.168  13.177  0.3093  0.5326 -0.3576
 6095TIP3    H139776   3.378   3.146  13.266  1.3138  1.3553 -0.4209
 6095TIP3    H239777   3.414   3.236  13.151  0.6066 -0.3078 -1.9883
 6096TIP3   OH239778   5.335   4.208   3.682 -0.2014 -0.3913  0.4554
 6096TIP3    H139779   5.431   4.204   3.684 -0.1466 -0.2461 -0.7731
 6096TIP3    H239780   5.311   4.250   3.764  0.7702 -0.7239  0.9262
 6097TIP3   OH239781   6.416   6.456   2.624  0.1883  0.3838  0.3596
 6097TIP3    H139782   6.337   6.421   2.664 -0.4714 -0.5838 -1.6512
 6097TIP3    H239783   6.469   6.379   2.602  0.9839  0.9374  0.2777
 6098TIP3   OH239784   6.116   2.680   4.008  0.3238 -0.2790  1.0037
 6098TIP3    H139785   6.106   2.587   4.030 -3.5340  0.3160  2.3857
 6098TIP3    H239786   6.031   2.706   3.972  1.9297  2.3127 -1.3602
 6099TIP3   OH239787   3.523   4.607   4.894 -0.3059  0.4410  0.5791
 6099TIP3    H139788   3.606   4.571   4.864 -1.0109 -0.8889  0.1357
 6099TIP3    H239789   3.547   4.689   4.937  1.1129  0.5902 -0.4141
 6100TIP3   OH239790   1.095   5.203  16.370 -0.1550 -0.1405 -0.0117
 6100TIP3    H139791   1.088   5.196  16.465 -2.1954 -0.9038 -0.1578
 6100TIP3    H239792   1.188   5.220  16.353  0.0722  1.0801  2.1519
 6101TIP3   OH239793   2.850   1.693   3.649 -0.2404  0.1260  0.3881
 6101TIP3    H139794   2.886   1.620   3.698 -0.7633 -1.1913 -1.0892
 6101TIP3    H239795   2.887   1.771   3.690  1.0371 -0.9967  1.4500
 6102TIP3   OH239796   6.644   0.014  15.862 -0.4815  0.0480  0.2592
 6102TIP3    H139797   6.671  -0.007  15.952  0.0531  0.5015  0.2129
 6102TIP3    H239798   6.704   0.084  15.836 -0.2228 -0.5179 -0.6808
 6103TIP3   OH239799   0.239   5.533  16.247 -0.4098  0.4779  0.2950
 6103TIP3    H139800   0.237   5.443  16.215  1.0984  0.8994 -1.1517
 6103TIP3    H239801   0.248   5.525  16.342 -0.1566 -0.8969  0.1705
 6104TIP3   OH239802   2.910   0.996  14.245 -0.4311  0.4949  0.4469
 6104TIP3    H139803   2.887   1.088  14.242 -1.0969  0.4420  2.3392
 6104TIP3    H239804   2.998   0.995  14.283 -0.1942  0.3736 -0.1028
 6105TIP3   OH239805   3.629   5.375  15.728  0.0969  0.1219 -0.2619
 6105TIP3    H139806   3.624   5.402  15.636  0.9296 -1.3078 -0.7580
 6105TIP3    H239807   3.655   5.283  15.724 -2.5022 -0.7707  1.3349
 6106TIP3   OH239808   5.834   5.441  16.287 -0.3393 -0.3882 -0.2906
 6106TIP3    H139809   5.789   5.386  16.223  2.0461 -0.5897 -1.9077
 6106TIP3    H239810   5.923   5.449  16.254  1.6179 -1.9745  3.8511
 6107TIP3   OH239811   0.929   6.482   4.406  0.2956 -0.0606 -0.1834
 6107TIP3    H139812   0.923   6.497   4.501 -1.3387 -1.1133 -0.0816
 6107TIP3    H239813   0.902   6.565   4.367  0.4363  0.2091  0.2896
 6108TIP3   OH239814   2.580   1.978   0.434 -0.1193 -0.9314 -0.1716
 6108TIP3    H139815   2.516   1.945   0.372  0.2765 -0.1853 -0.9932
 6108TIP3    H239816   2.613   2.059   0.395 -1.1527  0.5423  1.8292
 6109TIP3   OH239817   6.349   6.635   0.708 -0.2057  0.1294  0.2009
 6109TIP3    H139818   6.338   6.603   0.797  0.3060  1.0145  0.5965
 6109TIP3    H239819   6.442   6.619   0.688  0.4259  2.5038  0.9062
 6110TIP3   OH239820   1.993   6.337   4.707 -0.3777  0.0790 -0.5870
 6110TIP3    H139821   1.920   6.334   4.646 -0.0749  1.4026 -1.0434
 6110TIP3    H239822   2.068   6.363   4.654  0.1116  0.2092  0.1518
 6111TIP3   OH239823   0.644   4.385  12.751  0.1783  1.1094 -0.7523
 6111TIP3    H139824   0.654   4.413  12.842  0.5397  0.7678 -0.6872
 6111TIP3    H239825   0.649   4.290  12.754 -0.0419  1.0848 -1.1035
 6112TIP3   OH239826   6.709   4.207   2.659  0.5688 -0.2649  0.2199
 6112TIP3    H139827   6.751   4.270   2.719  0.4298 -1.4596  1.6314
 6112TIP3    H239828   6.668   4.262   2.592  0.0448  1.1980  1.6618
 6113TIP3   OH239829   1.885   2.829  14.876  0.5006  0.4221  0.4616
 6113TIP3    H139830   1.879   2.922  14.855 -1.6808  0.5300  1.3383
 6113TIP3    H239831   1.840   2.785  14.804  0.6362  0.1328  0.5533
 6114TIP3   OH239832   2.320   1.822  14.018  0.3218 -0.2635  0.1535
 6114TIP3    H139833   2.282   1.864  13.940  1.9985 -0.1427 -0.6580
 6114TIP3    H239834   2.369   1.892  14.061  2.4821 -1.1005 -0.7722
 6115TIP3   OH239835   2.247   3.317  16.659  0.3703 -0.4038  0.2650
 6115TIP3    H139836   2.266   3.407  16.633  0.8243 -1.0586 -1.8235
 6115TIP3    H239837   2.171   3.324  16.717  0.3131  1.2909  0.0277
 6116TIP3   OH239838   5.951   1.329  13.066 -0.5762  0.0801  0.3272
 6116TIP3    H139839   5.971   1.243  13.102 -1.0423 -0.3103 -0.3211
 6116TIP3    H239840   6.034   1.361  13.031 -0.5906 -0.5359 -0.2982
 6117TIP3   OH239841   6.760   4.967  16.292 -0.3668  0.0550 -0.0556
 6117TIP3    H139842   6.682   4.993  16.243 -0.0540 -1.1728 -1.2541
 6117TIP3    H239843   6.772   4.874  16.271  0.2837 -0.3035  1.6884
 6118TIP3   OH239844   0.978   1.104   4.045  0.1694 -0.2107 -0.9556
 6118TIP3    H139845   1.037   1.036   4.010  0.9126 -0.5515  0.8729
 6118TIP3    H239846   0.903   1.103   3.985 -0.0284 -2.9128 -0.7865
 6119TIP3   OH239847   1.069   4.716   3.663 -0.2045  0.0302 -0.1737
 6119TIP3    H139848   0.988   4.669   3.643  0.1752  0.1752 -2.2245
 6119TIP3    H239849   1.135   4.675   3.608  0.1104  2.9703 -2.1970
 6120TIP3   OH239850   0.909   1.514  11.028 -0.2931 -0.9186 -0.1688
 6120TIP3    H139851   0.948   1.481  10.947 -0.6388 -1.2286 -0.2117
 6120TIP3    H239852   0.833   1.458  11.043  0.0680 -1.2038  0.6540
 6121TIP3   OH239853   0.101   1.942  12.093  0.1130  0.7107  0.0425
 6121TIP3    H139854   0.172   1.986  12.139 -0.3089 -0.1997  1.6203
 6121TIP3    H239855   0.127   1.944  12.001  0.8977  2.7490  0.2575
 6122TIP3   OH239856   1.082   0.311  15.780  0.4343 -0.3187 -0.5166
 6122TIP3    H139857   1.108   0.359  15.859  1.6871 -3.2846  1.0029
 6122TIP3    H239858   1.164   0.279  15.743 -0.3873 -2.4455 -0.6289
 6123TIP3   OH239859   6.389   0.289   2.531  0.0646  0.0496 -0.0131
 6123TIP3    H139860   6.421   0.364   2.482 -1.0229  0.3217 -0.3474
 6123TIP3    H239861   6.431   0.213   2.490  0.6541  0.4157 -0.0967
 6124TIP3   OH239862   3.365   6.408  16.418  0.7022 -0.4726 -0.5709
 6124TIP3    H139863   3.326   6.411  16.330  1.7577  1.0230 -1.0312
 6124TIP3    H239864   3.446   6.358  16.406  0.7071 -0.5086 -0.3832
 6125TIP3   OH239865   6.386   0.547  12.805 -0.3738 -0.4905 -0.1924
 6125TIP3    H139866   6.470   0.593  12.807 -0.4773 -0.3112  1.3303
 6125TIP3    H239867   6.333   0.591  12.872 -1.3070 -1.2865 -0.3870
 6126TIP3   OH239868   2.950   5.909  12.536  0.0628  0.2501  0.4352
 6126TIP3    H139869   3.016   5.967  12.573 -0.1961  0.5008  0.5162
 6126TIP3    H239870   2.987   5.878  12.453  0.0480  0.8330  0.2082
 6127TIP3   OH239871   2.081   1.583  16.821 -0.2905 -0.3305 -0.2479
 6127TIP3    H139872   2.144   1.575  16.893  1.3366 -1.1289 -1.6719
 6127TIP3    H239873   2.114   1.656  16.769  0.2194 -1.5154 -1.6749
 6128TIP3   OH239874   4.481   4.517  12.905 -0.7882 -0.2111  0.1848
 6128TIP3    H139875   4.388   4.496  12.894 -0.5303 -0.9577 -0.7274
 6128TIP3    H239876   4.513   4.452  12.968 -1.0767  0.6219  1.2022
 6129TIP3   OH239877   0.001   5.797  15.757 -0.3426  0.3364 -0.1411
 6129TIP3    H139878  -0.076   5.836  15.797  0.1995 -0.1071  1.4429
 6129TIP3    H239879   0.045   5.752  15.830  1.2926  0.4090 -1.0369
 6130TIP3   OH239880   2.269   6.414   5.820  0.1281  0.7953 -0.3271
 6130TIP3    H139881   2.334   6.354   5.856  0.2902  1.2611  0.1672
 6130TIP3    H239882   2.255   6.382   5.731  3.0990  2.2459 -1.4779
 6131TIP3   OH239883   1.540   5.976  16.097  0.0135 -0.0558 -0.5808
 6131TIP3    H139884   1.466   6.036  16.089 -0.1018 -0.2807 -1.3199
 6131TIP3    H239885   1.614   6.025  16.059  0.5274  0.6142  1.1963
 6132TIP3   OH239886   0.207   3.203  15.685 -0.0030  0.6410  0.1117
 6132TIP3    H139887   0.284   3.215  15.741  0.5777  1.0561 -0.7689
 6132TIP3    H239888   0.133   3.205  15.747  0.5810  1.6293  0.8215
 6133TIP3   OH239889   1.629   0.532  12.405  0.9177  0.0659 -0.3364
 6133TIP3    H139890   1.599   0.466  12.343  0.8060 -0.6677  0.4755
 6133TIP3    H239891   1.556   0.593  12.413 -0.0211 -1.1640  0.8884
 6134TIP3   OH239892   5.557   5.799  16.185 -0.5532 -0.5175  0.3244
 6134TIP3    H139893   5.566   5.853  16.263 -0.6152 -0.3520  0.2167
 6134TIP3    H239894   5.630   5.737  16.190 -1.8974 -2.1011  1.7698
 6135TIP3   OH239895   2.976   4.894  14.053  0.3133 -0.1192 -0.0428
 6135TIP3    H139896   2.962   4.858  14.141  1.9977 -0.4074  0.1299
 6135TIP3    H239897   3.036   4.833  14.011  2.3304  1.8349 -0.1522
 6136TIP3   OH239898   5.685   2.827   4.100 -0.0592 -0.1724 -0.1670
 6136TIP3    H139899   5.665   2.901   4.157 -0.3720  0.8330 -1.5286
 6136TIP3    H239900   5.603   2.811   4.052  0.1513 -1.0811 -0.2377
 6137TIP3   OH239901   4.100   1.480   4.027 -0.2400  0.5281  0.4026
 6137TIP3    H139902   4.168   1.458   3.963 -0.6715 -0.5636  0.3110
 6137TIP3    H239903   4.132   1.443   4.109 -0.4158  0.5828  0.4963
 6138TIP3   OH239904   2.478   4.720   4.292 -0.3614 -0.5707 -0.1489
 6138TIP3    H139905   2.564   4.682   4.276 -0.9562 -2.5216  0.8593
 6138TIP3    H239906   2.434   4.656   4.348 -2.0096  0.9860  0.4418
 6139TIP3   OH239907   1.786   5.600  14.974  0.3211  0.0697 -0.7475
 6139TIP3    H139908   1.798   5.505  14.963  0.0359 -0.0144 -0.3518
 6139TIP3    H239909   1.830   5.621  15.056 -0.8703  0.0165 -0.0666
 6140TIP3   OH239910   3.643   0.560   3.751 -0.5036  0.1939 -0.0683
 6140TIP3    H139911   3.698   0.632   3.782 -0.8043  0.1714  0.5291
 6140TIP3    H239912   3.652   0.563   3.656 -0.6916  1.1612 -0.0688
 6141TIP3   OH239913   4.383   6.335   3.036  0.4877 -0.0890 -0.4586
 6141TIP3    H139914   4.383   6.415   2.983 -0.8041  0.0699 -0.2319
 6141TIP3    H239915   4.463   6.342   3.088  0.3275  1.1299 -0.3358
 6142TIP3   OH239916   5.517   0.064  11.471 -0.7517  0.1348 -0.3504
 6142TIP3    H139917   5.451   0.079  11.539 -0.5823  2.4091 -0.6017
 6142TIP3    H239918   5.594   0.112  11.502 -0.5028  0.7783 -1.8716
 6143TIP3   OH239919   5.527   6.029   3.480 -0.2374  0.4662 -0.0714
 6143TIP3    H139920   5.481   6.047   3.397 -1.2224 -2.5971 -0.3139
 6143TIP3    H239921   5.614   6.000   3.453 -0.2538  0.3289  0.0238
 6144TIP3   OH239922   4.908   3.857  11.052 -0.2778 -0.5656  0.1415
 6144TIP3    H139923   4.981   3.909  11.087 -0.2027  0.0963 -0.9491
 6144TIP3    H239924   4.916   3.772  11.095 -0.4469  0.3323  2.0373
 6145TIP3   OH239925   2.649   1.950  10.451  0.5872  0.0802 -0.1737
 6145TIP3    H139926   2.581   2.001  10.496 -0.3496 -0.7669 -0.5991
 6145TIP3    H239927   2.647   1.982  10.361 -2.3322 -2.8759 -1.3289
 6146TIP3   OH239928   0.208   5.609  12.527  0.3612  0.1590 -0.3095
 6146TIP3    H139929   0.132   5.563  12.561  0.0967  0.9504  0.1851
 6146TIP3    H239930   0.210   5.586  12.434  1.0607 -1.9701  0.1797
 6147TIP3   OH239931   0.923   3.251   5.888  0.4011  0.0067 -0.3306
 6147TIP3    H139932   0.863   3.303   5.942 -0.1586 -0.5413 -0.4212
 6147TIP3    H239933   0.999   3.308   5.876 -0.2669  0.8648 -0.5504
 6148TIP3   OH239934   5.842   0.276   6.982 -0.5392 -0.2279  0.2468
 6148TIP3    H139935   5.792   0.229   6.915  0.7455 -2.2331  0.6066
 6148TIP3    H239936   5.894   0.340   6.934 -2.0507  0.6447 -0.2997
 6149TIP3   OH239937   0.714   0.364   3.254 -0.2877  0.1818  0.3797
 6149TIP3    H139938   0.701   0.415   3.334  1.5784  0.8755  0.3072
 6149TIP3    H239939   0.652   0.292   3.260  0.3041 -0.1991  2.8099
 6150TIP3   OH239940   3.948   5.278   5.423  0.9581 -0.2252  0.5643
 6150TIP3    H139941   3.994   5.358   5.397  0.3756 -0.1037 -0.1364
 6150TIP3    H239942   3.857   5.307   5.437  0.3875 -1.0170 -1.2183
 6151TIP3   OH239943   5.787   5.499   1.721 -0.4930 -0.1989  0.0666
 6151TIP3    H139944   5.698   5.499   1.756 -0.4921  3.0424  0.3890
 6151TIP3    H239945   5.843   5.516   1.796 -0.2018  3.3501 -0.7536
 6152TIP3   OH239946   2.800   4.990   5.877 -0.2600  0.0247  0.5724
 6152TIP3    H139947   2.856   4.934   5.823 -0.1632  1.5251 -0.9683
 6152TIP3    H239948   2.714   4.948   5.875  0.0563 -0.6139  0.2975
 6153TIP3   OH239949   4.253   2.139   0.944  0.4955  0.2635  0.1261
 6153TIP3    H139950   4.226   2.065   0.998 -0.7468  0.3757 -0.3261
 6153TIP3    H239951   4.342   2.117   0.917  1.3922  0.4544  2.6381
 6154TIP3   OH239952   4.056   3.479   2.803 -0.3579 -0.0400 -0.3579
 6154TIP3    H139953   4.046   3.400   2.856 -1.4685  0.7982  0.7280
 6154TIP3    H239954   3.967   3.515   2.796 -0.5357 -0.7648 -3.8880
 6155TIP3   OH239955   2.877   0.362   0.196  0.4769 -0.1569  0.1073
 6155TIP3    H139956   2.919   0.366   0.282 -0.3158  0.7093  0.4619
 6155TIP3    H239957   2.894   0.272   0.166 -1.3497 -1.3198  2.2474
 6156TIP3   OH239958   5.780   5.089  13.571  0.4287  0.0133  0.6595
 6156TIP3    H139959   5.855   5.120  13.622  0.6661 -0.4753  0.6124
 6156TIP3    H239960   5.790   5.132  13.486  0.5672  0.0809  0.7093
 6157TIP3   OH239961   1.918   2.782  15.973 -0.5298  0.1206 -0.1554
 6157TIP3    H139962   1.959   2.699  15.951 -0.0687  0.2402  0.2385
 6157TIP3    H239963   1.829   2.759  16.000 -0.1920 -0.3232  0.6121
 6158TIP3   OH239964   1.040   3.243  15.187 -0.1649 -0.5167  0.4056
 6158TIP3    H139965   1.082   3.315  15.233  0.7041 -0.0565 -1.0398
 6158TIP3    H239966   0.995   3.285  15.113  3.9338 -1.6446 -3.1448
 6159TIP3   OH239967   2.090   1.189  14.143 -0.8117 -0.2132 -0.3736
 6159TIP3    H139968   2.110   1.198  14.050 -2.1421  0.3604 -0.6170
 6159TIP3    H239969   2.083   1.094  14.157  1.6374 -0.4472 -0.3342
 6160TIP3   OH239970   4.134   2.337   4.680  0.5584 -0.3779 -0.3372
 6160TIP3    H139971   4.096   2.250   4.691 -1.6046  0.3414 -1.5081
 6160TIP3    H239972   4.108   2.384   4.759 -1.9956  0.4028 -1.5626
 6161TIP3   OH239973   3.132   0.644  13.947  0.2697  0.1030  0.2012
 6161TIP3    H139974   3.101   0.640  13.856 -1.0503 -0.1246  0.6439
 6161TIP3    H239975   3.219   0.604  13.944 -0.1180 -0.7026 -0.8087
 6162TIP3   OH239976   1.906   1.568   5.434 -0.2707  0.7353 -0.0559
 6162TIP3    H139977   1.893   1.599   5.524  0.3097 -1.8364  1.0176
 6162TIP3    H239978   1.853   1.488   5.429  0.0541  0.6007 -1.8632
 6163TIP3   OH239979   4.069   4.762  13.690 -0.1006 -0.1219 -0.1585
 6163TIP3    H139980   3.994   4.742  13.634 -0.1056  0.8031 -0.4902
 6163TIP3    H239981   4.075   4.687  13.749 -0.5922 -0.7342 -0.8659
 6164TIP3   OH239982   6.101   1.464  11.282 -0.1778  0.0579  0.0806
 6164TIP3    H139983   6.192   1.449  11.259  0.3961 -0.0504  2.2242
 6164TIP3    H239984   6.060   1.378  11.275  0.1105 -0.0719 -0.0258
 6165TIP3   OH239985   6.455   1.908  17.036 -0.2287  0.3685 -0.2088
 6165TIP3    H139986   6.446   2.002  17.027 -0.1574  0.3160 -0.9288
 6165TIP3    H239987   6.400   1.885  17.111 -0.5782  0.9267 -0.2880
 6166TIP3   OH239988   3.699   2.168  12.880  0.0273 -0.0460  0.0587
 6166TIP3    H139989   3.739   2.164  12.793  1.5701 -0.4948  0.7414
 6166TIP3    H239990   3.683   2.261  12.895  0.1124  0.0725 -0.5447
 6167TIP3   OH239991   6.299   2.516  15.321  0.6894  0.1221  0.6509
 6167TIP3    H139992   6.309   2.421  15.321  1.6570  0.1514 -1.8691
 6167TIP3    H239993   6.301   2.541  15.413 -2.8373 -2.5533  1.6585
 6168TIP3   OH239994   6.410   3.985   1.397 -0.0903 -0.1142 -0.2087
 6168TIP3    H139995   6.380   4.075   1.413  1.6288  0.7024 -1.2649
 6168TIP3    H239996   6.442   3.956   1.483  0.3241  0.6956 -0.0728
 6169TIP3   OH239997   3.143   3.440   3.529  0.1782  1.0221  0.4077
 6169TIP3    H139998   3.236   3.454   3.546  0.8578 -0.9362 -1.3879
 6169TIP3    H239999   3.121   3.362   3.580 -0.1827  0.7887 -0.1035
 6170TIP3   OH240000   6.638   2.447  14.310 -0.4105 -0.2033 -0.2306
 6170TIP3    H140001   6.544   2.457  14.297 -0.2965  0.5378 -0.5159
 6170TIP3    H240002   6.655   2.356  14.285 -1.3237 -0.9203  1.5611
 6171TIP3   OH240003   6.586   3.169  10.509  0.6292 -0.1405  0.3810
 6171TIP3    H140004   6.534   3.165  10.589  0.4184 -0.8351  0.2197
 6171TIP3    H240005   6.582   3.080  10.473  0.1332  0.3212 -0.7624
 6172TIP3   OH240006   6.803   0.489  15.748  0.4775  0.3434  0.1887
 6172TIP3    H140007   6.881   0.498  15.803  0.5865  1.9038 -0.1756
 6172TIP3    H240008   6.837   0.485  15.659  0.1761  0.2243  0.0776
 6173TIP3   OH240009   5.714   0.730  12.807 -0.1214 -0.7370 -0.0986
 6173TIP3    H140010   5.725   0.636  12.789 -1.0005 -1.3813  2.3277
 6173TIP3    H240011   5.803   0.762  12.820  0.0863 -2.0355  2.3226
 6174TIP3   OH240012   0.546   2.458   0.804  0.0486 -0.0687  0.8794
 6174TIP3    H140013   0.587   2.469   0.890 -2.5623  2.1511  2.0293
 6174TIP3    H240014   0.464   2.412   0.823  0.2993 -1.2440 -0.7533
 6175TIP3   OH240015   6.834   1.009   2.151 -0.1741 -0.2873  0.3614
 6175TIP3    H140016   6.739   1.012   2.160 -0.3454  1.6933 -1.2314
 6175TIP3    H240017   6.868   1.034   2.237 -1.1304  0.0889  0.6411
 6176TIP3   OH240018   6.073   3.123   1.389 -0.0497  0.6522  0.0494
 6176TIP3    H140019   5.979   3.138   1.375 -0.1315  1.1182  1.0607
 6176TIP3    H240020   6.078   3.044   1.442  0.0544  1.3522  1.1197
 6177TIP3   OH240021   6.839   5.449  13.312 -0.6636 -0.2793 -0.9592
 6177TIP3    H140022   6.775   5.520  13.311  0.0235  0.3570 -1.3984
 6177TIP3    H240023   6.917   5.487  13.271  0.2539 -0.7955  0.2602
 6178TIP3   OH240024   2.865   3.279  12.691 -0.1595  0.1691 -0.6660
 6178TIP3    H140025   2.949   3.302  12.650  0.3538 -0.6249 -0.0988
 6178TIP3    H240026   2.809   3.251  12.619 -0.1031  1.1868 -1.1110
 6179TIP3   OH240027   1.359   2.853  14.373 -0.5405  0.2471 -0.0750
 6179TIP3    H140028   1.362   2.873  14.279 -4.3349  2.0839 -0.0216
 6179TIP3    H240029   1.383   2.936  14.415 -0.8015  0.0288  0.5130
 6180TIP3   OH240030   0.745   2.271   6.054  0.0196  0.3483 -0.1300
 6180TIP3    H140031   0.666   2.234   6.095 -0.6255  1.1254 -0.6333
 6180TIP3    H240032   0.808   2.199   6.054 -1.2477 -0.8355 -1.2474
 6181TIP3   OH240033   2.613   3.618  11.859  0.1300 -0.0517 -0.1321
 6181TIP3    H140034   2.697   3.575  11.845  0.0226  0.2732 -2.1190
 6181TIP3    H240035   2.635   3.702  11.898  0.9304  0.6717 -2.0087
 6182TIP3   OH240036   6.516   2.353  16.670 -0.1316  0.3126 -0.3777
 6182TIP3    H140037   6.606   2.384  16.682 -0.1588  0.3680 -0.3186
 6182TIP3    H240038   6.526   2.262  16.644 -0.0769  0.1111  0.3127
 6183TIP3   OH240039   1.203   6.390   2.146  0.4244  0.1574  0.0241
 6183TIP3    H140040   1.140   6.385   2.075 -0.9462  1.3939  1.0890
 6183TIP3    H240041   1.270   6.326   2.124 -1.3970 -1.4979 -0.9648
 6184TIP3   OH240042   0.003   0.964   1.850 -0.0212 -1.0250 -0.1446
 6184TIP3    H140043  -0.087   0.977   1.820 -0.1453 -0.2013  0.5259
 6184TIP3    H240044  -0.004   0.968   1.946  0.6042 -1.8442 -0.0582
 6185TIP3   OH240045   5.826   1.442   2.608  0.2881  0.4506 -0.1985
 6185TIP3    H140046   5.879   1.363   2.620 -1.0991 -0.2816  1.5286
 6185TIP3    H240047   5.860   1.482   2.528  0.2882 -2.5036 -1.8221
 6186TIP3   OH240048   3.331   2.231   6.072  0.1549  0.1692  0.6762
 6186TIP3    H140049   3.365   2.147   6.104 -1.6931 -0.7791  0.2927
 6186TIP3    H240050   3.302   2.277   6.150  0.1688 -0.0279  0.7979
 6187TIP3   OH240051   2.468   1.912   4.147 -0.1124 -0.3656 -0.4370
 6187TIP3    H140052   2.455   1.830   4.100 -0.7479 -0.8770  0.6054
 6187TIP3    H240053   2.395   1.916   4.209  1.1864 -0.1340  1.1254
 6188TIP3   OH240054   3.057   5.108   6.047  0.2555  0.1584 -0.4110
 6188TIP3    H140055   3.113   5.031   6.054 -0.5861 -0.5842 -1.5137
 6188TIP3    H240056   2.984   5.089   6.106  0.4248  0.4484 -0.1103
 6189TIP3   OH240057   0.685   0.463   0.503  0.3727  0.0196 -0.3492
 6189TIP3    H140058   0.764   0.466   0.449  0.4143 -0.0520 -0.2931
 6189TIP3    H240059   0.613   0.465   0.441  0.3419  2.7801 -0.3646
 6190TIP3   OH240060   3.680   6.253   2.969  0.3322  0.8109  0.6372
 6190TIP3    H140061   3.632   6.336   2.961 -0.1778  0.4279 -0.5284
 6190TIP3    H240062   3.753   6.261   2.909 -2.0960 -1.1357 -2.9374
 6191TIP3   OH240063   5.533   2.477  14.158 -0.4777  0.0009 -0.6428
 6191TIP3    H140064   5.604   2.540  14.141 -1.4036  1.5036  0.7822
 6191TIP3    H240065   5.571   2.413  14.217  0.2170 -0.2827 -1.3801
 6192TIP3   OH240066   5.217   6.597  12.008  0.2810  0.1567  0.3038
 6192TIP3    H140067   5.212   6.539  12.084 -0.9492 -1.0544 -0.6393
 6192TIP3    H240068   5.275   6.552  11.947  1.6303  1.3417  0.6740
 6193TIP3   OH240069   3.104   1.679   6.664 -0.5786  0.3220 -0.2407
 6193TIP3    H140070   3.044   1.679   6.589 -0.7802  0.0454 -0.0826
 6193TIP3    H240071   3.135   1.769   6.671  0.3153  0.1220 -1.3482
 6194TIP3   OH240072   4.770   5.710   2.277 -0.2682 -0.3454 -0.3325
 6194TIP3    H140073   4.752   5.676   2.365 -0.4369  1.0491  0.1918
 6194TIP3    H240074   4.687   5.749   2.249 -0.0567 -0.2699 -0.8724
 6195TIP3   OH240075   5.235   3.654   5.893  0.0576 -0.4167 -0.6414
 6195TIP3    H140076   5.310   3.660   5.951  1.2722  0.2983 -2.2240
 6195TIP3    H240077   5.159   3.669   5.950  1.1791  0.1676  0.7449
 6196TIP3   OH240078   6.827   2.578   1.173  0.2526 -0.3095 -0.0280
 6196TIP3    H140079   6.916   2.610   1.159  0.0031  0.0573 -0.8829
 6196TIP3    H240080   6.826   2.546   1.263  1.0215  0.4254  0.2530
 6197TIP3   OH240081   1.306   6.227   6.624 -0.5123 -0.2490  0.3230
 6197TIP3    H140082   1.225   6.236   6.574 -0.5289 -0.2405  0.3514
 6197TIP3    H240083   1.373   6.212   6.558 -0.5826 -0.5596  0.3194
 6198TIP3   OH240084   0.792   5.111  13.641 -0.4304  0.1878  0.2384
 6198TIP3    H140085   0.749   5.083  13.560 -0.8932  1.4893  0.0224
 6198TIP3    H240086   0.778   5.038  13.702 -0.0845 -0.8039 -0.8365
 6199TIP3   OH240087   5.086   2.401  13.393 -0.4675 -0.0490  0.1949
 6199TIP3    H140088   5.010   2.451  13.423 -0.2661 -0.4284  1.4129
 6199TIP3    H240089   5.105   2.341  13.465  0.6513 -0.3483 -0.3226
 6200TIP3   OH240090   6.128   0.693  13.183 -0.1587  0.4537  0.5260
 6200TIP3    H140091   6.191   0.705  13.254  0.5942  0.2259 -0.0862
 6200TIP3    H240092   6.178   0.649  13.114 -1.0854 -0.0670  0.1636
 6201TIP3   OH240093   2.040   5.345   5.490 -0.0227 -0.5949 -0.2606
 6201TIP3    H140094   2.100   5.326   5.562 -0.7795 -1.0448  0.2689
 6201TIP3    H240095   1.976   5.274   5.493 -0.7204  0.0027 -0.6534
 6202TIP3   OH240096   5.182   3.643  11.072  0.2411  0.0811 -0.3356
 6202TIP3    H140097   5.128   3.591  11.012  0.1688 -0.1191 -0.0998
 6202TIP3    H240098   5.258   3.668  11.020 -0.2623  0.7016 -0.7925
 6203TIP3   OH240099   4.535   0.906   3.927 -0.3859  0.1796 -0.0311
 6203TIP3    H140100   4.563   0.944   4.010 -1.9189  2.3673 -0.4198
 6203TIP3    H240101   4.607   0.923   3.867  0.6485 -1.2360  0.7387
 6204TIP3   OH240102   4.158   3.176   0.849  0.1896 -0.0749 -0.5433
 6204TIP3    H140103   4.063   3.164   0.848  0.1210 -0.4229  2.3553
 6204TIP3    H240104   4.190   3.116   0.782 -1.5246 -0.9177 -0.6727
 6205TIP3   OH240105   2.418   4.911   2.662  0.1950  0.6529 -0.7532
 6205TIP3    H140106   2.501   4.949   2.692 -0.1988  0.3193  0.8513
 6205TIP3    H240107   2.411   4.938   2.571  2.7187 -0.4008 -1.3565
 6206TIP3   OH240108   0.207   2.138  16.309  0.0673  0.3534  0.5124
 6206TIP3    H140109   0.198   2.131  16.213 -0.6850  0.0312  0.5964
 6206TIP3    H240110   0.144   2.206  16.333  0.7388  0.9189  0.7142
 6207TIP3   OH240111   6.049   3.996  13.052 -0.2986  0.0938 -0.0006
 6207TIP3    H140112   5.969   4.046  13.064  0.0062  1.2299 -2.1909
 6207TIP3    H240113   6.068   4.003  12.959  2.2253 -0.3454  0.4102
 6208TIP3   OH240114   2.463   3.989  17.149  0.1391 -0.1693 -0.3714
 6208TIP3    H140115   2.450   3.896  17.135  1.6685 -0.4963  0.1085
 6208TIP3    H240116   2.539   3.994  17.207  0.7798  1.3878 -1.2550
 6209TIP3   OH240117   6.577   5.607   3.621  0.5038 -0.3203 -0.0462
 6209TIP3    H140118   6.606   5.525   3.660 -0.4851 -1.7622 -2.1771
 6209TIP3    H240119   6.657   5.659   3.614  1.0914 -0.9329  1.6201
 6210TIP3   OH240120   2.350   2.913   5.696  0.1914  0.5084  0.0663
 6210TIP3    H140121   2.386   2.837   5.651 -0.5597  0.2774 -0.1614
 6210TIP3    H240122   2.400   2.920   5.777  0.9476  0.3863 -0.3861
 6211TIP3   OH240123   0.379   4.667   3.310  0.0988 -0.2143 -0.6706
 6211TIP3    H140124   0.307   4.641   3.367  1.4458 -0.0699  1.2106
 6211TIP3    H240125   0.396   4.589   3.257 -0.6897 -0.6392 -0.3218
 6212TIP3   OH240126   3.930   4.557  12.053 -0.1022  0.6658 -0.1079
 6212TIP3    H140127   3.902   4.507  12.130  1.2861  0.3712  0.2303
 6212TIP3    H240128   3.878   4.521  11.981 -0.4755  0.0436  0.4616
 6213TIP3   OH240129   6.578   3.781   2.906  0.5086  0.4361  0.0904
 6213TIP3    H140130   6.507   3.785   2.970  0.6828 -0.0896  0.3248
 6213TIP3    H240131   6.627   3.702   2.930  0.8429  0.4874 -0.4126
 6214TIP3   OH240132   4.773   4.380  15.803  0.0381  0.2712 -0.4086
 6214TIP3    H140133   4.802   4.401  15.714  2.6049 -0.7093  0.0964
 6214TIP3    H240134   4.774   4.284  15.806  0.2108  0.2987  0.7349
 6215TIP3   OH240135   0.858   6.254  14.282 -0.1469  0.1564  0.1728
 6215TIP3    H140136   0.951   6.270  14.294 -0.2398  1.7914 -0.8834
 6215TIP3    H240137   0.851   6.162  14.257  1.2457  0.1892 -0.3772
 6216TIP3   OH240138   3.032   0.294   5.603  0.0612 -0.7717 -0.1691
 6216TIP3    H140139   3.119   0.257   5.585  0.2740 -0.3656 -0.0011
 6216TIP3    H240140   2.993   0.233   5.665 -0.1329 -1.4365 -0.9288
 6217TIP3   OH240141   1.052   6.432  13.669 -0.1370  0.2590  0.0885
 6217TIP3    H140142   1.019   6.355  13.714  0.1189 -0.2935 -0.6384
 6217TIP3    H240143   1.098   6.482  13.736 -0.0745 -0.3566  0.5120
 6218TIP3   OH240144   0.067   5.598  14.030  0.3025 -0.7812  0.5095
 6218TIP3    H140145   0.044   5.614  14.122  0.8666 -1.0535  0.6994
 6218TIP3    H240146  -0.017   5.586  13.986  0.0133 -0.3198  0.9301
 6219TIP3   OH240147   2.393   1.824   6.285  0.7839 -0.4750 -0.6342
 6219TIP3    H140148   2.473   1.804   6.237  0.3817  2.1713 -2.6757
 6219TIP3    H240149   2.400   1.917   6.306 -0.9075 -0.6189  0.9040
 6220TIP3   OH240150   3.404   0.183   5.699  0.2747  0.2799 -0.2011
 6220TIP3    H140151   3.349   0.257   5.724  1.1563  1.0717 -0.5239
 6220TIP3    H240152   3.486   0.223   5.669  0.0507 -0.7229 -2.3229
 6221TIP3   OH240153   5.920   3.821   6.393  0.4820  0.6234  0.2484
 6221TIP3    H140154   5.941   3.743   6.443  2.3197  0.0069 -1.3646
 6221TIP3    H240155   5.904   3.889   6.459  0.1238 -0.7766  1.6595
 6222TIP3   OH240156   1.890   0.841   1.518 -0.0182  0.3310 -0.3719
 6222TIP3    H140157   1.944   0.901   1.569 -0.3138  2.7697 -2.7453
 6222TIP3    H240158   1.800   0.865   1.540 -0.1641 -0.4585 -0.0610
 6223TIP3   OH240159   4.449   2.193  16.447  0.3831  0.4992  0.2041
 6223TIP3    H140160   4.389   2.142  16.392 -1.4313  0.8902  1.7153
 6223TIP3    H240161   4.466   2.272  16.397 -1.2207  0.8476  0.1495
 6224TIP3   OH240162   5.913   3.841  15.601 -0.1595  0.2585  0.1705
 6224TIP3    H140163   5.868   3.849  15.685 -0.4470 -0.2764  0.0738
 6224TIP3    H240164   5.884   3.918  15.551  1.8038  1.8750  1.3477
 6225TIP3   OH240165   0.340   5.414  14.195  0.4412 -0.5446 -0.0386
 6225TIP3    H140166   0.302   5.393  14.280 -0.8412  0.4270 -0.3348
 6225TIP3    H240167   0.324   5.508  14.184  0.1462 -0.7389 -1.5505
 6226TIP3   OH240168   3.345   6.643   1.367  0.0896  0.3375  0.1447
 6226TIP3    H140169   3.405   6.574   1.338  0.5863  1.3411 -1.2997
 6226TIP3    H240170   3.383   6.672   1.450  1.6462  0.9475 -0.7292
 6227TIP3   OH240171   0.092   5.636  15.520 -0.1052  0.1496 -0.4772
 6227TIP3    H140172   0.069   5.644  15.613  0.1946  1.0765 -0.4744
 6227TIP3    H240173   0.010   5.616  15.476 -0.1307 -1.0390  0.0681
 6228TIP3   OH240174   0.008   4.815   4.792 -0.7422 -0.1160 -0.2002
 6228TIP3    H140175  -0.066   4.840   4.847 -0.6836 -1.1330  0.3707
 6228TIP3    H240176   0.035   4.730   4.826  0.5860  0.1660 -0.5147
 6229TIP3   OH240177   3.268   2.316   3.703  0.0517  0.3386  0.9156
 6229TIP3    H140178   3.324   2.241   3.683 -0.4091 -0.2391  1.7622
 6229TIP3    H240179   3.302   2.349   3.787 -1.4653 -0.6029  1.9283
 6230TIP3   OH240180   1.140   0.039  11.681  0.0175  0.5072  0.5255
 6230TIP3    H140181   1.058  -0.009  11.691 -0.1016 -0.1668 -2.5919
 6230TIP3    H240182   1.122   0.101  11.610  1.9740  0.9083  0.3354
 6231TIP3   OH240183   0.759   0.592   4.224 -0.2336  0.0606  0.6061
 6231TIP3    H140184   0.711   0.527   4.173  0.8992 -0.7785  0.5659
 6231TIP3    H240185   0.739   0.676   4.182  0.1208 -0.5389 -0.7863
 6232TIP3   OH240186   0.519   3.217  16.920  0.1183 -0.0497  0.8034
 6232TIP3    H140187   0.521   3.240  16.827 -1.2313  0.1757  0.8111
 6232TIP3    H240188   0.561   3.131  16.925  0.1575 -0.0855 -0.0245
 6233TIP3   OH240189   2.027   0.816  12.528 -0.3713  0.4489 -0.3987
 6233TIP3    H140190   2.116   0.801  12.495 -0.7308  1.1715 -1.7805
 6233TIP3    H240191   2.032   0.795  12.621  0.9664 -0.6543 -0.6837
 6234TIP3   OH240192   6.307   4.990   2.052  0.4465 -0.0418  0.7612
 6234TIP3    H140193   6.282   4.897   2.055 -4.4494  0.9801  0.0183
 6234TIP3    H240194   6.278   5.026   2.136  0.4767  1.1657  0.2745
 6235TIP3   OH240195   2.080   3.706   4.498 -0.2767  0.0683  0.5859
 6235TIP3    H140196   2.058   3.735   4.587  1.6536 -0.5948  1.3427
 6235TIP3    H240197   2.053   3.614   4.496  1.6753 -0.5772  1.3181
 6236TIP3   OH240198   4.404   5.577  12.039  0.0131  0.0965 -0.2807
 6236TIP3    H140199   4.332   5.568  12.101  0.9853 -1.1728  0.6807
 6236TIP3    H240200   4.369   5.637  11.972 -1.2872  0.9561  1.0967
 6237TIP3   OH240201   1.632   1.828   1.176 -0.0278  0.2967 -0.1639
 6237TIP3    H140202   1.558   1.884   1.152 -0.5711  1.2641  3.1644
 6237TIP3    H240203   1.592   1.750   1.214  0.6746  0.0439  0.0770
 6238TIP3   OH240204   6.607   2.061  12.229  0.1888  0.2211 -0.9293
 6238TIP3    H140205   6.604   2.026  12.140 -0.1007  0.6331 -1.0832
 6238TIP3    H240206   6.634   2.152  12.219 -1.7902  0.8716 -0.7812
 6239TIP3   OH240207   0.437   3.190  14.780 -0.4793  0.4181  0.0790
 6239TIP3    H140208   0.415   3.113  14.727 -1.4251  0.5972  0.2024
 6239TIP3    H240209   0.353   3.227  14.805 -0.0452  0.6668  1.2373
 6240TIP3   OH240210   4.892   6.785  13.076 -0.0097  0.2512  0.7628
 6240TIP3    H140211   4.970   6.781  13.021  0.0044 -1.0811  0.8428
 6240TIP3    H240212   4.843   6.705  13.053 -1.1813  0.8813  0.9616
 6241TIP3   OH240213   2.342   6.294   4.423 -0.3759 -0.0512  0.2568
 6241TIP3    H140214   2.269   6.335   4.468 -0.3908 -0.2519  0.4165
 6241TIP3    H240215   2.365   6.219   4.477  1.3459  1.1960  1.3598
 6242TIP3   OH240216   0.868   6.025   2.171  0.4474 -0.1419 -0.1259
 6242TIP3    H140217   0.871   5.931   2.184  0.7941  0.0560  1.4517
 6242TIP3    H240218   0.958   6.055   2.188  0.1992  0.5415  0.0317
 6243TIP3   OH240219   0.213   3.159   3.262  0.4296 -0.2301 -0.0131
 6243TIP3    H140220   0.222   3.117   3.176  0.7845  1.0985 -0.6540
 6243TIP3    H240221   0.119   3.166   3.276  0.3179 -2.7048  0.8819
 6244TIP3   OH240222   4.689   1.516   2.430 -0.6482 -0.3397  0.6234
 6244TIP3    H140223   4.780   1.535   2.454 -0.4024  0.1326 -0.6365
 6244TIP3    H240224   4.696   1.465   2.349 -1.5286  0.9605 -0.3098
 6245TIP3   OH240225   5.406   4.680  17.067 -0.4699  0.2415 -0.3526
 6245TIP3    H140226   5.316   4.714  17.062 -0.2917  1.0908  1.3358
 6245TIP3    H240227   5.437   4.680  16.976 -1.3506  2.2902 -0.7211
 6246TIP3   OH240228   0.874   0.209  13.036 -0.3038  0.3530  0.4761
 6246TIP3    H140229   0.955   0.158  13.034  0.2450  1.1301 -2.9672
 6246TIP3    H240230   0.810   0.151  13.077  0.3927 -3.0594 -2.7296
 6247TIP3   OH240231   5.528   4.661   0.525  0.0826  0.0197 -0.2445
 6247TIP3    H140232   5.621   4.638   0.528  0.1817  0.4515  0.3015
 6247TIP3    H240233   5.515   4.696   0.437 -0.1210 -2.2050 -1.1558
 6248TIP3   OH240234   5.716   2.879  12.568 -0.7849 -0.3826  0.1010
 6248TIP3    H140235   5.646   2.819  12.590 -1.8761  0.3347 -1.2317
 6248TIP3    H240236   5.708   2.950  12.632 -0.9933 -0.5215  0.2286
 6249TIP3   OH240237   5.916   6.829  14.090 -0.3550  0.5130  0.3529
 6249TIP3    H140238   5.856   6.886  14.139 -0.5150 -0.1669  0.9577
 6249TIP3    H240239   5.950   6.768  14.155  0.5643  0.5245 -0.0986
 6250TIP3   OH240240   3.124   6.299   1.718  0.0876  0.4588  0.2606
 6250TIP3    H140241   3.152   6.228   1.660 -2.8804  1.0373 -2.1626
 6250TIP3    H240242   3.159   6.378   1.678  2.1079  0.5866  2.1139
 6251TIP3   OH240243   3.815   5.787  13.105  0.0961 -0.0436  0.0074
 6251TIP3    H140244   3.787   5.805  13.194 -1.1949  0.7005 -0.5133
 6251TIP3    H240245   3.773   5.856  13.052  2.2280  0.5986 -0.9626
 6252TIP3   OH240246   3.525   0.690  11.247  0.1000  0.4801 -0.0301
 6252TIP3    H140247   3.544   0.599  11.225 -0.5278  0.5736 -1.0154
 6252TIP3    H240248   3.571   0.741  11.182 -1.0369  0.7977 -0.6131
 6253TIP3   OH240249   6.751   4.789  13.616 -0.2061 -0.2784  0.4257
 6253TIP3    H140250   6.822   4.750  13.566 -0.0585  1.2902 -0.6463
 6253TIP3    H240251   6.772   4.883  13.620 -3.0528  0.5749 -1.4786
 6254TIP3   OH240252   4.844   4.059   5.679 -0.1049 -0.0236  0.1443
 6254TIP3    H140253   4.784   4.085   5.749 -0.5630 -0.4239 -0.0929
 6254TIP3    H240254   4.823   4.118   5.606 -0.3154 -0.2538  0.0144
 6255TIP3   OH240255   1.610   3.966  15.074  0.2855 -0.4314 -0.1372
 6255TIP3    H140256   1.543   3.976  15.006  0.7306 -0.1864 -0.5437
 6255TIP3    H240257   1.587   3.885  15.119  0.2082 -0.7973 -0.8327
 6256TIP3   OH240258   0.285   0.066  15.976 -0.3794  0.5186 -0.1611
 6256TIP3    H140259   0.330   0.090  16.058 -0.4915  1.9365 -0.4856
 6256TIP3    H240260   0.333  -0.011  15.945  0.4079  0.6538  0.6472
 6257TIP3   OH240261   2.302   0.459  16.873  0.0432 -0.3139 -0.2814
 6257TIP3    H140262   2.250   0.392  16.918 -0.3142 -1.1599 -1.8780
 6257TIP3    H240263   2.259   0.471  16.789 -0.3001  2.4815  0.1953
 6258TIP3   OH240264   5.601   6.678  14.242  0.9669  0.6937  0.4411
 6258TIP3    H140265   5.576   6.588  14.264 -0.7665  0.5704 -1.7214
 6258TIP3    H240266   5.695   6.672  14.223  0.8692 -0.6926  0.2569
 6259TIP3   OH240267   4.294   4.855  13.957 -0.5531  0.2282  0.3224
 6259TIP3    H140268   4.385   4.879  13.973 -0.4255 -0.5572  0.8310
 6259TIP3    H240269   4.281   4.871  13.863  0.6970 -1.4663 -0.2033
 6260TIP3   OH240270   0.823   1.734  13.000  0.8645 -0.6662 -0.1610
 6260TIP3    H140271   0.731   1.707  13.009  1.3204 -2.1798  0.2984
 6260TIP3    H240272   0.835   1.800  13.068 -0.6991  2.0106 -2.3127
 6261TIP3   OH240273   3.162   3.625   0.764  0.0358  0.4151 -0.1005
 6261TIP3    H140274   3.093   3.615   0.829 -0.4969  2.4271 -0.2910
 6261TIP3    H240275   3.234   3.571   0.797 -0.5020  0.7612  1.7791
 6262TIP3   OH240276   4.738   2.029  16.139 -0.1283  0.3006 -0.9125
 6262TIP3    H140277   4.662   1.975  16.117 -1.5672  1.4352  1.0105
 6262TIP3    H240278   4.803   1.967  16.172 -1.0312 -0.4698 -0.5366
 6263TIP3   OH240279   4.995   6.417  12.352  0.5028  0.5933  0.2030
 6263TIP3    H140280   4.992   6.338  12.406 -0.8593  0.9853  0.7331
 6263TIP3    H240281   4.995   6.385  12.262  0.2626 -0.0138  0.4173
 6264TIP3   OH240282   2.035   2.053  14.392  0.3490  0.4847  0.1461
 6264TIP3    H140283   1.977   2.125  14.416 -1.5584 -0.8368 -0.2967
 6264TIP3    H240284   2.036   1.996  14.469  0.1390 -0.0692 -0.2532
 6265TIP3   OH240285   0.342   5.414  11.149  0.5490 -0.4834  0.6127
 6265TIP3    H140286   0.379   5.373  11.071 -2.2210  0.4777 -1.3631
 6265TIP3    H240287   0.363   5.507  11.140 -0.9175 -0.1586  0.2343
 6266TIP3   OH240288   4.288   2.059  14.283 -0.2993 -0.4578 -0.5016
 6266TIP3    H140289   4.256   2.076  14.371  0.3707 -0.9670 -0.1456
 6266TIP3    H240290   4.300   2.146  14.245  0.0140 -0.2110  0.1395
 6267TIP3   OH240291   6.604   0.174   6.633 -0.1001 -0.1623  0.1213
 6267TIP3    H140292   6.523   0.224   6.623  0.1958  0.5171  0.9592
 6267TIP3    H240293   6.646   0.179   6.548  0.7675  2.5478  0.6105
 6268TIP3   OH240294   0.889   6.511   4.017  0.8637 -0.2574  0.1040
 6268TIP3    H140295   0.949   6.539   4.086  1.0094 -0.4486  0.0560
 6268TIP3    H240296   0.868   6.420   4.038 -0.1089  0.0686  0.6069
 6269TIP3   OH240297   4.184   5.356   2.605  0.1932  0.2454  0.1566
 6269TIP3    H140298   4.206   5.281   2.549  2.4645 -0.8519  2.3138
 6269TIP3    H240299   4.096   5.338   2.636  1.0096 -2.0915  1.3320
 6270TIP3   OH240300   0.504   6.301   3.995 -0.1010 -0.0799 -0.6712
 6270TIP3    H140301   0.412   6.301   3.970  0.2420 -0.7069 -2.0931
 6270TIP3    H240302   0.538   6.384   3.962 -0.2794  0.4607  0.4552
 6271TIP3   OH240303   3.156   1.088  16.340  1.1245 -0.3485 -0.4105
 6271TIP3    H140304   3.151   1.061  16.248 -0.1723  1.1927 -0.8491
 6271TIP3    H240305   3.200   1.173  16.337 -0.1217  0.3357  0.2251
 6272TIP3   OH240306   5.342   0.668   2.065  0.0485  0.1181 -0.2203
 6272TIP3    H140307   5.307   0.757   2.072 -1.2115 -0.4648  1.7190
 6272TIP3    H240308   5.320   0.627   2.149  3.1832 -1.1409  0.1366
 6273TIP3   OH240309   0.641   2.035  15.636 -0.5162 -0.5551  0.0673
 6273TIP3    H140310   0.713   2.047  15.573  0.4884 -1.1150  1.0790
 6273TIP3    H240311   0.679   1.981  15.706 -0.7986  2.1754  2.4907
 6274TIP3   OH240312   0.871   0.415   3.711  0.7910 -0.1190 -0.0161
 6274TIP3    H140313   0.883   0.364   3.791  1.9669 -1.3149 -0.9231
 6274TIP3    H240314   0.827   0.495   3.741  3.4270  0.6485  2.2601
 6275TIP3   OH240315   0.094   2.959   1.700 -0.2549  0.1786 -0.0804
 6275TIP3    H140316   0.020   2.925   1.750  0.6884  0.6941  1.7303
 6275TIP3    H240317   0.065   3.046   1.671  0.2679  1.1710  2.2130
 6276TIP3   OH240318   6.783   3.015   5.585  0.5526 -0.1526  0.1047
 6276TIP3    H140319   6.698   2.996   5.545  0.0195  0.6741  0.8082
 6276TIP3    H240320   6.825   2.930   5.594 -0.2058 -0.5729 -0.2489
 6277TIP3   OH240321   1.374   1.966   3.818  0.2594 -0.0669  0.1197
 6277TIP3    H140322   1.443   2.007   3.766 -0.7926 -0.1603 -1.4177
 6277TIP3    H240323   1.300   2.027   3.812 -0.0608 -0.3303  1.0967
 6278TIP3   OH240324   3.839   6.057   6.011 -0.0309 -0.0724  0.0540
 6278TIP3    H140325   3.748   6.085   6.001 -0.0683  0.4637  1.6556
 6278TIP3    H240326   3.886   6.103   5.942 -0.7121  0.9402  0.2470
 6279TIP3   OH240327   3.632   1.602  14.126  0.3745 -0.8571 -0.2827
 6279TIP3    H140328   3.677   1.671  14.077  1.0023 -1.1181 -0.0806
 6279TIP3    H240329   3.629   1.634  14.216  1.7049 -1.5716  0.0507
 6280TIP3   OH240330   0.454   1.468   3.942  0.1652  0.5029 -0.0513
 6280TIP3    H140331   0.376   1.483   3.996  0.4182 -0.6451  0.6616
 6280TIP3    H240332   0.502   1.551   3.946 -0.4121  0.8188  0.5175
 6281TIP3   OH240333   0.433   5.820   4.128  0.4103 -0.6704  1.1333
 6281TIP3    H140334   0.346   5.780   4.125  0.9156 -1.9576  2.5841
 6281TIP3    H240335   0.486   5.766   4.069  0.0888  0.6240 -0.4291
 6282TIP3   OH240336   1.328   6.280  15.228  0.4934  0.6126 -0.2265
 6282TIP3    H140337   1.294   6.363  15.263  2.2090  1.3206 -0.1243
 6282TIP3    H240338   1.381   6.245  15.299 -0.2436 -0.6118 -0.2644
 6283TIP3   OH240339   4.983   3.508   3.724  0.5896  0.2119 -0.3484
 6283TIP3    H140340   4.900   3.537   3.761  1.2262  0.4196  0.9584
 6283TIP3    H240341   5.014   3.584   3.673 -0.7218 -0.3910 -2.1461
 6284TIP3   OH240342   4.710   4.596   3.194 -0.2757  0.2878  0.1589
 6284TIP3    H140343   4.712   4.624   3.285  1.3127  0.1335  0.1935
 6284TIP3    H240344   4.732   4.503   3.196 -0.1405  0.3012 -0.3892
 6285TIP3   OH240345   5.837   3.134   1.760  0.1441 -0.3362  0.0781
 6285TIP3    H140346   5.824   3.196   1.689  0.8116 -0.4859 -0.1788
 6285TIP3    H240347   5.931   3.133   1.776 -0.0457  0.1758  1.4046
 6286TIP3   OH240348   4.262   2.210  14.517  0.0653 -0.0045  0.3427
 6286TIP3    H140349   4.199   2.258  14.462 -1.3590  0.1192  2.0023
 6286TIP3    H240350   4.332   2.274  14.532 -0.5758  0.7011  0.4345
 6287TIP3   OH240351   5.932   2.570  14.436  0.1013 -0.3653  0.3019
 6287TIP3    H140352   6.025   2.551  14.425  0.2367 -1.3347  2.5601
 6287TIP3    H240353   5.926   2.665  14.428  1.8517  0.1045  2.9745
 6288TIP3   OH240354   5.327   0.127  16.489 -0.6537 -0.0904 -0.6378
 6288TIP3    H140355   5.404   0.131  16.546 -1.5171 -0.0600  0.5903
 6288TIP3    H240356   5.334   0.205  16.434 -0.4237  0.5990  0.3232
 6289TIP3   OH240357   5.700   3.622   5.387  0.0887  0.4225  0.6709
 6289TIP3    H140358   5.679   3.599   5.477  2.9415 -0.7723  1.1316
 6289TIP3    H240359   5.795   3.632   5.386 -0.0028  1.9386 -1.8994
 6290TIP3   OH240360   0.696   3.142  12.133 -0.1894 -0.3721  0.0219
 6290TIP3    H140361   0.619   3.096  12.098 -0.0881 -2.3356  2.1417
 6290TIP3    H240362   0.762   3.074  12.141  0.5555  0.5044  1.6826
 6291TIP3   OH240363   4.395   3.358  15.735 -0.1334  0.1990  0.4024
 6291TIP3    H140364   4.424   3.268  15.719 -0.1982  0.1143  0.7497
 6291TIP3    H240365   4.464   3.396  15.790  0.6949  0.8675 -1.0446
 6292TIP3   OH240366   6.346   1.707  13.610 -0.1910 -0.2822 -0.6514
 6292TIP3    H140367   6.341   1.613  13.629  1.5266 -0.0505  1.2894
 6292TIP3    H240368   6.307   1.749  13.687  1.5177  0.6185 -0.2244
 6293TIP3   OH240369   3.668   0.120  12.658  0.0337 -0.5565  0.1594
 6293TIP3    H140370   3.706   0.201  12.693  0.3425 -0.7765  0.3298
 6293TIP3    H240371   3.689   0.123  12.564  0.8975 -0.9087  0.3332
 6294TIP3   OH240372   2.781   6.297   4.179 -0.3794 -0.3166  0.2936
 6294TIP3    H140373   2.776   6.290   4.083 -1.0003  0.1126  0.2891
 6294TIP3    H240374   2.700   6.258   4.210  0.3292 -1.4966  0.7197
 6295TIP3   OH240375   0.707   2.656  14.882  0.9519  0.4565 -0.1692
 6295TIP3    H140376   0.767   2.614  14.944 -0.4778 -0.1610  0.8431
 6295TIP3    H240377   0.733   2.748  14.882  1.3930  0.3424  0.8607
 6296TIP3   OH240378   6.000   3.643  15.818  0.5486 -0.3692 -0.1345
 6296TIP3    H140379   5.980   3.551  15.800  1.2292 -0.3051 -1.3732
 6296TIP3    H240380   6.015   3.681  15.731 -0.3779  1.0775  0.2987
 6297TIP3   OH240381   2.616   6.759  11.685 -0.1020 -0.1410  0.0615
 6297TIP3    H140382   2.564   6.746  11.605  1.5530  1.5010 -1.3626
 6297TIP3    H240383   2.589   6.844  11.718  0.3828 -0.0980  0.3567
 6298TIP3   OH240384   4.288   2.830  14.174  0.3092  0.2010  0.2011
 6298TIP3    H140385   4.257   2.783  14.250  3.2456 -2.0254  0.2063
 6298TIP3    H240386   4.332   2.907  14.210  3.1524 -1.6820  1.0705
 6299TIP3   OH240387   0.655   0.088  14.136 -0.5967 -0.6427 -0.0798
 6299TIP3    H140388   0.611   0.170  14.159 -1.9827 -1.5353  0.6372
 6299TIP3    H240389   0.694   0.057  14.218  4.4300  1.7110 -1.2338
 6300TIP3   OH240390   5.353   4.378   1.025  0.4176  0.0567 -0.1116
 6300TIP3    H140391   5.351   4.473   1.012 -0.3569 -0.1156 -1.4396
 6300TIP3    H240392   5.438   4.361   1.065  0.4913  1.3250  0.3015
 6301TIP3   OH240393   2.406   3.460  15.339  0.2802 -0.2270  0.5454
 6301TIP3    H140394   2.434   3.385  15.391 -1.0054  0.1058  1.7511
 6301TIP3    H240395   2.447   3.535  15.381 -0.9511  0.0685  1.2377
 6302TIP3   OH240396   0.688   4.883   2.324 -0.3592  0.5152  0.5129
 6302TIP3    H140397   0.783   4.889   2.327 -0.2912 -0.2607  0.0889
 6302TIP3    H240398   0.661   4.955   2.266  0.1858 -0.9462 -1.6942
 6303TIP3   OH240399   1.191   3.288  11.386  0.4017 -0.6766  0.3969
 6303TIP3    H140400   1.250   3.305  11.313 -0.4938  0.8889 -0.0032
 6303TIP3    H240401   1.140   3.212  11.359 -3.5607  2.7430 -3.1177
 6304TIP3   OH240402   4.111   1.349   6.223  0.0663 -0.2643  0.3959
 6304TIP3    H140403   4.144   1.403   6.294  1.7036 -0.8054  0.0934
 6304TIP3    H240404   4.046   1.292   6.264 -1.0110  1.2572  0.8863
 6305TIP3   OH240405   6.795   1.533  13.309  0.2454 -0.7514 -0.4584
 6305TIP3    H140406   6.828   1.458  13.259  1.0005  0.1201 -1.3070
 6305TIP3    H240407   6.819   1.609  13.257  0.1015  0.1351  0.7301
 6306TIP3   OH240408   3.595   3.075  16.326  0.3289  0.0011 -0.2369
 6306TIP3    H140409   3.642   3.098  16.406  1.3536  0.4597 -0.9559
 6306TIP3    H240410   3.537   3.004  16.352  1.0779 -0.2561  0.7850
 6307TIP3   OH240411   2.276   4.801  15.640  0.3958  0.0911  0.3982
 6307TIP3    H140412   2.261   4.836  15.728 -0.9640 -0.0146  0.2185
 6307TIP3    H240413   2.213   4.847  15.585  0.1426 -1.0043 -0.2431
 6308TIP3   OH240414   2.973   5.254   1.766 -0.4470 -0.4999 -0.3338
 6308TIP3    H140415   2.969   5.349   1.777 -1.4995 -0.4688 -0.9701
 6308TIP3    H240416   3.061   5.238   1.731 -0.0808  0.1771  0.2430
 6309TIP3   OH240417   0.848   4.490  15.991  0.3977  0.1153  0.2994
 6309TIP3    H140418   0.785   4.457  15.927  0.9748  3.5926 -2.3637
 6309TIP3    H240419   0.802   4.561  16.036  1.4899  0.8352  0.3217
 6310TIP3   OH240420   6.371   6.731  14.009 -0.8277  0.0878  0.3059
 6310TIP3    H140421   6.303   6.688  14.061  0.1388 -0.9758  0.7286
 6310TIP3    H240422   6.342   6.822  14.002 -2.7595 -0.5409 -0.3281
 6311TIP3   OH240423   5.732   0.045   2.198 -0.1020 -0.3878  0.1818
 6311TIP3    H140424   5.672   0.058   2.125  0.9348 -1.0717 -0.8191
 6311TIP3    H240425   5.797  -0.018   2.166  2.1296  1.5326  0.6313
 6312TIP3   OH240426   4.147   2.261   0.270  0.6560 -0.1801  0.0994
 6312TIP3    H140427   4.073   2.281   0.328 -0.8252 -0.6323 -1.5569
 6312TIP3    H240428   4.221   2.308   0.310 -0.6431  0.8311  1.4629
 6313TIP3   OH240429   2.885   1.425  13.798  0.1107 -0.2796  0.1833
 6313TIP3    H140430   2.878   1.442  13.704  0.1929  1.4516  0.4558
 6313TIP3    H240431   2.974   1.452  13.820  0.4700 -1.7179  0.5809
 6314TIP3   OH240432   5.699   0.608   0.157  0.2566  0.5047  0.6563
 6314TIP3    H140433   5.672   0.563   0.077  1.7013  0.1311  0.3466
 6314TIP3    H240434   5.623   0.600   0.216  0.2469 -1.8986  0.4326
 6315TIP3   OH240435   3.221   3.551  14.132 -0.0882  0.5481 -0.2001
 6315TIP3    H140436   3.243   3.509  14.048 -2.4569  0.8210 -1.0362
 6315TIP3    H240437   3.159   3.491  14.173  0.0601  1.0403  0.7789
 6316TIP3   OH240438   4.371   6.486   1.344  0.4904  0.2159 -0.1063
 6316TIP3    H140439   4.401   6.491   1.253  0.0252 -1.4416 -0.3817
 6316TIP3    H240440   4.340   6.396   1.354  3.3213 -0.6025  2.5702
 6317TIP3   OH240441   1.277   5.215   0.172 -0.8973  0.5954  0.3644
 6317TIP3    H140442   1.310   5.257   0.251  1.3307  0.6827 -0.5338
 6317TIP3    H240443   1.257   5.125   0.199 -0.2257  0.6411  1.0485
 6318TIP3   OH240444   0.091   4.602   4.953 -0.0863  0.2041  0.6361
 6318TIP3    H140445   0.181   4.637   4.953  0.0019  0.0761 -0.8663
 6318TIP3    H240446   0.086   4.551   4.872 -1.1094 -0.9188  1.3736
 6319TIP3   OH240447   3.311   5.151  12.367  0.1102  0.2717 -0.3769
 6319TIP3    H140448   3.269   5.142  12.452  0.4513 -3.3952 -0.4245
 6319TIP3    H240449   3.389   5.203  12.383 -0.6920  1.0506  1.1646
 6320TIP3   OH240450   2.508   4.085  16.498  0.3684 -0.3236  0.4807
 6320TIP3    H140451   2.451   4.132  16.436 -0.3954 -2.2816 -0.3915
 6320TIP3    H240452   2.453   4.070  16.574  0.7406  0.5127  0.9260
 6321TIP3   OH240453   5.440   1.444  14.419 -0.0790  0.3542  0.0380
 6321TIP3    H140454   5.450   1.460  14.325 -0.1127 -2.8133 -0.5969
 6321TIP3    H240455   5.426   1.531  14.456  1.2252  1.8684 -2.6948
 6322TIP3   OH240456   3.762   0.422   6.859 -0.1850 -0.1122  0.0513
 6322TIP3    H140457   3.757   0.356   6.790 -2.5034  0.4651 -0.4146
 6322TIP3    H240458   3.719   0.382   6.934 -0.0592  0.2488  0.3190
 6323TIP3   OH240459   1.943   3.787   1.158  0.2115 -0.2375  0.3376
 6323TIP3    H140460   2.005   3.718   1.132  0.5306 -0.5507  1.8296
 6323TIP3    H240461   1.961   3.859   1.098 -0.2590 -1.4893 -1.4036
 6324TIP3   OH240462   5.576   3.610   0.309  0.5652  0.4148  0.2959
 6324TIP3    H140463   5.581   3.580   0.400 -0.0203  1.8678  0.8379
 6324TIP3    H240464   5.547   3.701   0.315 -0.2664  0.3027 -1.3935
 6325TIP3   OH240465   4.224   0.368  16.154  0.3813 -0.6105  0.3435
 6325TIP3    H140466   4.150   0.306  16.156  1.6648 -2.1914  0.4759
 6325TIP3    H240467   4.182   0.453  16.145 -1.4687 -1.4708  0.1865
 6326TIP3   OH240468   0.598   3.091  11.387 -0.1028 -0.7505  0.1174
 6326TIP3    H140469   0.588   3.003  11.424  0.8651 -1.4032 -1.0901
 6326TIP3    H240470   0.552   3.148  11.449 -1.0789 -2.1385  0.7330
 6327TIP3   OH240471   0.771   0.291  13.314  0.6409 -1.0471 -0.4820
 6327TIP3    H140472   0.722   0.270  13.393 -0.4146  0.5123 -0.6805
 6327TIP3    H240473   0.817   0.209  13.292 -1.1820 -2.3196  0.1895
 6328TIP3   OH240474   6.597   4.605  16.408 -0.2275  0.1011  0.4085
 6328TIP3    H140475   6.641   4.677  16.453  0.1434  0.6677 -0.8318
 6328TIP3    H240476   6.660   4.533  16.410 -0.0583  0.2502  0.4403
 6329TIP3   OH240477   0.702   2.703   0.725 -0.1638  0.0748  0.5846
 6329TIP3    H140478   0.641   2.632   0.741 -1.1430  0.9896  1.0127
 6329TIP3    H240479   0.759   2.704   0.801 -1.5920  1.1668  1.7003
 6330TIP3   OH240480   3.307   5.998   5.162  0.9005  0.3649  0.3603
 6330TIP3    H140481   3.362   5.953   5.227  0.6586 -1.2471 -0.4904
 6330TIP3    H240482   3.222   5.953   5.168  0.8118  0.3248 -0.9027
 6331TIP3   OH240483   1.267   5.511  15.252  0.3150  0.1585  0.5179
 6331TIP3    H140484   1.185   5.555  15.277  0.2101  0.2596  0.0021
 6331TIP3    H240485   1.336   5.571  15.280  0.1621  0.8354 -0.5116
 6332TIP3   OH240486   0.282   2.186  14.081  0.8428 -0.4168 -0.4548
 6332TIP3    H140487   0.305   2.094  14.063  0.6744 -0.2986 -1.2834
 6332TIP3    H240488   0.348   2.237  14.035  0.1446 -0.1038 -1.1245
 6333TIP3   OH240489   5.499   5.202   0.994 -0.3500  0.3211  0.3611
 6333TIP3    H140490   5.592   5.188   0.978 -0.5218  0.6271 -0.9803
 6333TIP3    H240491   5.496   5.261   1.069  0.4595 -2.3862  2.7337
 6334TIP3   OH240492   6.526   1.815   3.104  0.6695  0.1140 -0.1307
 6334TIP3    H140493   6.481   1.882   3.155 -0.7692 -0.0442 -1.1159
 6334TIP3    H240494   6.489   1.732   3.135  0.3972 -0.0320 -0.8096
 6335TIP3   OH240495   3.750   6.544   1.091  0.3717  0.1436 -0.0524
 6335TIP3    H140496   3.722   6.456   1.063 -2.2450  1.4456 -1.9916
 6335TIP3    H240497   3.780   6.585   1.010  2.8013  0.6991  1.0571
 6336TIP3   OH240498   2.448   2.858   1.591  0.1575 -0.2113  0.4118
 6336TIP3    H140499   2.445   2.906   1.674  1.9744  0.3422  0.1989
 6336TIP3    H240500   2.540   2.856   1.567 -0.1905 -1.4056 -1.0163
 6337TIP3   OH240501   3.640   5.191   3.254  0.0487  0.2129  0.7013
 6337TIP3    H140502   3.705   5.211   3.321  0.3263  0.4168  0.3766
 6337TIP3    H240503   3.693   5.163   3.178 -0.2717 -0.3343  0.6783
 6338TIP3   OH240504   3.595   5.742   1.381  0.2822  0.3285 -0.4183
 6338TIP3    H140505   3.571   5.667   1.327  1.3495  0.2667 -0.8277
 6338TIP3    H240506   3.660   5.707   1.442  0.6285  0.8661 -0.4758
 6339TIP3   OH240507   3.569   0.284   1.388 -0.1828  0.3239  0.3492
 6339TIP3    H140508   3.648   0.287   1.334 -0.0217  2.2673  0.6083
 6339TIP3    H240509   3.574   0.201   1.434  1.5843  0.2769  0.1396
 6340TIP3   OH240510   1.374   3.048  16.945 -0.1790  0.0883  0.2021
 6340TIP3    H140511   1.289   3.011  16.971 -0.8776 -0.1080 -2.1240
 6340TIP3    H240512   1.395   3.003  16.863  1.4280  1.2727 -0.0763
 6341TIP3   OH240513   4.858   5.435  12.786  0.3720 -0.2999 -0.0861
 6341TIP3    H140514   4.891   5.491  12.856  1.3394 -0.9009 -0.0442
 6341TIP3    H240515   4.889   5.347  12.808  1.2420 -0.4035 -1.5886
 6342TIP3   OH240516   6.076   6.376  14.124 -0.0257 -0.1738 -0.6359
 6342TIP3    H140517   6.096   6.285  14.100  1.4382  0.5577 -2.4861
 6342TIP3    H240518   5.983   6.385  14.104 -0.7418 -1.7661  1.5326
 6343TIP3   OH240519   2.432   6.433   3.693 -0.0264 -0.3651  0.2113
 6343TIP3    H140520   2.428   6.415   3.787 -1.2929  0.2693  0.2943
 6343TIP3    H240521   2.343   6.414   3.661  0.0229  0.7205 -0.6120
 6344TIP3   OH240522   2.947   4.308   3.375  0.3067 -0.3391  0.4364
 6344TIP3    H140523   2.874   4.246   3.369 -0.8519  0.3596  4.5032
 6344TIP3    H240524   2.907   4.390   3.406  2.4676  0.9254  0.1246
 6345TIP3   OH240525   5.784   4.559   1.893  0.0563  0.0665  0.0134
 6345TIP3    H140526   5.829   4.493   1.946 -0.2518  0.2131  0.4670
 6345TIP3    H240527   5.693   4.531   1.892  0.0042  0.2402 -0.1697
 6346TIP3   OH240528   2.417   0.139   5.579  0.0164 -0.3117 -0.6314
 6346TIP3    H140529   2.352   0.131   5.649 -0.8282  0.3312 -1.3262
 6346TIP3    H240530   2.368   0.126   5.498  0.3689  1.9218 -1.2726
 6347TIP3   OH240531   3.135   3.523  13.451 -0.0437 -0.1531 -0.1592
 6347TIP3    H140532   3.189   3.528  13.372  1.0995  0.9483  0.6508
 6347TIP3    H240533   3.152   3.435  13.487  0.4182 -0.1857 -0.4564
 6348TIP3   OH240534   4.305   5.193   5.820 -0.6978  0.0800 -0.6055
 6348TIP3    H140535   4.212   5.203   5.802 -0.4966  2.3750 -0.6449
 6348TIP3    H240536   4.346   5.189   5.733 -0.7935 -2.1860 -0.6176
 6349TIP3   OH240537   5.576   2.717   1.887 -0.5796  0.4583  0.1655
 6349TIP3    H140538   5.522   2.796   1.884 -2.1676 -0.6071 -0.9340
 6349TIP3    H240539   5.519   2.647   1.855  0.8147 -1.1334  0.9837
 6350TIP3   OH240540   2.666   3.960   1.589 -0.3745 -0.0021 -0.3233
 6350TIP3    H140541   2.761   3.960   1.603 -0.5041 -2.0118  0.9712
 6350TIP3    H240542   2.630   3.916   1.666 -2.2367 -0.7038 -1.5156
 6351TIP3   OH240543   4.707   5.279  10.915  0.1258 -0.0030  0.8381
 6351TIP3    H140544   4.786   5.290  10.968  1.7588  1.7488 -1.7008
 6351TIP3    H240545   4.674   5.368  10.904 -0.2984 -0.3315 -0.8041
 6352TIP3   OH240546   4.522   6.224   2.480  0.2244  0.3360  0.3020
 6352TIP3    H140547   4.489   6.214   2.391  1.4142 -0.6701 -0.0597
 6352TIP3    H240548   4.600   6.278   2.470 -0.2168  1.0990  0.8887
 6353TIP3   OH240549   2.195   2.496  12.142 -0.1367  0.0533 -0.9888
 6353TIP3    H140550   2.230   2.421  12.189  0.1217  0.1623 -1.0070
 6353TIP3    H240551   2.216   2.571  12.198 -3.4911 -0.1671  0.8613
 6354TIP3   OH240552   0.636   5.367  16.784  0.2290 -0.2739 -0.3406
 6354TIP3    H140553   0.573   5.346  16.715 -3.5618  1.0119  2.3875
 6354TIP3    H240554   0.659   5.458  16.769 -0.8663  0.1105  0.1995
 6355TIP3   OH240555   5.452   3.165  17.135  0.2032  0.5111 -0.1373
 6355TIP3    H140556   5.494   3.232  17.191  0.1267 -0.7682  1.5327
 6355TIP3    H240557   5.360   3.190  17.135  0.1973  0.5144  0.3456
 6356TIP3   OH240558   3.012   6.362  15.243 -0.1686  0.5088  0.1023
 6356TIP3    H140559   3.013   6.291  15.307  0.5953  0.7376  0.3566
 6356TIP3    H240560   3.053   6.325  15.165 -0.2129  0.5248  0.0706
 6357TIP3   OH240561   0.546   4.105  10.672  0.5713  0.1777  0.1995
 6357TIP3    H140562   0.640   4.101  10.653  0.7656 -0.8762  1.2543
 6357TIP3    H240563   0.517   4.188  10.634  2.1966  1.1348  0.9695
 6358TIP3   OH240564   6.634   1.862   4.641  0.3372  0.2771  0.0426
 6358TIP3    H140565   6.568   1.931   4.649 -0.3211 -0.4755  1.3463
 6358TIP3    H240566   6.715   1.903   4.674  0.3994  0.9810 -0.9203
 6359TIP3   OH240567   3.230   5.552   3.708 -0.2338 -0.5572  0.6826
 6359TIP3    H140568   3.173   5.475   3.703  0.6914 -1.3614  1.8642
 6359TIP3    H240569   3.237   5.570   3.802 -0.0296  0.6742  0.4476
 6360TIP3   OH240570   6.842   3.023  15.078  0.2768 -0.3715 -0.1291
 6360TIP3    H140571   6.864   2.987  15.164 -2.1309 -1.7285  0.0046
 6360TIP3    H240572   6.877   2.960  15.015  1.4189  0.2641 -0.1629
 6361TIP3   OH240573   0.232   4.767   0.247  0.0334 -0.3415  0.6830
 6361TIP3    H140574   0.312   4.817   0.232 -0.1733  0.4574  2.0178
 6361TIP3    H240575   0.262   4.684   0.285  0.2498 -0.0279  1.2145
 6362TIP3   OH240576   2.549   0.517   3.476  0.0199  0.2298  0.6311
 6362TIP3    H140577   2.552   0.564   3.559 -0.0746 -0.0645  0.8036
 6362TIP3    H240578   2.630   0.466   3.474  0.6799  1.2671 -0.0792
 6363TIP3   OH240579   2.664   3.117   2.508 -0.1265  0.0865 -0.3479
 6363TIP3    H140580   2.743   3.123   2.562 -0.2391  1.0155 -0.2669
 6363TIP3    H240581   2.696   3.126   2.418  0.0039 -0.9550 -0.4213
 6364TIP3   OH240582   3.152   0.188  10.670 -0.1410  0.1268 -0.6318
 6364TIP3    H140583   3.089   0.259  10.680  3.7348  3.7517  0.7987
 6364TIP3    H240584   3.185   0.198  10.581  0.1577 -0.1301 -0.5518
 6365TIP3   OH240585   1.727   2.962   1.521 -0.0748 -0.3225 -0.6893
 6365TIP3    H140586   1.755   2.923   1.603 -1.5380 -1.0133 -0.4868
 6365TIP3    H240587   1.685   3.044   1.547 -1.0887 -0.8331 -0.6607
 6366TIP3   OH240588   5.262   6.487   3.789 -0.1058 -0.1119  0.0641
 6366TIP3    H140589   5.264   6.460   3.697 -0.2691 -2.2088  0.6098
 6366TIP3    H240590   5.208   6.420   3.832 -0.5121  1.1464  1.5961
 6367TIP3   OH240591   2.674   6.515  13.493 -0.0382  0.3909  0.4268
 6367TIP3    H140592   2.677   6.573  13.569  1.3727  0.2124  0.5352
 6367TIP3    H240593   2.608   6.554  13.436 -0.5349  0.9810  1.3823
 6368TIP3   OH240594   6.043   6.584   4.350  0.7237  0.2400  0.3435
 6368TIP3    H140595   6.054   6.611   4.259 -2.8637 -1.6018 -0.8431
 6368TIP3    H240596   6.054   6.665   4.401 -0.3259  2.0151 -2.0625
 6369TIP3   OH240597   0.358   6.553   1.481 -0.8697 -0.5552  0.0616
 6369TIP3    H140598   0.439   6.503   1.487 -0.3667  0.1020 -0.9582
 6369TIP3    H240599   0.384   6.644   1.487 -1.4527 -0.3112 -0.8214
 6370TIP3   OH240600   1.298   5.334  13.595 -0.1733 -0.0774  0.1429
 6370TIP3    H140601   1.251   5.416  13.579  0.4099  0.4084  0.8333
 6370TIP3    H240602   1.367   5.358  13.657 -0.0175 -1.1016  0.3844
 6371TIP3   OH240603   1.066   2.470   2.448 -0.3162 -0.4156 -0.0066
 6371TIP3    H140604   1.149   2.455   2.495 -0.2934  1.4671  0.6379
 6371TIP3    H240605   0.998   2.450   2.512 -0.3400 -0.9945 -0.2139
 6372TIP3   OH240606   6.493   4.417   5.687 -0.4927 -0.2410  0.9594
 6372TIP3    H140607   6.475   4.403   5.594  1.1595  2.0450  0.2158
 6372TIP3    H240608   6.536   4.336   5.716  1.2078 -0.0905 -0.9319
 6373TIP3   OH240609   2.022   4.529  12.439 -0.0275 -0.1489  0.4096
 6373TIP3    H140610   2.034   4.622  12.458  0.0836  0.0541 -0.6316
 6373TIP3    H240611   1.971   4.496  12.514 -0.7960  0.9270  0.3804
 6374TIP3   OH240612   0.370   0.645   3.957  0.5111 -0.8634  0.6723
 6374TIP3    H140613   0.392   0.689   4.039  1.5656 -2.8851  1.5502
 6374TIP3    H240614   0.346   0.556   3.983 -1.0075 -1.0357 -1.0595
 6375TIP3   OH240615   1.819   0.007   4.509 -0.2293  0.4395 -0.6439
 6375TIP3    H140616   1.829  -0.078   4.553 -0.6256  0.2876 -0.8336
 6375TIP3    H240617   1.768   0.059   4.571 -0.5120  0.3323 -0.7833
 6376TIP3   OH240618   0.060   1.076  13.120 -1.2446  0.1898  0.1879
 6376TIP3    H140619   0.042   1.015  13.192 -2.7266  0.7429  0.3150
 6376TIP3    H240620   0.105   1.022  13.055  0.7499 -0.1648  1.7696
 6377TIP3   OH240621   5.989   5.261   4.756 -0.0153  0.3194 -0.4621
 6377TIP3    H140622   6.047   5.329   4.791  2.2303 -1.1410 -1.1781
 6377TIP3    H240623   5.966   5.208   4.833 -1.7188  1.7275  0.0879
 6378TIP3   OH240624   5.858   1.662  11.669  0.0616 -0.0189 -0.1883
 6378TIP3    H140625   5.947   1.662  11.634 -0.3332  1.1201 -1.2481
 6378TIP3    H240626   5.861   1.599  11.741  1.3383 -1.1352 -1.1590
 6379TIP3   OH240627   5.129   6.612   1.376 -0.2063 -0.4521  0.2236
 6379TIP3    H140628   5.213   6.586   1.337 -0.5651 -0.0126 -0.8882
 6379TIP3    H240629   5.069   6.540   1.354 -0.3470 -0.3334  0.2156
 6380TIP3   OH240630   6.634   0.963   5.770  0.2522  0.4104  0.2811
 6380TIP3    H140631   6.695   1.036   5.755 -0.8233  0.9337 -2.0887
 6380TIP3    H240632   6.561   1.002   5.817 -0.2841  0.9095 -0.9100
 6381TIP3   OH240633   0.271   3.024   6.702 -0.0407  0.3637 -0.0502
 6381TIP3    H140634   0.180   3.006   6.676  0.6686 -0.9236 -1.8381
 6381TIP3    H240635   0.305   2.939   6.730  0.3981  1.0018  1.4595
 6382TIP3   OH240636   5.633   6.556   4.064 -0.6977 -0.1286 -0.1008
 6382TIP3    H140637   5.671   6.642   4.045  0.0264 -0.3146  0.4977
 6382TIP3    H240638   5.626   6.553   4.159  0.6081 -1.2711 -0.0053
 6383TIP3   OH240639   4.499   4.005   2.628 -0.0424 -0.1253 -0.0631
 6383TIP3    H140640   4.567   4.060   2.666  0.1862 -1.0191  0.8696
 6383TIP3    H240641   4.419   4.057   2.635 -0.2092 -0.6268  2.6367
 6384TIP3   OH240642   4.481   2.178   4.793  0.0258  0.6559 -0.3490
 6384TIP3    H140643   4.478   2.260   4.744 -1.4122  0.4468 -0.6512
 6384TIP3    H240644   4.519   2.115   4.732 -1.5279  0.4536 -1.1345
 6385TIP3   OH240645   0.551   3.601   3.293  0.4045 -0.9041 -0.0588
 6385TIP3    H140646   0.495   3.587   3.217 -0.3502 -2.7305  0.7844
 6385TIP3    H240647   0.626   3.650   3.258 -0.7861 -0.0440 -1.5716
 6386TIP3   OH240648   3.731   2.655  12.054  1.2539  0.5151  0.4578
 6386TIP3    H140649   3.744   2.562  12.072  2.3083  0.6329  0.3723
 6386TIP3    H240650   3.695   2.690  12.135  1.9350  0.2384  0.8916
 6387TIP3   OH240651   3.617   2.547  14.899  0.1569 -0.0717  0.6572
 6387TIP3    H140652   3.606   2.514  14.988  2.8426 -1.3056  0.6419
 6387TIP3    H240653   3.676   2.622  14.908 -1.3113  1.2036  0.0812
 6388TIP3   OH240654   0.707   6.221   3.365  0.0794  0.1640  0.7230
 6388TIP3    H140655   0.625   6.195   3.407 -0.4261  0.3336 -0.1410
 6388TIP3    H240656   0.744   6.287   3.424  1.7464 -2.8225  3.3473
 6389TIP3   OH240657   1.651   5.367   0.281 -0.1706  0.2766 -0.4474
 6389TIP3    H140658   1.612   5.401   0.361 -0.4981  1.3353 -1.0344
 6389TIP3    H240659   1.641   5.272   0.288 -3.5857  0.4648 -0.8896
 6390TIP3   OH240660   6.152   3.620  16.097 -0.1117 -0.3248  0.1778
 6390TIP3    H140661   6.095   3.651  16.026  0.6856  0.3934 -0.1687
 6390TIP3    H240662   6.126   3.529  16.110 -0.2697 -0.4747 -1.0500
 6391TIP3   OH240663   2.533   4.313  16.885  0.3278  0.1908 -0.2679
 6391TIP3    H140664   2.605   4.288  16.943  0.7721  0.3425 -0.7469
 6391TIP3    H240665   2.469   4.243  16.895  1.3230 -0.8863 -1.1855
 6392TIP3   OH240666   0.436   2.922   0.219  0.2090  0.2247 -0.0553
 6392TIP3    H140667   0.387   3.003   0.203  0.2336  0.0458 -1.1150
 6392TIP3    H240668   0.528   2.949   0.218  0.1960  0.2829  0.2255
 6393TIP3   OH240669   5.768   5.974  12.737  0.2030 -0.0421 -0.1279
 6393TIP3    H140670   5.829   5.949  12.667  0.6661  2.0131 -0.5092
 6393TIP3    H240671   5.683   5.941  12.707  0.4846  0.3589 -1.4316
 6394TIP3   OH240672   1.249   2.616   5.687 -0.9239  0.4448 -0.3324
 6394TIP3    H140673   1.302   2.667   5.625 -0.9367 -0.3349 -0.9995
 6394TIP3    H240674   1.196   2.682   5.732  0.6994  1.2614  0.4575
 6395TIP3   OH240675   1.265   0.397  14.355 -0.0594  0.3183  0.1967
 6395TIP3    H140676   1.221   0.344  14.288  1.4192  0.2469 -0.7785
 6395TIP3    H240677   1.241   0.356  14.438  0.4286 -1.4659 -0.4893
 6396TIP3   OH240678   0.201   5.656   3.206 -0.1858 -0.2537  0.6497
 6396TIP3    H140679   0.266   5.689   3.268  0.9018 -0.3139 -0.4119
 6396TIP3    H240680   0.175   5.734   3.156 -0.4614 -0.3367  0.6669
 6397TIP3   OH240681   2.952   5.021  17.027  0.6415 -0.7898  0.0354
 6397TIP3    H140682   2.933   5.071  17.107  0.5749 -1.0380  0.1755
 6397TIP3    H240683   2.865   5.001  16.991  0.6637  1.3787 -1.4028
 6398TIP3   OH240684   1.046   5.851   2.910  0.3154  0.2671  0.5295
 6398TIP3    H140685   1.088   5.930   2.946  1.2801  0.3873 -0.7754
 6398TIP3    H240686   1.116   5.786   2.907  0.2359  0.2127 -0.9228
 6399TIP3   OH240687   5.499   2.603   0.540 -0.4482 -0.5355  0.3809
 6399TIP3    H140688   5.431   2.646   0.591 -0.5795  0.0557 -0.2879
 6399TIP3    H240689   5.576   2.659   0.551 -0.1790 -0.9806  0.7976
 6400TIP3   OH240690   2.209   2.604  10.615  0.0728  0.5243  0.1042
 6400TIP3    H140691   2.189   2.510  10.621  1.4578  0.2612  1.1491
 6400TIP3    H240692   2.300   2.607  10.585  0.3046  1.5213  0.8639
 6401TIP3   OH240693   2.579   4.431   0.652  0.3391 -0.0353 -0.4816
 6401TIP3    H140694   2.669   4.416   0.679  0.3609 -0.1992 -0.6447
 6401TIP3    H240695   2.529   4.364   0.698  0.3348 -0.1107 -0.5954
 6402TIP3   OH240696   0.286   5.536  13.301  0.6889  0.2429 -0.0707
 6402TIP3    H140697   0.286   5.576  13.213  0.3276  0.7900  0.1707
 6402TIP3    H240698   0.284   5.610  13.361 -1.9726 -0.0983  0.3833
 6403TIP3   OH240699   0.830   0.919  11.276  0.2935 -0.2316 -0.4622
 6403TIP3    H140700   0.903   0.934  11.336 -0.2366 -1.2468  0.4827
 6403TIP3    H240701   0.822   1.000  11.227  1.2552  0.3474  0.3023
 6404TIP3   OH240702   4.818   3.950   2.031 -0.3975  0.2337  0.1375
 6404TIP3    H140703   4.744   4.008   2.049  0.0362  0.9611 -0.3746
 6404TIP3    H240704   4.861   3.939   2.116 -0.1681  1.1046  0.1364
 6405TIP3   OH240705   3.101   4.835   1.090  0.3110  0.2753  0.3600
 6405TIP3    H140706   3.162   4.764   1.066 -0.4310 -1.0457  2.1166
 6405TIP3    H240707   3.016   4.804   1.059 -0.1478 -0.0196  1.8360
 6406TIP3   OH240708   5.803   6.766   0.210 -0.5691 -0.1514  0.2975
 6406TIP3    H140709   5.853   6.835   0.167 -2.4179  1.0635 -0.0239
 6406TIP3    H240710   5.797   6.696   0.144 -1.5372  0.8081 -0.6867
 6407TIP3   OH240711   2.108   4.668  13.020 -0.0248 -0.8371  0.0832
 6407TIP3    H140712   2.070   4.747  12.980  0.1134 -1.1423 -0.6649
 6407TIP3    H240713   2.033   4.624  13.061 -0.2891 -0.8625 -0.4169
 6408TIP3   OH240714   2.514   5.805  14.439 -0.5457 -0.2778  0.0887
 6408TIP3    H140715   2.434   5.846  14.407 -0.9519  1.0150  2.5167
 6408TIP3    H240716   2.581   5.874  14.433  0.0587 -0.9111 -0.6316
 6409TIP3   OH240717   2.070   0.901   2.064  0.2423  0.2781 -0.0332
 6409TIP3    H140718   2.095   0.820   2.019  3.7844  1.1002  0.1684
 6409TIP3    H240719   2.047   0.962   1.993  2.0154  0.4038 -0.5375
 6410TIP3   OH240720   1.094   4.578  11.603  0.6055 -0.2572  0.0418
 6410TIP3    H140721   1.183   4.549  11.582  0.4350 -0.5114 -0.3478
 6410TIP3    H240722   1.044   4.497  11.611  0.7159 -0.1847  1.7457
 6411TIP3   OH240723   6.329   1.744  12.830  0.7733  0.3014  0.1949
 6411TIP3    H140724   6.374   1.677  12.778 -1.0408  0.2239 -1.3861
 6411TIP3    H240725   6.325   1.707  12.918 -0.3287 -1.7963 -0.6753
 6412TIP3   OH240726   4.590   6.734  15.667  0.0389 -0.3600  0.0365
 6412TIP3    H140727   4.511   6.703  15.621  0.0369 -1.9202  1.0095
 6412TIP3    H240728   4.660   6.679  15.633  0.0612 -1.4506  1.7349
 6413TIP3   OH240729   4.973   3.937  11.693 -0.0250 -0.0048  0.3782
 6413TIP3    H140730   4.973   3.842  11.679 -0.9031 -0.0031  0.2904
 6413TIP3    H240731   4.943   3.973  11.610  2.3761  0.5110 -0.3311
 6414TIP3   OH240732   5.686   4.244  14.849  0.2733  0.3542  0.0399
 6414TIP3    H140733   5.670   4.150  14.855  1.9866 -0.0759 -1.3874
 6414TIP3    H240734   5.763   4.260  14.904 -1.2858  1.3680  2.0776
 6415TIP3   OH240735   5.747   6.428   5.837 -0.3841  0.0908 -0.3091
 6415TIP3    H140736   5.728   6.408   5.928 -3.0430  0.7741 -0.6498
 6415TIP3    H240737   5.788   6.348   5.803 -0.9951 -0.8083  1.0179
 6416TIP3   OH240738   5.731   4.926  16.649 -0.4973  0.2691  0.4011
 6416TIP3    H140739   5.701   4.870  16.578  0.7004  2.2100 -1.7613
 6416TIP3    H240740   5.654   4.940  16.703 -0.8921 -3.2478  1.0030
 6417TIP3   OH240741   5.893   5.363   1.157 -0.0727 -0.1603  0.5204
 6417TIP3    H140742   5.860   5.324   1.237 -2.3273  1.9426  0.7317
 6417TIP3    H240743   5.936   5.444   1.185 -0.8556  0.5791 -0.3699
 6418TIP3   OH240744   0.289   6.258   1.617  0.3305  0.3020  0.1226
 6418TIP3    H140745   0.232   6.185   1.593  0.6716 -0.1377  0.6257
 6418TIP3    H240746   0.277   6.322   1.546  1.9388 -1.2837 -1.7047
 6419TIP3   OH240747   4.468   4.538  15.299 -0.4537 -0.4202 -0.3631
 6419TIP3    H140748   4.451   4.557  15.207  0.4470  0.5301 -0.3603
 6419TIP3    H240749   4.534   4.603  15.324  1.7898 -2.7074  0.0548
 6420TIP3   OH240750   0.781   1.889   3.074 -0.3930 -0.1594  0.5384
 6420TIP3    H140751   0.767   1.855   2.985 -1.0935 -1.5624  1.1617
 6420TIP3    H240752   0.692   1.911   3.105  0.0093  2.4791  0.1208
 6421TIP3   OH240753   1.917   0.653   4.920  0.2629  0.6013 -0.1091
 6421TIP3    H140754   1.971   0.574   4.920 -0.3620  0.0456  2.6255
 6421TIP3    H240755   1.840   0.630   4.867  0.4918 -0.3216 -0.0525
 6422TIP3   OH240756   5.657   4.356   2.505  0.0294  0.2615  0.0950
 6422TIP3    H140757   5.649   4.352   2.601 -0.2849  0.9769  0.1007
 6422TIP3    H240758   5.703   4.275   2.482  1.0406  0.5753  0.9432
 6423TIP3   OH240759   1.050   5.968   5.407 -0.0136  0.3211 -0.1417
 6423TIP3    H140760   0.989   5.959   5.335 -1.6816 -0.4167  1.2849
 6423TIP3    H240761   1.091   5.882   5.415  1.8127  0.9988 -1.5315
 6424TIP3   OH240762   6.134   3.721   4.554  0.0729  0.3853 -0.1295
 6424TIP3    H140763   6.095   3.700   4.469  1.5644 -1.5008 -0.4045
 6424TIP3    H240764   6.085   3.797   4.585 -2.0917 -0.3349 -1.5850
 6425TIP3   OH240765   5.218   5.003   5.160  0.2397 -0.2557 -0.0929
 6425TIP3    H140766   5.252   5.068   5.221 -0.3244  1.2488 -1.3234
 6425TIP3    H240767   5.296   4.964   5.121  0.5817  0.3930 -0.0687
 6426TIP3   OH240768   2.536   6.704  14.980 -0.7131 -0.9872 -0.6315
 6426TIP3    H140769   2.624   6.677  14.954 -0.6112 -0.6257 -0.6654
 6426TIP3    H240770   2.481   6.628  14.961 -0.7658 -0.5315 -2.4966
 6427TIP3   OH240771   0.814   6.807  15.234 -0.3925  0.4180 -0.1779
 6427TIP3    H140772   0.846   6.873  15.296 -1.1997  0.2371  0.4402
 6427TIP3    H240773   0.843   6.839  15.149  0.6509  0.7201  0.2768
 6428TIP3   OH240774   6.272   3.942  16.526 -0.6342  0.3218 -0.3582
 6428TIP3    H140775   6.232   4.029  16.521  1.1432  1.2297  0.4356
 6428TIP3    H240776   6.298   3.932  16.617 -0.7513 -1.0428 -0.4503
 6429TIP3   OH240777   3.826   6.630  11.474 -0.6335  0.2028  0.4989
 6429TIP3    H140778   3.859   6.542  11.456 -1.8266 -0.1436 -0.0905
 6429TIP3    H240779   3.898   6.689  11.449  0.8185 -0.6187  2.4319
 6430TIP3   OH240780   2.021   1.229   2.691  0.4131  0.1928  0.3319
 6430TIP3    H140781   2.023   1.210   2.785 -1.3711 -2.1363 -0.0325
 6430TIP3    H240782   2.046   1.146   2.649 -0.5808  0.6708 -1.2799
 6431TIP3   OH240783   1.838   4.006   4.972  0.8096 -0.3824  0.5322
 6431TIP3    H140784   1.775   4.046   5.032  0.2071 -2.1467  1.1444
 6431TIP3    H240785   1.784   3.954   4.912  1.2871  2.2142 -2.3798
 6432TIP3   OH240786   1.924   2.159   3.254 -0.0231 -0.5665 -0.1307
 6432TIP3    H140787   1.838   2.124   3.232 -0.4139  0.5263 -0.4222
 6432TIP3    H240788   1.985   2.105   3.204 -0.4570 -1.8553  0.6866
 6433TIP3   OH240789   5.026   1.903  14.268  0.2792  0.1992  0.1683
 6433TIP3    H140790   5.030   1.826  14.324 -1.0465  0.5308  0.7590
 6433TIP3    H240791   4.986   1.971  14.324 -2.4774  0.1451 -1.5714
 6434TIP3   OH240792   2.303   4.099   0.550  0.6356  0.1888  0.4302
 6434TIP3    H140793   2.385   4.083   0.596  1.7586  1.8630 -0.8797
 6434TIP3    H240794   2.323   4.083   0.458 -0.5525  0.4784  0.1085
 6435TIP3   OH240795   3.427   6.146  13.608 -0.0690  0.1077 -0.0708
 6435TIP3    H140796   3.387   6.230  13.631  0.7797  0.3479  0.5991
 6435TIP3    H240797   3.360   6.100  13.557 -0.7596  0.9520  0.0566
 6436TIP3   OH240798   6.808   4.700   3.324  0.2060 -0.2652 -0.3377
 6436TIP3    H140799   6.813   4.681   3.231 -1.0956  0.9215 -0.6876
 6436TIP3    H240800   6.722   4.668   3.351  0.0749  0.4903  0.1782
 6437TIP3   OH240801   6.221   2.143  15.940 -0.2168 -0.4412 -0.5449
 6437TIP3    H140802   6.226   2.080  16.011 -0.2177  0.1409 -0.0169
 6437TIP3    H240803   6.209   2.090  15.861  2.0676 -1.2505 -0.4300
 6438TIP3   OH240804   0.800   3.783   3.226  0.2515  0.3865  0.7128
 6438TIP3    H140805   0.790   3.875   3.202  2.1592  0.2214 -0.9736
 6438TIP3    H240806   0.837   3.785   3.314 -0.0800  1.2199  0.8442
 6439TIP3   OH240807   2.898   4.925   4.787  0.3553 -0.3939 -0.2485
 6439TIP3    H140808   2.835   4.960   4.724  1.8748  3.7010  0.1973
 6439TIP3    H240809   2.846   4.905   4.864 -0.9705 -1.6675 -1.4046
 6440TIP3   OH240810   3.518   4.869  15.528 -0.0530 -0.4935 -0.2087
 6440TIP3    H140811   3.491   4.820  15.451  1.4410 -0.1628 -0.9957
 6440TIP3    H240812   3.443   4.924  15.550 -1.1829 -1.9605 -0.2592
 6441TIP3   OH240813   2.917   2.843  12.872 -0.6699 -0.4816  0.0233
 6441TIP3    H140814   2.967   2.873  12.796 -2.0055  1.2267 -0.2406
 6441TIP3    H240815   2.966   2.878  12.947 -2.4159  3.1323 -0.2777
 6442TIP3   OH240816   4.599   3.445  15.889  0.8200 -0.0463 -0.0907
 6442TIP3    H140817   4.619   3.480  15.976  2.4533  2.5246 -1.3877
 6442TIP3    H240818   4.683   3.413  15.856  0.5443  0.4111 -1.2905
 6443TIP3   OH240819   3.385   1.708  13.143 -0.1799  0.2518 -0.0077
 6443TIP3    H140820   3.372   1.619  13.109  0.8556  1.1433 -3.0730
 6443TIP3    H240821   3.458   1.700  13.204 -0.3275 -1.0396  0.0269
 6444TIP3   OH240822   2.494   0.048  10.616 -0.7083 -0.0233  0.2678
 6444TIP3    H140823   2.436  -0.025  10.640 -0.1124 -0.1412  1.4406
 6444TIP3    H240824   2.566   0.043  10.679  0.4443  0.3001 -0.9787
 6445TIP3   OH240825   6.187   5.751  13.288 -0.4503  0.5215 -0.1180
 6445TIP3    H140826   6.210   5.722  13.376 -0.1004  0.2624 -0.2933
 6445TIP3    H240827   6.217   5.681  13.230 -2.0821 -0.0386 -0.3257
 6446TIP3   OH240828   6.427   6.679   3.840 -0.0052 -0.0046 -0.4600
 6446TIP3    H140829   6.348   6.625   3.844 -0.2297  0.2200 -1.5100
 6446TIP3    H240830   6.412   6.749   3.902 -0.1152 -0.6245  0.2231
 6447TIP3   OH240831   5.457   3.602  15.457 -0.3483  0.0062  0.1418
 6447TIP3    H140832   5.415   3.542  15.396 -0.0649 -0.0150 -0.0340
 6447TIP3    H240833   5.546   3.567  15.468 -0.0051  0.6836 -0.3728
 6448TIP3   OH240834   2.802   2.466  13.619  0.1304  0.3244  0.1251
 6448TIP3    H140835   2.741   2.536  13.599 -2.2235 -1.1305  1.7097
 6448TIP3    H240836   2.833   2.486  13.707  0.5940  0.1494  0.0037
 6449TIP3   OH240837   1.040   4.947  13.153  0.1350  0.4713 -0.6418
 6449TIP3    H140838   1.070   4.861  13.126 -0.2768 -0.1658  0.8297
 6449TIP3    H240839   0.990   4.980  13.078 -0.6759 -1.0606 -0.8041
 6450TIP3   OH240840   3.785   3.957  14.450  0.3622 -0.0187 -0.6554
 6450TIP3    H140841   3.866   3.959  14.398  0.7790 -1.1076 -0.0858
 6450TIP3    H240842   3.725   3.903  14.398  0.5915 -0.6415 -0.2856
 6451TIP3   OH240843   1.996   5.089   4.349 -0.5281 -0.3415  0.1063
 6451TIP3    H140844   1.999   5.098   4.254  1.0787 -0.6231  0.0945
 6451TIP3    H240845   1.980   5.178   4.381 -1.9824 -0.3923 -0.4347
 6452TIP3   OH240846   4.728   2.518   5.342  0.3704  0.5311  0.1680
 6452TIP3    H140847   4.664   2.545   5.277 -1.1847  0.6252  1.6685
 6452TIP3    H240848   4.734   2.423   5.332 -1.2673  0.2975  1.0580
 6453TIP3   OH240849   2.179   5.586   3.517 -0.9661 -0.0371 -0.4834
 6453TIP3    H140850   2.185   5.657   3.453 -1.6958  0.0027 -0.5114
 6453TIP3    H240851   2.267   5.583   3.556 -0.7071  0.3765 -1.0110
 6454TIP3   OH240852   3.465   6.687   5.267 -0.2354 -0.4174 -0.1123
 6454TIP3    H140853   3.495   6.723   5.350 -0.6086 -1.6477  0.5897
 6454TIP3    H240854   3.412   6.756   5.227  0.2760  0.3241  0.4863
 6455TIP3   OH240855   2.073   4.801   0.242 -0.5032 -0.2361 -0.3990
 6455TIP3    H140856   2.110   4.718   0.213  2.4024 -0.1858  2.4784
 6455TIP3    H240857   2.011   4.777   0.311 -0.6775 -0.0528 -0.4906
 6456TIP3   OH240858   0.025   3.709   0.123 -0.3437 -0.4047  0.6362
 6456TIP3    H140859  -0.011   3.789   0.162 -0.9621  0.1569 -0.9979
 6456TIP3    H240860   0.028   3.646   0.195 -1.3428  0.6058  1.5984
 6457TIP3   OH240861   3.201   2.555   1.533  0.1355 -0.7564 -0.1850
 6457TIP3    H140862   3.130   2.509   1.489 -0.9171 -0.2679  0.9500
 6457TIP3    H240863   3.219   2.630   1.476  0.4959 -1.4504 -1.0167
 6458TIP3   OH240864   0.221   2.283   2.801  0.0078  0.3749  0.2457
 6458TIP3    H140865   0.185   2.217   2.859 -1.8042  0.4989 -0.6725
 6458TIP3    H240866   0.147   2.311   2.747  1.4317  0.8185 -1.5881
 6459TIP3   OH240867   3.966   2.928   1.903  0.3827 -0.7218 -0.1344
 6459TIP3    H140868   4.033   2.940   1.836  1.2252  2.1151  1.0526
 6459TIP3    H240869   4.016   2.916   1.984 -0.5956 -4.2199  0.1086
 6460TIP3   OH240870   0.346   3.830   1.481 -0.1115 -0.0064 -0.1677
 6460TIP3    H140871   0.346   3.925   1.468 -1.4070 -0.0130 -0.3832
 6460TIP3    H240872   0.344   3.794   1.392 -0.7812 -0.2017 -0.0823
 6461TIP3   OH240873   1.912   3.530  13.590  0.2803 -0.4046 -0.2974
 6461TIP3    H140874   1.997   3.498  13.558  1.4922  1.3630  0.9798
 6461TIP3    H240875   1.924   3.539  13.684 -1.5503 -0.6386 -0.0039
 6462TIP3   OH240876   2.385   5.623  16.218 -0.0250  0.0636 -0.2332
 6462TIP3    H140877   2.481   5.632  16.222  0.1002 -1.4135  1.1478
 6462TIP3    H240878   2.360   5.601  16.308 -1.6994  0.5475 -0.5565
 6463TIP3   OH240879   2.275   1.661   2.919 -0.5277  0.0995  0.1247
 6463TIP3    H140880   2.274   1.685   2.826  0.5304  0.6627  0.2451
 6463TIP3    H240881   2.240   1.737   2.964  0.9548  0.6709  0.3465
 6464TIP3   OH240882   4.341   6.690   3.689  0.4128  0.7914 -0.6617
 6464TIP3    H140883   4.256   6.661   3.722  0.3525  2.0394  0.3520
 6464TIP3    H240884   4.383   6.732   3.764  0.5381  3.1762 -1.9783
 6465TIP3   OH240885   1.513   1.749  13.408 -0.2958 -0.0912  0.5484
 6465TIP3    H140886   1.480   1.839  13.413  0.3052  0.2363 -0.8600
 6465TIP3    H240887   1.579   1.745  13.478  0.3543  0.8901  0.0267
 6466TIP3   OH240888   0.256   5.290  12.321 -0.4484  0.2393 -0.3116
 6466TIP3    H140889   0.213   5.256  12.400  0.3395  3.2651  1.5823
 6466TIP3    H240890   0.348   5.265  12.332 -0.5787 -0.6186 -1.0721
 6467TIP3   OH240891   5.508   3.382  10.555 -0.6259 -0.1572 -0.1541
 6467TIP3    H140892   5.589   3.344  10.591 -0.9964  0.4006  1.3499
 6467TIP3    H240893   5.466   3.423  10.630 -1.1594  1.6100 -1.3631
 6468TIP3   OH240894   4.773   4.484  13.587 -0.0635 -0.5210 -0.3532
 6468TIP3    H140895   4.683   4.454  13.602  0.6238 -2.0580  1.0680
 6468TIP3    H240896   4.813   4.415  13.533  0.1381  0.4092 -1.4229
 6469TIP3   OH240897   3.840   3.668  16.320  0.1468  0.3702 -0.5022
 6469TIP3    H140898   3.805   3.746  16.277 -0.3697  0.6065  0.3219
 6469TIP3    H240899   3.764   3.612  16.336  0.3696  0.1465 -0.1948
 6470TIP3   OH240900   1.079   6.595   1.619  0.4282 -0.3884 -0.1427
 6470TIP3    H140901   1.129   6.628   1.545  1.1268  1.6647  1.1611
 6470TIP3    H240902   1.031   6.520   1.584  1.1102  0.2021 -2.5167
 6471TIP3   OH240903   5.865   6.048   0.373 -0.4324  0.2433  0.1285
 6471TIP3    H140904   5.908   5.967   0.344 -2.0567  0.4649 -3.4890
 6471TIP3    H240905   5.831   6.027   0.460  1.3513 -2.0538  0.3861
 6472TIP3   OH240906   6.587   3.127   5.831 -0.4605  0.2678 -0.1308
 6472TIP3    H140907   6.631   3.130   5.746 -0.4215 -2.5468 -0.3318
 6472TIP3    H240908   6.504   3.083   5.814 -0.6659  0.0819  1.1982
 6473TIP3   OH240909   5.269   1.168  12.262 -0.1321  0.2414  0.0107
 6473TIP3    H140910   5.184   1.210  12.273 -0.7715 -0.9781 -0.0241
 6473TIP3    H240911   5.276   1.106  12.335  1.2967  1.2002  0.7314
 6474TIP3   OH240912   2.296   2.263  11.017 -0.1103  0.6371 -0.2079
 6474TIP3    H140913   2.214   2.271  10.969 -0.7176  4.1403  1.1103
 6474TIP3    H240914   2.356   2.323  10.973  1.6283 -1.3518 -0.7298
 6475TIP3   OH240915   6.468   6.588  15.852 -0.5506 -0.8922  0.4103
 6475TIP3    H140916   6.485   6.681  15.835  1.6393 -1.1897  0.6534
 6475TIP3    H240917   6.438   6.586  15.944  0.6004 -0.5209  0.8074
 6476TIP3   OH240918   0.015   2.813   0.628  0.2308  0.4348 -0.4413
 6476TIP3    H140919   0.105   2.783   0.640  1.2280  2.9362 -1.0405
 6476TIP3    H240920  -0.023   2.811   0.717  0.5312 -1.5018 -0.3259
 6477TIP3   OH240921   1.107   3.000   1.400  0.4037  0.1051  0.4663
 6477TIP3    H140922   1.066   3.062   1.460  1.6999  1.9553 -0.4635
 6477TIP3    H240923   1.118   3.049   1.318 -1.6311 -2.4187 -1.5195
 6478TIP3   OH240924   0.218   4.387  12.121  0.2411  0.1573 -0.0058
 6478TIP3    H140925   0.178   4.474  12.123  1.7637  0.8802  0.8980
 6478TIP3    H240926   0.310   4.403  12.101  0.5913 -1.2397  0.3669
 6479TIP3   OH240927   2.993   2.237  16.097  0.0845  0.0296  0.0179
 6479TIP3    H140928   2.910   2.221  16.052  0.5865 -0.2041 -0.8501
 6479TIP3    H240929   2.980   2.203  16.185 -0.8089  0.1866 -0.0456
 6480TIP3   OH240930   2.455   4.014   3.304  0.2398  0.0077  0.7282
 6480TIP3    H140931   2.397   3.939   3.296 -1.1260  1.0422  0.3967
 6480TIP3    H240932   2.426   4.058   3.384 -0.9952  1.7447 -0.5789
 6481TIP3   OH240933   1.406   2.041   5.906 -0.3545 -0.0650  0.5053
 6481TIP3    H140934   1.484   1.990   5.886 -1.1336 -0.7630 -0.9587
 6481TIP3    H240935   1.335   1.977   5.908 -1.3400  0.8672 -1.2235
 6482TIP3   OH240936   5.235   4.907   2.895  0.0487 -0.0067  0.4182
 6482TIP3    H140937   5.141   4.888   2.892  0.0921 -0.0743 -1.5925
 6482TIP3    H240938   5.266   4.892   2.806  1.7411  1.2367  0.7420
 6483TIP3   OH240939   2.144   4.935  13.407  0.3779 -0.3811  0.7301
 6483TIP3    H140940   2.196   4.872  13.357 -0.5929 -1.5346  1.1188
 6483TIP3    H240941   2.058   4.893  13.415 -1.0526  1.9749 -0.9676
 6484TIP3   OH240942   2.822   3.067   5.183  1.1075  0.0566 -0.4221
 6484TIP3    H140943   2.828   3.156   5.218 -0.5698  0.1751 -0.3764
 6484TIP3    H240944   2.729   3.046   5.186  1.3769 -1.3777 -1.2518
 6485TIP3   OH240945   4.823   5.837  11.422 -0.1914  0.4175 -0.2056
 6485TIP3    H140946   4.728   5.849  11.421 -0.5063 -1.7472 -1.0077
 6485TIP3    H240947   4.852   5.881  11.501 -1.9462  0.5553  0.4055
 6486TIP3   OH240948   4.483   2.458  16.432  0.2580 -0.0798  0.9052
 6486TIP3    H140949   4.542   2.414  16.492 -2.4164 -1.9649  2.3861
 6486TIP3    H240950   4.510   2.550  16.434  4.3811 -1.0929 -0.2608
 6487TIP3   OH240951   4.664   3.499  16.147 -0.0128  0.2135  0.2176
 6487TIP3    H140952   4.726   3.440  16.190  1.5632  0.2511 -1.8488
 6487TIP3    H240953   4.691   3.586  16.176  0.3577  0.1721  0.0125
 6488TIP3   OH240954   2.142   3.339  15.636  0.3249  0.0992  0.3537
 6488TIP3    H140955   2.227   3.377  15.615  0.3488  0.7546  1.5003
 6488TIP3    H240956   2.116   3.292  15.557  2.2981 -1.1548  0.3809
 6489TIP3   OH240957   2.654   2.319   5.652  0.0686 -0.1614 -0.2792
 6489TIP3    H140958   2.672   2.392   5.711  0.9214 -1.6059  1.3358
 6489TIP3    H240959   2.739   2.283   5.630 -0.3491 -0.9942 -0.6026
 6490TIP3   OH240960   4.745   2.232  14.356  0.2337  0.4130  0.0309
 6490TIP3    H140961   4.662   2.249  14.400  0.5855  0.1539  0.8185
 6490TIP3    H240962   4.769   2.316  14.316 -1.1784  0.0931 -1.5932
 6491TIP3   OH240963   2.634   5.607  11.113  0.0915 -0.4310  0.5052
 6491TIP3    H140964   2.645   5.682  11.056 -0.3340 -1.9086 -1.6347
 6491TIP3    H240965   2.541   5.587  11.111  0.2801 -1.3763  0.5666
 6492TIP3   OH240966   4.551   3.317   3.496  0.4992 -0.0920 -0.0875
 6492TIP3    H140967   4.522   3.398   3.455  1.9300 -0.1658 -1.3319
 6492TIP3    H240968   4.482   3.254   3.477  0.9167  0.0030 -2.0414
 6493TIP3   OH240969   6.292   3.007  16.857  0.3469  0.3438 -0.1795
 6493TIP3    H140970   6.382   3.002  16.889  0.3359  1.3402  0.0386
 6493TIP3    H240971   6.289   2.945  16.784  0.7777 -0.8510  0.7894
 6494TIP3   OH240972   1.705   4.008   0.611  0.0358  0.0243 -0.2691
 6494TIP3    H140973   1.786   3.957   0.613 -0.0286 -0.1936 -1.9466
 6494TIP3    H240974   1.678   4.015   0.703  1.2811 -0.9724  0.1889
 6495TIP3   OH240975   6.383   4.161  13.407  0.4671  0.3046  0.2438
 6495TIP3    H140976   6.431   4.120  13.335 -2.0180 -0.3447 -1.1744
 6495TIP3    H240977   6.353   4.245  13.371 -0.8505 -0.0553  0.4556
 6496TIP3   OH240978   1.617   6.438  14.524 -0.1396  0.0355  0.2170
 6496TIP3    H140979   1.540   6.448  14.469  0.3826  0.8583 -0.3859
 6496TIP3    H240980   1.654   6.526  14.531  0.3104 -0.2052  1.1472
 6497TIP3   OH240981   6.054   3.825  17.120 -0.4314 -0.2963  0.9927
 6497TIP3    H140982   6.102   3.891  17.070  1.3681 -0.8911  1.8612
 6497TIP3    H240983   5.989   3.875  17.169 -0.6742  0.5467 -0.1317
 6498TIP3   OH240984   0.228   5.283  14.402 -0.8490  0.5828  0.0829
 6498TIP3    H140985   0.162   5.345  14.433 -2.0759 -0.3393 -0.6122
 6498TIP3    H240986   0.192   5.197  14.422  0.3870  0.0559  0.1469
 6499TIP3   OH240987   2.161   1.700  16.010 -0.0808  0.0703  0.5333
 6499TIP3    H140988   2.077   1.656  16.022 -0.5764  0.6247 -0.7259
 6499TIP3    H240989   2.223   1.645  16.057 -0.9848 -0.9431  0.5851
 6500TIP3   OH240990   0.022   5.246   2.474  0.2361 -0.1711 -0.5056
 6500TIP3    H140991   0.114   5.225   2.494 -0.0614 -1.5465 -0.4913
 6500TIP3    H240992   0.027   5.301   2.396  1.1272  0.7159  0.1491
 6501TIP3   OH240993   1.402   1.917  15.249  0.2497  0.3318  0.5073
 6501TIP3    H140994   1.463   1.849  15.279 -1.6121 -0.7076  2.1904
 6501TIP3    H240995   1.333   1.918  15.316 -0.3117  3.2125  0.0013
 6502TIP3   OH240996   3.897   1.760   0.504  0.3177 -0.5237 -0.5229
 6502TIP3    H140997   3.945   1.679   0.520  1.8495  0.3719 -0.4045
 6502TIP3    H240998   3.854   1.779   0.587  1.4832 -0.2608  0.0501
 6503TIP3   OH240999   0.093   3.329   4.162  0.5228 -0.0625 -0.3138
 6503TIP3    H141000   0.025   3.396   4.164  0.5208 -0.0788  0.5557
 6503TIP3    H241001   0.050   3.250   4.197  0.5164 -0.5403 -1.3443
 6504TIP3   OH241002   4.746   2.247  10.791 -0.1091  0.2493 -0.7615
 6504TIP3    H141003   4.726   2.337  10.765 -0.6650  0.9672  1.8499
 6504TIP3    H241004   4.759   2.200  10.709 -0.0478  2.6521 -2.2014
 6505TIP3   OH241005   5.136   0.526   0.085 -0.0262  0.4478  0.4705
 6505TIP3    H141006   5.220   0.486   0.060 -0.3679  0.4012 -0.6632
 6505TIP3    H241007   5.083   0.523   0.006 -1.0177  0.7248  1.0992
 6506TIP3   OH241008   6.270   3.863  16.204 -0.2725 -0.4352  0.3360
 6506TIP3    H141009   6.205   3.903  16.261  0.1977  1.2879 -0.2516
 6506TIP3    H241010   6.228   3.784  16.171 -2.2896  0.8546 -0.4016
 6507TIP3   OH241011   4.789   6.788  14.746 -0.3157  0.1869  0.5275
 6507TIP3    H141012   4.760   6.706  14.706 -0.5336  0.5416 -0.0687
 6507TIP3    H241013   4.738   6.855  14.700 -1.1960  0.5630  1.9841
 6508TIP3   OH241014   4.069   4.404   5.948 -0.2699 -0.1867  0.2336
 6508TIP3    H141015   4.061   4.473   6.014 -1.8298  0.1890 -0.3071
 6508TIP3    H241016   4.045   4.324   5.994 -1.6818  0.1214  0.0529
 6509TIP3   OH241017   5.181   3.095   3.377  0.2227 -0.4487  0.2650
 6509TIP3    H141018   5.258   3.093   3.434  0.5033 -1.5953 -0.1338
 6509TIP3    H241019   5.132   3.172   3.406  1.7593  0.5977  0.2081
 6510TIP3   OH241020   0.601   1.247  15.605 -0.1439 -0.2428  0.3837
 6510TIP3    H141021   0.594   1.234  15.510 -2.4847  0.6349  0.3689
 6510TIP3    H241022   0.695   1.248  15.622  0.3314 -1.7333 -1.7124
 6511TIP3   OH241023   6.610   4.168  12.604  0.8284  0.5100 -0.0972
 6511TIP3    H141024   6.665   4.100  12.566  0.3543 -0.6795  1.2148
 6511TIP3    H241025   6.521   4.143  12.579  0.7056  1.0837 -0.2431
 6512TIP3   OH241026   0.845   0.341  11.045 -0.5625  0.2400 -0.0925
 6512TIP3    H141027   0.896   0.266  11.014 -2.2599 -1.6247  1.3032
 6512TIP3    H241028   0.769   0.343  10.987 -1.0081  0.2478  0.4863
 6513TIP3   OH241029   0.079   4.161  13.123  0.5242  0.0881  0.1469
 6513TIP3    H141030   0.053   4.082  13.171  0.1923  0.0609 -0.0754
 6513TIP3    H241031  -0.003   4.208  13.108  0.3956 -0.6295 -1.6843
 6514TIP3   OH241032   6.686   2.155  14.743 -0.1496  0.2737 -0.4080
 6514TIP3    H141033   6.741   2.087  14.705 -1.6877 -0.8522 -0.7262
 6514TIP3    H241034   6.659   2.121  14.828  1.6199  1.9113  0.8872
 6515TIP3   OH241035   0.897   0.120   3.569 -0.2695 -0.0450  0.0309
 6515TIP3    H141036   0.984   0.159   3.568  0.9609 -2.3555  2.6696
 6515TIP3    H241037   0.887   0.083   3.481  1.1079  0.8645 -0.5472
 6516TIP3   OH241038   3.017   2.193  16.352  0.0641  0.1714 -0.5522
 6516TIP3    H141039   3.083   2.249  16.310  0.6060 -1.4819 -2.0369
 6516TIP3    H241040   3.055   2.170  16.436  1.0991 -0.1804 -1.0902
 6517TIP3   OH241041   6.030   1.882  13.536 -0.3074 -0.3034  0.3227
 6517TIP3    H141042   5.934   1.883  13.532 -0.3118 -1.0784 -0.0049
 6517TIP3    H241043   6.056   1.826  13.463  0.4277  0.3610  0.0654
 6518TIP3   OH241044   3.998   2.720   4.508 -0.3674  0.1094 -0.3875
 6518TIP3    H141045   3.932   2.702   4.441 -0.5512  2.4234 -0.9121
 6518TIP3    H241046   4.082   2.712   4.462 -0.2684 -1.7767  0.0252
 6519TIP3   OH241047   3.134   1.987  15.927 -0.6331 -0.8483  0.7388
 6519TIP3    H141048   3.146   2.028  15.841 -0.8837 -1.7350  0.2648
 6519TIP3    H241049   3.041   2.001  15.947 -0.7793 -1.3830  0.4598
 6520TIP3   OH241050   1.737   6.013   6.051  0.2630  0.0115  0.6343
 6520TIP3    H141051   1.803   5.953   6.016 -1.7992 -0.9661 -1.9049
 6520TIP3    H241052   1.657   5.959   6.056 -0.5269  1.2735  3.0982
 6521TIP3   OH241053   5.510   0.121   6.235  0.2616 -0.8979 -0.0188
 6521TIP3    H141054   5.507   0.133   6.140  1.2544 -1.3750 -0.1249
 6521TIP3    H241055   5.598   0.088   6.252  0.6660  0.6972  1.2510
 6522TIP3   OH241056   4.664   6.494   1.821 -0.2429  0.0605 -0.1962
 6522TIP3    H141057   4.699   6.437   1.753 -2.0446 -2.0640  0.5149
 6522TIP3    H241058   4.571   6.502   1.800 -0.2515  1.9193  0.3521
 6523TIP3   OH241059   1.946   4.626   2.402 -0.4515 -0.1394 -0.2877
 6523TIP3    H141060   2.002   4.656   2.474 -0.4264 -0.2473 -0.2611
 6523TIP3    H241061   1.908   4.544   2.435 -2.0984  0.8586  0.4562
 6524TIP3   OH241062   6.482   3.230  14.223 -0.1116  0.0239 -0.3448
 6524TIP3    H141063   6.406   3.172  14.230 -0.4997  0.6087  0.4746
 6524TIP3    H241064   6.557   3.172  14.235 -0.5256 -0.1600  1.6209
 6525TIP3   OH241065   6.628   6.381  16.728  0.2550 -0.2634 -0.7170
 6525TIP3    H141066   6.599   6.401  16.816 -1.0294  0.3194 -1.2532
 6525TIP3    H241067   6.620   6.285  16.721 -0.5940 -0.2124 -0.5163
 6526TIP3   OH241068   4.805   2.472   1.052  0.2223 -0.0966  0.0252
 6526TIP3    H141069   4.752   2.474   1.132  1.3758  1.5896  0.8070
 6526TIP3    H241070   4.741   2.465   0.981 -1.0062  0.9022  0.9846
 6527TIP3   OH241071   0.122   2.841   1.337 -0.0786 -0.7267  0.4844
 6527TIP3    H141072   0.185   2.785   1.294 -0.3669 -0.9795  0.3868
 6527TIP3    H241073   0.174   2.912   1.374  0.2871 -1.0662  0.6239
 6528TIP3   OH241074   1.839   3.550  16.055  0.1891  0.1080 -0.2741
 6528TIP3    H141075   1.760   3.497  16.041 -1.0207  1.9015 -0.5204
 6528TIP3    H241076   1.902   3.516  15.992 -0.3106 -1.4747  0.0349
 6529TIP3   OH241077   1.666   1.001   3.738 -0.0117  0.3342  0.5710
 6529TIP3    H141078   1.595   1.040   3.788  0.4143 -1.7330  2.9839
 6529TIP3    H241079   1.721   1.074   3.713 -0.0801  1.5005  3.4644
 6530TIP3   OH241080   5.584   3.649   1.593 -0.2120 -0.2996  0.3797
 6530TIP3    H141081   5.679   3.662   1.588 -0.1819 -0.9302 -1.3093
 6530TIP3    H241082   5.547   3.732   1.564 -0.1244 -0.7657 -1.1456
 6531TIP3   OH241083   0.030   5.680  16.988  0.2382 -0.3703 -0.7493
 6531TIP3    H141084   0.089   5.611  16.957  0.5826  0.0994 -1.1590
 6531TIP3    H241085  -0.000   5.649  17.073  0.2106 -1.1303 -1.0262
 6532TIP3   OH241086   3.721   1.546  13.612 -0.4934  0.3167  0.1494
 6532TIP3    H141087   3.737   1.548  13.706 -1.9137  0.1692  0.4127
 6532TIP3    H241088   3.694   1.456  13.594 -1.0331  0.5492 -0.2451
 6533TIP3   OH241089   2.473   1.025   1.455  0.0002  0.1961  0.0834
 6533TIP3    H141090   2.398   1.076   1.424 -0.5190 -0.7083 -0.1655
 6533TIP3    H241091   2.527   1.011   1.376  0.7107  1.2664  0.3478
 6534TIP3   OH241092   4.927   0.239  11.298 -0.8292  0.4572 -0.2185
 6534TIP3    H141093   4.969   0.256  11.214 -0.8829  1.2109 -0.0941
 6534TIP3    H241094   4.920   0.324  11.340 -0.6590  0.0719  0.6245
 6535TIP3   OH241095   0.383   3.268  11.422 -0.4376  0.3909 -0.1791
 6535TIP3    H141096   0.428   3.324  11.359  1.7037 -0.2966  0.6569
 6535TIP3    H241097   0.400   3.307  11.507 -1.5209  0.1454  0.1725
 6536TIP3   OH241098   3.736   6.225   4.222 -0.1259 -0.5961  0.3978
 6536TIP3    H141099   3.642   6.215   4.209 -0.0563  0.4765 -1.0996
 6536TIP3    H241100   3.774   6.210   4.136  0.9205  0.7494  0.5951
 6537TIP3   OH241101   0.940   1.868  14.209 -0.3188 -0.1530 -0.2675
 6537TIP3    H141102   1.019   1.840  14.256 -0.4698  0.1357  0.1612
 6537TIP3    H241103   0.881   1.898  14.278 -0.3442  0.7685 -0.6846
 6538TIP3   OH241104   6.419   3.669   3.457 -0.0930 -0.7264 -0.0326
 6538TIP3    H141105   6.403   3.758   3.490 -0.9728 -0.8853  0.0001
 6538TIP3    H241106   6.492   3.679   3.396  0.4831 -0.1520  0.7277
 6539TIP3   OH241107   6.241   4.573  12.331  0.4631 -0.1858 -0.4176
 6539TIP3    H141108   6.272   4.510  12.396  3.4756 -0.3372 -1.8050
 6539TIP3    H241109   6.301   4.647  12.340 -2.3022  2.0886  0.4044
 6540TIP3   OH241110   1.880   2.976  10.964  0.8551  0.4577  0.1366
 6540TIP3    H141111   1.958   2.965  10.909 -0.6309  0.0427 -2.0316
 6540TIP3    H241112   1.863   3.071  10.962  0.7810  0.4405 -0.2004
 6541TIP3   OH241113   2.861   3.974  11.287  0.5727  0.1667  0.3990
 6541TIP3    H141114   2.954   3.967  11.264  0.9401  0.9394  1.5821
 6541TIP3    H241115   2.816   3.983  11.203  1.5539 -0.2589 -0.1912
 6542TIP3   OH241116   4.227   4.293  13.950  0.4688  0.4153 -0.1604
 6542TIP3    H141117   4.248   4.229  13.882 -1.6658  0.6079 -1.0745
 6542TIP3    H241118   4.217   4.376  13.904 -0.8858  0.5776  0.3591
 6543TIP3   OH241119   6.402   0.858  16.721 -0.0400  0.7180  0.2642
 6543TIP3    H141120   6.464   0.845  16.649 -0.2791  1.4399 -0.0831
 6543TIP3    H241121   6.370   0.771  16.742  1.6829  0.1944  0.9864
 6544TIP3   OH241122   1.992   1.398  16.097 -0.6349 -0.4121  0.1976
 6544TIP3    H141123   1.913   1.351  16.123  1.1520 -2.3897  2.5165
 6544TIP3    H241124   2.042   1.408  16.178  2.3081 -0.9226 -1.4107
 6545TIP3   OH241125   3.710   2.961   3.150  0.1325  0.1844  0.2469
 6545TIP3    H141126   3.756   3.032   3.106 -1.1863  0.6104 -0.4918
 6545TIP3    H241127   3.673   2.908   3.079  1.9599 -1.8994  0.7244
 6546TIP3   OH241128   1.959   1.845  14.865 -0.1394  0.7271  0.6614
 6546TIP3    H141129   2.016   1.780  14.905  1.3123  0.5447 -1.5276
 6546TIP3    H241130   1.992   1.929  14.895 -1.2662  0.5478  2.5379
 6547TIP3   OH241131   3.966   5.987  11.545 -0.1246 -0.1559  0.2145
 6547TIP3    H141132   3.916   6.038  11.609  0.1525  1.3268 -0.7063
 6547TIP3    H241133   3.973   6.044  11.469  1.4302 -1.0436 -0.3442
 6548TIP3   OH241134   5.169   6.360   0.363  0.1660 -0.2444  0.8456
 6548TIP3    H141135   5.257   6.393   0.378  0.3505 -1.0739  1.6442
 6548TIP3    H241136   5.129   6.357   0.450 -0.1748 -1.1616  0.6694
 6549TIP3   OH241137   6.334   1.968   6.517 -0.0401  0.0394  0.1510
 6549TIP3    H141138   6.368   1.894   6.468  0.4879 -0.0563  0.6459
 6549TIP3    H241139   6.408   1.999   6.569  0.4200  2.3813 -1.7424
 6550TIP3   OH241140   4.420   3.798  13.801  0.5902 -0.0916  0.1585
 6550TIP3    H141141   4.427   3.803  13.896 -1.1099 -0.2546  0.3227
 6550TIP3    H241142   4.371   3.877  13.776  0.0249 -0.6073 -0.4372
 6551TIP3   OH241143   5.585   1.356   2.724  0.8027 -0.4927 -0.1603
 6551TIP3    H141144   5.619   1.284   2.672 -0.6026 -0.2319 -1.5123
 6551TIP3    H241145   5.657   1.419   2.729  2.6346 -2.5604  2.4060
 6552TIP3   OH241146   3.545   6.572   1.986 -0.9825 -0.2183 -0.3355
 6552TIP3    H141147   3.528   6.517   2.062 -1.1944  0.5478  0.1850
 6552TIP3    H241148   3.554   6.511   1.913 -1.1861 -0.9357  0.2346
 6553TIP3   OH241149   6.010   2.603   0.769  0.0650  0.2956  0.0389
 6553TIP3    H141150   6.024   2.547   0.693 -0.6130  0.5712 -0.3004
 6553TIP3    H241151   6.078   2.670   0.762  1.0916 -0.6536  0.6334
 6554TIP3   OH241152   3.532   5.478  16.446 -0.5785 -0.2251  0.4766
 6554TIP3    H141153   3.494   5.421  16.512 -3.5694  0.9851 -0.0431
 6554TIP3    H241154   3.551   5.560  16.492 -1.1616  0.0711  0.2115
 6555TIP3   OH241155   2.630   5.699  15.279  0.0295 -0.1054  0.1874
 6555TIP3    H141156   2.646   5.792  15.266 -1.3840  0.1174 -0.2050
 6555TIP3    H241157   2.549   5.696  15.330  0.1161 -1.1166  0.2827
 6556TIP3   OH241158   0.229   5.371   3.163  0.1207  0.7011  0.0828
 6556TIP3    H141159   0.211   5.465   3.168 -0.5547  0.7283 -1.9514
 6556TIP3    H241160   0.175   5.340   3.091  2.0575 -0.8111 -0.8097
 6557TIP3   OH241161   0.975   5.571  11.969 -0.8386 -0.9520 -0.0622
 6557TIP3    H141162   0.879   5.568  11.966 -0.9407  1.0415 -2.5090
 6557TIP3    H241163   0.995   5.651  12.016 -0.4841 -0.1537 -1.5114
 6558TIP3   OH241164   0.140   6.558  13.268 -0.0688 -0.3814 -0.0824
 6558TIP3    H141165   0.070   6.621  13.249  0.0065 -0.5420 -0.9131
 6558TIP3    H241166   0.124   6.485  13.208  1.1696 -0.1455 -0.7416
 6559TIP3   OH241167   4.930   6.347  14.795  0.3457 -0.7438 -0.1242
 6559TIP3    H141168   4.889   6.432  14.809 -0.9774 -0.8061 -2.9324
 6559TIP3    H241169   4.947   6.314  14.883 -0.6101  1.6995  1.0683
 6560TIP3   OH241170   1.544   6.435  13.248 -0.0421  0.0355 -0.3053
 6560TIP3    H141171   1.554   6.342  13.225  1.1617 -0.3920  1.6783
 6560TIP3    H241172   1.499   6.433  13.332 -4.0524  1.4853 -2.1904
 6561TIP3   OH241173   0.772   2.132  13.373  0.3426  0.4106 -0.4487
 6561TIP3    H141174   0.836   2.202  13.364 -0.9024  1.3280 -3.0188
 6561TIP3    H241175   0.689   2.176  13.392 -0.1934 -0.4807 -0.6223
 6562TIP3   OH241176   4.592   5.865  12.075 -0.2624  0.2330 -0.1847
 6562TIP3    H141177   4.539   5.823  12.143 -0.9266  0.7961 -0.3509
 6562TIP3    H241178   4.628   5.792  12.025  1.7615 -0.2901  1.8648
 6563TIP3   OH241179   2.447   3.843  10.805  0.1815 -0.3646 -0.2639
 6563TIP3    H141180   2.537   3.854  10.835 -0.1454 -0.3693  0.7830
 6563TIP3    H241181   2.428   3.750  10.820 -0.5134 -0.0343  1.1182
 6564TIP3   OH241182   5.710   1.424  14.482 -0.2673 -0.0296  0.2063
 6564TIP3    H141183   5.753   1.458  14.404  0.4358 -1.9347 -0.2908
 6564TIP3    H241184   5.617   1.441  14.466 -0.0288  0.7968 -0.4176
 6565TIP3   OH241185   6.359   3.082   0.856 -0.4017  0.0682 -0.5593
 6565TIP3    H141186   6.407   3.026   0.795  0.1227 -0.2286  0.1112
 6565TIP3    H241187   6.401   3.067   0.940 -0.0310  1.7294 -0.4180
 6566TIP3   OH241188   0.996   6.200   3.797  0.6302 -0.0410  0.1014
 6566TIP3    H141189   1.053   6.216   3.873 -1.0314  0.8801  1.2203
 6566TIP3    H241190   0.950   6.119   3.817  0.1082  0.2595  0.1428
 6567TIP3   OH241191   6.587   4.536  11.755  0.5618  0.2061 -0.1995
 6567TIP3    H141192   6.611   4.568  11.668 -0.2795 -0.0266 -0.5208
 6567TIP3    H241193   6.601   4.441  11.750  1.2037  0.2804  0.1470
 6568TIP3   OH241194   1.732   0.313   4.193 -0.1289  0.1155 -0.0552
 6568TIP3    H141195   1.683   0.318   4.275 -0.0389  0.0354  0.0041
 6568TIP3    H241196   1.779   0.230   4.199  1.6173  1.1116  0.7859
 6569TIP3   OH241197   1.475   3.758   5.509  0.5064  0.0826 -0.2358
 6569TIP3    H141198   1.500   3.828   5.448  0.4793  1.1408  0.9327
 6569TIP3    H241199   1.497   3.792   5.595 -2.2469 -0.0820  0.6512
 6570TIP3   OH241200   0.249   4.388  13.006  0.4794 -0.6121 -0.1073
 6570TIP3    H141201   0.227   4.311  13.059  0.0543 -0.1132  0.4509
 6570TIP3    H241202   0.206   4.372  12.921 -3.1109  0.7954  1.2460
 6571TIP3   OH241203   0.445   2.718   5.325 -0.3547  1.0003 -0.0587
 6571TIP3    H141204   0.536   2.744   5.341  0.0193  0.1883 -0.7945
 6571TIP3    H241205   0.428   2.648   5.387  0.7167 -1.3330 -2.2350
 6572TIP3   OH241206   3.493   0.738  13.547 -0.0136 -0.3937 -0.0429
 6572TIP3    H141207   3.569   0.796  13.546 -1.4183  1.6420  1.3896
 6572TIP3    H241208   3.491   0.699  13.460  1.2945  1.4089 -0.9467
 6573TIP3   OH241209   1.467   5.028   2.017 -0.4488 -0.2152 -0.1492
 6573TIP3    H141210   1.505   5.104   1.972  1.3368 -0.8278  0.2523
 6573TIP3    H241211   1.483   4.955   1.958 -0.3650 -0.6106  0.3596
 6574TIP3   OH241212   6.351   2.306   3.540 -0.4175  0.1604  0.0306
 6574TIP3    H141213   6.256   2.300   3.541 -0.4788  0.1487  2.8002
 6574TIP3    H241214   6.370   2.396   3.565  0.3631  0.5109 -1.6411
 6575TIP3   OH241215   0.810   4.927  13.359 -0.1962  0.5599 -0.1933
 6575TIP3    H141216   0.807   4.836  13.389 -2.8867  0.5632 -0.2202
 6575TIP3    H241217   0.860   4.923  13.277 -1.9293 -1.2915 -1.2599
 6576TIP3   OH241218   4.268   0.098   4.494  0.4692  0.4678 -0.2314
 6576TIP3    H141219   4.266   0.118   4.588 -0.9243  0.8573 -0.3180
 6576TIP3    H241220   4.351   0.052   4.481 -0.3292 -1.7032  1.6290
 6577TIP3   OH241221   1.296   5.314   3.630 -0.1649  0.2791  0.7336
 6577TIP3    H141222   1.212   5.344   3.663  0.3508  1.4771  1.0096
 6577TIP3    H241223   1.310   5.229   3.672 -1.4660 -0.1906  0.2635
 6578TIP3   OH241224   3.151   0.312   1.088 -0.3524  0.6352 -0.2764
 6578TIP3    H141225   3.137   0.285   1.179 -0.0634  0.9016 -0.1497
 6578TIP3    H241226   3.247   0.316   1.079 -0.3761  0.4374 -0.6448
 6579TIP3   OH241227   1.785   1.391   1.861 -0.7415  0.0198 -0.1265
 6579TIP3    H141228   1.713   1.419   1.804  0.0082  2.1412 -0.1381
 6579TIP3    H241229   1.790   1.460   1.928  0.0436 -1.0983  1.0097
 6580TIP3   OH241230   4.441   1.996   5.223 -0.1500 -0.3355 -0.3944
 6580TIP3    H141231   4.426   1.953   5.307 -0.0219  0.0206 -0.1878
 6580TIP3    H241232   4.386   2.074   5.226  1.7719  1.0571  0.4207
 6581TIP3   OH241233   4.457   5.103   2.060 -0.0676 -0.3321 -0.3220
 6581TIP3    H141234   4.383   5.150   2.021 -1.6804 -1.5666  1.0468
 6581TIP3    H241235   4.445   5.115   2.154  1.9332  0.0401 -0.0820
 6582TIP3   OH241236   2.259   4.673  14.517  0.1342  0.4453 -0.3236
 6582TIP3    H141237   2.349   4.689  14.546  0.1936  1.2422 -0.9148
 6582TIP3    H241238   2.212   4.754  14.537 -0.3129  0.2432 -0.5433
 6583TIP3   OH241239   5.069   0.018  11.645  0.5835 -0.1699 -0.1501
 6583TIP3    H141240   5.030   0.105  11.644  1.8251  0.4657 -2.7859
 6583TIP3    H241241   5.032  -0.024  11.723 -0.8301  2.3257  0.6470
 6584TIP3   OH241242   2.582   0.818   0.427 -0.6474  0.3822  0.2677
 6584TIP3    H141243   2.546   0.833   0.340  0.3779  0.9973 -0.0727
 6584TIP3    H241244   2.605   0.905   0.459  1.0993 -0.0165  0.2009
 6585TIP3   OH241245   5.235   5.662  14.446 -0.0309  0.9281 -0.2048
 6585TIP3    H141246   5.303   5.662  14.513 -0.7800  2.0345  0.5891
 6585TIP3    H241247   5.260   5.733  14.386  1.0308 -0.5163 -1.5672
 6586TIP3   OH241248   1.537   4.077  16.834  0.4230  0.0001  0.3104
 6586TIP3    H141249   1.450   4.061  16.797  0.9514 -2.0593 -0.1439
 6586TIP3    H241250   1.539   4.172  16.849 -2.4490 -0.0372  1.7286
 6587TIP3   OH241251   6.644   4.162   4.743 -0.2780  0.2307  0.1256
 6587TIP3    H141252   6.656   4.077   4.700  1.6346 -0.6461  2.2070
 6587TIP3    H241253   6.719   4.214   4.715  0.4307  0.0024  1.5231
 6588TIP3   OH241254   4.452   4.964   2.642  0.5149  0.3657  0.6379
 6588TIP3    H141255   4.509   4.907   2.590 -0.1753  1.3177 -1.2722
 6588TIP3    H241256   4.436   4.915   2.722  2.1503 -0.9118  0.2477
 6589TIP3   OH241257   5.152   0.334  12.472  0.2839  0.3657 -0.3448
 6589TIP3    H141258   5.140   0.361  12.563  2.3269  2.8030 -0.6699
 6589TIP3    H241259   5.065   0.336  12.434 -0.3757  1.1221  1.1254
 6590TIP3   OH241260   6.118   2.322  12.417 -0.9065  0.0896  0.2653
 6590TIP3    H141261   6.103   2.276  12.500  0.9004 -0.0745  0.5270
 6590TIP3    H241262   6.101   2.414  12.438 -0.7456  0.0146  0.7324
 6591TIP3   OH241263   5.358   4.558  16.155  0.0087  0.1219  0.3354
 6591TIP3    H141264   5.282   4.589  16.107  1.1467  0.3608 -1.4104
 6591TIP3    H241265   5.416   4.635  16.161  1.0582 -0.5924 -0.3446
 6592TIP3   OH241266   4.418   5.495   1.319 -0.1971 -0.2034 -0.4006
 6592TIP3    H141267   4.334   5.484   1.365 -1.3343  0.9554 -2.0747
 6592TIP3    H241268   4.436   5.410   1.280 -1.7071  0.0366 -1.7336
 6593TIP3   OH241269   3.244   3.629   1.249  0.3208  0.3143  0.0281
 6593TIP3    H141270   3.317   3.624   1.187 -1.6916  0.6794 -2.5657
 6593TIP3    H241271   3.233   3.722   1.265  0.6274  0.2379  0.7232
 6594TIP3   OH241272   5.247   1.963   5.314  0.4934  0.0063 -0.1814
 6594TIP3    H141273   5.211   1.921   5.392  0.9141  0.2668  0.1544
 6594TIP3    H241274   5.172   2.006   5.273  0.1851 -0.5084 -0.1654
 6595TIP3   OH241275   2.324   6.711   2.055 -0.4139  0.7580  0.0887
 6595TIP3    H141276   2.250   6.674   2.007  1.9284 -2.7464 -1.2221
 6595TIP3    H241277   2.356   6.782   1.998 -0.6808 -0.0460 -1.1011
 6596TIP3   OH241278   1.715   3.301  14.040 -0.2751  0.0783 -0.4707
 6596TIP3    H141279   1.628   3.303  14.078 -0.3098  4.3301 -0.3351
 6596TIP3    H241280   1.701   3.296  13.945 -0.7074  1.0013 -0.4604
 6597TIP3   OH241281   6.813   1.457  11.952 -0.5298  0.4279 -0.0044
 6597TIP3    H141282   6.732   1.471  12.002 -0.9728  1.1836 -0.8999
 6597TIP3    H241283   6.783   1.430  11.865  0.2455 -1.9265  0.3837
 6598TIP3   OH241284   1.906   1.447   4.233 -0.0679 -0.6143 -0.5173
 6598TIP3    H141285   1.875   1.469   4.145 -0.6341  0.4607 -0.0737
 6598TIP3    H241286   1.827   1.448   4.287  0.4118 -0.2532  0.1877
 6599TIP3   OH241287   0.484   0.931  13.308 -0.1231 -1.0090 -0.1678
 6599TIP3    H141288   0.550   0.970  13.365  1.2005  0.2377 -2.4288
 6599TIP3    H241289   0.456   1.002  13.251  0.6318 -2.7435 -2.8602
 6600TIP3   OH241290   4.271   2.234   1.743  0.3011 -0.2987 -0.5624
 6600TIP3    H141291   4.298   2.269   1.658  1.3501  0.9815  0.2560
 6600TIP3    H241292   4.316   2.290   1.807  0.9474 -2.3074  0.8273
 6601TIP3   OH241293   0.906   2.747   0.944  0.8894 -0.1395 -0.0350
 6601TIP3    H141294   0.960   2.825   0.955  1.8380 -0.9497  1.4727
 6601TIP3    H241295   0.966   2.681   0.909  1.3736 -1.4783  3.0001
 6602TIP3   OH241296   4.901   6.093  15.859 -0.1188  1.3113 -0.1156
 6602TIP3    H141297   4.830   6.084  15.795 -0.2560 -0.6325  0.2631
 6602TIP3    H241298   4.857   6.101  15.943  0.1039  0.7485  0.0553
 6603TIP3   OH241299   4.736   4.916   3.955  0.1998 -0.1779 -0.9754
 6603TIP3    H141300   4.711   4.973   4.027  0.5551  1.1267 -1.8385
 6603TIP3    H241301   4.777   4.840   3.997 -0.2941  0.1886  0.2092
 6604TIP3   OH241302   6.528   1.434   5.652 -0.6610  0.2134  0.2351
 6604TIP3    H141303   6.436   1.436   5.626 -0.4217 -1.0839 -0.8093
 6604TIP3    H241304   6.526   1.435   5.747 -1.8293 -1.2494  0.2603
 6605TIP3   OH241305   5.289   2.540  14.269 -0.2321  0.1210  0.0174
 6605TIP3    H141306   5.376   2.521  14.234 -0.5576 -0.7013 -0.3729
 6605TIP3    H241307   5.303   2.610  14.332  0.7043  0.0336 -0.0827
 6606TIP3   OH241308   3.752   4.612   0.383  0.3259  0.1391 -0.1120
 6606TIP3    H141309   3.712   4.602   0.469  0.5081 -2.4880 -0.2571
 6606TIP3    H241310   3.819   4.680   0.395 -0.3310  0.5374  1.5343
 6607TIP3   OH241311   5.527   5.136   6.323  0.5673  0.1882  0.6287
 6607TIP3    H141312   5.438   5.115   6.294  1.0279  0.2588 -0.9171
 6607TIP3    H241313   5.548   5.066   6.385 -0.0902 -0.5867  0.0090
 6608TIP3   OH241314   3.945   5.960   3.412  0.4258  0.0136  0.5203
 6608TIP3    H141315   4.038   5.983   3.413  0.9037 -1.7553  0.4677
 6608TIP3    H241316   3.927   5.934   3.322 -0.4282  1.3931  0.2678
 6609TIP3   OH241317   0.840   4.727  14.964  0.0719  0.0281 -0.0611
 6609TIP3    H141318   0.922   4.710  14.918  0.3644 -0.3806  0.5961
 6609TIP3    H241319   0.837   4.823  14.973  0.6459  0.0176  0.2276
 6610TIP3   OH241320   3.336   3.038  15.909 -0.2395  0.7730 -0.1507
 6610TIP3    H141321   3.324   3.026  16.003  0.4991 -1.2292 -0.2568
 6610TIP3    H241322   3.296   2.960  15.870  1.1891  0.6075 -1.3505
 6611TIP3   OH241323   2.032   5.109   5.053 -0.3167  0.4426  0.4333
 6611TIP3    H141324   2.051   5.195   5.092 -1.2751  0.6215  0.5399
 6611TIP3    H241325   2.028   5.049   5.128 -0.5679  0.4804  0.4496
 6612TIP3   OH241326   6.504   3.098   3.328  0.0049  0.2415  0.1279
 6612TIP3    H141327   6.547   3.090   3.243  1.3871  2.0721  0.5901
 6612TIP3    H241328   6.543   3.028   3.381  0.2394  0.0375 -0.3087
 6613TIP3   OH241329   0.886   0.839  13.799  0.1807  0.1622 -0.2871
 6613TIP3    H141330   0.841   0.757  13.818  0.7400 -0.3794 -1.2135
 6613TIP3    H241331   0.944   0.852  13.875 -0.7058  0.2943  0.3854
 6614TIP3   OH241332   4.096   6.623   3.084  0.3514 -0.1193  0.1334
 6614TIP3    H141333   4.155   6.582   3.147 -0.9657 -0.2380  1.3286
 6614TIP3    H241334   4.058   6.550   3.035  0.1318 -0.1435  0.3376
 6615TIP3   OH241335   5.504   6.066  12.303 -0.0596 -0.3661 -0.4110
 6615TIP3    H141336   5.573   6.125  12.273  1.6297 -1.9372  0.2372
 6615TIP3    H241337   5.422   6.111  12.280  1.1514  1.0574 -2.1787
 6616TIP3   OH241338   4.876   3.196   4.042 -0.4829 -0.1091 -0.0862
 6616TIP3    H141339   4.830   3.199   4.126 -1.1343  0.9417 -0.4491
 6616TIP3    H241340   4.851   3.278   3.998  0.2580 -0.3908 -1.0875
 6617TIP3   OH241341   0.733   5.298   0.934 -0.1669  0.4925  0.0750
 6617TIP3    H141342   0.690   5.383   0.933 -1.7252 -0.2622 -0.6406
 6617TIP3    H241343   0.822   5.315   0.903 -0.7601  1.7046 -1.0381
 6618TIP3   OH241344   1.889   6.132  12.941  0.5012 -0.2007  0.2577
 6618TIP3    H141345   1.880   6.165  12.851  2.1709 -1.1346 -0.3008
 6618TIP3    H241346   1.817   6.070  12.951 -0.6816  1.1038  0.1737
 6619TIP3   OH241347   1.279   5.514  15.705 -0.4396  0.0644  0.8098
 6619TIP3    H141348   1.292   5.425  15.737 -1.2247 -0.5936 -0.6133
 6619TIP3    H241349   1.219   5.504  15.631  1.5851  1.4175 -1.1404
 6620TIP3   OH241350   4.108   2.425   0.927 -0.2051  0.0613  0.0413
 6620TIP3    H141351   4.195   2.462   0.941  0.6597 -1.7334 -0.2386
 6620TIP3    H241352   4.095   2.429   0.832 -0.7004  0.8858  0.1401
 6621TIP3   OH241353   1.497   0.628  17.048  0.5060 -0.2357 -0.0027
 6621TIP3    H141354   1.439   0.704  17.047  1.6123  0.6285  0.4458
 6621TIP3    H241355   1.439   0.554  17.027 -0.3383  0.8780 -1.8001
 6622TIP3   OH241356   3.802   3.619  13.202 -0.0050  0.1255  0.5667
 6622TIP3    H141357   3.799   3.699  13.149 -0.4982 -0.5590 -0.4686
 6622TIP3    H241358   3.812   3.651  13.292 -1.3294  1.4100  0.3124
 6623TIP3   OH241359   2.459   3.844   4.379  0.5034  0.1113  0.1956
 6623TIP3    H141360   2.366   3.868   4.370  0.5004 -0.2225 -0.7635
 6623TIP3    H241361   2.476   3.849   4.474 -0.5460 -0.0365  0.4028
 6624TIP3   OH241362   1.740   3.580   2.018 -0.8417  0.6054  0.1815
 6624TIP3    H141363   1.728   3.497   1.971 -0.1398  1.6302 -1.9063
 6624TIP3    H241364   1.834   3.584   2.036 -0.7682  1.2508 -0.3269
 6625TIP3   OH241365   1.816   0.979  13.672 -0.0150 -0.4426 -0.2396
 6625TIP3    H141366   1.902   0.991  13.631 -0.7320  1.7669 -1.3075
 6625TIP3    H241367   1.825   1.017  13.759 -0.2138  1.0826 -0.8468
 6626TIP3   OH241368   5.401   6.622  11.502  0.2794 -0.4763 -0.2797
 6626TIP3    H141369   5.337   6.680  11.461  0.8140 -0.5428 -1.2428
 6626TIP3    H241370   5.472   6.615  11.437  1.5477  0.0709  0.9781
 6627TIP3   OH241371   2.976   2.562   0.035  0.7617 -0.3580 -0.5988
 6627TIP3    H141372   3.041   2.585   0.101 -0.7975  0.9101  0.5703
 6627TIP3    H241373   3.023   2.506  -0.027  2.5903 -0.5735  0.9120
 6628TIP3   OH241374   2.039   6.658  14.676  0.2622  0.6102 -0.3796
 6628TIP3    H141375   2.118   6.684  14.723 -1.3266 -1.3419  3.9182
 6628TIP3    H241376   2.071   6.607  14.601  3.0613  0.2713  0.9196
 6629TIP3   OH241377   1.427   2.036   1.106  0.1611  0.7490 -0.0118
 6629TIP3    H141378   1.370   1.997   1.040 -0.1219  2.3679 -0.7714
 6629TIP3    H241379   1.376   2.108   1.142  1.4548  1.8227 -0.2466
 6630TIP3   OH241380   3.062   4.687   3.720  0.2799  0.7516 -0.0157
 6630TIP3    H141381   3.118   4.621   3.761 -0.4598  0.1902  0.0996
 6630TIP3    H241382   3.076   4.766   3.773  0.1277  0.3153  0.6823
 6631TIP3   OH241383   0.987   4.424  13.766 -0.1303  0.3817 -0.9178
 6631TIP3    H141384   0.893   4.423  13.746 -0.8000 -1.5757  1.7594
 6631TIP3    H241385   0.999   4.501  13.821 -0.5828 -0.3190  0.1972
 6632TIP3   OH241386   6.470   1.776   5.629  0.0223  0.0774  1.1708
 6632TIP3    H141387   6.451   1.721   5.553  1.0624  0.7352  0.3987
 6632TIP3    H241388   6.386   1.814   5.653 -0.1810  0.5893 -0.2593
 6633TIP3   OH241389   1.107   1.049   3.479 -0.1645 -0.3114  0.8777
 6633TIP3    H141390   1.030   1.029   3.426  0.4271  0.2186 -0.2204
 6633TIP3    H241391   1.179   1.004   3.436  0.7369  1.9558 -0.1833
 6634TIP3   OH241392   1.050   6.513  10.473 -0.0460  0.3359 -0.2678
 6634TIP3    H141393   0.956   6.525  10.458  0.1026  0.7511 -0.9081
 6634TIP3    H241394   1.088   6.509  10.385  0.6840  1.4113 -0.0231
 6635TIP3   OH241395   1.190   2.261   0.749  0.5236 -0.8112 -0.2015
 6635TIP3    H141396   1.237   2.261   0.665 -0.5007 -0.3927 -0.7906
 6635TIP3    H241397   1.105   2.222   0.729 -0.1758  0.3671  0.3801
 6636TIP3   OH241398   1.361   1.365   3.206 -0.1505 -0.8107 -0.2472
 6636TIP3    H141399   1.402   1.339   3.288 -0.3032 -0.1714  0.0434
 6636TIP3    H241400   1.421   1.335   3.138  0.9683  0.3790  0.1750
 6637TIP3   OH241401   4.872   4.747  16.413 -0.1699 -0.2300  0.5263
 6637TIP3    H141402   4.958   4.704  16.416 -0.5787 -1.0572  0.7037
 6637TIP3    H241403   4.856   4.775  16.503 -0.2148 -0.3473  0.5566
 6638TIP3   OH241404   6.745   2.662  12.950 -0.0717 -0.3241  0.3336
 6638TIP3    H141405   6.832   2.700  12.940 -0.5138  1.1182  1.6668
 6638TIP3    H241406   6.735   2.650  13.045 -1.8647  0.8742  0.3261
 6639TIP3   OH241407   0.209   3.155   3.960 -0.5728 -0.4814  0.5120
 6639TIP3    H141408   0.163   3.211   4.023 -0.5361 -0.8593  0.8743
 6639TIP3    H241409   0.165   3.172   3.877 -0.2113  0.5013  0.5031
 6640TIP3   OH241410   1.484   6.538  15.387 -0.2155 -0.4975 -0.4040
 6640TIP3    H141411   1.509   6.447  15.370 -1.1391 -0.6486 -1.0101
 6640TIP3    H241412   1.567   6.586  15.389  0.2714 -1.3319 -0.1858
 6641TIP3   OH241413   3.908   2.599  15.355  0.4378  0.4385  0.2035
 6641TIP3    H141414   3.866   2.515  15.341  1.0769  0.2121 -0.3635
 6641TIP3    H241415   3.967   2.585  15.429 -1.2734  1.0533  1.7804
 6642TIP3   OH241416   6.691   2.425   2.308  0.1598  0.3579 -0.0630
 6642TIP3    H141417   6.645   2.376   2.240 -0.0924  0.9212 -0.3011
 6642TIP3    H241418   6.707   2.360   2.377 -2.4983  0.4756  0.7808
 6643TIP3   OH241419   3.005   2.074   6.192  0.4711  0.4084  0.5449
 6643TIP3    H141420   3.007   2.055   6.286 -0.6392 -1.6945  0.1972
 6643TIP3    H241421   2.958   2.157   6.185 -0.1136  0.2034  1.8115
 6644TIP3   OH241422   0.523   1.062  13.066  0.3921 -0.2039  0.1297
 6644TIP3    H141423   0.583   1.134  13.048 -0.8039  1.2871  1.7533
 6644TIP3    H241424   0.465   1.060  12.990  2.3905 -1.6624 -1.4552
 6645TIP3   OH241425   5.248   1.353   5.206  0.0236  0.1949  0.4651
 6645TIP3    H141426   5.210   1.370   5.293 -0.5829  0.3486  0.1760
 6645TIP3    H241427   5.270   1.439   5.172 -0.9734  0.2515 -0.0757
 6646TIP3   OH241428   0.371   0.618  11.585 -0.5331  0.2091  0.2377
 6646TIP3    H141429   0.305   0.570  11.637 -2.4501  2.5555  0.1709
 6646TIP3    H241430   0.371   0.706  11.623  1.3036  0.7668 -0.9490
 6647TIP3   OH241431   3.390   3.789  12.678 -0.0047  0.2485 -0.8466
 6647TIP3    H141432   3.336   3.854  12.724  0.5242  0.0513  0.0763
 6647TIP3    H241433   3.330   3.748  12.616 -1.6209 -1.5616  1.6658
 6648TIP3   OH241434   6.000   0.855   3.031  0.3360 -0.0689  0.3704
 6648TIP3    H141435   5.918   0.817   2.998  1.0058 -0.6501 -0.7069
 6648TIP3    H241436   6.028   0.796   3.100  0.0038 -0.0372  0.5349
 6649TIP3   OH241437   5.535   0.129  14.785 -0.0183  0.1398 -0.1051
 6649TIP3    H141438   5.454   0.178  14.772 -1.0757 -1.5451 -0.1308
 6649TIP3    H241439   5.534   0.106  14.878  0.4771  0.1427 -0.0936
 6650TIP3   OH241440   6.366   2.755   3.864  0.6764  0.6930 -0.0540
 6650TIP3    H141441   6.412   2.787   3.941  0.4440 -0.1619  0.4475
 6650TIP3    H241442   6.286   2.715   3.898  0.0282  1.3074 -0.8352
 6651TIP3   OH241443   6.735   6.114  16.695  0.1565  0.1889 -0.1486
 6651TIP3    H141444   6.774   6.028  16.710  1.1871  0.6845  0.0820
 6651TIP3    H241445   6.809   6.174  16.692 -0.5983  1.1906  0.4940
 6652TIP3   OH241446   2.880   1.463   5.210 -0.1337  0.7099  0.2288
 6652TIP3    H141447   2.787   1.448   5.189 -0.3004  1.1591  0.6201
 6652TIP3    H241448   2.881   1.547   5.256  0.1217 -0.4211  2.4703
 6653TIP3   OH241449   0.160   2.249   5.926 -0.5385 -0.0623  0.2773
 6653TIP3    H141450   0.199   2.312   5.987  1.9510  0.2122 -1.4309
 6653TIP3    H241451   0.066   2.268   5.928 -0.4427  0.5902  3.1834
 6654TIP3   OH241452   4.798   0.656  16.748  0.0474  0.4569 -0.4742
 6654TIP3    H141453   4.843   0.628  16.668  3.8575  2.2503  0.8091
 6654TIP3    H241454   4.729   0.716  16.717 -1.3036 -1.9311 -2.5090
 6655TIP3   OH241455   0.008   5.256  17.041 -0.2193 -0.1622 -0.7236
 6655TIP3    H141456  -0.043   5.224  17.115 -0.9948  1.6649 -0.4038
 6655TIP3    H241457  -0.015   5.199  16.969 -3.1237  0.8369 -0.7106
 6656TIP3   OH241458   5.778   4.792   6.231 -0.1445 -0.1220  0.2575
 6656TIP3    H141459   5.851   4.852   6.214 -0.1464  0.5845  2.4999
 6656TIP3    H241460   5.820   4.708   6.247  0.2443  0.3544  1.8756
 6657TIP3   OH241461   5.611   5.981  10.457  0.8062 -0.1934 -0.0126
 6657TIP3    H141462   5.612   5.947  10.368  1.2654  0.6525 -0.3439
 6657TIP3    H241463   5.643   5.908  10.511  0.3856 -0.7566 -0.5117
 6658TIP3   OH241464   5.536   6.174   5.515 -0.1125 -0.3573 -0.1761
 6658TIP3    H141465   5.523   6.229   5.437  0.7921 -0.0118 -0.0972
 6658TIP3    H241466   5.449   6.167   5.554 -0.2849  0.9157 -0.2725
 6659TIP3   OH241467   5.117   0.149   4.986  0.3489 -0.4878  0.1655
 6659TIP3    H141468   5.193   0.169   4.932  1.2184 -0.5128  1.3485
 6659TIP3    H241469   5.129   0.058   5.014  0.9592  0.0971  1.9833
 6660TIP3   OH241470   4.924   5.092   1.433  0.1025 -0.4622 -0.1604
 6660TIP3    H141471   4.921   5.065   1.341  1.2347 -1.1461 -0.0178
 6660TIP3    H241472   5.012   5.068   1.462 -1.0362 -2.6091  1.8143
 6661TIP3   OH241473   5.651   4.403   3.199 -0.0665  0.6732  0.2543
 6661TIP3    H141474   5.726   4.461   3.183  0.1727 -0.0365 -1.3946
 6661TIP3    H241475   5.662   4.374   3.290  2.2245 -0.1308 -0.2012
 6662TIP3   OH241476   1.875   4.201   6.133  1.2378  0.5744 -0.2325
 6662TIP3    H141477   1.878   4.105   6.126 -0.2639  0.3005  1.8485
 6662TIP3    H241478   1.944   4.223   6.195 -0.2301  0.4750  1.5208
 6663TIP3   OH241479   1.809   4.342  16.705  0.1674  0.4509  0.2938
 6663TIP3    H141480   1.841   4.286  16.635 -4.4956 -1.0405 -1.0145
 6663TIP3    H241481   1.847   4.306  16.785  1.4210 -1.2027 -0.9881
 6664TIP3   OH241482   6.319   1.625   1.973  0.2271 -0.0250 -0.3537
 6664TIP3    H141483   6.307   1.531   1.988  0.7721 -0.2260 -1.1371
 6664TIP3    H241484   6.327   1.662   2.061 -0.4717 -0.6385 -0.0161
 6665TIP3   OH241485   4.188   2.453  13.315 -0.1875  0.9730 -0.4987
 6665TIP3    H141486   4.119   2.389  13.332  0.4983  0.0809 -1.0072
 6665TIP3    H241487   4.140   2.533  13.289 -1.0237  0.3126 -1.0456
 6666TIP3   OH241488   6.404   5.519   5.989  0.1191 -0.2295 -0.1472
 6666TIP3    H141489   6.345   5.450   6.021 -2.8913  1.7359 -0.9959
 6666TIP3    H241490   6.439   5.559   6.069 -0.6973 -0.6647  0.4541
 6667TIP3   OH241491   2.914   2.608  11.398  0.0409 -0.2389 -0.4921
 6667TIP3    H141492   2.999   2.609  11.442  0.3306 -0.2529 -1.0390
 6667TIP3    H241493   2.853   2.640  11.463  0.5775  0.4665 -0.3154
 6668TIP3   OH241494   6.164   2.142   2.391  0.4625 -1.1915 -0.2132
 6668TIP3    H141495   6.222   2.182   2.327  0.0455 -0.3744 -0.0862
 6668TIP3    H241496   6.116   2.075   2.342  0.4979 -0.9024 -0.6418
 6669TIP3   OH241497   0.366   6.332   3.015  0.3416  0.0579  0.1004
 6669TIP3    H141498   0.404   6.393   2.953  3.0248 -2.4268 -0.9078
 6669TIP3    H241499   0.278   6.315   2.982  0.7734  0.8060 -1.4954
 6670TIP3   OH241500   2.534   2.114  11.498  0.7794  0.6636  0.5386
 6670TIP3    H141501   2.624   2.146  11.492  1.0580 -0.0587  0.7680
 6670TIP3    H241502   2.536   2.051  11.570  0.3379 -0.1776 -0.1717
 6671TIP3   OH241503   2.551   0.914   3.030 -0.1351  0.6140 -0.2557
 6671TIP3    H141504   2.534   0.930   3.123  0.2562  2.0784 -0.4148
 6671TIP3    H241505   2.619   0.977   3.007 -0.0357  0.0857 -1.4809
 6672TIP3   OH241506   6.559   2.097  11.155 -0.0636 -0.4161  0.0948
 6672TIP3    H141507   6.639   2.070  11.109  0.3116  2.7953 -1.4050
 6672TIP3    H241508   6.502   2.132  11.086 -0.8320  1.5941  1.6416
 6673TIP3   OH241509   0.401   1.198   0.943 -0.0536 -0.3907 -0.4959
 6673TIP3    H141510   0.340   1.257   0.900 -0.7163 -0.3794  0.4160
 6673TIP3    H241511   0.455   1.254   0.999  0.2805 -0.4878 -0.7173
 6674TIP3   OH241512   4.237   0.233  10.481 -0.0952 -0.1804 -0.1407
 6674TIP3    H141513   4.153   0.278  10.481 -0.2674 -0.1380 -4.1277
 6674TIP3    H241514   4.301   0.302  10.500 -0.6949  0.7162 -1.2755
 6675TIP3   OH241515   5.956   5.252   4.381  0.4341 -0.2808 -0.1611
 6675TIP3    H141516   6.011   5.328   4.402  0.0547 -0.0721  0.0917
 6675TIP3    H241517   5.891   5.250   4.451  0.0423 -0.4503 -0.5316
 6676TIP3   OH241518   4.449   4.177   2.939 -0.0391  0.0947  0.1267
 6676TIP3    H141519   4.402   4.093   2.944  0.1001  0.0613  0.9844
 6676TIP3    H241520   4.399   4.235   2.996  0.0388  0.5231 -0.2321
 6677TIP3   OH241521   0.949   2.450  11.314  0.0451  0.2547  0.1912
 6677TIP3    H141522   1.013   2.400  11.365 -0.0686  0.9976  1.0845
 6677TIP3    H241523   0.949   2.537  11.355 -1.4592  0.2967  0.1343
 6678TIP3   OH241524   3.933   6.351   2.304 -0.1540 -0.4167 -0.5823
 6678TIP3    H141525   3.957   6.357   2.211 -1.1280  1.0115 -0.7684
 6678TIP3    H241526   3.973   6.428   2.344 -0.4518 -0.5782  0.0345
 6679TIP3   OH241527   3.741   1.137   2.785  0.1453  0.1949 -0.2678
 6679TIP3    H141528   3.698   1.165   2.704  0.0711 -0.4135 -0.4392
 6679TIP3    H241529   3.741   1.042   2.781  1.7513  0.1793 -0.3808
 6680TIP3   OH241530   3.500   4.526  16.394  0.3285  0.2596  0.0046
 6680TIP3    H141531   3.422   4.571  16.426 -0.0586 -0.5486  0.2065
 6680TIP3    H241532   3.550   4.595  16.348 -0.7156  0.6874 -0.5247
 6681TIP3   OH241533   4.501   2.943  13.428 -0.2845  0.3480 -0.2592
 6681TIP3    H141534   4.489   2.848  13.436 -1.2883  0.4058 -0.8390
 6681TIP3    H241535   4.509   2.974  13.519  0.7632 -0.3547 -0.0902
 6682TIP3   OH241536   3.304   1.904   5.573  0.2061  0.0510  0.4789
 6682TIP3    H141537   3.225   1.885   5.624 -0.1205  0.6048  0.1899
 6682TIP3    H241538   3.272   1.917   5.484  0.2209  3.1403  0.8394
 6683TIP3   OH241539   5.481   2.008  14.710  0.0718  0.3885 -0.8053
 6683TIP3    H141540   5.457   1.929  14.662 -1.6021  1.1684 -1.3534
 6683TIP3    H241541   5.469   1.985  14.802 -1.7842  0.3732 -1.0087
 6684TIP3   OH241542   2.842   5.395   6.124 -0.1167  0.1625  0.2210
 6684TIP3    H141543   2.869   5.432   6.208  0.5851  1.2289 -0.4392
 6684TIP3    H241544   2.899   5.439   6.060  0.1118 -1.4116 -0.7008
 6685TIP3   OH241545   1.709   3.174  11.004 -0.3947 -0.5021  0.2930
 6685TIP3    H141546   1.690   3.154  11.096 -0.4167  0.5023  0.5146
 6685TIP3    H241547   1.692   3.267  10.996  1.4099 -0.1753 -0.2679
 6686TIP3   OH241548   2.884   6.305   2.839  0.1668 -0.2691  0.3485
 6686TIP3    H141549   2.896   6.388   2.885  0.1730 -0.5903  0.9440
 6686TIP3    H241550   2.863   6.330   2.749  1.8035  0.3639  0.0928
 6687TIP3   OH241551   0.835   6.449  15.054 -0.3628  0.2975 -0.2170
 6687TIP3    H141552   0.758   6.396  15.074  0.0252 -0.1750  0.0386
 6687TIP3    H241553   0.816   6.487  14.968  0.9828 -3.4466 -2.4250
 6688TIP3   OH241554   2.906   4.737  16.531  0.1150 -0.2630  0.3764
 6688TIP3    H141555   2.961   4.788  16.591  0.2094 -0.4111  0.4162
 6688TIP3    H241556   2.857   4.803  16.482  0.7697 -0.1116 -0.0802
 6689TIP3   OH241557   4.761   2.247  16.851 -0.7340 -0.2346  0.0352
 6689TIP3    H141558   4.837   2.269  16.798 -0.6926 -0.8593 -0.1714
 6689TIP3    H241559   4.719   2.175  16.804 -1.6538  0.3369 -0.0457
 6690TIP3   OH241560   5.388   2.389   4.675 -0.3025 -0.0774 -0.3396
 6690TIP3    H141561   5.460   2.337   4.639 -1.2307 -1.0405 -0.8769
 6690TIP3    H241562   5.351   2.334   4.744  1.0398  1.4746  1.7506
 6691TIP3   OH241563   0.318   1.346   0.590 -0.1691 -0.0787  0.3562
 6691TIP3    H141564   0.253   1.303   0.646 -0.0545 -2.6684 -1.3222
 6691TIP3    H241565   0.314   1.298   0.507  1.6850  1.7385 -0.8861
 6692TIP3   OH241566   0.071   0.869  15.213  0.2144 -0.4377  0.4212
 6692TIP3    H141567   0.008   0.821  15.159  0.5950 -1.9841  1.2712
 6692TIP3    H241568   0.023   0.886  15.295  0.2552  0.1952  0.3185
 6693TIP3   OH241569   5.641   2.143   2.626 -0.4981 -0.2773  0.7769
 6693TIP3    H141570   5.730   2.128   2.659  1.0191  2.9908 -1.3320
 6693TIP3    H241571   5.584   2.109   2.695  2.3449 -1.9652  2.4909
 6694TIP3   OH241572   5.475   6.030  12.847  0.9920  0.0955 -0.0968
 6694TIP3    H141573   5.465   6.045  12.753 -1.3905  1.0979  0.2372
 6694TIP3    H241574   5.391   5.994  12.875  2.3625 -2.2929  1.3496
 6695TIP3   OH241575   2.495   3.554   1.625 -0.4495  0.1736  0.3646
 6695TIP3    H141576   2.577   3.598   1.603 -0.4450 -0.0040  0.0333
 6695TIP3    H241577   2.485   3.570   1.719  0.7564 -1.1081  0.7449
 6696TIP3   OH241578   1.001   3.942  11.087 -0.6775  0.0202 -0.2798
 6696TIP3    H141579   1.080   3.993  11.071  0.5344 -1.8741 -0.6280
 6696TIP3    H241580   0.929   4.003  11.068  0.6819  1.2932 -1.6252
 6697TIP3   OH241581   5.036   3.954   2.615 -0.0389 -0.6390  0.1085
 6697TIP3    H141582   5.055   3.867   2.581 -1.8589 -0.5439 -1.2770
 6697TIP3    H241583   5.122   3.989   2.640  1.4621 -1.0089 -3.7750
 6698TIP3   OH241584   0.402   1.292   4.650 -0.7354 -0.1386 -0.0365
 6698TIP3    H141585   0.493   1.311   4.630 -0.6560 -0.8075 -0.3404
 6698TIP3    H241586   0.384   1.340   4.732  0.6485 -2.0567  1.4705
 6699TIP3   OH241587   3.274   6.127  11.831 -0.8565  0.2888 -0.0202
 6699TIP3    H141588   3.273   6.200  11.769  0.3448 -1.3907 -2.1530
 6699TIP3    H241589   3.190   6.084  11.818 -1.0719  0.5851  0.3679
 6700TIP3   OH241590   2.295   4.417  12.395 -0.9250  0.4372  0.5298
 6700TIP3    H141591   2.280   4.322  12.396  0.4038  0.2162  0.2669
 6700TIP3    H241592   2.213   4.454  12.428 -1.6057 -0.7809  0.2545
 6701TIP3   OH241593   6.014   5.038   2.899  0.6308  0.1657  0.3816
 6701TIP3    H141594   5.977   4.952   2.882 -0.9327  1.1805 -1.9413
 6701TIP3    H241595   5.943   5.086   2.943  0.6115  0.9166 -0.4284
 6702TIP3   OH241596   0.891   4.328  11.541 -0.4460  0.4482 -0.0968
 6702TIP3    H141597   0.843   4.410  11.551 -2.5625 -0.6277 -0.7417
 6702TIP3    H241598   0.879   4.305  11.448  1.4064  0.1337 -0.2989
 6703TIP3   OH241599   1.711   3.883  13.592  0.9768  0.5944 -0.2577
 6703TIP3    H141600   1.673   3.921  13.513  0.8083  1.5352  0.2523
 6703TIP3    H241601   1.672   3.934  13.664  0.8280 -0.5016  0.4526
 6704TIP3   OH241602   1.999   1.595  14.566  0.4239 -0.2002  0.4026
 6704TIP3    H141603   1.910   1.628  14.552  1.1187  1.7108  0.1787
 6704TIP3    H241604   1.996   1.505  14.534 -1.2646  0.0222 -0.2059
 6705TIP3   OH241605   0.576   6.490  12.822  0.7152 -0.3064  0.0391
 6705TIP3    H141606   0.480   6.497  12.821  0.6781 -0.2974  1.4968
 6705TIP3    H241607   0.602   6.530  12.905  1.9395 -0.8843 -0.0469
 6706TIP3   OH241608   4.682   5.722   0.187  0.3639  0.1751 -0.1880
 6706TIP3    H141609   4.623   5.678   0.248  0.6880  1.1332  0.8475
 6706TIP3    H241610   4.660   5.815   0.195  0.4486  0.3316 -1.5076
 6707TIP3   OH241611   5.099   0.071   0.024  0.3662  0.2204  0.4032
 6707TIP3    H141612   5.028   0.073  -0.041  0.1802  1.9803  0.6209
 6707TIP3    H241613   5.139  -0.015   0.012  0.4256  0.5174 -2.1480
 6708TIP3   OH241614   1.072   5.394  15.531 -0.9326 -0.3896  0.3516
 6708TIP3    H141615   0.989   5.352  15.554 -1.1297 -0.3062 -0.1944
 6708TIP3    H241616   1.087   5.370  15.440 -0.7637  0.2523  0.2015
 6709TIP3   OH241617   4.432   5.598  11.183 -0.6033  0.1018  0.1487
 6709TIP3    H141618   4.464   5.569  11.098 -0.3081 -1.5375  0.7789
 6709TIP3    H241619   4.357   5.541  11.202 -0.1036 -0.1845  1.3732
 6710TIP3   OH241620   6.114   5.435   4.530 -1.1044  0.1876  0.1408
 6710TIP3    H141621   6.158   5.471   4.607 -1.0194  1.3876 -0.4432
 6710TIP3    H241622   6.182   5.430   4.463 -1.3277 -0.1964 -0.0610
 6711TIP3   OH241623   5.266   6.615   4.634 -0.4596 -0.2804  0.2916
 6711TIP3    H141624   5.345   6.587   4.681 -1.4370 -0.4852  1.8802
 6711TIP3    H241625   5.296   6.629   4.544  1.3393 -0.5487  0.8003
 6712TIP3   OH241626   4.956   5.540  14.581 -0.1162 -0.1041  0.4622
 6712TIP3    H141627   4.943   5.493  14.663 -0.8652  0.0949  0.4634
 6712TIP3    H241628   4.920   5.627  14.597  0.6886  0.2761  0.2586
 6713TIP3   OH241629   1.510   4.623  11.424 -0.4395  0.3023  0.0933
 6713TIP3    H141630   1.457   4.544  11.424  0.3023 -0.2045  0.0030
 6713TIP3    H241631   1.458   4.687  11.375 -1.2040 -0.0100  0.4844
 6714TIP3   OH241632   4.436   3.805  14.079 -0.5105  0.1853  0.1417
 6714TIP3    H141633   4.359   3.791  14.134 -0.3181  0.5711  0.5159
 6714TIP3    H241634   4.507   3.823  14.141 -0.5477  1.8714 -0.2536
 6715TIP3   OH241635   5.746   1.395   2.173 -0.0847  0.3177  0.4246
 6715TIP3    H141636   5.836   1.402   2.206 -0.1039 -1.2932  0.8592
 6715TIP3    H241637   5.755   1.351   2.088 -0.3630  1.3309 -0.1466
 6716TIP3   OH241638   3.712   1.362  11.170 -0.7411 -0.0611 -0.7214
 6716TIP3    H141639   3.678   1.279  11.204  1.3890 -0.4715  0.5818
 6716TIP3    H241640   3.686   1.363  11.078 -1.1878 -1.9717 -0.6554
 6717TIP3   OH241641   6.760   4.699  16.617  0.0902 -0.3565  0.1268
 6717TIP3    H141642   6.791   4.690  16.707  3.1958  1.5713 -0.5956
 6717TIP3    H241643   6.829   4.660  16.563 -0.8864  0.0538 -1.4948
 6718TIP3   OH241644   5.731   4.432  11.375 -0.5449 -0.3596 -0.5119
 6718TIP3    H141645   5.717   4.524  11.398  0.4161 -0.1656 -0.6660
 6718TIP3    H241646   5.655   4.387  11.411  0.4659  0.0377  2.3290
 6719TIP3   OH241647   3.903   3.735  14.855 -0.1442  0.5126  0.0092
 6719TIP3    H141648   3.951   3.672  14.801  0.7671  1.3793 -0.2342
 6719TIP3    H241649   3.892   3.691  14.939  0.2748 -0.0565 -0.2272
 6720TIP3   OH241650   2.764   5.235  14.978  0.2555 -0.0487 -0.0063
 6720TIP3    H141651   2.802   5.254  14.892 -1.3071 -0.2165 -0.7654
 6720TIP3    H241652   2.790   5.309  15.032  1.5390 -0.0952 -0.5164
 6721TIP3   OH241653   1.953   2.041   6.195  0.6569  0.4533  0.3618
 6721TIP3    H141654   1.860   2.020   6.181  0.1723  2.2285  0.7195
 6721TIP3    H241655   1.998   1.999   6.122 -0.3564 -0.8378  0.4333
 6722TIP3   OH241656   6.009   4.968  14.561  0.3623  0.3839  0.0257
 6722TIP3    H141657   6.018   4.877  14.590 -0.2307 -0.2501 -1.6454
 6722TIP3    H241658   6.063   5.018  14.622 -0.5627 -0.8658  1.9765
 6723TIP3   OH241659   5.499   3.804   4.231 -0.4175 -0.3559  0.4906
 6723TIP3    H141660   5.560   3.780   4.161 -0.0416 -1.8359  1.2788
 6723TIP3    H241661   5.537   3.882   4.270 -1.3968  1.4091 -1.8383
 6724TIP3   OH241662   3.786   1.551  12.541  0.1503  0.0713 -0.0924
 6724TIP3    H141663   3.822   1.628  12.585  0.6228 -0.1261 -0.1343
 6724TIP3    H241664   3.826   1.552  12.454 -0.0635 -0.0647 -0.1930
 6725TIP3   OH241665   6.290   3.066   2.593 -0.7123 -0.6046  0.0043
 6725TIP3    H141666   6.294   3.143   2.536  0.9358 -0.5444  0.1421
 6725TIP3    H241667   6.355   3.006   2.556  0.3203 -0.6124  1.7083
 6726TIP3   OH241668   4.371   1.776  15.427 -0.5526 -0.0758 -0.6888
 6726TIP3    H141669   4.403   1.857  15.389  0.7764 -1.0222 -1.7073
 6726TIP3    H241670   4.290   1.758  15.380 -1.6069  1.3341  0.5134
 6727TIP3   OH241671   6.208   4.962   3.515  0.2122  0.0499  0.4965
 6727TIP3    H141672   6.236   5.003   3.433  2.5066 -0.4857  0.9209
 6727TIP3    H241673   6.277   4.898   3.534 -0.1254  0.2886  2.9300
 6728TIP3   OH241674   4.825   0.943  11.312 -0.0090 -0.3471  0.6862
 6728TIP3    H141675   4.818   1.021  11.257  0.4612 -2.1647 -2.1580
 6728TIP3    H241676   4.734   0.914  11.325 -0.0840 -0.3265  0.2107
 6729TIP3   OH241677   5.972   4.109  13.363  0.1788  0.2507  0.1494
 6729TIP3    H141678   5.946   4.114  13.271  2.1589  0.5438 -0.4503
 6729TIP3    H241679   6.045   4.047  13.364  2.1119  2.3834  0.9814
 6730TIP3   OH241680   1.865   5.262  14.791 -0.2655 -0.5105  0.0596
 6730TIP3    H141681   1.908   5.333  14.742  2.7538 -1.9390  0.3767
 6730TIP3    H241682   1.790   5.237  14.738 -1.1937  2.5643 -0.2796
 6731TIP3   OH241683   4.410   0.977   2.763 -0.5831  0.2887 -0.2004
 6731TIP3    H141684   4.315   0.974   2.778 -0.6065  0.1586 -0.3760
 6731TIP3    H241685   4.443   0.898   2.804 -0.5116  0.4919  0.1354
 6732TIP3   OH241686   5.065   2.013  11.346  0.0516 -0.1450  0.3942
 6732TIP3    H141687   4.973   2.039  11.333 -0.2147 -1.0684  0.3675
 6732TIP3    H241688   5.073   2.004  11.441 -0.5056 -2.1554  0.2979
 6733TIP3   OH241689   1.794   2.538  12.516 -0.4151 -0.1217  0.5665
 6733TIP3    H141690   1.785   2.533  12.611  3.5561  3.1835  1.3924
 6733TIP3    H241691   1.765   2.627  12.494 -1.0412 -0.7528 -1.3629
 6734TIP3   OH241692   2.389   5.668   6.053 -0.0136  0.2585  0.2268
 6734TIP3    H141693   2.436   5.747   6.027  0.3069 -0.3081 -0.9838
 6734TIP3    H241694   2.449   5.596   6.030  0.4865 -0.2987  2.9508
 6735TIP3   OH241695   5.579   5.488  15.979  0.6573  0.1928 -0.5202
 6735TIP3    H141696   5.515   5.481  15.908  1.1493 -1.4013 -0.8492
 6735TIP3    H241697   5.663   5.467  15.937  1.2526  1.1616  0.1343
 6736TIP3   OH241698   2.009   5.723   5.287 -0.1830  0.2108 -0.1430
 6736TIP3    H141699   2.054   5.799   5.249  0.1228  0.5114  0.7760
 6736TIP3    H241700   2.076   5.655   5.292 -0.3872 -0.0418 -0.7127
 6737TIP3   OH241701   4.715   0.472   0.255  0.0295  0.3700 -0.0805
 6737TIP3    H141702   4.798   0.488   0.301  0.6309  0.1488 -1.0688
 6737TIP3    H241703   4.728   0.509   0.168 -0.3133 -1.1310 -0.7898
 6738TIP3   OH241704   2.931   3.056  15.274  0.1613  0.0210 -0.4491
 6738TIP3    H141705   2.914   3.146  15.249 -1.0852 -0.4492 -1.3931
 6738TIP3    H241706   3.011   3.060  15.326 -0.7194  1.8601  0.8581
 6739TIP3   OH241707   2.880   3.888   4.893  0.2337  0.2915  0.2086
 6739TIP3    H141708   2.897   3.966   4.840 -0.8844  0.1541 -0.3949
 6739TIP3    H241709   2.927   3.903   4.974  0.2202  1.5031  0.0113
 6740TIP3   OH241710   4.086   6.524   1.862 -0.1341 -0.0412 -0.1354
 6740TIP3    H141711   4.037   6.486   1.789 -2.0645  1.3329  0.3394
 6740TIP3    H241712   4.093   6.617   1.839 -0.6863  0.3920  1.3449
 6741TIP3   OH241713   1.437   3.182  12.228  0.0574  0.5387 -0.1867
 6741TIP3    H141714   1.475   3.267  12.207 -0.0767  0.5822 -0.2481
 6741TIP3    H241715   1.355   3.179  12.180 -1.0924  1.3232  1.6108
 6742TIP3   OH241716   4.889   3.539  10.648  0.2880 -0.0485 -0.0257
 6742TIP3    H141717   4.880   3.534  10.743  2.0196  0.0710  0.1837
 6742TIP3    H241718   4.825   3.605  10.621  0.4868  0.6671  1.1920
 6743TIP3   OH241719   2.261   3.738  11.231  0.4015  0.2318  0.4475
 6743TIP3    H141720   2.353   3.749  11.208  0.0864  1.2265 -0.4002
 6743TIP3    H241721   2.213   3.778  11.159 -0.7196 -0.7334  0.6256
 6744TIP3   OH241722   3.967   1.411  13.196  0.0276  0.2802 -0.3097
 6744TIP3    H141723   3.984   1.383  13.286 -1.2655  1.6290  0.3914
 6744TIP3    H241724   3.932   1.332  13.153 -0.7753  0.0109  0.7928
 6745TIP3   OH241725   2.478   5.324  13.912 -0.0921  0.6461 -0.4133
 6745TIP3    H141726   2.432   5.408  13.908  0.3970  0.8665 -2.4679
 6745TIP3    H241727   2.443   5.274  13.838 -0.3841 -1.0048  0.7747
 6746TIP3   OH241728   6.207   5.302  13.572 -0.2198 -0.4901  0.6845
 6746TIP3    H141729   6.169   5.389  13.577  1.4380  0.2374  1.5389
 6746TIP3    H241730   6.143   5.245  13.614 -0.8759  0.4849  1.0316
 6747TIP3   OH241731   4.578   0.195  15.251 -0.2370  0.1370 -0.3630
 6747TIP3    H141732   4.523   0.194  15.173 -0.1498 -2.6443 -0.4815
 6747TIP3    H241733   4.564   0.110  15.292  4.5694 -1.2029 -0.8818
 6748TIP3   OH241734   6.718   3.493   4.130  0.2815  0.1528  0.0534
 6748TIP3    H141735   6.687   3.575   4.168  1.8613  1.0187 -0.4807
 6748TIP3    H241736   6.681   3.492   4.041  3.0111  2.0277 -1.2236
 6749TIP3   OH241737   6.440   5.953   4.481  0.6268  0.6844 -0.0433
 6749TIP3    H141738   6.506   5.945   4.412  0.6684  0.7250 -0.0088
 6749TIP3    H241739   6.488   5.992   4.555  0.7257  0.0734  0.2167
 6750TIP3   OH241740   6.535   1.308  13.563 -0.0356  0.2142 -0.0292
 6750TIP3    H141741   6.611   1.366  13.555  1.5854 -1.9816 -2.0893
 6750TIP3    H241742   6.546   1.245  13.492 -3.7809 -0.3061 -0.3187
 6751TIP3   OH241743   5.026   6.723  15.411  0.1122  0.1161  0.5473
 6751TIP3    H141744   5.105   6.691  15.368  0.0902  0.8422 -0.0522
 6751TIP3    H241745   5.040   6.817  15.422 -0.3184  0.1158  1.2022
 6752TIP3   OH241746   0.329   0.554  13.120 -0.1078 -0.1267 -0.2505
 6752TIP3    H141747   0.367   0.489  13.178 -1.3549  0.1902  0.9505
 6752TIP3    H241748   0.236   0.555  13.141 -0.1536  1.9287 -0.3283
 6753TIP3   OH241749   2.788   6.110   0.717  0.6334 -0.8223  0.2403
 6753TIP3    H141750   2.842   6.051   0.769  0.7512 -1.8245 -0.9688
 6753TIP3    H241751   2.763   6.180   0.778  2.6942 -0.6928  1.0046
 6754TIP3   OH241752   4.221   4.767  12.662 -0.4754  0.1792  0.7420
 6754TIP3    H141753   4.313   4.744  12.649 -1.1842 -2.5219 -0.3778
 6754TIP3    H241754   4.213   4.783  12.756  0.9492 -0.5977  1.0258
 6755TIP3   OH241755   2.776   3.863  14.760  0.4912  0.0817 -0.0172
 6755TIP3    H141756   2.742   3.793  14.816 -2.4325 -0.3655 -2.1561
 6755TIP3    H241757   2.725   3.940  14.785 -1.5774 -0.3493 -2.5595
 6756TIP3   OH241758   0.668   0.520   3.499  0.2441  0.7586  0.3622
 6756TIP3    H141759   0.659   0.609   3.464 -2.7268  0.6670  0.6101
 6756TIP3    H241760   0.698   0.533   3.590 -0.0473  1.5028  0.3580
 6757TIP3   OH241761   4.347   5.455   5.115  0.2799  0.2576 -0.0676
 6757TIP3    H141762   4.273   5.399   5.140  1.4974 -0.4349  2.3141
 6757TIP3    H241763   4.368   5.504   5.195  1.5346  1.4605 -1.0863
 6758TIP3   OH241764   5.974   1.790  14.723  0.1798 -0.8500 -0.5417
 6758TIP3    H141765   6.063   1.756  14.729  0.2175 -0.6025  0.3970
 6758TIP3    H241766   5.920   1.713  14.708  0.5563 -0.9896 -1.2298
 6759TIP3   OH241767   4.340   5.792   5.822  0.2470 -0.0424 -0.0528
 6759TIP3    H141768   4.432   5.818   5.831  0.1135  0.5570 -0.3324
 6759TIP3    H241769   4.343   5.697   5.815  0.6300 -0.3184  2.6521
 6760TIP3   OH241770   4.244   2.727  16.971  0.4893  0.2526 -0.3403
 6760TIP3    H141771   4.186   2.667  16.923  0.4809  0.1108 -0.1529
 6760TIP3    H241772   4.187   2.800  16.996  0.0220 -0.5684  1.1251
 6761TIP3   OH241773   3.960   4.609   5.216  0.1004 -0.2662  0.0934
 6761TIP3    H141774   3.896   4.541   5.196 -1.0907  0.8741 -0.1394
 6761TIP3    H241775   3.911   4.676   5.263  1.1403  0.6001  0.0072
 6762TIP3   OH241776   5.373   0.533   5.104 -0.3324 -0.2472 -0.6490
 6762TIP3    H141777   5.298   0.535   5.044 -1.3588 -0.5875  0.5808
 6762TIP3    H241778   5.376   0.442   5.134  1.3581 -0.5429 -1.6084
 6763TIP3   OH241779   2.595   2.080   3.950  0.3241 -0.0568 -0.7606
 6763TIP3    H141780   2.683   2.057   3.978 -0.0972 -0.3877  0.3201
 6763TIP3    H241781   2.540   2.008   3.981 -0.1948 -0.4107 -2.3720
 6764TIP3   OH241782   3.628   3.450  16.893 -0.3646  0.1407 -0.0418
 6764TIP3    H141783   3.561   3.507  16.854 -0.0653  1.2295  0.9666
 6764TIP3    H241784   3.709   3.474  16.848 -0.5875 -1.0473 -1.1327
 6765TIP3   OH241785   3.396   2.340   2.425 -0.2271 -0.3730  0.3888
 6765TIP3    H141786   3.338   2.415   2.433 -0.1894 -0.4206  1.1458
 6765TIP3    H241787   3.395   2.299   2.512 -0.6719 -1.5569 -0.1500
 6766TIP3   OH241788   1.718   6.277   1.643  0.3106 -0.4378  0.3506
 6766TIP3    H141789   1.737   6.259   1.551 -1.7369 -0.2165 -0.1589
 6766TIP3    H241790   1.772   6.215   1.691 -1.4787 -3.3518 -1.1268
 6767TIP3   OH241791   6.574   4.195  16.181 -0.6074  1.0424 -0.1617
 6767TIP3    H141792   6.562   4.232  16.269  0.2400 -0.8772  0.8200
 6767TIP3    H241793   6.603   4.269  16.128  1.7979  1.7011  1.8889
 6768TIP3   OH241794   4.185   5.070  13.420 -0.2356  0.5381 -0.2554
 6768TIP3    H141795   4.280   5.059  13.428 -0.5558 -1.0232  2.4299
 6768TIP3    H241796   4.159   5.000  13.359  0.1931  0.1391  0.0110
 6769TIP3   OH241797   2.804   1.356   2.644 -0.0833 -0.5514 -0.2499
 6769TIP3    H141798   2.785   1.271   2.603 -0.2236 -2.1632  2.8595
 6769TIP3    H241799   2.731   1.412   2.618 -1.5689 -2.2880 -0.0377
 6770TIP3   OH241800   4.220   5.675  14.939  0.1065  0.0349 -0.5711
 6770TIP3    H141801   4.170   5.715  14.868 -0.0569  0.2155 -0.3563
 6770TIP3    H241802   4.220   5.741  15.009 -0.6976 -0.5693  0.0207
 6771TIP3   OH241803   0.481   5.184  14.057 -0.1488 -0.1432 -0.4097
 6771TIP3    H141804   0.457   5.100  14.096 -0.5741  0.0105 -0.3312
 6771TIP3    H241805   0.421   5.247  14.097 -0.9589 -0.0619 -1.6996
 6772TIP3   OH241806   6.722   3.399   2.332  0.2304  0.9173 -0.2210
 6772TIP3    H141807   6.783   3.470   2.352 -0.3795  1.6274 -0.8160
 6772TIP3    H241808   6.654   3.441   2.279 -0.6037  0.0720  0.1642
 6773TIP3   OH241809   2.341   3.034  17.003 -0.3181  0.1036 -0.1085
 6773TIP3    H141810   2.406   3.062  16.940 -0.4291  0.1590 -0.1994
 6773TIP3    H241811   2.257   3.064  16.967 -0.3834  0.1244  0.0557
 6774TIP3   OH241812   5.918   0.718  14.137 -0.0719 -0.0266  0.0160
 6774TIP3    H141813   5.949   0.775  14.207  0.2356 -0.9218  0.6243
 6774TIP3    H241814   5.830   0.693  14.163  0.1507 -0.5960  0.2426
 6775TIP3   OH241815   2.216   2.964  15.641 -0.2535 -0.1810  0.1245
 6775TIP3    H141816   2.154   2.890  15.642 -1.1382  0.5485  0.8951
 6775TIP3    H241817   2.206   3.004  15.727  0.0534  0.9873 -0.3743
 6776TIP3   OH241818   4.732   6.607   1.287 -0.3378 -0.9744 -0.2363
 6776TIP3    H141819   4.816   6.564   1.270  1.1443  1.4221  0.4708
 6776TIP3    H241820   4.723   6.671   1.217 -1.2514 -0.7508  0.0766
 6777TIP3   OH241821   2.533   5.685   5.464 -0.8189 -0.4321 -0.1068
 6777TIP3    H141822   2.519   5.703   5.371  3.0645 -0.2672 -0.8175
 6777TIP3    H241823   2.560   5.593   5.466 -0.9690 -0.4626  0.9018
 6778TIP3   OH241824   6.549   5.559  12.050 -0.1860 -0.7321  0.3651
 6778TIP3    H141825   6.612   5.507  12.001 -1.0083  0.1907 -1.8203
 6778TIP3    H241826   6.586   5.566  12.138  1.9470 -1.5242 -0.4106
 6779TIP3   OH241827   0.869   5.207   3.507 -0.3537 -0.0411 -0.2078
 6779TIP3    H141828   0.823   5.128   3.479  0.0420 -0.3384 -0.0183
 6779TIP3    H241829   0.930   5.226   3.436  0.9106 -1.0026  0.5845
 6780TIP3   OH241830   3.651   4.435   2.111 -0.3228  0.3072  0.0328
 6780TIP3    H141831   3.736   4.477   2.102 -0.0169  0.0162  1.3995
 6780TIP3    H241832   3.608   4.449   2.026  0.9497  0.7266 -0.5585
 6781TIP3   OH241833   2.112   0.406  11.821  0.1996  0.4317  0.5422
 6781TIP3    H141834   2.204   0.415  11.798 -0.3025  1.2087 -1.4455
 6781TIP3    H241835   2.112   0.387  11.914  2.2883  2.8173  1.1513
 6782TIP3   OH241836   5.991   1.204  14.877 -0.4089  0.0109 -0.1197
 6782TIP3    H141837   5.896   1.200  14.888 -0.6959 -1.8630 -2.3815
 6782TIP3    H241838   6.020   1.114  14.893  0.9094  0.4030 -0.1849
 6783TIP3   OH241839   4.827   5.734   3.026 -0.5730  0.5919  0.0073
 6783TIP3    H141840   4.775   5.795   2.973 -1.3743 -0.6019 -0.6163
 6783TIP3    H241841   4.787   5.649   3.011 -0.5493  0.1324  2.1791
 6784TIP3   OH241842   6.618   3.062   0.216 -0.3273  0.1284  0.1667
 6784TIP3    H141843   6.595   3.100   0.301  1.3179  1.0191  0.2730
 6784TIP3    H241844   6.662   2.980   0.238 -1.9647 -0.8136  0.0375
 6785TIP3   OH241845   6.380   6.257  15.290 -0.6452 -0.2256 -0.7687
 6785TIP3    H141846   6.409   6.347  15.276 -0.2001 -0.1778  0.3538
 6785TIP3    H241847   6.397   6.213  15.206  1.8109  0.0567 -0.5078
 6786TIP3   OH241848   6.711   6.484   5.892  0.1397 -0.2735  0.5510
 6786TIP3    H141849   6.748   6.502   5.805  0.3104 -2.1120  0.1961
 6786TIP3    H241850   6.749   6.550   5.949 -0.7599  1.6229 -0.9385
 6787TIP3   OH241851   6.059   2.725  14.805  0.2179  0.4689 -0.0088
 6787TIP3    H141852   6.110   2.783  14.749  0.6078 -1.3375 -1.6165
 6787TIP3    H241853   6.005   2.784  14.857  2.5010  2.3804  0.3745
 6788TIP3   OH241854   2.312   3.994  14.424 -0.1794  0.0609 -0.2296
 6788TIP3    H141855   2.275   4.024  14.340 -0.8684  1.6429  0.5947
 6788TIP3    H241856   2.294   4.066  14.485 -0.9443 -1.6025  1.6279
 6789TIP3   OH241857   6.561   1.166   3.465 -0.5473 -0.3734 -0.1310
 6789TIP3    H141858   6.588   1.130   3.380  0.9661  1.4584 -0.4923
 6789TIP3    H241859   6.466   1.164   3.463 -0.5256 -0.7839 -1.6992
 6790TIP3   OH241860   1.807   2.970   3.423 -0.2139  0.5657 -0.0840
 6790TIP3    H141861   1.894   2.995   3.454 -1.0794  0.3798  2.7741
 6790TIP3    H241862   1.816   2.877   3.402  0.8790  1.1335 -2.4660
 6791TIP3   OH241863   2.668   0.263   0.788 -0.1741 -0.7516  0.4973
 6791TIP3    H141864   2.658   0.327   0.717  1.8670 -1.1415 -0.2108
 6791TIP3    H241865   2.625   0.303   0.863 -0.2561  0.7846 -0.3320
 6792TIP3   OH241866   6.319   4.991   1.024  0.0291  0.5758  0.4337
 6792TIP3    H141867   6.255   4.997   1.096  0.0566  1.5099  0.3960
 6792TIP3    H241868   6.361   4.906   1.037 -2.6490 -1.0518 -0.7707
 6793TIP3   OH241869   6.066   4.719  11.926  0.4506 -0.2310 -0.8035
 6793TIP3    H141870   6.064   4.656  11.998 -2.1077 -1.1433 -1.5627
 6793TIP3    H241871   6.055   4.804  11.968  0.8219 -0.5737  0.0068
 6794TIP3   OH241872   0.614   6.315  15.106 -0.2208 -0.4605 -0.7024
 6794TIP3    H141873   0.631   6.246  15.171 -0.1236 -0.1030 -0.3458
 6794TIP3    H241874   0.539   6.362  15.142  0.1300  0.0328 -0.6148
 6795TIP3   OH241875   2.837   2.131  15.459  0.4081  0.1643 -0.0585
 6795TIP3    H141876   2.851   2.049  15.506 -0.3499  0.9139  1.5721
 6795TIP3    H241877   2.742   2.139  15.450  0.1777  2.3881  2.8690
 6796TIP3   OH241878   1.509   5.218   4.219 -0.1528  0.3197 -0.0981
 6796TIP3    H141879   1.543   5.280   4.284  1.2345 -0.3196 -0.1729
 6796TIP3    H241880   1.583   5.201   4.162 -1.2202  0.4960 -1.5975
 6797TIP3   OH241881   4.750   2.388   2.432 -0.0286  0.0407  0.7780
 6797TIP3    H141882   4.677   2.377   2.493  0.3063  1.0412  1.3784
 6797TIP3    H241883   4.806   2.454   2.473 -0.5603  1.8775 -1.2948
 6798TIP3   OH241884   1.884   1.452   3.476  0.2637 -0.4115 -0.4742
 6798TIP3    H141885   1.802   1.492   3.448  0.4651 -0.3781 -1.0259
 6798TIP3    H241886   1.885   1.462   3.571 -0.7797 -1.1742 -0.3693
 6799TIP3   OH241887   2.010   6.802  14.405  0.1157  0.5980  0.2441
 6799TIP3    H141888   2.062   6.804  14.325  1.0947  1.1993  0.8849
 6799TIP3    H241889   1.947   6.730  14.390  1.3125 -0.3551 -0.4114
 6800TIP3   OH241890   4.502   3.405   4.291  0.3461 -0.7455  0.2577
 6800TIP3    H141891   4.470   3.484   4.247  1.6945 -0.5369 -0.3917
 6800TIP3    H241892   4.543   3.437   4.371  0.6807 -0.8156  0.1128
 6801TIP3   OH241893   3.001   6.770   3.645 -0.0173  0.5551  0.1833
 6801TIP3    H141894   3.071   6.828   3.616 -0.2818  1.1914  0.7863
 6801TIP3    H241895   3.013   6.690   3.594  1.3413  0.5314  0.4960
 6802TIP3   OH241896   1.827   0.471  12.929  0.6846 -0.0979 -0.1369
 6802TIP3    H141897   1.886   0.434  12.995 -0.3653 -3.8110 -1.0278
 6802TIP3    H241898   1.747   0.490  12.977  1.6169  2.4387  0.5659
 6803TIP3   OH241899   3.652   3.314   4.058  0.3635  0.1789  0.0061
 6803TIP3    H141900   3.659   3.372   4.134  1.3963 -0.8628  0.7451
 6803TIP3    H241901   3.737   3.324   4.014  0.0369  0.2403 -0.6072
 6804TIP3   OH241902   6.835   1.085  11.313 -0.3314 -0.1836  0.3272
 6804TIP3    H141903   6.781   1.162  11.328  0.2125  0.3152 -0.2130
 6804TIP3    H241904   6.866   1.094  11.223  0.7845 -0.3526  0.6693
 6805TIP3   OH241905   2.715   5.021   0.366 -0.0407 -0.2467  0.5751
 6805TIP3    H141906   2.669   5.017   0.282  0.9538  1.7619 -0.1336
 6805TIP3    H241907   2.699   5.110   0.398  1.2441 -0.3257  1.5268
 6806TIP3   OH241908   0.494   3.711  12.858 -0.2647  0.1973  0.3219
 6806TIP3    H141909   0.579   3.669  12.866 -0.0544  0.4529 -0.4290
 6806TIP3    H241910   0.479   3.717  12.764 -1.3386 -0.2777  0.4448
 6807TIP3   OH241911   3.823   3.035  10.561  0.0327 -0.2907  0.2689
 6807TIP3    H141912   3.776   3.118  10.571  0.1011  0.0133 -1.6742
 6807TIP3    H241913   3.754   2.969  10.556 -0.2652  0.1129 -2.1698
 6808TIP3   OH241914   0.841   4.570  15.216 -0.0243 -0.4540  0.4868
 6808TIP3    H141915   0.929   4.573  15.252  0.2943 -0.3974 -0.2792
 6808TIP3    H241916   0.850   4.607  15.128 -1.0692  0.8920  0.9161
 6809TIP3   OH241917   5.801   0.470   1.461 -0.4828 -0.3534 -0.5543
 6809TIP3    H141918   5.845   0.433   1.538  0.2132 -2.4397 -1.8477
 6809TIP3    H241919   5.710   0.481   1.488 -0.3370 -1.4374  0.4748
 6810TIP3   OH241920   3.892   0.646  15.892 -0.1663 -0.0627 -0.4855
 6810TIP3    H141921   3.802   0.677  15.885 -0.3903 -0.8525 -1.3536
 6810TIP3    H241922   3.947   0.723  15.875 -0.6692  0.4420  0.1478
 6811TIP3   OH241923   4.754   2.734   6.397  0.2301 -0.0348  0.1107
 6811TIP3    H141924   4.710   2.708   6.478  0.7440  2.1125  1.1464
 6811TIP3    H241925   4.682   2.754   6.337 -0.1542 -1.5424  0.0201
 6812TIP3   OH241926   1.406   0.457   5.600  0.4830  0.1705  0.2016
 6812TIP3    H141927   1.364   0.497   5.676  0.9824  0.4880  0.3123
 6812TIP3    H241928   1.445   0.376   5.634  1.9377  1.0117  0.6128
 6813TIP3   OH241929   3.934   1.397  12.032 -0.1263  0.0604 -0.1706
 6813TIP3    H141930   3.854   1.362  11.991  0.3876  0.6280 -1.7240
 6813TIP3    H241931   4.005   1.365  11.977  0.4876  2.0284 -0.6027
 6814TIP3   OH241932   3.978   4.151   5.004  0.1419  0.5345 -0.7003
 6814TIP3    H141933   3.895   4.167   5.049  0.3026  0.0149 -0.2128
 6814TIP3    H241934   4.035   4.112   5.071  0.4113 -0.1617 -1.3183
 6815TIP3   OH241935   3.356   1.066   4.324  0.3368  0.7520 -0.4457
 6815TIP3    H141936   3.290   1.019   4.273  1.0691 -2.4455  1.3305
 6815TIP3    H241937   3.400   1.122   4.260  0.2982 -1.9856 -3.0922
 6816TIP3   OH241938   6.374   0.532  11.720  0.6788  0.6863  0.3714
 6816TIP3    H141939   6.339   0.588  11.650 -0.2917 -0.7586 -0.3474
 6816TIP3    H241940   6.298   0.508  11.772  1.2808  1.0795  1.4812
 6817TIP3   OH241941   6.493   5.619   6.258 -0.2481 -0.1552  0.1896
 6817TIP3    H141942   6.453   5.659   6.336  1.0020  2.3348 -0.3457
 6817TIP3    H241943   6.541   5.544   6.292  2.0050  2.0356  2.2697
 6818TIP3   OH241944   0.444   5.356  13.066 -0.1390 -0.0397  0.1325
 6818TIP3    H141945   0.373   5.388  13.010 -2.0127 -2.4641  0.9475
 6818TIP3    H241946   0.483   5.436  13.103 -1.6679  1.4343 -1.2566
 6819TIP3   OH241947   3.242   3.939   1.246 -0.2587 -0.0520 -0.5685
 6819TIP3    H141948   3.227   3.979   1.332  0.0907 -1.3193  0.1188
 6819TIP3    H241949   3.329   3.970   1.220  1.2982 -2.4338  1.2698
 6820TIP3   OH241950   4.248   4.987  11.077  0.5128 -1.2593 -0.2419
 6820TIP3    H141951   4.304   4.971  11.001  0.0790 -2.2550 -0.3659
 6820TIP3    H241952   4.216   4.900  11.102  1.5585 -1.1220  1.7991
 6821TIP3   OH241953   2.386   5.833   0.565  0.1633 -0.2048  0.2135
 6821TIP3    H141954   2.441   5.895   0.614  1.7194 -0.5919 -0.9525
 6821TIP3    H241955   2.389   5.753   0.616  1.3702 -0.4562 -0.2094
 6822TIP3   OH241956   0.314   0.857  11.378  0.5537 -0.3306 -0.0369
 6822TIP3    H141957   0.284   0.867  11.469  0.9201 -0.4576  0.0999
 6822TIP3    H241958   0.409   0.870  11.383  0.3895  1.2943 -0.6501
 6823TIP3   OH241959   2.286   3.474  13.809  0.5150  0.5073  0.2399
 6823TIP3    H141960   2.197   3.491  13.840  0.4897 -1.0339  1.1298
 6823TIP3    H241961   2.279   3.475  13.714 -0.2037  1.5792  0.2914
 6824TIP3   OH241962   1.693   1.637  12.561  0.2139 -0.0992 -0.3491
 6824TIP3    H141963   1.643   1.605  12.636  0.2181  2.0759  0.6411
 6824TIP3    H241964   1.631   1.689  12.511  0.4084 -0.9347 -1.5105
 6825TIP3   OH241965   6.557   1.025   5.383 -0.2276 -0.3335 -0.6941
 6825TIP3    H141966   6.488   1.001   5.445 -1.0535 -0.2063 -1.5327
 6825TIP3    H241967   6.632   1.046   5.437 -1.0461  0.1728  0.2797
 6826TIP3   OH241968   1.572   1.603  14.176 -0.0332  0.1245 -0.1410
 6826TIP3    H141969   1.561   1.592  14.081  0.7904 -0.5644 -0.1745
 6826TIP3    H241970   1.498   1.556  14.215 -0.3263  0.3351 -0.4416
 6827TIP3   OH241971   2.479   4.607   2.382 -0.1476 -0.7036  0.2964
 6827TIP3    H141972   2.427   4.583   2.305 -0.4973 -0.5423  0.4788
 6827TIP3    H241973   2.438   4.559   2.454 -0.4124 -0.1103  0.5432
 6828TIP3   OH241974   0.543   1.586   1.333  0.2732  0.5377 -0.5742
 6828TIP3    H141975   0.525   1.653   1.400  0.3096  0.8747 -0.8970
 6828TIP3    H241976   0.460   1.577   1.286  0.3652  0.5999 -0.7479
 6829TIP3   OH241977   2.288   4.810   0.651  0.2779 -0.2128 -0.7143
 6829TIP3    H141978   2.256   4.745   0.589  2.0081 -1.5591 -0.2693
 6829TIP3    H241979   2.380   4.786   0.666  0.5716  1.4954  0.5502
 6830TIP3   OH241980   1.806   3.748  15.405 -0.1862  0.2262  0.1856
 6830TIP3    H141981   1.858   3.668  15.399  0.2515  0.5571 -0.5297
 6830TIP3    H241982   1.718   3.718  15.428 -0.3370 -0.5857 -1.3551
 6831TIP3   OH241983   6.163   2.420  15.949  0.1791  0.1441  0.4704
 6831TIP3    H141984   6.245   2.456  15.914 -0.9595  0.7290 -1.8636
 6831TIP3    H241985   6.172   2.326  15.940  0.9608  0.1484  1.1468
 6832TIP3   OH241986   5.799   1.060  12.792  0.0755 -0.0397 -0.1563
 6832TIP3    H141987   5.778   1.147  12.826  0.0279  0.1851 -0.7508
 6832TIP3    H241988   5.799   1.004  12.869 -2.0114  0.0719 -0.0081
 6833TIP3   OH241989   0.153   5.209   6.082 -0.3350  0.1006 -0.2995
 6833TIP3    H141990   0.236   5.225   6.126 -0.9556 -0.9202  1.3398
 6833TIP3    H241991   0.087   5.248   6.139 -1.0580  0.1636 -1.1463
 6834TIP3   OH241992   2.970   4.476  13.801  0.1154 -0.5787 -0.7703
 6834TIP3    H141993   3.024   4.502  13.876 -1.7259 -0.6291  0.6542
 6834TIP3    H241994   3.027   4.485  13.725  1.5018  1.3117  0.4239
 6835TIP3   OH241995   1.752   2.776  11.963  0.2064  0.0239 -0.2383
 6835TIP3    H141996   1.690   2.745  12.029 -0.2011 -0.4730 -0.8461
 6835TIP3    H241997   1.782   2.861  11.996 -0.2168 -0.0836  0.4358
 6836TIP3   OH241998   5.948   0.013  12.875 -0.1834  0.4002 -0.0549
 6836TIP3    H141999   5.959   0.051  12.788  0.8463  1.7128  0.6049
 6836TIP3    H242000   6.037   0.011  12.911 -0.9020  2.7397  2.0874
 6837TIP3   OH242001   5.776   2.624   5.595  0.3435  0.6617  0.2846
 6837TIP3    H142002   5.713   2.552   5.598  0.6422  0.4166  0.9569
 6837TIP3    H242003   5.861   2.582   5.586  0.3608  1.0284 -1.5354
 6838TIP3   OH242004   1.140   1.731  17.060  0.3531  0.0435 -0.3959
 6838TIP3    H142005   1.192   1.706  16.984 -0.2940 -1.6154 -0.3308
 6838TIP3    H242006   1.167   1.671  17.129 -2.6575 -1.9958 -0.7897
 6839TIP3   OH242007   5.613   3.122  12.130  0.3745 -0.5630 -0.7871
 6839TIP3    H142008   5.641   3.049  12.186 -1.1373 -0.3206  0.3670
 6839TIP3    H242009   5.544   3.086  12.075 -0.1711 -0.1137 -0.4226
 6840TIP3   OH242010   5.229   2.501  15.030 -0.6939  0.1393 -0.1545
 6840TIP3    H142011   5.169   2.549  15.087  0.5263 -0.8754  2.1635
 6840TIP3    H242012   5.247   2.420  15.078 -0.4622 -1.3407 -2.5901
 6841TIP3   OH242013   6.002   6.163   4.181 -0.0224 -0.5039  0.1201
 6841TIP3    H142014   5.964   6.079   4.208  0.3801 -1.3347 -1.7158
 6841TIP3    H242015   5.956   6.228   4.233 -1.6909 -1.7223  0.2535
 6842TIP3   OH242016   6.025   6.511  16.659 -0.4133 -0.8390  0.1038
 6842TIP3    H142017   5.983   6.449  16.599 -1.3008  0.4736 -0.6810
 6842TIP3    H242018   6.024   6.594  16.612  1.1525 -0.3022  0.9504
 6843TIP3   OH242019   1.247   1.537   0.064  0.1018 -0.4086 -0.0573
 6843TIP3    H142020   1.320   1.570   0.011  0.5968 -0.1992  0.7388
 6843TIP3    H242021   1.282   1.534   0.153 -0.1283 -2.4835  0.0106
 6844TIP3   OH242022   2.583   2.629  13.626  0.0844 -0.0906 -0.4676
 6844TIP3    H142023   2.606   2.623  13.719  0.0387  2.6807 -0.1974
 6844TIP3    H242024   2.502   2.578  13.618  1.8679 -3.3082  0.2017
 6845TIP3   OH242025   0.119   4.353   2.486  0.1021  0.0257 -0.4909
 6845TIP3    H142026   0.031   4.351   2.450 -1.0239  2.3790  1.7445
 6845TIP3    H242027   0.106   4.348   2.581  2.6007 -2.0194 -0.1335
 6846TIP3   OH242028   5.672   3.609   5.649  0.4818  0.0764 -0.0497
 6846TIP3    H142029   5.620   3.673   5.697  0.1803  0.1027 -0.4106
 6846TIP3    H242030   5.758   3.610   5.692  1.4904  2.8924 -1.8975
 6847TIP3   OH242031   1.220   2.734   1.351 -0.2039 -0.1854  0.1751
 6847TIP3    H142032   1.156   2.805   1.357 -0.1478 -0.1967  0.9269
 6847TIP3    H242033   1.299   2.769   1.394  0.4450 -0.0207 -1.0916
 6848TIP3   OH242034   1.030   5.309   2.080 -0.3099  0.3698  0.4801
 6848TIP3    H142035   1.037   5.220   2.046 -0.1616  0.8694 -0.8354
 6848TIP3    H242036   0.973   5.301   2.157 -1.2022 -0.6963 -0.2647
 6849TIP3   OH242037   0.456   4.698  14.183 -0.4906  0.2008  0.4511
 6849TIP3    H142038   0.514   4.718  14.257  0.1604 -1.3583  0.3930
 6849TIP3    H242039   0.486   4.613  14.151 -1.4524  0.3560 -0.9453
 6850TIP3   OH242040   2.731   5.681   0.455 -0.1148  0.2730  0.5681
 6850TIP3    H142041   2.680   5.761   0.446  0.0724  0.3580  0.2429
 6850TIP3    H242042   2.677   5.623   0.509 -0.3206  0.5569  0.6660
 6851TIP3   OH242043   1.395   0.333  16.441  0.0413 -0.5490  0.0883
 6851TIP3    H142044   1.435   0.401  16.386 -1.7797  0.7154  0.2086
 6851TIP3    H242045   1.468   0.283  16.476  1.3356 -0.9760 -2.9017
 6852TIP3   OH242046   2.729   0.994   5.246  0.2151  0.1076 -0.1462
 6852TIP3    H142047   2.800   0.937   5.271  0.3383  0.6537  0.7888
 6852TIP3    H242048   2.690   0.952   5.169  0.2546 -1.2500  0.5528
 6853TIP3   OH242049   0.865   1.743   2.237 -0.1481 -0.3623  0.0025
 6853TIP3    H142050   0.863   1.659   2.190  0.0541 -0.8883  0.8944
 6853TIP3    H242051   0.901   1.720   2.323  2.4075  1.0690 -0.5655
 6854TIP3   OH242052   6.155   3.684   0.428  0.0672  0.0648 -0.2158
 6854TIP3    H142053   6.233   3.630   0.426  0.2346  0.3171 -0.8150
 6854TIP3    H242054   6.083   3.624   0.410  0.2931  0.0923 -1.3130
 6855TIP3   OH242055   3.472   5.530   1.250  0.0822 -0.2136  0.0552
 6855TIP3    H142056   3.439   5.529   1.160  0.4510 -0.1682 -0.0844
 6855TIP3    H242057   3.434   5.452   1.290 -0.0654 -0.2480 -0.1498
 6856TIP3   OH242058   6.324   4.152  14.922 -0.2763 -0.0233  0.2275
 6856TIP3    H142059   6.370   4.068  14.915  1.3917  0.7951  0.8423
 6856TIP3    H242060   6.232   4.130  14.913  0.1848 -1.8217 -0.4326
 6857TIP3   OH242061   4.134   2.765   3.308 -0.5685  0.0918  0.2995
 6857TIP3    H142062   4.227   2.786   3.315 -0.7371  0.9971 -0.0189
 6857TIP3    H242063   4.118   2.701   3.377  0.6437 -1.3830 -0.7257
 6858TIP3   OH242064   4.731   0.495   5.287  0.3473  0.5047  0.3856
 6858TIP3    H142065   4.669   0.447   5.343  1.4889 -1.4345  0.0723
 6858TIP3    H242066   4.685   0.576   5.266 -0.9071  0.4434  2.5254
 6859TIP3   OH242067   1.260   0.210  16.242  0.1497  0.1817  0.4367
 6859TIP3    H142068   1.274   0.258  16.324 -2.0036  0.2716  0.8017
 6859TIP3    H242069   1.276   0.119  16.265  1.0002  0.3621  0.5806
 6860TIP3   OH242070   1.041   0.822  12.462  0.5928  0.2751  0.3655
 6860TIP3    H142071   1.113   0.884  12.454  1.8855 -1.1158  0.8018
 6860TIP3    H242072   1.030   0.786  12.374 -0.1106  1.0340  0.1278
 6861TIP3   OH242073   4.176   0.064   5.925 -0.3713 -0.2462 -0.4138
 6861TIP3    H142074   4.101   0.097   5.875 -1.1238  1.2012  1.5420
 6861TIP3    H242075   4.146  -0.021   5.959 -0.7128 -0.1758 -0.5348
 6862TIP3   OH242076   0.257   1.458   0.919 -0.1308 -0.2446  0.2696
 6862TIP3    H142077   0.227   1.402   0.991  0.2137 -1.8726 -0.7926
 6862TIP3    H242078   0.193   1.528   0.915 -0.9234 -0.8749  1.2871
 6863TIP3   OH242079   3.610   5.447  15.478  0.2199  0.3521 -0.0534
 6863TIP3    H142080   3.541   5.456  15.412 -1.0187 -0.4829  1.0772
 6863TIP3    H242081   3.666   5.523  15.464 -0.7456  0.8884 -1.2286
 6864TIP3   OH242082   2.621   6.587   2.160 -0.5965 -0.0478  0.6550
 6864TIP3    H142083   2.596   6.649   2.229  0.2740  0.0212  0.9130
 6864TIP3    H242084   2.651   6.643   2.088  0.0987 -0.1582  0.8526
 6865TIP3   OH242085   6.355   2.119   5.766  0.3340  0.1396  0.0683
 6865TIP3    H142086   6.426   2.116   5.702  0.8740 -3.4128  0.6138
 6865TIP3    H242087   6.394   2.155   5.845  1.1044 -0.2445 -0.1297
 6866TIP3   OH242088   1.023   5.117   1.454  0.5480  0.2084  0.0352
 6866TIP3    H142089   0.986   5.196   1.415  1.5124 -0.1386 -1.6666
 6866TIP3    H242090   1.018   5.133   1.548 -0.2543  1.8397 -0.2432
 6867TIP3   OH242091   0.728   0.685  13.214 -0.1667 -0.1351 -0.0534
 6867TIP3    H142092   0.674   0.700  13.292  0.9246  1.9041  0.3961
 6867TIP3    H242093   0.817   0.678  13.248  0.2740  0.3631 -1.0811
 6868TIP3   OH242094   2.844   0.724  16.925  0.1242 -0.4776 -0.0287
 6868TIP3    H142095   2.781   0.786  16.964  0.7369  0.7522 -0.9178
 6868TIP3    H242096   2.927   0.745  16.967  0.3157 -0.7701 -0.2641
 6869TIP3   OH242097   2.343   6.813   5.163 -0.8668  0.6911  0.1665
 6869TIP3    H142098   2.410   6.865   5.207 -0.2770 -0.3871  0.5832
 6869TIP3    H242099   2.261   6.843   5.201 -0.4062  0.0376  1.7883
 6870TIP3   OH242100   0.208   1.660   6.599 -0.4738  0.5095 -0.1280
 6870TIP3    H142101   0.239   1.600   6.532 -0.5765  0.0066  0.2729
 6870TIP3    H242102   0.211   1.610   6.680 -0.8463  0.9476  0.1629
 6871TIP3   OH242103   2.754   3.296   4.951  0.2410 -0.4388  0.1757
 6871TIP3    H142104   2.678   3.326   5.001 -0.2420 -1.6513  0.1981
 6871TIP3    H242105   2.734   3.205   4.930  1.8435 -0.8725  0.4525
 6872TIP3   OH242106   5.255   0.186   5.749  0.0050  0.1948 -0.2908
 6872TIP3    H142107   5.345   0.193   5.717 -0.4546  2.2825 -1.3188
 6872TIP3    H242108   5.254   0.105   5.800  2.8950  0.9790  1.2309
 6873TIP3   OH242109   4.024   1.826  16.278  0.6114  0.0781 -0.2328
 6873TIP3    H142110   4.005   1.732  16.278  1.4119 -0.0928 -0.5501
 6873TIP3    H242111   4.009   1.854  16.368 -1.7398  0.1119 -0.5626
 6874TIP3   OH242112   3.582   4.600   1.622  0.4556  0.3141 -0.2733
 6874TIP3    H142113   3.547   4.549   1.549  1.2667  0.1788 -0.5718
 6874TIP3    H242114   3.515   4.666   1.639 -0.0006 -0.0164 -0.7522
 6875TIP3   OH242115   1.717   1.242  11.820 -0.2792 -0.1308  0.4853
 6875TIP3    H142116   1.697   1.161  11.867 -1.2523  0.5461  1.2828
 6875TIP3    H242117   1.664   1.309  11.864  0.6744  0.9875 -0.0161
 6876TIP3   OH242118   6.220   3.796   2.796 -0.1185 -0.9688 -0.3898
 6876TIP3    H142119   6.201   3.843   2.715 -0.9474 -1.2299 -0.3524
 6876TIP3    H242120   6.205   3.704   2.773 -0.6603 -1.0178  0.1394
 6877TIP3   OH242121   3.933   2.102   5.458 -0.3158 -0.2974  0.7051
 6877TIP3    H142122   4.003   2.148   5.413 -0.5249  1.2447  1.8927
 6877TIP3    H242123   3.968   2.013   5.471 -0.0462 -0.6559 -1.9099
 6878TIP3   OH242124   2.596   5.532  15.693  0.2343 -0.3060 -0.0476
 6878TIP3    H142125   2.587   5.618  15.652 -1.5972  0.1345  1.1641
 6878TIP3    H242126   2.690   5.514  15.691  0.4059  0.4466 -2.8204
 6879TIP3   OH242127   3.161   5.185  16.838  0.5368 -0.6685 -0.1209
 6879TIP3    H142128   3.217   5.111  16.814  1.4418 -0.6452  1.7670
 6879TIP3    H242129   3.155   5.181  16.933 -2.0972 -0.2173 -0.1920
 6880TIP3   OH242130   6.228   0.084  13.736 -0.2747 -0.4315 -0.0063
 6880TIP3    H142131   6.292   0.154  13.738  0.5335 -1.1642  1.4063
 6880TIP3    H242132   6.253   0.030  13.661  0.1946 -0.1952 -0.0229
 6881TIP3   OH242133   0.025   6.230   2.181 -0.3821 -0.4141  0.1760
 6881TIP3    H142134  -0.009   6.249   2.268  0.0753  0.2851  0.2095
 6881TIP3    H242135   0.118   6.212   2.194 -0.3678 -0.5866 -0.1338
 6882TIP3   OH242136   0.475   5.121   1.192 -0.1039 -0.2768  0.2950
 6882TIP3    H142137   0.481   5.165   1.107  1.3532 -0.5441  0.2352
 6882TIP3    H242138   0.401   5.163   1.235  0.0062  0.8444 -0.5545
 6883TIP3   OH242139   0.096   2.715   2.017  0.1464 -0.6840  0.6175
 6883TIP3    H142140   0.102   2.629   2.059 -1.6499 -0.9431  0.4321
 6883TIP3    H242141   0.105   2.777   2.090  1.0891 -1.0140  0.8010
 6884TIP3   OH242142   5.714   2.584   5.994  0.5633  0.8561  0.0443
 6884TIP3    H142143   5.641   2.609   6.051  0.5011 -2.1118  1.4014
 6884TIP3    H242144   5.782   2.554   6.053  2.6119  2.5949 -1.2715
 6885TIP3   OH242145   3.147   0.690  15.096  0.4948  0.0699  0.1415
 6885TIP3    H142146   3.130   0.598  15.073  0.7896 -0.1428  0.7552
 6885TIP3    H242147   3.238   0.691  15.124  0.5956  0.6231 -0.1898
 6886TIP3   OH242148   4.527   2.531  11.044 -0.1260 -0.1898 -0.4896
 6886TIP3    H142149   4.593   2.553  10.979 -1.4979  0.9351 -1.5586
 6886TIP3    H242150   4.577   2.510  11.123  1.4970  1.8381 -0.8886
 6887TIP3   OH242151   1.824   0.489   4.726 -0.1141 -0.4030  0.0919
 6887TIP3    H142152   1.856   0.432   4.656  0.4623 -0.6971  0.5808
 6887TIP3    H242153   1.759   0.436   4.773 -1.5334  0.2690 -1.0322
 6888TIP3   OH242154   6.312   2.127  10.699  0.2369  0.6120 -0.1771
 6888TIP3    H142155   6.248   2.168  10.641  0.7524  2.8473  0.7276
 6888TIP3    H242156   6.385   2.105  10.642  0.4344  2.0959 -0.5267
 6889TIP3   OH242157   2.374   6.488  12.328 -0.6043 -0.5744 -0.0602
 6889TIP3    H142158   2.286   6.519  12.309 -0.3880 -0.0501 -0.2245
 6889TIP3    H242159   2.364   6.393  12.338 -1.6517 -0.2695  2.5614
 6890TIP3   OH242160   6.290   0.024   5.985  0.7937  0.1838  0.1947
 6890TIP3    H142161   6.232   0.053   6.055 -1.6397  0.4248 -1.7921
 6890TIP3    H242162   6.305  -0.069   6.002 -4.5738 -1.4128 -1.8650
 6891TIP3   OH242163   5.200   0.528  15.223  0.7154  0.1851 -0.4443
 6891TIP3    H142164   5.174   0.503  15.312  0.7066  0.9014 -0.2413
 6891TIP3    H242165   5.172   0.619  15.215  2.3164  0.6924 -0.5474
 6892TIP3   OH242166   5.315   5.861   2.906  0.1292 -0.4187  0.2264
 6892TIP3    H142167   5.375   5.868   2.979  0.8178  0.5154 -0.4010
 6892TIP3    H242168   5.284   5.770   2.908  2.9258 -1.4869 -0.4824
 6893TIP3   OH242169   3.551   4.138   4.369 -0.6426 -0.5871 -0.5266
 6893TIP3    H142170   3.510   4.080   4.306 -2.1503  1.4784 -1.5909
 6893TIP3    H242171   3.539   4.226   4.331 -1.6400  0.7648  2.5951
 6894TIP3   OH242172   5.489   1.645   4.231 -0.1000  0.3041 -0.3723
 6894TIP3    H142173   5.540   1.658   4.151  0.3817  2.0500  0.1706
 6894TIP3    H242174   5.553   1.617   4.296 -0.3792 -0.4797 -0.4278
 6895TIP3   OH242175   5.871   1.994  10.688  0.7185 -0.1906 -0.4097
 6895TIP3    H142176   5.832   1.923  10.739  0.6907 -0.5367 -0.9045
 6895TIP3    H242177   5.960   2.003  10.723  0.4515  0.1061  0.2211
 6896TIP3   OH242178   5.222   4.238  16.302 -0.2788  0.3214  0.3441
 6896TIP3    H142179   5.219   4.280  16.388 -1.8063  1.7166 -0.3524
 6896TIP3    H242180   5.274   4.297  16.248 -0.8929  0.3824 -0.1794
 6897TIP3   OH242181   6.794   3.229  15.785  0.4272  0.1856  0.3215
 6897TIP3    H142182   6.808   3.323  15.774  1.7639 -0.1240 -0.8045
 6897TIP3    H242183   6.786   3.217  15.880  1.7576  1.2444  0.5956
 6898TIP3   OH242184   5.071   3.094   5.417  0.3723  0.1823 -0.0531
 6898TIP3    H142185   5.028   3.167   5.462  0.6485 -0.2460  0.9411
 6898TIP3    H242186   5.117   3.135   5.343 -0.4428  0.8484 -0.2044
 6899TIP3   OH242187   2.307   2.813  13.071 -0.1162  0.0737 -0.3933
 6899TIP3    H142188   2.359   2.760  13.131  0.4081  0.7436 -0.2405
 6899TIP3    H242189   2.305   2.763  12.990 -0.4646 -0.6349  0.0441
 6900TIP3   OH242190   4.162   1.098  15.745 -0.2803  0.0145  0.4663
 6900TIP3    H142191   4.119   1.135  15.668  0.9391  2.2112  0.7497
 6900TIP3    H242192   4.253   1.127  15.738  0.5119 -2.0727  1.3485
 6901TIP3   OH242193   5.249   2.395   4.323  0.7752  0.4872  0.3200
 6901TIP3    H142194   5.189   2.381   4.396 -1.0243  2.2458 -0.7002
 6901TIP3    H242195   5.212   2.343   4.251  0.1098  1.9449 -0.4512
 6902TIP3   OH242196   4.810   0.614   0.008  0.3561 -0.0368 -0.1153
 6902TIP3    H142197   4.831   0.671  -0.066 -2.5620  0.6118 -0.5784
 6902TIP3    H242198   4.863   0.648   0.080  1.5663  0.7585 -1.3317
 6903TIP3   OH242199   2.174   2.136  15.322  0.0440  0.5129  0.0862
 6903TIP3    H142200   2.100   2.081  15.295  1.4309 -1.7902  0.6331
 6903TIP3    H242201   2.167   2.138  15.418  1.1275 -0.4763  0.2084
 6904TIP3   OH242202   3.777   3.795  12.949 -0.2602 -0.6334 -0.1977
 6904TIP3    H142203   3.743   3.878  12.980 -0.8293 -1.2260  0.8334
 6904TIP3    H242204   3.868   3.813  12.924  0.4791 -0.2317  2.5056
 6905TIP3   OH242205   4.611   5.071  11.519  0.5214 -0.9653 -0.4469
 6905TIP3    H142206   4.604   4.980  11.547  3.8706 -1.2842 -0.2894
 6905TIP3    H242207   4.616   5.121  11.601  0.3414 -0.8139 -0.5275
 6906TIP3   OH242208   3.160   4.705  13.932 -0.0083 -0.0574 -0.1620
 6906TIP3    H142209   3.142   4.705  13.838 -1.9416 -2.2491  0.1115
 6906TIP3    H242210   3.230   4.641  13.943  0.3852  0.3760 -0.1131
 6907TIP3   OH242211   3.867   2.759  15.727  0.8586 -0.2289 -0.2882
 6907TIP3    H142212   3.886   2.851  15.744 -0.9493  0.3073 -0.9305
 6907TIP3    H242213   3.781   2.760  15.685 -0.2019 -2.3462  1.6066
 6908TIP3   OH242214   3.251   3.386   1.787 -0.0839 -0.1229  0.0082
 6908TIP3    H142215   3.282   3.296   1.797 -1.5856 -0.7211 -0.4361
 6908TIP3    H242216   3.253   3.402   1.692 -0.6186  0.0105  0.0166
 6909TIP3   OH242217   1.108   1.951  14.827 -0.1835  0.0268 -0.2579
 6909TIP3    H142218   1.078   2.038  14.852 -0.1643  0.0366 -0.2691
 6909TIP3    H242219   1.183   1.934  14.885 -0.9573 -0.5057  0.6307
 6910TIP3   OH242220   3.992   4.570  13.885  0.6200 -0.0028 -0.5807
 6910TIP3    H142221   3.959   4.489  13.923 -0.2470  1.5234  2.2136
 6910TIP3    H242222   4.075   4.545  13.843  1.2859 -2.0752  1.7006
 6911TIP3   OH242223   6.336   4.603   3.938  0.0349 -0.8485 -0.2931
 6911TIP3    H142224   6.347   4.569   3.850  0.5279 -0.7218 -0.2852
 6911TIP3    H242225   6.413   4.573   3.986 -0.3250 -1.0859  0.1515
 6912TIP3   OH242226   1.362   0.978  14.169  0.1781  0.4415  0.1660
 6912TIP3    H142227   1.300   0.910  14.141 -0.3610  1.2817 -0.7605
 6912TIP3    H242228   1.422   0.987  14.095  1.1007  0.0186  0.8411
 6913TIP3   OH242229   6.148   5.688  14.771 -0.3460  0.2379  0.3235
 6913TIP3    H142230   6.149   5.695  14.867 -0.5230  2.6658  0.1941
 6913TIP3    H242231   6.223   5.740  14.742 -0.5020 -0.1802 -0.8781
 6914TIP3   OH242232   4.774   2.512  16.379  0.2394  0.5807  0.3044
 6914TIP3    H142233   4.868   2.527  16.384  0.0916  1.3903  0.9016
 6914TIP3    H242234   4.745   2.508  16.470 -0.4704  1.5202  0.1426
 6915TIP3   OH242235   0.316   5.512   5.223 -0.2067  0.3866 -0.2065
 6915TIP3    H142236   0.310   5.585   5.284  0.9675  0.8539 -0.6250
 6915TIP3    H242237   0.403   5.520   5.183 -0.3527 -0.7877 -0.8289
 6916TIP3   OH242238   6.520   5.266  14.841  0.1046 -0.0156  0.1906
 6916TIP3    H142239   6.436   5.242  14.881  0.7357 -2.1651  0.3692
 6916TIP3    H242240   6.586   5.236  14.904  1.0500 -0.6272 -1.0498
 6917TIP3   OH242241   6.668   5.601  16.740 -0.0434  0.3518 -0.1179
 6917TIP3    H142242   6.596   5.556  16.784 -0.1150  0.8764  0.3028
 6917TIP3    H242243   6.723   5.530  16.707 -1.6791 -0.0935 -2.0475
 6918TIP3   OH242244   6.095   0.245   4.380  0.0695  0.7378 -0.8617
 6918TIP3    H142245   6.182   0.275   4.353  0.5612 -0.6745 -0.9130
 6918TIP3    H242246   6.067   0.309   4.445  1.7906  0.4237  0.2433
 6919TIP3   OH242247   5.687   4.352  16.579  0.3006 -0.1606 -0.6451
 6919TIP3    H142248   5.744   4.358  16.503 -0.6249  0.5015 -1.3092
 6919TIP3    H242249   5.716   4.422  16.637  2.8351 -2.3517  0.9514
 6920TIP3   OH242250   2.766   5.948  15.301  0.1440  0.5423 -0.4682
 6920TIP3    H142251   2.804   5.949  15.213  0.3986 -2.0328 -0.4528
 6920TIP3    H242252   2.838   5.971  15.358  0.8389 -0.8790 -0.7268
 6921TIP3   OH242253   3.634   1.607   1.114 -0.4366 -0.2361  0.5777
 6921TIP3    H142254   3.601   1.608   1.024 -0.6732 -0.5600  0.6610
 6921TIP3    H242255   3.658   1.516   1.129 -0.2433 -0.1506  0.7888
 6922TIP3   OH242256   4.039   5.405  12.988  0.1319 -0.0454 -0.2259
 6922TIP3    H142257   4.076   5.377  13.072 -1.9895  0.9760  1.1285
 6922TIP3    H242258   4.114   5.404  12.928  1.4393 -2.1542  1.2956
 6923TIP3   OH242259   5.262   6.484   4.125  0.0079  0.2854  0.2301
 6923TIP3    H142260   5.232   6.435   4.048 -1.7072 -0.8973  1.5761
 6923TIP3    H242261   5.236   6.574   4.106 -1.6263 -0.2017 -0.0493
 6924TIP3   OH242262   3.023   2.546   5.014 -0.1030  0.2005  0.2613
 6924TIP3    H142263   3.085   2.473   5.019  2.0191  1.8635 -0.1659
 6924TIP3    H242264   2.955   2.523   5.077  1.4699 -1.2762  1.5437
 6925TIP3   OH242265   5.751   2.460   0.695 -0.1720  0.0875 -0.0147
 6925TIP3    H142266   5.719   2.465   0.785 -1.4677  0.0504 -0.4624
 6925TIP3    H242267   5.774   2.550   0.673  1.2801 -0.0673  0.7273
 6926TIP3   OH242268   4.733   2.386   4.488  0.3694  0.1824  1.0007
 6926TIP3    H142269   4.795   2.420   4.424 -0.4723 -1.6942 -0.9178
 6926TIP3    H242270   4.786   2.368   4.566  1.7062  1.1399  0.3389
 6927TIP3   OH242271   4.744   5.521  13.490 -0.2790 -0.4644 -0.1992
 6927TIP3    H142272   4.790   5.554  13.567  0.0598 -0.7644 -0.2691
 6927TIP3    H242273   4.777   5.574  13.417  0.9249 -1.5184 -0.4514
 6928TIP3   OH242274   4.738   2.312  15.215  0.5985 -1.1727  0.3923
 6928TIP3    H142275   4.667   2.374  15.201  2.0316  0.2917 -0.8581
 6928TIP3    H242276   4.743   2.302  15.310 -0.0970  0.1209  0.5861
 6929TIP3   OH242277   0.479   2.219  16.975  0.2834 -0.2609  0.1590
 6929TIP3    H142278   0.518   2.142  16.933 -0.5277 -0.1015 -0.9315
 6929TIP3    H242279   0.418   2.254  16.910  1.8133  2.2812 -0.0610
 6930TIP3   OH242280   6.593   0.978   4.611 -0.1430  0.2992 -0.5018
 6930TIP3    H142281   6.681   1.005   4.638 -0.4418  0.8136 -0.0171
 6930TIP3    H242282   6.568   0.913   4.677  0.5214 -1.1109 -1.5885
 6931TIP3   OH242283   6.720   5.337   1.377  0.7636 -0.1385  0.3837
 6931TIP3    H142284   6.760   5.277   1.314 -1.2522 -1.3365  0.1791
 6931TIP3    H242285   6.725   5.291   1.461  1.0665  0.3231  0.6247
 6932TIP3   OH242286   6.341   5.764  16.555  0.3754  0.3371  0.2145
 6932TIP3    H142287   6.415   5.822  16.539  1.2195 -0.6144  0.5632
 6932TIP3    H242288   6.363   5.718  16.636 -0.1211 -0.7018 -0.2215
 6933TIP3   OH242289   0.311   3.277  10.876  0.1415 -0.1855  0.1510
 6933TIP3    H142290   0.360   3.260  10.795 -0.0091 -0.9290  0.2096
 6933TIP3    H242291   0.257   3.199  10.888 -1.4500  0.8089 -0.1926
 6934TIP3   OH242292   6.054   4.512   1.212 -0.0728  0.5228 -0.2665
 6934TIP3    H142293   6.092   4.594   1.182  0.2207  0.9490  1.2138
 6934TIP3    H242294   6.093   4.446   1.154  1.0283  1.2187 -0.3621
 6935TIP3   OH242295   2.579   1.068   0.010  0.5317 -0.1352  0.7326
 6935TIP3    H142296   2.672   1.058  -0.013  0.3171 -1.4943  0.3440
 6935TIP3    H242297   2.549   1.142  -0.041  0.5030 -1.9610 -2.1439
 6936TIP3   OH242298   1.261   4.653   1.972 -0.0457 -0.5113  0.4913
 6936TIP3    H142299   1.307   4.719   1.920  1.1248 -0.9190  0.9777
 6936TIP3    H242300   1.258   4.691   2.060 -1.6519 -0.0027  0.2480
 6937TIP3   OH242301   1.456   1.129   5.801  0.2703  0.1597  0.0317
 6937TIP3    H142302   1.421   1.142   5.714 -0.9223  0.7910  0.5894
 6937TIP3    H242303   1.462   1.034   5.810 -0.1204  0.0786 -0.5265
 6938TIP3   OH242304   4.772   4.820  14.480  0.0187 -0.2986 -0.6933
 6938TIP3    H142305   4.704   4.752  14.479  0.7673 -1.2016  2.1894
 6938TIP3    H242306   4.846   4.780  14.435  0.5897 -1.6340  1.3247
 6939TIP3   OH242307   0.575   4.075  12.260  0.2388  0.3128  0.6955
 6939TIP3    H142308   0.510   4.125  12.212  0.0025 -1.0767 -0.4924
 6939TIP3    H242309   0.611   4.137  12.324 -0.7329  1.6854 -0.0512
 6940TIP3   OH242310   5.941   3.354  12.487 -0.1222 -0.4633  0.0340
 6940TIP3    H142311   5.863   3.347  12.544 -0.6223  0.7194 -0.4787
 6940TIP3    H242312   5.917   3.306  12.408 -0.3800 -0.0103 -0.1663
 6941TIP3   OH242313   3.216   6.495   2.919  0.5295 -0.2337 -0.2309
 6941TIP3    H142314   3.226   6.589   2.937 -0.3527 -0.5634  2.4539
 6941TIP3    H242315   3.161   6.492   2.841  0.1448  1.5061 -0.0778
 6942TIP3   OH242316   3.577   3.609   3.612 -0.6244 -0.0815  0.2912
 6942TIP3    H142317   3.624   3.605   3.529 -0.3049 -0.1796  0.4776
 6942TIP3    H242318   3.502   3.551   3.600 -0.0210 -0.8957  0.4279
 6943TIP3   OH242319   1.894   3.033   1.200  0.0320  0.0468  0.6767
 6943TIP3    H142320   1.924   2.957   1.250  3.8639  0.0549 -1.2321
 6943TIP3    H242321   1.899   3.105   1.263 -0.0502 -0.6866  1.5483
 6944TIP3   OH242322   0.494   6.695   4.268  0.0001 -0.2993 -0.6452
 6944TIP3    H142323   0.582   6.725   4.245  0.3399 -0.7722  0.0064
 6944TIP3    H242324   0.459   6.660   4.186  0.7332 -0.8654 -0.7247
 6945TIP3   OH242325   3.926   5.973  12.758 -0.6470 -0.4366 -0.2049
 6945TIP3    H142326   3.924   6.016  12.672 -0.3820  0.7599  0.3633
 6945TIP3    H242327   3.863   6.023  12.811  0.3093 -0.1851  0.7292
 6946TIP3   OH242328   1.370   0.441   5.006 -0.3250 -0.3595  0.3178
 6946TIP3    H142329   1.303   0.505   5.030  0.6853  0.8135  0.1054
 6946TIP3    H242330   1.423   0.431   5.085 -0.1060 -0.4530  0.1617
 6947TIP3   OH242331   6.792   4.633   2.230  0.1495 -0.1992  0.1761
 6947TIP3    H142332   6.770   4.579   2.306 -0.6541  0.4413  0.4030
 6947TIP3    H242333   6.846   4.704   2.266  1.0111 -0.7000 -0.0888
 6948TIP3   OH242334   6.123   2.367   4.376  0.1027  0.0588  0.2458
 6948TIP3    H142335   6.097   2.384   4.285  0.7610  0.6458  0.1551
 6948TIP3    H242336   6.110   2.451   4.420 -0.7783 -0.3788  0.8437
 6949TIP3   OH242337   1.281   3.216  13.184 -0.3921 -0.2842  0.2952
 6949TIP3    H142338   1.330   3.283  13.135 -0.2057 -0.5839  0.0717
 6949TIP3    H242339   1.312   3.133  13.149 -0.1666 -0.5062  1.0144
 6950TIP3   OH242340   3.954   4.299   6.555  0.5176  0.0321 -0.3276
 6950TIP3    H142341   4.027   4.252   6.515 -0.0630  1.1342 -2.8560
 6950TIP3    H242342   3.876   4.255   6.521 -0.0071  1.1467 -0.6016
 6951TIP3   OH242343   3.917   0.242  16.752  0.3048  0.2544 -0.0696
 6951TIP3    H142344   3.865   0.170  16.785  0.5279  0.1040 -0.0425
 6951TIP3    H242345   3.880   0.320  16.793 -1.0484  0.3697 -1.3963
 6952TIP3   OH242346   5.720   5.407   3.422  0.3023  0.3626 -0.6802
 6952TIP3    H142347   5.692   5.321   3.452  1.9833  1.0472  3.5389
 6952TIP3    H242348   5.639   5.451   3.397 -1.3487 -0.6789  2.3374
 6953TIP3   OH242349   0.503   1.150  15.100  0.4773 -0.0347 -0.0649
 6953TIP3    H142350   0.416   1.112  15.113  0.1802  0.7776  0.4259
 6953TIP3    H242351   0.527   1.185  15.186  0.3951  1.5365 -0.6480
 6954TIP3   OH242352   1.996   4.765  11.712  0.0998  0.5023 -0.0108
 6954TIP3    H142353   2.027   4.685  11.755 -1.2154 -0.1896 -0.3272
 6954TIP3    H242354   1.949   4.813  11.780 -1.0899 -0.1025 -0.3816
 6955TIP3   OH242355   2.892   5.861   4.202 -0.3768 -0.2847 -0.2550
 6955TIP3    H142356   2.872   5.907   4.284 -2.4688 -0.7604 -0.4480
 6955TIP3    H242357   2.809   5.860   4.154  0.8512  0.2581 -2.5636
 6956TIP3   OH242358   4.047   3.736   3.896  0.1370  0.2339 -0.8190
 6956TIP3    H142359   4.141   3.750   3.892  0.5059 -0.9953  1.6337
 6956TIP3    H242360   4.037   3.645   3.925 -1.7964  0.4333 -0.7119
 6957TIP3   OH242361   5.009   1.392   0.606  0.8482 -0.1128  0.5476
 6957TIP3    H142362   4.992   1.298   0.601  0.3335  0.0344 -0.9364
 6957TIP3    H242363   4.922   1.432   0.607  1.0652  0.3614  1.0075
 6958TIP3   OH242364   1.271   2.976   2.470  0.1274  0.6827 -0.2152
 6958TIP3    H142365   1.293   2.900   2.417  0.4906  0.7293 -0.1378
 6958TIP3    H242366   1.274   2.944   2.560  0.0716  0.7366 -0.1939
 6959TIP3   OH242367   5.082   6.272   5.801  0.4027 -0.7665 -0.6968
 6959TIP3    H142368   5.039   6.232   5.877 -0.6511 -1.4341 -1.6221
 6959TIP3    H242369   5.160   6.313   5.838 -0.9185  0.3616  1.0321
 6960TIP3   OH242370   2.088   3.350   3.953  0.3108  0.2650  0.3905
 6960TIP3    H142371   2.007   3.374   3.909 -0.3020  2.1813  2.3935
 6960TIP3    H242372   2.063   3.284   4.017  0.9110 -1.2481 -0.8366
 6961TIP3   OH242373   2.825   6.171   2.145  0.3505 -0.2660  0.2893
 6961TIP3    H142374   2.837   6.263   2.120 -0.8467  0.2620  1.5117
 6961TIP3    H242375   2.866   6.165   2.232 -0.6927 -0.5526  0.7713
 6962TIP3   OH242376   6.584   2.002  16.809 -0.0268 -0.5116 -0.1362
 6962TIP3    H142377   6.661   2.039  16.852 -1.2575  1.2111  0.7142
 6962TIP3    H242378   6.539   1.953  16.877  0.2540 -1.4649 -0.6163
 6963TIP3   OH242379   6.050   0.686   5.988  0.1347  0.5235 -0.2170
 6963TIP3    H142380   6.083   0.732   6.064  1.4584 -0.7676  0.0294
 6963TIP3    H242381   6.078   0.739   5.913  1.4554  0.2679  0.0689
 6964TIP3   OH242382   0.530   5.261  14.414 -0.0863 -0.7195  0.3771
 6964TIP3    H142383   0.563   5.177  14.445  0.9600 -0.3811  0.1934
 6964TIP3    H242384   0.434   5.252  14.419 -0.0905 -2.7291 -1.7955
 6965TIP3   OH242385   1.104   0.209  15.191 -0.4353  0.4243  0.0882
 6965TIP3    H142386   1.066   0.148  15.128  1.1340 -1.2242  0.6680
 6965TIP3    H242387   1.186   0.168  15.219  0.4288  2.5524  0.9205
 6966TIP3   OH242388   0.415   5.266  13.411 -0.0822 -0.3027 -1.0513
 6966TIP3    H142389   0.409   5.208  13.335 -1.2116 -0.7987 -0.6179
 6966TIP3    H242390   0.374   5.347  13.382  3.3373  1.1382 -2.3419
 6967TIP3   OH242391   0.129   2.490  14.071  0.4712  0.2190 -0.5605
 6967TIP3    H142392   0.206   2.459  14.119  1.4262  1.5727 -1.1351
 6967TIP3    H242393   0.143   2.461  13.981 -0.9439 -1.6620 -0.2213
 6968TIP3   OH242394   5.462   1.694  11.350 -0.5263 -0.2225  0.2878
 6968TIP3    H142395   5.552   1.659  11.349 -0.9733 -1.4057 -0.4036
 6968TIP3    H242396   5.439   1.696  11.443 -0.0130 -0.5157  0.4311
 6969TIP3   OH242397   2.880   0.025  15.848 -0.3418 -0.3197  0.0310
 6969TIP3    H142398   2.796   0.006  15.806 -1.7340  1.1694  1.9385
 6969TIP3    H242399   2.914   0.101  15.800 -0.6010 -0.2711 -0.0739
 6970TIP3   OH242400   1.763   1.721   2.262 -0.2035  0.2281  0.3798
 6970TIP3    H142401   1.770   1.656   2.332  2.9200 -1.1791 -1.0481
 6970TIP3    H242402   1.819   1.794   2.291 -0.3532  0.4439  0.1373
 6971TIP3   OH242403   1.519   0.960  11.057 -0.6673  0.0803 -0.1175
 6971TIP3    H142404   1.609   0.951  11.088 -0.0181 -0.0071 -1.9482
 6971TIP3    H242405   1.484   0.871  11.061 -0.4575 -0.0007 -0.0378
 6972TIP3   OH242406   6.141   5.741  12.082  0.1349 -0.6585 -0.3298
 6972TIP3    H142407   6.091   5.755  12.002 -0.3709 -0.1034  0.0741
 6972TIP3    H242408   6.230   5.768  12.060  0.0572 -0.7547 -0.7785
 6973TIP3   OH242409   1.186   1.516  13.915 -0.3281  0.4287  0.5587
 6973TIP3    H142410   1.247   1.558  13.975  0.5523 -0.1456  0.0909
 6973TIP3    H242411   1.101   1.554  13.936  0.3368  1.9527  0.5754
 6974TIP3   OH242412   5.802   0.731   0.875  0.1351 -0.2999  0.1761
 6974TIP3    H142413   5.893   0.708   0.895  0.2516 -0.3513 -0.4023
 6974TIP3    H242414   5.752   0.653   0.898  0.1388 -0.0108  1.2030
 6975TIP3   OH242415   0.303   6.530  12.767  1.0382  0.5475  0.2232
 6975TIP3    H142416   0.245   6.525  12.691 -0.7074  0.9056  1.4760
 6975TIP3    H242417   0.265   6.597  12.823  2.0429  0.0137  1.6202
 6976TIP3   OH242418   1.719   1.853   2.799  0.2701 -0.1466  0.2597
 6976TIP3    H142419   1.629   1.821   2.807 -0.0398  0.8256  0.8201
 6976TIP3    H242420   1.773   1.779   2.825 -0.4475 -0.0456  2.1968
 6977TIP3   OH242421   5.533   5.467   1.493  0.2613  0.0352  0.0141
 6977TIP3    H142422   5.477   5.525   1.544  0.9631 -0.6393  1.5908
 6977TIP3    H242423   5.505   5.379   1.518  1.7565 -0.3042  0.5403
 6978TIP3   OH242424   6.219   3.429   0.295  0.2593  0.0512 -0.5268
 6978TIP3    H142425   6.166   3.487   0.240  3.1138  2.7765 -0.6845
 6978TIP3    H242426   6.237   3.353   0.240 -0.9987  0.4366 -1.5220
 6979TIP3   OH242427   3.127   4.479   5.566  0.4729  0.0795  0.3527
 6979TIP3    H142428   3.133   4.547   5.498  2.7307 -0.7047 -0.3359
 6979TIP3    H242429   3.053   4.425   5.540 -1.7775  2.4992  1.2265
 6980TIP3   OH242430   2.096   3.466   6.746  0.0178  0.3856  0.1570
 6980TIP3    H142431   2.018   3.516   6.722 -1.3228 -0.6765  2.1028
 6980TIP3    H242432   2.169   3.525   6.725 -1.2627  1.4304 -1.6453
 6981TIP3   OH242433   3.271   1.514   6.405  0.5455  0.0425 -0.1560
 6981TIP3    H142434   3.201   1.449   6.397  1.7526 -1.3419  0.0686
 6981TIP3    H242435   3.346   1.464   6.438  1.0040  1.9357  1.8119
 6982TIP3   OH242436   3.400   1.183  12.025  0.7861 -0.4646 -0.2919
 6982TIP3    H142437   3.416   1.160  12.116 -1.0727 -1.9037 -0.2632
 6982TIP3    H242438   3.362   1.271  12.029 -3.9460 -2.2447  0.9702
 6983TIP3   OH242439   1.561   4.855   6.298  0.4675 -0.4002  0.4411
 6983TIP3    H142440   1.644   4.902   6.296  0.5662 -0.5030  1.6182
 6983TIP3    H242441   1.495   4.924   6.302  0.4941 -0.3226 -0.3147
 6984TIP3   OH242442   2.813   6.540   2.593  0.2411  0.2820  0.2558
 6984TIP3    H142443   2.819   6.577   2.505  2.5112 -2.2733 -0.8421
 6984TIP3    H242444   2.726   6.565   2.624 -0.2344  2.1824 -2.2542
 6985TIP3   OH242445   5.038   2.593  16.435 -0.3994  0.4340  0.8489
 6985TIP3    H142446   5.123   2.559  16.463 -0.9073 -0.3572  1.4591
 6985TIP3    H242447   5.033   2.680  16.476 -1.3084 -0.8484  3.7707
 6986TIP3   OH242448   5.017   5.990   6.251  0.4151  0.3383 -0.3754
 6986TIP3    H142449   5.024   5.920   6.316  2.3817 -0.0354 -0.9125
 6986TIP3    H242450   4.923   6.002   6.238  0.0214 -1.8221  0.1442
 6987TIP3   OH242451   3.827   1.078   4.326 -0.1749  0.1664 -0.2299
 6987TIP3    H142452   3.880   1.035   4.259  0.3357 -1.0360  0.8851
 6987TIP3    H242453   3.886   1.142   4.366  0.1120 -0.3792  0.2485
 6988TIP3   OH242454   3.485   0.616  16.837 -0.0481 -0.6660  0.0204
 6988TIP3    H142455   3.473   0.641  16.929 -2.0501  0.8197 -0.5670
 6988TIP3    H242456   3.504   0.698  16.792  0.5516 -1.3258 -0.9769
 6989TIP3   OH242457   5.812   6.267   3.974 -0.1498  0.1074 -0.1744
 6989TIP3    H142458   5.739   6.329   3.973 -1.6130 -1.5667 -0.9209
 6989TIP3    H242459   5.842   6.267   4.065 -1.2442  0.6379  0.2066
 6990TIP3   OH242460   2.270   6.228  16.786  0.0352  0.1539 -0.5666
 6990TIP3    H142461   2.184   6.238  16.746 -1.1096 -1.6082  1.2996
 6990TIP3    H242462   2.255   6.177  16.865  2.9398 -1.1623 -0.7105
 6991TIP3   OH242463   6.132   0.321   2.634 -0.0676  0.3975 -0.0470
 6991TIP3    H142464   6.170   0.348   2.718  0.0572 -0.4029  0.1624
 6991TIP3    H242465   6.207   0.313   2.575  0.1833 -1.5779  0.4741
 6992TIP3   OH242466   1.344   4.210  16.280  0.2071  0.2791 -0.1876
 6992TIP3    H142467   1.276   4.144  16.266 -0.4166  1.2963 -2.3698
 6992TIP3    H242468   1.361   4.246  16.193  2.8213  0.7939  0.4441
 6993TIP3   OH242469   5.288   4.454   3.430 -0.6237  0.2035 -0.6596
 6993TIP3    H142470   5.280   4.363   3.402 -1.1043  0.3306 -0.9409
 6993TIP3    H242471   5.371   4.457   3.477 -1.2425 -0.6778  0.5475
 6994TIP3   OH242472   5.800   1.104  16.521 -0.3482 -0.0863 -0.0139
 6994TIP3    H142473   5.894   1.102  16.542 -0.6372  0.0419  1.3474
 6994TIP3    H242474   5.789   1.183  16.469  0.2437  0.1013  0.1361
 6995TIP3   OH242475   3.874   3.798   5.782  0.1190 -0.0580 -0.5323
 6995TIP3    H142476   3.843   3.719   5.738 -0.5235  0.5380 -1.1779
 6995TIP3    H242477   3.900   3.769   5.869 -0.2553 -0.9506 -0.7126
 6996TIP3   OH242478   6.167   5.956   3.746 -0.3476  0.2406 -0.5383
 6996TIP3    H142479   6.089   5.906   3.722 -0.3245 -0.5878  0.9879
 6996TIP3    H242480   6.135   6.022   3.809  0.3945 -1.3286  1.6086
 6997TIP3   OH242481   5.000   3.166  15.029  0.0966  0.7531 -0.1174
 6997TIP3    H142482   4.956   3.234  14.979 -1.4086  0.1573  0.3582
 6997TIP3    H242483   4.939   3.092  15.031  0.0103  0.7774  2.6244
 6998TIP3   OH242484   5.037   3.642  15.516  0.2400  0.4317  0.6669
 6998TIP3    H142485   5.092   3.595  15.579 -0.4964  2.6649  3.2079
 6998TIP3    H242486   4.973   3.577  15.487  0.4956 -0.6789  2.4204
 6999TIP3   OH242487   5.324   2.757   2.739  0.0362  0.3483 -0.0396
 6999TIP3    H142488   5.412   2.724   2.754  0.6733  1.8966 -0.1239
 6999TIP3    H242489   5.302   2.806   2.818 -1.4228 -1.3294  0.6528
 7000TIP3   OH242490   6.119   2.906  13.901  0.5131 -0.0238  0.3099
 7000TIP3    H142491   6.197   2.939  13.856 -0.1107  1.4428  0.2756
 7000TIP3    H242492   6.061   2.878  13.830  0.5442 -0.0607  0.2986
 7001TIP3   OH242493   6.500   4.438   6.028  1.1830  0.1022  0.0263
 7001TIP3    H142494   6.537   4.526   6.025  3.1233 -0.5815  1.6002
 7001TIP3    H242495   6.507   4.405   5.938 -1.7388  2.2940 -1.1477
 7002TIP3   OH242496   3.951   4.239   3.104  0.6346  0.3489  0.0418
 7002TIP3    H142497   3.975   4.148   3.117  0.6699  0.5609  1.6569
 7002TIP3    H242498   3.866   4.235   3.060  0.3352 -0.4738  0.6742
 7003TIP3   OH242499   4.790   1.548  11.426 -0.4114 -0.0832  0.1559
 7003TIP3    H142500   4.802   1.454  11.419 -1.0437 -0.2218  0.7788
 7003TIP3    H242501   4.877   1.585  11.414  0.0034 -0.8110  0.8916
 7004TIP3   OH242502   6.461   0.466  14.757 -0.1432  0.0140 -0.3054
 7004TIP3    H142503   6.388   0.407  14.776  0.1612 -0.4701 -0.6117
 7004TIP3    H242504   6.532   0.408  14.729  0.5942  0.4125  0.6561
 7005TIP3   OH242505   0.550   3.653   4.861  0.2717 -0.8863 -0.1937
 7005TIP3    H142506   0.569   3.606   4.780 -0.3433 -3.7769  1.2002
 7005TIP3    H242507   0.634   3.690   4.888  0.8225 -1.3166 -1.2651
 7006TIP3   OH242508   4.477   6.678  13.939  0.3843 -0.4612 -0.1933
 7006TIP3    H142509   4.401   6.708  13.890 -0.0195  0.0214  0.7074
 7006TIP3    H242510   4.542   6.748  13.927 -0.2763  0.4429  1.2473
 7007TIP3   OH242511   3.232   6.366   3.513 -0.0206 -0.0180 -0.0387
 7007TIP3    H142512   3.217   6.272   3.521  1.2155 -0.3044 -0.8279
 7007TIP3    H242513   3.320   6.380   3.548  0.1709  0.7040 -0.7584
 7008TIP3   OH242514   1.368   0.871  14.451  0.1990 -0.2181  0.2986
 7008TIP3    H142515   1.311   0.948  14.453  0.3321 -0.1339  1.6933
 7008TIP3    H242516   1.314   0.803  14.410  0.1336  0.6300 -1.0948
 7009TIP3   OH242517   5.984   6.086  14.431  0.1362 -0.3261  0.2449
 7009TIP3    H142518   6.048   6.035  14.481  1.1321  2.7032  2.3398
 7009TIP3    H242519   5.900   6.047  14.452  0.7284 -0.3511  2.8848
 7010TIP3   OH242520   2.216   0.498   5.113 -0.0311 -0.3016 -0.0904
 7010TIP3    H142521   2.172   0.496   5.198 -0.8288  1.7900 -0.3940
 7010TIP3    H242522   2.152   0.459   5.053  0.4655 -1.6238  0.2149
 7011TIP3   OH242523   5.968   1.128  10.646  0.0519 -0.3203  0.2943
 7011TIP3    H142524   6.039   1.180  10.608  0.2461 -0.1004  0.9510
 7011TIP3    H242525   5.998   1.106  10.734 -1.7438  1.9985  1.6253
 7012TIP3   OH242526   3.849   0.520   5.416 -0.6571 -0.1096  0.3487
 7012TIP3    H142527   3.777   0.579   5.436 -0.7887 -0.0161 -0.3793
 7012TIP3    H242528   3.858   0.466   5.495 -1.2078  0.1917  0.6260
 7013TIP3   OH242529   2.036   4.414  15.514  0.0474 -0.1922  0.5498
 7013TIP3    H142530   2.088   4.333  15.512 -0.4486 -0.5997  2.4222
 7013TIP3    H242531   2.075   4.466  15.583  0.6006  1.3954 -0.8969
 7014TIP3   OH242532   4.796   6.725   2.637  0.3758  0.1616 -0.1038
 7014TIP3    H142533   4.826   6.794   2.578  0.6970  1.1732  1.1782
 7014TIP3    H242534   4.725   6.682   2.590  1.1329  0.4133 -1.5190
 7015TIP3   OH242535   2.330   6.157  16.521 -0.4488  0.1917 -0.1440
 7015TIP3    H142536   2.325   6.177  16.615 -0.9872 -0.1480 -0.0995
 7015TIP3    H242537   2.328   6.061  16.517 -0.4239  0.2048 -0.5058
 7016TIP3   OH242538   6.181   1.130  16.113  0.2830 -0.5177  0.2379
 7016TIP3    H142539   6.150   1.043  16.140  0.5115 -0.4671  0.6762
 7016TIP3    H242540   6.235   1.160  16.186 -0.4501  0.3393  0.4520
 7017TIP3   OH242541   1.758   2.733   0.204 -0.3099  0.3556  0.1052
 7017TIP3    H142542   1.829   2.730   0.268  0.8468  0.7563 -1.1070
 7017TIP3    H242543   1.716   2.818   0.219 -0.3256  0.2537  0.6325
 7018TIP3   OH242544   5.527   6.737   2.062 -0.5210  0.1106  0.1408
 7018TIP3    H142545   5.475   6.816   2.079 -1.0248 -0.6400  2.5810
 7018TIP3    H242546   5.498   6.707   1.976 -2.7859  0.7787  0.6038
 7019TIP3   OH242547   6.796   3.735  13.038 -0.4584 -0.0949 -0.5749
 7019TIP3    H142548   6.862   3.725  12.970 -1.6263  0.6269 -1.8922
 7019TIP3    H242549   6.718   3.692  13.002 -0.9521 -0.1589  0.5393
 7020TIP3   OH242550   5.734   5.432   4.972 -0.1864 -0.6733  0.1448
 7020TIP3    H142551   5.706   5.464   5.057  0.6953 -0.0735  0.2199
 7020TIP3    H242552   5.728   5.508   4.914  0.6759 -0.6886  0.0249
 7021TIP3   OH242553   3.295   6.138   6.200 -0.0340 -0.2418 -0.3834
 7021TIP3    H142554   3.291   6.095   6.285  0.3110  2.0161  0.8345
 7021TIP3    H242555   3.389   6.153   6.185 -0.0622 -0.8961 -1.3392
 7022TIP3   OH242556   4.533   5.654  13.804 -0.0347  0.2300  0.5612
 7022TIP3    H142557   4.465   5.591  13.780 -0.2440 -0.1757  2.0679
 7022TIP3    H242558   4.497   5.700  13.880  0.2829  1.9209 -0.2894
 7023TIP3   OH242559   3.829   6.074  14.397  0.3672 -0.0812 -0.1989
 7023TIP3    H142560   3.784   5.997  14.432  0.7604  0.0953  0.7520
 7023TIP3    H242561   3.810   6.073  14.304 -2.0350  0.2728  0.2342
 7024TIP3   OH242562   2.442   4.185  12.563 -0.4517 -0.4015  0.2271
 7024TIP3    H142563   2.402   4.258  12.610  0.3835 -1.3664  2.5819
 7024TIP3    H242564   2.383   4.170  12.489 -1.1082  2.0705  0.1502
 7025TIP3   OH242565   3.414   6.289  17.004  0.1119  0.0591 -0.0816
 7025TIP3    H142566   3.326   6.252  16.998 -0.4749  1.3228  0.4980
 7025TIP3    H242567   3.431   6.323  16.916  0.8729 -1.9658 -0.7797
 7026TIP3   OH242568   2.093   4.483  13.934 -0.2817  0.1906  0.1446
 7026TIP3    H142569   2.040   4.505  14.011  1.5560 -0.0191  1.5490
 7026TIP3    H242570   2.102   4.388  13.937 -1.2752  0.0253 -1.1304
 7027TIP3   OH242571   6.355   4.047   5.378  0.1520  0.0950 -0.0333
 7027TIP3    H142572   6.324   4.042   5.468 -1.5368 -4.4674 -0.5703
 7027TIP3    H242573   6.396   3.962   5.362  1.0432  1.0000 -3.3604
 7028TIP3   OH242574   1.214   1.304   4.082  0.2686 -0.4117  0.5252
 7028TIP3    H142575   1.176   1.219   4.057  0.8470 -0.7342  0.7253
 7028TIP3    H242576   1.294   1.310   4.030  1.0421 -0.6984  1.6435
 7029TIP3   OH242577   1.168   4.941   3.396 -0.4392  0.1180 -0.6176
 7029TIP3    H142578   1.183   4.958   3.489 -0.8099  0.7583 -0.6692
 7029TIP3    H242579   1.101   4.872   3.395  0.6429 -0.9541 -0.4072
 7030TIP3   OH242580   0.791   0.153   0.302 -0.3490 -0.0080 -0.0323
 7030TIP3    H142581   0.807   0.106   0.384  0.0967  1.5316  0.7941
 7030TIP3    H242582   0.704   0.192   0.313  0.5544  1.9534  0.6364
 7031TIP3   OH242583   1.807   0.978   5.278  0.2939  0.3928 -0.3030
 7031TIP3    H142584   1.757   1.046   5.232 -0.2200  0.4812  0.3701
 7031TIP3    H242585   1.741   0.923   5.319  0.7262  1.1324  1.4921
 7032TIP3   OH242586   5.757   2.842   5.358 -0.0841  0.0072  0.1873
 7032TIP3    H142587   5.788   2.764   5.405 -1.5130 -0.4122  0.4560
 7032TIP3    H242588   5.740   2.906   5.427 -0.9526 -0.1759  0.1554
 7033TIP3   OH242589   2.816   5.838  16.740 -0.2931  0.2919 -0.0736
 7033TIP3    H142590   2.784   5.854  16.829 -1.7409 -0.4724 -0.4188
 7033TIP3    H242591   2.909   5.819  16.750 -0.4911 -0.0242  1.3119
 7034TIP3   OH242592   4.189   6.418  12.590  0.4502  0.1390 -0.3496
 7034TIP3    H142593   4.268   6.372  12.617  0.5239  0.1272 -0.5856
 7034TIP3    H242594   4.196   6.504  12.632  0.5199  0.0870 -0.2558
 7035TIP3   OH242595   1.293   5.125   1.256 -0.5483  0.1320  0.0740
 7035TIP3    H142596   1.228   5.196   1.255 -0.3975  0.2659 -1.2311
 7035TIP3    H242597   1.240   5.045   1.258 -0.8595  0.1839 -2.6204
 7036TIP3   OH242598   6.387   3.069   4.041  0.1116  0.1507  0.5650
 7036TIP3    H142599   6.318   3.048   4.103  0.5318  0.2203  1.0579
 7036TIP3    H242600   6.467   3.031   4.078  0.0741 -1.4325 -0.8388
 7037TIP3   OH242601   4.418   3.532  14.099  0.2040 -0.3144  0.3895
 7037TIP3    H142602   4.462   3.612  14.069 -0.2114  0.0999  0.8703
 7037TIP3    H242603   4.389   3.489  14.018  0.6154 -0.0913  0.1173
 7038TIP3   OH242604   6.843   0.794   1.274  0.6247 -0.9402  0.1289
 7038TIP3    H142605   6.796   0.729   1.220  0.3230 -0.5160 -0.1250
 7038TIP3    H242606   6.803   0.878   1.251  0.9131 -0.6781  0.5663
 7039TIP3   OH242607   4.573   0.872  16.215 -0.4486  0.0382  0.4882
 7039TIP3    H142608   4.517   0.834  16.148  0.1964  0.3313 -0.2375
 7039TIP3    H242609   4.634   0.801  16.238  0.0325  0.2638 -0.0489
 7040TIP3   OH242610   1.511   5.846   4.188  0.1970  0.1089 -0.5280
 7040TIP3    H142611   1.583   5.883   4.239  0.8441 -1.8275  0.0240
 7040TIP3    H242612   1.550   5.825   4.103 -0.0368  0.1616 -0.6510
 7041TIP3   OH242613   3.664   5.022   4.062 -0.4747  0.0389 -0.0398
 7041TIP3    H142614   3.709   5.106   4.071 -0.6266 -0.0678  2.2898
 7041TIP3    H242615   3.624   5.026   3.975  0.2531  2.0079 -0.3450
 7042TIP3   OH242616   1.481   2.058  11.212  0.1243  0.2442 -0.4031
 7042TIP3    H142617   1.500   1.982  11.267  1.7307  1.1380  0.3530
 7042TIP3    H242618   1.547   2.123  11.238 -0.1420  1.2928 -2.2137
 7043TIP3   OH242619   4.061   4.044  12.468  0.0731  0.8508  0.3492
 7043TIP3    H142620   4.105   4.094  12.537  0.1683  0.7398  0.3703
 7043TIP3    H242621   4.099   4.076  12.386 -0.9991  1.9517  0.2452
 7044TIP3   OH242622   2.344   5.692  14.954  0.7512 -0.4281  0.5061
 7044TIP3    H142623   2.323   5.607  14.917  0.0107  1.1678 -3.1448
 7044TIP3    H242624   2.339   5.753  14.881  3.1704  2.5310  2.5198
 7045TIP3   OH242625   5.392   6.556   1.323 -0.1951 -0.0978  0.5073
 7045TIP3    H142626   5.461   6.583   1.263 -2.4182 -0.1877 -2.2887
 7045TIP3    H242627   5.428   6.478   1.367  1.9849  0.7194  0.3038
 7046TIP3   OH242628   4.972   5.063   3.834 -0.1971 -0.2756  0.3499
 7046TIP3    H142629   5.024   5.073   3.914 -1.1760 -1.7197  1.2126
 7046TIP3    H242630   4.887   5.029   3.864 -0.7971 -0.2852 -1.2430
 7047TIP3   OH242631   1.104   5.849   5.800 -0.4931  0.2527  0.3194
 7047TIP3    H142632   1.110   5.881   5.890  2.6533  1.1380 -0.0493
 7047TIP3    H242633   1.058   5.918   5.753  2.3564  2.3892  0.3914
 7048TIP3   OH242634   2.769   2.918   1.017 -0.6832 -0.2186  0.1149
 7048TIP3    H142635   2.751   2.947   0.927 -1.7413  0.3566  0.4958
 7048TIP3    H242636   2.788   2.825   1.009 -1.8921 -0.4248 -0.5815
 7049TIP3   OH242637   4.552   0.398   3.788  0.5629  0.1959  0.0076
 7049TIP3    H142638   4.461   0.428   3.780  0.6855  0.3704 -0.8775
 7049TIP3    H242639   4.602   0.479   3.801  0.3444 -0.0666  3.5816
 7050TIP3   OH242640   4.714   0.805  15.261 -0.1168 -0.0337 -0.1071
 7050TIP3    H142641   4.709   0.713  15.236  0.6214 -0.9186  2.7393
 7050TIP3    H242642   4.635   0.820  15.314  0.3587  0.6415  0.4226
 7051TIP3   OH242643   1.558   4.247  14.122 -0.2473  0.0980 -0.1348
 7051TIP3    H142644   1.604   4.292  14.192  0.0614  0.2476 -0.4338
 7051TIP3    H242645   1.485   4.305  14.099  0.3875  0.6467 -0.8016
 7052TIP3   OH242646   4.311   0.485  12.850  0.3966  0.0370  0.3368
 7052TIP3    H142647   4.231   0.528  12.819  0.1389 -0.9559 -0.4365
 7052TIP3    H242648   4.283   0.397  12.875  0.8899  0.3079  1.9975
 7053TIP3   OH242649   1.213   2.869  12.637  0.0369  0.1887  0.9928
 7053TIP3    H142650   1.289   2.813  12.619  0.3558  0.8606  0.2017
 7053TIP3    H242651   1.194   2.912  12.554  0.3967  1.9898  1.8019
 7054TIP3   OH242652   5.024   4.649   1.562 -0.2959 -0.0529 -0.1161
 7054TIP3    H142653   5.081   4.578   1.536  0.6503  0.6103  0.0896
 7054TIP3    H242654   4.985   4.680   1.480 -1.0696 -1.0909 -0.1493
 7055TIP3   OH242655   2.287   2.374   4.263  0.1172 -0.0360 -0.0993
 7055TIP3    H142656   2.369   2.398   4.220 -1.5872  1.6552 -2.6604
 7055TIP3    H242657   2.245   2.457   4.283 -1.8532 -0.8675 -0.6263
 7056TIP3   OH242658   2.107   6.566  11.281  0.0819 -0.5612  0.3053
 7056TIP3    H142659   2.028   6.614  11.256 -0.0881  0.0692  1.8921
 7056TIP3    H242660   2.155   6.553  11.199 -0.3111  1.5409 -0.3288
 7057TIP3   OH242661   0.982   2.284   3.185  0.2431  0.0471 -0.1596
 7057TIP3    H142662   1.023   2.327   3.110  2.0538  0.3330  0.9361
 7057TIP3    H242663   0.974   2.192   3.158  0.1684  0.2799 -0.9691
 7058TIP3   OH242664   2.188   5.310  11.538  0.1179  0.1992  0.1201
 7058TIP3    H142665   2.201   5.232  11.591  3.1880  0.6918  0.2747
 7058TIP3    H242666   2.128   5.364  11.589  0.0769 -0.9273  1.3028
 7059TIP3   OH242667   2.659   6.777  12.423 -0.1331  0.5061 -0.1283
 7059TIP3    H142668   2.599   6.848  12.398 -0.8315 -0.0566 -0.0800
 7059TIP3    H242669   2.672   6.789  12.517 -0.6439  0.2851 -0.0247
 7060TIP3   OH242670   6.364   4.106  12.513 -0.0730  0.6225 -0.0157
 7060TIP3    H142671   6.311   4.074  12.439 -0.4585  1.8060 -0.2770
 7060TIP3    H242672   6.316   4.077  12.591  0.9746 -1.6965 -0.1719
 7061TIP3   OH242673   4.871   3.257  14.371 -0.0057  0.4944 -0.4667
 7061TIP3    H142674   4.830   3.289  14.451 -1.1642 -0.6388 -0.5582
 7061TIP3    H242675   4.909   3.173  14.396 -0.2230  0.2150 -1.0488
 7062TIP3   OH242676   4.255   5.108  17.163 -0.4201 -0.0862  0.2679
 7062TIP3    H142677   4.307   5.184  17.187 -0.1026  0.8346 -2.8481
 7062TIP3    H242678   4.166   5.131  17.189 -0.5267  1.9578 -1.5655
 7063TIP3   OH242679   1.772   6.576  15.872 -0.1058  0.7108 -0.1141
 7063TIP3    H142680   1.778   6.669  15.894  0.1973  1.1279 -1.8596
 7063TIP3    H242681   1.712   6.540  15.937  1.6063  1.6108  2.1049
 7064TIP3   OH242682   6.517   2.114   0.113 -0.1690 -0.1983 -0.4952
 7064TIP3    H142683   6.478   2.134   0.028  2.4249  0.3475 -1.6362
 7064TIP3    H242684   6.553   2.197   0.143 -3.6365  0.4140  2.7372
 7065TIP3   OH242685   3.407   1.079  15.376 -0.2777 -0.1446  0.4370
 7065TIP3    H142686   3.430   0.993  15.411  0.1872 -0.2026  0.0058
 7065TIP3    H242687   3.421   1.071  15.281 -1.7110 -0.0558  0.2002
 7066TIP3   OH242688   4.774   3.135  16.100  0.5552  0.3043 -0.2069
 7066TIP3    H142689   4.782   3.040  16.095  1.1994  0.2726  0.9806
 7066TIP3    H242690   4.691   3.155  16.058  0.1265 -0.8479  0.0646
 7067TIP3   OH242691   1.195   6.145   5.575 -0.9179 -0.1619  0.5479
 7067TIP3    H142692   1.153   6.206   5.636  0.1271  1.4804 -0.3129
 7067TIP3    H242693   1.123   6.090   5.543 -1.9713  0.9005  1.0067
 7068TIP3   OH242694   1.141   3.346   0.847 -0.0875 -0.2939 -0.0795
 7068TIP3    H142695   1.092   3.411   0.896  1.5477  1.9375 -1.2431
 7068TIP3    H242696   1.189   3.297   0.914 -1.7317 -0.7077  0.8493
 7069TIP3   OH242697   5.501   0.257   2.459 -0.4054 -0.0281  0.0903
 7069TIP3    H142698   5.478   0.164   2.457 -2.4477  0.4033  1.0228
 7069TIP3    H242699   5.490   0.282   2.551 -0.9731  1.3650 -0.3325
 7070TIP3   OH242700   4.400   1.823  13.020  0.3256 -0.0884  0.3009
 7070TIP3    H142701   4.347   1.886  13.068  1.5202  0.3497  1.0967
 7070TIP3    H242702   4.478   1.811  13.074  1.2201 -0.4264 -1.0021
 7071TIP3   OH242703   4.433   4.375   5.931 -0.1657  0.1374 -0.4703
 7071TIP3    H142704   4.388   4.413   5.856  0.3728  0.3611 -0.6802
 7071TIP3    H242705   4.423   4.440   6.001 -0.8480 -0.1631 -0.2780
 7072TIP3   OH242706   5.085   1.365  16.828 -0.2225 -0.4374  0.4306
 7072TIP3    H142707   5.157   1.303  16.830  0.1239 -0.0506  2.4833
 7072TIP3    H242708   5.010   1.316  16.862 -0.1100  0.0469  1.4123
 7073TIP3   OH242709   3.174   2.263  16.831  0.5341  0.6779  0.0069
 7073TIP3    H142710   3.085   2.298  16.835  0.2392 -0.0763  0.3348
 7073TIP3    H242711   3.222   2.325  16.776 -0.6293  0.1816 -1.6366
 7074TIP3   OH242712   3.225   3.210   6.614 -0.4641  0.3704  0.4901
 7074TIP3    H142713   3.237   3.299   6.579 -0.8785  0.9773  1.8245
 7074TIP3    H242714   3.140   3.183   6.579 -0.7439  0.8530  0.7818
 7075TIP3   OH242715   1.313   4.404  11.437  0.7790 -0.5760 -0.0180
 7075TIP3    H142716   1.260   4.357  11.373  2.0954 -1.4251 -0.5248
 7075TIP3    H242717   1.348   4.336  11.493 -0.6110  0.1761  1.8750
 7076TIP3   OH242718   2.776   3.979  12.453 -0.1742  0.5696 -0.1651
 7076TIP3    H142719   2.807   4.069  12.440  1.8992  0.0943  1.0021
 7076TIP3    H242720   2.712   3.986  12.524  0.8582  1.0004  0.7487
 7077TIP3   OH242721   0.161   1.928  14.468  0.2448 -0.3950 -0.2608
 7077TIP3    H142722   0.217   1.999  14.498  0.2838 -0.4617 -0.1760
 7077TIP3    H242723   0.189   1.912  14.378 -0.1208  0.0520 -0.4588
 7078TIP3   OH242724   6.082   0.818  16.646  0.1629 -0.1463 -0.2147
 7078TIP3    H142725   5.992   0.796  16.669 -0.1397  1.1493 -0.0471
 7078TIP3    H242726   6.126   0.829  16.730  1.3592 -3.7752 -0.1979
 7079TIP3   OH242727   5.012   0.066  14.855  0.3727 -0.8145 -0.0405
 7079TIP3    H142728   4.946   0.026  14.799 -2.9400  4.5436 -0.6366
 7079TIP3    H242729   4.983   0.046  14.944 -1.0009 -0.2051 -0.3191
 7080TIP3   OH242730   3.703   2.332  14.759 -0.0137  0.3090 -0.1844
 7080TIP3    H142731   3.783   2.363  14.717  0.7043  0.7161  1.3959
 7080TIP3    H242732   3.674   2.406  14.813 -1.9226  0.4544 -1.3089
 7081TIP3   OH242733   4.865   4.585   2.311  0.3160 -0.3560  0.6488
 7081TIP3    H142734   4.884   4.539   2.229 -2.0470 -1.0285  0.3923
 7081TIP3    H242735   4.829   4.518   2.369 -0.9473  0.6772  1.1258
 7082TIP3   OH242736   5.108   6.525  11.348 -0.1694  0.2943  0.2130
 7082TIP3    H142737   5.124   6.482  11.432 -0.2160  0.4825  0.3211
 7082TIP3    H242738   5.042   6.472  11.305  0.8626 -0.5929 -0.3065
 7083TIP3   OH242739   0.391   5.600  15.683 -0.0808 -0.1950 -0.2941
 7083TIP3    H142740   0.422   5.548  15.609  0.7410  0.7193 -0.6039
 7083TIP3    H242741   0.459   5.591  15.749  0.6107  1.3613 -0.7650
 7084TIP3   OH242742   0.676   0.921  14.934  0.0043  0.0733 -0.3075
 7084TIP3    H142743   0.630   0.845  14.969  0.1098  0.0620 -0.1959
 7084TIP3    H242744   0.723   0.958  15.008  1.7183 -1.0189 -0.7836
 7085TIP3   OH242745   3.506   6.589   3.137  0.0872 -0.5809 -0.1751
 7085TIP3    H142746   3.540   6.657   3.078 -2.1192  2.1060  1.4302
 7085TIP3    H242747   3.456   6.531   3.080  0.0068  0.5538 -1.3059
 7086TIP3   OH242748   2.042   6.595   2.232 -0.0763 -0.2822 -0.7139
 7086TIP3    H142749   2.057   6.638   2.148 -0.6298  1.1820 -0.1023
 7086TIP3    H242750   2.127   6.598   2.276 -0.2215  0.6762 -0.4766
 7087TIP3   OH242751   6.347   3.271   6.365 -0.4359  1.0104  0.5689
 7087TIP3    H142752   6.321   3.259   6.457  0.4520  0.0037  0.7092
 7087TIP3    H242753   6.270   3.307   6.323 -1.0990  0.7986  1.5687
 7088TIP3   OH242754   2.899   3.829  16.432 -0.1921 -0.0334 -0.3072
 7088TIP3    H142755   2.864   3.778  16.359 -2.6648 -0.0862  0.8025
 7088TIP3    H242756   2.870   3.919  16.415  1.3151  0.4286 -0.5783
 7089TIP3   OH242757   0.958   0.540   1.470 -0.3421  0.1321 -0.6608
 7089TIP3    H142758   1.041   0.586   1.454 -0.2700  0.1907 -0.1384
 7089TIP3    H242759   0.962   0.515   1.563 -1.1710  0.6614 -0.4772
 7090TIP3   OH242760   4.119   6.646   5.359  0.1595 -0.2132 -0.1683
 7090TIP3    H142761   4.189   6.587   5.330  0.5518  0.4375 -0.5634
 7090TIP3    H242762   4.163   6.711   5.412 -0.4871 -1.1209  1.5528
 7091TIP3   OH242763   4.118   6.443   2.718 -0.0316  0.2238 -0.2413
 7091TIP3    H142764   4.178   6.484   2.780  0.6218  0.4218 -0.9832
 7091TIP3    H242765   4.175   6.393   2.659 -0.6819 -0.3655 -0.3826
 7092TIP3   OH242766   2.065   0.221   5.134  0.1644 -0.5608 -0.4651
 7092TIP3    H142767   2.008   0.229   5.211  0.3025 -4.5830  0.2681
 7092TIP3    H242768   2.031   0.145   5.087  0.8016  1.0697 -3.8932
 7093TIP3   OH242769   0.253   5.499   0.153 -0.4979  0.5955  0.5709
 7093TIP3    H142770   0.301   5.573   0.119  0.5888  0.3355  1.4778
 7093TIP3    H242771   0.173   5.495   0.100  0.4099  1.1051 -0.8760
 7094TIP3   OH242772   1.583   4.049   0.850 -0.4680  0.2744  0.8734
 7094TIP3    H142773   1.653   4.077   0.910 -0.6191 -0.4591  1.4083
 7094TIP3    H242774   1.547   3.970   0.891 -2.7902  1.5652  1.5596
 7095TIP3   OH242775   5.942   3.303  11.216 -0.1896 -0.6186  0.3250
 7095TIP3    H142776   6.023   3.263  11.184  0.7233  0.2310  1.4676
 7095TIP3    H242777   5.928   3.378  11.158  0.5035 -0.0849  0.8329
 7096TIP3   OH242778   1.129   3.510  15.269 -0.7460 -0.1594 -0.1122
 7096TIP3    H142779   1.066   3.509  15.340  1.3742  1.3028  1.9487
 7096TIP3    H242780   1.183   3.587  15.286  0.7921 -0.5996 -2.4835
 7097TIP3   OH242781   4.307   1.503   1.992 -0.0645  0.1679  0.4335
 7097TIP3    H142782   4.357   1.549   1.925  0.1228 -0.1228  0.3721
 7097TIP3    H242783   4.220   1.543   1.989  0.0510  0.4095  0.2761
 7098TIP3   OH242784   6.069   0.066   0.851 -0.7277  0.2120  0.3087
 7098TIP3    H142785   6.153   0.033   0.881 -0.9725 -0.5023  0.2149
 7098TIP3    H242786   6.091   0.144   0.800  0.0067 -0.7245 -0.8592
 7099TIP3   OH242787   1.741   0.722  15.908 -0.3543  0.0521 -0.3490
 7099TIP3    H142788   1.681   0.770  15.850 -2.5456  1.3851  2.7358
 7099TIP3    H242789   1.695   0.640  15.927  0.3698 -0.3983 -0.5076
 7100TIP3   OH242790   6.371   0.272   2.812 -0.1196 -0.2115  0.0430
 7100TIP3    H142791   6.353   0.365   2.824 -0.8391 -0.2414 -0.6762
 7100TIP3    H242792   6.371   0.261   2.716 -1.0447 -1.1275  0.1317
 7101TIP3   OH242793   4.420   0.765  15.638  0.4047  0.0574  0.0396
 7101TIP3    H142794   4.462   0.679  15.646  1.5995  0.5475 -0.8100
 7101TIP3    H242795   4.326   0.746  15.647  0.7724 -0.9571  2.7139
 7102TIP3   OH242796   3.427   1.223   5.505 -0.1020 -0.4946  0.1315
 7102TIP3    H142797   3.426   1.134   5.468  0.8248 -0.1214 -0.8714
 7102TIP3    H242798   3.336   1.251   5.502 -0.2603 -1.0369 -0.5039
 7103TIP3   OH242799   6.170   1.126  15.144  0.0422  0.5150 -0.9648
 7103TIP3    H142800   6.180   1.206  15.196 -0.7498  0.0334 -0.0444
 7103TIP3    H242801   6.215   1.059  15.195 -1.5574 -0.1606 -0.3955
 7104TIP3   OH242802   3.636   1.446  12.738  0.4221 -0.3511 -0.3710
 7104TIP3    H142803   3.690   1.475  12.666 -0.8698 -0.3042 -1.3561
 7104TIP3    H242804   3.584   1.524  12.762 -1.5965 -1.2036 -1.6904
 7105TIP3   OH242805   1.324   0.818   2.434 -0.6700 -0.4576 -0.0479
 7105TIP3    H142806   1.414   0.849   2.429 -0.2285 -1.5891  0.6960
 7105TIP3    H242807   1.287   0.836   2.348  0.2311  0.0876 -0.3260
 7106TIP3   OH242808   4.774   0.945  13.769 -0.4470  0.0291 -0.0610
 7106TIP3    H142809   4.746   1.026  13.811 -2.0740 -0.4191 -0.2271
 7106TIP3    H242810   4.827   0.974  13.695 -1.5321  0.9783 -0.4983
 7107TIP3   OH242811   3.256   4.119   0.439  0.1550 -0.2039  0.1436
 7107TIP3    H142812   3.213   4.058   0.499 -3.6049 -0.9043 -2.8946
 7107TIP3    H242813   3.337   4.073   0.414 -1.3884 -2.9509 -0.2505
 7108TIP3   OH242814   2.146   0.451   4.597 -0.4210  0.5520 -0.8738
 7108TIP3    H142815   2.132   0.486   4.509 -1.8814 -1.1001 -1.3620
 7108TIP3    H242816   2.228   0.402   4.590 -0.2732  0.8381 -1.1864
 7109TIP3   OH242817   2.346   2.801  13.945  0.5895 -0.4328  0.3703
 7109TIP3    H142818   2.280   2.745  13.902  0.8443  0.6110 -1.5101
 7109TIP3    H242819   2.393   2.842  13.872  2.4207 -0.0821  1.6844
 7110TIP3   OH242820   1.872   2.036   0.583 -0.2340 -0.0103 -0.2532
 7110TIP3    H142821   1.954   2.086   0.580  0.0788 -0.4712  0.4427
 7110TIP3    H242822   1.896   1.948   0.554 -0.5667 -0.0458 -0.4307
 7111TIP3   OH242823   5.969   3.656   5.453  0.0068  0.1853 -0.2763
 7111TIP3    H142824   5.997   3.572   5.489  2.9117  1.1234 -0.1138
 7111TIP3    H242825   6.014   3.662   5.368 -1.3190  0.9755 -0.9651
 7112TIP3   OH242826   6.451   3.316  11.864 -0.6309 -0.2519 -0.5475
 7112TIP3    H142827   6.430   3.276  11.949  2.6966 -0.3609  0.3899
 7112TIP3    H242828   6.470   3.241  11.807 -1.4146 -0.1423 -0.9557
 7113TIP3   OH242829   4.348   5.204   6.084 -0.2937 -0.1759  0.1313
 7113TIP3    H142830   4.337   5.202   5.989  0.9523 -0.1759 -0.0309
 7113TIP3    H242831   4.410   5.134   6.102 -0.6413 -0.2779  0.9732
 7114TIP3   OH242832   1.291   3.053  15.703  0.0696  0.1874  0.0469
 7114TIP3    H142833   1.291   3.007  15.619  2.0430  0.4733 -0.1545
 7114TIP3    H242834   1.311   2.984  15.768 -0.4279  0.1496  0.1611
 7115TIP3   OH242835   5.606   5.170  10.881  0.2718 -0.2073  0.2907
 7115TIP3    H142836   5.564   5.253  10.905  0.2010 -0.0813 -0.2662
 7115TIP3    H242837   5.539   5.104  10.899  0.0336 -0.0627 -0.0500
 7116TIP3   OH242838   6.560   3.879  13.808  0.0903  0.4764 -0.0236
 7116TIP3    H142839   6.570   3.850  13.717  0.3818 -0.1000  0.1867
 7116TIP3    H242840   6.598   3.967  13.809 -1.8033  1.3615 -0.9085
 7117TIP3   OH242841   1.005   1.065   2.997 -0.2630  0.0376  0.3183
 7117TIP3    H142842   1.032   1.123   3.069 -0.1934 -0.9229  1.0970
 7117TIP3    H242843   1.059   0.987   3.009 -1.5471 -0.8760  0.3225
 7118TIP3   OH242844   6.798   5.663  11.715  0.0296  0.1267 -0.1939
 7118TIP3    H142845   6.734   5.704  11.774  0.0869 -1.1574  0.7973
 7118TIP3    H242846   6.855   5.612  11.773 -0.4929 -1.9788 -1.4266
 7119TIP3   OH242847   4.396   4.685  14.316 -0.0252 -0.5284  0.0938
 7119TIP3    H142848   4.326   4.670  14.252 -0.1277  0.0150  0.0735
 7119TIP3    H242849   4.411   4.780  14.314  0.9282 -0.6685 -0.1294
 7120TIP3   OH242850   2.993   4.675   6.238  0.2712  0.1295  0.8592
 7120TIP3    H142851   2.943   4.688   6.157  1.5160  0.4978  0.1123
 7120TIP3    H242852   3.009   4.763   6.271  3.3344  0.3092 -0.7996
 7121TIP3   OH242853   1.775   6.433  13.946  0.2866  0.1528 -0.2375
 7121TIP3    H142854   1.758   6.368  13.877 -2.8951 -1.3873  1.7145
 7121TIP3    H242855   1.803   6.381  14.021 -0.1402  1.2750  0.7328
 7122TIP3   OH242856   6.464   4.812   2.595 -0.3101 -0.5722 -0.1997
 7122TIP3    H142857   6.536   4.777   2.647 -1.8034 -1.6374  1.2814
 7122TIP3    H242858   6.396   4.744   2.600 -0.5556 -0.7151 -3.5801
 7123TIP3   OH242859   0.710   0.067  12.555  0.2023 -0.2537  0.2962
 7123TIP3    H142860   0.722   0.032  12.644 -0.1781  0.0374  0.4692
 7123TIP3    H242861   0.693  -0.010  12.501 -0.2609 -0.3737  0.6044
 7124TIP3   OH242862   0.282   0.672  13.857  0.3445  0.3770 -1.3673
 7124TIP3    H142863   0.361   0.703  13.813  0.5086  0.3563 -1.0893
 7124TIP3    H242864   0.210   0.711  13.808  0.4697 -1.0464 -2.7413
 7125TIP3   OH242865   4.925   5.273   3.182 -0.5306  0.0352 -0.1579
 7125TIP3    H142866   4.957   5.250   3.269 -1.7059  0.3577  0.3755
 7125TIP3    H242867   4.835   5.240   3.180 -1.4547  2.3336 -0.2470
 7126TIP3   OH242868   3.127   6.628   0.821  0.1895  0.6146  0.0916
 7126TIP3    H142869   3.161   6.714   0.846 -0.1944  0.8250 -0.1031
 7126TIP3    H242870   3.167   6.568   0.884  1.0972  0.8236 -0.2692
 7127TIP3   OH242871   2.374   2.385  12.541 -0.3250 -0.8513  0.1292
 7127TIP3    H142872   2.417   2.300  12.534  1.0226 -0.1314 -0.8936
 7127TIP3    H242873   2.413   2.426  12.618 -0.3526 -0.8347  0.1345
 7128TIP3   OH242874   2.391   2.103  14.015  0.0327 -0.1319  0.0343
 7128TIP3    H142875   2.381   2.153  14.096 -2.3827 -1.0042  0.3544
 7128TIP3    H242876   2.398   2.170  13.946 -1.6216  0.7006  0.6092
 7129TIP3   OH242877   1.588   5.077   4.890 -0.0414  0.1886  0.2147
 7129TIP3    H142878   1.513   5.062   4.832 -0.9575 -0.1023  1.4271
 7129TIP3    H242879   1.650   5.007   4.869  0.1186  0.7007 -1.1246
 7130TIP3   OH242880   6.322   2.627   5.371 -0.3441  0.1873  0.1007
 7130TIP3    H142881   6.245   2.570   5.381  0.5975 -0.9957  0.7951
 7130TIP3    H242882   6.289   2.701   5.320 -1.8268 -0.5297 -0.0600
 7131TIP3   OH242883   0.010   1.985  13.267 -0.5007  0.1716  0.3030
 7131TIP3    H142884  -0.028   1.949  13.188  0.6013  0.2407 -0.2752
 7131TIP3    H242885  -0.012   2.078  13.264 -0.8563  0.0882  0.3190
 7132TIP3   OH242886   5.343   6.394   3.243 -0.2719 -0.5336  0.1942
 7132TIP3    H142887   5.377   6.460   3.183  1.2547 -2.0506 -0.6992
 7132TIP3    H242888   5.248   6.404   3.237 -0.3128 -1.4187 -3.5513
 7133TIP3   OH242889   2.359   0.068  11.066  0.0381  0.0134 -0.8032
 7133TIP3    H142890   2.419   0.110  11.004 -0.0970 -0.1162 -1.0268
 7133TIP3    H242891   2.290   0.032  11.010 -2.5964  3.7885 -0.3464
 7134TIP3   OH242892   5.967   6.776   4.891  0.5522  0.2270 -0.0266
 7134TIP3    H142893   5.957   6.869   4.872  1.8825  0.7340  1.4703
 7134TIP3    H242894   5.962   6.733   4.806 -2.1761  1.4040 -0.5688
 7135TIP3   OH242895   6.671   0.674  16.270  0.2200 -0.0519  0.8723
 7135TIP3    H142896   6.712   0.699  16.188  1.0532  1.0408  1.5956
 7135TIP3    H242897   6.741   0.679  16.335 -1.0919  2.3966  2.2506
 7136TIP3   OH242898   2.124   3.039  12.810  0.0204 -0.1307  0.1666
 7136TIP3    H142899   2.048   3.097  12.807  0.6781  0.8674  1.7552
 7136TIP3    H242900   2.096   2.961  12.763 -0.8678  1.4555 -2.1312
 7137TIP3   OH242901   0.959   3.669  12.528 -0.4747 -0.0452 -0.5522
 7137TIP3    H142902   1.016   3.666  12.451  2.5726 -1.4667  1.5901
 7137TIP3    H242903   1.003   3.727  12.589 -3.1019  1.4765  0.0695
 7138TIP3   OH242904   1.425   5.842   1.406  0.3216 -0.4943 -0.5344
 7138TIP3    H142905   1.514   5.826   1.374  0.8790 -1.8134  1.4394
 7138TIP3    H242906   1.385   5.755   1.411 -0.0704 -0.2479  1.2441
 7139TIP3   OH242907   5.333   4.138   4.055  0.5355  0.3088  0.4445
 7139TIP3    H142908   5.404   4.203   4.052  0.6392  0.4133  3.1581
 7139TIP3    H242909   5.364   4.067   3.999  1.8020  1.2731 -0.1299
 7140TIP3   OH242910   2.685   6.819   0.254 -0.0933 -0.0731 -0.0758
 7140TIP3    H142911   2.711   6.807   0.163  1.8636  0.2946  0.4005
 7140TIP3    H242912   2.684   6.731   0.291  1.3927 -0.0201  0.1183
 7141TIP3   OH242913   3.994   6.514   0.483 -0.4196  0.0141 -0.6132
 7141TIP3    H142914   4.063   6.578   0.463 -0.3849  0.1287 -0.1498
 7141TIP3    H242915   4.039   6.448   0.538 -0.2996 -0.7446 -1.6000
 7142TIP3   OH242916   0.016   3.111   0.925 -0.0792  0.1644 -0.7565
 7142TIP3    H142917  -0.009   3.052   0.996  1.0522  0.4997 -0.0523
 7142TIP3    H242918   0.109   3.094   0.911  0.1957  1.5405 -0.7532
 7143TIP3   OH242919   1.120   0.205   2.076  0.8609 -0.2433 -0.3610
 7143TIP3    H142920   1.179   0.205   2.152 -1.5048  1.7323  1.6757
 7143TIP3    H242921   1.109   0.297   2.054 -2.4648 -0.3483  0.3292
 7144TIP3   OH242922   2.811   6.200   5.412  0.5868 -0.2536 -0.3816
 7144TIP3    H142923   2.826   6.280   5.361 -1.0877 -0.4078 -1.1965
 7144TIP3    H242924   2.844   6.130   5.355  0.8504 -0.2423 -0.2419
 7145TIP3   OH242925   4.352   2.447  14.823  0.6024 -0.1156  0.3996
 7145TIP3    H142926   4.295   2.369  14.816  1.8494 -0.9908 -0.5225
 7145TIP3    H242927   4.309   2.512  14.768 -0.0430 -0.4292  0.5185
 7146TIP3   OH242928   0.809   3.133  10.837  0.2150 -0.2556  0.2707
 7146TIP3    H142929   0.725   3.147  10.793  1.6135  1.0707 -2.1940
 7146TIP3    H242930   0.828   3.215  10.882  1.5323  0.7072 -1.8251
 7147TIP3   OH242931   6.658   2.214  15.815 -0.0407 -0.3084 -0.3233
 7147TIP3    H142932   6.738   2.163  15.824  1.4585  2.0454  0.5257
 7147TIP3    H242933   6.641   2.216  15.720  1.9989  0.6537 -0.7222
 7148TIP3   OH242934   3.036   5.781  14.841 -0.9496 -0.6647 -0.2352
 7148TIP3    H142935   3.094   5.747  14.910  2.7292 -0.0589 -2.7208
 7148TIP3    H242936   2.991   5.704  14.807  0.1676 -1.5795  0.2974
 7149TIP3   OH242937   5.533   0.471   6.040  0.2763  0.4393 -0.4383
 7149TIP3    H142938   5.534   0.379   6.014  1.5414  0.6950 -1.3693
 7149TIP3    H242939   5.449   0.482   6.085 -1.2145 -0.4820 -2.8046
 7150TIP3   OH242940   6.822   4.338   0.442 -0.3527  0.3836 -0.2446
 7150TIP3    H142941   6.876   4.351   0.364  0.5204  1.5838  0.5373
 7150TIP3    H242942   6.814   4.425   0.481  1.2925 -0.5029  2.3505
 7151TIP3   OH242943   6.491   6.226   4.617 -0.1198 -0.3936 -0.5886
 7151TIP3    H142944   6.565   6.165   4.612  0.9617  0.8421 -0.2289
 7151TIP3    H242945   6.427   6.181   4.674  0.9733 -0.8741  0.3022
 7152TIP3   OH242946   0.864   6.671  12.252 -0.2008 -0.2343 -0.2492
 7152TIP3    H142947   0.941   6.639  12.299  0.3093 -0.6276 -1.3240
 7152TIP3    H242948   0.807   6.594  12.245 -0.0430 -0.3081 -0.7275
 7153TIP3   OH242949   2.649   0.223   3.876 -0.2386  0.1261  0.0960
 7153TIP3    H142950   2.694   0.186   3.800 -1.0437 -1.8770  0.5203
 7153TIP3    H242951   2.691   0.308   3.891 -0.2731  0.7240 -2.7484
 7154TIP3   OH242952   0.795   3.685   3.576  0.0740  0.1094  0.5558
 7154TIP3    H142953   0.792   3.774   3.541  0.5910 -0.3244 -0.6583
 7154TIP3    H242954   0.822   3.696   3.667 -0.9591  1.2617  0.7545
 7155TIP3   OH242955   0.556   1.216   5.386 -0.3484 -0.5532  0.3946
 7155TIP3    H142956   0.473   1.173   5.364 -0.3688 -0.2108 -0.2343
 7155TIP3    H242957   0.554   1.297   5.336 -0.2063  0.0769  1.3893
 7156TIP3   OH242958   6.333   4.234   1.440  0.4610 -0.3487 -0.3115
 7156TIP3    H142959   6.242   4.226   1.411 -0.0556 -0.6968  1.3173
 7156TIP3    H242960   6.329   4.225   1.535  2.0948  0.5935 -0.1186
 7157TIP3   OH242961   5.299   6.060  13.151  0.2469 -0.3051 -0.2844
 7157TIP3    H142962   5.333   5.972  13.136  2.7844  0.5017  0.2359
 7157TIP3    H242963   5.268   6.089  13.065 -1.6576 -2.0469 -0.2479
 7158TIP3   OH242964   5.548   5.429   4.719  0.4812 -0.0884  0.0664
 7158TIP3    H142965   5.506   5.420   4.633 -1.8771 -1.5701  1.2833
 7158TIP3    H242966   5.584   5.518   4.719  0.9836 -0.2168 -2.6055
 7159TIP3   OH242967   3.451   4.182  14.234  0.0719  0.6576  0.5116
 7159TIP3    H142968   3.463   4.167  14.328 -1.5802  0.6129  0.7562
 7159TIP3    H242969   3.416   4.099  14.201  1.0385  0.5326 -0.2425
 7160TIP3   OH242970   1.306   1.946  17.162  0.2221  0.1354 -0.8076
 7160TIP3    H142971   1.228   1.894  17.178 -1.1272  1.7584 -1.8231
 7160TIP3    H242972   1.277   2.017  17.105  2.5450  0.5008 -1.6660
 7161TIP3   OH242973   1.378   6.478   3.195 -0.0301  0.3960  0.3611
 7161TIP3    H142974   1.303   6.465   3.252  0.1095  1.2247  0.7564
 7161TIP3    H242975   1.354   6.554   3.141 -0.0403 -0.1928 -0.4800
 7162TIP3   OH242976   1.326   3.769   2.261  0.2446 -0.3343  0.3923
 7162TIP3    H142977   1.335   3.753   2.355 -0.3460 -1.5524  0.2654
 7162TIP3    H242978   1.325   3.864   2.253 -1.3963 -0.1716  1.8089
 7163TIP3   OH242979   6.556   2.701  12.512  0.1096 -0.1464  0.4270
 7163TIP3    H142980   6.470   2.723  12.549  0.1205 -0.2523  0.5158
 7163TIP3    H242981   6.567   2.762  12.439  0.1066  0.0977  0.6259
 7164TIP3   OH242982   2.986   2.846   1.228  0.1524 -0.4530 -0.2270
 7164TIP3    H142983   3.009   2.915   1.166  0.6312 -0.9687 -0.6313
 7164TIP3    H242984   2.911   2.802   1.188 -0.9138  0.5593  0.5900
 7165TIP3   OH242985   4.768   5.284   5.975  0.3853 -0.1057 -0.1317
 7165TIP3    H142986   4.683   5.327   5.983  0.6203  0.3452 -0.0552
 7165TIP3    H242987   4.797   5.304   5.886  0.0983 -0.8453 -0.4010
 7166TIP3   OH242988   3.304   0.157  12.947  0.1990 -0.0130  0.4935
 7166TIP3    H142989   3.263   0.207  13.017 -2.6661 -0.1297 -0.9448
 7166TIP3    H242990   3.378   0.112  12.989  0.1748  1.9152  2.7846
 7167TIP3   OH242991   5.349   2.289  12.819  0.2404 -1.0423  0.2914
 7167TIP3    H142992   5.349   2.291  12.914  0.2561 -2.8795  0.3693
 7167TIP3    H242993   5.398   2.210  12.797 -1.3131 -1.6457 -1.1971
 7168TIP3   OH242994   4.145   2.216  16.506 -0.4799 -0.0811 -0.2912
 7168TIP3    H142995   4.209   2.185  16.441  0.3176  1.7738 -0.4368
 7168TIP3    H242996   4.177   2.181  16.589 -0.0750 -0.3371 -0.5499
 7169TIP3   OH242997   4.769   2.235   0.713 -0.1681  0.2194 -0.3106
 7169TIP3    H142998   4.748   2.310   0.768 -0.5111 -0.0176 -0.1116
 7169TIP3    H242999   4.813   2.173   0.772  1.6527  0.9302 -0.8348
 7170TIP3   OH243000   3.015   6.593   1.889 -0.1788 -0.0498  0.6045
 7170TIP3    H143001   2.990   6.663   1.828 -0.2551  0.7229  1.5066
 7170TIP3    H243002   3.105   6.615   1.914 -0.4962  0.1949  1.5370
 7171TIP3   OH243003   5.355   6.683  12.388  0.0146  0.6612  0.2891
 7171TIP3    H143004   5.420   6.712  12.451 -0.2250  0.1301  0.7824
 7171TIP3    H243005   5.392   6.605  12.348  0.1465  0.9697 -0.2031
 7172TIP3   OH243006   5.857   4.366  13.335  0.1598 -0.2244 -0.2554
 7172TIP3    H143007   5.817   4.295  13.386 -0.8791  0.6155  0.1580
 7172TIP3    H243008   5.923   4.403  13.394  1.8510 -1.8215 -1.0571
 7173TIP3   OH243009   5.238   5.179   5.437  0.3886  0.1249 -0.5745
 7173TIP3    H143010   5.290   5.248   5.396  1.5524  0.2982  1.0583
 7173TIP3    H243011   5.301   5.110   5.457 -0.5539 -0.9384 -1.1413
 7174TIP3   OH243012   1.879   3.095  15.838 -0.5706  0.4917  0.3503
 7174TIP3    H143013   1.891   3.189  15.854 -0.0054  0.6331 -0.8531
 7174TIP3    H243014   1.785   3.081  15.851 -0.6614  1.2130  0.5427
 7175TIP3   OH243015   5.699   3.292  15.603 -0.5702  0.2266  0.2632
 7175TIP3    H143016   5.717   3.381  15.574 -4.1657  0.9491 -0.2154
 7175TIP3    H243017   5.672   3.246  15.523 -0.8025 -0.6996  0.8584
 7176TIP3   OH243018   1.926   2.468  10.741  0.1345 -0.3975  0.0809
 7176TIP3    H143019   1.971   2.464  10.657  1.6344 -0.4815  0.8557
 7176TIP3    H243020   1.943   2.556  10.773 -1.8428  0.2204 -0.4138
 7177TIP3   OH243021   4.071   3.391  11.209 -0.2031  0.2660 -0.2251
 7177TIP3    H143022   4.094   3.303  11.179 -0.5361 -0.4961  1.6390
 7177TIP3    H243023   4.012   3.424  11.141  0.5100 -0.6465 -1.3250
 7178TIP3   OH243024   5.031   6.517  11.079  0.9775  0.5326 -0.2239
 7178TIP3    H143025   5.100   6.451  11.074  1.7953  1.3885 -0.5297
 7178TIP3    H243026   4.987   6.513  10.994 -0.7190 -1.4066  0.6490
 7179TIP3   OH243027   5.225   1.372   4.443  0.1865  0.0331 -0.3833
 7179TIP3    H143028   5.245   1.315   4.517 -2.5756 -2.8104 -1.5852
 7179TIP3    H243029   5.280   1.339   4.372 -0.1227  0.0280 -0.6237
 7180TIP3   OH243030   2.282   2.270  15.821 -0.1127  0.0968  0.1192
 7180TIP3    H143031   2.228   2.245  15.896  1.9764 -1.9942  1.0584
 7180TIP3    H243032   2.267   2.201  15.757  0.8745 -0.1375  0.1211
 7181TIP3   OH243033   5.522   3.000  15.824  0.1233  0.3548  0.0232
 7181TIP3    H143034   5.445   2.944  15.826  0.7298 -0.4882  0.2820
 7181TIP3    H243035   5.566   2.983  15.907 -0.1456  1.8987  0.5140
 7182TIP3   OH243036   4.246   6.500   5.171  0.5563  0.3989 -0.3827
 7182TIP3    H143037   4.173   6.529   5.117 -0.1922 -0.5870  0.0478
 7182TIP3    H243038   4.240   6.404   5.169  0.2244  0.3161  1.7553
 7183TIP3   OH243039   4.407   1.099   5.702 -0.4733 -0.1840  0.4657
 7183TIP3    H143040   4.501   1.082   5.691 -0.7566 -1.4832 -0.0595
 7183TIP3    H243041   4.404   1.182   5.750  0.9382 -0.0339  0.3543
 7184TIP3   OH243042   3.100   2.418  13.132  0.4952 -0.6713  0.1242
 7184TIP3    H143043   3.115   2.370  13.214 -0.7279 -2.0599 -0.4153
 7184TIP3    H243044   3.028   2.371  13.090  0.2809  0.7540 -1.1833
 7185TIP3   OH243045   5.317   3.152   2.778  0.1820 -0.6323 -0.0654
 7185TIP3    H143046   5.227   3.147   2.746 -0.4504 -1.7929  1.7527
 7185TIP3    H243047   5.328   3.074   2.832  1.2168  1.0182  2.3004
 7186TIP3   OH243048   3.581   2.515   0.940 -0.3692  0.0326 -0.1015
 7186TIP3    H143049   3.507   2.464   0.973 -0.3323 -0.0692 -0.1766
 7186TIP3    H243050   3.646   2.449   0.914 -0.2942  0.1189 -0.1331
 7187TIP3   OH243051   6.328   0.125  13.373  0.0138  0.2567  0.5880
 7187TIP3    H143052   6.373   0.122  13.458  1.4856  0.9577 -0.1271
 7187TIP3    H243053   6.390   0.083  13.313 -1.0246 -0.2557 -0.1526
 7188TIP3   OH243054   4.801   4.374  13.288 -0.3440 -0.4598 -0.0863
 7188TIP3    H143055   4.850   4.333  13.217  0.6619 -1.6480  1.2568
 7188TIP3    H243056   4.771   4.457  13.251  0.1797 -1.0309 -1.8812
 7189TIP3   OH243057   6.454   3.295  16.238  0.4457 -0.1466  0.5314
 7189TIP3    H143058   6.447   3.348  16.159  0.7822 -1.1830 -0.2100
 7189TIP3    H243059   6.530   3.329  16.284  1.4898 -0.8607 -0.6224
 7190TIP3   OH243060   3.372   5.154  14.497  0.0885  0.5094  0.5093
 7190TIP3    H143061   3.457   5.117  14.522 -0.5477 -0.0259  2.0475
 7190TIP3    H243062   3.364   5.135  14.404  1.2028 -0.3524  0.5595
 7191TIP3   OH243063   0.829   2.336   4.397 -0.0469 -0.3655 -0.0604
 7191TIP3    H143064   0.921   2.314   4.409 -0.4967 -2.1207  0.5188
 7191TIP3    H243065   0.821   2.361   4.305  0.8597 -1.0553 -0.3390
 7192TIP3   OH243066   4.177   4.524  12.830 -0.0652 -0.1140 -0.3541
 7192TIP3    H143067   4.178   4.563  12.918 -1.4651 -0.9719  0.0656
 7192TIP3    H243068   4.173   4.600  12.771  0.4345  0.4562  0.3203
 7193TIP3   OH243069   3.614   6.806   3.577 -0.4341 -0.1130  0.3216
 7193TIP3    H143070   3.581   6.832   3.491 -0.7140 -1.8527 -0.1281
 7193TIP3    H243071   3.593   6.881   3.634 -0.7677  0.8244 -0.9782
 7194TIP3   OH243072   6.072   0.184  13.409  0.1690  0.7025 -0.2209
 7194TIP3    H143073   6.077   0.265  13.460 -0.1136  1.0707 -0.7689
 7194TIP3    H243074   6.160   0.146  13.416  0.7494  1.7921 -1.1412
 7195TIP3   OH243075   5.062   2.661   5.168  0.0307 -0.3849  0.2167
 7195TIP3    H143076   5.039   2.753   5.157  1.2993 -0.0124  0.4526
 7195TIP3    H243077   4.999   2.614   5.113 -1.0543  0.5529  0.6144
 7196TIP3   OH243078   3.556   5.064  11.625 -0.5226 -0.4607 -0.0593
 7196TIP3    H143079   3.642   5.106  11.623  0.5594 -2.5803 -0.8421
 7196TIP3    H243080   3.520   5.089  11.710  0.6467  0.8562  0.0957
 7197TIP3   OH243081   6.790   5.957  13.956  0.3809  0.0899  0.1873
 7197TIP3    H143082   6.757   5.882  13.907  1.0669  0.5073 -0.9816
 7197TIP3    H243083   6.863   5.923  14.007  0.1504 -0.2056  0.3191
 7198TIP3   OH243084   2.364   0.464  11.753 -0.2179 -0.4522 -0.1813
 7198TIP3    H143085   2.447   0.512  11.757 -1.1075  1.1329 -0.2060
 7198TIP3    H243086   2.356   0.440  11.660  0.8055 -1.7579  0.0318
 7199TIP3   OH243087   2.293   6.460   6.145 -0.1565  0.4386 -0.2709
 7199TIP3    H143088   2.331   6.376   6.119  1.1318  0.9092  0.0102
 7199TIP3    H243089   2.242   6.439   6.223  0.2362 -0.0822 -0.1456
 7200TIP3   OH243090   5.209   0.855   3.775  0.0312  0.3726  0.2574
 7200TIP3    H143091   5.221   0.760   3.770  1.9010  0.6184 -0.3904
 7200TIP3    H243092   5.163   0.878   3.694 -0.7761  0.0012  0.5936
 7201TIP3   OH243093   3.030   1.723  15.535 -0.0119 -0.0885 -0.1090
 7201TIP3    H143094   3.095   1.775  15.488 -0.7856  0.5231 -0.5256
 7201TIP3    H243095   3.060   1.722  15.625  0.4149  0.4395 -0.2425
 7202TIP3   OH243096   0.959   6.266  15.233  0.6383 -0.0954  0.3380
 7202TIP3    H143097   0.947   6.317  15.153  0.2669 -0.7380 -0.0264
 7202TIP3    H243098   0.883   6.207  15.235  0.8778 -0.3875  0.9284
 7203TIP3   OH243099   0.500   6.128  15.946  0.3592 -0.0569  0.0087
 7203TIP3    H143100   0.464   6.044  15.918 -2.0655  1.3478 -1.4899
 7203TIP3    H243101   0.529   6.114  16.036 -0.0991 -2.4201 -0.1534
 7204TIP3   OH243102   2.669   6.682   4.645 -0.3125  0.2796  0.1367
 7204TIP3    H143103   2.631   6.759   4.687  0.1113 -0.8771  2.9329
 7204TIP3    H243104   2.657   6.696   4.552 -2.6198  2.4737  0.6664
 7205TIP3   OH243105   3.473   0.110   4.565 -0.1270 -0.2656  0.2805
 7205TIP3    H143106   3.527   0.142   4.492 -2.3468 -1.2046 -1.8843
 7205TIP3    H243107   3.506   0.159   4.640  2.6795  0.3412 -1.1658
 7206TIP3   OH243108   1.771   2.517  14.759  0.4999  0.4361 -0.7769
 7206TIP3    H143109   1.719   2.469  14.695  0.5528  0.5724 -0.9257
 7206TIP3    H243110   1.778   2.605  14.722 -1.3717  1.1715  0.5058
 7207TIP3   OH243111   1.334   5.554  14.113 -0.4034  0.2175 -0.7459
 7207TIP3    H143112   1.268   5.613  14.077  0.3173  0.6723 -1.3614
 7207TIP3    H243113   1.409   5.563  14.054 -0.0772 -0.9059 -0.5372
 7208TIP3   OH243114   2.247   2.009  11.102  0.5723 -0.1930 -0.5770
 7208TIP3    H143115   2.253   2.103  11.083  0.1938  0.2208  1.1633
 7208TIP3    H243116   2.321   1.991  11.160 -1.4152 -0.0808  2.1892
 7209TIP3   OH243117   3.788   4.875  15.433 -0.1862  0.1898  1.1525
 7209TIP3    H143118   3.792   4.850  15.340  0.7137  1.3403  0.8479
 7209TIP3    H243119   3.702   4.847  15.462 -0.4031 -0.3868  0.0208
 7210TIP3   OH243120   4.643   2.363   1.997  0.3169 -0.6431 -0.0618
 7210TIP3    H143121   4.735   2.388   1.993  0.1347 -0.0969 -1.4012
 7210TIP3    H243122   4.641   2.288   2.056  1.5723 -0.4621  0.2287
 7211TIP3   OH243123   6.486   1.339   3.868  0.1602 -0.0367 -0.0902
 7211TIP3    H143124   6.572   1.366   3.898  0.2514  0.0015 -0.3854
 7211TIP3    H243125   6.500   1.255   3.824  0.0727  0.0536 -0.2893
 7212TIP3   OH243126   2.849   6.183  16.974  0.0472 -0.2125  0.9700
 7212TIP3    H143127   2.757   6.169  16.996 -0.1381 -1.2601 -0.3182
 7212TIP3    H243128   2.846   6.239  16.895  0.4736 -0.8389  0.5012
 7213TIP3   OH243129   2.495   3.709  12.335  0.2213  0.7850  0.1638
 7213TIP3    H143130   2.481   3.635  12.276 -1.1164  1.5227 -0.4843
 7213TIP3    H243131   2.440   3.778  12.300 -0.4666  1.3167  2.1822
 7214TIP3   OH243132   4.157   2.652  16.466 -0.1156 -0.3756  0.6137
 7214TIP3    H143133   4.226   2.646  16.531  1.2895  1.8133 -0.5429
 7214TIP3    H243134   4.190   2.715  16.402 -2.1677 -1.1060 -1.2873
 7215TIP3   OH243135   0.266   0.445   2.111  0.1495 -0.0839 -0.1740
 7215TIP3    H143136   0.225   0.517   2.063  0.4810  0.0066 -0.3268
 7215TIP3    H243137   0.332   0.410   2.050 -0.2531 -0.7547 -0.2431
 7216TIP3   OH243138   1.989   2.207  12.121 -0.1639  0.2327  0.1868
 7216TIP3    H143139   2.024   2.279  12.174 -0.8036  0.3620  0.4450
 7216TIP3    H243140   2.016   2.128  12.168  1.7395  0.2067 -0.8188
 7217TIP3   OH243141   4.877   1.747   3.965  0.5506  0.4045 -0.3994
 7217TIP3    H143142   4.802   1.806   3.960  0.7385  0.6273 -0.6176
 7217TIP3    H243143   4.934   1.786   4.031 -0.2238 -0.5769  0.8934
 7218TIP3   OH243144   3.467   0.742   3.489 -0.3208  0.5219 -0.3721
 7218TIP3    H143145   3.470   0.678   3.417 -1.1262 -0.4918  0.4660
 7218TIP3    H243146   3.552   0.787   3.484  0.2557 -0.5819 -1.0251
 7219TIP3   OH243147   5.764   0.829   5.248  0.1171 -0.2568  0.4615
 7219TIP3    H143148   5.699   0.887   5.287 -1.0626 -1.3424  0.1661
 7219TIP3    H243149   5.756   0.748   5.297  1.1439 -0.4713  0.3022
 7220TIP3   OH243150   2.118   1.984  17.020 -0.0410 -0.3060 -0.3473
 7220TIP3    H143151   2.036   1.978  16.972 -0.4795 -0.5017  0.4042
 7220TIP3    H243152   2.092   1.987  17.112  0.7380  0.8043 -0.1324
 7221TIP3   OH243153   2.759   1.498   4.263 -0.1747 -0.3979  0.2444
 7221TIP3    H143154   2.846   1.522   4.295 -0.4768  1.2313 -0.0514
 7221TIP3    H243155   2.701   1.510   4.339 -0.7222  2.4541 -0.4756
 7222TIP3   OH243156   2.180   6.723   1.187 -0.4620 -0.4376  0.0933
 7222TIP3    H143157   2.162   6.781   1.113 -1.1069  0.5579  1.0022
 7222TIP3    H243158   2.219   6.780   1.253 -0.0984 -1.2642  0.6047
 7223TIP3   OH243159   3.735   3.172  14.967  0.5539 -0.4715  0.3153
 7223TIP3    H143160   3.782   3.227  15.030  0.0343 -0.7070  0.9283
 7223TIP3    H243161   3.786   3.091  14.964  0.6516 -0.4111  0.3397
 7224TIP3   OH243162   1.101   3.039  17.024  0.0843 -0.2240  0.2584
 7224TIP3    H143163   1.064   2.956  17.054 -0.0686  0.2616  1.4663
 7224TIP3    H243164   1.068   3.104  17.087  1.4043  0.5267  0.2052
 7225TIP3   OH243165   3.826   3.405   2.070  0.4370 -0.3097 -1.0940
 7225TIP3    H143166   3.893   3.457   2.027 -0.9100  1.6671 -0.9279
 7225TIP3    H243167   3.766   3.469   2.108 -1.9884 -1.9457 -1.9159
 7226TIP3   OH243168   3.921   2.245  12.426 -0.4791 -0.1869 -0.4453
 7226TIP3    H143169   3.846   2.292  12.461 -0.4262 -0.4084 -0.0262
 7226TIP3    H243170   3.937   2.285  12.340 -0.5666  0.4140 -0.1857
 7227TIP3   OH243171   4.053   4.357  15.564  0.7121 -0.4532 -0.4880
 7227TIP3    H143172   4.075   4.264  15.558  2.3984 -0.3604  2.2220
 7227TIP3    H243173   4.129   4.402  15.526  0.4058 -0.1778 -0.7761
 7228TIP3   OH243174   1.536   5.486   0.499  1.0810 -0.6165  0.2602
 7228TIP3    H143175   1.529   5.506   0.593  0.0432  0.6603 -0.0656
 7228TIP3    H243176   1.565   5.568   0.459  2.0178 -1.2962 -0.4920
 7229TIP3   OH243177   5.981   5.905  11.033  0.1843 -0.3603  0.3111
 7229TIP3    H143178   6.020   5.972  10.976 -1.0148 -0.6636 -0.9335
 7229TIP3    H243179   6.022   5.918  11.118  2.5668 -0.3171 -0.7708
 7230TIP3   OH243180   4.174   6.092  13.332 -0.6148 -0.1984  0.5348
 7230TIP3    H143181   4.086   6.091  13.369 -1.3050  0.1714 -1.0367
 7230TIP3    H243182   4.190   6.183  13.308 -0.0529 -0.3754  0.2092
 7231TIP3   OH243183   4.075   0.592  16.133  0.3083 -0.1692  0.2703
 7231TIP3    H143184   4.058   0.687  16.134  2.2529  0.2646 -1.8642
 7231TIP3    H243185   4.009   0.557  16.074  0.8030  0.1456 -0.4778
 7232TIP3   OH243186   6.289   5.434   3.520  0.3751 -0.5656 -0.3934
 7232TIP3    H143187   6.254   5.508   3.570 -0.1778  0.2568 -1.9185
 7232TIP3    H243188   6.213   5.381   3.498  0.4670 -0.3833 -1.1876
 7233TIP3   OH243189   3.699   4.688  13.026 -0.3340  0.1426 -0.4262
 7233TIP3    H143190   3.633   4.734  12.974 -0.5116  1.5532  0.9579
 7233TIP3    H243191   3.705   4.739  13.107  1.1523 -0.9980  0.2295
 7234TIP3   OH243192   4.765   6.750   1.919 -0.3493 -0.6203  0.6584
 7234TIP3    H143193   4.751   6.655   1.910 -1.4950 -0.5328  1.3568
 7234TIP3    H243194   4.805   6.759   2.006 -0.1555 -0.4708  0.5532
 7235TIP3   OH243195   4.435   0.253   3.372  0.4263 -0.1230  0.4466
 7235TIP3    H143196   4.488   0.192   3.423 -0.9316 -2.2178 -0.4876
 7235TIP3    H243197   4.346   0.242   3.406  0.3178  2.3398  1.1080
 7236TIP3   OH243198   3.328   3.650   4.723 -0.2719  0.4827  0.0860
 7236TIP3    H143199   3.352   3.728   4.772 -0.8407  1.1659 -0.7029
 7236TIP3    H243200   3.254   3.677   4.669 -2.0929 -1.2320  1.5767
 7237TIP3   OH243201   5.625   6.145   2.396 -0.1719 -0.1159  0.3819
 7237TIP3    H143202   5.657   6.185   2.476  0.4686  1.6354 -0.6870
 7237TIP3    H243203   5.630   6.051   2.412  0.1536  0.1907  2.2862
 7238TIP3   OH243204   3.501   4.670   3.173  0.2971 -0.1276 -0.1536
 7238TIP3    H143205   3.449   4.616   3.113  0.3542  0.7925 -1.0570
 7238TIP3    H243206   3.506   4.755   3.130 -0.7727  0.9749  1.7526
 7239TIP3   OH243207   4.503   3.086   4.497  0.4626  0.0010 -0.4330
 7239TIP3    H143208   4.435   3.140   4.459  1.1447  0.8957 -0.4035
 7239TIP3    H243209   4.540   3.139   4.567  0.7246 -0.7508  0.0136
 7240TIP3   OH243210   3.113   3.294   4.689 -0.3141 -0.3638 -0.1777
 7240TIP3    H143211   3.200   3.331   4.708 -0.6887  0.2825  0.3328
 7240TIP3    H243212   3.114   3.208   4.729 -1.2472  1.1288  3.4522
 7241TIP3   OH243213   2.714   4.939   1.885 -0.1283 -0.0217  0.0435
 7241TIP3    H143214   2.795   4.936   1.834 -1.4519  0.9121 -2.3026
 7241TIP3    H243215   2.710   5.029   1.917 -0.1496 -0.1183  0.3136
 7242TIP3   OH243216   0.995   5.740  15.541 -0.2074  0.3841  0.1702
 7242TIP3    H143217   1.024   5.757  15.451  1.9380  1.1522  0.9372
 7242TIP3    H243218   1.026   5.815  15.591 -0.0403 -0.7197  1.8143
 7243TIP3   OH243219   2.827   5.599  12.906 -0.6825  0.3677 -0.2563
 7243TIP3    H143220   2.827   5.689  12.873 -0.4929  0.7260  0.6893
 7243TIP3    H243221   2.739   5.567  12.886 -0.9024  0.9191 -0.1961
 7244TIP3   OH243222   6.625   4.272   1.601  0.8834  0.4926 -0.3126
 7244TIP3    H143223   6.637   4.216   1.677  0.4708 -3.1481 -2.6686
 7244TIP3    H243224   6.536   4.305   1.608  0.7404 -0.0578  0.6001
 7245TIP3   OH243225   0.781   1.381   1.802 -0.6065 -0.5987 -0.1239
 7245TIP3    H143226   0.780   1.476   1.812 -0.4747 -0.7284  1.3504
 7245TIP3    H243227   0.721   1.364   1.729 -0.1014  0.6480 -0.8544
 7246TIP3   OH243228   3.878   2.659   1.973 -0.3286 -0.0230 -0.4872
 7246TIP3    H143229   3.951   2.650   2.035  0.1418  1.1670 -0.8485
 7246TIP3    H243230   3.895   2.741   1.927 -0.0456 -1.3664 -2.9933
 7247TIP3   OH243231   4.632   5.256   4.899 -1.0705 -0.3190  0.4488
 7247TIP3    H143232   4.595   5.327   4.847 -1.0635 -0.0874  0.7619
 7247TIP3    H243233   4.643   5.184   4.836 -0.2486  0.2443 -0.0711
 7248TIP3   OH243234   1.083   0.134   4.382  0.0318 -0.1302  0.1699
 7248TIP3    H143235   1.114   0.064   4.326 -0.3975  1.5123 -2.2710
 7248TIP3    H243236   1.005   0.168   4.338 -0.0635  1.5666  1.5222
 7249TIP3   OH243237   0.194   0.599   1.379  0.1056 -0.5186 -0.2778
 7249TIP3    H143238   0.149   0.676   1.346 -0.5550 -0.7055  0.1776
 7249TIP3    H243239   0.254   0.574   1.308  1.1782  1.0827  0.0152
 7250TIP3   OH243240   0.157   6.750  13.982  0.3205  0.0490 -0.0491
 7250TIP3    H143241   0.224   6.740  14.050  1.4826 -0.5446 -1.2264
 7250TIP3    H243242   0.190   6.698  13.908  0.8028  3.2197 -2.2847
 7251TIP3   OH243243   0.697   0.334  14.242  0.0319  0.2875  0.0918
 7251TIP3    H143244   0.765   0.294  14.296  0.6788 -0.9544 -1.5605
 7251TIP3    H243245   0.621   0.341  14.300  0.5747 -1.3189  1.0518
 7252TIP3   OH243246   1.874   5.343  12.185 -0.3210 -0.5483 -0.0224
 7252TIP3    H143247   1.806   5.408  12.166  0.0824 -0.1863 -0.2239
 7252TIP3    H243248   1.879   5.340  12.281 -1.3198 -1.3061  0.0281
 7253TIP3   OH243249   5.113   0.360  16.887  0.4828 -0.4260 -0.7538
 7253TIP3    H143250   5.132   0.419  16.814  2.5556 -1.6407 -1.2760
 7253TIP3    H243251   5.169   0.392  16.958 -0.1153 -0.3890 -0.2975
 7254TIP3   OH243252   4.572   0.984   6.225  0.4431 -0.0493 -0.1472
 7254TIP3    H143253   4.603   0.896   6.245 -2.2204 -1.5201 -1.9445
 7254TIP3    H243254   4.500   0.999   6.285 -0.6859 -0.1391 -1.4318
 7255TIP3   OH243255   0.852   1.266  12.886  0.0528  0.9649  0.2414
 7255TIP3    H143256   0.762   1.276  12.854  0.2464  1.9217 -0.0447
 7255TIP3    H243257   0.867   1.344  12.939  1.2693  1.7022 -1.1212
 7256TIP3   OH243258   3.693   2.246   2.082  0.0682 -0.3198  0.0108
 7256TIP3    H143259   3.671   2.318   2.141  1.6494 -0.1867  0.4880
 7256TIP3    H243260   3.755   2.285   2.020 -0.3654 -0.8532 -0.7652
 7257TIP3   OH243261   0.649   4.178  16.785  0.2426 -0.2420 -0.6501
 7257TIP3    H143262   0.720   4.237  16.809 -0.1488 -0.7624  2.2327
 7257TIP3    H243263   0.570   4.219  16.821 -0.3062 -1.5683 -0.2572
 7258TIP3   OH243264   2.511   6.388  15.293  1.0508 -0.2334  0.1758
 7258TIP3    H143265   2.558   6.439  15.358  0.0297  0.0081  0.7493
 7258TIP3    H243266   2.571   6.317  15.269  2.2089  0.8022 -0.0981
 7259TIP3   OH243267   5.421   1.972  11.283 -0.0157 -0.2891  0.0318
 7259TIP3    H143268   5.338   1.978  11.237  0.0211 -0.9917 -0.1288
 7259TIP3    H243269   5.440   1.878  11.289  0.3924 -0.1782  0.7309
 7260TIP3   OH243270   6.721   0.234  12.240  0.3015  0.1918  0.2328
 7260TIP3    H143271   6.671   0.236  12.158  0.3523  0.3651  0.2063
 7260TIP3    H243272   6.798   0.289  12.222  1.5156 -1.6009 -0.4085
 7261TIP3   OH243273   3.347   2.699   2.323  0.1075 -0.3114 -0.5078
 7261TIP3    H143274   3.420   2.693   2.262 -0.4606 -1.1758 -1.1217
 7261TIP3    H243275   3.380   2.755   2.393  1.0924 -0.0597 -1.1424
 7262TIP3   OH243276   2.682   2.749  14.257  0.2140  0.6110  0.2357
 7262TIP3    H143277   2.616   2.816  14.236  0.1007  0.7228  0.9219
 7262TIP3    H243278   2.743   2.752  14.184 -1.0205 -0.1113 -0.8697
 7263TIP3   OH243279   5.724   6.669  10.783 -0.8605 -0.2361  0.6578
 7263TIP3    H143280   5.747   6.761  10.768 -3.2196  0.9977  3.5407
 7263TIP3    H243281   5.662   6.649  10.714  0.0102  0.1545 -0.2668
 7264TIP3   OH243282   6.378   5.764  15.463  0.2661 -0.5802  0.0960
 7264TIP3    H143283   6.380   5.850  15.505 -0.5532  0.1512 -1.2974
 7264TIP3    H243284   6.387   5.702  15.536 -2.5707  0.5576  1.5959
 7265TIP3   OH243285   4.512   0.698  11.797 -0.5438  0.1290 -0.1442
 7265TIP3    H143286   4.533   0.679  11.888 -3.9578  0.3967  0.8528
 7265TIP3    H243287   4.558   0.780  11.779 -0.1168  0.2894  1.4703
 7266TIP3   OH243288   1.907   1.739  11.255 -0.5156 -0.4545  0.5363
 7266TIP3    H143289   1.919   1.695  11.171 -0.0365 -0.3111  0.5248
 7266TIP3    H243290   1.858   1.677  11.308  1.2923 -1.5912  0.9730
 7267TIP3   OH243291   3.068   4.661  14.268  0.7150 -0.9383  0.0407
 7267TIP3    H143292   2.990   4.610  14.247  0.5073 -1.0585  1.0593
 7267TIP3    H243293   3.139   4.597  14.269  0.3273 -1.4124  2.1413
 7268TIP3   OH243294   6.405   4.941  15.920  0.5476 -0.3522 -0.2018
 7268TIP3    H143295   6.376   4.852  15.899  0.3445 -0.9749  2.3691
 7268TIP3    H243296   6.325   4.992  15.928  0.6365 -0.0518 -1.1277
 7269TIP3   OH243297   5.666   1.909  12.147 -0.1481  0.4111 -0.2646
 7269TIP3    H143298   5.610   1.852  12.199  3.4771 -2.0563  1.3291
 7269TIP3    H243299   5.666   1.869  12.060 -0.3059  0.0337 -0.0935
 7270TIP3   OH243300   2.758   1.674   4.029 -0.7894  0.6566 -0.3194
 7270TIP3    H143301   2.687   1.644   3.973 -1.4181  1.4299  0.0546
 7270TIP3    H243302   2.739   1.636   4.115  0.3015 -0.7308 -0.6447
 7271TIP3   OH243303   2.519   4.714   5.289 -0.3818  0.6030  0.3074
 7271TIP3    H143304   2.585   4.669   5.342 -1.1089 -1.0248 -0.0850
 7271TIP3    H243305   2.558   4.799   5.268  1.4929 -0.2105  0.2882
 7272TIP3   OH243306   0.218   5.415  10.257  0.2136 -0.0211  0.4642
 7272TIP3    H143307   0.284   5.477  10.224  1.0684  0.2425  2.5024
 7272TIP3    H243308   0.189   5.453  10.340  0.5699 -2.2080  1.6667
 7273TIP3   OH243309   4.869   0.155   4.875 -0.7651  0.5344  0.2331
 7273TIP3    H143310   4.848   0.245   4.849 -0.0657  0.1126 -1.9724
 7273TIP3    H243311   4.963   0.156   4.893 -0.8157  0.3105  0.5147
 7274TIP3   OH243312   3.948   6.653   0.816 -1.0653 -0.0953  0.1863
 7274TIP3    H143313   4.011   6.716   0.851 -0.2567  0.5402 -2.2356
 7274TIP3    H243314   3.990   6.568   0.829 -0.2754  0.2216 -0.2287
 7275TIP3   OH243315   5.829   5.404   0.407  0.7117  0.1458 -0.7157
 7275TIP3    H143316   5.802   5.485   0.450  0.0035 -0.1806 -0.5340
 7275TIP3    H243317   5.925   5.406   0.410  0.6883  0.6907 -0.1829
 7276TIP3   OH243318   0.015   3.382  14.275 -0.3165  0.3093  0.3762
 7276TIP3    H143319   0.076   3.374  14.348  0.5604  2.6782 -0.0032
 7276TIP3    H243320  -0.035   3.461  14.294  0.0500  1.0764 -1.6230
 7277TIP3   OH243321   5.997   2.906   0.983 -0.3584  0.3318 -0.2686
 7277TIP3    H143322   5.976   2.817   1.010  0.6195  0.6645  1.8013
 7277TIP3    H243323   5.913   2.952   0.982 -0.5944 -0.0535  0.9432
 7278TIP3   OH243324   5.983   2.486   2.211  0.8764 -0.8146 -0.6232
 7278TIP3    H143325   5.896   2.524   2.208  0.3832 -1.6864  1.1795
 7278TIP3    H243326   5.977   2.407   2.157 -0.3684 -2.4578  1.7235
 7279TIP3   OH243327   3.171   5.921  15.363 -0.5482 -0.4724 -0.7430
 7279TIP3    H143328   3.151   5.832  15.336  0.4253 -0.6069 -1.0771
 7279TIP3    H243329   3.258   5.939  15.325  0.6693 -0.4764  1.8048
 7280TIP3   OH243330   1.659   4.052   0.210  0.2966  0.4590  0.2001
 7280TIP3    H143331   1.732   4.027   0.154  0.3288  0.2301  0.3436
 7280TIP3    H243332   1.613   4.120   0.161 -1.8823 -2.2532 -1.8974
 7281TIP3   OH243333   3.092   6.256   0.645 -0.3768 -0.3380 -0.3766
 7281TIP3    H143334   3.156   6.190   0.618  0.6398  0.7588 -0.7057
 7281TIP3    H243335   3.093   6.252   0.740 -0.5969 -1.0371 -0.3927
 7282TIP3   OH243336   0.060   3.779  13.750  0.5398  0.0964 -0.6984
 7282TIP3    H143337   0.146   3.800  13.786 -0.0106  0.4139  0.5077
 7282TIP3    H243338  -0.002   3.819  13.811 -0.4835 -1.4226 -0.6768
 7283TIP3   OH243339   3.635   1.460   3.984 -0.2753 -0.4492 -0.5552
 7283TIP3    H143340   3.649   1.386   4.042 -1.6183  0.7291  1.4017
 7283TIP3    H243341   3.714   1.513   3.992 -0.5640 -0.1489  0.5035
 7284TIP3   OH243342   6.537   0.292  14.998 -0.0841  0.0660 -0.1443
 7284TIP3    H143343   6.445   0.290  14.970 -0.4067  1.0096  0.7949
 7284TIP3    H243344   6.562   0.384  14.992  0.3651  0.0257  0.9394
 7285TIP3   OH243345   6.658   2.328   3.410 -0.2623  0.5448  0.0363
 7285TIP3    H143346   6.565   2.342   3.428  0.0570  1.1836  1.3041
 7285TIP3    H243347   6.665   2.335   3.315 -1.2626  2.1559  0.0330
 7286TIP3   OH243348   3.230   4.221   6.387  0.1293 -0.0111 -0.0568
 7286TIP3    H143349   3.306   4.234   6.332  0.3485  0.9218  0.4328
 7286TIP3    H243350   3.164   4.282   6.352 -0.0379 -0.0669  0.1549
 7287TIP3   OH243351   5.136   3.177  14.625  0.2793  0.3198 -0.5004
 7287TIP3    H143352   5.170   3.182  14.714 -0.8762 -2.0309  0.1380
 7287TIP3    H243353   5.078   3.253  14.618 -0.9407 -0.3574  1.3951
 7288TIP3   OH243354   4.624   1.365  13.601 -0.1502  0.0510 -0.0012
 7288TIP3    H143355   4.630   1.385  13.694 -1.0766  1.4965 -0.2330
 7288TIP3    H243356   4.629   1.269  13.597 -1.3845 -0.1192  1.6350
 7289TIP3   OH243357   6.214   1.466   3.925 -0.2110  0.4678  0.3282
 7289TIP3    H143358   6.149   1.489   3.859  0.1262  1.0975  0.2064
 7289TIP3    H243359   6.287   1.429   3.875  0.4138  1.7594  0.2418
 7290TIP3   OH243360   3.307   0.652   3.062 -0.2236  0.1130 -0.5052
 7290TIP3    H143361   3.334   0.575   3.011 -3.2096 -0.5453 -1.2895
 7290TIP3    H243362   3.237   0.692   3.010 -0.3701  1.9930  1.0273
 7291TIP3   OH243363   4.486   5.556  14.696 -0.1867  0.6030 -0.2525
 7291TIP3    H143364   4.548   5.486  14.675 -0.5828  0.0179  0.5011
 7291TIP3    H243365   4.527   5.603  14.769  0.1507  1.2661 -0.8540
 7292TIP3   OH243366   6.138   0.702  15.104 -0.1920  0.3927 -0.6648
 7292TIP3    H143367   6.212   0.641  15.112  1.7490  2.6960  0.2146
 7292TIP3    H243368   6.106   0.689  15.015  0.4810 -1.5160 -0.6669
 7293TIP3   OH243369   3.641   4.511  16.015  0.3450 -0.1919 -0.2999
 7293TIP3    H143370   3.602   4.578  15.958 -0.6210 -0.0607  0.4771
 7293TIP3    H243371   3.631   4.546  16.104 -0.0937 -1.3086  0.1157
 7294TIP3   OH243372   2.770   3.890  13.767  0.2169  0.3488 -0.3373
 7294TIP3    H143373   2.773   3.968  13.712 -0.1073  0.1946 -0.5691
 7294TIP3    H243374   2.770   3.924  13.857 -1.2393  0.6643 -0.4380
 7295TIP3   OH243375   4.917   6.548  11.721  0.6390 -0.3366 -0.0459
 7295TIP3    H143376   4.837   6.557  11.773  0.5940 -0.7892 -0.0264
 7295TIP3    H243377   4.981   6.604  11.765  0.1783  0.4858 -0.3957
 7296TIP3   OH243378   0.561   0.662  12.239 -0.1547 -0.8498 -0.2068
 7296TIP3    H143379   0.641   0.625  12.201  1.4292 -0.4240  2.4356
 7296TIP3    H243380   0.526   0.591  12.292 -0.8575 -0.6323 -0.3786
 7297TIP3   OH243381   3.919   0.183  11.524 -0.4193 -0.0117 -0.6006
 7297TIP3    H143382   3.981   0.251  11.500 -0.1411  0.6766  1.8706
 7297TIP3    H243383   3.833   0.220  11.502 -0.2178  0.8214 -0.0035
 7298TIP3   OH243384   1.457   2.450   5.741 -0.3005  0.1098 -0.1531
 7298TIP3    H143385   1.414   2.367   5.723 -1.4546  0.8382 -0.9053
 7298TIP3    H243386   1.398   2.516   5.704  2.2461  1.0951 -2.8792
 7299TIP3   OH243387   0.444   5.435   1.387 -0.0920 -0.6897  0.1373
 7299TIP3    H143388   0.485   5.349   1.392 -2.6456 -2.0207 -0.4433
 7299TIP3    H243389   0.372   5.432   1.450 -0.4138  0.9339 -0.1017
 7300TIP3   OH243390   4.853   4.798   4.844  0.6233 -0.0292 -0.2742
 7300TIP3    H143391   4.775   4.814   4.791  1.7613  1.4036 -1.6160
 7300TIP3    H243392   4.859   4.702   4.847 -1.0359 -0.1737 -0.3141
 7301TIP3   OH243393   1.856   4.245   2.190 -0.3601  0.4946  0.2485
 7301TIP3    H143394   1.883   4.211   2.105  0.3348 -0.5765  0.8646
 7301TIP3    H243395   1.808   4.173   2.231  0.1363  0.6454  1.1333
 7302TIP3   OH243396   0.760   1.222   4.796  0.0935 -0.1912 -0.1415
 7302TIP3    H143397   0.726   1.264   4.717  0.6836  1.4582  0.4311
 7302TIP3    H243398   0.737   1.130   4.787 -1.2203  0.2384 -1.4972
 7303TIP3   OH243399   3.528   6.517   4.113 -0.8227 -0.1387  0.0710
 7303TIP3    H143400   3.518   6.611   4.100 -1.3344  0.0736  1.7189
 7303TIP3    H243401   3.623   6.503   4.111 -0.7898  0.0880 -1.9613
 7304TIP3   OH243402   3.680   4.400  16.571 -0.1487  0.2522 -0.4010
 7304TIP3    H143403   3.740   4.474  16.582 -1.8048  1.4809  0.7979
 7304TIP3    H243404   3.618   4.428  16.504  0.1765 -0.7497 -1.1531
 7305TIP3   OH243405   0.671   5.880   1.217 -0.2045  0.4105 -0.3424
 7305TIP3    H143406   0.621   5.807   1.253  0.2713 -0.0703 -0.6413
 7305TIP3    H243407   0.619   5.958   1.239 -0.9960 -0.0605 -0.5056
 7306TIP3   OH243408   4.007   1.937  12.804 -0.1640  0.2460  0.2017
 7306TIP3    H143409   3.978   1.889  12.726  0.4794 -0.3285  0.3036
 7306TIP3    H243410   4.003   2.029  12.779  1.0052  0.0376 -0.8706
 7307TIP3   OH243411   6.500   6.411   0.188 -0.1866  0.5251  0.0457
 7307TIP3    H143412   6.509   6.321   0.217  0.2668  0.5777  0.0714
 7307TIP3    H243413   6.418   6.412   0.138 -1.9344  0.7931  2.7274
 7308TIP3   OH243414   4.483   3.566   4.933  0.2109 -0.5437 -0.0758
 7308TIP3    H143415   4.491   3.633   4.866  1.3138  0.6538  1.1816
 7308TIP3    H243416   4.393   3.534   4.926  0.2142 -0.2183 -1.8633
 7309TIP3   OH243417   1.092   0.581  10.878 -0.1903 -0.1632 -0.1766
 7309TIP3    H143418   1.153   0.654  10.869 -0.3926  0.1200  0.6563
 7309TIP3    H243419   1.013   0.620  10.917 -1.0363 -0.4560 -1.5280
 7310TIP3   OH243420   4.451   0.025   3.879 -0.7521  0.3230  0.1937
 7310TIP3    H143421   4.468   0.026   3.974 -1.6615 -0.7714  0.3882
 7310TIP3    H243422   4.537   0.037   3.839 -0.2818  0.2871  1.1583
 7311TIP3   OH243423   1.754   0.499  17.096  0.2104  0.1467 -0.3359
 7311TIP3    H143424   1.660   0.510  17.083  0.1242  0.8499  0.7659
 7311TIP3    H243425   1.761   0.427  17.158  0.2933  1.2617  0.9991
 7312TIP3   OH243426   5.402   5.642   1.939  0.5885  0.3917 -0.2092
 7312TIP3    H143427   5.353   5.675   2.014 -0.1732 -0.4902 -0.2953
 7312TIP3    H243428   5.493   5.666   1.956  0.2788  1.0674  0.5052
 7313TIP3   OH243429   5.199   0.116  15.460 -0.0972  0.1771  0.3722
 7313TIP3    H143430   5.241   0.193  15.422  1.3931 -0.2058  1.1628
 7313TIP3    H243431   5.272   0.056  15.480 -0.7792  0.1985  3.4570
 7314TIP3   OH243432   2.261   4.878   4.725  0.4757 -1.1189 -0.2335
 7314TIP3    H143433   2.214   4.796   4.709 -2.8620  0.3922  0.9089
 7314TIP3    H243434   2.302   4.865   4.811 -2.7394 -0.6511  1.5230
 7315TIP3   OH243435   6.835   3.026   6.668  0.3437 -0.2358  0.4572
 7315TIP3    H143436   6.847   3.105   6.615  0.8513 -0.5681  0.0630
 7315TIP3    H243437   6.789   3.056   6.746 -1.1132  0.1573 -0.5048
 7316TIP3   OH243438   1.172   3.348   2.817  0.6424 -0.3430  0.3644
 7316TIP3    H143439   1.265   3.371   2.823  0.6571 -0.2042 -0.3036
 7316TIP3    H243440   1.130   3.428   2.786  0.4162 -0.6375 -0.1024
 7317TIP3   OH243441   6.203   0.589   4.728 -0.2994  0.2213 -0.4245
 7317TIP3    H143442   6.268   0.623   4.790 -0.4384 -0.6036  0.1868
 7317TIP3    H243443   6.125   0.643   4.744  0.4056  1.6902 -1.6513
 7318TIP3   OH243444   0.716   2.126  13.723 -0.2495  0.1078  0.5353
 7318TIP3    H143445   0.778   2.193  13.750 -0.9151  0.9141  0.1134
 7318TIP3    H243446   0.634   2.173  13.710 -0.8991 -0.8968  0.8567
 7319TIP3   OH243447   0.512   0.404   1.691  0.3698 -0.3312  0.4586
 7319TIP3    H143448   0.524   0.409   1.786 -0.7295  0.4598  0.5897
 7319TIP3    H243449   0.419   0.427   1.678  0.5521 -0.2383 -0.8135
 7320TIP3   OH243450   6.119   2.252  10.908 -0.5425 -0.6964 -0.3395
 7320TIP3    H143451   6.145   2.300  10.830 -1.0055  0.0295 -0.0653
 7320TIP3    H243452   6.024   2.246  10.902 -0.5870 -0.5828  0.1848
 7321TIP3   OH243453   5.204   3.065  14.169 -0.1334 -0.2894 -0.0752
 7321TIP3    H143454   5.256   3.144  14.184 -0.9844  0.7093 -2.0609
 7321TIP3    H243455   5.138   3.067  14.238 -0.2442  0.8439 -0.1937
 7322TIP3   OH243456   2.609   3.833   3.120  0.3272 -0.9530  0.0994
 7322TIP3    H143457   2.657   3.844   3.202  0.7865  1.2684 -0.4057
 7322TIP3    H243458   2.519   3.814   3.148  0.2437  0.7810  1.1967
 7323TIP3   OH243459   5.046   0.568  11.635  0.5234 -0.3231  0.0175
 7323TIP3    H143460   5.004   0.638  11.585  0.6699 -0.4059 -0.2200
 7323TIP3    H243461   4.998   0.567  11.718 -0.4728 -0.9268 -0.5365
 7324TIP3   OH243462   2.064   2.895  12.416  0.0694 -0.2122  0.1577
 7324TIP3    H143463   1.976   2.881  12.449  0.5551  0.3595  1.8046
 7324TIP3    H243464   2.079   2.989  12.424  0.7234 -0.2514 -0.4133
 7325TIP3   OH243465   2.283   3.637  10.550 -0.7065 -0.6502 -0.3565
 7325TIP3    H143466   2.198   3.668  10.582 -0.5439 -0.9834  0.4218
 7325TIP3    H243467   2.285   3.544  10.573  0.1317 -0.4986  0.2291
 7326TIP3   OH243468   2.143   5.210   1.131 -0.1598 -0.6007  0.1948
 7326TIP3    H143469   2.123   5.278   1.195 -1.0998 -0.2084 -0.4944
 7326TIP3    H243470   2.067   5.153   1.132  0.6469 -1.7152  0.8132
 7327TIP3   OH243471   4.441   0.591   3.518  0.2894 -0.6595  0.2056
 7327TIP3    H143472   4.470   0.570   3.429 -2.2593 -0.8383 -0.6387
 7327TIP3    H243473   4.384   0.519   3.542  2.1458 -1.4408  2.6965
 7328TIP3   OH243474   4.799   6.324   6.566  0.5326 -0.0732 -0.0810
 7328TIP3    H143475   4.877   6.300   6.616  1.4519 -1.4220 -2.0164
 7328TIP3    H243476   4.758   6.241   6.543 -0.4416  0.5376 -0.6610
 7329TIP3   OH243477   3.671   0.489  12.616 -0.4265  0.0530 -0.5890
 7329TIP3    H143478   3.642   0.526  12.700 -0.3026 -0.1583 -0.4511
 7329TIP3    H243479   3.597   0.436  12.587  0.4905 -2.0817  0.7175
 7330TIP3   OH243480   1.805   5.728  15.348  0.0513  0.6205 -0.0894
 7330TIP3    H143481   1.711   5.714  15.354  0.0256  0.9185  0.2993
 7330TIP3    H243482   1.843   5.641  15.349 -0.2538  0.4780 -0.8938
 7331TIP3   OH243483   2.485   6.543   4.266 -1.1100  0.0853  0.0354
 7331TIP3    H143484   2.506   6.457   4.230 -1.3371  0.3478 -0.7529
 7331TIP3    H243485   2.529   6.545   4.351 -1.9625 -1.2003  0.5404
 7332TIP3   OH243486   6.779   2.869   4.646 -0.7057  0.9088  0.2961
 7332TIP3    H143487   6.768   2.962   4.666  1.0763  0.9678  1.2455
 7332TIP3    H243488   6.736   2.823   4.718  1.6299  1.0905  1.9334
 7333TIP3   OH243489   1.738   2.217  10.746 -0.0088  0.2555  0.0511
 7333TIP3    H143490   1.722   2.243  10.837 -1.9852 -0.0486 -0.1737
 7333TIP3    H243491   1.772   2.296  10.704  0.9561  0.3939  1.0264
 7334TIP3   OH243492   5.999   3.864   2.247 -1.0837 -0.2556  0.7946
 7334TIP3    H143493   6.029   3.809   2.319 -2.2987 -1.9186  0.1075
 7334TIP3    H243494   5.970   3.802   2.180 -0.7353  1.2389 -0.8196
 7335TIP3   OH243495   1.340   1.872  14.974 -0.0006  0.0285  0.8215
 7335TIP3    H143496   1.356   1.909  15.060  0.5740  0.0963  0.6905
 7335TIP3    H243497   1.427   1.852  14.940 -0.1969  0.3668  0.0960
 7336TIP3   OH243498   4.295   1.894  15.789 -0.0443 -0.1965  0.4128
 7336TIP3    H143499   4.294   1.982  15.826  0.9629  1.0226 -2.1750
 7336TIP3    H243500   4.387   1.877  15.768 -0.3524 -1.4188 -0.0969
 7337TIP3   OH243501   0.885   1.269  15.626 -0.0997  0.0962  0.1842
 7337TIP3    H143502   0.930   1.206  15.682 -1.6263 -2.3016 -1.0748
 7337TIP3    H243503   0.944   1.282  15.552 -0.4583 -1.2396 -0.3616
 7338TIP3   OH243504   4.745   1.434   0.657  0.3487 -0.2848 -0.0315
 7338TIP3    H143505   4.687   1.456   0.730  1.1947 -1.2947  0.9853
 7338TIP3    H243506   4.720   1.345   0.632  0.1190  0.0221 -0.9536
 7339TIP3   OH243507   6.552   6.193  16.305 -0.2365  0.3145  0.1982
 7339TIP3    H143508   6.630   6.138  16.307  0.1506  0.8268 -0.2420
 7339TIP3    H243509   6.530   6.199  16.212 -0.0427  1.2070  0.1960
 7340TIP3   OH243510   1.408   6.398  13.538 -0.1065  0.1467  0.9835
 7340TIP3    H143511   1.390   6.377  13.630 -2.9727  3.4476  1.3937
 7340TIP3    H243512   1.325   6.382  13.493  0.8069  0.0467 -0.7580
 7341TIP3   OH243513   6.155   2.612  16.774  0.3873  0.4535 -0.1610
 7341TIP3    H143514   6.182   2.669  16.847  0.4951 -0.7101  0.7332
 7341TIP3    H243515   6.063   2.634  16.760  0.0474 -0.1045  1.0936
 7342TIP3   OH243516   6.756   2.047   1.486  0.5595 -0.2663  0.0111
 7342TIP3    H143517   6.664   2.032   1.506  0.1732 -0.7906 -1.9761
 7342TIP3    H243518   6.761   2.140   1.464  0.5299 -0.2264  0.1689
 7343TIP3   OH243519   1.791   6.627   4.653  0.3545 -0.2465 -0.1110
 7343TIP3    H143520   1.880   6.629   4.690  0.9397  1.8660 -1.4603
 7343TIP3    H243521   1.738   6.588   4.722  1.7213  1.6992  2.2198
 7344TIP3   OH243522   2.767   3.073  14.371  0.6037  0.5413  0.0991
 7344TIP3    H143523   2.747   3.048  14.281  0.8948  0.4402  0.0594
 7344TIP3    H243524   2.856   3.040  14.386  1.1488  1.8800 -0.0816
 7345TIP3   OH243525   3.550   4.689   4.616 -0.0888 -0.0473 -0.4688
 7345TIP3    H143526   3.535   4.723   4.704  1.2510 -0.3773 -0.1014
 7345TIP3    H243527   3.645   4.687   4.606 -0.2073  1.4041 -2.4873
 7346TIP3   OH243528   2.341   5.966   6.154 -0.5128  0.7138 -0.4324
 7346TIP3    H143529   2.302   6.004   6.233 -1.9242 -1.5252  0.0477
 7346TIP3    H243530   2.435   5.970   6.169 -0.6793  2.0950  0.4586
 7347TIP3   OH243531   5.207   5.336  14.478  0.0623  0.4863 -0.2549
 7347TIP3    H143532   5.209   5.384  14.395 -3.2899  2.2176  0.4758
 7347TIP3    H243533   5.274   5.378  14.531  0.9847  0.5872 -1.4537
 7348TIP3   OH243534   2.472   3.538  12.144 -0.3383 -0.8190  0.5329
 7348TIP3    H143535   2.555   3.493  12.156  0.5205 -0.1529 -2.2458
 7348TIP3    H243536   2.413   3.470  12.109 -0.6472 -1.0009  1.3741
 7349TIP3   OH243537   0.195   4.314  15.780 -0.2680 -0.0919 -0.0928
 7349TIP3    H143538   0.140   4.252  15.733  0.0724 -1.8085  1.6460
 7349TIP3    H243539   0.226   4.266  15.857 -0.6445  2.4857  1.8195
 7350TIP3   OH243540   3.500   1.432  13.099  0.3898 -0.0447 -0.1555
 7350TIP3    H143541   3.559   1.500  13.133  0.1742 -0.0304  0.1953
 7350TIP3    H243542   3.440   1.414  13.171  0.4493 -0.6162 -0.2397
 7351TIP3   OH243543   0.299   0.294   4.626  0.5307  0.3551 -0.4902
 7351TIP3    H143544   0.249   0.214   4.644 -1.1221  1.6913  1.3003
 7351TIP3    H243545   0.240   0.365   4.653  1.7689  2.2202 -2.4102
 7352TIP3   OH243546   0.885   0.936  14.468 -0.5311 -0.3021  0.0953
 7352TIP3    H143547   0.809   0.928  14.410 -0.3523 -3.2181  0.1298
 7352TIP3    H243548   0.857   0.999  14.535 -1.9919  0.5507 -1.2553
 7353TIP3   OH243549   6.067   5.807  10.190 -0.4432  0.5198  0.0158
 7353TIP3    H143550   6.037   5.716  10.192 -1.5397  0.7248 -2.7483
 7353TIP3    H243551   6.161   5.801  10.208 -0.6765 -1.0072  0.9638
 7354TIP3   OH243552   1.246   4.838   5.101  0.3685 -0.3964 -0.1657
 7354TIP3    H143553   1.327   4.888   5.102 -0.1940  0.5712 -0.8314
 7354TIP3    H243554   1.178   4.902   5.125 -0.2751 -1.0262 -0.2659
 7355TIP3   OH243555   2.345   3.555   5.481  0.5673 -0.2029 -0.1343
 7355TIP3    H143556   2.441   3.549   5.486  0.5294  0.4223  3.1306
 7355TIP3    H243557   2.328   3.648   5.469  0.3517 -0.1996  0.2020
 7356TIP3   OH243558   1.436   1.813   4.508 -0.2710  0.3560 -0.1646
 7356TIP3    H143559   1.380   1.882   4.472 -0.4789 -0.0989 -0.7200
 7356TIP3    H243560   1.394   1.788   4.590 -1.3470 -0.5492 -0.9694
 7357TIP3   OH243561   0.040   0.262  14.723  0.1353  0.6342 -0.3209
 7357TIP3    H143562   0.124   0.307  14.710  0.1306  0.9440  0.6397
 7357TIP3    H243563   0.056   0.173  14.693  1.1831  0.3624  0.9595
 7358TIP3   OH243564   3.065   3.278  11.061 -0.0590 -0.5297 -1.0183
 7358TIP3    H143565   3.045   3.325  11.142 -1.0912 -0.0719 -1.5267
 7358TIP3    H243566   2.982   3.274  11.014  0.7794  0.3180 -2.6401
 7359TIP3   OH243567   0.039   4.602   5.291  0.2405  0.3052 -0.3572
 7359TIP3    H143568   0.016   4.534   5.229  3.7031  0.1405 -1.6770
 7359TIP3    H243569   0.003   4.682   5.253 -0.4164 -0.2371 -0.8984
 7360TIP3   OH243570   4.832   2.367   2.752 -0.3590  0.0089 -0.3207
 7360TIP3    H143571   4.877   2.429   2.695  1.6170 -0.4492  0.6836
 7360TIP3    H243572   4.871   2.379   2.838 -1.1457 -1.4365  0.2879
 7361TIP3   OH243573   4.823   1.567  13.722  0.2530  0.2827 -0.0133
 7361TIP3    H143574   4.749   1.513  13.692 -0.2416 -1.1570  3.4115
 7361TIP3    H243575   4.899   1.509  13.716 -0.0266 -0.4118  2.2307
 7362TIP3   OH243576   5.492   5.777  12.552  0.3010 -0.4189  0.0537
 7362TIP3    H143577   5.568   5.731  12.589 -1.1084 -1.9108  1.2620
 7362TIP3    H243578   5.422   5.712  12.555 -1.3193  1.2698  0.0633
 7363TIP3   OH243579   2.830   3.656   1.922  0.4158 -0.1363 -0.1832
 7363TIP3    H143580   2.742   3.675   1.955  0.2977 -2.2392  0.9256
 7363TIP3    H243581   2.818   3.586   1.859  1.2388 -0.0672 -0.4338
 7364TIP3   OH243582   2.252   1.475  12.913  0.1798  0.3877 -0.3986
 7364TIP3    H143583   2.221   1.565  12.917  1.4316  0.9572 -2.1953
 7364TIP3    H243584   2.309   1.473  12.836  0.7775 -1.7550  0.0426
 7365TIP3   OH243585   5.501   2.671  12.452  0.0484 -0.2759  0.0065
 7365TIP3    H143586   5.586   2.662  12.408  0.4855 -1.3762  1.0253
 7365TIP3    H243587   5.505   2.609  12.524 -0.9134  0.9854  1.2027
 7366TIP3   OH243588   5.412   1.833  11.001 -0.3686  0.3319 -0.4347
 7366TIP3    H143589   5.360   1.802  11.075 -0.8196  1.0476 -0.4316
 7366TIP3    H243590   5.377   1.921  10.983  1.4533  1.2313  0.1593
 7367TIP3   OH243591   5.740   6.396   5.504 -0.4866 -0.1853  0.6179
 7367TIP3    H143592   5.783   6.467   5.456  0.0208  0.0067  1.3353
 7367TIP3    H243593   5.657   6.433   5.532  0.1126  0.4252  1.6792
 7368TIP3   OH243594   1.794   0.335   1.442  0.0145 -0.2048 -0.2081
 7368TIP3    H143595   1.871   0.357   1.494 -0.9748  0.8760  0.8509
 7368TIP3    H243596   1.828   0.278   1.373  1.7503  0.2092  0.2438
 7369TIP3   OH243597   3.599   1.174   4.166  0.0105  0.1494 -0.3252
 7369TIP3    H143598   3.632   1.263   4.176  0.4096  0.0669 -0.8662
 7369TIP3    H243599   3.643   1.124   4.235 -0.7746  0.5121  0.4559
 7370TIP3   OH243600   4.943   1.203   3.031  0.1313 -0.3193  0.2537
 7370TIP3    H143601   4.943   1.235   3.122 -0.7529 -1.0611  0.5220
 7370TIP3    H243602   4.965   1.110   3.038 -0.1389 -0.4245 -0.2826
 7371TIP3   OH243603   5.253   5.225  12.959 -0.0128  0.3527  0.1973
 7371TIP3    H143604   5.199   5.178  12.895 -0.4818  1.4564 -0.2393
 7371TIP3    H243605   5.276   5.307  12.916  0.6684  0.6012  0.9997
 7372TIP3   OH243606   1.286   4.019  14.305 -0.0166  0.5448 -0.8042
 7372TIP3    H143607   1.265   4.070  14.227 -1.3784 -0.4228 -1.1013
 7372TIP3    H243608   1.279   4.081  14.377 -0.4704  1.0450 -1.2699
 7373TIP3   OH243609   2.856   2.001   1.699 -0.0624  0.1372  0.1819
 7373TIP3    H143610   2.915   1.990   1.624 -1.9342 -0.4419 -1.2880
 7373TIP3    H243611   2.859   1.916   1.743 -0.8284 -0.3693 -0.7070
 7374TIP3   OH243612   2.466   5.342  12.723  0.2564  0.2278 -0.1645
 7374TIP3    H143613   2.527   5.284  12.677 -0.0255  0.8408 -1.3429
 7374TIP3    H243614   2.521   5.393  12.782  0.6216 -0.5853  0.2134
 7375TIP3   OH243615   2.847   1.649  11.838  0.0472  0.2123  0.2441
 7375TIP3    H143616   2.836   1.604  11.922 -0.3610  0.1424  0.1556
 7375TIP3    H243617   2.894   1.586  11.783  2.1733  1.0007  1.0370
 7376TIP3   OH243618   4.162   4.015  11.717 -0.3009  0.2559 -0.1553
 7376TIP3    H143619   4.188   4.083  11.778  1.1045  1.1607 -1.6960
 7376TIP3    H243620   4.084   4.050  11.673  0.3000  0.8238 -0.7999
 7377TIP3   OH243621   1.349   1.277  13.332 -0.5633 -0.5326 -0.6210
 7377TIP3    H143622   1.388   1.352  13.377 -0.1412 -0.2736 -1.4059
 7377TIP3    H243623   1.361   1.204  13.394 -2.1236  0.2689  0.7119
 7378TIP3   OH243624   6.608   3.767   1.302  0.8573  0.0395 -0.2087
 7378TIP3    H143625   6.555   3.690   1.320 -0.8090  1.4744  1.4453
 7378TIP3    H243626   6.545   3.837   1.285  2.2867  1.2339 -0.8669
 7379TIP3   OH243627   3.933   6.515  17.075  0.2183 -0.0936 -0.3180
 7379TIP3    H143628   3.921   6.511  17.170 -0.5641 -1.5827 -0.4513
 7379TIP3    H243629   4.016   6.470  17.059 -0.0717 -0.6077 -0.3996
 7380TIP3   OH243630   4.364   1.335  17.113 -0.1009 -0.0602  0.3193
 7380TIP3    H143631   4.305   1.374  17.178  2.5983  0.3305  2.7396
 7380TIP3    H243632   4.315   1.262  17.076 -2.3820  0.7701  1.5095
 7381TIP3   OH243633   5.450   2.033  12.787  0.3381  0.2537 -0.2487
 7381TIP3    H143634   5.541   2.024  12.818  0.4696 -3.0244 -1.2123
 7381TIP3    H243635   5.398   1.986  12.853 -0.1646 -1.0579 -1.5331
 7382TIP3   OH243636   0.073   3.223   6.486  0.4147  0.2308  0.0267
 7382TIP3    H143637   0.069   3.308   6.442  0.2994  0.7588  1.0261
 7382TIP3    H243638   0.018   3.166   6.433 -0.3882  1.0657 -0.0586
 7383TIP3   OH243639   4.710   5.327  15.488 -0.1365 -0.2623  0.0307
 7383TIP3    H143640   4.660   5.404  15.460  0.5110  0.6708  1.3362
 7383TIP3    H243641   4.800   5.347  15.463  0.2034 -0.1017  1.3271
 7384TIP3   OH243642   6.510   2.448   5.864 -0.1910  0.2553  0.1696
 7384TIP3    H143643   6.492   2.522   5.806 -2.2013 -1.6357 -1.8033
 7384TIP3    H243644   6.468   2.473   5.947 -0.5519  1.4550 -0.3436
 7385TIP3   OH243645   2.319   4.932   2.123 -0.5544 -0.7519 -0.4069
 7385TIP3    H143646   2.387   4.870   2.097 -0.6364 -1.1484  0.2793
 7385TIP3    H243647   2.362   5.017   2.121 -0.6423 -0.7202 -2.0760
 7386TIP3   OH243648   5.781   1.961  15.627 -0.6831  0.0708 -0.0306
 7386TIP3    H143649   5.810   1.923  15.710  0.8436  0.4914 -0.3603
 7386TIP3    H243650   5.703   1.910  15.605 -0.1128 -1.2189  0.7892
 7387TIP3   OH243651   2.478   0.210   1.657  0.1770  0.4231 -0.0928
 7387TIP3    H143652   2.570   0.194   1.677  0.1907  0.1233 -0.3915
 7387TIP3    H243653   2.479   0.282   1.594  0.2005  0.4874 -0.0193
 7388TIP3   OH243654   1.615   2.603  13.843 -0.2961  0.2481  0.7341
 7388TIP3    H143655   1.655   2.523  13.877 -0.6432  0.1514  0.9275
 7388TIP3    H243656   1.676   2.672  13.866 -0.2754  0.1116  1.0975
 7389TIP3   OH243657   4.196   3.773  12.012  0.1662 -0.3811 -0.1827
 7389TIP3    H143658   4.277   3.781  11.962 -0.0204  0.0042 -0.4330
 7389TIP3    H243659   4.129   3.813  11.955 -0.2163 -0.8032 -0.0339
 7390TIP3   OH243660   3.216   6.282  14.297  0.2216  0.0291 -0.2246
 7390TIP3    H143661   3.144   6.306  14.355  0.4095 -0.5352  0.2537
 7390TIP3    H243662   3.275   6.231  14.352  1.8012  1.7898 -0.1830
 7391TIP3   OH243663   4.089   2.900  13.876 -0.4338 -0.3133 -0.4281
 7391TIP3    H143664   4.150   2.968  13.903 -0.1144  0.0613 -1.9887
 7391TIP3    H243665   4.015   2.948  13.839 -0.1593 -0.7975 -1.6363
 7392TIP3   OH243666   3.541   2.391   1.776 -0.2216  0.3222 -0.2844
 7392TIP3    H143667   3.462   2.406   1.828 -0.6547  1.4862 -1.2436
 7392TIP3    H243668   3.611   2.386   1.841 -1.3333 -3.8801  0.9266
 7393TIP3   OH243669   3.285   3.093  12.732 -0.6707  0.6680 -0.0632
 7393TIP3    H143670   3.363   3.040  12.748  0.5266  2.3485 -0.0412
 7393TIP3    H243671   3.314   3.159  12.669 -1.7059  2.0815  0.8879
 7394TIP3   OH243672   4.677   4.450  10.613  0.6821  0.0232 -0.3227
 7394TIP3    H143673   4.689   4.542  10.590 -1.0490  0.5075  0.5548
 7394TIP3    H243674   4.766   4.418  10.629  1.5364  0.8571 -2.9981
 7395TIP3   OH243675   0.879   5.966   3.905  0.7174 -0.1517 -0.3223
 7395TIP3    H143676   0.891   5.876   3.877 -3.0010 -0.3351 -1.8190
 7395TIP3    H243677   0.832   5.960   3.988  1.8665  0.4714  0.4065
 7396TIP3   OH243678   1.485   6.184   1.792  0.3891  0.0041 -0.0671
 7396TIP3    H143679   1.496   6.128   1.715  0.0579  1.9581 -1.6226
 7396TIP3    H243680   1.518   6.270   1.765 -0.4117  0.9542  1.7340
 7397TIP3   OH243681   0.551   0.620  11.284 -0.3112 -0.3321 -0.7401
 7397TIP3    H143682   0.587   0.658  11.364 -1.5576  0.1900 -0.3978
 7397TIP3    H243683   0.595   0.667  11.213 -0.0724  0.0487 -0.3466
 7398TIP3   OH243684   2.462   0.432   5.504 -0.2391 -0.3415  0.5421
 7398TIP3    H143685   2.517   0.469   5.574 -2.4697  0.0420  2.1999
 7398TIP3    H243686   2.438   0.345   5.536  0.0523 -0.8524 -0.5685
 7399TIP3   OH243687   3.415   4.812  13.666 -0.0001 -0.4665 -0.7512
 7399TIP3    H143688   3.322   4.813  13.644  0.2987  2.0196 -2.3128
 7399TIP3    H243689   3.421   4.856  13.750 -0.2373 -0.6409 -0.6438
 7400TIP3   OH243690   2.602   0.559  14.760  0.3383  0.2941  0.8770
 7400TIP3    H143691   2.597   0.646  14.799  0.7055  0.1386  1.2765
 7400TIP3    H243692   2.571   0.571  14.670 -1.3744  0.4959  1.4575
 7401TIP3   OH243693   2.895   4.092   4.711 -0.7706 -0.2935  0.1424
 7401TIP3    H143694   2.985   4.121   4.698 -0.6692 -0.3291  0.7648
 7401TIP3    H243695   2.851   4.166   4.752 -0.7939 -0.6046  0.6872
 7402TIP3   OH243696   2.550   3.669   2.641  0.2360 -0.5430 -0.1177
 7402TIP3    H143697   2.624   3.728   2.652  1.4640 -2.0409  0.0037
 7402TIP3    H243698   2.486   3.719   2.591  1.2553  0.8432 -0.0794
 7403TIP3   OH243699   0.280   2.675  13.245  0.8072 -0.1204 -0.6057
 7403TIP3    H143700   0.242   2.587  13.249 -0.9748  0.6442  1.1655
 7403TIP3    H243701   0.367   2.662  13.206  0.6443 -2.6718 -0.2882
 7404TIP3   OH243702   0.796   4.554   5.223  0.0970  0.2063  0.7558
 7404TIP3    H143703   0.711   4.595   5.231 -0.9519 -1.9440  1.5304
 7404TIP3    H243704   0.778   4.468   5.185  2.1177  0.2463 -0.4871
 7405TIP3   OH243705   1.402   2.396   5.048  0.1887 -0.2633 -0.4583
 7405TIP3    H143706   1.486   2.351   5.057 -0.2414 -1.1145 -0.6219
 7405TIP3    H243707   1.421   2.470   4.990  1.1497  0.4433  0.6964
 7406TIP3   OH243708   5.268   3.568  11.667 -0.3093 -0.3596  0.4380
 7406TIP3    H143709   5.331   3.550  11.737 -0.6675  1.1964  1.2018
 7406TIP3    H243710   5.200   3.620  11.709 -0.6254  0.4715 -1.0356
 7407TIP3   OH243711   2.767   1.349   2.909 -0.0057  0.3328  0.2751
 7407TIP3    H143712   2.677   1.375   2.930 -0.1776  0.1182 -0.1882
 7407TIP3    H243713   2.777   1.370   2.817  0.2380 -0.1595  0.1878
 7408TIP3   OH243714   2.942   1.729  16.482  0.1175 -0.2438  0.3003
 7408TIP3    H143715   2.953   1.674  16.560 -0.6134 -2.7494 -1.2399
 7408TIP3    H243716   2.847   1.742  16.476  0.2982  1.7290  0.9096
 7409TIP3   OH243717   5.089   5.809  15.241  0.5345  0.5604  0.4524
 7409TIP3    H143718   5.024   5.835  15.306 -0.4008 -0.8430  0.1461
 7409TIP3    H243719   5.101   5.886  15.186 -0.8985  0.8554  0.5146
 7410TIP3   OH243720   4.112   3.979  10.877 -0.1588 -0.2430  1.0452
 7410TIP3    H143721   4.045   3.951  10.814  1.3168 -1.3207 -0.1230
 7410TIP3    H243722   4.148   4.059  10.839  1.1395 -1.2128  0.1528
 7411TIP3   OH243723   5.442   6.033  12.557  0.6516 -0.3016  0.4579
 7411TIP3    H143724   5.479   6.069  12.477 -0.0906 -0.6705 -0.0656
 7411TIP3    H243725   5.453   5.938  12.548  0.4099 -0.3544  0.7055
 7412TIP3   OH243726   5.792   1.331   5.143  0.2131 -0.0218  0.0760
 7412TIP3    H143727   5.760   1.343   5.233  0.4375 -0.3478  0.1993
 7412TIP3    H243728   5.873   1.382   5.139 -0.2604  0.7268 -0.2089
 7413TIP3   OH243729   3.597   1.838  14.938  0.7606  0.0296 -0.9111
 7413TIP3    H143730   3.615   1.921  14.982 -0.2092 -1.6871  3.1554
 7413TIP3    H243731   3.684   1.800  14.922  1.1561  0.9825 -1.0834
 7414TIP3   OH243732   4.975   5.054  12.184  0.3706 -0.5610 -0.1824
 7414TIP3    H143733   5.060   5.010  12.172  0.6203  0.1779 -1.2829
 7414TIP3    H243734   4.912   4.994  12.144  0.3201 -1.2352  0.8677
 7415TIP3   OH243735   2.687   4.881   1.407  0.1110  0.4402  0.5469
 7415TIP3    H143736   2.779   4.904   1.395  0.2600 -0.6066 -0.4674
 7415TIP3    H243737   2.656   4.941   1.475  1.3803  1.2009  0.4831
 7416TIP3   OH243738   0.932   5.073  14.902  0.0859 -0.0253  0.5737
 7416TIP3    H143739   0.921   5.165  14.876  0.0273  0.7115  2.9472
 7416TIP3    H243740   1.026   5.058  14.897 -0.0361 -0.3991 -1.4036
 7417TIP3   OH243741   3.756   0.761   0.388  0.1328 -0.4264 -0.3603
 7417TIP3    H143742   3.744   0.759   0.483 -1.5615 -0.7135 -0.5404
 7417TIP3    H243743   3.790   0.674   0.366 -1.1088 -0.9832 -0.1716
 7418TIP3   OH243744   1.242   0.495  12.689 -0.2567  0.4095 -0.0043
 7418TIP3    H143745   1.321   0.481  12.740 -0.3737 -0.7403 -0.1177
 7418TIP3    H243746   1.206   0.407  12.675  0.3279  0.5431 -2.9383
 7419TIP3   OH243747   3.899   1.190   4.034 -0.2183  0.4493  0.7614
 7419TIP3    H143748   3.887   1.227   4.121  1.2669 -0.7492  1.5230
 7419TIP3    H243749   3.990   1.159   4.033  0.3310  1.8526 -1.7761
 7420TIP3   OH243750   6.726   1.789  14.897 -0.2944 -0.7828  0.0823
 7420TIP3    H143751   6.737   1.852  14.825  0.9934 -1.4960 -0.3705
 7420TIP3    H243752   6.638   1.806  14.930  0.0740  1.3972  0.1003
 7421TIP3   OH243753   0.887   6.505   3.319 -0.1520 -0.6491 -0.5694
 7421TIP3    H143754   0.853   6.589   3.351  0.2342 -0.8249  0.3326
 7421TIP3    H243755   0.843   6.492   3.235 -2.1663 -0.7616  0.4369
 7422TIP3   OH243756   3.574   3.388  15.313 -0.2405 -0.0543  0.1295
 7422TIP3    H143757   3.658   3.346  15.296  1.6366  3.0838  0.9273
 7422TIP3    H243758   3.586   3.433  15.396 -1.1327  3.9391 -1.6522
 7423TIP3   OH243759   5.545   6.100   3.108 -0.1334 -0.5235  0.1781
 7423TIP3    H143760   5.562   6.011   3.076 -0.0651 -0.9987  1.4838
 7423TIP3    H243761   5.469   6.091   3.165  0.7021 -0.0020  1.4117
 7424TIP3   OH243762   5.665   0.529   0.575  0.0332  0.2333  0.6623
 7424TIP3    H143763   5.689   0.442   0.542  0.1258  0.7657 -0.7080
 7424TIP3    H243764   5.592   0.512   0.635 -0.4119 -0.7291 -0.1230
 7425TIP3   OH243765   1.885   1.839   1.043  0.6484 -0.3965  0.3639
 7425TIP3    H143766   1.897   1.933   1.058  2.7418 -0.8582  2.1690
 7425TIP3    H243767   1.811   1.814   1.098 -0.7713  0.3557 -1.1172
 7426TIP3   OH243768   6.326   5.577  13.472  0.2592  0.1636 -0.1728
 7426TIP3    H143769   6.239   5.537  13.468  0.4246 -0.0890 -2.0211
 7426TIP3    H243770   6.362   5.548  13.556 -1.0173 -0.6209  0.1262
 7427TIP3   OH243771   6.152   1.461   1.168  0.0708 -0.2693  0.3394
 7427TIP3    H143772   6.077   1.502   1.125  0.5196 -1.2439 -1.4602
 7427TIP3    H243773   6.115   1.384   1.211 -0.2337  0.2186  0.9691
 7428TIP3   OH243774   6.575   0.856  11.050  0.3331 -0.1024 -0.2412
 7428TIP3    H143775   6.521   0.821  11.121  0.2400  0.2904 -0.1176
 7428TIP3    H243776   6.661   0.817  11.064 -0.2104 -1.6982 -1.1489
 7429TIP3   OH243777   5.470   0.224  13.360 -0.0468 -0.8803  0.4263
 7429TIP3    H143778   5.474   0.181  13.445 -1.4116 -0.0513  0.9373
 7429TIP3    H243779   5.555   0.268  13.351  0.0479 -0.8520  1.4140
 7430TIP3   OH243780   3.069   6.083   4.096 -0.7203 -0.3979 -0.0106
 7430TIP3    H143781   3.062   6.012   4.159  2.3257 -0.3916  0.4495
 7430TIP3    H243782   3.049   6.162   4.146 -2.7415 -0.7358 -0.2003
 7431TIP3   OH243783   2.556   4.765   3.015 -0.3056 -0.3234  0.0879
 7431TIP3    H143784   2.547   4.811   2.932  1.1879 -0.2982 -0.0883
 7431TIP3    H243785   2.650   4.766   3.033 -0.7628  1.7907  3.0080
 7432TIP3   OH243786   5.653   1.942   2.055  0.0849 -0.0116  0.2842
 7432TIP3    H143787   5.703   2.013   2.094 -0.0097  0.3670 -0.2784
 7432TIP3    H243788   5.651   1.874   2.122 -0.1476  0.6625  0.9666
 7433TIP3   OH243789   5.836   5.267  15.258 -0.5852  0.2008  0.0260
 7433TIP3    H143790   5.747   5.296  15.240  0.1909  1.0187 -3.1091
 7433TIP3    H243791   5.852   5.198  15.193  1.7000  1.5828 -1.0250
 7434TIP3   OH243792   5.347   1.420  13.394 -0.0733 -0.0940 -0.7092
 7434TIP3    H143793   5.321   1.343  13.444  0.4070  0.7323  0.8936
 7434TIP3    H243794   5.265   1.462  13.369 -0.3341 -0.1579  0.0100
 7435TIP3   OH243795   2.100   3.043   5.602  0.1903  0.0677  0.4770
 7435TIP3    H143796   2.110   3.130   5.642  1.2624  0.2430 -0.1057
 7435TIP3    H243797   2.174   2.992   5.637  1.0476  0.1725 -1.0698
 7436TIP3   OH243798   0.477   3.077   3.818 -0.3818  1.0178 -0.1245
 7436TIP3    H143799   0.456   3.167   3.792 -0.0376  0.8168 -1.1400
 7436TIP3    H243800   0.402   3.025   3.789 -0.7865  1.0256  0.8646
 7437TIP3   OH243801   0.667   6.639   1.442 -0.0172 -0.2892 -0.1435
 7437TIP3    H143802   0.625   6.694   1.377 -1.9473  0.5149  1.6606
 7437TIP3    H243803   0.756   6.627   1.410 -0.1288  2.2363 -1.6199
 7438TIP3   OH243804   2.705   2.565   0.747  0.4912  0.3319 -0.4326
 7438TIP3    H143805   2.672   2.652   0.725  0.5277  0.8930  1.5317
 7438TIP3    H243806   2.636   2.505   0.719 -2.9554  1.5069  4.3868
 7439TIP3   OH243807   1.149   0.610   5.058 -0.3102 -0.1344 -0.1542
 7439TIP3    H143808   1.123   0.669   4.987  0.3780 -0.5958 -0.7968
 7439TIP3    H243809   1.122   0.656   5.138 -0.0958  0.9020 -0.6614
 7440TIP3   OH243810   2.634   3.351  15.052 -0.7309 -0.9858 -0.3374
 7440TIP3    H143811   2.677   3.291  14.991 -1.6917 -2.2011  0.1449
 7440TIP3    H243812   2.663   3.323  15.139  1.5098  1.4290 -0.2103
 7441TIP3   OH243813   6.403   4.194   3.941 -0.0738  0.3189  0.0021
 7441TIP3    H143814   6.318   4.200   3.986  0.6135  1.9948  1.1549
 7441TIP3    H243815   6.420   4.100   3.936 -2.2531 -0.0898 -0.7796
 7442TIP3   OH243816   3.146   3.188  13.866 -0.1101  0.6380 -0.0202
 7442TIP3    H143817   3.163   3.132  13.941  0.8708  1.0054  0.0402
 7442TIP3    H243818   3.052   3.180  13.851 -0.0475 -0.7411  0.2062
 7443TIP3   OH243819   6.116   2.105   5.164  0.0441  0.1286 -0.3351
 7443TIP3    H143820   6.054   2.160   5.211  2.1021  2.5779 -0.2197
 7443TIP3    H243821   6.201   2.125   5.205  1.0317 -2.5542 -0.8901
 7444TIP3   OH243822   3.524   3.186   2.618  0.0913  0.3816 -0.0586
 7444TIP3    H143823   3.467   3.262   2.628 -0.4742 -0.0245 -0.0956
 7444TIP3    H243824   3.514   3.160   2.527  1.0286  0.8286 -0.3018
 7445TIP3   OH243825   6.695   3.559  14.427 -0.1182  0.1453  0.0126
 7445TIP3    H143826   6.644   3.478  14.419 -0.1660  0.1365  0.3828
 7445TIP3    H243827   6.641   3.626  14.385 -0.0205 -0.0347 -0.4121
 7446TIP3   OH243828   5.327   3.655   3.374 -0.3802 -0.2425 -0.6244
 7446TIP3    H143829   5.240   3.634   3.338 -1.3238 -0.3852  1.5856
 7446TIP3    H243830   5.382   3.580   3.350 -1.2652 -0.8605 -0.7669
 7447TIP3   OH243831   6.251   1.419   5.602  0.3868  0.1998 -0.0338
 7447TIP3    H143832   6.194   1.347   5.576 -0.5327  0.8599  0.0928
 7447TIP3    H243833   6.201   1.465   5.670  1.4939  0.2190  0.7913
 7448TIP3   OH243834   2.343   0.131   3.693 -0.5269  0.2172 -0.2682
 7448TIP3    H143835   2.328   0.200   3.757 -0.6112  0.1262 -0.1889
 7448TIP3    H243836   2.292   0.057   3.726 -0.9095  0.3035 -0.6582
 7449TIP3   OH243837   4.158   3.047  13.208 -0.0182 -0.2316  0.1963
 7449TIP3    H143838   4.100   3.093  13.148 -0.0236 -0.0369  0.3461
 7449TIP3    H243839   4.143   3.090  13.293  0.4516 -0.0768  0.2064
 7450TIP3   OH243840   4.877   3.266   1.668  0.1341 -0.4838  0.3725
 7450TIP3    H143841   4.839   3.340   1.620  0.8425  0.4116  1.1626
 7450TIP3    H243842   4.897   3.202   1.600  1.3613  0.8675 -0.5853
 7451TIP3   OH243843   3.513   4.260  15.945 -0.6039 -0.3700  0.1709
 7451TIP3    H143844   3.552   4.232  15.862 -0.8062 -1.1753  0.3445
 7451TIP3    H243845   3.564   4.337  15.970  1.4659 -1.8609  0.8039
 7452TIP3   OH243846   5.839   5.435   5.452 -0.0461  0.2184  0.0805
 7452TIP3    H143847   5.854   5.385   5.371  0.6774  1.0683 -0.3309
 7452TIP3    H243848   5.783   5.378   5.505  0.7497 -1.0318 -0.3609
 7453TIP3   OH243849   1.973   6.151   1.698 -0.2559  0.0091  0.2691
 7453TIP3    H143850   2.066   6.161   1.719 -0.4135  0.1935  0.9180
 7453TIP3    H243851   1.956   6.218   1.631  0.4653 -1.1806 -1.1495
 7454TIP3   OH243852   3.039   3.565   2.098 -0.3007 -0.1233  0.1536
 7454TIP3    H143853   2.973   3.587   2.032  0.5434  1.5110 -0.1740
 7454TIP3    H243854   3.043   3.469   2.095 -2.2840 -0.2497 -0.1672
 7455TIP3   OH243855   0.300   3.380   4.788 -0.0110 -0.0719 -0.1304
 7455TIP3    H143856   0.304   3.439   4.712  0.9015  1.6192  1.1360
 7455TIP3    H243857   0.392   3.358   4.805 -0.2955 -1.3186 -0.1568
 7456TIP3   OH243858   6.481   1.994   4.348 -0.4241 -0.3340 -0.4134
 7456TIP3    H143859   6.575   1.983   4.335 -0.4358  0.4015 -1.2183
 7456TIP3    H243860   6.473   2.042   4.431 -0.0693 -0.0778 -0.5268
 7457TIP3   OH243861   4.456   0.208  16.547  0.7778 -0.1018  0.0645
 7457TIP3    H143862   4.395   0.279  16.526 -1.5184 -1.9915 -0.0624
 7457TIP3    H243863   4.505   0.241  16.622 -1.4943  0.9585  1.2047
 7458TIP3   OH243864   1.636   2.895  11.123  0.4163  0.5398  0.0649
 7458TIP3    H143865   1.723   2.873  11.158  1.0041 -3.5614 -3.2329
 7458TIP3    H243866   1.578   2.829  11.159 -0.6909  1.2831 -0.3091
 7459TIP3   OH243867   3.544   5.861   1.620 -0.2561 -0.4433 -0.0605
 7459TIP3    H143868   3.549   5.835   1.528 -2.5422 -0.0998 -0.3321
 7459TIP3    H243869   3.530   5.956   1.617  2.0875  0.0050  0.7665
 7460TIP3   OH243870   1.833   3.232  12.326  0.4628 -0.0906  0.0748
 7460TIP3    H143871   1.796   3.173  12.391 -0.4098  0.2209 -0.1248
 7460TIP3    H243872   1.878   3.299  12.377 -1.0926  0.7374  0.4248
 7461TIP3   OH243873   6.381   4.124  11.378 -0.2445 -0.1776 -0.6663
 7461TIP3    H143874   6.372   4.210  11.339 -0.4269  0.3606  0.5159
 7461TIP3    H243875   6.452   4.082  11.330 -0.1662  0.6158 -1.2555
 7462TIP3   OH243876   2.002   1.160   5.080  0.2351 -0.3478 -0.3166
 7462TIP3    H143877   2.028   1.135   4.991  0.6291 -0.7843 -0.0808
 7462TIP3    H243878   2.073   1.216   5.111  1.0574 -1.7465  0.4207
 7463TIP3   OH243879   4.718   4.017  15.537  0.2365  0.4676  0.1941
 7463TIP3    H143880   4.755   3.933  15.563  0.5452 -0.0736 -1.8826
 7463TIP3    H243881   4.765   4.041  15.458 -1.2467  1.6047 -0.3826
 7464TIP3   OH243882   5.286   1.637   2.544 -0.2341  0.2885  0.1848
 7464TIP3    H143883   5.367   1.612   2.588  0.1741  0.1673 -0.6261
 7464TIP3    H243884   5.219   1.628   2.612  0.4292  0.4330  0.8751
 7465TIP3   OH243885   6.128   4.082  10.627  0.1331  0.3176  0.2000
 7465TIP3    H143886   6.167   4.054  10.544  0.5184  1.2980  0.0418
 7465TIP3    H243887   6.050   4.132  10.602 -0.1548  0.0135  0.4629
 7466TIP3   OH243888   1.044   4.453   1.542 -0.1334  0.1394  0.3171
 7466TIP3    H143889   1.045   4.547   1.559 -0.0046  0.3702 -0.8385
 7466TIP3    H243890   1.048   4.413   1.628 -0.8013  1.1924  0.8640
 7467TIP3   OH243891   0.805   2.835  12.159  0.8816 -0.0542  0.3159
 7467TIP3    H143892   0.725   2.850  12.110  1.1215 -1.6134 -0.6369
 7467TIP3    H243893   0.865   2.903  12.129 -0.1688  1.3850  1.3445
 7468TIP3   OH243894   5.864   5.021   3.971  0.1102 -0.2399 -0.2375
 7468TIP3    H143895   5.914   4.992   4.047 -0.0127  0.2051  0.0179
 7468TIP3    H243896   5.922   5.006   3.896  0.7860  0.6285  0.0943
 7469TIP3   OH243897   5.719   6.829   5.589 -0.2838  0.2692  0.9735
 7469TIP3    H143898   5.629   6.827   5.556  0.2866  0.0296 -0.6198
 7469TIP3    H243899   5.739   6.922   5.599 -0.2655  0.3700  0.0495
 7470TIP3   OH243900   6.305   2.856  14.363  0.3747 -0.7264 -0.0123
 7470TIP3    H143901   6.400   2.862  14.358  0.5039 -1.2880  1.3764
 7470TIP3    H243902   6.281   2.792  14.296  1.0190 -0.9933  0.0128
 7471TIP3   OH243903   1.622   0.889  13.230  0.4663 -0.1239  0.2811
 7471TIP3    H143904   1.537   0.897  13.275  0.0961 -2.5250  0.1621
 7471TIP3    H243905   1.646   0.979  13.209 -2.0009  0.6605  0.4122
 7472TIP3   OH243906   0.592   2.967  13.186 -0.4225  0.5353 -0.5532
 7472TIP3    H143907   0.643   2.907  13.132  1.6802  1.3944  0.3616
 7472TIP3    H243908   0.531   3.009  13.125  0.2308 -0.2425 -1.7811
 7473TIP3   OH243909   5.819   5.561  12.983 -0.0698 -0.3785 -0.3888
 7473TIP3    H143910   5.829   5.466  12.994 -0.1626 -0.2776  0.7043
 7473TIP3    H243911   5.804   5.594  13.072 -1.6626  0.4686 -0.9202
 7474TIP3   OH243912   4.148   6.288  14.919 -0.3699  0.1633  0.2151
 7474TIP3    H143913   4.081   6.348  14.886  0.7921  1.8581  0.7823
 7474TIP3    H243914   4.198   6.262  14.841 -0.6135  0.2599  0.0249
 7475TIP3   OH243915   5.030   0.727  11.182 -0.1250 -0.2158 -0.2181
 7475TIP3    H143916   4.980   0.791  11.233 -0.5415 -0.5033 -0.2519
 7475TIP3    H243917   5.010   0.748  11.091  1.3234  0.8638 -0.3264
 7476TIP3   OH243918   4.239   3.434  15.523  0.3513  0.9405 -0.2489
 7476TIP3    H143919   4.163   3.376  15.534  1.3518 -0.5300 -0.6430
 7476TIP3    H243920   4.294   3.417  15.599  1.0848  0.6688 -0.8214
 7477TIP3   OH243921   5.477   1.990  13.386 -0.1170 -0.1949 -0.7041
 7477TIP3    H143922   5.410   1.941  13.432  2.3286 -3.7130 -0.4816
 7477TIP3    H243923   5.430   2.056  13.336 -3.3747 -0.3121  1.9195
 7478TIP3   OH243924   3.328   4.249  12.170  0.1187  0.1207 -0.1126
 7478TIP3    H143925   3.354   4.171  12.122  1.6394  0.6607 -0.1944
 7478TIP3    H243926   3.408   4.299  12.180 -0.5240  0.9066  1.3712
 7479TIP3   OH243927   5.243   3.135  12.432 -0.5549  0.0174  0.4438
 7479TIP3    H143928   5.295   3.215  12.424  0.4444 -0.6337  0.1757
 7479TIP3    H243929   5.195   3.129  12.349  0.0844 -0.1321  0.0754
 7480TIP3   OH243930   0.939   3.332   0.345 -0.6436 -0.1502  0.2603
 7480TIP3    H143931   0.950   3.404   0.283 -0.9587 -1.3778 -1.2959
 7480TIP3    H243932   0.922   3.375   0.429 -1.8338  1.5949 -0.8063
 7481TIP3   OH243933   3.626   0.484  16.636  0.2047 -0.4491 -0.3032
 7481TIP3    H143934   3.569   0.535  16.694  1.2275 -0.2474  0.5336
 7481TIP3    H243935   3.587   0.497  16.549  0.9272  2.5308 -0.2842
 7482TIP3   OH243936   1.655   0.056   2.127  0.0293 -0.3621  0.0359
 7482TIP3    H143937   1.560   0.065   2.125 -0.2476  0.3393  4.8249
 7482TIP3    H243938   1.687   0.137   2.168  2.3442 -1.6322  1.0035
 7483TIP3   OH243939   5.401   3.405   2.355 -0.1215  0.0133 -0.1324
 7483TIP3    H143940   5.463   3.381   2.285  3.3067  0.5357  2.4343
 7483TIP3    H243941   5.439   3.483   2.395 -2.6779  0.5451  1.4738
 7484TIP3   OH243942   3.392   6.154   0.884 -0.3549  0.4306 -0.1322
 7484TIP3    H143943   3.300   6.178   0.870 -0.6362 -1.1289 -1.2421
 7484TIP3    H243944   3.388   6.065   0.920  0.6636  1.4781  2.8400
 7485TIP3   OH243945   0.516   3.187  12.572  0.1870 -0.3819 -0.6541
 7485TIP3    H143946   0.488   3.246  12.641 -1.0339 -1.0379 -0.5696
 7485TIP3    H243947   0.450   3.196  12.503 -0.1334 -1.7673 -0.5621
 7486TIP3   OH243948   2.243   0.938   3.993  0.5247  0.7598 -0.0605
 7486TIP3    H143949   2.307   0.902   3.933 -1.1247 -0.1038 -1.4057
 7486TIP3    H243950   2.287   1.011   4.035  2.6976 -0.4200 -0.1503
 7487TIP3   OH243951   6.360   0.881   0.162  0.1912 -0.1996 -0.3021
 7487TIP3    H143952   6.388   0.945   0.227  0.7155 -0.4240 -0.2994
 7487TIP3    H243953   6.265   0.890   0.158  0.1615 -0.1402  0.4466
 7488TIP3   OH243954   1.105   0.600  11.632  0.7498 -0.0110 -0.4534
 7488TIP3    H143955   1.042   0.568  11.567 -0.1612  1.8381 -0.5636
 7488TIP3    H243956   1.191   0.589  11.590  0.4449 -1.6644 -0.7002
 7489TIP3   OH243957   6.792   0.450   1.393  0.4810  0.3087 -0.0748
 7489TIP3    H143958   6.875   0.495   1.375 -0.0456  0.1781 -3.3832
 7489TIP3    H243959   6.728   0.494   1.338 -0.6690 -2.4687 -1.1449
 7490TIP3   OH243960   5.406   5.704   5.137 -0.0652  0.1184 -0.3401
 7490TIP3    H143961   5.377   5.772   5.076  0.7838  1.3342  0.5659
 7490TIP3    H243962   5.402   5.623   5.087 -2.0632  0.6644 -1.1611
 7491TIP3   OH243963   4.558   5.808  11.394  0.2724 -0.5587  0.4642
 7491TIP3    H143964   4.567   5.801  11.489 -0.1002 -0.5291  0.5027
 7491TIP3    H243965   4.466   5.830  11.380  1.1621  4.1488  0.3774
 7492TIP3   OH243966   2.724   1.507  15.179  0.1115  0.0852 -0.6182
 7492TIP3    H143967   2.784   1.505  15.253 -1.8749 -1.1762  1.0507
 7492TIP3    H243968   2.779   1.533  15.104  2.2333  1.1487  1.1947
 7493TIP3   OH243969   0.793   6.075  16.074 -0.0890  0.4012 -0.0146
 7493TIP3    H143970   0.868   6.016  16.075  0.6670  1.3422  0.3541
 7493TIP3    H243971   0.791   6.110  15.986  0.3535  0.9343  0.1866
 7494TIP3   OH243972   6.607   3.550  15.331 -0.2160  0.2430 -0.0933
 7494TIP3    H143973   6.699   3.533  15.351  0.3997 -0.6541 -3.1662
 7494TIP3    H243974   6.572   3.464  15.306 -1.2883  0.9159 -0.9969
 7495TIP3   OH243975   6.247   6.218  13.888  0.0030 -0.2945 -0.5080
 7495TIP3    H143976   6.198   6.290  13.927  0.1039 -1.4213  1.8360
 7495TIP3    H243977   6.185   6.146  13.884  0.3466 -0.5579 -1.3470
 7496TIP3   OH243978   3.364   1.045   1.447  0.4556  0.1425 -0.5784
 7496TIP3    H143979   3.444   1.050   1.395  1.5490 -1.2569  0.8643
 7496TIP3    H243980   3.388   1.077   1.533 -0.6398  0.0591 -0.2198
 7497TIP3   OH243981   3.824   6.375   0.672  0.1570  0.5591 -0.2652
 7497TIP3    H143982   3.865   6.452   0.634  0.8433  1.1339  1.5484
 7497TIP3    H243983   3.887   6.343   0.737 -0.7370 -0.6613  0.0373
 7498TIP3   OH243984   0.736   5.042  12.729  0.5151  0.3157  0.1503
 7498TIP3    H143985   0.685   5.120  12.753  1.1055  0.7866 -0.0990
 7498TIP3    H243986   0.742   4.991  12.810  0.5082  0.7518  0.4279
 7499TIP3   OH243987   3.140   1.114  10.726  0.0956  0.2435 -0.0543
 7499TIP3    H143988   3.131   1.179  10.795  0.8511 -0.6898  0.9526
 7499TIP3    H243989   3.206   1.149  10.667  1.4442 -0.1483  1.1654
 7500TIP3   OH243990   1.721   3.849  11.080 -0.2865  0.4543 -0.5440
 7500TIP3    H143991   1.781   3.921  11.059  0.2223 -0.4189 -2.2059
 7500TIP3    H243992   1.776   3.771  11.083 -0.7542  0.1359  1.7176
 7501TIP3   OH243993   3.180   1.401   3.389 -0.1948 -0.5058 -0.0448
 7501TIP3    H143994   3.135   1.319   3.409 -1.0787  0.3044  1.5061
 7501TIP3    H243995   3.273   1.377   3.386 -0.5513 -1.9442 -1.9006
 7502TIP3   OH243996   1.560   2.548   0.322 -0.1222 -0.1292  0.0889
 7502TIP3    H143997   1.562   2.456   0.293  0.1898 -0.0632 -0.1073
 7502TIP3    H243998   1.645   2.583   0.295 -1.3529  1.0682 -2.6197
 7503TIP3   OH243999   3.630   1.082  13.367  0.7182  0.6641 -0.1594
 7503TIP3    H144000   3.665   1.042  13.446  0.4555 -0.0511 -0.4003
 7503TIP3    H244001   3.644   1.017  13.298 -2.3363 -0.2696 -0.0328
 7504TIP3   OH244002   3.264   0.170  12.169  0.5193  0.0544  0.1988
 7504TIP3    H144003   3.215   0.108  12.223 -0.0217  0.1899 -0.1281
 7504TIP3    H244004   3.314   0.115  12.109  0.1544 -0.0720  0.0076
 7505TIP3   OH244005   6.224   1.706   1.291 -0.4576  0.1510 -0.0172
 7505TIP3    H144006   6.168   1.689   1.367 -1.8269 -1.2965 -1.2850
 7505TIP3    H244007   6.224   1.623   1.242 -0.2753  1.2730 -2.0119
 7506TIP3   OH244008   1.220   5.633   2.921  0.3951  0.2879 -0.1256
 7506TIP3    H144009   1.251   5.556   2.969  1.5151  0.4206 -0.6095
 7506TIP3    H244010   1.187   5.598   2.838  0.8855  0.3281 -0.3371
 7507TIP3   OH244011   6.534   4.966   1.891 -0.3300 -0.3553 -0.4116
 7507TIP3    H144012   6.457   4.986   1.944 -1.0402 -0.9944 -1.1668
 7507TIP3    H244013   6.574   4.891   1.934  0.0955  0.1990  0.1871
 7508TIP3   OH244014   1.339   4.226  12.974  0.7922  0.3897 -0.0926
 7508TIP3    H144015   1.350   4.300  13.034 -5.8994  1.8866  0.0346
 7508TIP3    H244016   1.354   4.263  12.887  0.9513  0.8995  0.1469
 7509TIP3   OH244017   4.587   6.140   4.737 -0.3321  0.1094  0.0207
 7509TIP3    H144018   4.546   6.079   4.676  0.8599 -3.1697  2.2101
 7509TIP3    H244019   4.639   6.199   4.682 -1.4303 -0.9208 -2.2230
 7510TIP3   OH244020   1.788   2.249  12.858  0.1640  0.1054  0.3637
 7510TIP3    H144021   1.824   2.337  12.850  2.2993 -0.7113  0.4563
 7510TIP3    H244022   1.697   2.263  12.885  1.2205  2.2588  3.2943
 7511TIP3   OH244023   5.518   5.010   2.409 -1.0694 -0.3004 -0.1991
 7511TIP3    H144024   5.518   5.099   2.372  1.3847 -0.3495 -0.5094
 7511TIP3    H244025   5.607   4.999   2.443 -0.8543 -3.1177 -1.4019
 7512TIP3   OH244026   2.652   6.494  16.193  0.1335  0.0106 -0.4360
 7512TIP3    H144027   2.669   6.425  16.257  0.3605 -0.2708 -0.7898
 7512TIP3    H244028   2.715   6.476  16.123 -0.6046 -0.1283 -1.0761
 7513TIP3   OH244029   1.632   3.694   3.496  0.5347  0.1872  0.4865
 7513TIP3    H144030   1.686   3.672   3.421 -0.8627 -1.6046 -0.0726
 7513TIP3    H244031   1.569   3.758   3.463 -0.7756 -1.3951 -0.2562
 7514TIP3   OH244032   3.574   1.743   2.699 -0.0199  0.7825 -0.3548
 7514TIP3    H144033   3.485   1.779   2.697 -1.1335 -1.7828 -0.9566
 7514TIP3    H244034   3.607   1.755   2.611 -1.3710 -1.7121 -1.3153
 7515TIP3   OH244035   4.907   1.115   3.585 -0.6945  0.3378 -0.3328
 7515TIP3    H144036   4.837   1.087   3.526 -1.0420 -0.1357  0.2786
 7515TIP3    H244037   4.924   1.037   3.639  0.9313  0.1488 -1.0557
 7516TIP3   OH244038   3.984   4.347  10.619 -0.1396  0.0114  0.0743
 7516TIP3    H144039   4.034   4.370  10.540 -1.1127  2.0752 -0.0087
 7516TIP3    H244040   3.904   4.306  10.587  0.7619 -1.9305  0.1571
 7517TIP3   OH244041   2.901   1.982   3.768 -0.2198  0.2296  0.6679
 7517TIP3    H144042   2.824   1.995   3.712 -1.3036 -1.1082  1.7790
 7517TIP3    H244043   2.953   2.062   3.756 -0.9872  0.5043 -1.2975
 7518TIP3   OH244044   3.562   1.066   0.100  0.1286  0.2332 -0.1668
 7518TIP3    H144045   3.470   1.071   0.073  0.3489  1.6119 -0.7560
 7518TIP3    H244046   3.605   1.019   0.028 -0.0101  0.0713 -0.1461
 7519TIP3   OH244047   4.208   4.163  12.251  0.2183  0.1033 -0.0351
 7519TIP3    H144048   4.205   4.257  12.264 -0.6551  0.1471 -0.4934
 7519TIP3    H244049   4.172   4.149  12.163  3.0022 -0.4339 -1.1943
 7520TIP3   OH244050   3.735   3.477   4.257 -0.0406  0.3783 -0.2884
 7520TIP3    H144051   3.809   3.519   4.302 -0.5890  1.1872 -0.1337
 7520TIP3    H244052   3.736   3.387   4.289  0.2997  0.6370  0.4506
 7521TIP3   OH244053   5.203   1.123   3.842 -0.0145 -0.1705 -0.4916
 7521TIP3    H144054   5.165   1.036   3.829 -0.7349 -0.3975  2.5439
 7521TIP3    H244055   5.128   1.179   3.862  0.7277  0.5080  0.4550
 7522TIP3   OH244056   4.201   3.132   5.710 -0.4436 -0.6269  0.5183
 7522TIP3    H144057   4.130   3.166   5.765  1.0196  1.9917  0.9785
 7522TIP3    H244058   4.266   3.100   5.773  0.2038  0.1652  0.2763
 7523TIP3   OH244059   5.127   6.797   0.369  0.1241 -0.2244  0.6399
 7523TIP3    H144060   5.037   6.818   0.394 -0.5837 -0.5407 -1.4313
 7523TIP3    H244061   5.125   6.705   0.343  0.3890  0.3900 -1.8659
 7524TIP3   OH244062   0.274   6.669  15.565 -0.0084 -0.5114 -0.1178
 7524TIP3    H144063   0.355   6.627  15.538  1.1247  2.3069 -1.5302
 7524TIP3    H244064   0.208   6.600  15.559  2.2196 -2.9752  1.3145
 7525TIP3   OH244065   4.067   0.603  12.792  0.0127 -0.0054  0.6295
 7525TIP3    H144066   4.058   0.655  12.712 -0.1835 -1.9530 -0.6996
 7525TIP3    H244067   3.987   0.619  12.841  0.1092  1.1775  0.4433
 7526TIP3   OH244068   4.910   1.022   4.398 -0.4044 -0.1951 -0.3031
 7526TIP3    H144069   4.829   1.061   4.365 -0.0117  2.2469  1.3040
 7526TIP3    H244070   4.977   1.048   4.334 -0.5774 -0.5249 -0.6171
 7527TIP3   OH244071   2.798   5.684  13.167  0.0916  0.1999  0.1380
 7527TIP3    H144072   2.834   5.649  13.085 -1.8038 -2.0328  0.1206
 7527TIP3    H244073   2.717   5.727  13.140 -0.4608 -0.4119  0.7862
 7528TIP3   OH244074   3.736   5.333   6.352 -0.3083  0.1984  0.3569
 7528TIP3    H144075   3.648   5.296   6.353 -1.0114  1.7719  1.1931
 7528TIP3    H244076   3.792   5.263   6.385 -1.2564 -0.7972 -0.0993
 7529TIP3   OH244077   6.573   3.180  12.452 -0.0034  0.2492  0.1739
 7529TIP3    H144078   6.509   3.142  12.513 -0.5099 -1.1509 -1.1767
 7529TIP3    H244079   6.543   3.271  12.440 -0.0930  0.4600  1.6951
 7530TIP3   OH244080   1.692   5.409  16.580 -0.5836  0.1869 -0.8726
 7530TIP3    H144081   1.788   5.414  16.583 -0.5275 -0.5813 -1.1642
 7530TIP3    H244082   1.664   5.422  16.670 -0.1565 -0.3920 -0.6518
 7531TIP3   OH244083   6.538   6.596   5.245  0.2304  0.1523 -0.7667
 7531TIP3    H144084   6.578   6.515   5.215 -1.4162 -0.5191 -1.2564
 7531TIP3    H244085   6.477   6.568   5.313  0.2947  1.0954 -0.3109
 7532TIP3   OH244086   1.194   5.801  16.388  0.4719  0.1096 -0.4548
 7532TIP3    H144087   1.224   5.750  16.463 -1.2142  0.4902  0.5387
 7532TIP3    H244088   1.272   5.813  16.334  0.7416 -4.9458 -1.6851
 7533TIP3   OH244089   2.332   3.288   1.422  0.2913 -0.3436  0.3166
 7533TIP3    H144090   2.381   3.346   1.479 -0.4716 -0.5823  1.2451
 7533TIP3    H244091   2.399   3.235   1.378  1.0364  1.6443 -1.0550
 7534TIP3   OH244092   2.339   1.469  13.454  0.7424  0.2043  0.8765
 7534TIP3    H144093   2.304   1.535  13.394  0.0812  0.4443  1.5078
 7534TIP3    H244094   2.394   1.518  13.515 -1.4040  0.5628  2.6529
 7535TIP3   OH244095   1.078   4.332   5.903 -0.1786 -0.6208 -0.1503
 7535TIP3    H144096   1.161   4.338   5.949 -0.2130  0.4857 -0.2186
 7535TIP3    H244097   1.023   4.400   5.942 -0.5441 -0.3289 -1.1323
 7536TIP3   OH244098   5.386   5.857   5.558 -0.2892 -0.4957 -0.4484
 7536TIP3    H144099   5.304   5.906   5.558 -0.4320 -0.7295  0.0301
 7536TIP3    H244100   5.383   5.804   5.638  0.5464 -0.1376 -0.1619
 7537TIP3   OH244101   4.077   1.113  15.494  0.0872  0.1089  0.2868
 7537TIP3    H144102   4.149   1.165  15.457  0.2085 -0.4019 -0.2058
 7537TIP3    H244103   4.073   1.035  15.439 -1.2594  0.4236 -0.0878
 7538TIP3   OH244104   1.083   3.695  12.292 -0.4586 -0.0629 -0.4721
 7538TIP3    H144105   1.113   3.729  12.208 -0.1999 -0.9819 -0.7622
 7538TIP3    H244106   1.095   3.600  12.285 -0.2595 -0.1342  0.6740
 7539TIP3   OH244107   3.485   2.905   6.002  0.5036  0.1098  0.4240
 7539TIP3    H144108   3.498   2.851   6.080  0.3572 -0.4633  0.0514
 7539TIP3    H244109   3.552   2.974   6.009  1.2928 -0.6427  0.4340
 7540TIP3   OH244110   3.302   6.744  14.716 -0.1947 -0.6853  0.4990
 7540TIP3    H144111   3.343   6.661  14.737  0.2214 -0.6812 -0.2700
 7540TIP3    H244112   3.263   6.731  14.630 -3.3840 -1.2516  1.9020
 7541TIP3   OH244113   5.242   4.450   2.906  0.0362  0.1713  0.1238
 7541TIP3    H144114   5.260   4.430   2.998  0.2644  0.8791  0.2415
 7541TIP3    H244115   5.148   4.464   2.902  0.0552  0.3531  0.2950
 7542TIP3   OH244116   6.260   5.429  15.488 -0.4648  0.2581 -0.2356
 7542TIP3    H144117   6.233   5.356  15.543  1.5321 -0.8636 -0.6449
 7542TIP3    H244118   6.184   5.487  15.485 -2.5426 -2.3294 -0.8428
 7543TIP3   OH244119   6.108   6.742   3.691  0.1576  0.0335  0.0976
 7543TIP3    H144120   6.026   6.703   3.719 -0.3740  2.2949  2.0147
 7543TIP3    H244121   6.175   6.677   3.715 -0.7333 -0.0938  2.4747
 7544TIP3   OH244122   0.595   2.516   1.497 -0.3240  0.1391 -0.4203
 7544TIP3    H144123   0.620   2.563   1.576 -3.2796  0.0719  0.6631
 7544TIP3    H244124   0.639   2.431   1.505 -0.1337  0.3407  0.8850
 7545TIP3   OH244125   2.098   3.006  10.804  0.5197 -0.0328  0.0913
 7545TIP3    H144126   2.102   3.089  10.851 -0.0383  0.5067 -0.8033
 7545TIP3    H244127   2.190   2.979  10.796  0.6220 -0.3385  1.8043
 7546TIP3   OH244128   6.214   3.646  15.139 -0.3305 -0.2650 -0.4116
 7546TIP3    H144129   6.209   3.568  15.193  0.9773 -1.3516 -1.7710
 7546TIP3    H244130   6.190   3.718  15.198  1.1612 -1.3500  1.6432
 7547TIP3   OH244131   5.111   5.322   1.656  0.4864  0.4980  0.3407
 7547TIP3    H144132   5.033   5.376   1.642  0.8604  1.1342  0.7091
 7547TIP3    H244133   5.150   5.356   1.736  2.0509  1.2631 -0.7102
 7548TIP3   OH244134   3.771   4.310  16.820  0.0213 -0.3890 -0.0559
 7548TIP3    H144135   3.712   4.349  16.756  2.1144 -0.1611 -1.9768
 7548TIP3    H244136   3.749   4.217  16.819 -1.0759 -0.1471  0.1702
 7549TIP3   OH244137   4.675   3.707   0.395  0.3560  0.7080 -0.0771
 7549TIP3    H144138   4.766   3.680   0.406  0.4496  0.8520 -0.4751
 7549TIP3    H244139   4.673   3.748   0.308 -0.0602  0.8152 -0.0166
 7550TIP3   OH244140   3.506   4.896   1.833  0.0875 -0.2061 -0.4324
 7550TIP3    H144141   3.463   4.819   1.873 -0.4639  0.5884  0.5547
 7550TIP3    H244142   3.584   4.909   1.886 -0.2261  0.3713 -0.1063
 7551TIP3   OH244143   6.548   5.141  13.773  0.5223  0.7690 -0.3622
 7551TIP3    H144144   6.484   5.078  13.804 -0.2068  1.3878 -0.5825
 7551TIP3    H244145   6.628   5.121  13.822  1.6031 -2.8905 -3.1536
 7552TIP3   OH244146   1.481   5.633  12.920 -0.5438 -0.4939 -0.6223
 7552TIP3    H144147   1.561   5.580  12.925 -1.4918 -2.3776 -3.2330
 7552TIP3    H244148   1.428   5.604  12.994  0.5434 -0.3105  0.2543
 7553TIP3   OH244149   1.508   2.583  11.933  0.3724 -0.0072  0.1808
 7553TIP3    H144150   1.488   2.519  11.864  1.1397  0.3539 -0.3980
 7553TIP3    H244151   1.541   2.530  12.006 -2.8389 -0.6551  1.2964
 7554TIP3   OH244152   4.855   3.625  11.208  0.2268 -0.3638 -0.1863
 7554TIP3    H144153   4.920   3.637  11.277  1.9179  0.4544 -1.8369
 7554TIP3    H244154   4.776   3.665  11.243  1.0510  0.0921  1.2543
 7555TIP3   OH244155   1.400   4.424   4.649  0.5269  0.3683 -0.2194
 7555TIP3    H144156   1.328   4.456   4.594  0.8908  1.0642 -0.3050
 7555TIP3    H244157   1.461   4.498   4.655  0.3206  0.4357  1.4452
 7556TIP3   OH244158   3.248   0.509   0.207  0.0606 -0.4900 -0.2125
 7556TIP3    H144159   3.164   0.530   0.248 -1.1558 -2.9568 -1.2539
 7556TIP3    H244160   3.227   0.494   0.115  1.7135 -0.7976 -0.5699
 7557TIP3   OH244161   1.846   2.404   0.389 -0.0318 -0.5595  0.1023
 7557TIP3    H144162   1.889   2.472   0.337 -0.3232 -0.5680 -0.1539
 7557TIP3    H244163   1.885   2.411   0.476  0.1943 -0.3005 -0.0208
 7558TIP3   OH244164   1.123   4.962  13.637 -0.1895  0.2692 -0.3891
 7558TIP3    H144165   1.086   4.998  13.717 -0.5539  0.1267 -0.4915
 7558TIP3    H244166   1.123   5.036  13.575 -0.6514  0.1760 -0.5037
 7559TIP3   OH244167   1.090   5.208  16.647  0.3041 -0.4825 -0.4400
 7559TIP3    H144168   1.137   5.278  16.693 -0.5295  0.9814 -1.6932
 7559TIP3    H244169   0.998   5.223  16.670 -0.4316  1.5276 -3.8553
 7560TIP3   OH244170   0.684   3.113   3.027  0.6973  0.4251 -0.6113
 7560TIP3    H144171   0.754   3.176   3.044  0.1954  1.1045 -1.0191
 7560TIP3    H244172   0.650   3.090   3.113  1.6385 -0.1623 -0.3897
 7561TIP3   OH244173   4.962   4.175   4.606 -0.0933  0.7745 -0.0370
 7561TIP3    H144174   4.879   4.181   4.557 -0.7766 -1.8582  0.6414
 7561TIP3    H244175   5.024   4.139   4.543  0.2064  1.5152 -0.1727
 7562TIP3   OH244176   5.569   2.151  12.127 -0.3284  0.1431 -0.0284
 7562TIP3    H144177   5.620   2.071  12.138  0.1821  0.5275  0.4218
 7562TIP3    H244178   5.485   2.132  12.169  0.3053  0.3412  1.3496
 7563TIP3   OH244179   1.711   0.814  17.127  0.0221 -0.5218 -0.0291
 7563TIP3    H144180   1.651   0.758  17.079 -0.3410 -0.0339 -0.1492
 7563TIP3    H244181   1.667   0.898  17.132  0.5198 -0.2707  0.2365
 7564TIP3   OH244182   0.941   1.596  14.066  0.7382  0.2147  0.1736
 7564TIP3    H144183   0.954   1.646  14.147  2.8365 -0.3892  0.2570
 7564TIP3    H244184   0.854   1.622  14.036 -0.7303 -0.5834  3.3324
 7565TIP3   OH244185   2.928   1.565   4.791 -0.2327  0.7916 -0.1719
 7565TIP3    H144186   2.994   1.619   4.834  0.7026 -0.6115  0.1970
 7565TIP3    H244187   2.978   1.510   4.731 -0.8422 -1.3867  1.2288
 7566TIP3   OH244188   4.211   3.302   1.721  0.2958 -0.0800 -0.2974
 7566TIP3    H144189   4.295   3.293   1.675 -0.3650 -0.2336 -1.4901
 7566TIP3    H244190   4.193   3.214   1.754  0.9260  0.0980  0.5670
 7567TIP3   OH244191   3.684   5.573   2.060 -0.1729  0.3620  0.2048
 7567TIP3    H144192   3.620   5.531   2.002 -0.3676  1.2166 -0.2273
 7567TIP3    H244193   3.766   5.571   2.010 -0.5887  2.1476 -0.6699
 7568TIP3   OH244194   1.925   4.580  12.159 -0.5178 -0.1203 -0.4256
 7568TIP3    H144195   1.969   4.530  12.228 -1.4051 -0.8165 -0.3436
 7568TIP3    H244196   1.862   4.518  12.121 -0.8516  0.6065 -1.0838
 7569TIP3   OH244197   6.705   1.834  16.423  0.1829  0.6588  0.3635
 7569TIP3    H144198   6.733   1.851  16.513  0.7460 -0.5515  0.4447
 7569TIP3    H244199   6.785   1.837  16.371 -0.1828  1.6885 -0.1785
 7570TIP3   OH244200   6.342   0.340   0.742  0.2764  0.3406 -0.3425
 7570TIP3    H144201   6.425   0.336   0.789 -0.0638  1.4115  0.3742
 7570TIP3    H244202   6.336   0.255   0.697  2.0038  0.4483 -0.8551
 7571TIP3   OH244203   3.531   4.698  15.018 -0.2162 -0.1823 -0.1034
 7571TIP3    H144204   3.482   4.654  14.948  0.2424  0.1044 -0.6169
 7571TIP3    H244205   3.622   4.676  15.000 -0.1764 -1.0662  1.0958
 7572TIP3   OH244206   1.058   5.183   0.488 -0.2207  0.3402 -0.1603
 7572TIP3    H144207   1.063   5.148   0.399  0.2297  0.4044 -0.1613
 7572TIP3    H244208   1.138   5.233   0.499  1.7954 -2.9353  1.6862
 7573TIP3   OH244209   4.269   2.490   2.361 -0.3154 -0.9492 -0.0844
 7573TIP3    H144210   4.342   2.486   2.300 -1.3613 -1.3649 -1.3557
 7573TIP3    H244211   4.270   2.579   2.395  0.0955 -0.6060 -0.9676
 7574TIP3   OH244212   3.586   0.777  16.377  0.5636 -0.2555  0.4894
 7574TIP3    H144213   3.502   0.817  16.353 -0.2431 -0.5572  2.6047
 7574TIP3    H244214   3.563   0.702  16.430  2.1843 -0.5307  0.8621
 7575TIP3   OH244215   5.201   4.055   0.305 -0.0237 -0.7096  0.0839
 7575TIP3    H144216   5.281   4.062   0.252 -0.9278  0.7176 -1.1520
 7575TIP3    H244217   5.157   4.139   0.294 -1.7853 -1.5143  0.6227
 7576TIP3   OH244218   5.759   1.148  13.918 -0.4749  0.3756 -0.1099
 7576TIP3    H144219   5.726   1.216  13.860 -2.3143 -0.5807 -0.2529
 7576TIP3    H244220   5.688   1.132  13.980  0.7741  0.1296  1.3229
 7577TIP3   OH244221   1.997   2.594   0.137  0.3472 -0.1450 -0.4927
 7577TIP3    H144222   2.084   2.556   0.126  1.0548  1.1494  0.4047
 7577TIP3    H244223   1.999   2.675   0.087 -0.3529 -0.0927 -0.4496
 7578TIP3   OH244224   0.392   6.347   3.305  0.1495 -0.1594  0.2362
 7578TIP3    H144225   0.317   6.404   3.321 -0.4121 -0.3653 -1.5476
 7578TIP3    H244226   0.374   6.304   3.222  2.0578 -0.5100 -0.0536
 7579TIP3   OH244227   4.833   5.690   4.273 -0.2322  0.4224 -0.5930
 7579TIP3    H144228   4.902   5.642   4.228  0.0613  0.3005 -0.0157
 7579TIP3    H244229   4.866   5.704   4.361 -1.2281 -0.2792 -0.0828
 7580TIP3   OH244230   3.092   1.258  11.619  0.3240 -0.0107  0.0457
 7580TIP3    H144231   3.187   1.264  11.630  0.6230 -2.0068 -1.0285
 7580TIP3    H244232   3.076   1.297  11.533  0.0596  0.9498  0.5181
 7581TIP3   OH244233   3.986   1.949   4.319  0.4560  0.2416  0.0920
 7581TIP3    H144234   4.062   1.998   4.287  0.9501  1.0011  2.2398
 7581TIP3    H244235   4.024   1.883   4.377 -0.4896  0.2274  0.7014
 7582TIP3   OH244236   4.865   6.046  14.592 -0.1507  0.1463 -0.2356
 7582TIP3    H144237   4.770   6.036  14.592 -0.0629 -0.8657 -0.8127
 7582TIP3    H244238   4.880   6.137  14.568 -0.9471 -0.0209 -1.4299
 7583TIP3   OH244239   1.631   0.788   1.616  0.0340  0.1510  0.3710
 7583TIP3    H144240   1.611   0.697   1.597  0.1686  0.1098  0.4228
 7583TIP3    H244241   1.594   0.804   1.702  2.4028 -0.6657  1.6427
 7584TIP3   OH244242   5.146   1.252  15.004 -0.3234  0.2849  0.2438
 7584TIP3    H144243   5.123   1.336  14.963  0.3523  0.7112  0.7209
 7584TIP3    H244244   5.174   1.276  15.092  0.4928 -0.3794  0.1675
 7585TIP3   OH244245   1.801   2.813   2.404  0.0431 -0.1711  0.0978
 7585TIP3    H144246   1.725   2.798   2.348  0.0257  2.4443 -0.6789
 7585TIP3    H244247   1.775   2.776   2.489 -0.8977 -1.9466 -0.8987
 7586TIP3   OH244248   3.225   6.080   0.024  0.0284  0.3492 -0.5318
 7586TIP3    H144249   3.199   6.045   0.109 -1.3701  0.1671 -1.0044
 7586TIP3    H244250   3.308   6.126   0.041 -0.5853  0.9331  1.0697
 7587TIP3   OH244251   2.914   6.068  14.410 -0.1084  0.4874 -0.5312
 7587TIP3    H144252   2.950   6.023  14.486 -1.1739 -1.0723 -0.9104
 7587TIP3    H244253   2.946   6.019  14.334 -2.3363 -0.5392 -0.9068
 7588TIP3   OH244254   3.118   3.459   0.105 -0.7132  0.3191  0.1621
 7588TIP3    H144255   3.182   3.413   0.051 -0.4292  0.6871  0.1820
 7588TIP3    H244256   3.106   3.403   0.182 -0.2040  0.3871  0.2922
 7589TIP3   OH244257   1.101   4.345  11.930 -0.9488 -0.1025  0.1180
 7589TIP3    H144258   1.162   4.413  11.960 -0.0057  0.4775 -2.7746
 7589TIP3    H244259   1.111   4.274  11.994  0.3693  1.2292  1.4867
 7590TIP3   OH244260   3.527   5.715   5.019 -0.4237 -0.3920 -0.6741
 7590TIP3    H144261   3.443   5.668   5.025 -1.0193  0.6673 -0.5014
 7590TIP3    H244262   3.503   5.803   4.990  0.6554 -0.1359 -0.8043
 7591TIP3   OH244263   3.936   1.579  12.948 -0.2229  0.2166  0.2768
 7591TIP3    H144264   4.024   1.616  12.963 -1.1447  1.6835  2.5262
 7591TIP3    H244265   3.919   1.525  13.025 -1.4637  0.2835  0.0656
 7592TIP3   OH244266   0.126   4.386   0.217  0.2984  0.2089  0.8570
 7592TIP3    H144267   0.211   4.402   0.176  0.2974 -1.4815  0.1380
 7592TIP3    H244268   0.076   4.466   0.201  1.1451  0.5236 -0.2975
 7593TIP3   OH244269   0.206   2.851   5.661 -0.4351 -0.3132  0.6093
 7593TIP3    H144270   0.190   2.766   5.703 -0.1558 -0.7968 -0.2539
 7593TIP3    H244271   0.301   2.856   5.654 -0.4765 -0.1919  0.1250
 7594TIP3   OH244272   6.759   0.590  12.976  0.1792  0.6068  0.4698
 7594TIP3    H144273   6.832   0.545  12.933  0.2130  1.5396 -0.4909
 7594TIP3    H244274   6.708   0.520  13.017  1.6966 -0.0623  1.3085
 7595TIP3   OH244275   3.887   3.961   0.611  0.1460 -0.3588  0.1387
 7595TIP3    H144276   3.968   3.991   0.571  0.1779  0.6762  0.9287
 7595TIP3    H244277   3.863   3.882   0.562  1.5473 -0.6041 -0.1942
 7596TIP3   OH244278   5.964   2.551  12.509  0.0687 -0.1382  0.5816
 7596TIP3    H144279   5.975   2.643  12.531  0.9952 -0.3101  0.9181
 7596TIP3    H244280   5.983   2.504  12.591  0.0396 -0.6384  0.3073
 7597TIP3   OH244281   5.317   3.846  11.813 -0.6021  0.4763  0.2817
 7597TIP3    H144282   5.333   3.939  11.829  0.7897  0.1148  1.1492
 7597TIP3    H244283   5.249   3.822  11.875 -1.4047  1.0452 -0.3647
 7598TIP3   OH244284   0.774   4.599  14.680  0.0239  0.0409 -0.0921
 7598TIP3    H144285   0.788   4.688  14.710  1.4310 -0.2073  0.0557
 7598TIP3    H244286   0.685   4.577  14.707 -0.4682  1.5117 -0.4493
 7599TIP3   OH244287   1.648   3.683  16.587  0.0843  0.1668  0.3097
 7599TIP3    H144288   1.688   3.769  16.596  0.6647  0.0179 -0.7473
 7599TIP3    H244289   1.717   3.627  16.551 -0.6360 -0.4437 -0.1640
 7600TIP3   OH244290   4.984   5.341   2.589 -0.4877 -0.0328 -0.0536
 7600TIP3    H144291   4.970   5.435   2.580  1.1796  0.2549  0.1111
 7600TIP3    H244292   5.022   5.315   2.505  0.4445 -0.2663  0.4286
 7601TIP3   OH244293   6.601   6.558   2.009 -0.1115  0.0554 -0.1401
 7601TIP3    H144294   6.615   6.470   2.042  0.1098 -0.4234 -1.4421
 7601TIP3    H244295   6.596   6.613   2.087 -0.7239 -1.1673  0.7067
 7602TIP3   OH244296   3.018   3.719  11.483 -0.7143 -0.2416  0.4561
 7602TIP3    H144297   3.085   3.775  11.442  0.3426 -0.2133  2.0907
 7602TIP3    H244298   3.016   3.640  11.430  0.8026 -0.3229  0.4680
 7603TIP3   OH244299   0.302   4.126   1.705 -0.5173 -0.2195  0.5943
 7603TIP3    H144300   0.295   4.206   1.758 -0.0787 -1.0042  1.8897
 7603TIP3    H244301   0.216   4.085   1.713 -0.7066  0.0542  0.0205
 7604TIP3   OH244302   6.283   1.109  14.357  0.0672 -0.3127 -0.0323
 7604TIP3    H144303   6.351   1.045  14.334  1.3145  0.7308  0.5624
 7604TIP3    H244304   6.327   1.169  14.417 -1.8260 -0.4181  1.5327
 7605TIP3   OH244305   3.737   3.319   4.924  0.2595  0.1437  0.2621
 7605TIP3    H144306   3.697   3.325   4.836  1.3454  2.2933 -0.1619
 7605TIP3    H244307   3.664   3.337   4.984 -0.1069  0.6588 -0.3200
 7606TIP3   OH244308   0.105   2.602  15.237 -0.9083 -0.0918  1.1225
 7606TIP3    H144309   0.129   2.576  15.148 -0.5347  1.9722  0.5835
 7606TIP3    H244310   0.128   2.525  15.290  1.2834 -0.4485 -0.1997
 7607TIP3   OH244311   3.939   2.151   0.928  0.1398 -0.2053  0.5984
 7607TIP3    H144312   4.031   2.178   0.918  0.2772 -0.9893 -0.4728
 7607TIP3    H244313   3.898   2.177   0.846 -0.2863 -1.0197  0.5406
 7608TIP3   OH244314   3.225   1.985   5.269  0.2412 -0.2628  0.2620
 7608TIP3    H144315   3.209   2.079   5.268  2.5751  0.2876 -3.2386
 7608TIP3    H244316   3.165   1.950   5.203  1.2425 -0.7393 -0.4286
 7609TIP3   OH244317   4.317   3.674   3.879  0.0788  0.3323  0.1272
 7609TIP3    H144318   4.327   3.582   3.853 -2.5739  0.4651 -1.8195
 7609TIP3    H244319   4.380   3.721   3.825 -1.0178 -0.0521 -1.5555
 7610TIP3   OH244320   2.401   5.959  12.856  0.7010 -0.0555 -0.2916
 7610TIP3    H144321   2.314   5.978  12.890  0.2072 -0.4638 -1.2917
 7610TIP3    H244322   2.434   6.044  12.826  0.0937 -0.1068 -1.1355
 7611TIP3   OH244323   3.815   2.448   3.668  0.9458 -0.4601 -0.0881
 7611TIP3    H144324   3.763   2.369   3.686  0.0643  0.6443  2.5655
 7611TIP3    H244325   3.752   2.511   3.633  1.0656 -0.0062  0.5108
 7612TIP3   OH244326   6.209   4.031  17.049 -0.2186  0.4390  0.0333
 7612TIP3    H144327   6.302   4.015  17.035 -0.0730 -1.7235  2.6358
 7612TIP3    H244328   6.205   4.121  17.082  1.0992  0.1936  0.9412
 7613TIP3   OH244329   5.529   1.870   2.697 -0.3455 -0.1864 -0.5832
 7613TIP3    H144330   5.434   1.857   2.704 -0.0185 -2.1657  1.1982
 7613TIP3    H244331   5.550   1.928   2.770 -0.1932  0.3653 -1.0634
 7614TIP3   OH244332   0.343   3.043   0.525  0.0907  0.2944 -0.1953
 7614TIP3    H144333   0.436   3.023   0.512  0.3502  1.0519  0.3660
 7614TIP3    H244334   0.344   3.119   0.584 -0.8404  1.5373 -1.6948
 7615TIP3   OH244335   4.793   0.118   1.438  0.4049 -0.6566 -0.3573
 7615TIP3    H144336   4.706   0.118   1.398  0.3039  2.3751 -0.4365
 7615TIP3    H244337   4.786   0.061   1.514 -2.2600  0.8405  0.6449
 7616TIP3   OH244338   1.962   0.405   3.555  0.0629 -0.0216  0.4307
 7616TIP3    H144339   1.927   0.424   3.468 -0.7389 -0.7151  0.5899
 7616TIP3    H244340   2.001   0.487   3.584  0.1265  0.2781 -0.4877
 7617TIP3   OH244341   1.939   0.306   5.391  0.1033  0.3512 -0.0455
 7617TIP3    H144342   1.844   0.291   5.399  0.2572 -1.9437 -1.6534
 7617TIP3    H244343   1.970   0.309   5.482 -1.2052 -1.3453  0.5157
 7618TIP3   OH244344   5.711   6.724  13.616 -0.0208 -0.0988  0.2144
 7618TIP3    H144345   5.736   6.711  13.707 -1.3152 -1.0185  0.4713
 7618TIP3    H244346   5.629   6.774  13.620  1.2362  2.1911 -0.5646
 7619TIP3   OH244347   0.385   3.161  13.723 -0.2485  0.1695  0.1039
 7619TIP3    H144348   0.331   3.237  13.699 -0.1676 -0.2797 -1.6444
 7619TIP3    H244349   0.383   3.106  13.645  0.3536 -1.2558  1.0697
 7620TIP3   OH244350   2.415   0.540   1.200 -0.5985  0.1234  0.0241
 7620TIP3    H144351   2.441   0.579   1.117  0.7969 -0.7508  0.0214
 7620TIP3    H244352   2.489   0.486   1.226 -1.4135 -0.4235  1.3418
 7621TIP3   OH244353   3.506   3.643   5.665  0.3024  0.5231 -0.3942
 7621TIP3    H144354   3.546   3.724   5.696 -1.6589  0.7499  1.8763
 7621TIP3    H244355   3.491   3.592   5.744 -1.6871 -0.5239 -1.3617
 7622TIP3   OH244356   5.976   3.629   4.362  0.4821  0.4093  0.6865
 7622TIP3    H144357   6.009   3.543   4.336 -1.1917  0.1982 -0.9809
 7622TIP3    H244358   5.909   3.609   4.428 -1.5567  0.1412 -1.3348
 7623TIP3   OH244359   2.410   3.918  13.587  0.4146  0.3905  0.2412
 7623TIP3    H144360   2.451   3.839  13.553 -1.3658 -0.4882  0.0239
 7623TIP3    H244361   2.427   3.985  13.520  1.4260  0.0548  0.1507
 7624TIP3   OH244362   5.419   0.021  13.199  0.2474  0.0883 -0.3804
 7624TIP3    H144363   5.431   0.079  13.275 -2.2697  1.7070 -1.1234
 7624TIP3    H244364   5.492  -0.041  13.206  2.4153  2.5647  1.1532
 7625TIP3   OH244365   4.065   0.452   0.791  0.2666  0.0436 -0.3631
 7625TIP3    H144366   4.093   0.362   0.783  1.2316  0.2944  0.1212
 7625TIP3    H244367   3.992   0.449   0.854  0.4565 -0.3600 -0.1594
 7626TIP3   OH244368   2.764   2.056  13.421 -0.4314  0.3738  0.4380
 7626TIP3    H144369   2.811   1.979  13.454 -2.0307 -1.1651 -0.6524
 7626TIP3    H244370   2.831   2.123  13.411  1.6813 -1.8337 -1.5028
 7627TIP3   OH244371   2.990   6.608   5.356  0.2103 -0.1068 -0.6285
 7627TIP3    H144372   3.075   6.589   5.317  0.6419 -1.8334  1.0095
 7627TIP3    H244373   2.930   6.547   5.313  0.7178 -2.1328  1.3439
 7628TIP3   OH244374   2.634   5.775   0.060 -0.5199 -0.5304  0.0010
 7628TIP3    H144375   2.700   5.719   0.101  0.6351  0.3800 -0.5187
 7628TIP3    H244376   2.591   5.819   0.133  1.0842  0.6041  0.3346
 7629TIP3   OH244377   4.884   0.611  11.851 -0.2869  0.1082  0.2561
 7629TIP3    H144378   4.839   0.694  11.833  0.3612  0.2266 -0.8633
 7629TIP3    H244379   4.954   0.635  11.912  0.5901  0.5920 -0.9191
 7630TIP3   OH244380   1.811   2.407   3.911  0.2260 -0.6426 -0.5804
 7630TIP3    H144381   1.903   2.431   3.902 -0.1385  0.6534 -1.0069
 7630TIP3    H244382   1.812   2.311   3.911  1.7706 -0.7195  1.5432
 7631TIP3   OH244383   2.370   2.001  14.748 -0.7854  0.0099 -0.1705
 7631TIP3    H144384   2.382   2.085  14.792  0.1368 -0.0768 -0.2360
 7631TIP3    H244385   2.398   2.017  14.658 -1.3134 -0.1762 -0.3682
 7632TIP3   OH244386   5.996   1.961   1.951  0.5036 -0.0661  0.3421
 7632TIP3    H144387   5.997   2.026   2.021  0.7585  0.8122 -0.4635
 7632TIP3    H244388   6.085   1.925   1.951  0.8591  0.7777 -0.2873
 7633TIP3   OH244389   5.674   0.786  14.679  0.6526 -0.4313  0.0313
 7633TIP3    H144390   5.744   0.742  14.630  1.1475 -1.6292  1.7264
 7633TIP3    H244391   5.720   0.844  14.740  0.1707 -0.9311  0.8897
 7634TIP3   OH244392   2.552   3.865   1.808  0.0876  0.1115 -0.1882
 7634TIP3    H144393   2.575   3.785   1.857  2.7994 -0.1081 -1.6079
 7634TIP3    H244394   2.457   3.872   1.816  0.0120 -2.0108  1.8479
 7635TIP3   OH244395   0.530   0.844   3.844 -0.6784  0.3567  0.4343
 7635TIP3    H144396   0.466   0.774   3.860 -1.8892  1.5274  0.9430
 7635TIP3    H244397   0.477   0.923   3.838  0.3022  0.9055 -3.1907
 7636TIP3   OH244398   4.611   5.995  15.024  0.6838  0.2379 -0.0033
 7636TIP3    H144399   4.525   5.973  15.060  1.4841 -0.3780  1.5894
 7636TIP3    H244400   4.652   6.049  15.091  1.3974  0.9022 -0.9445
 7637TIP3   OH244401   0.651   1.333   4.554  0.5321 -0.1789  0.5312
 7637TIP3    H144402   0.711   1.408   4.548 -1.3626  1.3285 -0.6164
 7637TIP3    H244403   0.654   1.293   4.467  0.0466 -0.2219  0.5311
 7638TIP3   OH244404   5.524   1.084   1.315  0.5078  0.1155  0.1512
 7638TIP3    H144405   5.510   1.130   1.232 -1.4439  1.9378  1.3766
 7638TIP3    H244406   5.516   0.991   1.292 -0.0132  0.5575 -1.7057
 7639TIP3   OH244407   5.350   5.439   2.332  0.1334 -0.0807  0.2356
 7639TIP3    H144408   5.385   5.356   2.300 -1.6000 -0.8684  0.2786
 7639TIP3    H244409   5.406   5.461   2.407  0.7520 -1.0850  0.0914
 7640TIP3   OH244410   1.372   3.565   2.014 -0.4568  0.9592 -0.0836
 7640TIP3    H144411   1.282   3.554   1.983 -0.5020 -2.3414  0.8806
 7640TIP3    H244412   1.363   3.577   2.109  0.0907  2.2270 -0.1695
 7641TIP3   OH244413   6.019   3.673   2.512 -0.4545  0.3327 -0.0157
 7641TIP3    H144414   5.977   3.624   2.584 -1.1211  0.0027 -0.6175
 7641TIP3    H244415   5.978   3.639   2.433 -1.2620  2.1613 -0.4483
 7642TIP3   OH244416   3.565   1.483  15.727 -0.9824 -0.0296  0.2516
 7642TIP3    H144417   3.515   1.534  15.663 -0.9434  1.3311  1.2708
 7642TIP3    H244418   3.507   1.410  15.750 -1.6851  0.4257 -0.0539
 7643TIP3   OH244419   0.800   1.409   5.217  0.4244  0.1537  0.7757
 7643TIP3    H144420   0.809   1.462   5.297 -0.1500  2.5805 -0.6612
 7643TIP3    H244421   0.719   1.441   5.177  1.2330 -0.2637 -1.2925
 7644TIP3   OH244422   1.249   6.554   1.847 -0.6193  0.0741  0.1741
 7644TIP3    H144423   1.180   6.511   1.899 -0.3386 -0.3494  0.1965
 7644TIP3    H244424   1.209   6.566   1.761 -1.1369  0.9008  0.5162
 7645TIP3   OH244425   1.957   3.853   2.719  0.2084 -0.0942  0.4476
 7645TIP3    H144426   1.960   3.769   2.673 -0.5088 -0.0391  0.2921
 7645TIP3    H244427   1.873   3.852   2.765  0.8181 -0.0607  1.6016
 7646TIP3   OH244428   0.134   0.456   2.345 -0.6395 -0.3952  0.6940
 7646TIP3    H144429   0.197   0.458   2.273 -0.1501  0.9297  1.1216
 7646TIP3    H244430   0.078   0.532   2.329 -1.7321 -1.1900  0.6739
 7647TIP3   OH244431   0.383   0.104   0.954 -0.0225  0.5861 -0.2754
 7647TIP3    H144432   0.426   0.022   0.978 -0.4378  0.5166  0.2516
 7647TIP3    H244433   0.438   0.141   0.885  1.7988  1.2625  1.4180
 7648TIP3   OH244434   2.554   0.697   1.457  0.5207 -0.0729  0.2388
 7648TIP3    H144435   2.557   0.745   1.540 -0.0447 -1.3998  1.0634
 7648TIP3    H244436   2.581   0.761   1.391 -0.4932  1.4444  1.2432
 7649TIP3   OH244437   0.433   2.696  14.325  0.7476 -0.2251  0.1779
 7649TIP3    H144438   0.479   2.652  14.254  0.2925 -0.1254 -0.1806
 7649TIP3    H244439   0.377   2.761  14.282  2.6103  1.9046  0.7566
 7650TIP3   OH244440   3.531   5.956   0.163 -0.4142  0.0334 -0.0041
 7650TIP3    H144441   3.581   6.035   0.182 -0.7435  0.1792  0.2539
 7650TIP3    H244442   3.450   5.965   0.213 -0.4726 -0.4467  0.0005
 7651TIP3   OH244443   5.785   6.476   2.887 -0.2031  0.0057  0.2462
 7651TIP3    H144444   5.720   6.431   2.940  1.2520 -1.3529  0.9746
 7651TIP3    H244445   5.815   6.549   2.941  0.1442 -0.4388  0.6635
 7652TIP3   OH244446   4.179   4.409  10.837 -0.4256  0.2518 -0.4685
 7652TIP3    H144447   4.242   4.339  10.818 -0.8771 -0.7765  1.5657
 7652TIP3    H244448   4.104   4.387  10.782 -0.2857 -0.4647 -0.3922
 7653TIP3   OH244449   4.631   4.130  11.990  0.1361 -0.1979  0.2744
 7653TIP3    H144450   4.659   4.041  12.009  0.9283  0.1300  0.7033
 7653TIP3    H244451   4.543   4.121  11.953 -0.2529 -1.0763  1.3626
 7654TIP3   OH244452   2.929   6.759   1.685 -0.3876 -0.6082 -0.2424
 7654TIP3    H144453   2.990   6.736   1.615 -0.7494 -0.7203 -0.5245
 7654TIP3    H244454   2.861   6.809   1.641  0.2297  0.7525  0.3160
 7655TIP3   OH244455   6.043   3.569   1.245  0.3824 -0.0956 -0.3763
 7655TIP3    H144456   6.031   3.511   1.170 -0.8960 -1.4745  0.8269
 7655TIP3    H244457   5.985   3.533   1.312  2.1365  0.5529  1.5815
 7656TIP3   OH244458   1.134   5.525   3.899 -0.1873 -0.5760  0.1565
 7656TIP3    H144459   1.112   5.433   3.912  0.9890 -0.6434  2.1632
 7656TIP3    H244460   1.212   5.539   3.953 -1.6948  2.1466  1.9234
 7657TIP3   OH244461   2.294   5.443  15.508  0.4501  0.2440 -0.2992
 7657TIP3    H144462   2.226   5.376  15.494  2.2278 -1.6371 -0.4663
 7657TIP3    H244463   2.262   5.495  15.581 -1.9898  0.5972 -1.5030
 7658TIP3   OH244464   3.746   1.828  13.217 -0.2740  0.0509 -0.1781
 7658TIP3    H144465   3.721   1.736  13.229  0.7390 -0.3455 -0.9149
 7658TIP3    H244466   3.841   1.828  13.229 -0.2339  0.9637 -0.4297
 7659TIP3   OH244467   2.898   2.247   5.575  0.5464  0.0306 -0.3055
 7659TIP3    H144468   2.937   2.186   5.639  0.4777 -1.4640 -1.6333
 7659TIP3    H244469   2.943   2.330   5.591  1.1756 -0.5358  1.0665
 7660TIP3   OH244470   3.712   5.297   4.036  0.1038 -0.2139  0.1725
 7660TIP3    H144471   3.617   5.304   4.032  0.2022  2.1324  0.6624
 7660TIP3    H244472   3.743   5.346   3.959  0.9344  1.1435  1.3286
 7661TIP3   OH244473   5.501   3.999   5.222 -0.2025 -0.6378 -0.0814
 7661TIP3    H144474   5.445   3.948   5.163 -2.4593  0.6500  0.8473
 7661TIP3    H244475   5.499   3.951   5.304  0.9089 -1.0910 -0.2924
 7662TIP3   OH244476   3.537   2.797  16.332  0.4368 -0.1156  0.0124
 7662TIP3    H144477   3.619   2.803  16.381 -0.4315 -2.9465  2.0123
 7662TIP3    H244478   3.548   2.721  16.275  0.4482  1.6145 -2.4655
 7663TIP3   OH244479   5.188   4.533   5.183  0.0516 -0.1803 -0.4007
 7663TIP3    H144480   5.183   4.627   5.199 -0.0500 -0.3480  0.6114
 7663TIP3    H244481   5.111   4.514   5.129 -0.5178  0.1551  0.2805
 7664TIP3   OH244482   2.262   6.418   4.689 -0.4779 -0.1836  0.6662
 7664TIP3    H144483   2.334   6.457   4.738 -1.5023 -1.5143  3.4212
 7664TIP3    H244484   2.255   6.329   4.722 -1.4095 -1.1500 -1.8350
 7665TIP3   OH244485   2.371   0.050  12.337  0.0421  0.5805  0.0370
 7665TIP3    H144486   2.388  -0.014  12.269  1.8397 -0.0162  0.9778
 7665TIP3    H244487   2.335   0.126  12.291  1.2519  0.2179 -1.5579
 7666TIP3   OH244488   4.577   0.788   4.847 -0.7110 -0.7007  0.1478
 7666TIP3    H144489   4.500   0.789   4.791 -0.3128 -0.0918 -0.3946
 7666TIP3    H244490   4.565   0.710   4.902 -1.6578 -0.6645  0.0083
 7667TIP3   OH244491   6.111   3.972   2.971 -0.3343  0.2302  0.1324
 7667TIP3    H144492   6.159   3.968   3.054 -2.4695 -1.0324  1.4096
 7667TIP3    H244493   6.156   3.910   2.914  2.1172  2.2308 -0.3153
 7668TIP3   OH244494   3.950   2.759  14.083 -0.4462 -0.2735 -0.5452
 7668TIP3    H144495   3.890   2.706  14.030  0.2837 -0.1911 -1.4739
 7668TIP3    H244496   4.011   2.797  14.020  3.1790 -3.5310  0.5729
 7669TIP3   OH244497   2.816   5.317  16.909  0.3794  0.9119 -0.0848
 7669TIP3    H144498   2.874   5.341  16.837  1.6316  0.9959  0.9153
 7669TIP3    H244499   2.784   5.230  16.887  0.5034  1.0555 -0.8701
 7670TIP3   OH244500   6.175   3.228  13.962  0.7984  0.2433  0.0211
 7670TIP3    H144501   6.221   3.180  13.893  0.2558 -1.0907  0.5472
 7670TIP3    H244502   6.204   3.186  14.044 -1.0127 -0.3889  0.3957
 7671TIP3   OH244503   3.558   4.240   0.688 -0.5119 -0.1593  0.1290
 7671TIP3    H144504   3.467   4.270   0.683 -1.0308 -1.4606  1.1229
 7671TIP3    H244505   3.553   4.156   0.735  1.3359  0.3202  1.2759
 7672TIP3   OH244506   4.945   1.163  10.289  0.1878  0.1163  0.3681
 7672TIP3    H144507   5.011   1.233  10.291 -0.3009  0.6527 -1.0159
 7672TIP3    H244508   4.940   1.138  10.197 -0.1393 -1.2856  0.7489
 7673TIP3   OH244509   6.318   5.768   6.462  0.2674 -0.7407  0.1175
 7673TIP3    H144510   6.379   5.762   6.535 -0.5836 -0.0209  0.9025
 7673TIP3    H244511   6.248   5.826   6.493 -1.1140 -1.9762 -0.5491
 7674TIP3   OH244512   6.814   3.187  11.128  0.8668 -0.1032 -0.1410
 7674TIP3    H144513   6.780   3.231  11.206 -0.8814 -0.4591 -0.6480
 7674TIP3    H244514   6.808   3.094  11.148  3.1476 -0.1738  0.3635
 7675TIP3   OH244515   1.518   4.140   3.324  0.2193  0.2108 -0.0111
 7675TIP3    H144516   1.611   4.137   3.344 -0.0190  0.9648  1.2802
 7675TIP3    H244517   1.492   4.231   3.339 -0.8198 -0.0862  0.0947
 7676TIP3   OH244518   3.925   1.567  16.234  0.1726 -0.0969  0.6815
 7676TIP3    H144519   3.837   1.533  16.219 -0.4760  0.9229  1.9438
 7676TIP3    H244520   3.961   1.514  16.305  0.0564  0.3137  1.0562
 7677TIP3   OH244521   5.607   0.331  12.319  0.1240 -0.3064 -0.2292
 7677TIP3    H144522   5.551   0.258  12.294 -0.3370  0.8764 -3.0224
 7677TIP3    H244523   5.547   0.402  12.342  0.5457 -0.2240  0.6644
 7678TIP3   OH244524   5.843   1.833   6.288  0.3096 -0.4991 -0.0649
 7678TIP3    H144525   5.902   1.790   6.350 -1.5946 -1.1824  1.3820
 7678TIP3    H244526   5.757   1.829   6.330 -0.6692  1.1123 -1.7395
 7679TIP3   OH244527   6.352   6.723   2.158 -0.0512 -0.5269 -0.2612
 7679TIP3    H144528   6.344   6.628   2.171 -2.3183 -0.1363  2.0759
 7679TIP3    H244529   6.275   6.746   2.107 -0.7128  0.2726  1.0351
 7680TIP3   OH244530   5.076   2.556  14.086  0.5757  0.8711 -0.0357
 7680TIP3    H144531   5.070   2.649  14.063  0.7137  0.7716 -0.4802
 7680TIP3    H244532   5.126   2.555  14.167 -0.3564  1.2662  0.5588
 7681TIP3   OH244533   3.085   5.880  10.757 -0.2650 -0.2374 -0.0139
 7681TIP3    H144534   3.031   5.872  10.678 -0.4541  0.0336  0.0849
 7681TIP3    H244535   3.023   5.869  10.829 -0.7004  2.5425  0.1662
 7682TIP3   OH244536   4.238   6.347   4.709  0.1499  0.3652  0.3171
 7682TIP3    H144537   4.269   6.400   4.636 -0.6823  0.0315 -0.2874
 7682TIP3    H244538   4.273   6.390   4.787  0.4808  1.1063 -0.2365
 7683TIP3   OH244539   2.389   5.685  15.394 -0.0181  1.0639 -0.4757
 7683TIP3    H144540   2.306   5.733  15.398 -0.7692 -0.1277 -1.0323
 7683TIP3    H244541   2.378   5.612  15.455  0.9499  1.3416  0.0595
 7684TIP3   OH244542   0.633   5.497  14.731 -0.1473 -0.6178  0.0506
 7684TIP3    H144543   0.670   5.562  14.791  1.4048 -0.2383 -1.2735
 7684TIP3    H244544   0.569   5.450  14.784 -3.0034  3.3199  0.6142
 7685TIP3   OH244545   4.962   5.300  10.446 -0.2140  0.6128  0.1612
 7685TIP3    H144546   4.896   5.359  10.482  0.1271  0.7350  0.6087
 7685TIP3    H244547   4.962   5.318  10.352  0.9902  2.5102  0.4735
 7686TIP3   OH244548   3.827   2.681  13.484  0.5452 -0.4472  0.3369
 7686TIP3    H144549   3.761   2.613  13.498 -1.3228  0.8367 -1.5946
 7686TIP3    H244550   3.819   2.738  13.560 -0.5880 -0.3617  0.1852
 7687TIP3   OH244551   0.596   6.615   0.457 -0.8481  0.6958 -0.3894
 7687TIP3    H144552   0.653   6.594   0.383 -1.3569  1.3877 -0.9969
 7687TIP3    H244553   0.522   6.660   0.418 -0.0617  3.1757  0.7399
 7688TIP3   OH244554   5.379   3.886   3.525  0.2094  0.1857 -0.0619
 7688TIP3    H144555   5.343   3.884   3.614  0.6069 -0.0010  0.0977
 7688TIP3    H244556   5.386   3.794   3.500  2.0807  0.1139  0.5398
 7689TIP3   OH244557   3.969   3.441  13.346  0.2211  0.5572  0.0551
 7689TIP3    H144558   3.910   3.475  13.280 -0.7133 -0.1222  0.5152
 7689TIP3    H244559   3.918   3.442  13.427  0.0199 -2.1398  0.0537
 7690TIP3   OH244560   3.307   5.487  13.775  0.3168 -0.3033 -0.1316
 7690TIP3    H144561   3.371   5.536  13.826  1.1277 -1.5455  0.0839
 7690TIP3    H244562   3.350   5.405  13.754 -0.8855 -0.8067 -0.7634
 7691TIP3   OH244563   5.238   0.344   2.077  0.3510 -0.0853 -0.4787
 7691TIP3    H144564   5.241   0.428   2.032 -0.5067 -0.3132 -0.9741
 7691TIP3    H244565   5.250   0.366   2.169 -0.7706  0.6789 -0.4977
 7692TIP3   OH244566   3.351   5.415  10.951  0.6633 -0.2788  0.2976
 7692TIP3    H144567   3.292   5.390  10.880  1.4431  0.3099 -0.5710
 7692TIP3    H244568   3.434   5.373  10.930  1.2452  0.8870  0.2152
 7693TIP3   OH244569   1.406   3.455  12.124  0.2231  0.1738 -0.1451
 7693TIP3    H144570   1.315   3.468  12.150  0.5744  0.3520  1.0562
 7693TIP3    H244571   1.452   3.529  12.161  0.6821  0.8051 -1.8661
 7694TIP3   OH244572   3.884   0.689   2.599 -0.2025 -0.0205 -0.1462
 7694TIP3    H144573   3.846   0.604   2.619  0.9277 -0.3478  0.7163
 7694TIP3    H244574   3.939   0.673   2.522 -0.5712  0.1008 -0.4366
 7695TIP3   OH244575   2.239   4.236  15.526 -0.5405  0.0153  0.0882
 7695TIP3    H144576   2.276   4.230  15.614 -1.3157  0.0229  0.4227
 7695TIP3    H244577   2.273   4.160  15.480 -1.4326 -0.9017  0.9060
 7696TIP3   OH244578   2.543   2.369   4.723  0.3349 -0.2233  0.1244
 7696TIP3    H144579   2.599   2.423   4.668 -0.9428  0.5620 -0.4370
 7696TIP3    H244580   2.457   2.374   4.683 -1.0169  1.5575  2.9459
 7697TIP3   OH244581   5.222   5.708   4.791  0.2755 -0.3768  0.6029
 7697TIP3    H144582   5.214   5.741   4.880  0.9241  0.1459  0.4774
 7697TIP3    H244583   5.182   5.621   4.793 -0.6311  0.0388  1.1642
 7698TIP3   OH244584   4.513   1.658  14.624 -0.1824  0.1556 -0.2270
 7698TIP3    H144585   4.553   1.698  14.547  2.7344 -1.1247  0.4874
 7698TIP3    H244586   4.530   1.720  14.695  0.2937 -0.2775  0.0389
 7699TIP3   OH244587   2.261   1.006   3.097 -0.0087 -0.0324 -0.0143
 7699TIP3    H144588   2.337   1.015   3.040  0.1016 -1.6955 -0.1580
 7699TIP3    H244589   2.293   0.957   3.173 -0.7981 -0.2308  0.1998
 7700TIP3   OH244590   2.273   5.915  15.122 -0.1675 -0.4373  0.9031
 7700TIP3    H144591   2.286   5.837  15.067  2.8577 -0.8831  2.0507
 7700TIP3    H244592   2.276   5.988  15.060  4.3365 -0.8342  0.2659
 7701TIP3   OH244593   4.090   3.770  12.508 -0.6780  0.1767 -0.9817
 7701TIP3    H144594   4.164   3.736  12.457 -0.2180  0.2719 -0.3958
 7701TIP3    H244595   4.090   3.864  12.490  0.1337  0.3775 -0.0176
 7702TIP3   OH244596   5.997   5.253   0.812 -0.1176 -0.4150  0.0882
 7702TIP3    H144597   5.983   5.190   0.741 -2.0356  0.1038 -0.0608
 7702TIP3    H244598   6.086   5.236   0.842 -0.1406 -2.3294 -0.7822
 7703TIP3   OH244599   2.485   3.238  15.485  0.7859 -0.1468  0.6303
 7703TIP3    H144600   2.433   3.160  15.503 -0.0766  0.1946 -0.3039
 7703TIP3    H244601   2.537   3.251  15.564 -0.4069 -0.6121  1.5060
 7704TIP3   OH244602   1.431   2.955   0.034  0.3174 -0.6140 -0.9514
 7704TIP3    H144603   1.433   2.984  -0.058  1.3700 -1.0400 -1.0719
 7704TIP3    H244604   1.393   2.868   0.030 -0.7268 -0.1797 -0.8391
 7705TIP3   OH244605   5.009   2.804  14.010  0.8214  0.1561  0.1747
 7705TIP3    H144606   4.971   2.773  13.928 -0.2301  1.5473  0.0957
 7705TIP3    H244607   5.059   2.883  13.985  1.0318  0.2241  0.7752
 7706TIP3   OH244608   5.749   0.423  10.952 -0.4854 -0.1794  0.5780
 7706TIP3    H144609   5.762   0.331  10.975 -1.2175 -0.4402 -0.0017
 7706TIP3    H244610   5.762   0.426  10.857 -1.1015  0.1875  0.5019
 7707TIP3   OH244611   1.879   4.537  12.884  0.0003 -0.1933 -0.0884
 7707TIP3    H144612   1.897   4.443  12.876 -1.9740 -0.5751 -0.4734
 7707TIP3    H244613   1.871   4.568  12.794  0.6953  0.3833  0.0340
 7708TIP3   OH244614   1.145   0.204  12.242 -0.0430  0.1643 -0.1307
 7708TIP3    H144615   1.051   0.189  12.236 -0.2851  1.3972  0.3038
 7708TIP3    H244616   1.162   0.273  12.178  0.0239  2.0848  1.8540
 7709TIP3   OH244617   6.060   3.410   1.653 -0.1531 -0.1630  0.2379
 7709TIP3    H144618   6.013   3.423   1.570  1.0372 -1.0191 -0.5970
 7709TIP3    H244619   6.064   3.498   1.691 -0.5792  0.2744 -0.6850
 7710TIP3   OH244620   6.333   1.221  16.329 -0.0998  0.6365 -0.2138
 7710TIP3    H144621   6.348   1.134  16.367  0.2405  1.5391  1.8650
 7710TIP3    H244622   6.421   1.255  16.312 -0.2514  0.2393 -1.8962
 7711TIP3   OH244623   5.339   2.162  13.067 -0.4902 -0.2257  0.0338
 7711TIP3    H144624   5.370   2.073  13.055  0.6342  0.2178 -0.5031
 7711TIP3    H244625   5.347   2.178  13.161  0.1969 -0.3762  0.0030
 7712TIP3   OH244626   2.492   2.455   2.302 -0.7947  0.6784 -0.1228
 7712TIP3    H144627   2.466   2.517   2.233 -0.1999  0.9380 -0.1218
 7712TIP3    H244628   2.430   2.470   2.373 -0.0241  2.0447  0.3033
 7713TIP3   OH244629   3.152   5.804  13.073 -0.3991 -0.6206 -0.0124
 7713TIP3    H144630   3.068   5.823  13.114 -1.1467 -0.0988 -1.6868
 7713TIP3    H244631   3.170   5.713  13.096 -1.7347 -0.9363 -0.1105
 7714TIP3   OH244632   5.572   6.232  13.083  0.0261  0.7193 -0.4227
 7714TIP3    H144633   5.493   6.192  13.119  0.3753  0.7662  0.4079
 7714TIP3    H244634   5.540   6.283  13.007 -1.0609  2.3090  1.0185
 7715TIP3   OH244635   0.238   4.341   3.689  0.3955 -0.4727 -0.4602
 7715TIP3    H144636   0.204   4.430   3.679  0.1288 -0.5680 -0.3969
 7715TIP3    H244637   0.333   4.353   3.695  0.3016 -0.1017  0.5445
 7716TIP3   OH244638   0.377   0.737  16.306  0.2394  0.6196 -0.4305
 7716TIP3    H144639   0.471   0.727  16.319  0.3146  0.4580 -1.0615
 7716TIP3    H244640   0.360   0.830  16.320  0.3603  0.5125  0.4688
 7717TIP3   OH244641   0.062   3.857   4.611  0.8981 -0.1032 -0.1981
 7717TIP3    H144642   0.136   3.806   4.576  1.5610  1.3408 -0.9792
 7717TIP3    H244643   0.099   3.943   4.629 -0.4289  0.4122  0.1556
 7718TIP3   OH244644   2.843   6.085  15.588  0.7216  0.2421 -0.2543
 7718TIP3    H144645   2.853   5.996  15.620 -0.6063 -0.0750 -0.6562
 7718TIP3    H244646   2.750   6.104  15.598  0.8633  1.3325 -0.8334
 7719TIP3   OH244647   4.970   1.783   0.172  0.0308 -0.0707 -0.1319
 7719TIP3    H144648   4.954   1.756   0.262 -2.5935 -3.1273 -1.3164
 7719TIP3    H244649   5.054   1.743   0.149  1.1349  1.4319  1.1083
 7720TIP3   OH244650   6.371   2.404  14.253 -0.0755  0.0250 -0.1064
 7720TIP3    H144651   6.304   2.366  14.195 -0.6767 -0.3886  0.8392
 7720TIP3    H244652   6.324   2.471  14.303  0.1945 -0.3511  0.6547
 7721TIP3   OH244653   1.372   1.529   5.446 -0.0586  0.4478 -0.3198
 7721TIP3    H144654   1.368   1.440   5.411 -1.0799  0.7701 -1.0775
 7721TIP3    H244655   1.466   1.550   5.449  0.1859 -0.6258 -0.1831
 7722TIP3   OH244656   2.072   2.371  10.520 -0.9869 -0.6763  0.2587
 7722TIP3    H144657   2.141   2.315  10.556  0.2218  1.0755  0.8091
 7722TIP3    H244658   2.074   2.353  10.426 -0.8663 -1.7751  0.4504
 7723TIP3   OH244659   5.006   0.731  15.700 -0.6244 -0.3195  0.2795
 7723TIP3    H144660   5.004   0.639  15.724 -1.1617 -1.5863 -3.8563
 7723TIP3    H244661   4.914   0.759  15.703 -0.7221 -0.5478 -0.3814
 7724TIP3   OH244662   6.649   2.714  17.001  0.1044 -0.2827 -0.0465
 7724TIP3    H144663   6.676   2.771  16.929 -0.2868  0.1146  0.1121
 7724TIP3    H244664   6.701   2.743  17.075 -1.6162  1.3801  0.6031
 7725TIP3   OH244665   0.723   6.044   0.999  0.1309 -0.4688 -0.1989
 7725TIP3    H144666   0.719   5.979   1.069  0.1445 -0.5428 -0.2654
 7725TIP3    H244667   0.777   6.115   1.034 -1.7322  0.5643  0.7184
 7726TIP3   OH244668   5.934   3.893   0.287  0.4420  0.1795 -0.1475
 7726TIP3    H144669   5.890   3.914   0.370  0.2448  0.0252 -0.2132
 7726TIP3    H244670   5.980   3.810   0.305  2.0134  1.1156  0.4128
 7727TIP3   OH244671   2.906   0.885   0.488 -0.3791 -0.4228  0.5200
 7727TIP3    H144672   2.830   0.892   0.431  0.8323  1.6827 -0.9856
 7727TIP3    H244673   2.871   0.897   0.577 -1.7852  0.7076 -0.1530
 7728TIP3   OH244674   4.870   2.881   1.316  0.4605 -0.6513  0.4747
 7728TIP3    H144675   4.927   2.903   1.242 -2.0932 -0.5842 -1.6219
 7728TIP3    H244676   4.876   2.785   1.322  2.2862 -0.5242  1.6738
 7729TIP3   OH244677   3.818   6.206   3.957 -0.0239 -0.0378 -0.3029
 7729TIP3    H144678   3.831   6.298   3.936  1.2876 -0.1905 -0.2596
 7729TIP3    H244679   3.840   6.160   3.876 -0.3926 -0.3383 -0.2383
 7730TIP3   OH244680   1.103   0.879  14.284  0.1966  0.4402  0.5367
 7730TIP3    H144681   1.034   0.919  14.337  0.0187 -0.9414  1.3768
 7730TIP3    H244682   1.119   0.794  14.324 -1.1178 -1.4508 -2.6266
 7731TIP3   OH244683   3.849   1.923  12.358 -0.2597 -0.0609  0.0344
 7731TIP3    H144684   3.841   1.834  12.324  0.7011  1.0843 -3.6680
 7731TIP3    H244685   3.762   1.944  12.391 -0.5674 -2.2438  0.7934
 7732TIP3   OH244686   5.270   1.648   1.163  0.3356 -0.5028 -0.0440
 7732TIP3    H144687   5.242   1.630   1.253  0.4348 -1.9973 -0.2934
 7732TIP3    H244688   5.284   1.743   1.161 -0.1983 -0.3704  1.3594
 7733TIP3   OH244689   4.265   5.967  12.709  0.3611 -0.3492  0.0797
 7733TIP3    H144690   4.265   5.957  12.804 -2.4024 -3.3707 -0.0275
 7733TIP3    H244691   4.315   5.892  12.677  0.0948 -0.1491 -0.8326
 7734TIP3   OH244692   1.029   0.896  15.109  0.2223 -0.3209  0.2512
 7734TIP3    H144693   1.090   0.839  15.157 -1.3060 -2.3247 -0.0739
 7734TIP3    H244694   0.964   0.836  15.072 -1.6850  1.6826  0.1798
 7735TIP3   OH244695   2.694   6.079  11.523 -0.3007  0.5182 -0.3238
 7735TIP3    H144696   2.727   6.136  11.454  1.7118  1.8360  1.6008
 7735TIP3    H244697   2.602   6.105  11.533 -0.1953  1.3998 -1.4196
 7736TIP3   OH244698   0.637   5.047  10.647  0.3385 -0.3368 -0.0737
 7736TIP3    H144699   0.721   5.021  10.609  0.9424  0.2239  0.8516
 7736TIP3    H244700   0.574   5.030  10.577  1.5431  1.8629 -1.8579
 7737TIP3   OH244701   0.092   0.847  12.619  0.3773  0.1631  0.2697
 7737TIP3    H144702   0.031   0.890  12.679 -0.7131 -1.2953  0.2390
 7737TIP3    H244703   0.133   0.920  12.571 -1.5310  1.1800  0.0936
 7738TIP3   OH244704   6.775   3.898  11.194  0.3272 -0.6129 -0.4096
 7738TIP3    H144705   6.838   3.892  11.265  0.1063 -2.2898 -0.3220
 7738TIP3    H244706   6.808   3.839  11.127  0.0118  0.2013 -1.3149
 7739TIP3   OH244707   3.446   1.268  16.316  0.6027  0.0343  0.4613
 7739TIP3    H144708   3.421   1.283  16.225  0.5995 -0.4368  0.3814
 7739TIP3    H244709   3.517   1.203  16.311 -0.7570 -1.5471  0.8934
 7740TIP3   OH244710   6.489   6.778  12.899 -0.3724  0.4724 -0.4380
 7740TIP3    H144711   6.433   6.805  12.827  0.0618 -1.6357 -1.6314
 7740TIP3    H244712   6.578   6.798  12.870 -0.2274  0.0564 -0.2907
 7741TIP3   OH244713   6.701   4.415   4.166 -0.1792  0.9955 -0.5026
 7741TIP3    H144714   6.762   4.342   4.162  0.7128  1.7420 -0.9012
 7741TIP3    H244715   6.750   4.486   4.208 -0.5893  1.7612 -1.2678
 7742TIP3   OH244716   6.216   2.245  12.963 -0.5680  0.7499 -0.6931
 7742TIP3    H144717   6.237   2.293  13.042  0.3873  2.1576 -1.7638
 7742TIP3    H244718   6.209   2.154  12.992 -1.1147  1.3187  1.1384
 7743TIP3   OH244719   6.471   1.826  14.031  0.0376  0.1888 -0.5830
 7743TIP3    H144720   6.406   1.844  13.963  0.7102  0.9287 -1.0302
 7743TIP3    H244721   6.527   1.903  14.033  1.4109 -0.7704 -0.7652
 7744TIP3   OH244722   3.595   1.499  15.119 -0.0901  0.0438 -0.1241
 7744TIP3    H144723   3.611   1.500  15.024  1.4042 -1.7476  0.0542
 7744TIP3    H244724   3.507   1.535  15.128 -0.7286 -0.7835 -2.3106
 7745TIP3   OH244725   1.706   1.759  10.488 -0.0784 -0.5077 -0.0823
 7745TIP3    H144726   1.741   1.846  10.471 -0.1240 -0.1548  1.4702
 7745TIP3    H244727   1.611   1.771  10.491 -0.2643 -1.0639 -2.1201
 7746TIP3   OH244728   5.736   1.108   4.050 -0.6348 -0.2171  0.4358
 7746TIP3    H144729   5.716   1.105   3.956 -0.6138 -0.1948  0.4303
 7746TIP3    H244730   5.823   1.148   4.054 -0.2716 -0.9940  0.4186
 7747TIP3   OH244731   6.158   1.952   6.100  0.0118 -0.2505 -0.6305
 7747TIP3    H144732   6.189   2.041   6.117 -2.6856  0.4344  1.5329
 7747TIP3    H244733   6.067   1.964   6.073 -0.2878 -2.3375 -0.6471
 7748TIP3   OH244734   4.358   3.278  15.335  0.0377  0.3805 -0.3166
 7748TIP3    H144735   4.348   3.362  15.380  1.9832 -0.3939  1.7637
 7748TIP3    H244736   4.314   3.215  15.391 -1.3123 -0.0682 -1.8059
 7749TIP3   OH244737   0.400   5.175  15.553  0.3814 -0.0335 -0.2337
 7749TIP3    H144738   0.309   5.144  15.551  0.2571  0.3320 -0.3814
 7749TIP3    H244739   0.419   5.189  15.646  0.5038 -0.7400 -0.1536
 7750TIP3   OH244740   1.318   2.948   1.026  0.0613  0.0037  0.2319
 7750TIP3    H144741   1.380   2.909   0.964  0.7994  1.3442  0.0893
 7750TIP3    H244742   1.371   2.967   1.103 -0.8833 -1.7989  1.3946
 7751TIP3   OH244743   6.016   5.802   5.390 -0.2720  0.2394  0.2690
 7751TIP3    H144744   6.048   5.720   5.428  3.3141  1.0920 -0.4575
 7751TIP3    H244745   5.937   5.778   5.343 -0.5936 -2.3181  1.9323
 7752TIP3   OH244746   6.723   1.846  11.164 -0.6972  0.4218 -0.2505
 7752TIP3    H144747   6.746   1.829  11.255  0.0015 -1.6761 -0.7512
 7752TIP3    H244748   6.771   1.926  11.142 -2.4302  2.1189  1.7051
 7753TIP3   OH244749   3.149   1.562   1.564  0.1182 -0.9004  0.2201
 7753TIP3    H144750   3.193   1.646   1.549 -3.5106  1.3269  0.7185
 7753TIP3    H244751   3.147   1.520   1.477  1.1871 -0.0570 -0.2358
 7754TIP3   OH244752   1.928   2.423   1.123 -0.0789 -0.0661  0.0810
 7754TIP3    H144753   1.972   2.457   1.045 -0.6625  0.8339  0.1326
 7754TIP3    H244754   1.893   2.500   1.166 -0.1469 -0.5997  1.0078
 7755TIP3   OH244755   1.903   6.672   1.219  0.0107  0.0807 -0.2096
 7755TIP3    H144756   1.982   6.722   1.199  0.2001 -0.2457 -0.2813
 7755TIP3    H244757   1.853   6.728   1.278 -1.2223  1.6894 -2.6283
 7756TIP3   OH244758   5.480   1.532   3.827 -0.2210 -0.3159  0.6919
 7756TIP3    H144759   5.445   1.472   3.761 -0.5839  0.4863  0.1384
 7756TIP3    H244760   5.403   1.559   3.877 -0.0213 -0.5188  1.1126
 7757TIP3   OH244761   1.224   0.104  11.929  0.0676  0.1229 -0.6300
 7757TIP3    H144762   1.222   0.070  11.840 -1.2685  0.7964 -0.8754
 7757TIP3    H244763   1.271   0.187  11.922 -0.4132  0.3881 -0.8045
 7758TIP3   OH244764   1.205   1.007  16.590 -0.3922  0.4875 -0.4480
 7758TIP3    H144765   1.126   1.061  16.594  0.0142  1.1472 -1.1215
 7758TIP3    H244766   1.186   0.941  16.524 -2.0231 -2.1138  2.3845
 7759TIP3   OH244767   5.951   5.615   4.370  0.8336  0.0346  0.2051
 7759TIP3    H144768   5.994   5.555   4.431  1.3241  0.4787  0.2985
 7759TIP3    H244769   5.908   5.679   4.427  1.0291  0.2691  0.0880
 7760TIP3   OH244770   1.528   5.816  12.469  0.1485  0.3072 -0.8151
 7760TIP3    H144771   1.623   5.807  12.454  0.1675 -0.1662 -0.4237
 7760TIP3    H244772   1.495   5.726  12.470 -0.0086  0.3474  0.8976
 7761TIP3   OH244773   2.688   2.780  16.598 -0.0083 -0.2711 -0.4665
 7761TIP3    H144774   2.677   2.867  16.558  1.3814 -0.0109 -0.3214
 7761TIP3    H244775   2.625   2.780  16.671 -0.0628  0.6035 -0.4954
 7762TIP3   OH244776   6.264   4.858   3.883 -0.3138 -0.5854  0.6940
 7762TIP3    H144777   6.231   4.779   3.841 -3.0205  0.3620  0.8664
 7762TIP3    H244778   6.288   4.830   3.972 -0.7515 -1.3084  0.5891
 7763TIP3   OH244779   5.473   3.198   0.714 -0.4952  0.1836 -0.1723
 7763TIP3    H144780   5.457   3.213   0.808 -1.6398 -0.6620 -0.2127
 7763TIP3    H244781   5.553   3.146   0.712 -1.3757 -1.2548  0.4605
 7764TIP3   OH244782   0.286   6.467   2.091  0.3169 -0.0661 -0.4314
 7764TIP3    H144783   0.207   6.514   2.117  0.1681  0.2775 -1.4528
 7764TIP3    H244784   0.288   6.473   1.995  0.1552 -2.3797 -0.6350
 7765TIP3   OH244785   2.999   0.639   0.331 -0.1703 -0.1367 -0.2853
 7765TIP3    H144786   2.919   0.609   0.374  0.0990 -1.6594 -0.8080
 7765TIP3    H244787   2.968   0.688   0.255 -0.6240  1.6255  0.9490
 7766TIP3   OH244788   0.005   4.610   4.306 -0.1514  0.0385 -0.5270
 7766TIP3    H144789   0.065   4.660   4.251 -0.2617 -0.3159 -0.9718
 7766TIP3    H244790  -0.009   4.665   4.383  0.9909 -0.0002 -0.2702
 7767TIP3   OH244791   1.944   5.356   4.330  0.2262 -0.0549  0.3313
 7767TIP3    H144792   1.851   5.367   4.350 -0.2251 -1.5400 -0.8259
 7767TIP3    H244793   1.953   5.384   4.239  0.6915 -1.0153  0.0721
 7768TIP3   OH244794   1.322   6.380   3.779  0.5538  0.0004 -0.1951
 7768TIP3    H144795   1.334   6.428   3.861  0.0422  1.7949 -1.0999
 7768TIP3    H244796   1.309   6.289   3.805  2.4462  0.1721  1.5765
 7769TIP3   OH244797   4.520   0.881  11.288  0.4484  0.6363  0.0415
 7769TIP3    H144798   4.531   0.896  11.194 -2.3010 -0.8532 -0.6010
 7769TIP3    H244799   4.442   0.932  11.311 -0.8866 -1.6211  0.7387
 7770TIP3   OH244800   1.557   4.851  13.732  0.0704 -0.5437 -0.7094
 7770TIP3    H144801   1.487   4.807  13.782  1.9795  0.0480  2.8359
 7770TIP3    H244802   1.516   4.933  13.702 -1.7686 -1.8890 -2.1597
 7771TIP3   OH244803   4.058   5.725  12.591 -0.0998 -0.4147  0.3292
 7771TIP3    H144804   4.058   5.758  12.501 -2.1870 -1.8871 -0.2733
 7771TIP3    H244805   4.031   5.800  12.644  3.2856  1.1570  0.1524
 7772TIP3   OH244806   3.576   2.935   3.980  0.5573  0.3708 -0.2247
 7772TIP3    H144807   3.576   2.967   3.890  3.2537  1.2650  0.0040
 7772TIP3    H244808   3.551   3.011   4.032 -1.6926 -0.3237 -0.1892
 7773TIP3   OH244809   6.625   6.698  16.350 -0.3915  0.2456 -0.4467
 7773TIP3    H144810   6.640   6.604  16.364 -0.1080  0.2372 -0.7954
 7773TIP3    H244811   6.648   6.738  16.434 -0.9251 -0.0344 -0.1542
 7774TIP3   OH244812   4.803   3.735  16.241 -0.5831 -0.0681  0.1948
 7774TIP3    H144813   4.832   3.823  16.216 -0.6587 -0.7162 -2.4980
 7774TIP3    H244814   4.880   3.695  16.282  0.5118  0.2494 -1.4314
 7775TIP3   OH244815   2.021   1.649   4.664  0.0884  0.0869  0.5048
 7775TIP3    H144816   2.046   1.570   4.617  0.0987 -0.1706  0.9387
 7775TIP3    H244817   1.965   1.697   4.603 -1.7909 -1.3241  1.0327
 7776TIP3   OH244818   1.575   3.892  12.385  0.7446 -0.0065  0.4032
 7776TIP3    H144819   1.642   3.867  12.321  0.5264  0.0608  0.1419
 7776TIP3    H244820   1.623   3.937  12.454  1.0690 -0.6874  0.6222
 7777TIP3   OH244821   3.489   1.370   2.785  0.3739  0.1977  0.5243
 7777TIP3    H144822   3.453   1.283   2.772 -0.1983  0.7516 -2.1783
 7777TIP3    H244823   3.561   1.357   2.847  0.6427 -2.2864 -0.2037
 7778TIP3   OH244824   2.207   3.226   1.173  0.4649  0.2209  0.2385
 7778TIP3    H144825   2.162   3.305   1.201 -1.0551 -0.3222 -0.5662
 7778TIP3    H244826   2.266   3.205   1.245  1.6363  2.6003  0.0747
 7779TIP3   OH244827   5.899   1.739  16.346 -0.4013  0.6394  0.2429
 7779TIP3    H144828   5.992   1.758  16.355 -0.2366 -0.8938  2.5497
 7779TIP3    H244829   5.879   1.757  16.254  2.1617  0.9644 -0.3028
 7780TIP3   OH244830   5.150   1.354  10.332 -0.0361  0.3680  0.2280
 7780TIP3    H144831   5.154   1.442  10.368  0.7670  0.7813 -0.8355
 7780TIP3    H244832   5.228   1.310  10.367  0.0337  0.3513  0.0490
 7781TIP3   OH244833   5.947   0.688   4.753  0.0351 -0.2597  0.0527
 7781TIP3    H144834   5.882   0.664   4.818 -1.2602 -1.5265 -1.5892
 7781TIP3    H244835   5.922   0.776   4.724 -0.7113 -0.5571 -0.2396
 7782TIP3   OH244836   3.600   4.698  17.023  0.0839  0.5594 -0.8995
 7782TIP3    H144837   3.505   4.688  17.015  0.2107 -0.3160 -1.5521
 7782TIP3    H244838   3.618   4.693  17.117 -0.3189 -1.5252 -0.8920
 7783TIP3   OH244839   4.763   3.424   0.204  0.1526  1.1695  1.1471
 7783TIP3    H144840   4.801   3.424   0.116  2.0298  1.4342  1.9034
 7783TIP3    H244841   4.733   3.514   0.217  0.7638  1.3845  1.1174
 7784TIP3   OH244842   5.891   1.454   1.647  0.3747  0.1561 -0.3112
 7784TIP3    H144843   5.816   1.427   1.594 -2.2428  0.5455  2.9199
 7784TIP3    H244844   5.925   1.372   1.683 -0.6967  0.1999  0.8705
 7785TIP3   OH244845   3.725   6.205  16.699 -0.5017  0.1654 -0.6009
 7785TIP3    H144846   3.716   6.125  16.751  2.3095  0.5459  0.6549
 7785TIP3    H244847   3.650   6.258  16.724 -0.4416 -0.6017  1.4137
 7786TIP3   OH244848   0.278   0.238   6.256 -0.2083 -0.0672 -0.7163
 7786TIP3    H144849   0.352   0.190   6.294 -0.2043 -0.8131 -1.6345
 7786TIP3    H244850   0.205   0.177   6.261 -0.8818  0.7774  0.4772
 7787TIP3   OH244851   3.875   6.769  12.864 -0.0392  0.0108  0.0899
 7787TIP3    H144852   3.780   6.772  12.856 -0.1774  0.4392  1.6125
 7787TIP3    H244853   3.906   6.754  12.775 -1.5258 -0.1200 -0.4302
 7788TIP3   OH244854   5.506   1.338  12.280  0.1567  0.2584  0.5237
 7788TIP3    H144855   5.565   1.263  12.285  1.5103  1.2640  0.4408
 7788TIP3    H244856   5.418   1.300  12.281  0.7841 -1.4614 -1.6412
 7789TIP3   OH244857   2.343   3.265   2.607  0.3448  0.2548  0.6960
 7789TIP3    H144858   2.258   3.260   2.564  0.7685 -0.8646 -0.0677
 7789TIP3    H244859   2.324   3.298   2.695 -0.6346  1.8721 -0.0662
 7790TIP3   OH244860   6.629   3.070  10.909  0.2751  0.1928 -0.4647
 7790TIP3    H144861   6.595   3.157  10.930 -0.1456  0.1670 -1.0142
 7790TIP3    H244862   6.702   3.085  10.849  1.3666  0.2562  0.8313
 7791TIP3   OH244863   2.881   0.735  14.892  0.1062  0.4127 -0.1168
 7791TIP3    H144864   2.952   0.769  14.946  1.8918 -1.0457 -1.3830
 7791TIP3    H244865   2.841   0.812  14.853  0.0145  1.3584  1.7529
 7792TIP3   OH244866   0.756   0.837  16.631  0.1286 -0.7208 -0.2268
 7792TIP3    H144867   0.662   0.822  16.637 -0.2918  1.0851 -1.5839
 7792TIP3    H244868   0.794   0.776  16.695 -2.0819  0.2996  2.2245
 7793TIP3   OH244869   0.446   3.345   3.696  0.4114 -0.7422  0.4981
 7793TIP3    H144870   0.371   3.320   3.641 -0.3537  0.1149  1.1204
 7793TIP3    H244871   0.518   3.355   3.634 -1.0472  2.9111 -0.8483
 7794TIP3   OH244872   3.500   4.402  12.687 -0.2416  0.0646 -0.0703
 7794TIP3    H144873   3.471   4.317  12.720 -0.8718  0.7245  1.1692
 7794TIP3    H244874   3.560   4.435  12.754  0.0911  0.5490 -0.5975
 7795TIP3   OH244875   4.504   1.260   1.973  0.2407  0.4171 -0.0071
 7795TIP3    H144876   4.559   1.335   1.950 -0.4526  1.1380  0.6482
 7795TIP3    H244877   4.520   1.197   1.902  0.9591  1.1097 -0.4827
 7796TIP3   OH244878   1.109   3.693   2.109  0.4070  0.0918 -0.1307
 7796TIP3    H144879   1.182   3.701   2.170 -0.4878  1.7653  0.7773
 7796TIP3    H244880   1.119   3.767   2.049  0.4719 -0.7278 -1.1642
 7797TIP3   OH244881   4.358   4.196  11.236 -0.3148 -0.0168 -0.1326
 7797TIP3    H144882   4.383   4.198  11.143  0.5426 -2.8922 -0.0441
 7797TIP3    H244883   4.425   4.249  11.280  1.3516 -1.4839 -0.7993
 7798TIP3   OH244884   4.985   4.836  12.735 -0.0845 -0.3138  0.1309
 7798TIP3    H144885   5.071   4.871  12.754  0.0290 -1.0003  0.9362
 7798TIP3    H244886   4.991   4.743  12.757 -1.9252  0.1981  3.3984
 7799TIP3   OH244887   3.082   3.288  15.147  0.1343 -0.1221  0.1344
 7799TIP3    H144888   3.033   3.356  15.100  0.4736  1.0740  1.4571
 7799TIP3    H244889   3.104   3.224  15.079 -2.5578 -0.3522 -0.6531
 7800TIP3   OH244890   3.323   2.565   2.972 -0.0347 -0.1249 -0.7865
 7800TIP3    H144891   3.399   2.514   2.943  0.6821 -0.3988  1.4274
 7800TIP3    H244892   3.259   2.499   2.998 -0.0986  0.0959 -0.3767
 7801TIP3   OH244893   6.068   0.790   6.221 -0.3097 -0.3298 -0.8773
 7801TIP3    H144894   6.104   0.791   6.309  0.8249 -1.3420 -1.3021
 7801TIP3    H244895   6.017   0.871   6.215 -0.9392 -0.5538  0.9025
 7802TIP3   OH244896   5.357   6.019  13.438  0.1709  0.1901  0.1066
 7802TIP3    H144897   5.349   6.019  13.343 -0.3356 -0.7392  0.1340
 7802TIP3    H244898   5.416   5.946  13.456 -0.4422 -0.2053  0.5471
 7803TIP3   OH244899   5.804   3.254   1.310  0.3799  0.1881  0.1425
 7803TIP3    H144900   5.787   3.160   1.308  0.8118  0.0870 -2.3603
 7803TIP3    H244901   5.746   3.290   1.242  2.1117  1.3205 -0.8171
 7804TIP3   OH244902   2.220   1.835   4.315 -0.5310  0.2311  0.5822
 7804TIP3    H144903   2.212   1.851   4.221  0.0294  1.0278  0.6539
 7804TIP3    H244904   2.132   1.807   4.342 -1.1230  1.5028  0.0812
 7805TIP3   OH244905   6.032   3.468  10.515 -0.1689 -0.4429  0.4399
 7805TIP3    H144906   6.017   3.377  10.541  1.2744 -0.9402 -0.3314
 7805TIP3    H244907   6.050   3.463  10.421 -1.0648  0.7781  0.1812
 7806TIP3   OH244908   1.509   2.448  12.384  0.0430 -0.2912 -0.1762
 7806TIP3    H144909   1.439   2.512  12.396  0.2874  0.1710 -1.0334
 7806TIP3    H244910   1.585   2.488  12.427  0.0483 -0.2855 -0.1905
 7807TIP3   OH244911   5.901   1.637   3.918 -0.0004  0.1237  0.5258
 7807TIP3    H144912   5.932   1.585   3.844  2.4770  0.4497  1.2390
 7807TIP3    H244913   5.828   1.587   3.955 -0.3359 -0.7452 -1.2401
 7808TIP3   OH244914   3.608   2.085  16.071  0.4619  0.0241  0.0058
 7808TIP3    H144915   3.523   2.041  16.068  1.5851 -2.2368 -1.0873
 7808TIP3    H244916   3.648   2.057  16.153  0.9432 -0.5826 -0.4216
 7809TIP3   OH244917   5.749   3.367   4.068  0.6292  0.3870  0.4045
 7809TIP3    H144918   5.670   3.316   4.086  0.5640  0.1641 -0.4618
 7809TIP3    H244919   5.809   3.346   4.140  0.3329 -0.3467  0.4406
 7810TIP3   OH244920   2.972   2.028   0.952  0.3974  0.0108 -0.3244
 7810TIP3    H144921   2.930   2.084   0.887 -1.8814 -1.2844 -0.0635
 7810TIP3    H244922   2.974   2.081   1.032 -1.5145 -0.1372 -0.1410
 7811TIP3   OH244923   2.355   1.871  16.997  0.7030 -0.1438  0.7325
 7811TIP3    H144924   2.265   1.901  17.001  0.7384  0.4900 -1.4849
 7811TIP3    H244925   2.352   1.780  17.029 -0.4202  0.3375  2.0894
 7812TIP3   OH244926   2.972   2.091  14.469  0.2852  0.1460 -0.2971
 7812TIP3    H144927   2.905   2.160  14.469 -1.1579 -1.1863  1.4211
 7812TIP3    H244928   3.045   2.129  14.518  0.2231  1.0619 -0.8833
 7813TIP3   OH244929   3.544   5.940  12.324  0.1712  0.3263  0.1301
 7813TIP3    H144930   3.486   5.996  12.375  0.4911  0.3220  0.5046
 7813TIP3    H244931   3.596   5.893  12.389  1.0185  0.7796 -0.1956
 7814TIP3   OH244932   2.014   6.392   1.558 -0.4484  0.1112  0.0923
 7814TIP3    H144933   2.074   6.453   1.516 -1.1613 -0.2184 -1.4634
 7814TIP3    H244934   2.030   6.404   1.652 -0.5270  2.6012 -0.1547
 7815TIP3   OH244935   6.591   4.713  13.171 -0.5707 -0.0024  0.0114
 7815TIP3    H144936   6.589   4.671  13.257  1.6125 -1.7455 -0.6816
 7815TIP3    H244937   6.525   4.666  13.120 -2.2636  1.4037  0.8257
 7816TIP3   OH244938   1.940   6.672  17.164  0.1046 -0.3617 -0.7374
 7816TIP3    H144939   2.006   6.741  17.160  1.2923 -1.3022  1.2502
 7816TIP3    H244940   1.958   6.617  17.088  0.7618  0.0982 -0.9205
 7817TIP3   OH244941   3.528   4.209  10.868 -0.0761 -0.2137  0.3411
 7817TIP3    H144942   3.585   4.263  10.923 -0.3790 -0.9328  1.4073
 7817TIP3    H244943   3.502   4.267  10.796  0.4702  0.7150  0.8695
 7818TIP3   OH244944   3.772   4.797  13.305 -0.1311 -0.8173 -0.1828
 7818TIP3    H144945   3.857   4.800  13.262 -0.0069 -0.0118  0.1075
 7818TIP3    H244946   3.792   4.782  13.398 -0.2904 -0.5069 -0.0940
 7819TIP3   OH244947   2.741   0.058   1.069  0.0171 -0.4900  0.1783
 7819TIP3    H144948   2.819   0.024   1.113 -0.0588 -0.1512  0.5842
 7819TIP3    H244949   2.764   0.056   0.976  0.6520 -0.0547  0.3158
 7820TIP3   OH244950   5.910   3.246   0.175  0.4206 -0.2288 -0.3282
 7820TIP3    H144951   5.952   3.298   0.106  1.3276 -2.0364 -1.2372
 7820TIP3    H244952   5.861   3.179   0.127  2.2060 -2.4101  0.6842
 7821TIP3   OH244953   3.662   3.664   4.886 -0.2002 -0.2596 -0.2978
 7821TIP3    H144954   3.649   3.677   4.792 -1.2852 -0.2626 -0.1612
 7821TIP3    H244955   3.630   3.575   4.902 -0.3874 -0.1169  0.1383
 7822TIP3   OH244956   4.935   2.190   1.686  0.2951 -0.4290  0.3820
 7822TIP3    H144957   4.860   2.206   1.629  0.0753  1.2466  1.0893
 7822TIP3    H244958   4.986   2.271   1.681  1.6328 -1.2350  0.5583
 7823TIP3   OH244959   3.415   5.785   5.676 -0.3518 -0.0132 -0.0869
 7823TIP3    H144960   3.325   5.798   5.707 -0.3687  1.9937 -0.8153
 7823TIP3    H244961   3.406   5.725   5.602 -0.7948 -1.5527  1.1584
 7824TIP3   OH244962   5.402   0.256  15.327  0.1649  0.6281 -0.0461
 7824TIP3    H144963   5.478   0.200  15.345 -0.2015  0.0620 -0.2383
 7824TIP3    H244964   5.438   0.329  15.277  0.6859  0.6836  0.3964
 7825TIP3   OH244965   1.251   3.927  15.736  0.0827  0.4587  0.1562
 7825TIP3    H144966   1.320   3.902  15.797 -0.4048  0.1197  0.5753
 7825TIP3    H244967   1.244   3.852  15.676  0.7510  0.9038 -0.5006
 7826TIP3   OH244968   4.323   0.068   1.901 -0.0935 -0.2404 -0.0914
 7826TIP3    H144969   4.382   0.072   1.825 -0.8762 -1.7088 -0.8335
 7826TIP3    H244970   4.338  -0.019   1.938 -1.7070 -0.6439 -0.2762
 7827TIP3   OH244971   3.905   0.962  12.555 -0.5039 -0.5458  0.4205
 7827TIP3    H144972   3.936   0.873  12.537 -1.8415 -1.1366  0.8667
 7827TIP3    H244973   3.984   1.014  12.564  0.3277 -1.8014  0.6542
 7828TIP3   OH244974   3.182   1.232  10.419 -0.0412 -0.3485 -0.4583
 7828TIP3    H144975   3.147   1.296  10.481 -2.1067 -1.5617 -0.2585
 7828TIP3    H244976   3.240   1.177  10.471 -0.9922 -0.7505  0.2086
 7829TIP3   OH244977   2.702   6.226   1.214  0.5653 -0.2883  0.0810
 7829TIP3    H144978   2.638   6.295   1.196 -0.1354 -1.3686 -1.8574
 7829TIP3    H244979   2.686   6.201   1.305 -1.0754  0.1525 -0.0683
 7830TIP3   OH244980   6.289   4.118   4.992 -0.1463 -0.3822  0.5264
 7830TIP3    H144981   6.236   4.176   5.047  0.0411 -0.7488  1.0956
 7830TIP3    H244982   6.226   4.079   4.932 -0.4865 -0.5803  1.0021
 7831TIP3   OH244983   3.249   2.135   1.362  0.6997  0.0245  0.5025
 7831TIP3    H144984   3.181   2.080   1.402  0.7019  0.2193  0.7730
 7831TIP3    H244985   3.282   2.188   1.434  1.6895 -0.6239  0.5482
 7832TIP3   OH244986   2.828   0.447   5.553 -0.8233 -0.9168 -0.3148
 7832TIP3    H144987   2.891   0.389   5.597  0.3617  1.0268  0.6816
 7832TIP3    H244988   2.771   0.477   5.623 -0.1867  0.6331 -0.4364
 7833TIP3   OH244989   2.442   1.221   4.431  0.0579 -0.0844 -0.0155
 7833TIP3    H144990   2.397   1.294   4.473  1.3902 -0.1507  1.6342
 7833TIP3    H244991   2.528   1.217   4.474  1.0039 -1.0189 -1.8509
 7834TIP3   OH244992   2.187   1.447   3.987  0.0795  0.1058  1.1092
 7834TIP3    H144993   2.120   1.380   3.971  0.3078 -0.1878  1.3703
 7834TIP3    H244994   2.190   1.498   3.906  1.1132 -1.2700  0.2356
 7835TIP3   OH244995   5.707   6.133  12.126 -0.1272 -0.4544  0.2921
 7835TIP3    H144996   5.717   6.193  12.200  0.0985  0.1121 -0.1819
 7835TIP3    H244997   5.787   6.081  12.126  0.0565 -0.1751  0.2062
 7836TIP3   OH244998   1.129   6.737   5.936 -0.2962  0.0922 -0.7820
 7836TIP3    H144999   1.174   6.695   5.863 -2.2960 -2.2504 -0.7815
 7836TIP3    H245000   1.190   6.805   5.965  2.0792 -1.2007 -2.3622
 7837TIP3   OH245001   3.429   3.418   0.693  0.3409 -0.1692  0.6990
 7837TIP3    H145002   3.472   3.492   0.651 -0.1332  0.0069  0.5159
 7837TIP3    H245003   3.459   3.421   0.784  1.1225 -0.3654  0.4504
 7838TIP3   OH245004   4.388   1.400  13.458  0.3214  0.0419 -0.2678
 7838TIP3    H145005   4.358   1.315  13.489 -0.4737  1.3343  3.0504
 7838TIP3    H245006   4.479   1.405  13.488  0.3251  0.3709 -0.3308
 7839TIP3   OH245007   0.887   4.574   5.490 -0.5222 -0.5212 -0.1009
 7839TIP3    H145008   0.841   4.562   5.407  1.9981  0.5292 -1.7732
 7839TIP3    H245009   0.946   4.498   5.497 -0.1125 -0.1789  0.2944
 7840TIP3   OH245010   5.116   3.366  12.793  0.2960  0.3840  0.1328
 7840TIP3    H145011   5.189   3.406  12.839  0.0174 -0.6238  1.5155
 7840TIP3    H245012   5.071   3.439  12.751  1.5797  1.1079 -0.0264
 7841TIP3   OH245013   5.113   1.099   1.094  0.1260  0.3558  0.5890
 7841TIP3    H145014   5.169   1.072   1.020 -0.3591  1.1940 -0.0995
 7841TIP3    H245015   5.074   1.181   1.066 -0.6480  0.3147  1.4938
 7842TIP3   OH245016   1.911   0.513  14.423  1.3141 -0.0650 -0.0741
 7842TIP3    H145017   1.827   0.476  14.396  1.0191  0.7832 -0.3358
 7842TIP3    H245018   1.898   0.538  14.515  1.8937 -1.6941  0.4883
 7843TIP3   OH245019   6.222   1.909  11.869 -0.1600  0.1087 -0.1945
 7843TIP3    H145020   6.221   1.832  11.926  0.7406  0.3650  0.1890
 7843TIP3    H245021   6.136   1.948  11.879 -2.3300 -3.1081 -3.6096
 7844TIP3   OH245022   1.463   4.967   5.121 -0.1416 -0.1298 -0.1850
 7844TIP3    H145023   1.515   5.012   5.055 -0.2179  1.6585  0.9030
 7844TIP3    H245024   1.497   4.999   5.205 -0.7495 -1.5145  0.6333
 7845TIP3   OH245025   0.479   2.253  10.884 -0.8599 -0.4031 -0.0082
 7845TIP3    H145026   0.483   2.294  10.797  0.6499 -1.6780 -0.5897
 7845TIP3    H245027   0.558   2.284  10.928 -1.8823  0.6592  1.1462
 7846TIP3   OH245028   3.806   1.149   2.443  0.4387  0.0211 -0.6224
 7846TIP3    H145029   3.832   1.059   2.425 -0.2996 -0.0519 -1.3822
 7846TIP3    H245030   3.712   1.145   2.461  0.5431  0.5445  0.0696
 7847TIP3   OH245031   0.077   3.781   2.636 -0.1718  0.4545 -0.3376
 7847TIP3    H145032   0.105   3.749   2.722  0.8358  2.1853  0.0235
 7847TIP3    H245033  -0.011   3.814   2.650 -0.0941  0.5328 -0.0239
 7848TIP3   OH245034   5.590   1.895  17.149  0.0861 -0.1360  0.1079
 7848TIP3    H145035   5.513   1.896  17.207  0.0097 -2.1942  0.1293
 7848TIP3    H245036   5.664   1.904  17.208 -0.0999  1.8675  0.0880
 7849TIP3   OH245037   1.619   0.357  11.852  0.1188 -0.5470  0.1130
 7849TIP3    H145038   1.618   0.322  11.941 -1.8020 -0.0802  0.3334
 7849TIP3    H245039   1.558   0.431  11.855  1.7497  0.9213 -1.0656
 7850TIP3   OH245040   1.972   2.112   5.173  0.1540  0.0567  0.0631
 7850TIP3    H145041   2.026   2.113   5.251 -1.2643 -1.1344  1.1162
 7850TIP3    H245042   1.961   2.019   5.152 -2.4536  0.1566  0.6303
 7851TIP3   OH245043   4.731   0.767  15.757 -0.0443  0.1718  0.0321
 7851TIP3    H145044   4.724   0.749  15.850 -0.1646  1.2664  0.2407
 7851TIP3    H245045   4.653   0.819  15.736 -0.1319 -0.2399 -0.7254
 7852TIP3   OH245046   6.431   0.955  14.915 -0.0067  0.2223 -0.1901
 7852TIP3    H145047   6.495   0.955  14.986  0.0799  0.1244 -0.2658
 7852TIP3    H245048   6.460   0.884  14.858  1.4803  1.9618 -1.7196
 7853TIP3   OH245049   1.002   4.463  14.706  0.2259  0.1793  0.1831
 7853TIP3    H145050   0.913   4.498  14.707  0.0896 -0.0877 -1.0683
 7853TIP3    H245051   1.045   4.504  14.781 -0.8291  0.6180  0.5646
 7854TIP3   OH245052   3.372   0.966   2.124  0.1832  0.5400 -0.4014
 7854TIP3    H145053   3.392   0.988   2.215 -2.4465 -1.4025  0.7961
 7854TIP3    H245054   3.289   1.011   2.107 -0.7356 -1.2268 -0.8455
 7855TIP3   OH245055   3.336   1.930  14.709 -0.0328  0.6707  0.0281
 7855TIP3    H145056   3.261   1.877  14.682 -0.1390  0.9246 -0.1745
 7855TIP3    H245057   3.381   1.875  14.773  1.0297 -0.5630 -1.6874
 7856TIP3   OH245058   5.279   0.930  16.482  0.1906  0.0197 -0.0685
 7856TIP3    H145059   5.299   0.849  16.436  2.1487 -0.1990  1.0708
 7856TIP3    H245060   5.359   0.952  16.529 -0.8248  1.7296  0.9858
 7857TIP3   OH245061   6.797   6.708   1.274 -0.2394 -0.2153  0.2352
 7857TIP3    H145062   6.743   6.652   1.330 -1.6027  0.5859 -0.2556
 7857TIP3    H245063   6.735   6.762   1.225  0.9295 -0.2937 -1.4451
 7858TIP3   OH245064   5.120   0.601  15.984 -0.4323 -0.3393  0.1720
 7858TIP3    H145065   5.035   0.646  15.984 -0.6427 -0.6967  1.3124
 7858TIP3    H245066   5.184   0.671  15.999 -0.3877  0.0950 -1.7406
 7859TIP3   OH245067   2.854   6.792   0.834 -0.1201 -0.4087  0.1168
 7859TIP3    H145068   2.828   6.782   0.743  2.4778  0.7397 -0.8616
 7859TIP3    H245069   2.948   6.810   0.830 -0.1984  1.1855  2.9150
 7860TIP3   OH245070   5.694   3.910   1.786  0.3005 -0.3136  0.3364
 7860TIP3    H145071   5.702   4.001   1.814  2.3808  0.1445 -1.4306
 7860TIP3    H245072   5.605   3.885   1.810  0.6334  1.1721  3.6595
 7861TIP3   OH245073   1.040   6.589   5.567  0.2332  0.4884  0.0507
 7861TIP3    H145074   1.127   6.572   5.604  0.5944  0.3941 -0.8296
 7861TIP3    H245075   0.999   6.503   5.561 -0.2579  0.6202  1.2559
 7862TIP3   OH245076   6.319   2.644  13.664 -0.6616  0.1700 -0.1021
 7862TIP3    H145077   6.277   2.597  13.736  1.1472 -1.4594 -0.0522
 7862TIP3    H245078   6.315   2.583  13.590 -0.2832  0.8369 -0.6799
 7863TIP3   OH245079   3.369   4.696   1.917  0.1698 -0.2351  0.3724
 7863TIP3    H145080   3.444   4.641   1.939  0.0531 -0.8374 -0.6537
 7863TIP3    H245081   3.294   4.638   1.923 -0.0878  0.0963  0.3767
 7864TIP3   OH245082   1.655   5.767  11.120 -0.5794 -0.2144  0.3146
 7864TIP3    H145083   1.641   5.840  11.060  0.6347 -0.0617  0.1843
 7864TIP3    H245084   1.730   5.720  11.084  0.8550  0.4728  2.2171
 7865TIP3   OH245085   3.490   5.640  12.029  0.2584 -0.3661 -0.5438
 7865TIP3    H145086   3.395   5.634  12.023  0.3090 -0.6371 -1.1848
 7865TIP3    H245087   3.507   5.664  12.120 -0.5274  1.8194 -0.9150
 7866TIP3   OH245088   1.440   1.773   0.201 -0.1952  0.3821  0.3142
 7866TIP3    H145089   1.407   1.855   0.239  1.1014  1.3520 -0.5565
 7866TIP3    H245090   1.457   1.795   0.110  0.2708 -0.8536  0.0911
 7867TIP3   OH245091   4.783   1.524   1.544  0.1251 -0.5735  0.2831
 7867TIP3    H145092   4.712   1.477   1.588 -1.0738  1.7476  0.9466
 7867TIP3    H245093   4.747   1.609   1.522  2.6099  0.6004  0.3588
 7868TIP3   OH245094   5.678   5.421   2.825  0.4828 -0.0125  0.1069
 7868TIP3    H145095   5.607   5.391   2.768  0.5081 -0.7194  0.4441
 7868TIP3    H245096   5.752   5.364   2.803  1.0051  0.8133 -0.3488
 7869TIP3   OH245097   2.372   3.025   3.466 -0.0647 -0.0620 -0.2546
 7869TIP3    H145098   2.385   3.060   3.555 -1.2184  0.9206 -0.4377
 7869TIP3    H245099   2.418   2.942   3.466 -0.1740 -0.1599  1.3297
 7870TIP3   OH245100   0.657   1.357  15.973 -0.7620 -0.3563  0.0048
 7870TIP3    H145101   0.705   1.282  15.937 -2.0805 -1.1379 -0.2272
 7870TIP3    H245102   0.621   1.401  15.895 -2.8420 -1.5082  0.2334
 7871TIP3   OH245103   4.108   4.489   0.306  0.3322  0.5565 -0.1688
 7871TIP3    H145104   4.049   4.426   0.348 -0.1626  1.7216  0.9395
 7871TIP3    H245105   4.137   4.444   0.227  0.8227 -1.4936  1.0842
 7872TIP3   OH245106   1.306   1.261  15.911  0.3207  0.3388  0.9588
 7872TIP3    H145107   1.281   1.341  15.864  0.5924  0.5206  1.1217
 7872TIP3    H245108   1.401   1.265  15.915  0.3705 -0.2535  0.5118
 7873TIP3   OH245109   0.923   4.079   2.994 -0.1263  0.1450  0.9729
 7873TIP3    H145110   0.951   3.987   2.988  1.8848  0.7144  0.9601
 7873TIP3    H245111   0.877   4.096   2.912  2.2305 -0.0226 -0.4773
 7874TIP3   OH245112   5.915   0.751  14.449 -0.1759  0.4747 -0.5137
 7874TIP3    H145113   5.973   0.744  14.524 -1.4258 -0.6750  0.4124
 7874TIP3    H245114   5.940   0.833  14.405  1.4415  0.4966  0.3867
 7875TIP3   OH245115   5.540   5.264   2.271  0.1701 -0.5654 -0.4117
 7875TIP3    H145116   5.626   5.307   2.273 -0.8862  1.7621  1.5520
 7875TIP3    H245117   5.528   5.237   2.180  1.7655  1.7451 -1.4012
 7876TIP3   OH245118   4.302   2.204  15.512  0.2785  0.5320  0.3005
 7876TIP3    H145119   4.243   2.129  15.509  1.1660 -0.1984 -2.5969
 7876TIP3    H245120   4.355   2.190  15.591 -0.8547 -0.8301  0.8622
 7877TIP3   OH245121   5.964   0.161  11.967 -1.2475 -0.2049  0.1685
 7877TIP3    H145122   5.901   0.127  11.904 -2.1736  0.8215  0.5200
 7877TIP3    H245123   5.911   0.188  12.042 -0.4323  0.9311  0.3556
 7878TIP3   OH245124   5.571   2.300  13.434 -0.1846 -0.8895 -0.2468
 7878TIP3    H145125   5.627   2.376  13.448  1.3966 -2.2144  1.0710
 7878TIP3    H245126   5.541   2.308  13.343  0.2007  1.1018 -0.2318
 7879TIP3   OH245127   6.559   5.528   5.596 -0.1829  0.4146  0.3955
 7879TIP3    H145128   6.573   5.445   5.550  1.2407  1.5174 -1.2936
 7879TIP3    H245129   6.463   5.539   5.597 -0.3147  0.6755 -3.1006
 7880TIP3   OH245130   6.087   2.995  13.147  0.0539 -0.8469  0.4523
 7880TIP3    H145131   6.107   2.902  13.143  0.7512 -0.7088  0.6080
 7880TIP3    H245132   6.000   2.999  13.188  0.7687 -1.3505  2.1011
 7881TIP3   OH245133   5.594   4.353  13.849  0.0375  0.3124  0.3883
 7881TIP3    H145134   5.549   4.326  13.768 -1.1626 -0.4681  1.2769
 7881TIP3    H245135   5.686   4.354  13.825 -0.1488 -1.4027 -0.6264
 7882TIP3   OH245136   3.736   1.931  17.123 -0.2028  0.4704  0.2028
 7882TIP3    H145137   3.764   1.920  17.032 -0.6492 -1.7538  0.2598
 7882TIP3    H245138   3.817   1.946  17.172  0.3341 -0.7021 -0.2888
 7883TIP3   OH245139   4.883   2.173   5.413 -0.2990 -0.1849 -0.0250
 7883TIP3    H145140   4.926   2.234   5.473 -1.8288  0.7364  0.1960
 7883TIP3    H245141   4.899   2.210   5.326 -1.4028  0.6928  0.1229
 7884TIP3   OH245142   0.613   3.827   2.987  0.2296 -0.3035  0.3235
 7884TIP3    H145143   0.685   3.790   2.934 -1.0414 -0.2841 -1.4879
 7884TIP3    H245144   0.534   3.805   2.939 -0.8679  1.4218  1.2408
 7885TIP3   OH245145   5.267   4.247  11.278  0.4657  0.1174  0.1750
 7885TIP3    H145146   5.186   4.298  11.267 -0.5670 -1.0046  2.1189
 7885TIP3    H245147   5.313   4.260  11.195 -1.2873  1.4913 -0.6848
 7886TIP3   OH245148   3.453   3.915  15.067 -0.2365 -0.1138 -0.0208
 7886TIP3    H145149   3.410   4.000  15.054 -1.6849 -0.8128  0.0240
 7886TIP3    H245150   3.424   3.862  14.992  0.5593 -0.6180  0.0198
 7887TIP3   OH245151   2.468   6.088   4.560  0.3343 -0.7114  0.2052
 7887TIP3    H145152   2.509   6.003   4.543  2.0809  0.0119  0.5933
 7887TIP3    H245153   2.530   6.134   4.617 -0.4455  0.9267 -0.2082
 7888TIP3   OH245154   3.057   6.562   3.477  0.4220  0.3544  0.3881
 7888TIP3    H145155   3.117   6.487   3.483  0.7934  0.6953  1.0613
 7888TIP3    H245156   3.064   6.591   3.386 -0.9073 -1.3803 -0.3165
 7889TIP3   OH245157   5.821   5.599  11.771 -0.3330 -0.5429  0.1665
 7889TIP3    H145158   5.834   5.579  11.679 -0.0888  1.7918 -0.3663
 7889TIP3    H245159   5.877   5.537  11.818  0.4912 -0.9387 -1.3053
 7890TIP3   OH245160   1.123   2.433  15.834  0.5931 -0.1493 -0.3964
 7890TIP3    H145161   1.147   2.526  15.824  1.8085 -0.5545 -1.4545
 7890TIP3    H245162   1.144   2.413  15.925 -0.1960  0.7370  0.0071
 7891TIP3   OH245163   4.111   0.033  11.711 -0.1103  0.3283  0.0494
 7891TIP3    H145164   4.144   0.085  11.784 -0.5796  0.0127  0.4958
 7891TIP3    H245165   4.046   0.090  11.669  0.8789  0.9039 -0.7586
 7892TIP3   OH245166   5.893   3.727   1.770 -0.2065  0.5697  0.2532
 7892TIP3    H145167   5.826   3.796   1.771 -1.4558 -0.6119  0.0294
 7892TIP3    H245168   5.925   3.725   1.860 -0.5929  1.0270  0.4105
 7893TIP3   OH245169   2.314   1.198  14.524 -0.0889  0.0147  0.1951
 7893TIP3    H145170   2.323   1.251  14.445 -1.1153  1.0037  0.6994
 7893TIP3    H245171   2.251   1.130  14.501 -2.6263  1.9661  0.8834
 7894TIP3   OH245172   5.428   0.344  16.310  0.0942  0.0451  0.2928
 7894TIP3    H145173   5.452   0.396  16.234 -0.1948  1.2491  1.0062
 7894TIP3    H245174   5.484   0.266  16.304 -1.0993 -0.7186 -2.0388
 7895TIP3   OH245175   4.155   6.196   3.080 -0.0507 -0.0890 -0.0562
 7895TIP3    H145176   4.173   6.175   3.172 -1.1344 -0.0290  0.1776
 7895TIP3    H245177   4.223   6.259   3.056  0.6139 -0.5623  0.5127
 7896TIP3   OH245178   3.397   1.174   3.741  0.3012 -0.3167  0.1855
 7896TIP3    H145179   3.434   1.125   3.814  1.2438 -1.9811 -1.3238
 7896TIP3    H245180   3.335   1.112   3.701  0.7335  0.0821 -1.1428
 7897TIP3   OH245181   5.831   5.981   2.244 -0.3098  0.0921  0.1894
 7897TIP3    H145182   5.819   5.939   2.330  1.2605  2.0214  1.4580
 7897TIP3    H245183   5.895   5.926   2.199 -2.4834 -1.9837 -0.6232
 7898TIP3   OH245184   1.250   6.042  14.815 -0.2221  0.3627  0.5246
 7898TIP3    H145185   1.253   6.111  14.881 -0.0132  1.1943 -0.3285
 7898TIP3    H245186   1.212   5.967  14.860  1.6488  0.2998  2.1214
 7899TIP3   OH245187   5.936   3.759   3.701  0.1603  0.4004  0.3482
 7899TIP3    H145188   5.947   3.802   3.785 -0.5345  0.4678  0.4083
 7899TIP3    H245189   5.991   3.681   3.707  3.7064  2.5680 -0.7739
 7900TIP3   OH245190   1.804   5.405   5.679  0.0805  0.0383  0.1783
 7900TIP3    H145191   1.807   5.320   5.722  0.5471  0.6065  1.3401
 7900TIP3    H245192   1.884   5.408   5.626 -0.4891 -0.6654 -0.7326
 7901TIP3   OH245193   3.127   5.412  14.481  0.1915 -0.3644  0.3401
 7901TIP3    H145194   3.089   5.384  14.398 -0.2823 -1.0464  0.7788
 7901TIP3    H245195   3.054   5.409  14.543  0.9261 -1.5940  1.1794
 7902TIP3   OH245196   5.730   1.898  13.522 -0.2868  0.2617 -0.0108
 7902TIP3    H145197   5.641   1.928  13.503 -0.1273  0.4591 -0.4835
 7902TIP3    H245198   5.721   1.805  13.543 -0.6128  0.2946 -0.0056
 7903TIP3   OH245199   3.300   0.903   0.142  0.8213 -0.6076 -0.0469
 7903TIP3    H145200   3.250   0.896   0.223 -1.8059 -1.6693 -1.6174
 7903TIP3    H245201   3.273   0.986   0.103  2.1045 -0.0735  0.1710
 7904TIP3   OH245202   0.574   3.531   4.605  0.1633 -0.1696 -0.6154
 7904TIP3    H145203   0.551   3.514   4.514  1.1350 -0.3938 -0.8294
 7904TIP3    H245204   0.553   3.449   4.651 -0.5368  0.0166 -0.5791
 7905TIP3   OH245205   5.793   6.155  11.145 -0.6070  0.3107  0.0742
 7905TIP3    H145206   5.875   6.127  11.185 -1.1559 -1.3368  0.1055
 7905TIP3    H245207   5.813   6.160  11.051  0.0101  1.7905  0.2486
 7906TIP3   OH245208   2.547   1.923  11.967 -0.2316  0.3565  0.1260
 7906TIP3    H145209   2.636   1.919  12.004  1.0250 -1.0177 -2.7861
 7906TIP3    H245210   2.499   1.855  12.014  0.5977  0.2413  0.8471
 7907TIP3   OH245211   3.597   6.461  12.114 -0.3409  0.5374  0.1141
 7907TIP3    H145212   3.664   6.456  12.047  0.5586  1.4709  0.9188
 7907TIP3    H245213   3.645   6.461  12.197 -1.3940  0.0921  0.7511
 7908TIP3   OH245214   4.603   0.105   2.692  0.3014  0.0920 -0.0642
 7908TIP3    H145215   4.560   0.182   2.728  2.1835  1.4327 -0.5541
 7908TIP3    H245216   4.601   0.118   2.597  1.0379 -0.2199 -0.1302
 7909TIP3   OH245217   1.642   4.023  15.351  0.0926 -0.1203  0.0948
 7909TIP3    H145218   1.727   3.979  15.360  0.2797 -0.1098 -1.3859
 7909TIP3    H245219   1.618   4.010  15.259 -1.0399  0.7401  0.2501
 7910TIP3   OH245220   6.185   3.929   6.526  0.1174 -0.0610 -0.3775
 7910TIP3    H145221   6.235   3.972   6.457  0.5831 -2.4044 -1.6205
 7910TIP3    H245222   6.107   3.984   6.537  1.7673  2.3358 -0.1170
 7911TIP3   OH245223   6.662   3.996  11.694 -0.2992  0.6455  0.1849
 7911TIP3    H145224   6.708   3.921  11.731 -1.7241 -0.9474 -1.0872
 7911TIP3    H245225   6.589   3.958  11.646 -1.4223  2.8999 -0.0532
 7912TIP3   OH245226   5.532   2.917   4.687 -0.0643 -0.0442 -0.1934
 7912TIP3    H145227   5.611   2.884   4.730  1.4567  0.6685 -2.2719
 7912TIP3    H245228   5.495   2.840   4.642  0.4905 -0.0348 -0.6842
 7913TIP3   OH245229   4.390   1.965   4.216 -0.1261  0.1426 -0.0343
 7913TIP3    H145230   4.479   1.985   4.245  0.0343 -2.6051  1.6605
 7913TIP3    H245231   4.400   1.934   4.126  0.5294  0.5028 -0.0903
 7914TIP3   OH245232   4.290   0.115   2.783 -0.2514 -0.7397  0.0963
 7914TIP3    H145233   4.311   0.079   2.869 -0.3402  0.1905  0.5189
 7914TIP3    H245234   4.340   0.196   2.777  0.9714 -1.5357 -1.3762
 7915TIP3   OH245235   4.574   3.524  11.578 -0.1802  0.3920  0.4582
 7915TIP3    H145236   4.578   3.576  11.658 -1.8372  0.2799  0.6463
 7915TIP3    H245237   4.585   3.587  11.507 -0.6380  0.7763  0.7246
 7916TIP3   OH245238   3.012   4.437  15.321 -0.0301  0.4133  0.2626
 7916TIP3    H145239   3.001   4.384  15.400  0.2791 -0.0912 -0.0206
 7916TIP3    H245240   3.058   4.515  15.350  0.1854  0.1763  0.5624
 7917TIP3   OH245241   5.632   4.495   4.751  0.4378 -0.2230  0.3650
 7917TIP3    H145242   5.654   4.479   4.659  0.3140  1.4799 -0.0016
 7917TIP3    H245243   5.704   4.457   4.801  1.5609  0.6446 -0.5509
 7918TIP3   OH245244   4.262   6.133  16.369 -0.0735 -0.7639 -0.1545
 7918TIP3    H145245   4.183   6.084  16.345  0.0783 -1.2582  0.3223
 7918TIP3    H245246   4.264   6.129  16.465  1.1203 -1.7236 -0.1892
 7919TIP3   OH245247   1.225   4.707   3.185  0.2032 -0.0712 -0.4716
 7919TIP3    H145248   1.155   4.714   3.250 -0.0388 -2.8270 -0.3084
 7919TIP3    H245249   1.297   4.666   3.233  1.1402  0.6948 -1.1982
 7920TIP3   OH245250   0.903   1.753  12.042  0.5365 -0.1446 -0.4313
 7920TIP3    H145251   0.862   1.682  12.091  1.2912 -1.3336 -1.4348
 7920TIP3    H245252   0.995   1.726  12.035  0.4898  0.0417 -2.3046
 7921TIP3   OH245253   6.768   0.400  14.240  0.3081 -0.6401  0.5574
 7921TIP3    H145254   6.793   0.471  14.298 -0.0658 -0.2904  0.2944
 7921TIP3    H245255   6.850   0.355  14.220  0.9234  1.0980 -1.1114
 7922TIP3   OH245256   0.418   4.937   6.102 -0.1627  0.2922 -0.2923
 7922TIP3    H145257   0.511   4.917   6.116 -0.4294 -1.6977 -1.0414
 7922TIP3    H245258   0.371   4.865   6.143 -1.3355  0.6664 -0.9308
 7923TIP3   OH245259   0.138   1.146   5.920 -0.0813 -0.4071  0.1711
 7923TIP3    H145260   0.168   1.156   6.011  0.9408  1.3625 -0.3094
 7923TIP3    H245261   0.213   1.170   5.867 -1.0730 -0.0835 -1.1388
 7924TIP3   OH245262   0.738   4.637  14.367 -0.2204 -0.0508 -0.0873
 7924TIP3    H145263   0.778   4.615  14.451 -0.4985 -0.6436 -0.1073
 7924TIP3    H245264   0.769   4.726  14.348  0.9084 -0.4141 -0.0071
 7925TIP3   OH245265   3.415   4.178   3.063 -0.1079  0.0122  0.6881
 7925TIP3    H145266   3.475   4.109   3.093 -0.6600 -0.8004 -0.0144
 7925TIP3    H245267   3.412   4.167   2.968 -1.0927  0.2676  0.6779
 7926TIP3   OH245268   2.641   0.889  16.749  0.1298  0.2263  0.2163
 7926TIP3    H145269   2.658   0.840  16.830  1.0401 -1.4326 -0.9224
 7926TIP3    H245270   2.721   0.879  16.697  0.6026  3.4489  0.0994
 7927TIP3   OH245271   0.501   5.764   2.689 -0.3332 -0.3507 -0.3465
 7927TIP3    H145272   0.532   5.852   2.710  0.7416 -0.8891  0.4503
 7927TIP3    H245273   0.411   5.762   2.723  0.8204 -0.6744  3.0881
 7928TIP3   OH245274   0.763   1.439   4.041  0.7630  0.3817  0.0532
 7928TIP3    H145275   0.837   1.474   4.091  1.4828 -0.2966 -0.5139
 7928TIP3    H245276   0.773   1.476   3.954  0.5222  0.1697 -0.0649
 7929TIP3   OH245277   6.834   3.255  10.468  0.6417  0.0976 -0.2466
 7929TIP3    H145278   6.836   3.333  10.414  1.9939 -1.4727 -2.6059
 7929TIP3    H245279   6.748   3.217  10.452  1.5258 -1.0929 -2.5239
 7930TIP3   OH245280   0.577   0.434  16.736  0.0136 -0.0795 -0.0750
 7930TIP3    H145281   0.555   0.388  16.817  1.4577 -1.3500 -0.3603
 7930TIP3    H245282   0.495   0.478  16.710 -0.6122 -0.0773  1.7618
 7931TIP3   OH245283   3.786   6.452  15.187 -0.7868  0.7420 -0.0941
 7931TIP3    H145284   3.788   6.369  15.138  0.2766  0.6662  0.0455
 7931TIP3    H245285   3.708   6.497  15.155 -1.0415 -0.0465 -0.6226
 7932TIP3   OH245286   5.269   5.136  13.623 -0.0854  0.5821  0.4039
 7932TIP3    H145287   5.184   5.171  13.650 -0.5233 -0.2692  0.1893
 7932TIP3    H245288   5.247   5.053  13.580  0.7759  0.8335 -0.5550
 7933TIP3   OH245289   2.991   6.013  15.886 -0.2168  0.3746 -0.3466
 7933TIP3    H145290   2.904   5.993  15.852  0.0442  1.1731 -1.5669
 7933TIP3    H245291   2.995   6.109  15.886  0.9298  0.3417 -1.0534
 7934TIP3   OH245292   2.530   2.924   5.904  0.0921 -0.2461  0.0324
 7934TIP3    H145293   2.550   2.871   5.982 -1.4948 -0.1380  0.5526
 7934TIP3    H245294   2.530   3.014   5.935 -0.4499 -0.1940 -0.1144
 7935TIP3   OH245295   2.700   6.066   0.085  0.2220  0.0634  0.1590
 7935TIP3    H145296   2.653   5.996   0.130  1.3462 -0.6436  0.2692
 7935TIP3    H245297   2.633   6.131   0.066 -0.3184  0.3599  2.7373
 7936TIP3   OH245298   3.125   3.624  16.434 -0.3200  0.8199  0.2142
 7936TIP3    H145299   3.109   3.630  16.529 -0.3664 -1.1171  0.3624
 7936TIP3    H245300   3.088   3.705  16.399 -1.3200  1.0718  1.7377
 7937TIP3   OH245301   5.968   2.610   1.803 -0.4586  0.2174  0.2927
 7937TIP3    H145302   5.939   2.697   1.831 -0.0419  0.9734 -1.4892
 7937TIP3    H245303   5.892   2.572   1.760 -0.1683  0.3540 -0.3442
 7938TIP3   OH245304   5.809   2.093   2.183  0.2021 -0.2048  0.1941
 7938TIP3    H145305   5.875   2.142   2.135 -1.5573  0.7287 -1.4268
 7938TIP3    H245306   5.857   2.048   2.253  2.3813  1.0177 -0.4485
 7939TIP3   OH245307   1.730   3.480  10.862  0.8605 -0.5780 -0.2207
 7939TIP3    H145308   1.738   3.563  10.814 -0.5811 -0.9774 -1.2294
 7939TIP3    H245309   1.642   3.484  10.900  2.0307 -0.1949  2.6255
 7940TIP3   OH245310   1.968   3.284   5.712 -0.4083 -0.0912 -0.3232
 7940TIP3    H145311   2.018   3.362   5.688  0.1190  1.7662  5.3239
 7940TIP3    H245312   1.908   3.314   5.780 -3.4461 -3.8794 -1.0157
 7941TIP3   OH245313   1.496   6.206   4.089  0.4048  0.0781  0.0522
 7941TIP3    H145314   1.491   6.293   4.129 -0.0999  0.3075 -0.5008
 7941TIP3    H245315   1.516   6.222   3.997 -1.6258 -0.2566 -0.5080
 7942TIP3   OH245316   0.413   2.857  16.487  0.3758  0.1353  0.1339
 7942TIP3    H145317   0.457   2.936  16.456 -2.7798  1.9060 -0.3500
 7942TIP3    H245318   0.380   2.880  16.574 -0.0901 -0.8666  0.2396
 7943TIP3   OH245319   4.745   6.258  16.563 -0.6455  0.5165  0.0363
 7943TIP3    H145320   4.708   6.325  16.506 -3.8138 -1.1214 -0.0872
 7943TIP3    H245321   4.719   6.175  16.523  0.9354 -0.7635  1.4920
 7944TIP3   OH245322   0.691   3.534  12.125 -0.9992 -0.2659 -0.2847
 7944TIP3    H145323   0.734   3.608  12.168 -0.2812 -0.4687 -0.6347
 7944TIP3    H245324   0.711   3.458  12.180 -1.1757 -0.3136 -0.2831
 7945TIP3   OH245325   2.653   2.903   1.976 -0.7483 -0.2612  0.5700
 7945TIP3    H145326   2.711   2.973   2.006 -1.3467  0.5222 -0.0313
 7945TIP3    H245327   2.709   2.826   1.970  0.2665  0.5007 -0.1065
 7946TIP3   OH245328   6.648   4.335  13.456 -0.3405  0.6761  0.5110
 7946TIP3    H145329   6.592   4.324  13.379  0.2157  1.9025 -0.0896
 7946TIP3    H245330   6.726   4.283  13.437 -0.9671 -0.4806  1.0492
 7947TIP3   OH245331   1.135   3.078   4.024 -0.4563 -0.2392  0.0293
 7947TIP3    H145332   1.196   3.091   3.952  1.2455 -0.1103  1.4494
 7947TIP3    H245333   1.125   3.165   4.063 -1.5873 -0.2555 -0.1869
 7948TIP3   OH245334   1.711   3.688  14.326 -0.1199  0.1897  0.0434
 7948TIP3    H145335   1.746   3.708  14.413 -0.7574  0.8553  0.1532
 7948TIP3    H245336   1.630   3.642  14.343 -0.2903  0.3987 -0.1978
 7949TIP3   OH245337   0.981   3.020   5.330  0.1780  0.2752  0.1209
 7949TIP3    H145338   1.043   3.092   5.332 -0.9897  1.4638 -2.5230
 7949TIP3    H245339   0.897   3.060   5.349 -0.2674 -0.6838  0.2214
 7950TIP3   OH245340   6.660   4.814  15.831  0.4555 -0.3081  0.1397
 7950TIP3    H145341   6.676   4.803  15.925  0.2440 -0.9626  0.1076
 7950TIP3    H245342   6.566   4.832  15.825  0.4882 -0.1658  0.0614
 7951TIP3   OH245343   4.499   4.637  12.660 -0.4933  0.6610 -0.2169
 7951TIP3    H145344   4.579   4.688  12.653 -1.1717  2.2665  2.1904
 7951TIP3    H245345   4.510   4.585  12.740 -1.1297 -0.5131 -0.8623
 7952TIP3   OH245346   1.239   1.732  15.535  0.1567  0.7755  0.1030
 7952TIP3    H145347   1.149   1.755  15.557  0.4337 -0.1982  2.5177
 7952TIP3    H245348   1.231   1.674  15.459 -1.5785 -1.7611  2.0690
 7953TIP3   OH245349   4.786   3.853  13.418 -0.0358 -0.2212 -0.0895
 7953TIP3    H145350   4.727   3.925  13.400 -1.4320 -1.0531  0.9831
 7953TIP3    H245351   4.750   3.779  13.371 -0.0548 -0.8229  0.8435
 7954TIP3   OH245352   3.297   4.480   1.678 -0.3408 -0.3019  0.4709
 7954TIP3    H145353   3.301   4.561   1.628 -0.7925 -0.5171  0.0715
 7954TIP3    H245354   3.221   4.490   1.735 -0.3603 -0.4157  0.4666
 7955TIP3   OH245355   3.966   2.730   2.347 -0.4915  0.0301  0.4520
 7955TIP3    H145356   3.891   2.720   2.406 -2.5594  1.1777 -1.8256
 7955TIP3    H245357   4.003   2.642   2.342  0.1972 -0.0192  3.8458
 7956TIP3   OH245358   6.243   2.832   1.616  0.1068 -0.3833  1.0917
 7956TIP3    H145359   6.261   2.744   1.648 -1.2791 -1.2217 -0.2889
 7956TIP3    H245360   6.280   2.834   1.527 -0.2754  0.2595  0.9353
 7957TIP3   OH245361   6.140   1.117  16.993  0.4965 -0.1273  0.2451
 7957TIP3    H145362   6.104   1.193  17.039  1.0475  0.4987 -0.3391
 7957TIP3    H245363   6.096   1.042  17.033  1.3253  0.3381  2.1902
 7958TIP3   OH245364   0.209   0.316   4.327 -0.5440 -0.1479  0.3926
 7958TIP3    H145365   0.238   0.317   4.418  0.2018 -0.5734  0.1714
 7958TIP3    H245366   0.248   0.236   4.290  1.8851  1.5885 -1.1259
 7959TIP3   OH245367   2.390   3.885   1.008 -0.1190  0.1346 -0.5273
 7959TIP3    H145368   2.393   3.836   0.926  0.3539 -1.9572  0.6774
 7959TIP3    H245369   2.348   3.826   1.070  1.1152  0.9691  1.1727
 7960TIP3   OH245370   5.647   2.675   3.282  0.0127 -0.2784 -0.5545
 7960TIP3    H145371   5.709   2.747   3.273  0.5241 -0.5930  0.2475
 7960TIP3    H245372   5.561   2.717   3.287  0.2644  0.2443 -0.5595
 7961TIP3   OH245373   2.096   2.155  14.642 -0.8331  0.5192 -0.6047
 7961TIP3    H145374   2.118   2.069  14.676 -1.2664  0.5366 -0.2608
 7961TIP3    H245375   2.179   2.191  14.612 -0.9719 -0.8883 -2.8466
 7962TIP3   OH245376   6.200   0.861  15.611  0.4638  0.5015 -0.2125
 7962TIP3    H145377   6.252   0.781  15.600  1.5320  1.2615 -0.8267
 7962TIP3    H245378   6.157   0.873  15.526 -1.6926 -0.7290  0.6059
 7963TIP3   OH245379   0.934   4.157   0.913 -0.3522  0.0666 -0.2017
 7963TIP3    H145380   0.943   4.193   1.001  2.5179  1.0932 -0.7826
 7963TIP3    H245381   1.001   4.088   0.908 -0.0099  0.4515 -1.7178
 7964TIP3   OH245382   4.621   6.465  16.431  0.2083 -0.2202 -0.2033
 7964TIP3    H145383   4.603   6.554  16.461 -1.8156 -0.3367 -0.9291
 7964TIP3    H245384   4.535   6.425  16.422  1.0516 -2.0794 -0.4520
 7965TIP3   OH245385   5.304   2.542   5.185  0.0086  0.3986  0.1473
 7965TIP3    H145386   5.351   2.570   5.263 -0.8637  0.3138  0.7244
 7965TIP3    H245387   5.216   2.580   5.195 -0.8102 -1.4133  0.3229
 7966TIP3   OH245388   3.824   1.756   1.254  0.2330  0.5948 -0.0937
 7966TIP3    H145389   3.766   1.691   1.213 -1.2658 -0.1293  2.9052
 7966TIP3    H245390   3.765   1.821   1.292  1.3089  0.2626  2.3678
 7967TIP3   OH245391   1.901   5.456  12.430  0.1088 -0.9068 -0.4183
 7967TIP3    H145392   1.978   5.511  12.446 -1.7406  2.0388 -0.7068
 7967TIP3    H245393   1.848   5.507  12.369 -2.9713 -1.8297  1.2828
 7968TIP3   OH245394   5.097   1.780   1.842  0.4742  0.5323  0.3763
 7968TIP3    H145395   5.170   1.736   1.886  2.5450  1.0558 -2.1994
 7968TIP3    H245396   5.094   1.867   1.881 -0.7437 -0.3874  2.4699
 7969TIP3   OH245397   0.844   5.648   0.267 -0.4409  0.5625 -0.1272
 7969TIP3    H145398   0.933   5.613   0.265 -1.2129 -1.5558 -0.9043
 7969TIP3    H245399   0.826   5.662   0.360  0.4603  0.3244  0.0906
 7970TIP3   OH245400   1.855   1.581   2.473 -0.1649 -0.2996 -0.0518
 7970TIP3    H145401   1.890   1.492   2.479  1.1327  0.1685 -0.3208
 7970TIP3    H245402   1.774   1.579   2.524  0.1526 -1.4908  0.4255
 7971TIP3   OH245403   0.292   3.636  14.284  0.0477 -0.5040  0.0200
 7971TIP3    H145404   0.219   3.607  14.230  0.7133 -4.1989  0.8465
 7971TIP3    H245405   0.262   3.623  14.374  0.1532  2.4273  0.5917
 7972TIP3   OH245406   4.356   1.199  12.531  0.6061 -0.1893 -0.4986
 7972TIP3    H145407   4.373   1.107  12.551  0.6011 -0.2669 -0.8432
 7972TIP3    H245408   4.265   1.213  12.556  1.0000  0.0782  0.8286
 7973TIP3   OH245409   3.223   6.662  17.113 -0.2086 -0.0328  0.2924
 7973TIP3    H145410   3.194   6.664  17.021 -0.3324 -0.4477  0.3237
 7973TIP3    H245411   3.210   6.571  17.141 -1.7630  0.4408  1.2333
 7974TIP3   OH245412   3.718   4.646  16.277 -0.5128  0.3520 -0.6000
 7974TIP3    H145413   3.724   4.726  16.225 -1.0504  1.3335  0.7896
 7974TIP3    H245414   3.726   4.676  16.368  0.3263 -1.2978 -0.0936
 7975TIP3   OH245415   0.633   3.417  11.313 -0.2025  0.0004 -0.2572
 7975TIP3    H145416   0.717   3.443  11.275 -0.1644 -1.7025 -1.4692
 7975TIP3    H245417   0.585   3.378  11.240 -1.2693 -0.8549  0.8572
 7976TIP3   OH245418   0.555   5.518   3.148  0.3209  0.1758 -0.8384
 7976TIP3    H145419   0.566   5.561   3.233  0.9259 -0.1111 -0.7710
 7976TIP3    H245420   0.618   5.447   3.148 -1.3248 -1.3699 -0.5406
 7977TIP3   OH245421   1.121   1.635   1.253  0.6456 -0.0492  0.1407
 7977TIP3    H145422   1.175   1.701   1.297 -0.7269 -0.1012  1.9890
 7977TIP3    H245423   1.100   1.572   1.322 -0.4146 -0.8954 -0.9321
 7978TIP3   OH245424   1.081   2.739  14.244  0.1238 -0.0474  0.2315
 7978TIP3    H145425   1.133   2.769  14.169 -0.3569  0.5574  0.1353
 7978TIP3    H245426   0.995   2.778  14.231  0.7629  2.4880  2.5675
 7979TIP3   OH245427   0.627   2.592   2.781  0.8942  0.3404  0.0571
 7979TIP3    H145428   0.676   2.615   2.702  0.3330 -0.5288 -0.5649
 7979TIP3    H245429   0.556   2.535   2.749 -1.0661  2.2534  0.7994
 7980TIP3   OH245430   2.052   2.234   4.334 -0.0263  0.0188 -0.2223
 7980TIP3    H145431   2.126   2.286   4.366 -1.6427  2.1502  0.2318
 7980TIP3    H245432   2.040   2.167   4.401  0.2979  0.8361  0.6758
 7981TIP3   OH245433   6.538   0.068   2.066 -0.6255 -0.6331  0.3187
 7981TIP3    H145434   6.491  -0.001   2.114 -4.2821  3.0378  2.7012
 7981TIP3    H245435   6.583   0.118   2.134  0.6686  0.2498 -1.1382
 7982TIP3   OH245436   3.721   0.882  13.551 -0.1675 -0.0714 -0.2195
 7982TIP3    H145437   3.770   0.832  13.485 -1.3626 -1.9563  0.2675
 7982TIP3    H245438   3.720   0.826  13.628 -2.8672 -0.0151 -0.1362
 7983TIP3   OH245439   0.544   0.864  12.035  0.1867  0.3515 -0.0260
 7983TIP3    H145440   0.473   0.921  12.062  1.8589  1.6868  1.8503
 7983TIP3    H245441   0.545   0.793  12.100  1.5513  1.2413  0.9657
 7984TIP3   OH245442   6.337   1.998  13.823  0.4553 -0.0019 -0.3377
 7984TIP3    H145443   6.374   2.055  13.891  1.5170 -0.9001 -0.1280
 7984TIP3    H245444   6.244   2.019  13.822  0.5364  0.5111  0.9122
 7985TIP3   OH245445   6.191   3.904  14.650 -0.0849  0.1216  0.1664
 7985TIP3    H145446   6.203   3.997  14.669 -2.4169  0.3114  0.9490
 7985TIP3    H245447   6.113   3.899  14.596 -0.4172 -1.4198  0.7162
 7986TIP3   OH245448   5.463   5.289  14.860 -0.3073  0.0459  0.3168
 7986TIP3    H145449   5.551   5.276  14.895 -0.8555 -0.3923  1.5883
 7986TIP3    H245450   5.416   5.209  14.883 -0.9969  0.1855 -0.5333
 7987TIP3   OH245451   6.490   5.630   2.917  0.0127  1.4093 -0.6056
 7987TIP3    H145452   6.400   5.663   2.921 -0.3176  0.4646  0.1388
 7987TIP3    H245453   6.544   5.704   2.943 -0.7468  1.2746  1.5472
 7988TIP3   OH245454   4.202   2.438   5.760 -0.3581  0.2026 -0.0651
 7988TIP3    H145455   4.185   2.508   5.697 -2.9908 -0.6405 -0.4188
 7988TIP3    H245456   4.187   2.478   5.846 -2.0976  0.0523 -0.2775
 7989TIP3   OH245457   1.606   5.983   2.744  0.1673  0.7840 -0.3027
 7989TIP3    H145458   1.626   5.909   2.686  0.9116  1.1019 -0.4570
 7989TIP3    H245459   1.517   5.966   2.774 -0.0627  0.3638 -1.1742
 7990TIP3   OH245460   0.857   3.943   2.657  0.0278  0.3658  0.6290
 7990TIP3    H145461   0.829   3.870   2.712 -0.1003 -0.2656 -0.2379
 7990TIP3    H245462   0.776   3.990   2.638 -0.0531  0.1249  0.3546
 7991TIP3   OH245463   6.643   4.979   2.988 -0.7579 -0.3205  0.1626
 7991TIP3    H145464   6.655   4.904   2.929  0.1414  0.3355 -0.5069
 7991TIP3    H245465   6.714   4.971   3.052 -0.4205  0.1737 -0.1450
 7992TIP3   OH245466   5.847   5.670  14.731 -0.1736  0.5930  0.8217
 7992TIP3    H145467   5.933   5.649  14.695 -0.7242 -1.0942  0.4303
 7992TIP3    H245468   5.821   5.591  14.778 -2.6390  0.0615 -1.2626
 7993TIP3   OH245469   0.745   0.924   5.036  0.4714  0.0292 -0.3771
 7993TIP3    H145470   0.660   0.886   5.059  0.8857 -1.4053 -1.1144
 7993TIP3    H245471   0.764   0.985   5.107 -1.0185  0.1307 -0.0310
 7994TIP3   OH245472   4.681   4.597  16.277  0.5244  0.2246  0.1620
 7994TIP3    H145473   4.760   4.625  16.323  0.6134  1.6236 -0.7907
 7994TIP3    H245474   4.714   4.549  16.201  0.3759 -1.9335  1.3474
 7995TIP3   OH245475   0.877   2.130  16.824  0.0130  0.3627  0.1650
 7995TIP3    H145476   0.834   2.158  16.743  0.3809  1.2729  0.2746
 7995TIP3    H245477   0.902   2.039  16.808  0.6342  0.7145 -0.9949
 7996TIP3   OH245478   0.689   0.116  16.675  0.2727  0.1389 -0.2858
 7996TIP3    H145479   0.774   0.154  16.696 -0.0205  1.0412 -0.6949
 7996TIP3    H245480   0.670   0.057  16.748  0.3716  1.3803  0.7712
 7997TIP3   OH245481   2.819   5.099   0.791 -0.3484  0.1595 -0.7642
 7997TIP3    H145482   2.776   5.021   0.756 -2.1494  0.3356  0.8792
 7997TIP3    H245483   2.747   5.151   0.828  1.1847  0.7469  1.6059
 7998TIP3   OH245484   5.203   2.367   1.661  0.4584 -0.1456  0.2048
 7998TIP3    H145485   5.208   2.337   1.570  0.6933 -1.1466  0.5381
 7998TIP3    H245486   5.143   2.441   1.659  2.9325  1.9851 -1.3328
 7999TIP3   OH245487   2.725   5.539   3.739 -0.0450  0.3056  0.1797
 7999TIP3    H145488   2.665   5.547   3.813  1.6633 -0.8834  1.7908
 7999TIP3    H245489   2.767   5.624   3.732 -1.6419  1.0716 -0.8046
 8000TIP3   OH245490   3.813   5.777   5.125  0.1539  0.0398 -0.0764
 8000TIP3    H145491   3.722   5.782   5.097 -0.7119  0.0365  2.4264
 8000TIP3    H245492   3.823   5.688   5.159  0.2953  0.7452  1.8896
 8001TIP3   OH245493   1.364   2.224   3.382  0.3529  0.3175  0.4567
 8001TIP3    H145494   1.322   2.309   3.375  1.4031  0.7558 -1.0374
 8001TIP3    H245495   1.457   2.242   3.371  0.7608 -0.8602  1.6310
 8002TIP3   OH245496   3.903   1.790   4.591  0.8200  0.2164  0.9059
 8002TIP3    H145497   3.948   1.787   4.676  1.5029  0.1412  0.5472
 8002TIP3    H245498   3.814   1.762   4.611  1.0065  0.0697  1.5824
 8003TIP3   OH245499   0.459   4.342  10.969  0.3682 -0.1288 -0.2756
 8003TIP3    H145500   0.463   4.259  11.018  2.2280  0.2103  0.1898
 8003TIP3    H245501   0.504   4.323  10.887  1.4177  0.6015  0.1209
 8004TIP3   OH245502   3.065   0.197  11.044 -0.2082 -0.2178 -0.1668
 8004TIP3    H145503   2.982   0.199  10.998 -0.0637  0.0431 -0.4186
 8004TIP3    H245504   3.130   0.220  10.978  0.0648 -0.4225  0.0275
 8005TIP3   OH245505   4.410   4.293   2.222  0.2658 -0.0211 -0.0103
 8005TIP3    H145506   4.402   4.386   2.203 -0.8223 -0.4477 -1.8865
 8005TIP3    H245507   4.337   4.274   2.281 -0.1204  0.1317 -0.4337
 8006TIP3   OH245508   0.691   2.841   0.000  0.4903  0.6912  0.1640
 8006TIP3    H145509   0.617   2.803  -0.047  0.7818  0.0228  0.2365
 8006TIP3    H245510   0.693   2.932  -0.028  1.0456  0.1687 -1.6323
 8007TIP3   OH245511   1.277   6.182  11.287  0.0936 -0.4530  0.6267
 8007TIP3    H145512   1.269   6.114  11.220  1.3644  1.7466 -1.9780
 8007TIP3    H245513   1.356   6.159  11.335  0.9514 -0.4631 -0.7364
 8008TIP3   OH245514   0.259   2.355  15.302  0.0030  0.0200 -0.7406
 8008TIP3    H145515   0.262   2.279  15.244  3.8275 -0.9653  0.4311
 8008TIP3    H245516   0.218   2.322  15.382  1.4166 -0.8266 -0.3272
 8009TIP3   OH245517   4.773   1.908  12.902 -0.3489  0.3084 -0.0927
 8009TIP3    H145518   4.701   1.969  12.921 -0.5174  0.1095 -0.0891
 8009TIP3    H245519   4.848   1.965  12.883 -1.0527  0.6098 -2.3895
 8010TIP3   OH245520   4.817   0.348  16.549  0.1118  0.2277  0.0623
 8010TIP3    H145521   4.798   0.387  16.463  1.7126 -0.7061 -0.7557
 8010TIP3    H245522   4.874   0.413  16.592 -0.1994  0.4237  0.1811
 8011TIP3   OH245523   5.060   5.232   3.619 -0.0363  0.2758 -0.1811
 8011TIP3    H145524   5.119   5.171   3.574  1.9398  1.2442  0.9635
 8011TIP3    H245525   5.023   5.181   3.691  2.9883  0.7405  1.8818
 8012TIP3   OH245526   5.747   0.178   1.322  0.3435 -0.1274 -0.7331
 8012TIP3    H145527   5.777   0.144   1.237  0.4168 -1.7719 -0.0827
 8012TIP3    H245528   5.826   0.181   1.376  0.3149  1.0105 -0.7326
 8013TIP3   OH245529   3.484   3.546  11.055  0.1268  0.1083 -0.0182
 8013TIP3    H145530   3.511   3.559  11.146 -1.4610  1.8618  0.2692
 8013TIP3    H245531   3.399   3.502  11.061  0.2514 -0.2249 -0.6721
 8014TIP3   OH245532   1.020   6.366  12.473 -0.0809  0.0306 -0.0953
 8014TIP3    H145533   0.932   6.332  12.490  0.5745 -1.8190 -0.1621
 8014TIP3    H245534   1.065   6.293  12.431  0.8296  1.7058 -2.1629
 8015TIP3   OH245535   1.674   4.572   5.181  0.3232  0.4458  0.2028
 8015TIP3    H145536   1.612   4.638   5.212 -1.1450 -0.8538  0.1455
 8015TIP3    H245537   1.716   4.539   5.260 -2.6013 -2.0740  0.8658
 8016TIP3   OH245538   2.776   3.526   3.810 -0.0889 -0.0410 -0.0797
 8016TIP3    H145539   2.841   3.595   3.794  0.4734 -0.4486  0.4014
 8016TIP3    H245540   2.827   3.445   3.813 -0.7621 -0.5014 -0.7685
 8017TIP3   OH245541   2.102   0.546  11.091  0.4968  0.0262  0.0473
 8017TIP3    H145542   2.091   0.455  11.121 -0.9603  0.3879  0.6909
 8017TIP3    H245543   2.127   0.538  10.999 -1.8874 -1.0456 -0.5931
 8018TIP3   OH245544   1.487   3.242   5.065 -0.5036  0.3144  0.3991
 8018TIP3    H145545   1.506   3.149   5.062 -1.6547  0.0703 -0.5285
 8018TIP3    H245546   1.518   3.271   5.150  0.6362 -0.7379  0.3611
 8019TIP3   OH245547   4.988   6.267   4.760 -0.0969  0.0573 -0.2644
 8019TIP3    H145548   5.049   6.194   4.747  2.1073  1.6494  0.5603
 8019TIP3    H245549   4.914   6.228   4.807  0.0067 -2.0453 -1.7007
 8020TIP3   OH245550   6.366   0.033  16.844 -0.4743  0.2484  0.0321
 8020TIP3    H145551   6.418   0.062  16.919 -1.2488  1.8933 -0.0318
 8020TIP3    H245552   6.284   0.082  16.850 -0.4043  0.7502 -2.1093
 8021TIP3   OH245553   1.864   2.789   2.682 -0.4988 -0.1583 -0.3884
 8021TIP3    H145554   1.918   2.867   2.675 -0.6282 -0.0107  0.1621
 8021TIP3    H245555   1.887   2.751   2.767 -1.6567  0.2210  0.1206
 8022TIP3   OH245556   6.580   4.696  14.013 -0.7029  0.1225 -0.3751
 8022TIP3    H145557   6.513   4.629  14.027 -0.7344  0.3720  0.7487
 8022TIP3    H245558   6.601   4.689  13.920 -2.6410  0.3586 -0.8869
 8023TIP3   OH245559   5.747   6.092   5.902  0.1086 -0.5657 -0.5348
 8023TIP3    H145560   5.664   6.079   5.855  0.2260  0.9046 -1.2067
 8023TIP3    H245561   5.732   6.052   5.988 -0.6394 -1.9658 -1.2882
 8024TIP3   OH245562   0.378   6.304  13.177  0.3460 -0.0954  0.1031
 8024TIP3    H145563   0.375   6.247  13.100 -0.3875  0.1638 -0.0700
 8024TIP3    H245564   0.376   6.393  13.142 -1.6492  0.0411  0.4328
 8025TIP3   OH245565   6.211   6.623  15.782  0.1151 -0.0499 -0.3053
 8025TIP3    H145566   6.198   6.612  15.687 -0.8915 -2.4537  0.0336
 8025TIP3    H245567   6.303   6.604  15.795  0.2318  0.1560 -0.7827
 8026TIP3   OH245568   1.457   0.717   5.103  0.5197 -0.4089 -0.1474
 8026TIP3    H145569   1.383   0.751   5.052 -0.2578 -1.0198  0.5599
 8026TIP3    H245570   1.507   0.665   5.040 -0.9830 -1.9957 -0.0852
 8027TIP3   OH245571   3.522   2.523  16.841 -0.1309 -0.1946 -0.4248
 8027TIP3    H145572   3.613   2.521  16.811  0.0799  1.5031 -0.0054
 8027TIP3    H245573   3.471   2.494  16.766  0.6518  0.4078 -1.2078
 8028TIP3   OH245574   4.168   5.612   0.290  0.3766 -0.2725 -0.0930
 8028TIP3    H145575   4.104   5.594   0.220 -0.5435 -1.7812  1.0724
 8028TIP3    H245576   4.188   5.705   0.280 -1.3646  0.0500 -1.0402
 8029TIP3   OH245577   0.778   6.308   3.657  0.0997  0.0799 -0.1730
 8029TIP3    H145578   0.716   6.234   3.655  0.1002  0.0548 -3.2409
 8029TIP3    H245579   0.863   6.266   3.667  0.0563 -0.3466 -1.4055
 8030TIP3   OH245580   3.514   5.609  13.918 -0.8262  0.2104  0.0633
 8030TIP3    H145581   3.601   5.611  13.877 -0.8482  2.2847  0.0078
 8030TIP3    H245582   3.528   5.571  14.004  0.1872  0.6366  0.1008
 8031TIP3   OH245583   2.117   5.009   5.297 -0.4946 -0.0450  0.2391
 8031TIP3    H145584   2.185   5.071   5.324 -1.0675  0.3834  0.7272
 8031TIP3    H245585   2.140   4.927   5.340  0.3893 -0.2468 -0.5819
 8032TIP3   OH245586   6.243   1.096   2.160  0.1417  0.0352  1.0219
 8032TIP3    H145587   6.185   1.057   2.226  1.5872 -1.0954  1.6635
 8032TIP3    H245588   6.221   1.051   2.079 -1.0977  0.8850  0.8490
 8033TIP3   OH245589   3.404   2.799  15.047  0.2571 -0.0201  0.4201
 8033TIP3    H145590   3.325   2.802  15.101  0.5528 -0.4926  0.9015
 8033TIP3    H245591   3.421   2.890  15.023  0.5215  0.3176  1.7539
 8034TIP3   OH245592   0.544   2.275   0.591 -0.1875 -0.5372  1.0051
 8034TIP3    H145593   0.532   2.342   0.658 -1.6404  0.3199 -0.0672
 8034TIP3    H245594   0.519   2.193   0.635  1.2198 -0.3689  2.2038
 8035TIP3   OH245595   6.718   2.861   1.465  0.2862 -0.1378  0.0081
 8035TIP3    H145596   6.799   2.868   1.414  0.8076  0.4349  0.8786
 8035TIP3    H245597   6.747   2.840   1.554 -0.4368  1.0426  0.5531
 8036TIP3   OH245598   2.895   4.326   0.081  0.5441  1.3035 -0.4296
 8036TIP3    H145599   2.980   4.356   0.048  1.4069 -0.7407 -0.2483
 8036TIP3    H245600   2.910   4.312   0.175  0.1068  0.6344 -0.4521
 8037TIP3   OH245601   6.269   6.636   2.921 -0.1313  0.5786  0.2041
 8037TIP3    H145602   6.235   6.606   2.836  0.4033 -0.5406  0.3563
 8037TIP3    H245603   6.251   6.563   2.981  0.1076  1.0783  0.8961
 8038TIP3   OH245604   3.552   3.789   2.214 -0.0783 -0.2354 -0.6429
 8038TIP3    H145605   3.494   3.767   2.287 -1.8043  0.7558 -1.6657
 8038TIP3    H245606   3.575   3.881   2.228  0.3985 -0.3255 -0.8138
 8039TIP3   OH245607   2.687   6.836  12.029 -0.7497 -0.5902 -0.1734
 8039TIP3    H145608   2.720   6.800  11.946  0.9513 -0.1976  0.2891
 8039TIP3    H245609   2.738   6.791  12.096 -0.5828  0.6416  0.5455
 8040TIP3   OH245610   2.731   0.510  14.996  0.5037  0.0157 -0.2973
 8040TIP3    H145611   2.669   0.488  14.926 -0.2895 -1.0907  0.7081
 8040TIP3    H245612   2.771   0.593  14.968  0.3060 -0.4652 -2.0952
 8041TIP3   OH245613   4.961   2.535   1.726 -0.3032 -0.5926  0.5325
 8041TIP3    H145614   4.985   2.524   1.818  1.4271 -1.3814  0.0214
 8041TIP3    H245615   4.986   2.625   1.705  1.8291 -1.2192  0.1670
 8042TIP3   OH245616   4.085   3.079  12.028 -0.1818  0.0597 -0.0742
 8042TIP3    H145617   4.041   3.125  12.100  0.3814 -0.1215  0.3952
 8042TIP3    H245618   4.031   3.001  12.013  1.3092 -1.5168  2.2279
 8043TIP3   OH245619   4.779   4.298   2.134  0.5838  0.1050  0.3278
 8043TIP3    H145620   4.856   4.241   2.142  0.8016  0.2278 -0.7874
 8043TIP3    H245621   4.814   4.383   2.107 -0.0265 -0.2161 -1.6526
 8044TIP3   OH245622   5.284   2.882  10.842  0.0362  0.2935  0.1803
 8044TIP3    H145623   5.211   2.900  10.783 -0.3174 -0.9705  0.1855
 8044TIP3    H245624   5.258   2.802  10.888  1.7487 -0.6370 -0.3838
 8045TIP3   OH245625   5.857   4.352  15.470 -0.1915  0.3403  0.0613
 8045TIP3    H145626   5.887   4.349  15.379  0.4752 -1.0759  0.3069
 8045TIP3    H245627   5.798   4.427  15.472  0.3972  0.8972 -1.3446
 8046TIP3   OH245628   3.327   5.132   2.262  0.0158  0.8815  0.4408
 8046TIP3    H145629   3.284   5.054   2.295 -0.6832  1.6212  1.3485
 8046TIP3    H245630   3.289   5.204   2.313  2.0499  1.6112  1.0448
 8047TIP3   OH245631   1.477   6.196   4.438  0.6695  0.3957 -0.4192
 8047TIP3    H145632   1.431   6.113   4.431 -0.4402  0.8812  0.7338
 8047TIP3    H245633   1.452   6.231   4.524  0.6551  2.1772 -1.1039
 8048TIP3   OH245634   6.752   4.608   0.141  0.1704 -0.5150 -0.1997
 8048TIP3    H145635   6.686   4.564   0.087  0.3557  1.2476 -1.9871
 8048TIP3    H245636   6.702   4.675   0.188  0.2832 -0.9573  0.5618
 8049TIP3   OH245637   0.847   0.999   4.392 -0.0417  0.6869  0.0807
 8049TIP3    H145638   0.760   0.959   4.387  0.3852 -0.2228 -0.2139
 8049TIP3    H245639   0.831   1.092   4.377 -1.0250  0.6096  0.5624
 8050TIP3   OH245640   4.585   2.806  13.763  0.2385 -0.0928 -0.2594
 8050TIP3    H145641   4.595   2.898  13.787  1.3605 -0.5385  1.1624
 8050TIP3    H245642   4.495   2.785  13.788  0.6847  0.0514  1.6833
 8051TIP3   OH245643   0.288   3.899   3.620 -0.9745 -0.5954 -0.1496
 8051TIP3    H145644   0.253   3.814   3.594 -1.2166 -0.5275 -0.0441
 8051TIP3    H245645   0.277   3.954   3.543  0.0402 -0.9106 -0.5412
 8052TIP3   OH245646   1.619   3.991  12.638  0.5072 -0.1373 -0.5606
 8052TIP3    H145647   1.548   4.042  12.676 -0.7868 -1.3718 -1.2261
 8052TIP3    H245648   1.613   3.905  12.680  1.4921 -0.3252 -0.7653
 8053TIP3   OH245649   4.623   4.680  11.488 -0.2978 -0.0624  0.6362
 8053TIP3    H145650   4.619   4.593  11.448 -0.1347  1.1748 -2.2608
 8053TIP3    H245651   4.532   4.709  11.492 -0.2132  0.3584 -0.2049
 8054TIP3   OH245652   1.905   0.599  12.329 -0.4202 -0.5002  0.4678
 8054TIP3    H145653   1.820   0.575  12.366 -1.1383  1.5045  0.2696
 8054TIP3    H245654   1.936   0.670  12.385  0.7040 -0.5897 -0.0150
 8055TIP3   OH245655   0.884   3.055   4.110  0.1949 -0.5808  0.7934
 8055TIP3    H145656   0.878   2.960   4.122 -0.3825 -0.7062 -0.3722
 8055TIP3    H245657   0.976   3.070   4.089  0.1288 -0.9864  0.1850
 8056TIP3   OH245658   1.759   5.818   4.279 -0.0769  0.3589  0.2303
 8056TIP3    H145659   1.817   5.777   4.343  2.0713  1.2936 -1.0182
 8056TIP3    H245660   1.802   5.900   4.256 -1.7025  0.8997 -1.0809
 8057TIP3   OH245661   5.534   0.887   5.632 -0.3006 -0.9057 -0.0073
 8057TIP3    H145662   5.544   0.943   5.709 -1.6976  1.2311 -1.2476
 8057TIP3    H245663   5.440   0.868   5.628 -0.4524  0.0002 -1.7582
 8058TIP3   OH245664   0.051   4.953   2.394 -0.1201  0.2150  0.1188
 8058TIP3    H145665   0.066   4.985   2.305  0.0487  0.2099  0.1447
 8058TIP3    H245666  -0.044   4.948   2.403 -0.1337 -0.1845 -0.2033
 8059TIP3   OH245667   6.023   3.096   1.964  0.2809 -0.1567  0.1710
 8059TIP3    H145668   5.957   3.042   2.008 -0.7422  0.5334 -0.4617
 8059TIP3    H245669   6.014   3.183   2.004  1.0675 -0.1376  0.3264
 8060TIP3   OH245670   2.233   3.559   4.712  0.1252 -0.7886 -0.5559
 8060TIP3    H145671   2.248   3.649   4.684 -1.4204 -0.5982 -0.8620
 8060TIP3    H245672   2.238   3.562   4.807 -1.8643  0.0581 -0.4294
 8061TIP3   OH245673   4.473   5.576   5.350 -0.2116 -0.3361  0.1112
 8061TIP3    H145674   4.565   5.587   5.325  0.0666 -1.0551  0.7605
 8061TIP3    H245675   4.453   5.655   5.400  0.0604 -0.1722 -0.0355
 8062TIP3   OH245676   0.900   6.615   1.254 -0.0371 -0.1090 -0.2998
 8062TIP3    H145677   0.913   6.636   1.162  0.8383  2.4889  0.3348
 8062TIP3    H245678   0.978   6.649   1.298 -0.2245 -1.6799  1.3692
 8063TIP3   OH245679   0.972   3.273  17.132  0.1727  0.4866  0.5895
 8063TIP3    H145680   1.048   3.321  17.165  1.8896 -0.8206 -1.2529
 8063TIP3    H245681   0.907   3.341  17.112  1.8838  1.9244 -0.3386
 8064TIP3   OH245682   5.388   2.396   2.390  0.3921 -0.4112  0.0093
 8064TIP3    H145683   5.467   2.358   2.352  0.8626  0.2428  0.3005
 8064TIP3    H245684   5.410   2.410   2.482 -0.2529 -0.7081  0.2133
 8065TIP3   OH245685   4.354   0.993   0.645  0.2052  0.6568 -1.5838
 8065TIP3    H145686   4.321   1.064   0.701  1.1494 -0.8301  1.0483
 8065TIP3    H245687   4.324   0.913   0.689  2.7789 -0.6460 -2.0487
 8066TIP3   OH245688   4.990   2.241   0.520 -0.0119 -0.2112  0.4631
 8066TIP3    H145689   4.914   2.267   0.571 -1.0522 -0.6613 -0.8066
 8066TIP3    H245690   5.058   2.304   0.544 -2.0778  3.2025 -1.6997
 8067TIP3   OH245691   1.363   3.977   3.952  0.0646 -0.5765  0.1839
 8067TIP3    H145692   1.269   3.960   3.958  0.2631 -1.3153  1.7500
 8067TIP3    H245693   1.397   3.904   3.899 -0.3632  0.3354 -1.4186
 8068TIP3   OH245694   5.440   3.391  14.013  0.6944 -0.1243  0.0312
 8068TIP3    H145695   5.426   3.364  13.922  1.2190 -1.5188  0.3438
 8068TIP3    H245696   5.353   3.416  14.044  0.5628  0.7268 -0.9475
 8069TIP3   OH245697   6.073   4.841  16.907  0.7442  0.3204  0.1017
 8069TIP3    H145698   5.996   4.794  16.940  0.4774  0.8381  0.2292
 8069TIP3    H245699   6.075   4.922  16.958  0.2324  1.2261 -1.2502
 8070TIP3   OH245700   0.087   0.500   2.606 -0.3104  0.1152 -0.0161
 8070TIP3    H145701   0.075   0.476   2.514 -4.1305  1.6219 -0.0897
 8070TIP3    H245702   0.109   0.593   2.605 -1.8467  0.5218  0.5352
 8071TIP3   OH245703   2.977   0.338   3.314 -0.3930  0.3368 -0.0332
 8071TIP3    H145704   2.978   0.303   3.403  0.2253  2.2414  0.7681
 8071TIP3    H245705   3.066   0.372   3.301 -0.1704 -0.8213 -1.7847
 8072TIP3   OH245706   1.538   3.372   4.818 -0.3433  0.1545 -0.3599
 8072TIP3    H145707   1.490   3.454   4.831  0.3537  0.7642 -1.4293
 8072TIP3    H245708   1.531   3.326   4.902 -0.5386  1.4241  0.3450
 8073TIP3   OH245709   1.736   6.324   5.287 -0.2275  0.1020  0.0079
 8073TIP3    H145710   1.697   6.289   5.207 -0.8603 -1.1572  0.8296
 8073TIP3    H245711   1.689   6.406   5.302 -0.7314 -0.0976 -0.4334
 8074TIP3   OH245712   1.429   1.275  12.199  0.0697  0.5696  0.4448
 8074TIP3    H145713   1.364   1.206  12.192  0.5015  0.2098 -0.0863
 8074TIP3    H245714   1.504   1.233  12.241  0.1406  0.8476  0.5954
 8075TIP3   OH245715   4.605   4.074   0.178  0.3514 -0.0509  0.0923
 8075TIP3    H145716   4.596   4.169   0.168  2.3273  0.1636 -0.0428
 8075TIP3    H245717   4.548   4.037   0.110 -2.0227  0.9330  1.4085
 8076TIP3   OH245718   6.743   3.131  11.985  0.0258  0.3447 -0.3140
 8076TIP3    H145719   6.816   3.187  11.959  0.2328  0.4331  0.4327
 8076TIP3    H245720   6.706   3.100  11.903  2.3659 -1.6131 -0.7472
 8077TIP3   OH245721   5.658   0.694   5.941  0.1156  0.0180  0.1062
 8077TIP3    H145722   5.619   0.776   5.969  0.4486  0.1591  0.1680
 8077TIP3    H245723   5.602   0.626   5.978 -2.7977  0.1207 -3.4726
 8078TIP3   OH245724   1.724   5.382  15.508  0.1381 -0.1838 -0.3058
 8078TIP3    H145725   1.806   5.430  15.496 -0.4618  0.8670 -0.2511
 8078TIP3    H245726   1.732   5.307  15.448  1.5857 -0.7023  0.4868
 8079TIP3   OH245727   2.800   3.853   4.023 -0.0492 -0.1811  0.0708
 8079TIP3    H145728   2.822   3.944   4.043 -0.0754 -0.2844  0.5956
 8079TIP3    H245729   2.885   3.810   4.012  0.0440 -0.5178  1.8187
 8080TIP3   OH245730   0.280   3.585  15.957  0.0405  0.7428 -0.5415
 8080TIP3    H145731   0.203   3.586  15.901  0.5883 -0.3519 -1.3445
 8080TIP3    H245732   0.350   3.621  15.902  0.3610  0.6188 -0.2171
 8081TIP3   OH245733   3.109   4.297   5.242  0.2738  0.5310  0.2442
 8081TIP3    H145734   3.031   4.321   5.292  1.2259  0.4862  1.8401
 8081TIP3    H245735   3.097   4.337   5.156 -2.2319 -0.8364 -0.1326
 8082TIP3   OH245736   5.264   3.157  15.805 -0.5320  0.8077 -0.2514
 8082TIP3    H145737   5.181   3.126  15.769 -0.5061  0.7309 -0.2460
 8082TIP3    H245738   5.331   3.111  15.754 -0.4993 -0.4092  0.8441
 8083TIP3   OH245739   4.140   4.040   5.201 -0.0511  0.0401 -0.7648
 8083TIP3    H145740   4.109   3.963   5.249 -0.5858  0.0472 -1.0883
 8083TIP3    H245741   4.218   4.009   5.154  0.1180 -0.1273 -0.3784
 8084TIP3   OH245742   3.300   3.034  13.704 -1.1996  0.3343  0.8047
 8084TIP3    H145743   3.267   2.946  13.686  0.0165 -0.3879  1.9315
 8084TIP3    H245744   3.225   3.083  13.737 -2.7353  0.7729 -2.8904
 8085TIP3   OH245745   1.411   4.671   4.282 -0.3612 -0.3087 -0.0261
 8085TIP3    H145746   1.449   4.657   4.196 -0.3735  0.7784 -0.2114
 8085TIP3    H245747   1.391   4.764   4.286  0.4280 -0.1695  1.4770
 8086TIP3   OH245748   1.946   3.602  14.172 -0.1097 -0.0623  0.6752
 8086TIP3    H145749   1.867   3.630  14.219 -0.3345 -0.8590  0.7785
 8086TIP3    H245750   1.987   3.684  14.144 -0.4682  0.3925  1.4481
 8087TIP3   OH245751   1.795   0.566   0.690  0.3647  0.6610  0.3740
 8087TIP3    H145752   1.791   0.661   0.694  0.1642  0.6320  2.7057
 8087TIP3    H245753   1.708   0.539   0.658  0.8604  1.2377 -1.5811
 8088TIP3   OH245754   2.744   4.511  14.798 -0.1465 -0.2923  0.4765
 8088TIP3    H145755   2.792   4.565  14.861 -1.9119  2.2492 -0.1700
 8088TIP3    H245756   2.654   4.510  14.833 -0.2736 -2.4625  0.1814
 8089TIP3   OH245757   4.753   5.570  15.107  0.6915  0.0210 -0.0896
 8089TIP3    H145758   4.715   5.515  15.176 -0.6165  0.2632 -0.6016
 8089TIP3    H245759   4.847   5.551  15.111  0.4959 -0.8051  1.0165
 8090TIP3   OH245760   0.779   3.689   6.200 -0.0424 -0.1184 -0.1024
 8090TIP3    H145761   0.701   3.685   6.256 -1.1977  3.0632 -1.2312
 8090TIP3    H245762   0.799   3.782   6.195  1.9504 -0.5874 -2.4083
 8091TIP3   OH245763   4.390   0.430   4.607 -0.2158 -0.0179 -0.1823
 8091TIP3    H145764   4.400   0.386   4.523  0.5021 -1.2307  0.4899
 8091TIP3    H245765   4.450   0.504   4.603 -1.7002  1.1861 -1.4698
 8092TIP3   OH245766   5.117   3.914   3.971  0.5933  0.5651  0.0858
 8092TIP3    H145767   5.071   3.967   3.906  0.1003  1.4225  1.1139
 8092TIP3    H245768   5.165   3.977   4.024 -1.8848  0.3289  2.8812
 8093TIP3   OH245769   6.279   5.348   6.165  0.4867 -0.1183 -0.1198
 8093TIP3    H145770   6.293   5.375   6.256  0.1410 -0.1852 -0.0425
 8093TIP3    H245771   6.261   5.254   6.170  0.6722 -0.1627 -0.2794
 8094TIP3   OH245772   2.666   1.254  13.821  0.7918  0.1972 -0.4896
 8094TIP3    H145773   2.742   1.311  13.831 -0.0145  0.9761  2.2368
 8094TIP3    H245774   2.644   1.259  13.728  2.5547  1.9402 -0.8752
 8095TIP3   OH245775   1.381   0.454   4.224 -0.3589 -0.4570  0.3838
 8095TIP3    H145776   1.434   0.482   4.149  1.2544 -3.2064  0.3706
 8095TIP3    H245777   1.425   0.492   4.300 -0.9818  0.8819  0.1074
 8096TIP3   OH245778   3.128   6.595  11.202  0.3140  0.2215 -0.0761
 8096TIP3    H145779   3.126   6.651  11.125 -0.6670  1.8267  1.0438
 8096TIP3    H245780   3.197   6.633  11.257 -0.4003  0.3893  0.7213
 8097TIP3   OH245781   5.444   2.615   5.412 -0.3099 -0.1545  0.6791
 8097TIP3    H145782   5.368   2.620   5.470 -0.9545  0.8863 -0.1983
 8097TIP3    H245783   5.514   2.580   5.466 -0.4974  2.0694  2.4902
 8098TIP3   OH245784   5.560   0.767  11.991  0.2651  0.5928  0.7812
 8098TIP3    H145785   5.492   0.822  12.031 -2.5857 -0.0824 -2.6691
 8098TIP3    H245786   5.539   0.678  12.020 -0.8619  0.2956 -0.8320
 8099TIP3   OH245787   2.232   0.130   5.803  0.0806  0.4743 -0.2161
 8099TIP3    H145788   2.214   0.193   5.872 -2.1972 -0.6979  0.3538
 8099TIP3    H245789   2.185   0.051   5.829  2.2729 -1.3092 -1.2105
 8100TIP3   OH245790   3.729   3.204   4.615 -0.4317  0.4799 -0.3018
 8100TIP3    H145791   3.767   3.291   4.627  0.8412 -0.2915  1.9110
 8100TIP3    H245792   3.651   3.219   4.561 -1.0078  3.1936  1.1110
 8101TIP3   OH245793   0.300   1.962   0.335 -0.1419 -0.6931  0.1611
 8101TIP3    H145794   0.242   1.919   0.397 -1.3190  0.6310  0.0219
 8101TIP3    H245795   0.289   2.055   0.352  1.0665 -0.3687 -0.6688
 8102TIP3   OH245796   5.893   1.101  16.234 -0.4871 -0.0400  0.1643
 8102TIP3    H145797   5.903   1.105  16.139 -0.5715  1.9244  0.1967
 8102TIP3    H245798   5.927   1.015  16.258 -1.1491 -0.8840 -1.7123
 8103TIP3   OH245799   1.020   1.802   5.182  0.1082 -0.4003 -0.0558
 8103TIP3    H145800   1.103   1.767   5.216  0.0807 -1.0696 -0.6525
 8103TIP3    H245801   1.008   1.758   5.098 -0.2395  0.6198 -0.5554
 8104TIP3   OH245802   0.593   6.012   1.612  0.0701 -0.4994  0.4279
 8104TIP3    H145803   0.554   6.076   1.670  0.6555 -0.5999  0.9401
 8104TIP3    H245804   0.519   5.973   1.565 -0.2536  1.0076 -0.3910
 8105TIP3   OH245805   4.310   0.308  13.632 -0.3177 -0.6208  0.2575
 8105TIP3    H145806   4.311   0.339  13.722 -0.6326 -0.6166  0.2581
 8105TIP3    H245807   4.247   0.236  13.632  1.2184 -2.0335  0.5177
 8106TIP3   OH245808   4.054   0.013  14.693 -0.4306  0.1598  0.4664
 8106TIP3    H145809   3.979  -0.036  14.725 -0.1490  0.7215  2.0672
 8106TIP3    H245810   4.115  -0.054  14.662 -0.3518 -0.4890  1.9476
 8107TIP3   OH245811   2.359   1.406   3.260  0.7631  0.3868  0.1659
 8107TIP3    H145812   2.273   1.374   3.286  0.5717  1.8745  1.4708
 8107TIP3    H245813   2.345   1.447   3.175  0.5366 -0.7966 -0.3899
 8108TIP3   OH245814   3.625   0.476  13.847  0.2417  0.0719 -0.5438
 8108TIP3    H145815   3.540   0.518  13.832  0.3169  0.2066 -0.5940
 8108TIP3    H245816   3.614   0.428  13.929  0.1457  0.1645 -0.5015
 8109TIP3   OH245817   0.443   3.657   0.216  0.2073  0.3677  0.5163
 8109TIP3    H145818   0.490   3.686   0.138 -1.4413 -1.5476 -1.3196
 8109TIP3    H245819   0.362   3.707   0.215  0.1637  0.3114  1.0062
 8110TIP3   OH245820   0.854   4.253  14.557 -0.1801 -0.4303 -0.1672
 8110TIP3    H145821   0.832   4.197  14.632 -0.9731 -1.1376 -0.9081
 8110TIP3    H245822   0.900   4.327  14.595 -0.8829 -0.6012  1.0627
 8111TIP3   OH245823   0.408   5.632   0.782  0.2291 -0.0579  0.3025
 8111TIP3    H145824   0.431   5.595   0.696 -0.8839  1.4764 -0.6958
 8111TIP3    H245825   0.466   5.707   0.792 -1.4247  1.3858 -0.3835
 8112TIP3   OH245826   0.069   1.684  16.653  0.5730  0.1062  0.2641
 8112TIP3    H145827   0.085   1.730  16.570  0.5584 -0.0766  0.1592
 8112TIP3    H245828   0.079   1.591  16.631  1.6669  0.1020  0.6994
 8113TIP3   OH245829   3.734   2.319   0.092 -0.1437  0.4542 -0.4963
 8113TIP3    H145830   3.670   2.254   0.063 -1.2168  1.9653 -1.7421
 8113TIP3    H245831   3.722   2.324   0.187 -2.2615  1.0048 -0.7313
 8114TIP3   OH245832   6.304   1.453  10.121  0.0643  0.5500  0.0579
 8114TIP3    H145833   6.221   1.435  10.077  0.3203 -0.4779 -0.0286
 8114TIP3    H245834   6.320   1.375  10.174  1.2416  0.5126 -0.3365
 8115TIP3   OH245835   5.757   5.148   4.945 -0.0235  0.5526 -0.7601
 8115TIP3    H145836   5.738   5.241   4.957 -0.6017  0.3525 -0.0472
 8115TIP3    H245837   5.840   5.134   4.991 -0.6795  0.4292  0.4414
 8116TIP3   OH245838   5.855   2.650   4.676  0.1012  0.1537 -0.2069
 8116TIP3    H145839   5.908   2.692   4.609  0.3770  0.7787  0.3895
 8116TIP3    H245840   5.905   2.574   4.703  0.5892  0.6051  0.1797
 8117TIP3   OH245841   2.071   0.971  14.730 -0.3823  0.2588  0.2831
 8117TIP3    H145842   2.045   1.050  14.776 -0.6122  1.5034 -1.8454
 8117TIP3    H245843   1.990   0.938  14.690 -0.0899 -0.4173  0.2275
 8118TIP3   OH245844   5.879   5.562  12.300  0.4134 -0.1090 -0.2134
 8118TIP3    H145845   5.927   5.515  12.232 -0.8377 -1.9816  0.1310
 8118TIP3    H245846   5.822   5.622  12.252  0.6573 -0.2843 -0.7285
 8119TIP3   OH245847   1.340   1.647  10.609 -0.6327  0.0095  0.2477
 8119TIP3    H145848   1.392   1.725  10.590  0.3473  0.0825  2.8696
 8119TIP3    H245849   1.405   1.580  10.631 -1.5090  0.0732  3.5550
 8120TIP3   OH245850   2.819   4.848   3.065  0.1955 -0.5640 -0.0708
 8120TIP3    H145851   2.789   4.935   3.088  0.9563  0.3575 -2.3122
 8120TIP3    H245852   2.903   4.862   3.021  0.3126 -2.4116 -0.5338
 8121TIP3   OH245853   0.428   3.719  16.771  0.5020 -0.3522  0.4073
 8121TIP3    H145854   0.378   3.773  16.710  0.9810 -0.6326 -0.2420
 8121TIP3    H245855   0.417   3.630  16.738  0.5418 -0.5403  0.8945
 8122TIP3   OH245856   5.474   3.101  15.112 -0.4703 -0.5611  0.0026
 8122TIP3    H145857   5.420   3.129  15.038 -0.1014  0.5346  0.1397
 8122TIP3    H245858   5.521   3.024  15.079 -1.2526 -0.8477 -0.4813
 8123TIP3   OH245859   0.871   5.540   1.996 -0.1017  0.2634 -0.4783
 8123TIP3    H145860   0.932   5.473   2.024 -0.0002  0.9050  0.9232
 8123TIP3    H245861   0.926   5.612   1.965 -0.1274  0.7568  0.5832
 8124TIP3   OH245862   3.880   4.690   4.015  0.1528 -0.1117  0.0185
 8124TIP3    H145863   3.937   4.751   4.060 -1.9276  1.9432  0.0160
 8124TIP3    H245864   3.900   4.703   3.922 -0.9262  1.2759 -0.0347
 8125TIP3   OH245865   0.167   1.895  11.516 -0.0596  0.2380 -1.2210
 8125TIP3    H145866   0.226   1.837  11.467 -1.1480 -0.9460 -1.1814
 8125TIP3    H245867   0.210   1.907  11.600 -0.0305 -0.9357 -1.0474
 8126TIP3   OH245868   6.435   6.605   6.028  0.0197 -0.4619  0.2256
 8126TIP3    H145869   6.530   6.597   6.026 -0.0727 -1.7958 -0.1253
 8126TIP3    H245870   6.408   6.555   6.105 -0.4115 -0.2160  0.2387
 8127TIP3   OH245871   4.849   4.614   3.423 -0.0949 -0.0053 -0.3991
 8127TIP3    H145872   4.835   4.677   3.494  2.5101  2.1053 -1.5440
 8127TIP3    H245873   4.874   4.533   3.466  0.3365  0.9121  1.1485
 8128TIP3   OH245874   3.256   5.531  12.791  0.0362 -0.0445  0.2107
 8128TIP3    H145875   3.288   5.448  12.755 -1.6538 -0.0018 -1.5358
 8128TIP3    H245876   3.325   5.594  12.770  0.1782 -0.5166 -0.8316
 8129TIP3   OH245877   3.778   5.224  13.574  0.1870 -0.1647  0.0973
 8129TIP3    H145878   3.811   5.304  13.615  1.5019 -0.7413  0.2263
 8129TIP3    H245879   3.836   5.155  13.606  0.3300 -0.8675 -1.5721
 8130TIP3   OH245880   3.154   2.658   0.240 -0.0971 -0.0517 -0.6198
 8130TIP3    H145881   3.224   2.722   0.239 -0.3243  0.2254  0.2673
 8130TIP3    H245882   3.197   2.574   0.225  0.9071 -0.2891  2.7976
 8131TIP3   OH245883   3.311   5.788  15.612 -0.5335  0.1260 -0.1684
 8131TIP3    H145884   3.404   5.773  15.630 -0.4811 -0.5693 -0.9859
 8131TIP3    H245885   3.310   5.845  15.536 -0.7614 -1.3428 -1.3126
 8132TIP3   OH245886   0.542   3.462   1.776  0.3120  0.0878  0.1841
 8132TIP3    H145887   0.618   3.421   1.736  0.2669  0.8719 -0.7461
 8132TIP3    H245888   0.525   3.539   1.722 -0.0775  0.9032  1.4207
 8133TIP3   OH245889   0.578   0.401   1.975  0.4156  0.1489 -0.2736
 8133TIP3    H145890   0.515   0.332   1.995  1.5770 -1.1803 -1.0624
 8133TIP3    H245891   0.633   0.408   2.054  0.1918  0.3116 -0.1294
 8134TIP3   OH245892   0.720   0.098   0.794 -0.0036  0.0194 -0.3232
 8134TIP3    H145893   0.703   0.014   0.838  3.1196 -0.7183 -0.2726
 8134TIP3    H245894   0.726   0.076   0.702  0.0081  0.3456 -0.4006
 8135TIP3   OH245895   5.107   1.964   4.007 -0.0357  0.0198  0.4430
 8135TIP3    H145896   5.062   2.049   4.001 -0.4237 -0.2644 -1.1009
 8135TIP3    H245897   5.076   1.927   4.089 -1.4414  0.5178  0.1788
 8136TIP3   OH245898   2.739   6.192  11.289  0.3612  0.2512 -0.2337
 8136TIP3    H145899   2.745   6.119  11.227 -0.8649 -0.1418  0.0924
 8136TIP3    H245900   2.743   6.270  11.233 -0.7705 -0.0980 -0.8268
 8137TIP3   OH245901   5.873   1.964   5.103 -0.0371 -0.1253  0.3360
 8137TIP3    H145902   5.950   2.017   5.119 -0.6138  1.0169 -0.5236
 8137TIP3    H245903   5.854   1.923   5.188 -1.1861  3.2479  1.8998
 8138TIP3   OH245904   4.771   4.229   3.938  0.1902  0.0035  0.2520
 8138TIP3    H145905   4.797   4.251   4.028  1.0277  0.0976 -0.0075
 8138TIP3    H245906   4.731   4.309   3.904 -1.2393 -0.3803  0.9202
 8139TIP3   OH245907   4.507   0.081  14.303  0.1604 -0.4320  0.0192
 8139TIP3    H145908   4.593   0.092  14.262 -0.9495  0.2352 -2.3772
 8139TIP3    H245909   4.465   0.012  14.252 -1.1141  0.0311  0.3968
 8140TIP3   OH245910   6.480   0.008  13.194  0.6608  0.1387 -0.1145
 8140TIP3    H145911   6.474  -0.062  13.129 -2.7023  0.7580 -0.6619
 8140TIP3    H245912   6.521  -0.033  13.270  1.6531 -1.5087 -1.4708
 8141TIP3   OH245913   1.099   5.231   3.939  0.4829  0.3895 -0.4271
 8141TIP3    H145914   1.175   5.185   3.902  1.3884  1.8162 -0.4376
 8141TIP3    H245915   1.117   5.235   4.033 -0.7902 -1.3779 -0.0622
 8142TIP3   OH245916   5.112   3.796  15.290  0.1321 -0.0945 -0.5369
 8142TIP3    H145917   5.120   3.884  15.328 -0.3295  0.1889 -1.0795
 8142TIP3    H245918   5.101   3.738  15.365  0.8662  0.2543 -0.1451
 8143TIP3   OH245919   1.998   2.977  15.233 -1.0271 -0.6581  0.2150
 8143TIP3    H145920   2.081   3.010  15.198 -1.0293  1.0168  1.6116
 8143TIP3    H245921   2.008   2.882  15.232  0.1311 -0.5670 -1.4186
 8144TIP3   OH245922   1.251   5.277  15.871  0.0697  0.3407 -0.4735
 8144TIP3    H145923   1.269   5.186  15.892  1.5903  0.8093  0.3997
 8144TIP3    H245924   1.170   5.297  15.919 -1.6552 -1.1491 -2.5538
 8145TIP3   OH245925   1.222   0.342  14.068 -0.0222  0.1300 -0.5974
 8145TIP3    H145926   1.138   0.384  14.087  0.2542  0.4646 -0.1111
 8145TIP3    H245927   1.200   0.274  14.004 -0.3767  1.4383 -1.9264
 8146TIP3   OH245928   1.925   1.404  16.926 -0.0167  0.6792  0.0426
 8146TIP3    H145929   1.997   1.450  16.883 -0.1171 -0.5437 -1.5161
 8146TIP3    H245930   1.969   1.346  16.989  0.4195 -0.3666 -1.1964
 8147TIP3   OH245931   5.553   4.157   5.719 -0.2647  0.0929 -0.2323
 8147TIP3    H145932   5.552   4.140   5.813  1.2773 -1.8410 -0.5132
 8147TIP3    H245933   5.468   4.126   5.688 -0.7935  0.7658  0.4969
 8148TIP3   OH245934   2.237   4.761  13.999 -0.2365 -1.0069  0.2951
 8148TIP3    H145935   2.283   4.727  14.075 -0.6540 -0.2353  0.9114
 8148TIP3    H245936   2.232   4.687  13.938  1.5483 -1.1898  0.3202
 8149TIP3   OH245937   1.788   2.843  12.907 -0.0847  0.0965 -0.4044
 8149TIP3    H145938   1.856   2.865  12.970 -0.4713  1.0215 -0.2969
 8149TIP3    H245939   1.706   2.859  12.954 -0.3748  0.3288 -0.9888
 8150TIP3   OH245940   3.039   3.013  13.337  0.0951 -0.5186  0.0151
 8150TIP3    H145941   3.010   2.989  13.425  0.3076  0.3777  0.3432
 8150TIP3    H245942   3.077   2.933  13.301  2.5967 -0.2796  1.8071
 8151TIP3   OH245943   2.307   5.190   4.248  0.2277  0.0993  0.5306
 8151TIP3    H145944   2.354   5.119   4.204  0.1133  0.8240 -0.8080
 8151TIP3    H245945   2.266   5.148   4.324 -0.6271 -1.4827 -0.7409
 8152TIP3   OH245946   0.072   2.164   5.185  0.2255  0.4451 -0.0907
 8152TIP3    H145947   0.143   2.121   5.234  0.8179  0.4783 -0.8983
 8152TIP3    H245948   0.100   2.255   5.177  1.1020  0.0585 -2.1373
 8153TIP3   OH245949   2.221   2.962   2.614 -0.1701  0.4636 -0.0884
 8153TIP3    H145950   2.178   2.999   2.692  0.7142 -0.2714  0.7677
 8153TIP3    H245951   2.222   2.867   2.630 -0.4878  0.2410 -1.2726
 8154TIP3   OH245952   6.231   4.729   0.743 -0.0686 -0.4687 -0.1043
 8154TIP3    H145953   6.226   4.805   0.685  1.1255  0.9518  1.5379
 8154TIP3    H245954   6.320   4.696   0.732  0.1931 -0.1385  0.9303
 8155TIP3   OH245955   0.455   1.799  16.485 -0.8266  0.4997  0.1125
 8155TIP3    H145956   0.446   1.818  16.391 -1.3320  1.5684  0.3578
 8155TIP3    H245957   0.512   1.869  16.518  0.4961 -0.6457  0.3816
 8156TIP3   OH245958   6.093   1.618   1.521  0.2829 -0.1156 -0.3716
 8156TIP3    H145959   6.015   1.570   1.546 -0.0630  0.6763  0.1251
 8156TIP3    H245960   6.153   1.607   1.595  0.9110 -1.2747 -1.0378
 8157TIP3   OH245961   5.779   5.288   3.904  0.0081 -0.4121  0.4653
 8157TIP3    H145962   5.868   5.323   3.901 -0.3819  0.7368  1.5203
 8157TIP3    H245963   5.790   5.198   3.934  0.9036 -0.7373 -0.7423
 8158TIP3   OH245964   6.826   5.161  14.496  0.3084  0.2902 -0.1036
 8158TIP3    H145965   6.772   5.112  14.558 -1.7591  0.8586 -1.3375
 8158TIP3    H245966   6.829   5.250  14.531  0.7853  0.1785  0.1506
 8159TIP3   OH245967   4.699   5.027   5.667 -0.4226 -0.9122 -0.2944
 8159TIP3    H145968   4.636   5.037   5.738  1.0107  0.1257  0.8884
 8159TIP3    H245969   4.646   5.005   5.591 -2.1707 -0.4425  0.7346
 8160TIP3   OH245970   2.508   1.508   2.965 -0.1322 -0.1862  0.4009
 8160TIP3    H145971   2.582   1.563   2.989  0.2799 -0.2166 -0.7562
 8160TIP3    H245972   2.438   1.570   2.943  0.4799 -0.0800 -1.3700
 8161TIP3   OH245973   3.204   6.476   3.817 -0.6551  0.4041  0.5197
 8161TIP3    H145974   3.116   6.462   3.782 -0.2902 -0.8881  0.0423
 8161TIP3    H245975   3.262   6.457   3.743  0.0151  2.8630  0.3250
 8162TIP3   OH245976   6.663   2.094   4.108 -0.3035  0.2208  0.5882
 8162TIP3    H145977   6.596   2.053   4.053  0.0834 -0.1935  0.4164
 8162TIP3    H245978   6.715   2.021   4.141  1.4837  0.6277 -1.1104
 8163TIP3   OH245979   3.967   6.580  11.780 -0.0563  0.7209 -0.1781
 8163TIP3    H145980   3.982   6.625  11.697  1.8840  2.4552  1.0239
 8163TIP3    H245981   3.966   6.650  11.846  0.6722 -0.7575  1.4999
 8164TIP3   OH245982   6.155   0.937  14.881 -0.1860  0.5534 -0.1224
 8164TIP3    H145983   6.248   0.953  14.893 -0.3524  1.0023  0.6231
 8164TIP3    H245984   6.129   0.887  14.958 -0.2898 -0.7836 -0.9916
 8165TIP3   OH245985   4.168   1.450  12.411 -0.3569 -0.3608  0.5077
 8165TIP3    H145986   4.224   1.526  12.428 -0.0484 -0.5974  0.5779
 8165TIP3    H245987   4.161   1.447  12.315  0.1543 -0.6096  0.4736
 8166TIP3   OH245988   2.488   5.748   4.619 -0.1031  0.2756 -0.5251
 8166TIP3    H145989   2.582   5.763   4.615  0.0474 -0.8036 -2.3565
 8166TIP3    H245990   2.477   5.674   4.678  0.1773  0.4925 -0.2024
 8167TIP3   OH245991   2.241   1.086  12.323 -0.1274 -0.2419 -0.0975
 8167TIP3    H145992   2.300   1.135  12.380 -0.8536  1.1420 -0.5089
 8167TIP3    H245993   2.158   1.083  12.370 -0.0019 -1.4161  0.0824
 8168TIP3   OH245994   3.713   1.201   4.588 -0.4167  0.0227  0.3265
 8168TIP3    H145995   3.638   1.144   4.603  0.8942 -1.3929  1.9909
 8168TIP3    H245996   3.752   1.170   4.507 -0.5726 -0.4962  0.4451
 8169TIP3   OH245997   5.038   4.909  13.382 -0.2995  0.1480 -0.5931
 8169TIP3    H145998   5.016   4.834  13.438  0.1208  0.0188 -0.6018
 8169TIP3    H245999   5.131   4.898  13.363 -0.8243 -0.8906 -2.9211
 8170TIP3   OH246000   2.911   5.757   5.490 -0.3350 -0.0210 -0.1607
 8170TIP3    H146001   2.829   5.789   5.451 -0.1389  1.8690  0.8616
 8170TIP3    H246002   2.921   5.669   5.455 -3.3219 -0.7195  0.4515
 8171TIP3   OH246003   1.933   5.626  16.694 -0.7377 -0.6607  0.3010
 8171TIP3    H146004   1.979   5.697  16.739 -1.3868 -0.2195  0.2712
 8171TIP3    H246005   1.968   5.546  16.734  0.4138 -0.3618 -0.0555
 8172TIP3   OH246006   4.619   2.881  15.198 -0.0701  0.3308 -0.2875
 8172TIP3    H146007   4.597   2.812  15.135 -1.3992  1.7454 -1.4416
 8172TIP3    H246008   4.573   2.959  15.166  1.8445  1.9239  0.6415
 8173TIP3   OH246009   0.791   5.972  11.759  0.5158 -0.4640 -0.3753
 8173TIP3    H146010   0.881   6.003  11.754 -0.3442  2.1123 -1.6773
 8173TIP3    H246011   0.787   5.899  11.698  1.7996 -0.8882  0.0239
 8174TIP3   OH246012   4.991   6.806   6.198  0.2810 -0.2758 -0.2568
 8174TIP3    H146013   4.895   6.810   6.201  0.2197 -1.3331 -0.6756
 8174TIP3    H246014   5.011   6.724   6.154  1.3911 -0.1433 -0.0308
 8175TIP3   OH246015   0.029   1.978  15.087  1.1832 -0.7536 -0.4401
 8175TIP3    H146016  -0.027   1.986  15.165  1.1762 -0.1862 -0.5002
 8175TIP3    H246017  -0.031   1.949  15.018  0.4887  1.7429 -1.0046
 8176TIP3   OH246018   5.781   3.845  12.882 -0.2099 -0.5059  0.7400
 8176TIP3    H146019   5.748   3.815  12.967  1.5629  1.6999  2.3429
 8176TIP3    H246020   5.837   3.774  12.852 -2.2646 -2.1084  0.4302
 8177TIP3   OH246021   4.643   1.228   4.870  0.5644 -0.9302 -0.9407
 8177TIP3    H146022   4.699   1.171   4.816  0.1246 -0.9662 -1.3713
 8177TIP3    H246023   4.664   1.204   4.960  1.6103 -0.5826 -1.0784
 8178TIP3   OH246024   0.052   4.978   2.075 -0.3339  0.5316  0.0956
 8178TIP3    H146025   0.105   4.906   2.043 -0.1227  0.4317  0.6623
 8178TIP3    H246026  -0.032   4.969   2.029 -0.1520  0.2002 -0.1718
 8179TIP3   OH246027   1.402   5.093  16.600 -0.0935  0.3433 -0.5660
 8179TIP3    H146028   1.358   5.108  16.684  1.4113 -0.3129  0.3878
 8179TIP3    H246029   1.433   5.003  16.606  2.7166  1.2343 -0.4941
 8180TIP3   OH246030   3.752   6.811  11.735 -0.1552  0.5484 -0.8936
 8180TIP3    H146031   3.734   6.901  11.706  1.7055  0.6337 -1.9505
 8180TIP3    H246032   3.755   6.760  11.654 -0.3975 -0.3401 -0.3639
 8181TIP3   OH246033   2.703   2.486  16.867  0.4746  0.1434  0.0233
 8181TIP3    H146034   2.763   2.412  16.860  0.8077  0.3360  0.7577
 8181TIP3    H246035   2.701   2.507  16.960 -0.5170  0.3234 -0.0276
 8182TIP3   OH246036   3.536   4.425  11.487 -0.6154 -0.3136 -0.0058
 8182TIP3    H146037   3.573   4.505  11.449  0.6010 -0.7132  0.2980
 8182TIP3    H246038   3.476   4.457  11.555 -0.2613  0.3490  0.0058
 8183TIP3   OH246039   0.153   3.713  17.015  0.3250 -0.3955 -0.1150
 8183TIP3    H146040   0.174   3.620  17.015 -0.2921 -0.5490 -1.3219
 8183TIP3    H246041   0.118   3.729  17.103  1.4714 -1.0338  0.4913
 8184TIP3   OH246042   3.793   5.600  16.730  0.4460 -0.5745 -0.4320
 8184TIP3    H146043   3.755   5.676  16.685 -0.0027  0.2947  1.3534
 8184TIP3    H246044   3.725   5.570  16.789  1.4427 -0.9018  0.5915
 8185TIP3   OH246045   3.904   6.350  14.310  0.7419  0.3936 -0.3339
 8185TIP3    H146046   3.969   6.334  14.242 -0.4268  1.7249 -1.8290
 8185TIP3    H246047   3.860   6.265  14.322  0.2372  0.3691 -2.0700
 8186TIP3   OH246048   2.769   1.776   6.557 -0.7255 -0.5212 -0.6460
 8186TIP3    H146049   2.741   1.709   6.619  0.1431 -0.6617 -0.3834
 8186TIP3    H246050   2.727   1.856   6.587 -0.1459 -0.5441  0.2619
 8187TIP3   OH246051   6.401   3.692   5.589 -0.3850 -0.1008  0.5911
 8187TIP3    H146052   6.333   3.626   5.603  0.1882 -0.6854  0.6588
 8187TIP3    H246053   6.403   3.743   5.670 -1.1534  0.3074  0.3596
 8188TIP3   OH246054   0.908   6.056   0.509 -0.1365 -0.0674  0.0322
 8188TIP3    H146055   0.950   5.970   0.521 -0.1855 -0.1590 -0.4202
 8188TIP3    H246056   0.840   6.040   0.443 -0.1841  0.3104 -0.0119
 8189TIP3   OH246057   3.903   6.086   3.714 -0.1494 -0.2150 -0.3543
 8189TIP3    H146058   3.980   6.119   3.668  0.6944 -1.4674  0.1116
 8189TIP3    H246059   3.863   6.025   3.651  0.2779 -0.9543  0.0900
 8190TIP3   OH246060   6.572   6.814  12.318 -0.5076  0.2885 -0.2175
 8190TIP3    H146061   6.629   6.859  12.380 -0.3225 -0.9545  0.5458
 8190TIP3    H246062   6.486   6.855  12.331 -0.0524  1.4045 -0.5831
 8191TIP3   OH246063   4.529   2.280   5.323 -0.0483 -0.4379 -0.3164
 8191TIP3    H146064   4.521   2.239   5.409  2.4482 -0.0093  0.1990
 8191TIP3    H246065   4.497   2.370   5.336  2.2506  0.3060  0.8193
 8192TIP3   OH246066   5.456   4.358  15.938 -0.0475 -0.0309  0.2015
 8192TIP3    H146067   5.465   4.451  15.957  0.6089 -0.0859  0.1841
 8192TIP3    H246068   5.372   4.350  15.893 -0.0481  0.5690  0.0955
 8193TIP3   OH246069   4.858   0.717  13.569  0.1232 -0.2863  0.5912
 8193TIP3    H146070   4.853   0.745  13.478  1.5822 -1.8246 -0.0036
 8193TIP3    H246071   4.825   0.792  13.619  0.3315  0.9991 -1.1158
 8194TIP3   OH246072   0.689   5.020  16.356 -0.1640 -0.1658  0.1998
 8194TIP3    H146073   0.712   5.063  16.438 -1.1601  0.2602  0.2788
 8194TIP3    H246074   0.621   4.957  16.380 -1.2621  0.7180 -0.4164
 8195TIP3   OH246075   1.678   5.940   1.949 -0.4228 -0.5383  0.0398
 8195TIP3    H146076   1.636   6.013   1.903 -2.9106 -1.3503  0.8187
 8195TIP3    H246077   1.769   5.942   1.920 -0.6649  2.1381 -0.8387
 8196TIP3   OH246078   3.149   4.519   4.759  0.3969 -0.3851  0.1251
 8196TIP3    H146079   3.124   4.603   4.720  0.2365  0.5959  2.2205
 8196TIP3    H246080   3.180   4.541   4.847 -0.1329 -2.5604  0.9279
 8197TIP3   OH246081   5.735   2.153  15.442  0.1354 -0.1538 -0.6090
 8197TIP3    H146082   5.784   2.098  15.381 -1.7558 -1.2871 -1.2161
 8197TIP3    H246083   5.719   2.096  15.518  3.0343  1.4354  1.3985
 8198TIP3   OH246084   4.745   5.329   2.773 -0.2832  0.8881 -0.3850
 8198TIP3    H146085   4.835   5.296   2.767 -0.1460  0.9931  0.8699
 8198TIP3    H246086   4.709   5.314   2.686 -0.5870 -3.6162  0.2580
 8199TIP3   OH246087   6.504   1.515   1.501 -0.1994 -0.5083  0.2279
 8199TIP3    H146088   6.476   1.601   1.535 -0.7114 -1.0180  1.1240
 8199TIP3    H246089   6.495   1.523   1.406  0.2401  0.5971  0.2580
 8200TIP3   OH246090   5.738   2.907  12.290 -0.4387 -0.2682  0.3382
 8200TIP3    H146091   5.725   2.819  12.255 -0.1008 -0.0426 -0.3657
 8200TIP3    H246092   5.742   2.895  12.385 -2.2820 -0.7775  0.3823
 8201TIP3   OH246093   4.517   5.738   1.267  0.7285 -0.1241 -0.3999
 8201TIP3    H146094   4.610   5.728   1.247  0.9815  0.2595  0.5497
 8201TIP3    H246095   4.490   5.651   1.297  0.7737 -0.2314 -0.6601
 8202TIP3   OH246096   3.608   1.811  16.660  0.3524  0.3470  0.3549
 8202TIP3    H146097   3.522   1.772  16.648  0.9772 -0.8401 -0.3313
 8202TIP3    H246098   3.598   1.901  16.627 -0.3101 -0.1332 -0.8029
 8203TIP3   OH246099   2.810   4.232  14.488  0.2685  0.3280 -0.5022
 8203TIP3    H146100   2.877   4.183  14.440  0.1083  0.6337 -1.0428
 8203TIP3    H246101   2.763   4.165  14.538  1.6562  0.2246  0.7357
 8204TIP3   OH246102   0.666   6.547   0.218  0.2337  0.5188 -0.2341
 8204TIP3    H146103   0.582   6.523   0.180  1.1401 -0.7247 -1.5427
 8204TIP3    H246104   0.708   6.603   0.153  1.3730 -0.7873 -0.6703
 8205TIP3   OH246105   1.602   0.012  12.951  0.1464  0.1024  0.0200
 8205TIP3    H146106   1.573  -0.057  13.011  3.2966 -0.3271  1.2792
 8205TIP3    H246107   1.564   0.092  12.986  0.4814 -0.3929  1.5976
 8206TIP3   OH246108   5.859   1.085  16.844  0.8089 -0.0602  0.0899
 8206TIP3    H146109   5.821   1.173  16.842  0.8212 -0.0760 -1.2592
 8206TIP3    H246110   5.951   1.099  16.866  0.4886  0.1293  1.3885
 8207TIP3   OH246111   4.529   3.015  16.921  0.6316 -0.2161  0.0174
 8207TIP3    H146112   4.492   3.041  16.837 -0.0989 -0.5416  0.2335
 8207TIP3    H246113   4.612   2.972  16.899 -0.2654 -1.6718 -0.6648
 8208TIP3   OH246114   6.601   1.814   0.331  0.7733  0.1171  0.7059
 8208TIP3    H146115   6.601   1.875   0.405 -0.2919 -1.2898  1.9464
 8208TIP3    H246116   6.635   1.865   0.258  0.4061  2.0335  1.7848
 8209TIP3   OH246117   1.397   1.461  16.597 -0.2509  0.1603  0.8715
 8209TIP3    H146118   1.405   1.366  16.587  0.6938  0.3038  0.1170
 8209TIP3    H246119   1.324   1.473  16.657 -0.1968 -1.0545  1.1992
 8210TIP3   OH246120   4.256   2.854   0.207  0.3866 -0.8000 -0.0716
 8210TIP3    H146121   4.266   2.784   0.272  0.0937 -0.2500  0.5756
 8210TIP3    H246122   4.181   2.827   0.154  0.8222 -1.4075 -0.3933
 8211TIP3   OH246123   4.046   1.593  11.606  0.5709  0.2293 -0.2905
 8211TIP3    H146124   4.107   1.545  11.662 -0.4095  1.0930  1.6030
 8211TIP3    H246125   3.988   1.525  11.570  1.3652 -0.3617 -0.4644
 8212TIP3   OH246126   4.844   6.422  16.748 -0.0502  0.0051 -0.3962
 8212TIP3    H146127   4.931   6.383  16.749 -0.3158 -0.6177 -0.6807
 8212TIP3    H246128   4.788   6.353  16.711 -0.9737 -0.2597  1.3843
 8213TIP3   OH246129   4.838   3.173  11.512 -0.2216  0.2036 -0.2469
 8213TIP3    H146130   4.831   3.082  11.541 -0.1247 -0.3922 -1.9810
 8213TIP3    H246131   4.755   3.213  11.538  0.1739 -0.0393  1.5353
 8214TIP3   OH246132   1.594   4.285  13.670  0.1303 -0.4901 -0.3066
 8214TIP3    H146133   1.506   4.318  13.655 -0.1428 -0.4533  1.2543
 8214TIP3    H246134   1.638   4.295  13.585 -1.3684 -0.5847 -1.1262
 8215TIP3   OH246135   2.992   1.857  12.664  0.3274  0.0825  0.2412
 8215TIP3    H146136   3.077   1.823  12.636  0.3105  0.9643 -0.9492
 8215TIP3    H246137   3.013   1.920  12.732  0.6750  0.5796 -0.3133
 8216TIP3   OH246138   4.392   0.555   1.966 -0.2285  0.0999  0.1892
 8216TIP3    H146139   4.300   0.541   1.990 -0.1861  0.5856  0.6718
 8216TIP3    H246140   4.388   0.594   1.878 -0.4416 -0.6491 -0.1393
 8217TIP3   OH246141   1.581   3.400   5.276  0.2845  0.0736 -0.0572
 8217TIP3    H146142   1.609   3.487   5.245  0.7442  0.3186  0.9920
 8217TIP3    H246143   1.620   3.393   5.363 -0.3995 -0.8732  0.1794
 8218TIP3   OH246144   0.644   0.750  16.065  0.3973  0.2873 -0.2543
 8218TIP3    H146145   0.641   0.740  16.160 -0.4576 -0.9761 -0.3880
 8218TIP3    H246146   0.690   0.672  16.034  1.3159  1.0353 -0.8568
 8219TIP3   OH246147   4.945   3.646  11.692  0.1832  0.4568 -0.2550
 8219TIP3    H146148   4.942   3.578  11.625  0.2323  0.7999 -0.6106
 8219TIP3    H246149   4.907   3.605  11.770  2.7976 -0.8964  0.3974
 8220TIP3   OH246150   4.973   5.533   4.749 -0.3189  0.5117  0.1810
 8220TIP3    H146151   4.966   5.458   4.807 -0.1984  0.5169  0.2007
 8220TIP3    H246152   4.957   5.609   4.805  0.8727  0.5989  0.4327
 8221TIP3   OH246153   1.877   5.000  15.757  0.0400 -0.1344  0.0810
 8221TIP3    H146154   1.940   4.964  15.694 -0.2400  0.9069 -0.8154
 8221TIP3    H246155   1.850   4.924  15.809 -1.3370 -1.4806 -2.4212
 8222TIP3   OH246156   5.915   5.421  17.060  0.5564 -0.1397  0.1467
 8222TIP3    H146157   5.969   5.362  17.113 -0.7862 -2.2151 -0.6605
 8222TIP3    H246158   5.829   5.378  17.056 -0.1067  1.2093 -1.6231
 8223TIP3   OH246159   6.652   4.725   4.050 -0.6706 -0.3557 -0.1710
 8223TIP3    H146160   6.697   4.641   4.042  1.1011  0.5222  0.1597
 8223TIP3    H246161   6.588   4.712   4.120 -0.5221 -1.4586 -0.2296
 8224TIP3   OH246162   5.435   4.568   3.811  0.5419 -0.9819 -0.5861
 8224TIP3    H146163   5.448   4.620   3.731  0.4454 -0.2368 -0.1254
 8224TIP3    H246164   5.523   4.547   3.840  0.7402  1.4281  0.8229
 8225TIP3   OH246165   0.169   1.575   3.787 -0.2869 -0.1075 -0.1433
 8225TIP3    H146166   0.232   1.510   3.819  0.0759  0.3067 -0.0111
 8225TIP3    H246167   0.125   1.531   3.715  0.6354 -0.1667 -0.6927
 8226TIP3   OH246168   0.031   4.634  12.899  0.0340  0.1460  0.3244
 8226TIP3    H146169   0.015   4.602  12.811 -0.6378  0.3197  0.3833
 8226TIP3    H246170   0.050   4.554  12.950  2.2322  0.1863 -0.3347
 8227TIP3   OH246171   4.552   2.325  11.829 -0.8823 -0.8711  0.1032
 8227TIP3    H146172   4.557   2.408  11.876  1.3122 -1.4214  0.9658
 8227TIP3    H246173   4.462   2.297  11.839 -1.5769  1.2023  0.1168
 8228TIP3   OH246174   4.833   5.867   6.059 -0.3249  0.4798 -0.1056
 8228TIP3    H146175   4.807   5.930   6.126 -0.4912  0.7247 -0.3964
 8228TIP3    H246176   4.816   5.781   6.099 -0.2213  0.6214  0.2417
 8229TIP3   OH246177   4.202   4.537   6.495  0.2426  0.2128  0.0534
 8229TIP3    H146178   4.182   4.528   6.588 -1.2088  1.3548 -0.1215
 8229TIP3    H246179   4.229   4.628   6.484  0.8367 -0.0289 -0.5739
 8230TIP3   OH246180   0.126   5.818  12.680 -0.1245  0.8043  0.0128
 8230TIP3    H146181   0.135   5.752  12.748  0.2660  1.9879  1.1696
 8230TIP3    H246182   0.182   5.787  12.608  0.1954 -0.0212  0.6092
 8231TIP3   OH246183   1.687   0.771   2.704 -0.0399  0.4491  0.5657
 8231TIP3    H146184   1.631   0.822   2.762 -0.5025  1.0718 -0.3946
 8231TIP3    H246185   1.635   0.695   2.680 -0.5883  1.1174 -0.4698
 8232TIP3   OH246186   2.299   1.672  11.703  0.2017 -0.4544 -0.1631
 8232TIP3    H146187   2.211   1.634  11.710 -0.0927 -0.3570 -2.3812
 8232TIP3    H246188   2.300   1.742  11.768 -1.1916 -0.7768  0.2406
 8233TIP3   OH246189   6.477   0.735  14.718  0.3592 -0.1680  1.2484
 8233TIP3    H146190   6.410   0.749  14.651  0.2216 -1.9038  0.9619
 8233TIP3    H246191   6.485   0.640  14.723  1.3615 -0.0311  2.7327
 8234TIP3   OH246192   0.639   1.597  12.723 -0.2602  0.3065 -0.2749
 8234TIP3    H146193   0.550   1.613  12.755  0.6743  2.6191  1.4983
 8234TIP3    H246194   0.634   1.616  12.629 -1.3317  2.2159  0.1072
 8235TIP3   OH246195   0.238   2.476  10.985 -0.1645  0.0418 -0.1594
 8235TIP3    H146196   0.332   2.485  10.998 -0.0010  0.0692 -1.2690
 8235TIP3    H246197   0.209   2.418  11.056  0.3968  1.3164  1.1730
 8236TIP3   OH246198   1.405   5.820   5.753 -0.2240  0.3753 -0.3528
 8236TIP3    H146199   1.391   5.740   5.803 -1.5697  1.4073  1.0273
 8236TIP3    H246200   1.317   5.847   5.726  0.1396  1.6853 -0.2791
 8237TIP3   OH246201   5.842   0.349   1.753 -0.3429  0.4105 -0.5306
 8237TIP3    H146202   5.801   0.263   1.762  0.2995  0.3108  2.5836
 8237TIP3    H246203   5.933   0.336   1.778  0.3923  1.6266 -2.2859
 8238TIP3   OH246204   0.852   0.317  15.265  0.0549  0.6892  0.7691
 8238TIP3    H146205   0.817   0.288  15.350 -0.3058  0.3882  0.5247
 8238TIP3    H246206   0.937   0.273  15.258  0.7089  1.7706  1.5609
 8239TIP3   OH246207   0.388   3.275  15.864  0.3450 -0.1862 -0.0993
 8239TIP3    H146208   0.339   3.348  15.901  0.2604 -0.5128  0.4528
 8239TIP3    H246209   0.470   3.273  15.914  0.0212 -0.9356  0.4262
 8240TIP3   OH246210   5.230   4.166  14.396  0.9922  0.3392 -0.0883
 8240TIP3    H146211   5.284   4.123  14.461 -0.5423 -0.7949  0.5101
 8240TIP3    H246212   5.247   4.259  14.408  1.0780  0.1327  1.6502
 8241TIP3   OH246213   2.458   1.228   2.984  0.4392 -0.0175 -0.2040
 8241TIP3    H146214   2.474   1.312   2.941 -1.0363  0.6399  0.4632
 8241TIP3    H246215   2.429   1.171   2.913 -0.7694  0.7054 -0.3177
 8242TIP3   OH246216   0.058   1.972   1.922  0.4088  0.2287  0.3808
 8242TIP3    H146217   0.125   1.969   1.990  0.6112  3.3792  0.4956
 8242TIP3    H246218   0.107   1.975   1.840  0.2400 -1.1016  0.2100
 8243TIP3   OH246219   3.393   3.110  16.977 -0.0842 -0.2644  0.0614
 8243TIP3    H146220   3.364   3.031  17.020 -0.4900 -0.8974 -1.3144
 8243TIP3    H246221   3.421   3.081  16.890  1.1871  0.8759  0.0470
 8244TIP3   OH246222   2.639   0.773   3.942  0.1645  0.1462 -0.1315
 8244TIP3    H146223   2.614   0.765   4.034 -2.5380  1.6238 -0.6637
 8244TIP3    H246224   2.696   0.850   3.940  0.8432 -0.3181  0.3527
 8245TIP3   OH246225   5.136   3.697   0.246  0.5964  0.7637  0.2268
 8245TIP3    H146226   5.187   3.766   0.289  0.6183  0.9760 -0.1285
 8245TIP3    H246227   5.165   3.700   0.155  0.4911  0.3793  0.1807
 8246TIP3   OH246228   3.439   3.051   5.605 -0.6385  0.1287 -0.0262
 8246TIP3    H146229   3.388   3.042   5.686  0.2384 -1.1622  0.4112
 8246TIP3    H246230   3.376   3.082   5.540 -1.7636 -0.5217  0.7291
 8247TIP3   OH246231   4.411   3.582   1.905 -0.2554 -0.6837  0.1769
 8247TIP3    H146232   4.372   3.572   1.992 -0.0887  2.2940  0.7195
 8247TIP3    H246233   4.343   3.627   1.854  1.0179  1.1761  0.0186
 8248TIP3   OH246234   1.394   2.962  14.130  0.1624 -0.0074 -0.1934
 8248TIP3    H146235   1.454   3.025  14.090  1.7015 -1.0827  0.3306
 8248TIP3    H246236   1.307   3.000  14.117  1.0621  2.6965  0.9348
 8249TIP3   OH246237   6.095   5.479  13.162  0.3538 -0.4620  0.2323
 8249TIP3    H146238   6.016   5.527  13.187  0.9185  0.6654 -0.0724
 8249TIP3    H246239   6.116   5.426  13.239 -0.1331 -0.0075  0.6907
 8250TIP3   OH246240   5.242   2.125  14.665 -0.2755 -0.1097  0.9313
 8250TIP3    H146241   5.214   2.205  14.710  0.2138  0.3966  0.3624
 8250TIP3    H246242   5.338   2.128  14.669 -0.2409 -0.3301  0.3362
 8251TIP3   OH246243   2.522   3.796  16.364  0.0776 -0.8814  0.3376
 8251TIP3    H146244   2.487   3.871  16.411  2.0527  0.2483  0.1304
 8251TIP3    H246245   2.554   3.833  16.281  4.4337 -1.0489  1.6552
 8252TIP3   OH246246   3.683   1.726   2.439 -0.3565  0.3097  0.2172
 8252TIP3    H146247   3.707   1.634   2.430  0.1204  0.3188  1.1928
 8252TIP3    H246248   3.667   1.756   2.350 -1.3042 -0.9135 -0.0549
 8253TIP3   OH246249   2.386   5.321  11.357  0.0025  0.2887  0.6949
 8253TIP3    H146250   2.331   5.319  11.279 -1.5798 -0.4324  1.7978
 8253TIP3    H246251   2.325   5.326  11.430  1.4560  0.9656  1.9152
 8254TIP3   OH246252   0.496   0.654  13.407 -0.2946  0.2873  0.0567
 8254TIP3    H146253   0.411   0.623  13.439  0.5094 -0.8312  1.2078
 8254TIP3    H246254   0.486   0.749  13.398 -1.7948  0.1179 -0.2958
 8255TIP3   OH246255   1.026   1.782   4.642 -0.0095  0.1652  0.3909
 8255TIP3    H146256   0.940   1.809   4.609  0.3619 -1.5852 -2.3635
 8255TIP3    H246257   1.008   1.704   4.694 -0.1468  0.1247  0.2845
 8256TIP3   OH246258   5.250   6.826  16.807  0.3137 -0.0546  0.0213
 8256TIP3    H146259   5.178   6.842  16.868  0.5310 -1.1055  0.5978
 8256TIP3    H246260   5.302   6.906  16.809  0.4106 -0.1164  1.3993
 8257TIP3   OH246261   2.236   2.524  17.099 -0.1444 -0.6934  0.5145
 8257TIP3    H146262   2.189   2.577  17.035  1.1514 -0.1429 -0.0155
 8257TIP3    H246263   2.206   2.434  17.081 -2.5869 -0.1892  1.6324
 8258TIP3   OH246264   4.872   6.279   5.631  0.4817 -0.7862 -0.3529
 8258TIP3    H146265   4.827   6.355   5.668  1.9179  0.4480 -1.0598
 8258TIP3    H246266   4.933   6.252   5.699  1.1328 -0.2719 -0.7275
 8259TIP3   OH246267   5.524   2.865   1.248  0.0004 -0.0427 -0.3914
 8259TIP3    H146268   5.462   2.912   1.191 -0.4387 -0.4368 -0.2440
 8259TIP3    H246269   5.546   2.786   1.199  0.1962 -0.0216 -0.3352
 8260TIP3   OH246270   3.947   5.842   2.182  0.0705 -0.2243 -0.0447
 8260TIP3    H146271   3.976   5.876   2.267 -0.4985 -0.4456  0.2457
 8260TIP3    H246272   3.921   5.919   2.132  2.1264  0.1061 -0.7194
 8261TIP3   OH246273   1.773   3.721  10.728 -0.2706  0.4037  0.5576
 8261TIP3    H146274   1.751   3.673  10.648 -0.5429 -0.6294  1.2389
 8261TIP3    H246275   1.719   3.800  10.723  0.7857  1.0777 -0.9721
 8262TIP3   OH246276   1.865   3.135   5.472  0.2304  0.1774  0.3037
 8262TIP3    H146277   1.941   3.144   5.530 -0.5654  0.5513  1.3015
 8262TIP3    H246278   1.879   3.050   5.428  0.7316 -0.2154  1.1917
 8263TIP3   OH246279   4.740   1.157  16.531  0.3915 -0.4259 -0.5570
 8263TIP3    H146280   4.781   1.242  16.516  0.9663 -0.9916 -2.3441
 8263TIP3    H246281   4.708   1.130  16.446  0.7436 -2.2766 -0.1488
 8264TIP3   OH246282   5.978   5.465  13.966 -0.3019  0.2832  0.3332
 8264TIP3    H146283   6.047   5.399  13.957 -0.1099  0.4556  0.5155
 8264TIP3    H246284   5.904   5.430  13.916 -0.2395 -0.1185  0.5134
 8265TIP3   OH246285   4.952   2.752  14.620 -0.3510  0.6657  0.0061
 8265TIP3    H146286   4.977   2.660  14.619 -0.8621  0.5069  0.9683
 8265TIP3    H246287   4.865   2.752  14.660  0.8194  1.8394  2.7405
 8266TIP3   OH246288   2.738   4.074   6.722  0.1559  0.2467 -0.1291
 8266TIP3    H146289   2.708   4.080   6.813  1.3825  1.4726  0.2429
 8266TIP3    H246290   2.833   4.077   6.728  0.2552  0.8638 -1.4684
 8267TIP3   OH246291   1.999   4.185   3.767  0.1409  0.0203  0.1320
 8267TIP3    H146292   2.072   4.246   3.779  0.4781 -0.4006  0.2186
 8267TIP3    H246293   2.028   4.127   3.696 -0.3475  0.2120 -0.2306
 8268TIP3   OH246294   1.414   5.646  15.910 -0.6096 -0.2544 -0.0459
 8268TIP3    H146295   1.361   5.592  15.851 -1.5239  1.6707 -1.0901
 8268TIP3    H246296   1.433   5.725  15.859  0.1075  0.7109  1.6376
 8269TIP3   OH246297   3.501   0.021   0.182  0.0895 -0.2481 -0.5571
 8269TIP3    H146298   3.471   0.096   0.234  2.5270  1.4494 -1.4509
 8269TIP3    H246299   3.464  -0.055   0.227 -1.8454  1.4075  0.8368
 8270TIP3   OH246300   3.910   3.029   0.166  0.5021  0.7714 -0.4865
 8270TIP3    H146301   3.897   2.984   0.083  1.4924  0.2820 -0.3905
 8270TIP3    H246302   3.839   3.094   0.169  0.6174  1.0035 -1.8525
 8271TIP3   OH246303   0.251   4.502   4.477 -0.7587 -0.2483 -0.1277
 8271TIP3    H146304   0.192   4.512   4.403 -0.6366  1.5265 -0.0187
 8271TIP3    H246305   0.327   4.455   4.442 -0.3461  1.2675 -1.3624
 8272TIP3   OH246306   4.573   0.639   1.308 -0.5297  0.4614  0.1939
 8272TIP3    H146307   4.485   0.643   1.271 -0.7065 -2.2602  0.1149
 8272TIP3    H246308   4.632   0.657   1.234 -0.9604 -1.6618 -0.7191
 8273TIP3   OH246309   5.569   0.194   0.229  0.0218  0.1957 -0.2364
 8273TIP3    H146310   5.497   0.236   0.181  0.3550  0.8166 -0.2055
 8273TIP3    H246311   5.641   0.257   0.224  0.2917 -0.0453  0.4740
 8274TIP3   OH246312   2.904   0.638   5.320  0.2319 -0.7261  0.3074
 8274TIP3    H146313   2.898   0.573   5.389  0.0264  0.7595  1.7554
 8274TIP3    H246314   2.836   0.613   5.257 -1.0539 -0.9189  1.7244
 8275TIP3   OH246315   2.241   0.383  13.516  0.0547  0.0152  0.2189
 8275TIP3    H146316   2.155   0.343  13.502  0.2191 -0.0926 -0.5426
 8275TIP3    H246317   2.298   0.338  13.453  0.5564  0.4379  0.3698
 8276TIP3   OH246318   0.176   1.579  13.007 -0.7559  0.2660 -0.0926
 8276TIP3    H146319   0.192   1.602  13.098  0.8636 -0.6409 -0.1085
 8276TIP3    H246320   0.101   1.519  13.009 -0.0549 -0.6081  0.7785
 8277TIP3   OH246321   5.413   1.273   2.269  0.0971 -0.3472  0.5053
 8277TIP3    H146322   5.346   1.266   2.336  0.6475  0.2020  1.1202
 8277TIP3    H246323   5.463   1.350   2.293 -0.3851  0.5363 -1.1637
 8278TIP3   OH246324   5.129   4.876   0.303  0.0598  0.1818 -0.8297
 8278TIP3    H146325   5.054   4.936   0.299  0.4236  0.5889 -3.1509
 8278TIP3    H246326   5.165   4.888   0.391 -2.7561 -0.2869  0.5094
 8279TIP3   OH246327   1.343   2.853  15.016  0.1972  0.6656  0.3147
 8279TIP3    H146328   1.409   2.828  15.081  0.1004 -2.8819 -0.7155
 8279TIP3    H246329   1.314   2.940  15.043  3.1194  1.1155  2.5345
 8280TIP3   OH246330   6.530   6.789   6.484  0.5278  0.3081 -0.2897
 8280TIP3    H146331   6.543   6.864   6.542 -2.2955 -0.0977  0.9812
 8280TIP3    H246332   6.609   6.736   6.495 -0.2269 -0.2430  4.0251
 8281TIP3   OH246333   2.737   0.329   5.333 -0.0539 -0.3223 -0.4868
 8281TIP3    H146334   2.829   0.305   5.321 -0.3393 -0.6921 -2.2920
 8281TIP3    H246335   2.737   0.388   5.409  1.4801 -1.2721  0.2963
 8282TIP3   OH246336   2.465   2.765   5.220 -0.0331  0.5879  0.7281
 8282TIP3    H146337   2.492   2.766   5.128 -0.4411 -2.5967  0.4717
 8282TIP3    H246338   2.402   2.837   5.227 -2.0585 -0.7047 -2.2475
 8283TIP3   OH246339   5.816   3.403  10.915  0.2342 -0.1924 -0.0938
 8283TIP3    H146340   5.897   3.372  10.873  0.3117 -1.7918  1.1365
 8283TIP3    H246341   5.746   3.358  10.867  0.1283  0.4044 -0.5047
 8284TIP3   OH246342   4.199   2.119   4.337 -0.4162 -0.1917 -0.6270
 8284TIP3    H146343   4.203   2.089   4.427  0.9036  0.7690 -0.3287
 8284TIP3    H246344   4.271   2.073   4.293  1.5140  2.1918 -0.2060
 8285TIP3   OH246345   3.790   6.192  12.863 -0.0570 -0.0022  0.2410
 8285TIP3    H146346   3.828   6.209  12.777 -1.2908 -1.9727 -0.7546
 8285TIP3    H246347   3.712   6.248  12.866 -0.3630 -0.3910 -0.2113
 8286TIP3   OH246348   0.918   4.288   1.177  0.7003  0.2199  0.3736
 8286TIP3    H146349   0.842   4.254   1.224  0.5541  0.4292  0.2876
 8286TIP3    H246350   0.922   4.381   1.201 -1.7209  1.4165 -3.0169
 8287TIP3   OH246351   1.251   5.602  12.362  0.4866 -0.2200 -0.2815
 8287TIP3    H146352   1.268   5.564  12.449  0.7512 -1.4995 -0.8642
 8287TIP3    H246353   1.193   5.676  12.379  1.5141  0.3288  1.1147
 8288TIP3   OH246354   0.737   4.863   2.599 -0.6726 -0.0200  1.1297
 8288TIP3    H146355   0.719   4.902   2.514  0.9905 -0.4249  0.5591
 8288TIP3    H246356   0.653   4.865   2.645 -1.3542  1.1541 -0.1202
 8289TIP3   OH246357   1.130   5.617   0.358  0.1862 -0.8428 -0.7176
 8289TIP3    H146358   1.103   5.532   0.323  0.2118 -1.4158  0.5969
 8289TIP3    H246359   1.177   5.596   0.438  0.4874  0.4032 -0.5474
 8290TIP3   OH246360   4.902   5.993   2.290  0.0343 -0.4411  0.3119
 8290TIP3    H146361   4.901   6.025   2.199  0.9264 -1.0508  0.0749
 8290TIP3    H246362   4.995   5.979   2.309 -0.0142  0.8869  1.7563
 8291TIP3   OH246363   3.139   3.244   4.402 -1.0958  0.2598  0.6882
 8291TIP3    H146364   3.133   3.286   4.488  0.4624 -0.1743  1.0306
 8291TIP3    H246365   3.106   3.155   4.417 -1.4555  0.3891  0.6765
 8292TIP3   OH246366   0.154   5.670   1.488  0.1986 -0.8218 -0.0068
 8292TIP3    H146367   0.146   5.709   1.575 -0.6106 -0.8974 -0.0419
 8292TIP3    H246368   0.097   5.723   1.432 -0.4751 -1.6874 -0.1646
 8293TIP3   OH246369   1.677   4.905   2.189  0.2339 -0.3336  0.5929
 8293TIP3    H146370   1.603   4.937   2.138  0.4732  0.2110  0.5795
 8293TIP3    H246371   1.710   4.982   2.235 -0.9997 -1.0961  2.9107
 8294TIP3   OH246372   3.666   0.803  15.017 -0.1515 -0.3508 -0.4895
 8294TIP3    H146373   3.649   0.851  14.937  2.1114  0.3099 -0.6549
 8294TIP3    H246374   3.737   0.743  14.994  0.7825  0.0901  1.0638
 8295TIP3   OH246375   6.769   1.456   0.735  0.8099 -0.0799 -0.2922
 8295TIP3    H146376   6.696   1.515   0.715  0.8243  0.5120  1.2475
 8295TIP3    H246377   6.847   1.509   0.717  0.8759 -0.5036 -1.3343
 8296TIP3   OH246378   6.352   4.371  12.497  0.2422  0.3088  0.2617
 8296TIP3    H146379   6.389   4.286  12.473 -1.3899 -0.5613  0.7529
 8296TIP3    H246380   6.352   4.372  12.593  0.1484  0.8303  0.2628
 8297TIP3   OH246381   4.620   5.563   5.018 -0.0872 -0.0197 -0.5193
 8297TIP3    H146382   4.552   5.524   5.073 -0.4273  0.5924 -0.4975
 8297TIP3    H246383   4.699   5.562   5.072 -0.4069  0.5400 -0.0327
 8298TIP3   OH246384   2.434   3.728  12.622  0.2089 -0.2876 -0.4551
 8298TIP3    H146385   2.474   3.716  12.536 -0.2422 -0.4263 -0.6493
 8298TIP3    H246386   2.502   3.771  12.675  1.2515 -2.0484 -0.2746
 8299TIP3   OH246387   4.077   1.183  12.567 -0.1926  0.1408  0.0843
 8299TIP3    H146388   4.076   1.251  12.500  1.6618  2.8043  2.4762
 8299TIP3    H246389   4.022   1.218  12.637 -1.4959 -2.2057  0.3151
 8300TIP3   OH246390   2.437   3.904  11.107 -1.3760 -0.2835  0.1021
 8300TIP3    H146391   2.425   3.843  11.035  0.0616  0.4466 -0.7965
 8300TIP3    H246392   2.531   3.922  11.109 -1.5388  0.6393  1.3970
 8301TIP3   OH246393   3.907   0.491   1.629 -0.0541 -0.1071  0.0692
 8301TIP3    H146394   3.842   0.561   1.635  0.8221  0.7272  0.1046
 8301TIP3    H246395   3.894   0.454   1.542  1.9554  2.6895 -1.6157
 8302TIP3   OH246396   1.778   4.483  11.762 -0.7788 -0.2054 -0.2185
 8302TIP3    H146397   1.744   4.521  11.682 -1.7474 -0.1600  0.2105
 8302TIP3    H246398   1.873   4.496  11.756 -1.0732  2.7933  0.1670
 8303TIP3   OH246399   5.444   3.124  11.922 -0.7593 -0.1106  0.3146
 8303TIP3    H146400   5.493   3.173  11.857 -0.8791  1.0651  1.0927
 8303TIP3    H246401   5.353   3.151  11.910 -1.6955 -3.6724 -2.4112
 8304TIP3   OH246402   1.714   0.134   3.353  0.6289  0.6596 -0.2114
 8304TIP3    H146403   1.714   0.165   3.444  2.8033  2.7767 -0.8354
 8304TIP3    H246404   1.657   0.194   3.307  1.5550  1.2073 -0.6758
 8305TIP3   OH246405   4.544   5.228   6.356 -0.0790  0.4328 -0.5585
 8305TIP3    H146406   4.548   5.136   6.382  1.0562 -0.1250 -2.4929
 8305TIP3    H246407   4.458   5.257   6.385  0.8556 -0.1433  3.3112
 8306TIP3   OH246408   5.978   4.747   5.988 -0.7505 -0.0059  0.0592
 8306TIP3    H146409   5.987   4.830   6.033  0.6760 -0.2362  0.2502
 8306TIP3    H246410   5.928   4.692   6.047  0.8702 -0.2220  1.3086
 8307TIP3   OH246411   5.240   6.151   0.186 -0.3809  0.0991  0.1567
 8307TIP3    H146412   5.251   6.056   0.195  4.0209  0.5088  1.8057
 8307TIP3    H246413   5.238   6.183   0.276 -0.0790  1.6438 -0.3591
 8308TIP3   OH246414   1.128   5.949  14.590 -0.2858  0.0706  0.2523
 8308TIP3    H146415   1.043   5.920  14.620  0.3314 -1.2007  0.8528
 8308TIP3    H246416   1.166   5.996  14.665 -0.3798  0.4911  0.0425
 8309TIP3   OH246417   4.964   0.286  14.663  0.5828 -0.0990 -0.3330
 8309TIP3    H146418   4.903   0.254  14.596 -0.1720  1.7433 -0.5914
 8309TIP3    H246419   4.996   0.207  14.706  0.1751 -1.2749 -2.0795
 8310TIP3   OH246420   0.878   1.641  17.071  0.0318  0.6976 -0.5047
 8310TIP3    H146421   0.863   1.559  17.024  1.0632 -1.4310  2.5571
 8310TIP3    H246422   0.961   1.673  17.038  1.0376 -1.0721  0.1552
 8311TIP3   OH246423   1.879   6.569   5.397 -0.1650 -0.4532  0.0714
 8311TIP3    H146424   1.907   6.499   5.456  1.6953 -0.6791 -0.9830
 8311TIP3    H246425   1.886   6.531   5.309 -0.9612  0.4754 -0.4169
 8312TIP3   OH246426   0.851   5.169   0.161 -0.1011  0.1474  0.4652
 8312TIP3    H146427   0.885   5.167   0.071 -1.6109 -1.6871 -0.1338
 8312TIP3    H246428   0.796   5.091   0.167  0.3247 -0.0328  3.1640
 8313TIP3   OH246429   3.318   1.470  12.092 -0.0801  0.7400 -0.0300
 8313TIP3    H146430   3.298   1.417  12.169 -2.3363 -0.6943 -1.4712
 8313TIP3    H246431   3.246   1.533  12.087 -0.4740  0.2412 -1.3704
 8314TIP3   OH246432   5.499   1.443   9.852 -0.0992  0.3661  0.4655
 8314TIP3    H146433   5.571   1.464   9.912 -0.2465  1.0158  0.4195
 8314TIP3    H246434   5.421   1.443   9.907 -0.2502  1.0782  0.2575
 8315TIP3   OH246435   5.600   3.212  15.315  0.2372 -0.1513  0.5016
 8315TIP3    H146436   5.597   3.125  15.355  0.0327 -0.8148 -0.9328
 8315TIP3    H246437   5.567   3.200  15.227 -1.3092  1.6801  0.7626
 8316TIP3   OH246438   5.211   6.798   2.245  0.2264 -0.7625  0.4574
 8316TIP3    H146439   5.199   6.705   2.226  0.1671 -0.5001 -0.9089
 8316TIP3    H246440   5.230   6.801   2.339  0.7362 -2.1966  0.4291
 8317TIP3   OH246441   4.189   3.221  16.829  0.5271 -0.4517  0.3776
 8317TIP3    H146442   4.241   3.247  16.905  2.0072 -0.0083 -0.7271
 8317TIP3    H246443   4.101   3.252  16.849  1.2853  1.4500  1.0997
 8318TIP3   OH246444   6.596   1.966   5.470 -0.4397  0.6606 -0.1909
 8318TIP3    H146445   6.617   2.054   5.502  2.2445  0.1892 -0.4223
 8318TIP3    H246446   6.543   1.927   5.539  1.2880  1.2842  1.5727
 8319TIP3   OH246447   2.880   6.650  11.535  0.3919 -0.1434  0.8789
 8319TIP3    H146448   2.858   6.557  11.532  1.4107 -0.3653  0.0457
 8319TIP3    H246449   2.860   6.676  11.625  1.3540 -1.4808  1.5172
 8320TIP3   OH246450   1.613   5.933   5.628  0.6110  0.2744  0.4313
 8320TIP3    H146451   1.548   5.872   5.664  2.0729 -1.3077  0.4810
 8320TIP3    H246452   1.654   5.885   5.557  0.7292  1.8060 -0.5734
 8321TIP3   OH246453   2.563   3.046  13.091  0.1223 -0.0596  0.2949
 8321TIP3    H146454   2.609   3.069  13.010 -1.4203  0.8048 -0.3956
 8321TIP3    H246455   2.628   3.002  13.145  0.9573 -1.5230 -1.7902
 8322TIP3   OH246456   1.748   2.060   1.266 -0.6825 -0.2164  0.0979
 8322TIP3    H146457   1.697   2.129   1.224 -0.0497  0.1773 -0.0402
 8322TIP3    H246458   1.710   1.978   1.233  0.9518  0.0476 -2.7717
 8323TIP3   OH246459   4.447   3.219  13.383  0.2227  0.0687  0.0585
 8323TIP3    H146460   4.428   3.126  13.398  0.2867  0.1518  0.6781
 8323TIP3    H246461   4.466   3.254  13.470  1.6639  0.3296 -0.3308
 8324TIP3   OH246462   6.673   4.687  14.529 -0.4037 -0.4214 -0.0758
 8324TIP3    H146463   6.734   4.737  14.583 -0.3388 -2.8146  2.3084
 8324TIP3    H246464   6.718   4.678  14.445  2.3859 -1.5895  1.3809
 8325TIP3   OH246465   3.059   0.884   1.910  0.0251 -0.1509 -0.1426
 8325TIP3    H146466   3.151   0.866   1.928  0.4740  0.7012 -1.4372
 8325TIP3    H246467   3.058   0.973   1.875 -1.3719  0.0678  0.3632
 8326TIP3   OH246468   3.848   6.238  16.038 -0.1813 -0.3986  0.2081
 8326TIP3    H146469   3.902   6.249  15.960 -0.2649  0.6274  0.2881
 8326TIP3    H246470   3.767   6.198  16.005 -0.2584  0.1331 -0.2515
 8327TIP3   OH246471   4.768   2.547  12.283  0.3423 -0.5870  0.3149
 8327TIP3    H146472   4.862   2.526  12.290  0.8464  0.7897 -1.4480
 8327TIP3    H246473   4.760   2.632  12.325 -0.1060 -0.6700  0.3954
 8328TIP3   OH246474   0.796   2.959  16.747  0.2146 -0.4423 -0.3085
 8328TIP3    H146475   0.884   2.921  16.750  1.0431  1.3951  0.3141
 8328TIP3    H246476   0.785   2.988  16.657  0.7810  0.4650 -0.0942
 8329TIP3   OH246477   3.514   4.137   1.113  0.0716  0.0191 -0.1280
 8329TIP3    H146478   3.488   4.129   1.204  0.2530 -1.2469 -0.1797
 8329TIP3    H246479   3.609   4.148   1.116  0.2128 -1.0845 -0.1992
 8330TIP3   OH246480   5.653   3.915   6.284 -0.1469  0.2280  0.9252
 8330TIP3    H146481   5.637   3.858   6.359  1.1768 -0.5952  0.6289
 8330TIP3    H246482   5.636   4.003   6.316 -0.8517 -0.2139  1.8142
 8331TIP3   OH246483   2.296   5.178   6.517  0.5543  0.4019  0.1616
 8331TIP3    H146484   2.228   5.190   6.583  0.2864 -0.5291  0.0753
 8331TIP3    H246485   2.249   5.179   6.434  0.9204  1.8131 -0.0533
 8332TIP3   OH246486   1.091   3.667  14.006 -0.0696  0.7460  0.7456
 8332TIP3    H146487   1.021   3.672  13.940 -0.1019 -0.1864  0.6952
 8332TIP3    H246488   1.054   3.710  14.083 -1.3790 -1.1843  1.2847
 8333TIP3   OH246489   3.611   4.867  12.011 -0.2958  0.1264 -0.6859
 8333TIP3    H146490   3.546   4.797  12.005 -0.2310  0.0132 -0.1639
 8333TIP3    H246491   3.673   4.837  12.078  0.8296 -0.1939 -1.8211
 8334TIP3   OH246492   1.583   6.503   1.290  0.3956 -0.0374  0.3827
 8334TIP3    H146493   1.597   6.491   1.196  0.5830  0.0197  0.4023
 8334TIP3    H246494   1.669   6.528   1.324  0.5656 -1.0738  0.7356
 8335TIP3   OH246495   5.654   0.383  14.096  0.2527  0.0026  0.1403
 8335TIP3    H146496   5.665   0.415  14.185 -1.1184 -2.0415  1.1309
 8335TIP3    H246497   5.568   0.415  14.069 -0.8860 -2.1309  0.9360
 8336TIP3   OH246498   3.428   5.224   4.133  0.4816 -0.0917 -0.4958
 8336TIP3    H146499   3.439   5.274   4.215  0.8583 -0.1558 -0.5040
 8336TIP3    H246500   3.335   5.234   4.111 -0.0451 -1.5254  0.8665
 8337TIP3   OH246501   4.259   2.660  15.193  0.3609  0.9195  0.2122
 8337TIP3    H146502   4.255   2.580  15.246  2.0804  0.6007 -0.0817
 8337TIP3    H246503   4.321   2.639  15.123 -1.9131  1.2969 -2.0393
 8338TIP3   OH246504   4.278   1.309   1.657 -0.6067  0.3451 -0.0837
 8338TIP3    H146505   4.211   1.376   1.644  0.9638  2.1421  0.5061
 8338TIP3    H246506   4.256   1.268   1.740 -0.6665  1.3365  0.4043
 8339TIP3   OH246507   3.178   5.671   1.858  0.1419  0.7287  0.1019
 8339TIP3    H146508   3.201   5.633   1.943  0.4529  0.3027 -0.1666
 8339TIP3    H246509   3.260   5.670   1.808  0.4774  2.9930  0.5264
 8340TIP3   OH246510   2.676   5.229  10.777  0.0708  0.3979  0.4632
 8340TIP3    H146511   2.648   5.313  10.812  0.1470  1.6768 -2.2743
 8340TIP3    H246512   2.603   5.199  10.723  1.3183  0.5311 -1.4282
 8341TIP3   OH246513   3.351   0.755   0.517 -0.3872 -0.2656  0.2415
 8341TIP3    H146514   3.357   0.699   0.594  1.0898 -0.0986  0.2805
 8341TIP3    H246515   3.401   0.709   0.449 -1.3911 -0.2588 -0.5312
 8342TIP3   OH246516   6.076   6.770  12.096 -0.2723 -0.0987  0.2748
 8342TIP3    H146517   6.172   6.771  12.106  0.0420  0.5095 -2.2445
 8342TIP3    H246518   6.055   6.857  12.061 -1.8273 -0.0892  1.1479
 8343TIP3   OH246519   3.187   5.959   2.528 -0.0593 -0.3450  0.2173
 8343TIP3    H146520   3.254   6.012   2.570 -0.9122  0.6621  0.3372
 8343TIP3    H246521   3.142   5.915   2.601  2.7764 -4.0521  0.0491
 8344TIP3   OH246522   4.336   4.701   0.214 -0.3303 -0.5138  0.8524
 8344TIP3    H146523   4.380   4.779   0.182 -0.4356 -0.5253  0.6807
 8344TIP3    H246524   4.244   4.714   0.189 -0.7855  0.3686  2.7751
 8345TIP3   OH246525   6.119   5.393  14.871 -0.1506 -0.0940 -0.5411
 8345TIP3    H146526   6.118   5.456  14.799  0.6278  0.2240 -0.2826
 8345TIP3    H246527   6.073   5.437  14.942  0.4886  0.2323 -0.3252
 8346TIP3   OH246528   3.946   6.775   5.703 -0.4633 -0.5211  0.4305
 8346TIP3    H146529   4.001   6.759   5.626  0.4598  0.7964  0.7761
 8346TIP3    H246530   3.999   6.745   5.777  0.3976  1.8300  0.8800
 8347TIP3   OH246531   0.226   3.247   3.537 -0.1017 -0.0677 -0.1534
 8347TIP3    H146532   0.228   3.225   3.444 -0.8387 -1.1257  0.0643
 8347TIP3    H246533   0.234   3.162   3.582 -1.9641  0.1742  0.7258
 8348TIP3   OH246534   0.940   3.612  15.852  0.0331  0.3141 -0.8596
 8348TIP3    H146535   0.984   3.602  15.768 -1.0393  0.1737 -1.4324
 8348TIP3    H246536   0.920   3.523  15.880 -0.3267  0.3952 -0.8534
 8349TIP3   OH246537   6.291   1.442  13.676  0.2209  0.3826 -0.0119
 8349TIP3    H146538   6.225   1.416  13.613 -1.1417  1.4906  0.8992
 8349TIP3    H246539   6.372   1.404  13.643 -0.7000 -0.2611 -1.6357
 8350TIP3   OH246540   2.711   1.328   0.255 -0.5265  0.3652  0.0902
 8350TIP3    H146541   2.640   1.278   0.215 -0.2554  0.8548 -1.0476
 8350TIP3    H246542   2.786   1.316   0.196 -0.3316  1.7275  0.0129
 8351TIP3   OH246543   5.826   5.602   4.063 -0.0862 -0.3309 -0.0289
 8351TIP3    H146544   5.840   5.515   4.099  0.0498 -0.2132  0.2095
 8351TIP3    H246545   5.784   5.587   3.979 -0.4079 -0.6106  0.1798
 8352TIP3   OH246546   3.378   4.560  11.675  0.6309 -0.0444 -0.1965
 8352TIP3    H146547   3.450   4.623  11.684  0.2337  0.4113 -0.1047
 8352TIP3    H246548   3.330   4.590  11.598  0.8918 -0.7111 -0.6197
 8353TIP3   OH246549   6.712   3.744  11.846  0.1437  0.0245  0.1303
 8353TIP3    H146550   6.643   3.678  11.853 -1.4435  1.4335 -1.2556
 8353TIP3    H246551   6.700   3.799  11.924  1.2061 -1.0188  1.0715
 8354TIP3   OH246552   5.443   1.561  16.465 -0.5679  0.0310  0.3820
 8354TIP3    H146553   5.520   1.537  16.516 -0.0649 -0.8104 -0.7240
 8354TIP3    H246554   5.377   1.585  16.531 -0.2631 -1.9236  1.5009
 8355TIP3   OH246555   2.664   2.288   5.365  0.2532  0.1701 -0.5594
 8355TIP3    H146556   2.626   2.307   5.451 -1.7424 -0.7077 -1.1630
 8355TIP3    H246557   2.678   2.193   5.366  1.8316  0.3772 -0.6302
 8356TIP3   OH246558   0.137   3.376  11.583  0.5911 -0.0960 -0.2114
 8356TIP3    H146559   0.125   3.358  11.490  2.4002 -0.6838 -0.3690
 8356TIP3    H246560   0.143   3.471  11.588 -1.1590  0.0604 -0.4406
 8357TIP3   OH246561   6.400   5.402   2.631 -0.2074 -0.1581 -0.2369
 8357TIP3    H146562   6.396   5.477   2.573 -1.9471 -1.7216 -2.2977
 8357TIP3    H246563   6.477   5.419   2.686  0.0701  2.5785 -1.2967
 8358TIP3   OH246564   5.489   1.219  17.034  0.2550  0.1245  0.3409
 8358TIP3    H146565   5.420   1.207  17.099  1.3108 -0.5676  1.3769
 8358TIP3    H246566   5.568   1.186  17.077  1.5268  2.2261 -0.2778
 8359TIP3   OH246567   2.081   0.399   4.875  0.3994 -0.4057 -0.2364
 8359TIP3    H146568   2.006   0.349   4.843  0.5756 -0.8019 -0.0333
 8359TIP3    H246569   2.125   0.430   4.795 -0.9139  1.2676 -0.3726
 8360TIP3   OH246570   1.211   3.478   4.953  0.2627 -0.2615 -0.0652
 8360TIP3    H146571   1.184   3.454   4.864  2.0167 -0.4368 -0.6054
 8360TIP3    H246572   1.285   3.537   4.939  1.6148 -1.5616  1.2625
 8361TIP3   OH246573   2.453   3.005   1.821 -0.3244  0.6022  0.6705
 8361TIP3    H146574   2.479   3.094   1.795  0.6083  0.3990  0.8580
 8361TIP3    H246575   2.528   2.973   1.872  0.1617 -0.9573 -0.9097
 8362TIP3   OH246576   1.605   5.518  16.338 -0.4498 -0.0654  0.3082
 8362TIP3    H146577   1.532   5.580  16.347 -1.9549 -1.8943  1.7102
 8362TIP3    H246578   1.603   5.467  16.419  2.2916 -0.3482  0.2773
 8363TIP3   OH246579   4.613   6.007  12.612 -0.0662 -0.1694 -0.6512
 8363TIP3    H146580   4.624   5.983  12.704 -0.3186 -0.0626 -0.5919
 8363TIP3    H246581   4.610   5.923  12.565 -1.7142 -0.3055 -0.3618
 8364TIP3   OH246582   4.504   4.819  13.045  0.2248  0.3710  0.7204
 8364TIP3    H146583   4.545   4.748  13.094  0.3640  0.7803  1.1958
 8364TIP3    H246584   4.418   4.784  13.020  0.6228 -0.2723  0.2104
 8365TIP3   OH246585   4.780   6.692  12.607  0.5791  0.1985  0.0114
 8365TIP3    H146586   4.816   6.781  12.606 -0.5821  0.6969 -0.0655
 8365TIP3    H246587   4.819   6.649  12.532  1.0313  0.7036 -0.0513
 8366TIP3   OH246588   5.397   2.685   4.682 -0.5494 -0.2835  0.3829
 8366TIP3    H146589   5.440   2.637   4.611  0.9649  2.0914 -0.4329
 8366TIP3    H246590   5.443   2.659   4.761 -0.0323 -0.4813  0.0214
 8367TIP3   OH246591   3.159   1.011   5.670 -0.0229 -0.1193 -0.1866
 8367TIP3    H146592   3.161   1.082   5.607  0.6599  0.3512  0.3487
 8367TIP3    H246593   3.243   1.016   5.715 -1.0068  0.4002  1.6859
 8368TIP3   OH246594   3.728   3.363   3.385  0.7497 -0.1079  0.5422
 8368TIP3    H146595   3.654   3.421   3.374 -0.8617 -2.1597 -0.1597
 8368TIP3    H246596   3.689   3.276   3.397  3.0258 -1.3325 -0.2375
 8369TIP3   OH246597   5.702   0.722  12.478  0.1225  0.1795  0.0323
 8369TIP3    H146598   5.710   0.672  12.396  0.3394  0.7298 -0.2912
 8369TIP3    H246599   5.792   0.727  12.511  0.0118 -0.1774  0.3885
 8370TIP3   OH246600   6.027   5.956  15.358  0.3947  0.7053  0.8147
 8370TIP3    H146601   6.066   6.020  15.417 -0.1243 -1.2255  3.4173
 8370TIP3    H246602   5.934   5.957  15.380  0.2900 -0.4918  0.4897
 8371TIP3   OH246603   2.832   0.734   4.806  0.8327  0.3517 -0.7001
 8371TIP3    H146604   2.781   0.656   4.826 -0.9621  0.9924 -2.3830
 8371TIP3    H246605   2.867   0.718   4.719  0.4544  1.3880 -1.0590
 8372TIP3   OH246606   4.376   1.157   3.704  0.6165  0.1010 -0.2767
 8372TIP3    H146607   4.458   1.121   3.672  0.8926  1.6664 -1.4767
 8372TIP3    H246608   4.357   1.230   3.645 -1.2861  0.2165  0.3871
 8373TIP3   OH246609   0.819   6.365   5.845  0.5276 -0.2382  0.5565
 8373TIP3    H146610   0.791   6.430   5.780  0.8030 -0.8264 -0.1563
 8373TIP3    H246611   0.912   6.351   5.827  0.4444 -0.9142  0.6381
 8374TIP3   OH246612   5.569   3.927   4.667  0.2101 -0.3666 -0.3298
 8374TIP3    H146613   5.636   3.946   4.732 -0.3359 -0.6275  0.3202
 8374TIP3    H246614   5.561   3.831   4.668 -0.1894 -0.3368 -0.3739
 8375TIP3   OH246615   3.319   6.458   2.549 -0.1677 -0.1149 -0.5176
 8375TIP3    H146616   3.239   6.469   2.599  0.0077  0.6773 -0.3990
 8375TIP3    H246617   3.291   6.417   2.467 -0.6158 -0.3297 -0.2609
 8376TIP3   OH246618   3.209   0.215   5.988 -0.5010  0.0365  0.5286
 8376TIP3    H146619   3.244   0.148   6.047 -1.9848 -0.4892  0.8348
 8376TIP3    H246620   3.168   0.166   5.917  0.0209  0.6538 -0.2255
 8377TIP3   OH246621   6.474   3.947   2.302 -0.3933 -0.3062 -0.1495
 8377TIP3    H146622   6.469   3.987   2.388  0.7997 -0.5855  0.0733
 8377TIP3    H246623   6.387   3.958   2.264 -0.4154  1.4602  0.3528
 8378TIP3   OH246624   1.465   2.201  15.249 -0.2233 -0.3306  0.8957
 8378TIP3    H146625   1.459   2.106  15.243 -1.6369 -0.1727 -1.1651
 8378TIP3    H246626   1.553   2.218  15.282 -0.8576 -2.3736  4.1769
 8379TIP3   OH246627   1.908   0.450   6.004  0.1630 -0.7492 -0.6838
 8379TIP3    H146628   1.957   0.496   6.072 -0.3041  2.1515 -2.1286
 8379TIP3    H246629   1.820   0.440   6.041  0.3051 -0.5609 -0.2871
 8380TIP3   OH246630   4.450   4.204  13.484  0.4372  0.0657  0.5681
 8380TIP3    H146631   4.360   4.233  13.502  0.2884 -0.4546  0.6628
 8380TIP3    H246632   4.496   4.221  13.566 -0.0781 -1.6474  1.2476
 8381TIP3   OH246633   1.410   1.313   1.115  0.1727  0.2600 -0.1721
 8381TIP3    H146634   1.420   1.267   1.032  0.5122 -0.1184  0.0711
 8381TIP3    H246635   1.339   1.375   1.100 -0.9518 -0.9922 -0.2364
 8382TIP3   OH246636   2.651   1.299   2.264 -0.2887 -0.0331  0.6898
 8382TIP3    H146637   2.733   1.267   2.301  0.3952 -1.2868 -1.6975
 8382TIP3    H246638   2.676   1.375   2.211 -0.7086 -0.2196  0.2115
 8383TIP3   OH246639   5.826   0.576   4.515  0.0841  0.0356  0.1373
 8383TIP3    H146640   5.766   0.612   4.581  0.1380  0.4117 -0.0154
 8383TIP3    H246641   5.877   0.651   4.486  0.6545 -0.2945  0.2903
 8384TIP3   OH246642   6.549   5.227   0.671 -0.1008 -0.4818 -0.2446
 8384TIP3    H146643   6.576   5.319   0.677 -1.8503 -0.0235  2.0689
 8384TIP3    H246644   6.528   5.203   0.761 -0.2878 -2.9992 -0.8993
 8385TIP3   OH246645   5.224   1.910   4.613 -0.3615  0.6141  0.4410
 8385TIP3    H146646   5.168   1.882   4.541 -1.8646  1.8424  1.0856
 8385TIP3    H246647   5.245   2.001   4.594 -0.6448  0.9075  1.4697
 8386TIP3   OH246648   2.179   3.121  15.876 -0.1716 -0.1361  0.1210
 8386TIP3    H146649   2.201   3.209  15.846  1.1152  0.8214  3.4373
 8386TIP3    H246650   2.087   3.127  15.900 -0.1901  0.2031 -0.0230
 8387TIP3   OH246651   3.221   2.319   5.700 -0.2734  0.2627 -0.1285
 8387TIP3    H146652   3.302   2.367   5.680  0.7959 -1.2859  0.2485
 8387TIP3    H246653   3.170   2.379   5.754  1.2518  0.8123  0.7678
 8388TIP3   OH246654   0.108   5.164   0.197 -0.1085 -0.5103  0.1495
 8388TIP3    H146655   0.047   5.106   0.151 -0.4551  0.0338 -0.0875
 8388TIP3    H246656   0.078   5.252   0.176 -0.9694 -0.2300  2.3000
 8389TIP3   OH246657   6.341   3.287  10.388  0.1325  0.4005  0.1825
 8389TIP3    H146658   6.419   3.314  10.437 -0.5203  2.3089  0.2318
 8389TIP3    H246659   6.311   3.208  10.433  0.8854  0.7805  1.4054
 8390TIP3   OH246660   6.804   0.568  13.428  0.1428 -0.2954  0.1338
 8390TIP3    H146661   6.775   0.569  13.519 -0.6066 -0.0056 -0.1013
 8390TIP3    H246662   6.769   0.487  13.392 -0.2138 -0.0428 -0.0972
 8391TIP3   OH246663   0.449   5.766   3.036 -0.6065  0.2204 -0.1010
 8391TIP3    H146664   0.491   5.685   3.065 -1.1681 -0.3134 -0.7464
 8391TIP3    H246665   0.512   5.835   3.059  0.0866 -0.4362  0.0234
 8392TIP3   OH246666   2.700   1.458   5.475  0.0430  0.4380  0.0467
 8392TIP3    H146667   2.710   1.365   5.458 -0.3281  0.2781  0.6712
 8392TIP3    H246668   2.610   1.478   5.451  0.5517  0.9790 -1.5586
 8393TIP3   OH246669   6.029   4.988   3.727 -0.3631  0.4826  0.3294
 8393TIP3    H146670   6.076   4.983   3.644  0.0871  1.8660  0.4831
 8393TIP3    H246671   6.097   4.989   3.793 -0.6922  0.2202  0.6729
 8394TIP3   OH246672   0.062   6.012   3.098 -0.3165 -0.3709  0.0246
 8394TIP3    H146673   0.068   6.008   3.003 -0.2407 -0.7877  0.0425
 8394TIP3    H246674  -0.031   6.006   3.117 -0.2835 -1.0284  0.0007
 8395TIP3   OH246675   1.678   0.260   5.428 -0.2998  0.1880 -0.2871
 8395TIP3    H146676   1.665   0.354   5.417 -0.1334  0.3726  1.0077
 8395TIP3    H246677   1.608   0.220   5.375 -0.8605  1.0471 -0.2076
 8396TIP3   OH246678   1.706   1.259   4.803 -0.3641 -0.1010 -0.1321
 8396TIP3    H146679   1.622   1.214   4.795  0.0656 -0.9804  0.1691
 8396TIP3    H246680   1.770   1.197   4.767  0.3005  0.0384  0.7596
 8397TIP3   OH246681   2.469   1.510  10.660 -0.2924 -0.0322 -0.1730
 8397TIP3    H146682   2.474   1.510  10.565  0.9167 -0.3801 -0.1262
 8397TIP3    H246683   2.453   1.601  10.683  0.2759  0.2003 -0.6796
 8398TIP3   OH246684   0.579   5.903  13.934  0.1488  0.8585  0.6805
 8398TIP3    H146685   0.485   5.891  13.920  0.3831  1.1824 -1.4832
 8398TIP3    H246686   0.611   5.816  13.957 -0.4920  0.4715  0.1518
 8399TIP3   OH246687   3.939   0.768   4.213  0.1924  0.7934  0.1710
 8399TIP3    H146688   3.988   0.801   4.288 -1.5096  0.3747  1.5180
 8399TIP3    H246689   4.006   0.731   4.155  1.4126 -0.3912  2.2290
 8400TIP3   OH246690   3.963   5.948   2.448 -0.4131  0.1160 -0.1996
 8400TIP3    H146691   3.872   5.935   2.421 -0.1297 -1.3835 -0.5497
 8400TIP3    H246692   3.968   6.040   2.475 -1.3386  1.0256 -2.8145
 8401TIP3   OH246693   3.492   0.936   2.378 -0.1246 -0.4910 -0.2053
 8401TIP3    H146694   3.553   0.871   2.413  1.1171 -1.0533 -3.1314
 8401TIP3    H246695   3.405   0.905   2.406  0.7086 -0.9622  2.0721
 8402TIP3   OH246696   1.557   4.635   4.702  0.2549 -0.6462 -0.1880
 8402TIP3    H146697   1.593   4.667   4.785 -0.2842 -1.0401  0.2010
 8402TIP3    H246698   1.531   4.715   4.655 -0.5774 -0.4637  0.5502
 8403TIP3   OH246699   1.537   5.292   1.388 -0.1139  0.6890  0.2040
 8403TIP3    H146700   1.556   5.381   1.360 -1.3643  0.7264 -0.6110
 8403TIP3    H246701   1.545   5.294   1.484  0.9900  1.3737  0.1072
 8404TIP3   OH246702   2.304   4.889   3.749  0.8214 -0.2169 -0.5749
 8404TIP3    H146703   2.380   4.866   3.694  0.5114  0.1471 -1.1701
 8404TIP3    H246704   2.321   4.845   3.832  0.8954 -1.4851 -1.2305
 8405TIP3   OH246705   4.241   1.013   0.028 -0.0032 -0.0550  0.0619
 8405TIP3    H146706   4.336   1.026   0.021 -0.2918  1.7357 -1.0225
 8405TIP3    H246707   4.229   0.919   0.019  1.7679 -0.4805  1.5494
 8406TIP3   OH246708   3.004   4.935  14.638  0.4608 -0.1820  0.5143
 8406TIP3    H146709   2.927   4.926  14.693 -0.3401 -0.1733 -0.5621
 8406TIP3    H246710   3.061   4.996  14.685 -1.8526  2.9315 -0.3776
 8407TIP3   OH246711   0.412   2.796   2.884  0.1235  0.3547 -0.4362
 8407TIP3    H146712   0.472   2.744   2.830  1.3175  2.3116 -1.0620
 8407TIP3    H246713   0.326   2.785   2.841  0.0100 -2.1495  0.2425
 8408TIP3   OH246714   4.838   3.749  13.036 -0.3927 -0.8266 -0.2972
 8408TIP3    H146715   4.829   3.841  13.059 -1.3383 -1.0126  0.0925
 8408TIP3    H246716   4.804   3.701  13.111 -0.0083 -1.5004 -0.5396
 8409TIP3   OH246717   2.782   5.507  12.221 -0.7526 -0.0079 -0.3137
 8409TIP3    H146718   2.728   5.551  12.286  0.4185  1.3692 -0.2299
 8409TIP3    H246719   2.811   5.576  12.162 -0.9014 -1.0639 -1.6916
 8410TIP3   OH246720   6.562   5.055   5.733 -0.1918 -0.0046  0.0936
 8410TIP3    H146721   6.525   5.114   5.800 -4.5888 -0.9602 -1.1447
 8410TIP3    H246722   6.568   5.110   5.654  1.6738  0.2580  0.3908
 8411TIP3   OH246723   6.343   0.402  15.338  0.1305  0.4971 -0.2633
 8411TIP3    H146724   6.329   0.339  15.267  0.0588 -0.7180  0.7925
 8411TIP3    H246725   6.303   0.483  15.307 -0.7245 -0.2742 -1.2278
 8412TIP3   OH246726   6.512   4.667   4.284  0.3192  0.6869  0.5670
 8412TIP3    H146727   6.521   4.725   4.360  1.0544  1.5526 -0.1648
 8412TIP3    H246728   6.439   4.609   4.307 -0.1520  1.6206  1.4940
 8413TIP3   OH246729   2.559   1.421   1.991  0.4186 -0.0567  0.1043
 8413TIP3    H146730   2.596   1.472   2.062 -0.3293  0.0162  0.4452
 8413TIP3    H246731   2.466   1.442   1.991  0.6895  1.5527 -2.2160
 8414TIP3   OH246732   2.587   5.996  12.032 -0.0706  0.0235  0.0228
 8414TIP3    H146733   2.531   5.919  12.019  0.3839 -0.2972 -0.0907
 8414TIP3    H246734   2.671   5.959  12.060  0.5348  0.3867 -1.2327
 8415TIP3   OH246735   4.229   2.546  11.523  0.1959 -0.3477 -0.2637
 8415TIP3    H146736   4.196   2.499  11.447 -0.3411 -2.1777  1.0343
 8415TIP3    H246737   4.178   2.512  11.597  1.4217  0.5697  1.0757
 8416TIP3   OH246738   6.550   5.988  12.593 -0.3411  0.4971 -0.3693
 8416TIP3    H146739   6.559   5.908  12.645 -1.4478 -0.4532 -1.5798
 8416TIP3    H246740   6.639   6.022  12.586 -0.0344  0.1501  1.3344
 8417TIP3   OH246741   3.655   5.071  15.735 -0.4332  0.0174 -0.1919
 8417TIP3    H146742   3.663   5.010  15.662  0.8221  0.9650 -0.8790
 8417TIP3    H246743   3.723   5.046  15.796 -1.9690 -1.2639  1.0828
 8418TIP3   OH246744   5.080   0.159   1.110 -0.0917 -0.2551  0.1145
 8418TIP3    H146745   5.088   0.115   1.025  2.6048  0.4825 -0.1241
 8418TIP3    H246746   5.049   0.091   1.170 -0.9026 -1.0943 -1.2010
 8419TIP3   OH246747   5.245   5.400  14.998 -0.5258 -0.2984 -0.3777
 8419TIP3    H146748   5.314   5.379  14.935  0.2317  1.5474 -0.2322
 8419TIP3    H246749   5.281   5.472  15.050 -1.3861 -1.3288  1.7702
 8420TIP3   OH246750   6.065   3.882   6.128 -0.0454 -0.1183 -0.3169
 8420TIP3    H146751   6.100   3.846   6.046 -0.9293 -0.3560 -0.6026
 8420TIP3    H246752   6.135   3.869   6.192  0.6519  0.0563 -1.0274
 8421TIP3   OH246753   5.928   5.401  14.403 -0.2115 -0.1893 -0.5319
 8421TIP3    H146754   6.000   5.457  14.371 -0.9184  1.4279  0.5635
 8421TIP3    H246755   5.856   5.418  14.342  0.2265 -1.6734 -1.5225
 8422TIP3   OH246756   0.382   5.185   4.192  0.6772 -0.3538  0.5827
 8422TIP3    H146757   0.391   5.251   4.124  1.6388  0.7007  1.6876
 8422TIP3    H246758   0.303   5.136   4.168  0.3015  0.7784 -0.6011
 8423TIP3   OH246759   0.747   2.501   3.735  0.4507 -0.2647  0.3196
 8423TIP3    H146760   0.805   2.556   3.787  0.9999 -0.3124 -0.2383
 8423TIP3    H246761   0.659   2.535   3.753  0.8353  1.3783 -0.6625
 8424TIP3   OH246762   2.876   6.334  16.727 -0.7405 -0.7848  0.2440
 8424TIP3    H146763   2.952   6.315  16.671 -1.6341  0.1734 -1.3657
 8424TIP3    H246764   2.802   6.293  16.682 -1.3683 -0.6614  1.1407
 8425TIP3   OH246765   6.599   1.969   6.625  0.5490  0.3765  0.1299
 8425TIP3    H146766   6.655   1.906   6.580 -0.3987  1.8172 -3.3856
 8425TIP3    H246767   6.654   2.002   6.696  2.2615 -1.8846 -0.0089
 8426TIP3   OH246768   5.766   5.892  15.439  0.0066 -0.7696  0.9504
 8426TIP3    H146769   5.713   5.970  15.423  3.6801  1.8742  0.3087
 8426TIP3    H246770   5.750   5.870  15.531  0.7503  2.4233  1.9461
 8427TIP3   OH246771   0.826   6.593  12.723  0.0146 -0.0626 -0.2967
 8427TIP3    H146772   0.770   6.628  12.654  0.1239 -1.0909 -0.9289
 8427TIP3    H246773   0.765   6.551  12.784  0.1123 -2.2059 -1.5787
 8428TIP3   OH246774   4.899   2.578   2.230 -0.1224 -0.1483 -0.1899
 8428TIP3    H146775   4.821   2.597   2.178 -0.9387  0.0839  1.0720
 8428TIP3    H246776   4.867   2.573   2.320  1.2669 -0.4279  0.3117
 8429TIP3   OH246777   1.316   1.632   4.008 -0.6678 -0.0993 -0.0487
 8429TIP3    H146778   1.255   1.641   3.935 -0.6793  1.1786  0.1009
 8429TIP3    H246779   1.269   1.668   4.083  0.7895  2.3859 -0.2244
 8430TIP3   OH246780   0.900   1.151  14.643 -0.1338 -0.1498 -0.6791
 8430TIP3    H146781   0.991   1.178  14.645 -0.1142 -0.2167 -0.6738
 8430TIP3    H246782   0.854   1.218  14.694  0.2332 -1.3548  1.3361
 8431TIP3   OH246783   2.125   0.271   2.818 -0.2839 -0.3475 -0.1281
 8431TIP3    H146784   2.112   0.295   2.910  2.3208  0.0031  0.2345
 8431TIP3    H246785   2.058   0.205   2.801 -0.5352 -0.7919  2.1831
 8432TIP3   OH246786   2.600   1.052   6.673  0.0424 -0.1102  0.0313
 8432TIP3    H146787   2.584   1.059   6.767 -0.3284 -1.1040  0.0618
 8432TIP3    H246788   2.516   1.022   6.637 -0.3122  1.8316 -0.8470
 8433TIP3   OH246789   5.294   1.771   3.963  1.0199  0.4775  0.4542
 8433TIP3    H146790   5.249   1.851   3.990  1.2941  0.9068 -0.3463
 8433TIP3    H246791   5.378   1.801   3.928  0.8697 -0.1095 -0.4310
 8434TIP3   OH246792   1.271   2.473   2.637  0.0869  0.5074 -0.4628
 8434TIP3    H146793   1.283   2.520   2.720  2.2316  1.4802 -1.2586
 8434TIP3    H246794   1.275   2.381   2.661 -1.8285  0.6956  0.8075
 8435TIP3   OH246795   5.879   2.409  11.717 -0.2827 -0.1807 -1.0095
 8435TIP3    H146796   5.797   2.424  11.670 -1.3058  0.5456  0.8939
 8435TIP3    H246797   5.895   2.491  11.763  1.6929 -0.2121 -1.5708
 8436TIP3   OH246798   5.883   2.445  13.725  0.2979  0.5690  0.3882
 8436TIP3    H146799   5.855   2.366  13.770 -1.3457  1.2496  0.6274
 8436TIP3    H246800   5.849   2.436  13.636  1.6697  0.2180 -0.1360
 8437TIP3   OH246801   1.786   5.568  15.706  0.3075 -0.5829  0.3099
 8437TIP3    H146802   1.717   5.558  15.640  1.1768  1.0984 -0.9116
 8437TIP3    H246803   1.797   5.480  15.741  0.6693 -1.8569 -2.6790
 8438TIP3   OH246804   3.047   0.654  14.482 -0.0758  0.1011  0.2621
 8438TIP3    H146805   2.974   0.716  14.477 -0.6438 -0.5919 -0.2590
 8438TIP3    H246806   3.120   0.706  14.518 -0.7269  0.8828  0.4907
 8439TIP3   OH246807   0.699   4.293   1.725  0.3645  0.1565 -0.2698
 8439TIP3    H146808   0.791   4.270   1.740 -0.5424 -2.4903  2.1957
 8439TIP3    H246809   0.664   4.312   1.813 -1.4277  1.2481 -1.1586
 8440TIP3   OH246810   4.390   5.927   3.785 -0.1822  0.3979  0.0512
 8440TIP3    H146811   4.360   5.840   3.812  0.8598 -0.4128 -1.2545
 8440TIP3    H246812   4.338   5.988   3.837 -1.2588 -0.9975  0.6776
 8441TIP3   OH246813   0.769   4.883  17.057  0.1297 -0.2452 -0.4048
 8441TIP3    H146814   0.751   4.971  17.024  2.7404  1.1841  1.5206
 8441TIP3    H246815   0.755   4.890  17.152 -1.4362 -2.4924 -0.4031
 8442TIP3   OH246816   0.365   6.207  12.038  0.0701 -0.3886  0.0237
 8442TIP3    H146817   0.304   6.134  12.052  1.1023 -1.2634  0.0727
 8442TIP3    H246818   0.442   6.167  11.999  0.0836  0.9304 -1.3812
 8443TIP3   OH246819   6.736   6.728  16.611 -0.4228  0.2738 -0.2282
 8443TIP3    H146820   6.766   6.637  16.621 -0.2540  0.1053 -2.0424
 8443TIP3    H246821   6.780   6.775  16.682 -0.8300 -1.1105  1.0054
 8444TIP3   OH246822   5.525   4.435  15.197 -0.3999  0.1100  0.1158
 8444TIP3    H146823   5.596   4.452  15.135 -0.2051  0.4087  0.4172
 8444TIP3    H246824   5.449   4.479  15.159 -0.4869 -0.4233 -0.3339
 8445TIP3   OH246825   5.305   3.170  13.423 -0.2465  0.4558 -0.3986
 8445TIP3    H146826   5.375   3.236  13.419  0.6053 -0.3045  1.0184
 8445TIP3    H246827   5.253   3.195  13.500 -0.2767 -0.1784 -0.2067
 8446TIP3   OH246828   0.578   6.294  14.199  0.7432  0.8254  0.0180
 8446TIP3    H146829   0.652   6.237  14.221  0.3254  0.0861 -0.4502
 8446TIP3    H246830   0.572   6.289  14.103  1.5526  2.7520 -0.1763
 8447TIP3   OH246831   2.764   4.927  16.386 -0.6669 -0.1578  0.1625
 8447TIP3    H146832   2.791   5.014  16.358  0.2090 -0.5181 -0.1684
 8447TIP3    H246833   2.727   4.887  16.308 -1.1098 -0.0655  0.3253
 8448TIP3   OH246834   4.268   1.998  16.685  0.1726  0.0392 -0.2318
 8448TIP3    H146835   4.176   1.995  16.711 -0.3693 -1.8599 -2.0636
 8448TIP3    H246836   4.309   2.055  16.749 -1.5225 -2.1139  3.0812
 8449TIP3   OH246837   2.251   2.373  16.718  0.3121 -0.5552 -0.2728
 8449TIP3    H146838   2.251   2.350  16.811 -2.1947  1.5013  0.3421
 8449TIP3    H246839   2.318   2.440  16.709 -0.4097  0.2829  0.4027
 8450TIP3   OH246840   6.770   6.653   6.098 -0.3766 -0.4654 -0.4116
 8450TIP3    H146841   6.849   6.620   6.141  1.3741  0.8892 -2.3949
 8450TIP3    H246842   6.751   6.735   6.143 -0.7463 -0.8386  0.1299
 8451TIP3   OH246843   5.005   0.320   3.656  0.0699 -0.3657  0.1356
 8451TIP3    H146844   5.031   0.231   3.679 -0.8618 -0.1188  2.4223
 8451TIP3    H246845   4.918   0.312   3.618 -0.6657 -0.3470  1.7435
 8452TIP3   OH246846   6.788   1.006  15.454  0.0156  0.2482 -0.0424
 8452TIP3    H146847   6.770   1.063  15.529 -0.2839  0.9047 -0.6039
 8452TIP3    H246848   6.823   0.926  15.493 -1.9369 -0.1881  0.9630
 8453TIP3   OH246849   1.212   3.734   4.081  0.5218 -0.1246 -0.0448
 8453TIP3    H146850   1.139   3.796   4.083  0.6241 -0.0267  0.9417
 8453TIP3    H246851   1.198   3.684   4.000  0.5535  1.2954 -0.9579
 8454TIP3   OH246852   3.434   1.483  16.490 -0.8323  0.6224 -0.3704
 8454TIP3    H146853   3.433   1.406  16.433 -0.3425  0.6409 -0.4130
 8454TIP3    H246854   3.518   1.476  16.537 -0.5992  1.3440 -0.6769
 8455TIP3   OH246855   3.074   4.722   2.605 -0.0188 -0.3899  0.3048
 8455TIP3    H146856   3.083   4.649   2.666 -0.9080 -0.5835  0.2139
 8455TIP3    H246857   2.980   4.734   2.594  0.0834  1.1762  0.8010
 8456TIP3   OH246858   5.831   5.989   3.903  0.1422  0.2119 -0.0015
 8456TIP3    H146859   5.757   5.989   3.842  0.9107 -0.6219 -0.9696
 8456TIP3    H246860   5.847   6.082   3.921  0.3795  0.5290 -1.6906
 8457TIP3   OH246861   1.356   2.803   2.979 -0.3945 -0.0403  0.6104
 8457TIP3    H146862   1.285   2.826   3.039  0.7525  0.4224  1.8558
 8457TIP3    H246863   1.435   2.805   3.034  0.6652  0.0990 -0.8527
 8458TIP3   OH246864   6.781   0.547  11.207 -0.3416  0.3082 -0.0717
 8458TIP3    H146865   6.779   0.495  11.287 -1.7909 -1.3390 -1.1068
 8458TIP3    H246866   6.841   0.499  11.149 -0.1102  0.9155 -0.3426
 8459TIP3   OH246867   0.540   5.211   2.713 -0.1651 -0.3418  0.0029
 8459TIP3    H146868   0.466   5.196   2.772 -0.1577  0.8443  0.3579
 8459TIP3    H246869   0.577   5.295   2.743 -0.8723  0.9155 -2.3796
 8460TIP3   OH246870   6.030   3.574  14.941 -0.2871 -0.2041 -0.6471
 8460TIP3    H146871   5.995   3.497  14.988  0.8950 -0.3819 -0.0310
 8460TIP3    H246872   6.117   3.586  14.977  0.3902  0.1008 -2.3157
 8461TIP3   OH246873   3.339   6.446  14.777  0.9681  0.2302  0.3554
 8461TIP3    H146874   3.249   6.477  14.787  1.4676  1.3548  1.6819
 8461TIP3    H246875   3.334   6.352  14.795 -0.3406 -0.3088 -2.2997
 8462TIP3   OH246876   1.687   5.677  14.544  0.1602 -0.1076 -0.3421
 8462TIP3    H146877   1.675   5.583  14.532 -0.4436 -0.0331 -0.3159
 8462TIP3    H246878   1.646   5.696  14.628  1.1782  0.0095  0.1510
 8463TIP3   OH246879   0.906   4.864   3.990  0.6644 -0.1089 -0.0412
 8463TIP3    H146880   0.934   4.943   4.035  0.6615 -0.2860  0.2726
 8463TIP3    H246881   0.928   4.793   4.050  1.2332 -0.3965 -0.5840
 8464TIP3   OH246882   3.610   2.464   2.244 -0.2821 -0.1420 -0.1247
 8464TIP3    H146883   3.650   2.551   2.240  0.6256 -0.2776  2.9209
 8464TIP3    H246884   3.523   2.479   2.283 -0.7873 -0.4583 -1.1054
 8465TIP3   OH246885   0.829   2.686   0.154 -0.1785 -0.2806  0.8787
 8465TIP3    H146886   0.783   2.611   0.192 -0.0943 -0.2079  1.1293
 8465TIP3    H246887   0.761   2.735   0.109  0.1768 -1.8823 -1.5785
 8466TIP3   OH246888   2.004   0.286   0.777 -0.4829 -0.5250  0.4499
 8466TIP3    H146889   1.937   0.227   0.744 -1.0211  0.6092 -0.5828
 8466TIP3    H246890   2.085   0.255   0.736 -0.3828 -1.7669  1.5285
 8467TIP3   OH246891   5.915   3.889  14.569 -0.3820  0.0363 -0.6965
 8467TIP3    H146892   5.905   3.958  14.504 -1.6886 -1.2386 -1.9088
 8467TIP3    H246893   5.855   3.820  14.541  1.9187 -2.2633 -0.4075
 8468TIP3   OH246894   0.185   3.553  11.327  0.0226 -0.0745 -0.3590
 8468TIP3    H146895   0.277   3.573  11.345  0.0799  1.6355 -2.2022
 8468TIP3    H246896   0.187   3.498  11.248 -0.5160 -1.2424  0.4042
 8469TIP3   OH246897   6.114   6.715   2.022  1.0423  0.3491  0.7428
 8469TIP3    H146898   6.022   6.691   2.038  1.4824 -2.2678 -0.1802
 8469TIP3    H246899   6.109   6.799   1.977 -1.0447 -0.4198 -0.6256
 8470TIP3   OH246900   1.760   1.033  11.473  0.5245 -0.0856 -0.4663
 8470TIP3    H146901   1.776   1.024  11.567 -0.4604 -0.8928 -0.3579
 8470TIP3    H246902   1.713   0.953  11.449 -0.2955  0.6447 -1.4022
 8471TIP3   OH246903   1.008   2.540   6.147 -0.3336 -0.4151  0.5212
 8471TIP3    H146904   0.951   2.570   6.076  0.4189  0.6977  0.3657
 8471TIP3    H246905   1.080   2.496   6.102 -0.4550 -0.7503  0.6550
 8472TIP3   OH246906   3.773   6.642  13.912  0.6676 -0.9027  0.2462
 8472TIP3    H146907   3.843   6.579  13.891  2.0093 -0.0406  1.8367
 8472TIP3    H246908   3.743   6.616  13.999  0.8980  0.3197  0.7126
 8473TIP3   OH246909   3.253   0.264  14.520 -0.2439  0.4407  0.0009
 8473TIP3    H146910   3.192   0.198  14.551  2.0884 -1.7688  0.2344
 8473TIP3    H246911   3.260   0.247  14.426 -1.0060  1.6290 -0.2944
 8474TIP3   OH246912   4.344   5.979  11.304  0.5081 -0.1102  0.0160
 8474TIP3    H146913   4.319   5.937  11.222  3.6638  0.6107 -1.4664
 8474TIP3    H246914   4.367   6.069  11.280  3.4702 -0.4246  1.2041
 8475TIP3   OH246915   2.079   2.209  12.707 -0.0568  0.3546 -0.1889
 8475TIP3    H146916   2.020   2.154  12.758  0.9671 -0.1812  0.4462
 8475TIP3    H246917   2.083   2.291  12.756 -1.7516  1.1386 -1.2469
 8476TIP3   OH246918   4.225   5.880  11.057 -0.0087  0.2609  0.9054
 8476TIP3    H146919   4.192   5.965  11.030 -0.7762  0.2198  1.6806
 8476TIP3    H246920   4.204   5.821  10.984  0.0921  0.6329  0.5749
 8477TIP3   OH246921   2.158   5.321  14.133 -0.0755  0.5413 -0.5925
 8477TIP3    H146922   2.176   5.241  14.083 -0.1994 -1.0479  1.7451
 8477TIP3    H246923   2.082   5.360  14.088 -0.0430 -0.6546 -1.7583
 8478TIP3   OH246924   0.921   6.317   5.500  0.4989  0.4531 -0.0806
 8478TIP3    H146925   0.924   6.338   5.406  0.4125 -1.2905 -0.5098
 8478TIP3    H246926   0.843   6.263   5.510  0.4386  0.7165  1.0450
 8479TIP3   OH246927   5.683   0.678  13.318  0.3126 -0.1024  0.7092
 8479TIP3    H146928   5.730   0.606  13.276 -1.9044 -2.2205  1.5970
 8479TIP3    H246929   5.636   0.721  13.246  0.1822 -0.7740  0.3754
 8480TIP3   OH246930   0.856   0.631   6.017 -0.1207  0.0330 -0.1779
 8480TIP3    H146931   0.907   0.684   6.078 -0.7055  1.3025 -0.7496
 8480TIP3    H246932   0.922   0.587   5.963  0.3822 -0.2785  0.6746
 8481TIP3   OH246933   6.284   2.811   4.850  0.0337 -0.4823  0.1507
 8481TIP3    H146934   6.225   2.758   4.797  0.9105 -0.8922 -0.4402
 8481TIP3    H246935   6.244   2.898   4.852 -2.2963 -1.4823  2.4844
 8482TIP3   OH246936   4.314   0.616  14.716 -0.1289  0.0636 -0.8541
 8482TIP3    H146937   4.242   0.637  14.776  0.4742  0.3035 -0.1989
 8482TIP3    H246938   4.317   0.520  14.716  0.1185  0.0649 -0.1820
 8483TIP3   OH246939   5.827   3.895   4.062  0.0260  0.0020  0.1297
 8483TIP3    H146940   5.832   3.899   4.157  0.5203 -2.3980  0.2837
 8483TIP3    H246941   5.786   3.810   4.044 -1.4965  1.0584 -1.8096
 8484TIP3   OH246942   0.980   5.289  15.146  0.5048  0.4665 -0.2419
 8484TIP3    H146943   0.924   5.214  15.167 -1.0083  1.2100 -1.3944
 8484TIP3    H246944   1.063   5.270  15.190 -0.0232 -1.5824  0.0051
 8485TIP3   OH246945   6.185   1.788  15.428 -0.3519  0.0265 -0.6190
 8485TIP3    H146946   6.123   1.770  15.358 -2.0796  1.4674  0.4612
 8485TIP3    H246947   6.152   1.739  15.503  1.9691 -2.2435 -0.9087
 8486TIP3   OH246948   4.704   4.164   3.422  0.2854 -0.4450 -0.1805
 8486TIP3    H146949   4.631   4.213   3.460 -0.3055  0.3105 -2.1957
 8486TIP3    H246950   4.670   4.075   3.412 -0.1127 -0.2679 -0.4395
 8487TIP3   OH246951   4.989   5.086  15.202 -1.0312  0.4328  0.9048
 8487TIP3    H146952   5.073   5.118  15.235 -0.4387 -0.5612  0.4316
 8487TIP3    H246953   4.940   5.061  15.281 -0.6259  0.4189  1.1539
 8488TIP3   OH246954   5.820   3.533  14.002 -0.7861  0.1579 -0.2748
 8488TIP3    H146955   5.883   3.504  13.935 -0.7313  1.2594 -0.7259
 8488TIP3    H246956   5.750   3.575  13.952 -1.9379 -1.0943  0.2234
 8489TIP3   OH246957   4.657   1.914  14.632 -0.8061  0.0821 -0.1977
 8489TIP3    H146958   4.744   1.940  14.602 -0.6252 -1.9529 -1.6558
 8489TIP3    H246959   4.598   1.937  14.560 -0.8549 -1.9984 -0.8746
 8490TIP3   OH246960   3.823   5.579  12.919  0.2211  0.1461  0.3578
 8490TIP3    H146961   3.895   5.519  12.935  2.3603  2.1664 -1.0612
 8490TIP3    H246962   3.820   5.634  12.998  1.3007  1.0234 -0.1861
 8491TIP3   OH246963   1.674   3.282  15.963  0.0460  0.6419  0.5455
 8491TIP3    H146964   1.650   3.210  15.905  2.9102  0.4045 -0.5186
 8491TIP3    H246965   1.674   3.243  16.050 -0.1060 -0.1704  0.1937
 8492TIP3   OH246966   3.898   5.267   0.842  0.1496  0.7978  0.2939
 8492TIP3    H146967   3.901   5.274   0.938 -0.5842  0.1692  0.3744
 8492TIP3    H246968   3.975   5.215   0.819  1.6789  2.9390  0.3079
 8493TIP3   OH246969   3.853   5.872  15.222 -0.3550  0.1083 -0.6163
 8493TIP3    H146970   3.845   5.966  15.203 -0.4025  0.4314  0.8695
 8493TIP3    H246971   3.940   5.864  15.262 -2.1741  0.4681  3.9711
 8494TIP3   OH246972   4.886   2.936   4.780 -0.1562 -0.5067 -0.3831
 8494TIP3    H146973   4.972   2.898   4.764  0.4817  0.2304  1.2047
 8494TIP3    H246974   4.901   3.030   4.782 -0.7597 -0.4254  1.1764
 8495TIP3   OH246975   5.760   2.851   4.394  0.2065  0.0422 -0.1764
 8495TIP3    H146976   5.734   2.927   4.445  0.2617  0.1096 -0.2465
 8495TIP3    H246977   5.792   2.888   4.311 -0.7958 -0.1188 -0.6525
 8496TIP3   OH246978   2.806   6.600  15.920  0.2716 -0.2047 -0.5367
 8496TIP3    H146979   2.876   6.556  15.968 -0.2263 -1.6040 -1.0265
 8496TIP3    H246980   2.836   6.691  15.911  1.2567 -0.3858  0.6802
 8497TIP3   OH246981   5.308   0.099  12.777  0.2978 -0.2831 -0.3070
 8497TIP3    H146982   5.377   0.165  12.765 -0.6510  0.7597 -0.2584
 8497TIP3    H246983   5.275   0.083  12.688  1.1306 -1.3970 -0.4331
 8498TIP3   OH246984   3.398   1.754  16.914  0.4167 -0.2533 -0.3398
 8498TIP3    H146985   3.410   1.685  16.848 -0.5124 -0.2139 -0.5751
 8498TIP3    H246986   3.378   1.832  16.863  3.4879  0.7485 -0.1859
 8499TIP3   OH246987   4.106   1.619  11.300 -0.4445 -0.1574  0.3174
 8499TIP3    H146988   4.097   1.572  11.383  0.2456 -2.1396 -0.6669
 8499TIP3    H246989   4.072   1.558  11.234 -1.7071  1.6645 -0.8192
 8500TIP3   OH246990   0.765   0.724   1.066 -0.4946  0.0803  0.3210
 8500TIP3    H146991   0.813   0.780   1.005 -1.3521  0.7144  0.2086
 8500TIP3    H246992   0.791   0.635   1.043  0.2675  0.3920 -0.0401
 8501TIP3   OH246993   4.553   0.359   0.929 -0.2347  0.1208 -0.0762
 8501TIP3    H146994   4.562   0.297   1.001  1.1242  1.9778  1.4733
 8501TIP3    H246995   4.459   0.370   0.917 -0.5524 -2.7094 -0.9251
 8502TIP3   OH246996   5.741   5.370   2.435 -0.2717 -0.0998 -0.2039
 8502TIP3    H146997   5.699   5.332   2.513 -0.5118  0.4225 -0.0769
 8502TIP3    H246998   5.805   5.304   2.408 -2.0449 -1.5234 -1.1714
 8503TIP3   OH246999   6.777   2.210  12.432  0.3873 -0.3537  0.2835
 8503TIP3    H147000   6.685   2.190  12.451 -0.4725  1.9375 -1.0679
 8503TIP3    H247001   6.778   2.229  12.338  1.8529  1.5157  0.6223
 8504TIP3   OH247002   0.130   2.628   4.333  0.2145  0.4035 -0.0001
 8504TIP3    H147003   0.124   2.532   4.327 -1.1301  0.5389 -2.5517
 8504TIP3    H247004   0.223   2.647   4.320  0.3730 -0.5305 -0.3264
 8505TIP3   OH247005   4.108   3.724  11.011  0.0898  0.4683 -0.2098
 8505TIP3    H147006   4.106   3.795  10.947 -0.7183 -0.3670 -1.1684
 8505TIP3    H247007   4.193   3.681  10.996  0.4422  1.0323  0.1553
 8506TIP3   OH247008   3.524   6.638  14.455  0.5138  0.0309 -0.1839
 8506TIP3    H147009   3.552   6.717  14.502 -3.2880 -0.1091  2.8662
 8506TIP3    H247010   3.574   6.568  14.496  0.9659  0.4652  0.0245
 8507TIP3   OH247011   6.647   0.281   2.249 -0.1522 -0.2107  0.1590
 8507TIP3    H147012   6.688   0.212   2.300  1.1845 -0.3042 -0.9919
 8507TIP3    H247013   6.628   0.350   2.313  0.2083 -0.8762  1.0041
 8508TIP3   OH247014   5.914   4.651  12.331  0.1838 -0.1098 -0.0285
 8508TIP3    H147015   5.979   4.581  12.326  1.0084  0.5289  1.1947
 8508TIP3    H247016   5.950   4.712  12.395 -1.2989  0.6206  0.1413
 8509TIP3   OH247017   5.384   3.041   3.539  0.3602 -0.9749 -0.0608
 8509TIP3    H147018   5.465   3.079   3.575 -1.5476  1.5683  2.0188
 8509TIP3    H247019   5.409   3.006   3.454  3.2946  1.2689 -0.2750
 8510TIP3   OH247020   0.712   5.882  13.671 -0.1138 -0.3899 -0.1446
 8510TIP3    H147021   0.689   5.895  13.763 -0.1416 -0.8573 -0.0824
 8510TIP3    H247022   0.767   5.804  13.671 -0.6155 -0.7488 -0.5979
 8511TIP3   OH247023   0.876   2.970  11.460 -0.4228 -0.2930  0.6532
 8511TIP3    H147024   0.831   2.890  11.432 -1.6834  0.2625  1.0254
 8511TIP3    H247025   0.856   3.034  11.391  1.6144 -0.5823 -0.3017
 8512TIP3   OH247026   1.556   0.937  13.637 -0.5832 -0.1345  0.1030
 8512TIP3    H147027   1.546   1.028  13.666 -1.9670 -0.0027 -0.6709
 8512TIP3    H247028   1.650   0.927  13.623 -0.3208  0.9406  0.9300
 8513TIP3   OH247029   4.801   6.579  15.906  0.2429  0.1073  0.1606
 8513TIP3    H147030   4.789   6.567  15.812  1.3040  0.0867  0.0125
 8513TIP3    H247031   4.785   6.493  15.944 -0.0514  0.0837 -0.0132
 8514TIP3   OH247032   2.556   3.942  16.097  0.3447  0.3499  0.0693
 8514TIP3    H147033   2.587   3.866  16.048  1.1179  0.9829 -0.4503
 8514TIP3    H247034   2.612   4.014  16.068  0.7050  0.7915  1.7708
 8515TIP3   OH247035   4.950   5.836   1.221 -0.2738 -0.3041  0.9365
 8515TIP3    H147036   4.886   5.807   1.156 -0.2603 -0.1380  0.8479
 8515TIP3    H247037   4.989   5.914   1.182  0.7353 -0.9963  0.5157
 8516TIP3   OH247038   2.524   6.660   3.572  0.6456 -0.3831 -0.1924
 8516TIP3    H147039   2.620   6.666   3.567  0.7393 -0.6150  1.0442
 8516TIP3    H247040   2.508   6.588   3.633 -0.3399 -1.1396 -1.3059
 8517TIP3   OH247041   5.656   2.880   2.605  0.1494  0.4204 -0.6488
 8517TIP3    H147042   5.590   2.829   2.559 -0.6605  1.3574 -0.5680
 8517TIP3    H247043   5.607   2.955   2.641  1.2227  1.0380 -0.4409
 8518TIP3   OH247044   2.064   5.466  11.751  0.2743  0.1505 -0.0977
 8518TIP3    H147045   2.086   5.556  11.775 -0.3588  0.4942 -0.7606
 8518TIP3    H247046   2.038   5.424  11.833 -0.4110  0.8665  0.0569
 8519TIP3   OH247047   2.294   4.745  13.236 -0.3472  0.3840 -0.2678
 8519TIP3    H147048   2.326   4.655  13.249 -0.7898  0.3127  0.3500
 8519TIP3    H247049   2.253   4.743  13.150 -0.4120 -0.0275 -0.2303
 8520TIP3   OH247050   5.712   1.384   4.882  0.1306 -0.1986  0.7194
 8520TIP3    H147051   5.651   1.458   4.880  0.6400  0.2492  1.2731
 8520TIP3    H247052   5.731   1.371   4.975 -0.2249 -1.2598  0.6560
 8521TIP3   OH247053   0.500   4.331  12.232  0.5482  0.1835 -0.0076
 8521TIP3    H147054   0.543   4.411  12.201 -0.4728  0.6069 -0.3736
 8521TIP3    H247055   0.421   4.363  12.277  0.8275 -0.5476  1.0401
 8522TIP3   OH247056   6.267   3.359  17.021 -0.8239  0.1819 -0.2108
 8522TIP3    H147057   6.194   3.300  17.004 -0.0776 -0.5222 -1.0539
 8522TIP3    H247058   6.236   3.445  16.993 -2.0318  0.2869  1.3082
 8523TIP3   OH247059   3.167   5.533   0.103 -0.2302 -0.4829  0.0528
 8523TIP3    H147060   3.127   5.447   0.119 -1.0155 -0.2154 -0.3801
 8523TIP3    H247061   3.123   5.564   0.023 -0.1304  0.4243  0.3470
 8524TIP3   OH247062   2.656   1.569   2.641  0.0645 -0.4974 -0.0139
 8524TIP3    H147063   2.690   1.642   2.590  0.5906 -0.3564  0.5342
 8524TIP3    H247064   2.669   1.594   2.732 -0.4117 -0.9659  0.1940
 8525TIP3   OH247065   1.568   1.302  15.889  0.1804 -0.1165  0.6297
 8525TIP3    H147066   1.570   1.371  15.956  1.8111  0.2068  0.2788
 8525TIP3    H247067   1.621   1.336  15.818  0.1326 -1.3122  0.0011
 8526TIP3   OH247068   0.052   1.487  12.437  0.7272 -0.1002 -0.0808
 8526TIP3    H147069  -0.041   1.482  12.460  1.0039 -1.1473  0.9105
 8526TIP3    H247070   0.058   1.450  12.350  0.0308  1.3322 -0.7760
 8527TIP3   OH247071   2.517   0.209   5.218 -0.2842  0.2360  0.5092
 8527TIP3    H147072   2.575   0.250   5.282 -2.7807  3.3849  0.9770
 8527TIP3    H247073   2.510   0.273   5.147 -2.5194 -0.3467  0.1258
 8528TIP3   OH247074   4.034   1.057   1.650  0.1219 -0.3238  0.3474
 8528TIP3    H147075   4.079   1.108   1.717  0.5145 -1.3627  0.8939
 8528TIP3    H247076   3.941   1.072   1.666  0.2324  0.2913  0.4325
 8529TIP3   OH247077   2.560   5.889   0.309 -0.8186 -0.2257  0.1928
 8529TIP3    H147078   2.472   5.913   0.338 -1.4373 -0.8479 -1.0945
 8529TIP3    H247079   2.615   5.963   0.336 -1.8758  0.5529  0.2824
 8530TIP3   OH247080   6.349   1.965   2.531 -0.2109 -0.1742  0.0802
 8530TIP3    H147081   6.435   1.965   2.489  0.4324  1.8495  1.2324
 8530TIP3    H247082   6.291   2.006   2.467  0.4405  1.5254  0.5201
 8531TIP3   OH247083   3.014   4.931   3.927 -0.2274  0.1290 -0.0067
 8531TIP3    H147084   3.036   4.915   4.018 -1.0969  0.1595  0.2189
 8531TIP3    H247085   3.097   4.956   3.886  0.4034 -1.0522  0.5048
 8532TIP3   OH247086   6.339   6.267  14.241  0.2407 -0.3976  0.1250
 8532TIP3    H147087   6.405   6.317  14.193  0.2433  0.8015  1.3156
 8532TIP3    H247088   6.370   6.266  14.331 -1.3006  0.1245  0.7032
 8533TIP3   OH247089   6.522   6.835  10.979  0.2564 -0.5912  0.1668
 8533TIP3    H147090   6.568   6.892  10.917 -1.4700  0.2610 -0.3883
 8533TIP3    H247091   6.531   6.878  11.063 -1.4669  0.8517 -0.3299
 8534TIP3   OH247092   4.965   0.633   2.142  0.0974  0.6704  0.1354
 8534TIP3    H147093   4.986   0.596   2.056 -0.1650 -0.8524  0.6863
 8534TIP3    H247094   5.036   0.603   2.199  0.0715  1.3487  0.5364
 8535TIP3   OH247095   6.812   0.196  15.782 -0.2496 -0.8937 -0.2831
 8535TIP3    H147096   6.872   0.148  15.725  2.2693 -0.5353  1.9233
 8535TIP3    H247097   6.834   0.288  15.768 -0.8426 -0.7043  0.0073
 8536TIP3   OH247098   0.677   0.949  12.712  0.5640  0.1478  0.0514
 8536TIP3    H147099   0.669   0.855  12.693 -0.1468  0.1578  0.2791
 8536TIP3    H247100   0.693   0.953  12.806  0.4217  0.2628  0.0708
 8537TIP3   OH247101   4.372   3.020   3.444 -0.1891  0.8019 -0.0721
 8537TIP3    H147102   4.306   3.066   3.392 -0.2828  0.1767 -0.5350
 8537TIP3    H247103   4.414   2.961   3.381 -0.7646 -0.4658  0.6914
 8538TIP3   OH247104   1.021   0.971   1.340 -0.4364 -0.4749 -0.6545
 8538TIP3    H147105   1.053   0.882   1.326  1.6225  0.3121 -1.3741
 8538TIP3    H247106   1.094   1.027   1.314 -1.7085  1.4424 -0.3189
 8539TIP3   OH247107   5.899   2.246  15.887 -0.3697  0.5247 -0.1301
 8539TIP3    H147108   5.986   2.247  15.846 -0.6733 -1.6154 -0.9707
 8539TIP3    H247109   5.917   2.237  15.980  0.3064  1.5019 -0.1471
 8540TIP3   OH247110   2.038   5.920   1.500 -0.4699 -0.6542 -0.4512
 8540TIP3    H147111   2.108   5.981   1.522 -0.1562 -0.0126 -2.9537
 8540TIP3    H247112   2.074   5.865   1.431 -2.7535  0.5405 -2.7697
 8541TIP3   OH247113   0.847   6.355  16.814 -0.4449  0.2906 -0.4051
 8541TIP3    H147114   0.881   6.351  16.903  1.1412 -2.0320 -1.0123
 8541TIP3    H247115   0.796   6.275  16.805  1.3654 -0.7577 -2.2263
 8542TIP3   OH247116   3.674   5.531   3.359 -0.1157  0.1978 -0.0874
 8542TIP3    H147117   3.718   5.452   3.327 -1.7591 -0.9973  0.4390
 8542TIP3    H247118   3.727   5.560   3.433  1.0019  0.1306 -0.8366
 8543TIP3   OH247119   2.700   3.870   6.530 -0.1341  0.0268  0.3651
 8543TIP3    H147120   2.794   3.863   6.515 -0.3337 -0.6699 -0.6321
 8543TIP3    H247121   2.693   3.915   6.614  1.0819  0.4913  0.2444
 8544TIP3   OH247122   4.160   4.548  17.135  0.2106 -0.1483 -0.0168
 8544TIP3    H147123   4.136   4.634  17.168 -1.9992 -0.7721  0.1356
 8544TIP3    H247124   4.127   4.546  17.045  0.7128 -0.6545 -0.1950
 8545TIP3   OH247125   5.360   2.830  15.176  0.1122 -0.2924 -0.2156
 8545TIP3    H147126   5.312   2.893  15.122 -0.3913 -2.1452 -2.0718
 8545TIP3    H247127   5.292   2.772  15.211  0.4242  0.8857  2.5772
 8546TIP3   OH247128   1.885   3.913   5.281 -0.0001 -0.1203 -0.2415
 8546TIP3    H147129   1.848   3.999   5.264  0.9631  0.1487 -1.0733
 8546TIP3    H247130   1.979   3.924   5.266  0.0340 -1.5353 -1.2484
 8547TIP3   OH247131   6.584   2.722  13.580 -0.4387 -0.1388 -0.9350
 8547TIP3    H147132   6.609   2.638  13.541  0.7019 -0.7412  0.9500
 8547TIP3    H247133   6.505   2.702  13.630  1.0059 -0.7080  1.2841
 8548TIP3   OH247134   0.210   5.699  11.891 -0.6394  0.2050  0.5262
 8548TIP3    H147135   0.235   5.757  11.819  1.2163  1.1564  1.8716
 8548TIP3    H247136   0.288   5.644  11.905 -1.5717 -1.1081  0.7488
 8549TIP3   OH247137   4.682   5.902   4.963 -0.1089  0.0397  0.1956
 8549TIP3    H147138   4.667   5.900   5.058 -0.9809  0.3104  0.0687
 8549TIP3    H247139   4.713   5.991   4.946  1.5846 -0.4713  0.4347
 8550TIP3   OH247140   0.753   2.573  13.516  0.6444 -0.1676 -0.2146
 8550TIP3    H147141   0.745   2.654  13.465  1.0809 -1.4018 -2.3921
 8550TIP3    H247142   0.832   2.586  13.569  1.5181  0.3406 -1.5740
 8551TIP3   OH247143   1.412   6.213   0.273 -0.0321  0.3021  0.2059
 8551TIP3    H147144   1.328   6.243   0.237  0.3618 -0.8917 -1.9089
 8551TIP3    H247145   1.401   6.119   0.285  0.5077  0.3801  1.4693
 8552TIP3   OH247146   1.256   5.729  11.962 -0.1909 -0.3159  0.1446
 8552TIP3    H147147   1.217   5.732  11.875 -1.3656  0.4709  0.6667
 8552TIP3    H247148   1.260   5.636  11.984  1.0500 -0.5963 -1.1304
 8553TIP3   OH247149   5.544   0.501   4.367  0.2262  0.2277  0.0015
 8553TIP3    H147150   5.498   0.477   4.287  2.5608 -0.1952 -1.3186
 8553TIP3    H247151   5.510   0.587   4.389 -1.2080 -0.0895 -0.8441
 8554TIP3   OH247152   3.836   6.646  14.718  0.3655  0.2126 -0.3820
 8554TIP3    H147153   3.823   6.580  14.650  2.1228 -1.6519  0.9652
 8554TIP3    H247154   3.748   6.672  14.745 -0.3451 -0.6974 -1.7707
 8555TIP3   OH247155   4.838   5.142   1.685 -0.0093  1.1334  0.2786
 8555TIP3    H147156   4.794   5.227   1.691 -2.1478  0.1685 -0.9283
 8555TIP3    H247157   4.860   5.132   1.593 -1.5627 -0.4209  0.0193
 8556TIP3   OH247158   2.422   5.915  11.622 -0.4235 -0.0001 -0.1871
 8556TIP3    H147159   2.469   5.875  11.695 -0.1754  0.8027  0.1070
 8556TIP3    H247160   2.386   5.996  11.659  0.4249  0.8546 -1.1673
 8557TIP3   OH247161   0.962   0.527  13.263  0.0892  0.3753  0.5035
 8557TIP3    H147162   0.973   0.503  13.355 -0.9700  1.8826  1.0586
 8557TIP3    H247163   1.043   0.574  13.240  0.1871  0.3367  0.7714
 8558TIP3   OH247164   2.247   3.690  11.492 -0.5131  0.2556  0.1761
 8558TIP3    H147165   2.154   3.677  11.513 -0.3532 -0.9098  0.2290
 8558TIP3    H247166   2.249   3.697  11.397 -0.5378 -0.9939  0.0635
 8559TIP3   OH247167   2.086   2.001   3.083  0.2338  0.1397 -0.6746
 8559TIP3    H147168   2.124   1.993   2.995  0.0409 -1.1297 -0.6608
 8559TIP3    H247169   2.096   1.914   3.121 -3.3047 -0.5057 -0.9170
 8560TIP3   OH247170   1.058   3.040   4.591  0.6152  0.0583 -0.1197
 8560TIP3    H147171   1.150   3.049   4.567  0.1690  0.4395 -1.8858
 8560TIP3    H247172   1.034   2.952   4.561  0.3033  0.1414 -0.1209
 8561TIP3   OH247173   6.184   2.183   2.932 -0.2549  0.0603  0.4487
 8561TIP3    H147174   6.207   2.220   2.846 -0.6856  0.9942  0.7254
 8561TIP3    H247175   6.200   2.089   2.922  0.4013  0.2481 -0.4257
 8562TIP3   OH247176   5.036   1.702  15.583 -0.0457  0.0191 -0.1997
 8562TIP3    H147177   5.064   1.625  15.633 -0.9105 -0.1220  0.0818
 8562TIP3    H247178   5.108   1.719  15.523  0.5152 -0.5063  0.3077
 8563TIP3   OH247179   4.710   4.193   4.474  0.0077  0.3382 -0.1980
 8563TIP3    H147180   4.651   4.268   4.461  0.2912  0.8809  1.4517
 8563TIP3    H247181   4.711   4.149   4.389 -1.1545  1.4883 -0.8494
 8564TIP3   OH247182   1.897   6.740  11.177 -0.3804 -0.4624  0.1705
 8564TIP3    H147183   1.812   6.700  11.198 -1.5644  1.7092 -0.1596
 8564TIP3    H247184   1.888   6.767  11.085 -0.1701  1.6780  0.7284
 8565TIP3   OH247185   4.511   1.878   0.670  0.0777  0.0889  0.1729
 8565TIP3    H147186   4.524   1.967   0.704  2.5718 -0.4106  0.7330
 8565TIP3    H247187   4.418   1.874   0.649 -0.5518  2.1331  2.1311
 8566TIP3   OH247188   1.313   1.271  14.606 -0.2191  0.7076  0.2794
 8566TIP3    H147189   1.278   1.248  14.519  2.8999  0.8842 -1.1701
 8566TIP3    H247190   1.338   1.187  14.644 -0.5121  0.7126  0.4766
 8567TIP3   OH247191   2.879   6.257   6.065  0.6187  0.2773  0.4582
 8567TIP3    H147192   2.910   6.169   6.084 -0.7142 -0.5787 -1.1263
 8567TIP3    H247193   2.846   6.289   6.149  1.6073 -0.4872  1.1722
 8568TIP3   OH247194   1.270   6.551   3.989  0.1531  0.4145  0.0464
 8568TIP3    H147195   1.281   6.647   3.990 -0.1101  0.4760 -1.1078
 8568TIP3    H247196   1.306   6.522   4.072 -1.2168  1.6627  1.1388
 8569TIP3   OH247197   4.188   5.146  13.906  0.9989  0.2068 -0.2862
 8569TIP3    H147198   4.119   5.191  13.858  0.8209 -1.1877 -1.4290
 8569TIP3    H247199   4.142   5.101  13.978  0.7154 -0.5729 -0.9374
 8570TIP3   OH247200   4.188   1.204   2.424 -0.3221 -0.3824 -0.0921
 8570TIP3    H147201   4.112   1.258   2.402 -1.8443 -2.4591 -0.2941
 8570TIP3    H247202   4.256   1.233   2.363 -0.5465  2.2420  0.7901
 8571TIP3   OH247203   0.193   2.334  15.658 -0.2552  1.2002  0.1482
 8571TIP3    H147204   0.282   2.355  15.685 -0.1478 -0.1671  0.9578
 8571TIP3    H247205   0.148   2.419  15.654 -0.0011  1.6546  3.7895
 8572TIP3   OH247206   6.051   4.724  14.246 -0.6262 -0.3829  0.4917
 8572TIP3    H147207   6.140   4.760  14.239  0.1919 -1.7009  2.9340
 8572TIP3    H247208   6.041   4.671  14.167  0.5160  0.3070 -0.1434
 8573TIP3   OH247209   3.627   6.320  16.406 -0.1186  0.4072  0.3866
 8573TIP3    H147210   3.696   6.253  16.400 -0.0432  0.4229  1.0168
 8573TIP3    H247211   3.646   6.366  16.488 -2.1134 -0.9629  1.7230
 8574TIP3   OH247212   5.293   2.245  14.272 -0.2991 -0.5640  0.1720
 8574TIP3    H147213   5.242   2.213  14.198  0.0482 -2.3558  0.6682
 8574TIP3    H247214   5.272   2.339  14.277 -2.7650 -1.0276 -0.2506
 8575TIP3   OH247215   0.934   2.759   0.521 -1.1718 -0.3030 -0.4083
 8575TIP3    H147216   0.925   2.846   0.561  0.2472 -0.2301 -0.2208
 8575TIP3    H247217   0.864   2.708   0.561 -2.8498  1.0607 -1.4493
 8576TIP3   OH247218   5.833   1.481  15.062 -0.4414 -0.0585  0.0086
 8576TIP3    H147219   5.926   1.473  15.041 -0.2199  0.0324  0.9243
 8576TIP3    H247220   5.797   1.394  15.045  0.1256 -0.5308  1.1159
 8577TIP3   OH247221   2.454   1.952  13.752 -0.3005 -0.5780 -0.1148
 8577TIP3    H147222   2.430   1.962  13.844 -1.4204 -2.5288 -0.1492
 8577TIP3    H247223   2.529   1.894  13.753 -1.4384 -2.1166 -0.4777
 8578TIP3   OH247224   5.482   0.538   5.784 -0.0296  0.8808  0.0650
 8578TIP3    H147225   5.489   0.611   5.845 -0.1383  0.8005  0.1741
 8578TIP3    H247226   5.563   0.488   5.796 -0.0586  0.8560  0.1548
 8579TIP3   OH247227   5.134   6.577  12.536  0.1226  0.4042  0.2842
 8579TIP3    H147228   5.090   6.542  12.459 -1.6308  1.2288  0.8666
 8579TIP3    H247229   5.185   6.651  12.504 -0.3419  0.5489 -0.1158
 8580TIP3   OH247230   6.224   3.287   3.292  0.0081  0.8124 -0.3857
 8580TIP3    H147231   6.227   3.362   3.233 -2.7133  0.5040 -1.0710
 8580TIP3    H247232   6.175   3.318   3.368  0.5780  0.2702  0.2163
 8581TIP3   OH247233   2.096   5.348   5.207  0.0959  0.3303 -0.5358
 8581TIP3    H147234   2.167   5.413   5.206  0.0937  0.3378 -2.0665
 8581TIP3    H247235   2.072   5.341   5.299  0.7975  1.7438 -0.2152
 8582TIP3   OH247236   6.014   5.021   4.213 -0.1302 -0.1760 -0.4414
 8582TIP3    H147237   6.085   4.975   4.259 -0.4301 -0.9968 -0.7696
 8582TIP3    H247238   5.988   5.091   4.273  0.0693 -0.6850  0.2615
 8583TIP3   OH247239   0.588   5.634  15.909  0.1636 -0.0683  0.1367
 8583TIP3    H147240   0.614   5.547  15.939 -1.2277 -0.3899  0.4692
 8583TIP3    H247241   0.640   5.649  15.830  0.8124 -0.9625  0.3850
 8584TIP3   OH247242   0.380   2.454   1.914 -0.0092 -0.1923 -0.0040
 8584TIP3    H147243   0.368   2.489   2.002  2.1737 -0.5869  0.5162
 8584TIP3    H247244   0.473   2.471   1.894 -0.5181  0.1886 -2.3721
 8585TIP3   OH247245   4.082   2.045  12.329 -0.6073 -1.0203  0.5378
 8585TIP3    H147246   4.038   2.123  12.364  0.5559 -0.0073 -0.1621
 8585TIP3    H247247   4.012   1.981  12.317 -1.7897  0.3258 -0.0108
 8586TIP3   OH247248   1.703   1.531  11.316  0.3764 -0.0610 -0.3665
 8586TIP3    H147249   1.719   1.446  11.275  2.0517  0.1065 -0.1188
 8586TIP3    H247250   1.677   1.509  11.406  0.2851 -0.3203 -0.4541
 8587TIP3   OH247251   6.353   4.058  15.439 -0.0369 -0.4995 -0.1906
 8587TIP3    H147252   6.260   4.038  15.436  0.0373 -0.7948 -0.5736
 8587TIP3    H247253   6.362   4.141  15.391  0.4153 -2.4714 -3.9041
 8588TIP3   OH247254   5.726   2.849  11.474 -0.6684  0.6065  0.4729
 8588TIP3    H147255   5.788   2.795  11.425  0.3240  1.0328  1.2393
 8588TIP3    H247256   5.703   2.919  11.414 -0.0950  0.6675  0.3195
 8589TIP3   OH247257   2.846   6.253   1.663  0.5763 -0.6788 -0.7010
 8589TIP3    H147258   2.933   6.280   1.691 -0.3961  1.8444  0.1173
 8589TIP3    H247259   2.861   6.198   1.587  2.8724 -0.3148 -0.5608
 8590TIP3   OH247260   5.992   3.502   3.047  0.7179  0.0424 -0.5659
 8590TIP3    H147261   5.910   3.453   3.043  0.8711 -0.2526 -0.1548
 8590TIP3    H247262   5.965   3.592   3.067  0.2995  0.5273 -2.9107
 8591TIP3   OH247263   5.344   1.550  16.207  0.3600  0.3452  0.1539
 8591TIP3    H147264   5.350   1.531  16.301 -0.4110 -3.2688 -0.3657
 8591TIP3    H247265   5.424   1.515  16.170  0.5479  1.5311 -0.6017
 8592TIP3   OH247266   4.485   0.693  12.886 -0.2017 -0.7106 -0.3973
 8592TIP3    H147267   4.448   0.621  12.834 -1.0869  0.1779 -1.0364
 8592TIP3    H247268   4.530   0.749  12.823  1.9283 -1.5187  0.3063
 8593TIP3   OH247269   6.134   3.682   3.355 -0.3641  0.4917 -0.1129
 8593TIP3    H147270   6.098   3.593   3.356  1.3428 -0.2374  0.6702
 8593TIP3    H247271   6.225   3.671   3.382  0.1471  2.3852 -0.9289
 8594TIP3   OH247272   3.710   6.685   1.590 -0.3446  0.0943 -0.1150
 8594TIP3    H147273   3.789   6.704   1.639 -1.1771 -0.3067  1.4399
 8594TIP3    H247274   3.701   6.590   1.594 -1.6573  0.2324  0.9881
 8595TIP3   OH247275   6.623   6.308  13.260  0.5335 -0.6516  0.2130
 8595TIP3    H147276   6.580   6.394  13.264 -0.2998 -1.0847  0.8621
 8595TIP3    H247277   6.558   6.247  13.293  1.2819 -1.4828  0.1945
 8596TIP3   OH247278   3.005   1.746  14.130  0.2022  0.9596  0.1336
 8596TIP3    H147279   3.026   1.821  14.074 -0.3839  0.6536 -0.5160
 8596TIP3    H247280   2.953   1.688  14.074  0.2226  0.3008  0.7783
 8597TIP3   OH247281   4.148   5.767   2.380  0.3532 -0.1551 -0.2547
 8597TIP3    H147282   4.094   5.837   2.416 -0.4781 -0.4396 -0.9076
 8597TIP3    H247283   4.093   5.689   2.385  1.4757 -0.9060  0.9911
 8598TIP3   OH247284   4.321   5.086   4.499 -0.1401  0.1031  0.0474
 8598TIP3    H147285   4.407   5.125   4.484 -0.0932  0.4042  1.0251
 8598TIP3    H247286   4.339   5.008   4.552 -0.5731  1.0096  1.5993
 8599TIP3   OH247287   6.705   1.712  15.720  0.0990 -0.6750  0.4748
 8599TIP3    H147288   6.752   1.795  15.713 -2.6411  1.5040  4.0974
 8599TIP3    H247289   6.765   1.655  15.770  0.9330  0.1179  0.4112
 8600TIP3   OH247290   1.581   1.524  16.845 -0.1947 -0.4139  0.4761
 8600TIP3    H147291   1.553   1.448  16.897  0.4591 -1.1074 -0.1620
 8600TIP3    H247292   1.555   1.502  16.755  1.0442 -0.4092  0.1033
 8601TIP3   OH247293   6.077   2.095   1.422  0.3722  0.4969  0.4459
 8601TIP3    H147294   6.108   2.015   1.380  1.0564  1.5717 -1.1679
 8601TIP3    H247295   6.089   2.079   1.516  1.3277 -0.9503  0.1023
 8602TIP3   OH247296   1.216   3.348  14.545  0.1236  0.3909 -0.6515
 8602TIP3    H147297   1.200   3.434  14.505  0.7623  0.3279 -1.0508
 8602TIP3    H247298   1.136   3.330  14.594  0.2871  1.5671  0.0918
 8603TIP3   OH247299   4.876   1.914   1.665  0.2155 -0.3855 -0.0752
 8603TIP3    H147300   4.925   1.993   1.643  0.0097 -0.0847  0.5188
 8603TIP3    H247301   4.936   1.863   1.719  0.3421 -0.6350 -0.4435
 8604TIP3   OH247302   5.823   1.583   0.755 -0.1100  0.7244 -0.0334
 8604TIP3    H147303   5.829   1.489   0.767  0.9277  0.9338  1.4107
 8604TIP3    H247304   5.787   1.615   0.838  0.1977  1.6467 -0.2403
 8605TIP3   OH247305   0.119   4.323  11.853  0.0137 -0.0165 -1.0022
 8605TIP3    H147306   0.094   4.408  11.890 -0.5544 -0.4341 -0.4063
 8605TIP3    H247307   0.210   4.312  11.879 -0.2386 -0.0955 -0.0871
 8606TIP3   OH247308   4.004   0.531   2.395 -0.2695  0.5404 -0.1189
 8606TIP3    H147309   4.096   0.554   2.405 -0.3314  0.5750  0.4025
 8606TIP3    H247310   4.001   0.436   2.402 -0.1765  0.4640 -0.9704
 8607TIP3   OH247311   2.614   4.356  12.404 -0.5212 -0.3395  0.0763
 8607TIP3    H147312   2.699   4.312  12.398  0.0146  0.3199  1.9893
 8607TIP3    H247313   2.560   4.295  12.455 -1.1481 -0.6505 -0.9354
 8608TIP3   OH247314   3.924   1.737  14.250 -0.3373  0.2224 -0.1985
 8608TIP3    H147315   3.872   1.760  14.173  0.9739 -2.0988 -1.9209
 8608TIP3    H247316   4.014   1.763  14.227  0.1321 -0.8374  0.3636
 8609TIP3   OH247317   3.855   2.556   0.726  0.1484  0.0693  0.0883
 8609TIP3    H147318   3.946   2.531   0.710 -0.2216 -0.1270 -1.9815
 8609TIP3    H247319   3.842   2.635   0.674 -1.0519 -0.3361 -0.2822
 8610TIP3   OH247320   5.988   1.455  13.360  0.1948 -0.0060 -0.0844
 8610TIP3    H147321   6.048   1.391  13.322 -0.0917 -0.3546  0.0479
 8610TIP3    H247322   6.017   1.539  13.323  0.9970 -0.1182  0.2730
 8611TIP3   OH247323   0.916   3.623   5.476 -0.9140  0.1845  0.9972
 8611TIP3    H147324   0.830   3.648   5.442 -1.2820  3.1160  3.6256
 8611TIP3    H247325   0.969   3.608   5.398 -3.3243  0.0346 -0.7225
 8612TIP3   OH247326   5.792   5.936   5.466  0.2201 -0.5028  0.7559
 8612TIP3    H147327   5.748   5.852   5.482  1.2464 -1.2238 -0.0477
 8612TIP3    H247328   5.885   5.914   5.466  0.5408  0.7925  1.3389
 8613TIP3   OH247329   6.682   1.486  16.043  0.6475 -0.2107 -0.0186
 8613TIP3    H147330   6.750   1.500  15.977  0.1204  0.8658 -0.3620
 8613TIP3    H247331   6.712   1.535  16.119 -0.0334  0.8643 -0.4015
 8614TIP3   OH247332   5.409   6.182   2.680 -0.5488 -0.1041  0.5780
 8614TIP3    H147333   5.355   6.259   2.660  0.3215  0.1534 -0.8962
 8614TIP3    H247334   5.493   6.219   2.708  0.2855 -0.4657 -1.2889
 8615TIP3   OH247335   4.263   0.316   6.055 -0.0393 -0.1204 -0.2761
 8615TIP3    H147336   4.261   0.221   6.062  1.8736 -0.3992 -2.4825
 8615TIP3    H247337   4.191   0.345   6.111  0.2086 -2.7507  1.6323
 8616TIP3   OH247338   4.413   0.020  13.011  0.0993 -0.2533 -0.4638
 8616TIP3    H147339   4.391   0.093  12.954 -0.2394 -0.3919 -0.5193
 8616TIP3    H247340   4.374  -0.056  12.968 -1.1410 -0.2062  0.4938
 8617TIP3   OH247341   5.416   1.722  14.300 -0.1671  0.4838  0.3353
 8617TIP3    H147342   5.439   1.698  14.389 -0.6802 -0.9068  0.1203
 8617TIP3    H247343   5.354   1.795  14.310 -0.0673  0.4685  1.1051
 8618TIP3   OH247344   3.107   1.069  11.238  0.4740  0.4385 -0.2108
 8618TIP3    H147345   3.035   1.079  11.175  1.7502  0.1693 -1.7902
 8618TIP3    H247346   3.092   1.138  11.302 -0.9785  0.6239 -0.7106
 8619TIP3   OH247347   1.743   2.247  11.273  0.1588  0.1707 -0.0668
 8619TIP3    H147348   1.790   2.180  11.323 -0.8473 -0.4698  0.0574
 8619TIP3    H247349   1.707   2.305  11.339 -1.4631 -0.8718  0.0188
 8620TIP3   OH247350   1.529   3.829  11.258  0.2122  0.1621 -0.3302
 8620TIP3    H147351   1.569   3.815  11.344  1.5106 -0.1348 -0.9519
 8620TIP3    H247352   1.604   3.841  11.199 -0.6502  0.1763 -1.4516
 8621TIP3   OH247353   5.283   1.836   3.592 -0.2291 -0.0470  0.2699
 8621TIP3    H147354   5.282   1.837   3.497 -0.2932  0.1525  0.2712
 8621TIP3    H247355   5.350   1.900   3.616 -0.0667 -0.2500  0.3558
 8622TIP3   OH247356   3.386   1.351   2.300 -0.2825  0.2327  0.2772
 8622TIP3    H147357   3.411   1.427   2.248  1.9429 -0.9544 -0.5353
 8622TIP3    H247358   3.326   1.302   2.243 -2.8024  1.9068  1.3040
 8623TIP3   OH247359   1.305   1.460  14.213 -0.2661  0.5175  0.1768
 8623TIP3    H147360   1.308   1.365  14.222  0.5974  0.5415  0.2515
 8623TIP3    H247361   1.318   1.493  14.303  2.1007  0.7123 -0.1838
 8624TIP3   OH247362   3.615   4.397  15.006  0.0166  0.0965  0.1203
 8624TIP3    H147363   3.680   4.337  14.970 -0.9306 -0.1991 -1.1873
 8624TIP3    H247364   3.628   4.393  15.101  1.0856 -0.8807 -0.0470
 8625TIP3   OH247365   5.325   2.837  11.356 -0.8276  0.4432 -0.2322
 8625TIP3    H147366   5.325   2.796  11.270 -0.2900 -0.0090 -0.0287
 8625TIP3    H247367   5.406   2.889  11.357  0.4623 -1.4388  0.8371
 8626TIP3   OH247368   5.405   1.663  14.569 -0.1870  0.4164  0.1145
 8626TIP3    H147369   5.326   1.694  14.613 -0.3213 -0.7168  0.6926
 8626TIP3    H247370   5.462   1.635  14.640  1.4597  2.7743 -0.1627
 8627TIP3   OH247371   3.181   1.895  15.386  0.0900  0.9890  0.0793
 8627TIP3    H147372   3.207   1.940  15.466 -0.3234 -0.0753  0.8478
 8627TIP3    H247373   3.240   1.928  15.319  0.1840  2.2037  0.7345
 8628TIP3   OH247374   0.013   4.193  11.614  0.5569 -0.4457 -0.3798
 8628TIP3    H147375   0.057   4.225  11.693  1.7373 -1.0627 -0.7522
 8628TIP3    H247376  -0.036   4.116  11.643  0.2637 -0.1504 -0.0855
 8629TIP3   OH247377   5.410   5.358  16.971 -0.0679  0.3156 -0.0865
 8629TIP3    H147378   5.389   5.338  17.062  0.4933 -0.6516 -0.1613
 8629TIP3    H247379   5.326   5.348  16.925 -0.1467 -0.1817  0.1596
 8630TIP3   OH247380   5.397   0.767   5.286 -0.4877 -0.3964 -0.2015
 8630TIP3    H147381   5.455   0.842   5.275 -0.0738  0.2029  4.3009
 8630TIP3    H247382   5.448   0.692   5.256  0.7381  0.6241 -0.7515
 8631TIP3   OH247383   3.111   4.577   1.880 -0.6167  0.2639  0.2827
 8631TIP3    H147384   3.079   4.619   1.800 -1.1785 -0.1338  0.2890
 8631TIP3    H247385   3.073   4.489   1.877 -2.5700  0.9735  2.1101
 8632TIP3   OH247386   1.194   0.706   4.598  0.3266  0.1917  0.1114
 8632TIP3    H147387   1.245   0.632   4.632  0.2441  0.2654  0.3990
 8632TIP3    H247388   1.173   0.681   4.509  0.9381  0.1924 -0.0412
 8633TIP3   OH247389   0.489   0.489   0.315 -0.4746 -0.0044 -0.0770
 8633TIP3    H147390   0.487   0.531   0.229 -1.4504  1.3373  0.5709
 8633TIP3    H247391   0.451   0.402   0.300  0.5959 -0.3027 -1.2290
 8634TIP3   OH247392   2.804   5.890  12.243 -0.4713  0.2020  0.1870
 8634TIP3    H147393   2.774   5.808  12.204 -0.8325  1.3191 -2.0378
 8634TIP3    H247394   2.899   5.887  12.235 -0.5553  0.5333 -1.0810
 8635TIP3   OH247395   5.562   5.383   1.218  0.1090 -0.8670 -0.1954
 8635TIP3    H147396   5.640   5.332   1.237  0.5544  0.4005  1.6040
 8635TIP3    H247397   5.530   5.412   1.303 -0.3207  1.5389 -1.0825
 8636TIP3   OH247398   4.875   1.156  16.939  0.2251 -0.3155  0.1515
 8636TIP3    H147399   4.909   1.129  17.024 -0.0779  0.3042  0.4790
 8636TIP3    H247400   4.813   1.226  16.960  0.2481 -0.0696 -0.5891
 8637TIP3   OH247401   4.702   0.882  16.951  0.3865  0.1474  0.0780
 8637TIP3    H147402   4.632   0.817  16.958 -0.0711  0.7678  2.6027
 8637TIP3    H247403   4.729   0.879  16.860 -1.0129 -2.1033 -0.3522
 8638TIP3   OH247404   4.236   0.817  13.927 -0.7521  0.0263  0.1367
 8638TIP3    H147405   4.141   0.819  13.942 -0.7702 -0.0310  0.0370
 8638TIP3    H247406   4.264   0.733  13.962 -0.6217  0.3520  0.8171
 8639TIP3   OH247407   6.772   4.928  12.727 -0.2102  0.0860 -0.0737
 8639TIP3    H147408   6.863   4.904  12.705  0.3629  1.6293  0.4763
 8639TIP3    H247409   6.761   4.898  12.818  0.4148  1.5654  0.5195
 8640TIP3   OH247410   1.754   4.835  16.489 -0.0236  0.0297  0.0584
 8640TIP3    H147411   1.671   4.849  16.534  1.1486 -0.5597  2.6464
 8640TIP3    H247412   1.736   4.852  16.397 -3.8110 -3.2248 -0.0599
 8641TIP3   OH247413   4.923   4.473   4.153  0.0779 -0.3546  0.2144
 8641TIP3    H147414   4.831   4.472   4.126  0.2142  0.1829 -0.2979
 8641TIP3    H247415   4.948   4.565   4.149  0.4664 -0.4243  0.9595
 8642TIP3   OH247416   3.814   5.487   4.484  0.3449 -0.2292 -0.4025
 8642TIP3    H147417   3.718   5.485   4.489  0.0852  2.4983 -2.3583
 8642TIP3    H247418   3.838   5.398   4.459 -1.7729 -0.7168 -0.9293
 8643TIP3   OH247419   5.051   1.671  12.644 -0.4398  0.0354  0.2497
 8643TIP3    H147420   5.088   1.584  12.654 -3.7437 -1.3506  2.1893
 8643TIP3    H247421   5.080   1.700  12.557  2.1930 -2.1795  0.2646
 8644TIP3   OH247422   1.355   2.808   5.511 -0.2253 -0.1049 -0.2162
 8644TIP3    H147423   1.440   2.811   5.555 -0.5048  1.3004  0.2786
 8644TIP3    H247424   1.361   2.876   5.444 -0.1000 -1.6614 -1.8707
 8645TIP3   OH247425   3.364   5.912   2.918 -0.3433 -0.1039 -0.0909
 8645TIP3    H147426   3.306   5.912   2.994  0.1438 -0.4740  0.2844
 8645TIP3    H247427   3.305   5.925   2.843 -0.6456  2.2785  0.4645
 8646TIP3   OH247428   0.000   0.021   5.917  0.3255 -0.4620  0.0880
 8646TIP3    H147429  -0.024  -0.056   5.969  0.2673 -1.4652 -1.3680
 8646TIP3    H247430  -0.082   0.069   5.905  0.0655 -0.9987 -0.2989
 8647TIP3   OH247431   1.067   1.866  16.527  0.3574  0.2296  0.0350
 8647TIP3    H147432   1.007   1.797  16.497  1.2222 -0.6236  0.2074
 8647TIP3    H247433   1.153   1.837  16.497  0.9724  0.3873  1.5473
 8648TIP3   OH247434   2.451   0.582   5.265 -0.3442  0.0414  0.2982
 8648TIP3    H147435   2.448   0.523   5.340 -0.3624 -1.7498 -1.0436
 8648TIP3    H247436   2.374   0.560   5.213 -0.8532  1.9002  0.1928
 8649TIP3   OH247437   6.604   0.583  11.855  0.1712  0.3569  0.7025
 8649TIP3    H147438   6.641   0.553  11.772 -0.6320  0.3474  0.3442
 8649TIP3    H247439   6.510   0.592  11.838  0.2979  2.6583  0.9022
 8650TIP3   OH247440   6.043   2.542   5.580  0.1146  0.8486  0.4876
 8650TIP3    H147441   6.048   2.632   5.610 -2.2912  1.4167 -0.6032
 8650TIP3    H247442   6.024   2.548   5.486 -1.4732 -0.7173  0.6413
 8651TIP3   OH247443   3.022   5.607  12.652  0.5377 -0.3835  0.6876
 8651TIP3    H147444   3.078   5.586  12.727  0.8546 -0.8942  0.3155
 8651TIP3    H247445   2.965   5.530  12.642  0.9435 -0.6098  0.0086
 8652TIP3   OH247446   3.151   1.528  13.789  0.0371  0.8711 -0.2507
 8652TIP3    H147447   3.135   1.622  13.782 -1.4616  0.5137 -2.5994
 8652TIP3    H247448   3.220   1.510  13.725  1.1792  0.4966  1.0293
 8653TIP3   OH247449   1.743   6.259   4.583 -0.6360  1.0164  0.5686
 8653TIP3    H147450   1.688   6.182   4.599  1.2528 -0.7892 -0.9647
 8653TIP3    H247451   1.706   6.299   4.504  0.9985 -1.1259 -1.4304
 8654TIP3   OH247452   3.898   4.886  17.087 -1.0333 -0.2647 -0.7515
 8654TIP3    H147453   3.821   4.931  17.053  0.3592  0.6090 -2.9177
 8654TIP3    H247454   3.914   4.927  17.172 -1.8483  0.8495 -1.1165
 8655TIP3   OH247455   4.794   1.089   6.560 -0.4731 -0.1612 -0.1665
 8655TIP3    H147456   4.831   1.062   6.644 -1.0845  1.4348  0.6517
 8655TIP3    H247457   4.712   1.132   6.583 -1.1473 -0.5928 -1.6804
 8656TIP3   OH247458   5.424   6.271  15.944  0.2289  0.3718 -0.1314
 8656TIP3    H147459   5.502   6.290  15.997  0.2238  2.4245 -0.7933
 8656TIP3    H247460   5.455   6.273  15.854 -0.3388 -0.2257 -0.3489
 8657TIP3   OH247461   2.341   3.758  12.041  0.4066  0.0513  0.0042
 8657TIP3    H147462   2.329   3.733  11.949  3.4044 -0.6082 -0.3325
 8657TIP3    H247463   2.357   3.675  12.086 -0.7619  0.3956  1.1057
 8658TIP3   OH247464   4.053   2.081   4.793  0.0901  0.2579  0.5872
 8658TIP3    H147465   4.022   2.069   4.703  0.5647 -1.3841  0.6244
 8658TIP3    H247466   3.973   2.077   4.846 -0.5502  3.6393  0.1436
 8659TIP3   OH247467   2.761   5.234   2.784  0.1199 -0.8502  0.1846
 8659TIP3    H147468   2.758   5.225   2.689 -0.7484  0.8555  0.0249
 8659TIP3    H247469   2.839   5.287   2.801  0.8313 -1.9671  0.5231
 8660TIP3   OH247470   6.600   3.703  14.021 -0.2841  0.0801  0.3624
 8660TIP3    H147471   6.566   3.763  13.955 -0.9383  0.1082  0.7172
 8660TIP3    H247472   6.586   3.748  14.104  1.2969  0.4086  0.4900
 8661TIP3   OH247473   5.267   0.840  15.694  0.2737  0.2445  0.2840
 8661TIP3    H147474   5.178   0.808  15.681 -0.5188  1.7700  1.5493
 8661TIP3    H247475   5.271   0.860  15.788  2.0212  0.0241  0.2759
 8662TIP3   OH247476   0.215   2.413  13.823 -0.0059  0.5998  0.0679
 8662TIP3    H147477   0.255   2.328  13.839 -2.9752 -0.6451  1.7621
 8662TIP3    H247478   0.191   2.413  13.730  1.5069  0.3395 -0.3399
 8663TIP3   OH247479   1.481   2.583   0.802  0.5780 -0.3512 -0.1645
 8663TIP3    H147480   1.469   2.678   0.796 -0.5629 -0.2580  2.3181
 8663TIP3    H247481   1.396   2.551   0.833  1.0211 -2.1909 -0.7430
 8664TIP3   OH247482   3.303   5.156  16.202 -0.6562 -0.2120  0.5884
 8664TIP3    H147483   3.394   5.136  16.181 -0.6637 -0.9491  1.1990
 8664TIP3    H247484   3.259   5.157  16.117  0.0635  0.9706  0.2106
 8665TIP3   OH247485   6.185   5.503  15.874 -0.0631  0.1259 -0.3643
 8665TIP3    H147486   6.141   5.466  15.951  0.6394 -1.1249 -0.5302
 8665TIP3    H247487   6.152   5.451  15.800  1.0355 -0.2843 -0.5911
 8666TIP3   OH247488   2.362   3.699   3.491  0.4159  0.2123  0.3711
 8666TIP3    H147489   2.374   3.698   3.585  0.2738 -2.5371  0.4240
 8666TIP3    H247490   2.448   3.674   3.455  0.1943  0.2252 -0.1835
 8667TIP3   OH247491   4.163   2.140  14.039  0.3521  0.5799  0.0305
 8667TIP3    H147492   4.218   2.192  14.097 -0.5434  1.1114  0.4318
 8667TIP3    H247493   4.074   2.168  14.059 -0.0488 -0.0154 -0.8391
 8668TIP3   OH247494   5.209   5.299   1.399 -0.3561  0.3829  0.9432
 8668TIP3    H147495   5.171   5.300   1.487  0.4755 -0.6412  1.3323
 8668TIP3    H247496   5.229   5.207   1.382  1.1646  0.7715  0.4343
 8669TIP3   OH247497   4.500   6.169   0.286  0.2709  0.3994 -0.0065
 8669TIP3    H147498   4.437   6.219   0.233 -0.1653 -0.8041 -0.6838
 8669TIP3    H247499   4.558   6.235   0.324 -0.5058  1.4329 -0.5588
 8670TIP3   OH247500   1.716   2.956  16.878  0.0404 -0.0994 -0.1662
 8670TIP3    H147501   1.780   3.024  16.898 -0.6465  0.4396  0.2338
 8670TIP3    H247502   1.631   2.995  16.900 -0.4399 -0.7581 -0.7911
 8671TIP3   OH247503   5.161   4.269  12.150 -0.0915 -0.2345  0.0767
 8671TIP3    H147504   5.176   4.218  12.229 -1.2350 -0.7285 -0.0116
 8671TIP3    H247505   5.244   4.316  12.136 -0.0068  0.2042  1.8039
 8672TIP3   OH247506   2.294   4.616   2.615  0.0740  0.3585  0.3243
 8672TIP3    H147507   2.227   4.648   2.675 -0.7675 -0.1996 -0.3066
 8672TIP3    H247508   2.345   4.694   2.592 -0.6892  0.8853  0.3915
 8673TIP3   OH247509   0.819   6.067  11.431  0.1783  0.1115 -0.3154
 8673TIP3    H147510   0.730   6.085  11.460 -0.2316 -0.4593 -1.1634
 8673TIP3    H247511   0.875   6.097  11.503 -0.5811  2.0904 -0.4835
 8674TIP3   OH247512   1.716   3.651   3.066 -0.1553 -0.0884  0.7718
 8674TIP3    H147513   1.640   3.678   3.118 -1.5851 -2.1238 -0.1297
 8674TIP3    H247514   1.686   3.652   2.976  1.1988 -0.0501  0.2934
 8675TIP3   OH247515   1.672   6.203   6.662  0.2111 -0.1103 -0.1003
 8675TIP3    H147516   1.661   6.286   6.616 -0.0013  0.0174  0.1832
 8675TIP3    H247517   1.637   6.219   6.749 -1.5569 -1.0424 -0.6047
 8676TIP3   OH247518   1.789   1.060   0.402  0.2928  0.2534  0.4846
 8676TIP3    H147519   1.851   0.991   0.425 -0.5298 -0.1137  1.7281
 8676TIP3    H247520   1.832   1.141   0.432  1.6410  0.4479 -1.7547
 8677TIP3   OH247521   6.136   2.531   5.867  0.0135 -0.3671  0.1003
 8677TIP3    H147522   6.139   2.511   5.960  0.7107  2.3238  0.7310
 8677TIP3    H247523   6.043   2.521   5.843 -0.1825 -0.9730  1.0980
 8678TIP3   OH247524   5.985   1.667   4.951  0.8246 -0.1278 -0.1786
 8678TIP3    H147525   6.021   1.585   4.984 -0.9694 -1.3079 -0.9565
 8678TIP3    H247526   6.030   1.681   4.868  0.5730 -0.7856 -0.4365
 8679TIP3   OH247527   4.910   2.290  11.167  0.0899 -0.0515  0.1693
 8679TIP3    H147528   4.992   2.285  11.216  0.5156  1.2668 -0.3532
 8679TIP3    H247529   4.848   2.237  11.217  0.6061  0.9503  1.9325
 8680TIP3   OH247530   4.197   5.424   5.535 -0.5130 -0.3978  0.2151
 8680TIP3    H147531   4.250   5.347   5.518 -0.2034  0.1752 -1.6472
 8680TIP3    H247532   4.245   5.472   5.602  0.4185 -0.7689 -0.1699
 8681TIP3   OH247533   6.040   2.106  16.563 -0.2809  0.3786  0.1192
 8681TIP3    H147534   6.045   2.201  16.570 -0.6376  0.3189  1.5043
 8681TIP3    H247535   6.018   2.077  16.652 -0.9380 -0.9435 -0.4564
 8682TIP3   OH247536   2.548   0.648   2.970 -0.1306  0.0802  0.3979
 8682TIP3    H147537   2.560   0.742   2.986  0.3306  0.0841  0.0456
 8682TIP3    H247538   2.513   0.643   2.881  0.0597 -0.0944  0.3323
 8683TIP3   OH247539   5.305   3.652  16.111  0.2613 -0.7615 -0.2678
 8683TIP3    H147540   5.392   3.617  16.129  1.0469  0.4837 -1.4822
 8683TIP3    H247541   5.288   3.629  16.020 -0.9108 -1.4234  0.0952
 8684TIP3   OH247542   3.593   1.830   5.925 -0.9409  0.8081  0.2092
 8684TIP3    H147543   3.643   1.787   5.994 -2.2473  1.7324  1.8022
 8684TIP3    H247544   3.530   1.764   5.897  0.9438 -0.3224 -1.7253
 8685TIP3   OH247545   6.456   2.597   4.918  0.2061  0.5701 -0.3182
 8685TIP3    H147546   6.525   2.663   4.919  0.7472  0.1065 -2.0333
 8685TIP3    H247547   6.393   2.630   4.853  0.8023 -0.8591 -1.6703
 8686TIP3   OH247548   5.097   4.609   0.319 -0.0647  0.2025 -0.8444
 8686TIP3    H147549   5.148   4.584   0.396 -0.4926 -0.1073 -0.6512
 8686TIP3    H247550   5.090   4.704   0.324  1.2575  0.3372 -1.3685
 8687TIP3   OH247551   1.032   6.360   1.919  0.0689 -0.7759  0.6163
 8687TIP3    H147552   0.941   6.388   1.927  0.1465 -0.4592  0.4171
 8687TIP3    H247553   1.035   6.311   1.837  0.1420 -0.5123  0.4580
 8688TIP3   OH247554   4.409   2.353   6.148  0.0644 -0.3510 -0.0697
 8688TIP3    H147555   4.326   2.353   6.196  1.4346 -1.6206  2.5324
 8688TIP3    H247556   4.437   2.444   6.148 -1.0418 -0.0007 -0.4588
 8689TIP3   OH247557   3.381   5.686  16.890 -0.1304  0.6684  0.4690
 8689TIP3    H147558   3.300   5.657  16.931  0.2765 -0.7311  0.3227
 8689TIP3    H247559   3.394   5.775  16.923 -1.1974  0.5402  1.2784
 8690TIP3   OH247560   5.172   1.468  14.251 -0.0403 -0.9560 -0.3969
 8690TIP3    H147561   5.123   1.399  14.296  0.8313 -1.5773 -0.3763
 8690TIP3    H247562   5.204   1.427  14.171  1.1014 -0.8226 -0.0362
 8691TIP3   OH247563   0.989   5.408   3.029 -0.5853  0.2139  0.1335
 8691TIP3    H147564   0.948   5.494   3.031  1.1584  1.0746  0.1671
 8691TIP3    H247565   0.984   5.381   2.937 -2.5298 -0.3999  0.3645
 8692TIP3   OH247566   5.978   4.085   1.184  0.4924 -0.0651  0.1932
 8692TIP3    H147567   6.010   4.000   1.153  1.8986  0.2480  0.7037
 8692TIP3    H247568   5.955   4.070   1.275  0.0031 -0.0694  0.0732
 8693TIP3   OH247569   2.892   3.992   3.730  0.3057  0.1912 -0.8834
 8693TIP3    H147570   2.825   4.052   3.699 -0.1189 -0.7840 -1.9084
 8693TIP3    H247571   2.971   4.046   3.739 -0.0878  0.9097 -1.6997
 8694TIP3   OH247572   0.220   3.730  12.496 -0.0565 -0.2112  0.3233
 8694TIP3    H147573   0.285   3.793  12.466 -0.3471 -1.0277 -2.2180
 8694TIP3    H247574   0.270   3.666  12.547  0.7887  0.2085  0.0304
 8695TIP3   OH247575   3.664   0.750   5.457 -0.2717  0.3767 -0.0157
 8695TIP3    H147576   3.652   0.791   5.543  1.5084 -0.0044  0.4494
 8695TIP3    H247577   3.742   0.792   5.422 -2.2348  2.2369 -2.5249
 8696TIP3   OH247578   1.197   0.664   3.881 -0.1531 -0.0030 -0.7683
 8696TIP3    H147579   1.290   0.640   3.880  0.1381  0.8948  1.0542
 8696TIP3    H247580   1.155   0.597   3.936 -0.2677  0.5479 -0.1693
 8697TIP3   OH247581   4.881   6.755   1.013  0.4892 -0.4529 -0.3954
 8697TIP3    H147582   4.930   6.800   0.944 -0.1395 -0.4322 -0.8353
 8697TIP3    H247583   4.926   6.780   1.094  0.8544  0.0301 -0.7395
 8698TIP3   OH247584   5.922   3.463   2.331  0.7861 -0.2392 -0.1339
 8698TIP3    H147585   5.935   3.422   2.246 -2.9117 -1.1284 -0.4573
 8698TIP3    H247586   5.888   3.393   2.387  0.4596  0.9546  1.2452
 8699TIP3   OH247587   4.397   5.694   3.322  0.6708 -0.3932 -0.4817
 8699TIP3    H147588   4.432   5.691   3.411  1.7507  3.0568 -0.6587
 8699TIP3    H247589   4.445   5.625   3.275  0.0972 -2.2584  1.4910
 8700TIP3   OH247590   2.136   1.405  16.348  0.0657  0.0180  0.3198
 8700TIP3    H147591   2.152   1.312  16.367  1.1000  0.1168  0.0390
 8700TIP3    H247592   2.102   1.441  16.430  0.0521 -0.5220  0.5563
 8701TIP3   OH247593   0.549   5.700   1.417  0.6389 -0.1257  0.6357
 8701TIP3    H147594   0.496   5.622   1.400  1.3430 -0.2306 -1.3458
 8701TIP3    H247595   0.501   5.747   1.485 -0.8178 -1.3183  0.4883
 8702TIP3   OH247596   1.344   2.365  16.327  0.7779  0.5608 -0.2145
 8702TIP3    H147597   1.377   2.394  16.412 -0.4820  2.4946 -0.3253
 8702TIP3    H247598   1.364   2.437  16.267 -2.1509  1.1912 -0.5901
 8703TIP3   OH247599   4.233   0.555  15.880  0.3487  0.2117  0.8686
 8703TIP3    H147600   4.177   0.559  15.958  0.5649 -0.6729  1.0847
 8703TIP3    H247601   4.201   0.479  15.831  1.6491 -0.6204  1.2449
 8704TIP3   OH247602   3.528   3.088   4.318  0.3546 -0.0891  1.0356
 8704TIP3    H147603   3.613   3.097   4.274 -0.1212 -1.2599 -0.2023
 8704TIP3    H247604   3.491   3.176   4.316  0.2218 -0.1143 -1.2872
 8705TIP3   OH247605   2.376   4.239  16.304  0.1262 -0.2873  0.4710
 8705TIP3    H147606   2.398   4.316  16.253  1.1289  0.1001  1.4294
 8705TIP3    H247607   2.358   4.171  16.239  1.2605  0.2114 -0.4074
 8706TIP3   OH247608   6.016   3.364   1.056  0.2027 -0.0720 -0.4615
 8706TIP3    H147609   6.090   3.352   0.997  0.4843  0.0770 -0.1416
 8706TIP3    H247610   5.956   3.292   1.035  0.1885  0.1171 -1.0912
 8707TIP3   OH247611   0.686   5.084  13.916  0.4244  0.3000 -0.8400
 8707TIP3    H147612   0.612   5.123  13.962  1.6350  1.8442 -0.1089
 8707TIP3    H247613   0.660   4.993  13.900 -2.4421  1.2972 -2.4454
 8708TIP3   OH247614   5.457   2.568  12.105 -0.1950  0.5980  0.4260
 8708TIP3    H147615   5.419   2.647  12.066 -0.5915 -0.4976 -1.5378
 8708TIP3    H247616   5.393   2.500  12.087  1.2269 -0.6538 -0.0574
 8709TIP3   OH247617   2.892   2.020   6.441 -0.5578  0.0353  0.1128
 8709TIP3    H147618   2.813   2.069   6.421 -0.2619 -0.3635 -2.3206
 8709TIP3    H247619   2.866   1.960   6.511 -1.8067  1.3593  0.8289
 8710TIP3   OH247620   4.005   0.803  13.043 -0.3311 -0.3748 -0.0946
 8710TIP3    H147621   4.088   0.757  13.053  0.3382  0.8407  0.1034
 8710TIP3    H247622   3.942   0.735  13.019  0.4791 -1.4982  0.8850
 8711TIP3   OH247623   3.841   2.872  16.309 -0.1295 -0.1378  0.2385
 8711TIP3    H147624   3.829   2.951  16.257  0.2699  0.2724  0.7510
 8711TIP3    H247625   3.911   2.825  16.264 -0.1217 -0.0235  0.1291
 8712TIP3   OH247626   6.650   1.312   2.143 -0.1684 -0.5504  0.6193
 8712TIP3    H147627   6.687   1.224   2.151  0.5880 -0.1791  1.4719
 8712TIP3    H247628   6.608   1.313   2.057 -2.3451 -2.5126  1.5810
 8713TIP3   OH247629   1.248   5.434   1.976 -0.1273 -0.3929  0.0991
 8713TIP3    H147630   1.174   5.382   2.007 -0.0822 -0.5134  0.0054
 8713TIP3    H247631   1.253   5.415   1.882 -0.7067  0.5184 -0.1322
 8714TIP3   OH247632   5.357   0.771  16.132 -0.2493 -0.1934 -0.1842
 8714TIP3    H147633   5.447   0.791  16.156 -0.8682 -0.3521  2.6687
 8714TIP3    H247634   5.334   0.837  16.067  1.2168  1.3441  0.7736
 8715TIP3   OH247635   1.655   6.759  10.583  0.8496  0.2850 -0.4004
 8715TIP3    H147636   1.725   6.697  10.566  1.3369 -0.2385  2.7992
 8715TIP3    H247637   1.684   6.808  10.661 -1.4360  1.4528 -0.1728
 8716TIP3   OH247638   3.827   0.830   3.758 -0.1059 -0.6086 -0.6482
 8716TIP3    H147639   3.887   0.814   3.685 -0.3602  0.6902 -1.1619
 8716TIP3    H247640   3.819   0.925   3.763  2.1501 -0.4086  2.8956
 8717TIP3   OH247641   0.159   1.628  16.140 -0.0256  0.3042 -0.4880
 8717TIP3    H147642   0.215   1.581  16.078  3.0965 -0.0277  2.3036
 8717TIP3    H247643   0.138   1.563  16.208 -2.1371  1.0113 -0.3937
 8718TIP3   OH247644   3.280   6.619  15.254 -0.0440 -0.1011  0.5718
 8718TIP3    H147645   3.243   6.700  15.220  0.3409 -0.0409  0.2826
 8718TIP3    H247646   3.214   6.552  15.236  0.2215 -0.1051 -0.4530
 8719TIP3   OH247647   5.827   4.083   2.206  0.9484 -0.2793  0.1546
 8719TIP3    H147648   5.877   4.001   2.212  0.1068 -0.8071  0.0884
 8719TIP3    H247649   5.819   4.112   2.297  2.4060  0.4609  0.0758
 8720TIP3   OH247650   5.406   2.842  11.944  0.1375 -0.1604 -0.0345
 8720TIP3    H147651   5.416   2.796  11.861  1.6776  1.1015 -0.6086
 8720TIP3    H247652   5.436   2.931  11.926  1.4029 -0.0846  2.0668
 8721TIP3   OH247653   3.575   0.104  16.549 -0.4835  0.2221 -0.0296
 8721TIP3    H147654   3.552   0.197  16.548  0.7411  0.5431 -1.4431
 8721TIP3    H247655   3.552   0.073  16.461  1.3324 -0.2008 -0.3934
 8722TIP3   OH247656   4.512   2.588   1.507  0.3230 -0.4764  0.7632
 8722TIP3    H147657   4.471   2.671   1.482  0.5585 -0.7022 -0.4623
 8722TIP3    H247658   4.592   2.613   1.554  0.8600  0.0264 -0.3713
 8723TIP3   OH247659   1.436   5.051   0.943  0.1899  0.0491  0.2763
 8723TIP3    H147660   1.488   4.994   0.887 -1.4345 -1.8316  0.5976
 8723TIP3    H247661   1.355   5.003   0.958 -1.8213  2.9381 -0.4292
 8724TIP3   OH247662   3.405   1.799   0.960 -0.9410 -0.3338  0.6613
 8724TIP3    H147663   3.493   1.839   0.959 -0.4687 -1.3418 -0.5712
 8724TIP3    H247664   3.351   1.862   1.008  0.6978 -0.2526  2.5093
 8725TIP3   OH247665   1.799   5.716  10.360  0.3191  0.5562 -0.1633
 8725TIP3    H147666   1.781   5.689  10.450 -1.1172  2.1185  0.0776
 8725TIP3    H247667   1.879   5.767  10.366  0.7491 -0.1323  0.0598
 8726TIP3   OH247668   6.348   0.587   0.211 -0.4175  0.4159 -0.5182
 8726TIP3    H147669   6.359   0.679   0.184 -0.2419  1.5910  3.0627
 8726TIP3    H247670   6.276   0.589   0.273  1.3105 -1.3171  1.7183
 8727TIP3   OH247671   6.778   3.671  16.445  0.4669 -0.1860 -0.5426
 8727TIP3    H147672   6.856   3.654  16.497  1.3369  0.1221 -1.7128
 8727TIP3    H247673   6.715   3.706  16.509  0.8060 -1.6566  0.6624
 8728TIP3   OH247674   2.447   0.926   2.410  0.0389  0.5656 -0.1773
 8728TIP3    H147675   2.384   0.854   2.419 -0.0847  0.8607  1.8762
 8728TIP3    H247676   2.532   0.883   2.418 -0.0133  0.5454  0.3181
 8729TIP3   OH247677   2.517   0.648  13.515  0.4711 -0.2439  0.1475
 8729TIP3    H147678   2.593   0.663  13.459  2.8026 -2.4132  2.4754
 8729TIP3    H247679   2.537   0.567  13.562 -3.9506 -1.7633 -0.0762
 8730TIP3   OH247680   1.731   2.979   5.261  0.3258  0.7826  0.0037
 8730TIP3    H147681   1.638   3.003   5.265 -0.6296 -2.3309 -0.7593
 8730TIP3    H247682   1.756   2.995   5.170  0.0638  0.1034 -0.1892
 8731TIP3   OH247683   2.298   0.512   1.960 -0.3378 -0.2120  0.2103
 8731TIP3    H147684   2.283   0.594   1.913 -0.7311 -0.5442 -0.2448
 8731TIP3    H247685   2.383   0.481   1.929 -0.7988 -0.6625 -0.6375
 8732TIP3   OH247686   0.094   0.552  12.781  0.2827  0.1888  0.3228
 8732TIP3    H147687   0.095   0.635  12.733  1.6718  0.4775  0.7972
 8732TIP3    H247688   0.039   0.495  12.727  0.7090  0.9012 -0.9301
 8733TIP3   OH247689   1.403   6.234   6.174 -0.4878  0.1002  0.2450
 8733TIP3    H147690   1.472   6.300   6.184  0.2638 -0.1078 -2.6990
 8733TIP3    H247691   1.434   6.160   6.227  0.9179  0.4907  0.0235
 8734TIP3   OH247692   0.077   4.637   0.915 -0.6718  0.1085 -0.6983
 8734TIP3    H147693   0.035   4.618   0.832 -0.8819  0.1122 -0.5952
 8734TIP3    H247694   0.148   4.697   0.893  0.2736 -1.1392 -1.0737
 8735TIP3   OH247695   3.356   4.228   1.585  0.6520 -0.7273  0.0364
 8735TIP3    H147696   3.351   4.316   1.623  1.1790 -0.7842  0.2560
 8735TIP3    H247697   3.441   4.194   1.615 -0.0208 -1.7384  0.8877
 8736TIP3   OH247698   3.600   4.272  13.670  0.1235 -0.2211  0.7920
 8736TIP3    H147699   3.614   4.367  13.660 -1.2274 -0.1417 -0.6765
 8736TIP3    H247700   3.645   4.251  13.752  1.0038  1.5633  0.8405
 8737TIP3   OH247701   5.566   5.670   0.302 -0.2122  0.1019 -0.2914
 8737TIP3    H147702   5.649   5.688   0.346 -0.2462 -0.0112 -0.1814
 8737TIP3    H247703   5.588   5.669   0.209  0.0528 -0.6909 -0.2255
 8738TIP3   OH247704   5.707   1.681   1.002 -0.3907 -0.2696  0.0518
 8738TIP3    H147705   5.654   1.720   0.932 -0.0091  0.4905  0.1745
 8738TIP3    H247706   5.750   1.756   1.044  0.2244 -0.8134  0.4077
 8739TIP3   OH247707   3.025   5.244  12.699 -0.4099 -0.2453 -0.4776
 8739TIP3    H147708   3.114   5.279  12.695 -1.3411  2.3630 -1.0763
 8739TIP3    H247709   3.003   5.225  12.608 -0.6917 -0.1362 -0.4355
 8740TIP3   OH247710   4.330   0.480  14.023  0.0903  0.5179 -0.3689
 8740TIP3    H147711   4.333   0.539  14.099 -2.3899  0.8504 -0.4612
 8740TIP3    H247712   4.312   0.394  14.061  0.3611  0.4037 -0.4951
 8741TIP3   OH247713   3.206   1.053   4.841  0.2365  0.2208  0.2841
 8741TIP3    H147714   3.233   0.967   4.808 -0.0520  0.4877 -0.6434
 8741TIP3    H247715   3.220   1.113   4.768  0.9683  1.0783  1.0952
 8742TIP3   OH247716   4.192   5.860   5.270  0.2989 -0.0457 -0.1143
 8742TIP3    H147717   4.233   5.813   5.197 -0.3967  1.9016 -1.8507
 8742TIP3    H247718   4.245   5.938   5.282 -0.8521  0.7494 -0.0229
 8743TIP3   OH247719   0.141   6.223  14.271  0.0630 -0.1412  0.3321
 8743TIP3    H147720   0.235   6.245  14.268  0.2477 -1.0076 -1.1510
 8743TIP3    H247721   0.139   6.127  14.275 -0.7178 -0.3345 -2.5435
 8744TIP3   OH247722   2.093   4.241   2.345 -0.5373 -0.8694  0.1721
 8744TIP3    H147723   2.002   4.255   2.317 -0.1248 -0.7334 -1.1904
 8744TIP3    H247724   2.087   4.228   2.439 -2.0334 -1.3799  0.0439
 8745TIP3   OH247725   1.707   5.726   4.607  0.2717 -0.3644 -0.0044
 8745TIP3    H147726   1.665   5.646   4.576 -0.3102 -1.3638  3.1061
 8745TIP3    H247727   1.635   5.789   4.617  0.5052  0.0642 -0.8858
 8746TIP3   OH247728   2.941   4.732  14.989  0.8293 -0.2332 -0.1321
 8746TIP3    H147729   2.898   4.666  15.043  0.3285 -1.4141 -1.8888
 8746TIP3    H247730   3.028   4.696  14.972  0.3576 -0.7533 -1.5712
 8747TIP3   OH247731   0.169   3.399  11.115 -0.2980  0.3200  0.2235
 8747TIP3    H147732   0.239   3.372  11.055  0.4120  2.3483  0.0631
 8747TIP3    H247733   0.103   3.330  11.107  0.6958 -0.5192 -1.3127
 8748TIP3   OH247734   1.122   3.628  11.684 -0.0047 -0.6311 -0.2957
 8748TIP3    H147735   1.178   3.589  11.751  1.6369  1.4931 -0.3320
 8748TIP3    H247736   1.178   3.633  11.606 -0.8104 -0.0481 -0.8531
 8749TIP3   OH247737   3.343   3.347   6.184 -0.0503 -0.0682 -0.6660
 8749TIP3    H147738   3.330   3.442   6.187  1.2569  0.1435 -0.8307
 8749TIP3    H247739   3.413   3.335   6.120 -0.2964 -1.1593 -0.7457
 8750TIP3   OH247740   3.694   4.960   4.518 -0.2228 -0.1384  0.1302
 8750TIP3    H147741   3.628   4.943   4.584  0.2115 -1.5042  0.2402
 8750TIP3    H247742   3.646   5.003   4.447 -0.9393  0.1729  0.7852
 8751TIP3   OH247743   0.467   0.913   5.863 -0.4532  0.7057  0.2952
 8751TIP3    H147744   0.540   0.903   5.925 -0.9533 -0.2942  0.7551
 8751TIP3    H247745   0.509   0.932   5.779  0.4603 -1.2371  0.2355
 8752TIP3   OH247746   0.795   3.532   3.052  0.1595  0.1781  0.3719
 8752TIP3    H147747   0.866   3.537   2.987  0.5281 -0.6252  0.7049
 8752TIP3    H247748   0.839   3.508   3.133 -0.4524  0.0439  0.6641
 8753TIP3   OH247749   5.763   1.638  11.394 -0.5334  0.0821  0.3618
 8753TIP3    H147750   5.772   1.652  11.488  0.4167  0.6036  0.2134
 8753TIP3    H247751   5.799   1.718  11.354 -0.1461 -0.4801 -0.4508
 8754TIP3   OH247752   3.651   2.988   1.615 -0.0069 -0.7110  0.7311
 8754TIP3    H147753   3.635   3.023   1.528  1.7468 -0.9338  0.2867
 8754TIP3    H247754   3.709   3.052   1.657 -0.1491 -1.0253  1.4336
 8755TIP3   OH247755   2.974   2.466   0.960 -0.1957  0.0325 -0.1168
 8755TIP3    H147756   3.039   2.517   0.912  0.3433  0.1607  0.7272
 8755TIP3    H247757   3.025   2.415   1.022 -0.8311 -0.6224 -0.1223
 8756TIP3   OH247758   0.485   1.113   3.099 -0.0132 -0.3879 -0.1213
 8756TIP3    H147759   0.457   1.031   3.140  1.7191 -0.8585  0.1990
 8756TIP3    H247760   0.529   1.086   3.018 -0.3977  0.3160 -0.5807
 8757TIP3   OH247761   6.463   1.282  15.611  0.6474  0.2615  0.0005
 8757TIP3    H147762   6.508   1.360  15.579  0.4254  0.4790  0.2108
 8757TIP3    H247763   6.385   1.315  15.655 -1.3798 -0.2115 -2.9291
 8758TIP3   OH247764   3.512   3.920  13.859 -0.4567 -0.0851 -0.1176
 8758TIP3    H147765   3.479   3.885  13.942 -0.2135  1.1451  0.5167
 8758TIP3    H247766   3.569   3.993  13.885  0.0880 -0.0603 -1.3462
 8759TIP3   OH247767   2.219   3.105   6.729 -1.0330 -0.8755 -0.0857
 8759TIP3    H147768   2.138   3.152   6.706 -0.6218 -0.5573 -0.9103
 8759TIP3    H247769   2.266   3.166   6.785 -0.3022 -0.0870 -1.4995
 8760TIP3   OH247770   4.773   3.694   2.719 -0.4636 -0.0567  0.0456
 8760TIP3    H147771   4.810   3.778   2.693 -0.5167  0.4322  1.5158
 8760TIP3    H247772   4.693   3.716   2.766  0.1491 -0.8431  1.5352
 8761TIP3   OH247773   6.116   3.391   3.528  0.3296 -0.0424  0.4406
 8761TIP3    H147774   6.203   3.406   3.565 -0.3159  1.9396  1.3217
 8761TIP3    H247775   6.068   3.345   3.597 -0.2811  1.8850  1.3668
 8762TIP3   OH247776   5.984   1.746  12.865  0.3221 -0.0328 -0.0161
 8762TIP3    H147777   6.017   1.835  12.877 -1.5328  0.6378  0.3747
 8762TIP3    H247778   5.987   1.732  12.770  0.4201  0.5248 -0.0999
 8763TIP3   OH247779   0.029   0.818  11.642  0.2929 -0.6138 -0.4014
 8763TIP3    H147780  -0.064   0.795  11.647  0.1551 -0.5158 -2.0057
 8763TIP3    H247781   0.058   0.781  11.559  1.1043  1.3272 -1.0401
 8764TIP3   OH247782   6.728   2.441   5.474 -0.1956 -0.5118 -0.7779
 8764TIP3    H147783   6.678   2.521   5.461  2.2197  1.0346 -1.3796
 8764TIP3    H247784   6.682   2.374   5.423 -2.3756  0.4091 -0.1074
 8765TIP3   OH247785   5.775   0.491   3.157  0.1895  0.5879 -0.2857
 8765TIP3    H147786   5.751   0.582   3.137  0.5301  0.8326  0.3883
 8765TIP3    H247787   5.848   0.473   3.097  1.1000  1.2670  0.5711
 8766TIP3   OH247788   6.392   3.204  10.683 -0.3767  0.0115 -0.1923
 8766TIP3    H147789   6.389   3.283  10.737  0.1285 -1.2239  1.7299
 8766TIP3    H247790   6.343   3.139  10.732 -0.2326 -1.0689 -1.4328
 8767TIP3   OH247791   2.970   3.226  14.597 -0.5019 -0.1449 -0.2398
 8767TIP3    H147792   2.904   3.267  14.541 -0.6393 -0.3327 -0.2124
 8767TIP3    H247793   2.964   3.133  14.579  0.1950 -0.1084 -0.7168
 8768TIP3   OH247794   3.521   5.760   3.395 -0.5610  0.2110 -0.3643
 8768TIP3    H147795   3.595   5.816   3.417 -0.4329  1.0550 -2.6363
 8768TIP3    H247796   3.560   5.675   3.373 -0.1565  0.7453 -1.8752
 8769TIP3   OH247797   3.436   6.681   5.607 -0.3274  0.1032  0.4777
 8769TIP3    H147798   3.495   6.748   5.572  0.3213 -1.0296 -0.6888
 8769TIP3    H247799   3.348   6.711   5.585  0.0273 -0.1820 -1.4749
 8770TIP3   OH247800   6.392   1.975  11.346  0.5270 -0.6704 -0.0305
 8770TIP3    H147801   6.449   2.026  11.288  0.0719 -0.0788  0.0408
 8770TIP3    H247802   6.368   2.036  11.416  0.7195 -1.2525  0.5564
 8771TIP3   OH247803   2.638   2.004   4.979  0.0757 -0.2131 -0.3965
 8771TIP3    H147804   2.698   1.930   4.963 -0.9801 -1.5314  1.3716
 8771TIP3    H247805   2.647   2.023   5.072 -0.8876  0.8160 -0.4939
 8772TIP3   OH247806   0.298   4.926  13.831 -0.1015 -0.4455  0.0238
 8772TIP3    H147807   0.210   4.912  13.868 -0.3345 -1.2635 -0.7871
 8772TIP3    H247808   0.281   4.957  13.742  0.4375 -0.1635  0.0178
 8773TIP3   OH247809   6.742   2.327   5.921 -0.2993  0.0342  0.0542
 8773TIP3    H147810   6.663   2.346   5.870 -0.0702  0.1650 -0.2543
 8773TIP3    H247811   6.764   2.410   5.962 -0.2586  0.0234  0.0535
 8774TIP3   OH247812   1.435   5.837  15.690 -0.0129  0.3541 -0.1152
 8774TIP3    H147813   1.515   5.887  15.673  1.2744 -1.8846 -1.0314
 8774TIP3    H247814   1.398   5.821  15.603 -1.8493  1.7905  0.3035
 8775TIP3   OH247815   4.454   0.735  15.988  0.7220 -0.4147  0.2031
 8775TIP3    H147816   4.380   0.676  15.974  1.7354 -1.5813 -0.3856
 8775TIP3    H247817   4.423   0.820  15.956 -0.4740 -0.8004  0.2790
 8776TIP3   OH247818   3.988   3.149  14.348 -0.1755 -0.0065  0.0575
 8776TIP3    H147819   3.905   3.177  14.385  0.0411  1.4566 -0.5082
 8776TIP3    H247820   4.022   3.085  14.411 -0.6133  1.1260  1.5089
 8777TIP3   OH247821   1.577   3.654   0.706  0.0455  0.8047 -0.6353
 8777TIP3    H147822   1.568   3.565   0.741 -2.3056  0.7511 -1.1618
 8777TIP3    H247823   1.603   3.707   0.782  0.6258 -0.1874 -0.1234
 8778TIP3   OH247824   1.909   1.905  15.946 -0.4927 -0.2126  0.1232
 8778TIP3    H147825   1.840   1.970  15.961 -0.2468  0.0726  0.0185
 8778TIP3    H247826   1.883   1.831  16.000 -0.4193  0.2302  0.7805
 8779TIP3   OH247827   5.635   3.820   3.101 -0.5889 -0.0732 -0.2542
 8779TIP3    H147828   5.627   3.730   3.133  0.2832 -0.0524  0.0650
 8779TIP3    H247829   5.709   3.856   3.150  0.5283  0.1050 -1.9836
 8780TIP3   OH247830   6.287   2.488  12.773 -0.5769 -0.1089 -0.1575
 8780TIP3    H147831   6.262   2.426  12.842 -2.2927  0.5919 -0.0988
 8780TIP3    H247832   6.379   2.510  12.793  0.2120 -2.8568 -0.4123
 8781TIP3   OH247833   1.993   3.943   4.730  0.1328 -0.0791 -0.1279
 8781TIP3    H147834   1.931   3.957   4.802 -1.4698 -2.8141 -0.8211
 8781TIP3    H247835   1.944   3.963   4.651  0.9571  0.1293 -0.5990
 8782TIP3   OH247836   1.157   4.482  16.135 -0.1022  0.3464  0.0671
 8782TIP3    H147837   1.128   4.411  16.192 -0.2806 -0.0017 -0.4488
 8782TIP3    H247838   1.214   4.535  16.190  0.2138 -0.3225  0.3980
 8783TIP3   OH247839   4.771   0.815  14.925 -0.2645 -0.3282  0.3157
 8783TIP3    H147840   4.749   0.728  14.957 -0.4732 -0.3199  0.1919
 8783TIP3    H247841   4.858   0.833  14.962 -0.2910 -0.5220  0.4716
 8784TIP3   OH247842   5.348   6.663   4.364  0.0897  0.0578  0.0724
 8784TIP3    H147843   5.438   6.645   4.336 -0.2226 -1.2041 -0.1549
 8784TIP3    H247844   5.299   6.585   4.341 -1.2317  1.0036 -0.4477
 8785TIP3   OH247845   3.608   0.434   5.147  0.1253 -0.1811  0.6217
 8785TIP3    H147846   3.563   0.519   5.142 -0.1643 -0.3817 -0.3154
 8785TIP3    H247847   3.680   0.442   5.084 -0.9356 -1.2293 -0.7709
 8786TIP3   OH247848   2.477   6.226   5.722  0.4217  0.3852  1.0211
 8786TIP3    H147849   2.532   6.191   5.792 -1.3168 -0.9146  1.8213
 8786TIP3    H247850   2.528   6.298   5.685  1.5384  0.9365  3.4412
 8787TIP3   OH247851   4.693   3.695   1.923 -0.1482  0.9312  0.2120
 8787TIP3    H147852   4.717   3.783   1.953 -1.1475  0.9694  0.9420
 8787TIP3    H247853   4.610   3.707   1.877 -0.2009  0.4020  0.1657
 8788TIP3   OH247854   5.630   3.632  13.847  0.1120 -0.0472 -0.1986
 8788TIP3    H147855   5.546   3.588  13.861  0.2225 -0.0805  0.3670
 8788TIP3    H247856   5.607   3.725  13.835 -0.1364 -0.2609 -1.5616
 8789TIP3   OH247857   1.124   4.959  10.460 -0.6270 -0.5583 -0.4737
 8789TIP3    H147858   1.166   5.001  10.385 -0.8455 -0.0759 -0.3311
 8789TIP3    H247859   1.158   5.006  10.536 -2.4731  0.8236 -0.4217
 8790TIP3   OH247860   2.141   3.035  11.200  0.7303  0.6507 -0.8749
 8790TIP3    H147861   2.114   3.123  11.177 -1.6729  0.1937 -0.1128
 8790TIP3    H247862   2.226   3.046  11.244  0.6334  2.5141 -1.0862
 8791TIP3   OH247863   2.865   6.738   6.064  0.4085 -0.3516 -0.2898
 8791TIP3    H147864   2.837   6.678   6.133  0.6204 -0.3192 -0.1764
 8791TIP3    H247865   2.857   6.686   5.983  0.1698 -0.3915 -0.2409
 8792TIP3   OH247866   6.804   3.218   3.387  0.3863 -0.4844  0.2417
 8792TIP3    H147867   6.755   3.145   3.425 -1.3624  0.7913  0.5989
 8792TIP3    H247868   6.776   3.294   3.438  1.5146  0.5587 -0.6412
 8793TIP3   OH247869   4.754   0.922   4.131 -0.3491  0.0160 -0.1779
 8793TIP3    H147870   4.839   0.945   4.092 -0.7905 -0.0043 -1.1953
 8793TIP3    H247871   4.772   0.913   4.224  1.3233 -2.3860 -0.6231
 8794TIP3   OH247872   4.618   2.115  15.062 -0.7497  0.4688 -0.2089
 8794TIP3    H147873   4.646   2.149  14.978  3.4330 -0.5372  0.5457
 8794TIP3    H247874   4.643   2.182  15.125 -2.5016  0.5857  0.4198
 8795TIP3   OH247875   2.800   5.185  16.245 -0.3414  0.6658  1.0242
 8795TIP3    H147876   2.729   5.250  16.247 -0.1947  0.9238 -0.6230
 8795TIP3    H247877   2.862   5.219  16.181  1.0079  0.1475  2.0157
 8796TIP3   OH247878   1.353   0.587  11.492 -0.1773 -0.0533  0.0914
 8796TIP3    H147879   1.340   0.494  11.473  3.3073 -0.7386  0.5076
 8796TIP3    H247880   1.317   0.632  11.415 -1.6220 -1.7233 -0.2670
 8797TIP3   OH247881   0.903   1.645  12.684  0.5395 -0.5180 -0.5422
 8797TIP3    H147882   0.814   1.616  12.702  0.0920 -0.4033 -2.3546
 8797TIP3    H247883   0.950   1.632  12.766 -1.3119  0.1372  0.6669
 8798TIP3   OH247884   1.987   1.601  15.713 -0.2338  0.5970 -0.2663
 8798TIP3    H147885   1.970   1.695  15.702  0.1878  0.7118  0.0441
 8798TIP3    H247886   2.081   1.595  15.728 -0.3905  0.2001  0.5987
 8799TIP3   OH247887   2.554   1.584  14.751  1.0207 -1.3332  0.3259
 8799TIP3    H147888   2.486   1.601  14.685 -0.8322 -2.8067  1.7352
 8799TIP3    H247889   2.567   1.669  14.794  0.4507 -0.9187 -0.2963
 8800TIP3   OH247890   1.736   6.166   3.151  0.2880 -0.4650  0.3088
 8800TIP3    H147891   1.656   6.209   3.120  1.4570  1.7230  0.1018
 8800TIP3    H247892   1.773   6.124   3.073 -0.1795 -0.7209  0.2179
 8801TIP3   OH247893   6.358   4.372  11.279  0.2239  0.0320  0.0765
 8801TIP3    H147894   6.433   4.431  11.273  1.8148 -1.9516 -0.7392
 8801TIP3    H247895   6.325   4.365  11.190  0.6722 -1.0175 -0.0258
 8802TIP3   OH247896   4.074   0.927   0.701  0.2326 -0.3267  0.5917
 8802TIP3    H147897   4.079   0.965   0.613  0.2389 -1.5403  0.0489
 8802TIP3    H247898   4.047   0.836   0.686 -1.3647 -0.1226  1.9530
 8803TIP3   OH247899   2.764   2.597  16.049  0.0046 -0.6064 -0.0761
 8803TIP3    H147900   2.799   2.600  16.138  0.1340 -0.3847 -0.1353
 8803TIP3    H247901   2.706   2.521  16.050  1.1756 -1.5266 -0.2459
 8804TIP3   OH247902   3.555   5.002  13.486  0.5420  0.1878  0.2147
 8804TIP3    H147903   3.543   5.052  13.405  2.3418  0.5033  0.0874
 8804TIP3    H247904   3.494   4.929  13.479 -0.8363  1.3584 -0.4428
 8805TIP3   OH247905   4.261   0.458   1.525 -0.1337  0.6367 -0.8486
 8805TIP3    H147906   4.347   0.495   1.543  0.6154 -1.2818 -0.2300
 8805TIP3    H247907   4.201   0.507   1.581  0.5644  1.8985 -1.1944
 8806TIP3   OH247908   2.160   2.572  12.507  0.5110 -0.0494 -0.2730
 8806TIP3    H147909   2.114   2.521  12.440  0.6279  1.5130 -1.6105
 8806TIP3    H247910   2.237   2.520  12.529  0.2011 -0.8280 -0.9866
 8807TIP3   OH247911   0.416   4.845   3.578  0.4763 -0.2185  0.0245
 8807TIP3    H147912   0.332   4.809   3.550  0.7649 -0.5943 -0.3695
 8807TIP3    H247913   0.411   4.846   3.673  0.3026 -0.9376  0.0333
 8808TIP3   OH247914   4.191   4.474  13.738  0.1726 -0.1376 -0.1328
 8808TIP3    H147915   4.211   4.407  13.673 -0.8609  0.0414 -0.6473
 8808TIP3    H247916   4.261   4.539  13.728 -0.7985  0.6871 -2.1839
 8809TIP3   OH247917   5.808   3.649  11.621 -0.1946 -0.0657  0.5135
 8809TIP3    H147918   5.726   3.691  11.648 -1.9319 -1.8932 -1.5308
 8809TIP3    H247919   5.814   3.667  11.527  0.9726 -1.1691  0.3530
 8810TIP3   OH247920   6.339   6.319   5.318  0.2702  0.1988 -0.3813
 8810TIP3    H147921   6.329   6.226   5.338  0.0119  0.3374  0.1367
 8810TIP3    H247922   6.279   6.333   5.245 -0.1669  0.0951 -0.0457
 8811TIP3   OH247923   4.776   6.567   4.018 -0.2627  0.1736  0.4254
 8811TIP3    H147924   4.753   6.487   3.970  0.6128 -0.1436  0.5201
 8811TIP3    H247925   4.786   6.634   3.951 -1.5683  0.3611  0.3887
 8812TIP3   OH247926   1.819   0.782   6.131  0.0296  0.0459  0.0379
 8812TIP3    H147927   1.763   0.706   6.144  1.3739 -1.1595 -0.9365
 8812TIP3    H247928   1.858   0.798   6.217  0.7557 -1.2146 -0.0354
 8813TIP3   OH247929   2.824   1.200  13.004 -0.9513 -0.0725 -0.4909
 8813TIP3    H147930   2.832   1.295  13.012 -1.9501  0.0543 -0.8271
 8813TIP3    H247931   2.732   1.186  12.981 -1.1895 -1.2058  1.0026
 8814TIP3   OH247932   6.064   0.881   0.200 -0.1528  0.6704  0.2448
 8814TIP3    H147933   6.033   0.910   0.286  0.0991  2.2311 -0.1631
 8814TIP3    H247934   6.013   0.932   0.137  1.2085  1.1802 -0.4846
 8815TIP3   OH247935   6.078   4.885  10.587 -0.6267 -0.4666 -0.0323
 8815TIP3    H147936   6.128   4.947  10.534 -1.4543  0.0231 -0.2431
 8815TIP3    H247937   6.123   4.801  10.573  0.4154  0.0368  0.1495
 8816TIP3   OH247938   5.255   1.161  16.866 -0.0884  0.2221 -0.6813
 8816TIP3    H147939   5.338   1.195  16.899  0.4923 -0.6631 -1.2275
 8816TIP3    H247940   5.245   1.076  16.909  0.5176 -0.7986 -2.4858
 8817TIP3   OH247941   6.322   4.566   2.561  0.2146 -0.6304 -0.0091
 8817TIP3    H147942   6.313   4.489   2.618  1.8559  0.1038  1.3288
 8817TIP3    H247943   6.232   4.584   2.532 -0.4873 -1.8785  1.2349
 8818TIP3   OH247944   5.480   3.938   3.942  0.1430 -0.6208 -0.8709
 8818TIP3    H147945   5.550   3.969   3.886  0.1546 -2.2285 -1.8013
 8818TIP3    H247946   5.487   3.842   3.939 -0.8927 -0.7754  0.5509
 8819TIP3   OH247947   6.106   2.067   4.012 -0.2737 -0.4543  0.3486
 8819TIP3    H147948   6.185   2.095   4.059  1.0489 -1.1734 -1.3236
 8819TIP3    H247949   6.040   2.055   4.080  1.7172 -2.0873  2.1097
 8820TIP3   OH247950   4.974   3.912  12.588  0.2165 -0.2646 -0.0969
 8820TIP3    H147951   5.051   3.916  12.531 -0.7545  2.5070 -1.3961
 8820TIP3    H247952   5.010   3.907  12.676  1.7800 -2.5321 -0.7772
 8821TIP3   OH247953   4.130   0.708   1.492 -0.1355  0.2187 -0.1507
 8821TIP3    H147954   4.061   0.709   1.426  0.7481 -0.7443 -1.1367
 8821TIP3    H247955   4.085   0.724   1.575 -1.4217  0.3671 -0.8603
 8822TIP3   OH247956   1.987   2.415  12.352 -0.1771  0.2866  0.6245
 8822TIP3    H147957   1.918   2.445  12.412 -0.6158  2.3632 -0.8216
 8822TIP3    H247958   2.000   2.488  12.292  0.6288 -1.4805 -1.4964
 8823TIP3   OH247959   0.257   1.674   5.039 -0.0901  0.5698 -0.3779
 8823TIP3    H147960   0.234   1.754   4.992 -2.2394  0.9183  1.0971
 8823TIP3    H247961   0.308   1.705   5.114  0.8831  0.3146 -0.9231
 8824TIP3   OH247962   5.759   1.268  15.337 -0.0840 -0.0596 -0.4387
 8824TIP3    H147963   5.764   1.363  15.343 -0.8640 -0.0466  0.2444
 8824TIP3    H247964   5.665   1.249  15.344  0.2273 -1.0243  2.1100
 8825TIP3   OH247965   2.292   0.131  16.395  1.1496  0.0147 -0.2551
 8825TIP3    H147966   2.305   0.054  16.340 -0.5163  0.7316 -1.7545
 8825TIP3    H247967   2.288   0.205  16.334  0.9749  1.0775  0.9781
 8826TIP3   OH247968   0.997   1.373   2.244  0.2552  0.0198 -0.3606
 8826TIP3    H147969   1.017   1.283   2.218  1.2414  0.1086  0.0646
 8826TIP3    H247970   0.976   1.418   2.162  0.5268 -0.3993 -0.6618
 8827TIP3   OH247971   6.504   5.170  15.479  0.0670  0.1429 -0.4049
 8827TIP3    H147972   6.409   5.172  15.469 -0.0066  2.4585  0.0584
 8827TIP3    H247973   6.530   5.262  15.470  2.0002 -0.0835  1.8985
 8828TIP3   OH247974   4.524   3.921   1.868  0.3225  0.1943 -0.0720
 8828TIP3    H147975   4.437   3.921   1.829 -0.3481 -1.5301  1.2939
 8828TIP3    H247976   4.512   3.961   1.955  1.0715  0.6583 -0.1646
 8829TIP3   OH247977   1.212   4.101   5.412  0.1119  0.0298  0.3351
 8829TIP3    H147978   1.133   4.051   5.433 -0.5334  1.9456  2.9944
 8829TIP3    H247979   1.270   4.086   5.487  2.7515 -1.9762 -1.9006
 8830TIP3   OH247980   2.345   0.633   1.660  0.5567 -0.0472  0.1128
 8830TIP3    H147981   2.427   0.636   1.709 -0.1869  0.7254  1.3696
 8830TIP3    H247982   2.363   0.681   1.580  1.0557  1.0350  0.8513
 8831TIP3   OH247983   6.524   2.485  12.883 -0.2509  0.6674 -0.2484
 8831TIP3    H147984   6.519   2.458  12.975  0.9554  1.0202 -0.0664
 8831TIP3    H247985   6.592   2.553  12.882  1.4680 -0.9741 -1.7772
 8832TIP3   OH247986   6.437   3.263  15.774 -0.6092 -0.1650  0.7483
 8832TIP3    H147987   6.481   3.194  15.723 -2.3526 -1.0955  0.4122
 8832TIP3    H247988   6.365   3.291  15.718  0.0708  1.9889  0.8907
 8833TIP3   OH247989   1.131   0.964  17.091  0.5717  0.3367 -0.1445
 8833TIP3    H147990   1.053   1.009  17.062 -0.6415 -1.5497  0.0098
 8833TIP3    H247991   1.146   0.997  17.180 -1.6773 -1.1320  0.8913
 8834TIP3   OH247992   1.063   4.748   4.180 -0.0090 -0.0921  0.1503
 8834TIP3    H147993   1.114   4.815   4.227 -1.6071  0.2769  1.4382
 8834TIP3    H247994   1.115   4.668   4.189  0.9266  0.5275  0.4034
 8835TIP3   OH247995   3.532   6.625  17.014 -0.0157 -0.7821  0.0155
 8835TIP3    H147996   3.553   6.715  16.991  0.9949 -1.1984 -0.8152
 8835TIP3    H247997   3.508   6.627  17.106 -1.1282  0.5006 -0.2835
 8836TIP3   OH247998   2.399   2.429  14.325  0.1543  0.7074 -0.1130
 8836TIP3    H147999   2.305   2.449  14.326  0.3092  1.5828 -0.9758
 8836TIP3    H248000   2.428   2.454  14.237  1.5159  2.0857  0.6726
 8837TIP3   OH248001   4.484   4.330   4.910 -0.1262 -0.3584 -0.2612
 8837TIP3    H148002   4.453   4.268   4.975  1.6020 -1.9078 -0.8224
 8837TIP3    H248003   4.421   4.324   4.838 -1.9587  1.2558  1.1318
 8838TIP3   OH248004   1.614   3.674  13.215 -0.1516 -0.3304 -0.0948
 8838TIP3    H148005   1.688   3.697  13.159  0.4955 -1.3167  0.3294
 8838TIP3    H248006   1.654   3.639  13.295 -1.0612 -2.0928 -0.3558
 8839TIP3   OH248007   5.321   5.635  11.002  0.0498 -0.2954  0.4811
 8839TIP3    H148008   5.376   5.695  11.053  1.5843 -1.0624 -0.1916
 8839TIP3    H248009   5.305   5.561  11.060 -1.5295  0.5653  1.1820
 8840TIP3   OH248010   1.040   1.110  15.824  0.0444 -0.0392  0.6578
 8840TIP3    H148011   1.122   1.147  15.857  0.1425  2.7218 -2.1786
 8840TIP3    H248012   1.064   1.024  15.790  0.9108 -0.8160  3.0192
 8841TIP3   OH248013   0.974   0.449  14.190 -0.3934  0.8254  0.2992
 8841TIP3    H148014   0.977   0.535  14.230 -0.8260  0.5152  1.0116
 8841TIP3    H248015   0.881   0.431  14.178 -0.5220 -0.8223  3.0114
 8842TIP3   OH248016   2.019   2.447  15.119 -0.4203 -0.1622  0.6074
 8842TIP3    H148017   1.931   2.421  15.094  0.8894 -2.6759 -2.0494
 8842TIP3    H248018   2.029   2.536  15.084 -1.7918  0.0402  0.6930
 8843TIP3   OH248019   4.504   1.073  14.913  0.4065  0.1379  0.2728
 8843TIP3    H148020   4.591   1.100  14.884  0.7780 -1.0082  0.2441
 8843TIP3    H248021   4.515   1.055  15.006  0.2762 -0.2799  0.2090
 8844TIP3   OH248022   2.035   5.411   1.995 -0.4939 -0.3987 -0.5986
 8844TIP3    H148023   2.075   5.494   1.969 -0.5683 -0.5148 -1.0915
 8844TIP3    H248024   2.096   5.344   1.964 -0.1700 -0.5168  0.2666
 8845TIP3   OH248025   0.126   4.215   4.931  0.3349  0.4605 -0.5910
 8845TIP3    H148026   0.201   4.207   4.872 -0.9142 -1.0353 -2.0702
 8845TIP3    H248027   0.160   4.193   5.017  2.0246  1.8666 -0.8335
 8846TIP3   OH248028   2.813   1.889  15.585 -0.0831 -0.3074  0.0666
 8846TIP3    H148029   2.874   1.815  15.588 -1.2595 -1.3439 -0.8158
 8846TIP3    H248030   2.726   1.849  15.588 -0.8478  0.8057 -3.2019
 8847TIP3   OH248031   3.026   0.980   5.328 -0.7206 -0.1577 -0.5643
 8847TIP3    H148032   3.067   1.033   5.397 -0.1624  0.8572 -1.6305
 8847TIP3    H248033   3.078   0.999   5.250  0.3206 -3.2569 -0.7850
 8848TIP3   OH248034   5.977   6.212  16.845  0.2752 -0.5294 -0.0948
 8848TIP3    H148035   6.044   6.272  16.811 -0.6309  0.7915  0.3430
 8848TIP3    H248036   6.026   6.150  16.899  1.6605 -2.1816 -2.9696
 8849TIP3   OH248037   2.281   0.279  16.171 -0.4511 -0.2163  0.2974
 8849TIP3    H148038   2.237   0.326  16.100 -0.2859 -0.2429  0.1766
 8849TIP3    H248039   2.354   0.233  16.128 -1.0727 -1.2183  0.2812
 8850TIP3   OH248040   0.492   1.908   5.505 -0.5583  0.1316  0.3144
 8850TIP3    H148041   0.546   1.829   5.512  0.6838  0.7410 -1.7339
 8850TIP3    H248042   0.555   1.980   5.505 -1.5038  0.9811 -0.3640
 8851TIP3   OH248043   3.575   2.162  10.595 -0.2011  0.3810  0.1946
 8851TIP3    H148044   3.666   2.141  10.573 -0.2653  0.1444  0.1524
 8851TIP3    H248045   3.582   2.231  10.661 -0.0141  2.2135 -1.6320
 8852TIP3   OH248046   1.653   1.563   3.422  0.1749  0.2717  0.0005
 8852TIP3    H148047   1.633   1.652   3.449 -0.6059  0.2215 -0.3744
 8852TIP3    H248048   1.650   1.565   3.327  2.0384  0.2529 -0.0954
 8853TIP3   OH248049   1.855   0.228   1.745  0.2542 -0.1640  0.4091
 8853TIP3    H148050   1.760   0.225   1.757  0.1481 -1.3396 -0.4984
 8853TIP3    H248051   1.876   0.321   1.741 -0.9692  0.1011 -0.1852
 8854TIP3   OH248052   3.025   3.704   0.023  0.2496 -0.6799 -0.3742
 8854TIP3    H148053   3.077   3.644   0.076  1.8474  0.1615 -0.9368
 8854TIP3    H248054   3.082   3.728  -0.050 -1.1981 -0.2920 -1.4323
 8855TIP3   OH248055   5.805   2.492  13.463 -0.6521  0.0828 -0.4046
 8855TIP3    H148056   5.854   2.438  13.400  0.0381 -0.4303  0.5414
 8855TIP3    H248057   5.841   2.580  13.452  0.6189 -0.3158  0.3823
 8856TIP3   OH248058   4.140   1.816  15.131  0.2159 -0.2532 -0.0050
 8856TIP3    H148059   4.144   1.721  15.125 -2.2040 -0.7118  3.2112
 8856TIP3    H248060   4.229   1.842  15.157  0.7457 -1.6351 -0.3527
 8857TIP3   OH248061   2.738   6.501   3.212  0.2134 -0.2090  0.3137
 8857TIP3    H148062   2.676   6.460   3.151  1.6630 -0.1489 -1.2860
 8857TIP3    H248063   2.744   6.592   3.183  0.8293 -0.1485  0.6074
 8858TIP3   OH248064   1.676   1.253   5.812 -0.0958  0.3715 -0.5172
 8858TIP3    H148065   1.710   1.227   5.898 -2.0388  2.8766  1.1507
 8858TIP3    H248066   1.596   1.203   5.801 -0.7425  1.2783 -0.0393
 8859TIP3   OH248067   5.163   4.870  14.556  0.4598 -0.5803 -0.1532
 8859TIP3    H148068   5.246   4.861  14.509 -0.0558  2.9478 -2.1138
 8859TIP3    H248069   5.165   4.960  14.590 -1.7429 -1.0811  1.4760
 8860TIP3   OH248070   1.357   3.800  13.441 -0.8047 -0.2742 -0.5159
 8860TIP3    H148071   1.442   3.836  13.418 -1.1959  0.2838 -1.1121
 8860TIP3    H248072   1.319   3.863  13.502 -0.6355 -0.7176  0.0609
 8861TIP3   OH248073   4.281   0.298   2.098 -0.0512 -0.3399 -0.1158
 8861TIP3    H148074   4.206   0.275   2.042  0.1617  0.7519 -0.8829
 8861TIP3    H248075   4.356   0.260   2.053  0.5747  3.2379 -2.4616
 8862TIP3   OH248076   0.531   5.863   5.378  0.3130  0.0384  0.4229
 8862TIP3    H148077   0.577   5.791   5.422  0.3792 -0.7458 -0.8981
 8862TIP3    H248078   0.441   5.831   5.367 -0.2435  1.0337  1.7645
 8863TIP3   OH248079   0.784   3.723  12.882 -0.0340 -0.7504 -0.1882
 8863TIP3    H148080   0.772   3.814  12.857 -0.4174 -1.0166 -1.0083
 8863TIP3    H248081   0.869   3.721  12.926  0.2343 -0.1086 -0.6733
 8864TIP3   OH248082   6.407   0.222  13.020 -0.3004  0.3010 -0.3669
 8864TIP3    H148083   6.321   0.193  12.990 -1.3904  1.4856  1.4094
 8864TIP3    H248084   6.443   0.147  13.067 -1.1118  0.2971  0.2854
 8865TIP3   OH248085   2.336   2.586  12.882  0.3045  0.3492  0.2484
 8865TIP3    H148086   2.376   2.525  12.944  0.4617  1.6488  1.4864
 8865TIP3    H248087   2.403   2.600  12.815  0.7959  0.2546  0.7153
 8866TIP3   OH248088   0.918   4.634  16.596  0.2471 -0.0729  0.0835
 8866TIP3    H148089   0.937   4.708  16.652  0.4322  0.1350 -0.2485
 8866TIP3    H248090   0.919   4.670  16.507 -1.4184 -0.1051  0.0166
 8867TIP3   OH248091   1.340   4.866  16.926 -0.0813 -0.2348  0.1418
 8867TIP3    H148092   1.356   4.960  16.941  1.7547 -0.1570 -1.7769
 8867TIP3    H248093   1.262   4.864  16.870 -1.4530 -0.0423  1.9485
 8868TIP3   OH248094   4.503   4.803  14.655  1.0456  0.5778  0.3572
 8868TIP3    H148095   4.525   4.851  14.576  1.3748  1.0712  0.7459
 8868TIP3    H248096   4.417   4.764  14.636  1.4709  0.0313 -0.5340
 8869TIP3   OH248097   1.862   5.670   5.771 -1.0758  0.0897  0.4207
 8869TIP3    H148098   1.830   5.585   5.739  0.1702 -0.8344  1.5301
 8869TIP3    H248099   1.878   5.721   5.692  0.4312 -1.5679 -0.4133
 8870TIP3   OH248100   5.243   2.735  12.399  0.3919  0.0388  0.1423
 8870TIP3    H148101   5.266   2.787  12.322 -0.3177  0.7182  0.3777
 8870TIP3    H248102   5.324   2.690  12.422  0.6923  0.0609 -0.8140
 8871TIP3   OH248103   4.203   5.435   1.896 -0.1584 -0.0565  0.2174
 8871TIP3    H148104   4.206   5.469   1.986 -0.1842 -0.1107  0.2386
 8871TIP3    H248105   4.295   5.423   1.872  0.0629  3.0105 -0.9209
 8872TIP3   OH248106   3.381   1.741   3.573  0.0369 -0.3152  0.1593
 8872TIP3    H148107   3.399   1.648   3.564 -0.1073 -0.2215 -1.4479
 8872TIP3    H248108   3.288   1.747   3.594 -0.1149 -0.5143 -0.4495
 8873TIP3   OH248109   4.387   0.437  10.576 -0.1030 -0.6268  0.8161
 8873TIP3    H148110   4.465   0.491  10.584 -0.9588  0.5696  1.3590
 8873TIP3    H248111   4.316   0.490  10.613 -1.7685 -0.3917 -2.3767
 8874TIP3   OH248112   3.712   1.417  14.550 -0.1991 -0.2908  0.1341
 8874TIP3    H148113   3.759   1.360  14.611  0.3954 -0.0840 -0.1285
 8874TIP3    H248114   3.763   1.414  14.469  0.0368  0.8808  0.2257
 8875TIP3   OH248115   3.597   6.623  14.147 -0.2422  0.2064 -0.4234
 8875TIP3    H148116   3.606   6.636  14.241  1.0301  0.6315 -0.5833
 8875TIP3    H248117   3.562   6.534  14.138 -0.7053  0.2946  0.4586
 8876TIP3   OH248118   0.262   4.849   4.426  0.3144 -0.7369  0.2789
 8876TIP3    H148119   0.310   4.832   4.507 -1.0996 -0.9773  1.0845
 8876TIP3    H248120   0.170   4.839   4.449 -0.3867  2.6676 -0.4555
 8877TIP3   OH248121   6.676   1.833  10.860  0.0736 -0.4857 -0.0454
 8877TIP3    H148122   6.593   1.853  10.816 -0.0645 -0.3427  0.2743
 8877TIP3    H248123   6.652   1.826  10.953  0.4539 -0.2662  0.0683
 8878TIP3   OH248124   4.609   5.775   5.874  0.7613 -0.6451  0.1630
 8878TIP3    H148125   4.552   5.794   5.948 -0.0574  0.4281 -0.7238
 8878TIP3    H248126   4.684   5.833   5.886 -0.1054  0.6833 -0.6678
 8879TIP3   OH248127   5.551   4.774  16.106 -0.5251  0.4502 -0.7863
 8879TIP3    H148128   5.590   4.810  16.186 -1.4380  1.0567 -0.5968
 8879TIP3    H248129   5.544   4.849  16.047 -0.8400  0.2228 -1.0403
 8880TIP3   OH248130   3.884   4.538  15.880 -0.4406 -0.5413 -0.3943
 8880TIP3    H148131   3.928   4.456  15.858 -0.4334 -0.5244 -0.4420
 8880TIP3    H248132   3.810   4.511  15.935  0.8521 -0.4171  1.5008
 8881TIP3   OH248133   1.404   4.893   2.442  0.1543  0.3875  0.0617
 8881TIP3    H148134   1.486   4.847   2.463  0.2760  0.8004  0.5149
 8881TIP3    H248135   1.424   4.985   2.456 -0.4352  0.4804  0.3436
 8882TIP3   OH248136   1.340   4.976  12.659  0.3862  0.3595  0.0709
 8882TIP3    H148137   1.253   4.999  12.693  0.6557  1.1220  0.2595
 8882TIP3    H248138   1.335   4.999  12.566 -0.2676 -1.4896 -0.3861
 8883TIP3   OH248139   6.752   2.428   3.627  0.0873  0.1395 -0.7501
 8883TIP3    H148140   6.711   2.388   3.550 -0.7411 -0.2894 -0.1006
 8883TIP3    H248141   6.679   2.451   3.684  0.6904  0.4734 -0.0940
 8884TIP3   OH248142   4.214   5.296   3.403 -0.0984 -0.0093 -0.4506
 8884TIP3    H148143   4.249   5.342   3.327 -3.2594  0.8252 -1.5552
 8884TIP3    H248144   4.175   5.366   3.456  0.7109 -0.7617  1.2023
 8885TIP3   OH248145   3.730   0.145  14.745 -0.2726 -0.2314  0.2739
 8885TIP3    H148146   3.804   0.154  14.684 -0.5383  1.9988  0.1821
 8885TIP3    H248147   3.770   0.114  14.826  0.5091 -0.5878 -0.2353
 8886TIP3   OH248148   1.742   2.890  11.548 -0.7662 -0.2955  0.4953
 8886TIP3    H148149   1.832   2.868  11.523 -0.1463  0.1343  2.2013
 8886TIP3    H248150   1.692   2.811  11.530  0.0375 -0.6827 -0.0954
 8887TIP3   OH248151   0.626   2.886  14.349 -1.0684  0.0682 -0.0489
 8887TIP3    H148152   0.583   2.803  14.331 -1.7685  0.5452 -0.6649
 8887TIP3    H248153   0.578   2.950  14.296 -0.3937  0.8260  0.2239
 8888TIP3   OH248154   3.261   1.376   1.987 -0.3264  0.1537  0.0903
 8888TIP3    H148155   3.225   1.465   1.990 -0.8138 -0.0409  0.1377
 8888TIP3    H248156   3.241   1.345   1.899 -0.0810  0.1214  0.0460
 8889TIP3   OH248157   2.892   2.163   1.187 -0.1974  0.1431 -0.5063
 8889TIP3    H148158   2.829   2.093   1.202 -0.1402  0.2477  0.2858
 8889TIP3    H248159   2.853   2.239   1.230 -0.9788  1.0051 -2.6380
 8890TIP3   OH248160   6.032   3.267  16.608  0.1631  0.1131  0.4530
 8890TIP3    H148161   6.041   3.286  16.515  1.0048 -0.3638  0.4305
 8890TIP3    H248162   6.117   3.289  16.646  1.1905 -3.3611  0.4473
 8891TIP3   OH248163   1.333   4.380   1.989  0.4564  0.2593 -0.4642
 8891TIP3    H148164   1.403   4.353   1.929 -1.4772 -0.3626 -2.5728
 8891TIP3    H248165   1.336   4.476   1.986  0.4137  0.2444 -1.5942
 8892TIP3   OH248166   0.971   4.341  13.061  0.1545  0.0855 -0.4845
 8892TIP3    H148167   1.036   4.406  13.090 -0.4196  0.0082  1.0916
 8892TIP3    H248168   1.018   4.258  13.065  0.4338  0.2204 -0.9491
 8893TIP3   OH248169   2.591   6.372  13.228  0.0563  0.7371 -0.3347
 8893TIP3    H148170   2.665   6.335  13.275  0.2245  0.3770 -0.8790
 8893TIP3    H248171   2.629   6.430  13.163 -0.1210  0.1915 -0.9253
 8894TIP3   OH248172   0.606   2.792   3.570  0.2285  0.0895 -0.0194
 8894TIP3    H148173   0.589   2.872   3.520 -2.3296  0.1874  0.8574
 8894TIP3    H248174   0.650   2.734   3.508  1.6177  1.9487 -0.8393
 8895TIP3   OH248175   4.831   3.939  11.457 -0.4879 -0.3569  0.2908
 8895TIP3    H148176   4.746   3.984  11.460 -0.4179 -0.3016  1.7829
 8895TIP3    H248177   4.818   3.870  11.391 -2.0030 -0.9327  1.1305
 8896TIP3   OH248178   1.695   5.130  14.375  0.5105 -0.1222  0.1428
 8896TIP3    H148179   1.637   5.055  14.386  1.1424 -0.6532 -0.1268
 8896TIP3    H248180   1.784   5.094  14.380  0.8433  0.3332 -1.5942
 8897TIP3   OH248181   0.439   4.559  13.454 -0.2192  0.1547 -0.7511
 8897TIP3    H148182   0.344   4.552  13.468 -0.2993  0.5589 -1.0552
 8897TIP3    H248183   0.450   4.542  13.360 -0.0985  0.9931 -0.9037
 8898TIP3   OH248184   2.843   1.356   1.992 -0.3967  0.5386  0.3899
 8898TIP3    H148185   2.894   1.437   2.002 -0.0184  0.1758  1.5454
 8898TIP3    H248186   2.755   1.386   1.973 -0.4623  1.2804  1.7098
 8899TIP3   OH248187   5.348   4.173  15.596 -0.1478  0.4294  0.1513
 8899TIP3    H148188   5.410   4.184  15.524 -0.7841  0.8526 -0.3457
 8899TIP3    H248189   5.370   4.243  15.657  1.7822 -1.1949  1.4344
 8900TIP3   OH248190   6.164   3.593  13.298 -0.0503 -0.5439 -0.6410
 8900TIP3    H148191   6.181   3.532  13.227  1.1023  0.5631 -1.3623
 8900TIP3    H248192   6.244   3.591  13.352 -0.5002 -0.6091  0.0375
 8901TIP3   OH248193   6.133   1.635   4.151  0.2977 -0.5028 -0.6101
 8901TIP3    H148194   6.188   1.708   4.123 -1.0297  0.0151 -2.0356
 8901TIP3    H248195   6.130   1.577   4.074 -1.3890 -0.3359 -0.7038
 8902TIP3   OH248196   6.664   5.921  15.321  0.2180  0.0922  0.3722
 8902TIP3    H148197   6.639   6.012  15.334 -1.3602 -0.0930 -1.0520
 8902TIP3    H248198   6.755   5.916  15.352  0.1664  2.0151  0.9223
 8903TIP3   OH248199   3.547   1.662   4.533 -0.0845  0.4942 -0.4756
 8903TIP3    H148200   3.596   1.658   4.451 -0.9911 -1.3408 -0.9955
 8903TIP3    H248201   3.480   1.728   4.517 -0.6384 -0.2651 -1.4870
 8904TIP3   OH248202   3.887   6.562  15.746  0.0514  0.3629 -0.1336
 8904TIP3    H148203   3.862   6.653  15.734 -2.5623 -0.0780  1.2962
 8904TIP3    H248204   3.904   6.554  15.840  0.1673 -0.6335 -0.2219
 8905TIP3   OH248205   4.111   1.265   5.427  0.0838  0.0233  0.1585
 8905TIP3    H148206   4.064   1.225   5.354 -1.0895 -0.1506  0.9891
 8905TIP3    H248207   4.083   1.216   5.504 -1.7866  2.6789  1.2977
 8906TIP3   OH248208   3.804   1.596  15.784 -0.3834 -0.0858  0.3539
 8906TIP3    H148209   3.712   1.572  15.793 -0.2017 -1.1207 -0.3082
 8906TIP3    H248210   3.804   1.692  15.780 -1.2400  0.0226  2.1354
 8907TIP3   OH248211   6.696   3.410   1.432 -0.5252  0.4531 -0.2868
 8907TIP3    H148212   6.781   3.433   1.471  0.1230 -1.4534 -0.4502
 8907TIP3    H248213   6.663   3.339   1.487 -2.1215  1.2865 -0.1337
 8908TIP3   OH248214   3.734   1.666   2.898 -0.3356  0.1472 -0.0588
 8908TIP3    H148215   3.702   1.730   2.962  0.5463 -0.1037  0.6562
 8908TIP3    H248216   3.714   1.704   2.813  0.0947  1.3348  0.3545
 8909TIP3   OH248217   4.511   3.557   3.359 -0.2484  0.1841 -0.2904
 8909TIP3    H148218   4.436   3.615   3.344 -0.7778 -0.3244  0.2735
 8909TIP3    H248219   4.536   3.526   3.272 -1.4827 -0.5805 -0.4024
 8910TIP3   OH248220   0.145   3.784  15.654  0.4452  0.5648  0.0197
 8910TIP3    H148221   0.209   3.854  15.668  1.8495 -0.8394  0.8039
 8910TIP3    H248222   0.192   3.717  15.605 -0.9578  0.2367 -0.9462
 8911TIP3   OH248223   6.240   1.605   3.381 -0.3441  0.4405 -0.0576
 8911TIP3    H148224   6.162   1.640   3.423  0.7942 -0.1047  2.7533
 8911TIP3    H248225   6.208   1.543   3.317 -2.2352  0.5074  0.7680
 8912TIP3   OH248226   1.220   5.235  15.293  0.1103 -0.5806 -0.2236
 8912TIP3    H148227   1.295   5.177  15.304  0.1888 -0.3483  0.5742
 8912TIP3    H248228   1.258   5.322  15.284 -0.0741 -0.3541  1.0301
 8913TIP3   OH248229   4.369   1.609   0.838  0.4669 -0.5453 -0.7269
 8913TIP3    H148230   4.349   1.622   0.745  0.8881 -0.6666 -0.8342
 8913TIP3    H248231   4.463   1.593   0.840  0.1881 -2.3075 -0.4673
 8914TIP3   OH248232   6.656   2.869  16.513 -0.1203  0.1164  0.1815
 8914TIP3    H148233   6.642   2.850  16.421  0.5780  0.1153  0.0744
 8914TIP3    H248234   6.581   2.828  16.558 -2.1445  2.6578 -0.6304
 8915TIP3   OH248235   4.215   3.695  15.631  0.3331  0.6298  0.2381
 8915TIP3    H148236   4.293   3.742  15.602 -0.7687  2.3428 -0.0181
 8915TIP3    H248237   4.224   3.608  15.592  0.9503  1.5392 -1.7837
 8916TIP3   OH248238   5.862   2.729   0.366 -0.0390 -0.4666 -0.1520
 8916TIP3    H148239   5.800   2.792   0.329  0.8785  1.0078  0.7336
 8916TIP3    H248240   5.945   2.746   0.320  0.4534 -0.3831  0.7374
 8917TIP3   OH248241   0.454   2.347  12.135  0.5555  0.3628  0.2133
 8917TIP3    H148242   0.506   2.404  12.192 -0.6630  0.1249  1.6361
 8917TIP3    H248243   0.452   2.393  12.051  0.3588  1.9950  1.0562
 8918TIP3   OH248244   5.113   6.758  12.243  0.2684 -0.0926 -0.5801
 8918TIP3    H148245   5.190   6.712  12.276  2.1241  1.7357 -2.0388
 8918TIP3    H248246   5.127   6.761  12.148 -0.8839  1.4749 -0.7391
 8919TIP3   OH248247   0.831   4.707   2.036 -0.0108 -0.1732  0.0414
 8919TIP3    H148248   0.831   4.798   2.066  0.6181  0.3814 -1.5483
 8919TIP3    H248249   0.751   4.699   1.984  0.0812 -0.4452 -0.0611
 8920TIP3   OH248250   4.823   3.950  16.748  0.0761  0.3233 -0.2569
 8920TIP3    H148251   4.916   3.973  16.749  0.1039  0.2038 -0.1799
 8920TIP3    H248252   4.817   3.875  16.689  0.4479 -1.5328  1.9556
 8921TIP3   OH248253   5.646   3.095   2.845 -0.4373 -0.0118  0.4555
 8921TIP3    H148254   5.615   3.136   2.764 -0.5576 -2.6576 -0.9586
 8921TIP3    H248255   5.742   3.103   2.841 -0.1527 -2.8529 -1.6978
 8922TIP3   OH248256   6.769   6.050   2.837  0.2304 -0.1604 -0.9572
 8922TIP3    H148257   6.688   6.096   2.858  1.2568  1.5508 -0.5868
 8922TIP3    H248258   6.744   5.957   2.835 -2.0134  0.4154 -2.3109
 8923TIP3   OH248259   0.140   2.797   2.795  0.1316 -0.8319 -0.1310
 8923TIP3    H148260   0.086   2.726   2.760 -1.4936  0.4969 -0.4289
 8923TIP3    H248261   0.134   2.867   2.731  0.2309  0.2375  0.9814
 8924TIP3   OH248262   4.383   6.009  14.410  0.1268  0.5257 -0.2416
 8924TIP3    H148263   4.385   5.927  14.459  1.6586  1.3109  1.1186
 8924TIP3    H248264   4.452   6.062  14.450  1.0268  1.4767 -2.8221
 8925TIP3   OH248265   4.890   5.387  11.217 -0.8637  0.1424  0.2135
 8925TIP3    H148266   4.898   5.445  11.292 -0.8355 -0.1874  0.4651
 8925TIP3    H248267   4.796   5.371  11.208 -0.9156  0.6461 -0.1768
 8926TIP3   OH248268   1.590   5.663   2.661  0.6516  0.2012 -0.0673
 8926TIP3    H148269   1.641   5.618   2.728 -0.8371 -0.2200  0.8401
 8926TIP3    H248270   1.625   5.631   2.578 -0.4985 -2.9461  0.5147
 8927TIP3   OH248271   4.728   4.600  16.961  0.6920 -0.5772 -0.2205
 8927TIP3    H148272   4.636   4.614  16.979  0.3935  1.0327 -2.5848
 8927TIP3    H248273   4.760   4.551  17.037 -1.6079  0.6013  1.6316
 8928TIP3   OH248274   5.402   2.106   5.638 -0.3517  0.1039  0.3377
 8928TIP3    H148275   5.381   2.142   5.552 -0.7897  0.2337  0.4962
 8928TIP3    H248276   5.459   2.031   5.620 -2.5796 -1.5560 -0.2474
 8929TIP3   OH248277   3.637   4.515  12.482  0.3454  0.6564  0.4816
 8929TIP3    H148278   3.595   4.479  12.559  1.1602  1.0999  1.1508
 8929TIP3    H248279   3.728   4.530  12.508  0.3706  1.8668 -0.1980
 8930TIP3   OH248280   1.844   3.057  14.177  0.1205  0.0407 -0.2258
 8930TIP3    H148281   1.863   3.026  14.088  0.3041  0.6920 -0.4229
 8930TIP3    H248282   1.854   3.153  14.171  0.7129  0.0424  0.6363
 8931TIP3   OH248283   1.892   2.259   2.015 -0.3470  0.8694  0.0153
 8931TIP3    H148284   1.922   2.169   2.026 -1.9148  0.2547 -0.4146
 8931TIP3    H248285   1.818   2.267   2.075 -0.6425  1.6695 -0.4375
 8932TIP3   OH248286   6.745   5.787   2.782  0.0752  0.1349 -0.5494
 8932TIP3    H148287   6.802   5.744   2.847  0.6540 -0.1558 -1.2420
 8932TIP3    H248288   6.798   5.793   2.703 -0.8125 -0.0003 -1.1709
 8933TIP3   OH248289   2.656   4.885  17.036  0.9412  0.2778 -0.2447
 8933TIP3    H148290   2.650   4.920  17.125  1.5948  0.8806 -0.4290
 8933TIP3    H248291   2.737   4.833  17.036  1.4183  1.0131 -0.7330
 8934TIP3   OH248292   2.334   6.707  11.411 -0.4353  0.3832 -0.2444
 8934TIP3    H148293   2.285   6.734  11.489  0.7174 -0.3059  0.7575
 8934TIP3    H248294   2.273   6.653  11.361 -1.7292  2.1452 -0.6827
 8935TIP3   OH248295   2.146   0.968   0.261 -0.3957  0.0356 -0.1788
 8935TIP3    H148296   2.168   1.050   0.216  1.5045  0.6619  1.7295
 8935TIP3    H248297   2.220   0.910   0.243 -2.1135 -1.6373 -2.2086
 8936TIP3   OH248298   2.457   1.956  12.656  0.2898 -0.2283 -0.1267
 8936TIP3    H148299   2.484   1.966  12.747  1.9088 -3.0219 -0.1963
 8936TIP3    H248300   2.374   1.909  12.660  0.0107  0.2584 -0.1022
 8937TIP3   OH248301   4.370   5.414  13.408  0.2310 -0.4362 -0.3061
 8937TIP3    H148302   4.448   5.358  13.420 -0.0615 -0.4747  2.0050
 8937TIP3    H248303   4.326   5.379  13.331  2.5878 -0.2809 -1.8169
 8938TIP3   OH248304   5.585   6.784   4.973  0.2427 -0.0949 -0.5322
 8938TIP3    H148305   5.533   6.807   5.050 -0.6885  0.4586 -1.3012
 8938TIP3    H248306   5.675   6.776   5.006 -0.2618 -0.6848  0.7537
 8939TIP3   OH248307   0.863   2.055  11.405  0.0884 -0.8008 -0.2386
 8939TIP3    H148308   0.826   1.992  11.467  0.8165 -1.1567 -0.1553
 8939TIP3    H248309   0.930   2.006  11.358 -0.2417 -0.4427 -1.0932
 8940TIP3   OH248310   1.386   0.037  16.785 -0.0679 -1.0609 -0.0398
 8940TIP3    H148311   1.319   0.087  16.832  0.9218 -0.6140  0.9152
 8940TIP3    H248312   1.453   0.019  16.850  1.3544 -0.4062 -1.2606
 8941TIP3   OH248313   6.578   2.390  14.676 -0.1682 -0.3093 -0.0175
 8941TIP3    H148314   6.508   2.411  14.738  0.7983  0.4414  0.8532
 8941TIP3    H248315   6.601   2.299  14.695 -1.2055 -0.7093 -0.6224
 8942TIP3   OH248316   5.247   5.534   3.320  0.0093 -0.4145 -0.6193
 8942TIP3    H148317   5.154   5.536   3.296 -1.0706  1.7916  3.0006
 8942TIP3    H248318   5.261   5.445   3.352 -1.4714 -0.2200  0.6709
 8943TIP3   OH248319   3.066   2.904  13.881 -0.3959 -0.7995  0.1045
 8943TIP3    H148320   2.975   2.879  13.896 -0.3863 -3.3528 -3.0308
 8943TIP3    H248321   3.117   2.827  13.906  0.7903 -0.0104  0.2247
 8944TIP3   OH248322   6.538   1.857   1.853  0.4937  0.3544 -0.5033
 8944TIP3    H148323   6.581   1.942   1.861  0.6410  0.2089  0.3085
 8944TIP3    H248324   6.548   1.834   1.760  1.1939  0.8362 -0.5559
 8945TIP3   OH248325   0.288   0.083   4.249 -0.3675 -0.4606 -0.1439
 8945TIP3    H148326   0.370   0.037   4.269  0.3224  0.4974 -0.6597
 8945TIP3    H248327   0.263   0.049   4.163 -1.6382 -2.2535  0.8752
 8946TIP3   OH248328   3.067   3.921  15.621 -0.1734 -0.1153  0.1317
 8946TIP3    H148329   3.116   3.903  15.541  0.2224  0.3547  0.2573
 8946TIP3    H248330   3.119   3.988  15.666  1.1312 -2.3044  2.1380
 8947TIP3   OH248331   3.713   4.088  13.506 -0.4020 -0.0844  0.6425
 8947TIP3    H148332   3.674   4.157  13.559 -2.2079 -0.8441  0.3667
 8947TIP3    H248333   3.686   4.007  13.549 -0.5386 -0.6723 -0.5238
 8948TIP3   OH248334   4.662   5.218   1.036 -0.4765 -0.1653 -0.1667
 8948TIP3    H148335   4.651   5.310   1.012 -1.7582 -0.4106 -0.6097
 8948TIP3    H248336   4.709   5.220   1.119 -2.3549  1.0011  0.9446
 8949TIP3   OH248337   2.106   4.840   3.993 -0.1472  0.2787 -0.2847
 8949TIP3    H148338   2.157   4.903   4.044 -1.1846  0.8655  0.0574
 8949TIP3    H248339   2.086   4.770   4.055  0.8195 -0.3193 -0.6086
 8950TIP3   OH248340   0.614   2.052  13.064  0.7074  0.0741 -0.6049
 8950TIP3    H148341   0.660   1.973  13.094 -0.2592 -0.7597 -1.2293
 8950TIP3    H248342   0.521   2.031  13.078  0.4224  0.9527 -1.1374
 8951TIP3   OH248343   4.465   4.060   0.419 -0.1139 -0.1441 -0.9902
 8951TIP3    H148344   4.418   4.143   0.422  0.9623  0.4883 -1.0232
 8951TIP3    H248345   4.499   4.054   0.330 -0.7991 -0.9795 -1.2024
 8952TIP3   OH248346   3.010   0.043  11.262 -0.5712 -0.3341 -0.1072
 8952TIP3    H148347   3.002   0.099  11.185  0.1444 -1.9354 -1.3910
 8952TIP3    H248348   3.100   0.010  11.259 -0.6786 -0.8095  1.1473
 8953TIP3   OH248349   3.748   1.574  11.775  0.4295  0.2462 -0.1828
 8953TIP3    H148350   3.747   1.481  11.799 -2.1984 -0.3250 -2.1129
 8953TIP3    H248351   3.769   1.574  11.682 -3.8593  1.0819 -1.3701
 8954TIP3   OH248352   2.799   4.792  12.689  0.0060  0.2684  0.5247
 8954TIP3    H148353   2.708   4.797  12.659 -0.2678 -0.8669  1.1349
 8954TIP3    H248354   2.829   4.883  12.689 -0.6936  0.5333 -0.9638
 8955TIP3   OH248355   1.414   4.252   1.663 -0.3357 -0.3121 -0.0408
 8955TIP3    H148356   1.370   4.169   1.648  0.2085 -0.4306 -1.1573
 8955TIP3    H248357   1.499   4.228   1.701 -1.5637 -0.0278  3.1343
 8956TIP3   OH248358   1.077   4.407   5.155 -1.0577  0.3108  0.4959
 8956TIP3    H148359   1.115   4.338   5.101 -4.1758 -1.2718  0.0725
 8956TIP3    H248360   1.055   4.476   5.092 -0.0092  0.7260  0.5707
 8957TIP3   OH248361   1.180   4.014  13.789  0.3300 -0.4571 -0.6401
 8957TIP3    H148362   1.147   3.938  13.742  0.0657  0.3817 -1.8602
 8957TIP3    H248363   1.275   4.003  13.790  0.2471 -1.2263 -0.0240
 8958TIP3   OH248364   2.934   4.243   5.733  0.2851  0.2978  0.5894
 8958TIP3    H148365   2.965   4.216   5.646  0.0373 -0.4121  0.7081
 8958TIP3    H248366   2.957   4.169   5.790 -0.1766  0.4589  0.9885
 8959TIP3   OH248367   3.383   4.362   0.980 -0.0354  0.1853 -0.0940
 8959TIP3    H148368   3.312   4.303   0.956  1.5736 -0.8915 -2.5118
 8959TIP3    H248369   3.459   4.306   0.994  0.7875  1.4404  0.8111
 8960TIP3   OH248370   2.114   6.656   2.530 -0.2159 -0.3638  0.1029
 8960TIP3    H148371   2.163   6.693   2.603 -0.0815  0.3367 -0.3352
 8960TIP3    H248372   2.180   6.633   2.465 -0.2476 -1.9081  0.5879
 8961TIP3   OH248373   1.320   1.954  16.765  0.3599  1.1807 -0.0248
 8961TIP3    H148374   1.287   2.040  16.737 -1.2284  0.2970 -0.9652
 8961TIP3    H248375   1.393   1.975  16.823 -0.9973  3.2095  1.0647
 8962TIP3   OH248376   5.397   4.667   2.811  0.6871  0.0085  0.0816
 8962TIP3    H148377   5.333   4.599   2.793 -0.2583  0.4469  1.6353
 8962TIP3    H248378   5.383   4.732   2.743 -1.3422  0.6342  1.0160
 8963TIP3   OH248379   3.983   3.223  10.813  0.0651 -0.4385  0.0340
 8963TIP3    H148380   4.013   3.310  10.788 -0.3686 -0.4883 -0.6928
 8963TIP3    H248381   3.889   3.232  10.823  0.2826 -0.2683  2.3688
 8964TIP3   OH248382   5.503   5.957  11.999 -0.3264 -0.2854 -0.2643
 8964TIP3    H148383   5.450   5.943  12.077  0.7420 -2.3998  0.1569
 8964TIP3    H248384   5.586   5.992  12.032 -0.2292 -0.2409 -0.5497
 8965TIP3   OH248385   5.204   4.848   0.030  0.2920 -0.4885 -0.0363
 8965TIP3    H148386   5.277   4.909   0.022 -0.9176  0.9725 -0.4774
 8965TIP3    H248387   5.186   4.845   0.124 -0.5830  1.0833 -0.1087
 8966TIP3   OH248388   3.581   1.924   5.635 -0.0174 -0.2715 -0.5285
 8966TIP3    H148389   3.490   1.914   5.607 -0.1838  0.2452 -0.1990
 8966TIP3    H248390   3.633   1.896   5.560 -0.4556  1.4936 -1.5560
 8967TIP3   OH248391   4.134   1.647   0.983 -0.0416  0.3406 -0.1851
 8967TIP3    H148392   4.200   1.621   0.919  0.9007  1.6586  0.2065
 8967TIP3    H248393   4.099   1.729   0.949  0.1529  0.8196  0.7337
 8968TIP3   OH248394   4.103   6.110  10.972 -0.3431  0.2667  0.4572
 8968TIP3    H148395   4.030   6.098  10.911  1.4688 -1.1155 -1.5875
 8968TIP3    H248396   4.131   6.200  10.957 -0.4371  0.2011 -0.1559
 8969TIP3   OH248397   3.308   1.669  14.763 -0.4327 -0.0116 -0.2518
 8969TIP3    H148398   3.257   1.598  14.800  1.5062 -1.0104  0.6728
 8969TIP3    H248399   3.282   1.673  14.671 -1.9775 -0.6011  0.1420
 8970TIP3   OH248400   1.377   2.494  10.642 -0.1105  1.0686  0.3624
 8970TIP3    H148401   1.365   2.410  10.596  0.3190 -0.1348  2.3459
 8970TIP3    H248402   1.471   2.498  10.660 -0.3970  1.0592  1.9269
 8971TIP3   OH248403   1.011   2.752   2.786  0.4039  0.0008 -0.0690
 8971TIP3    H148404   1.011   2.666   2.829 -1.1797  0.3622  0.7048
 8971TIP3    H248405   0.934   2.796   2.820 -0.0543  0.9020 -2.1453
 8972TIP3   OH248406   2.541   2.871  15.510  0.1998  0.9743  1.0963
 8972TIP3    H148407   2.585   2.791  15.537 -1.6604  0.2524  2.1914
 8972TIP3    H248408   2.528   2.920  15.592 -0.7224  1.2933  0.7760
 8973TIP3   OH248409   2.333   5.920  14.254  0.0795 -0.2556  0.2428
 8973TIP3    H148410   2.254   5.913  14.201  0.2202  2.0181 -0.3672
 8973TIP3    H248411   2.398   5.957  14.196  1.2177 -0.8097  1.1216
 8974TIP3   OH248412   3.205   2.017  13.660  0.1283  0.4823  0.2971
 8974TIP3    H148413   3.150   2.088  13.694 -1.2384 -1.6575  3.0105
 8974TIP3    H248414   3.264   1.996  13.733 -0.8680 -2.3709  0.4036
 8975TIP3   OH248415   2.798   2.003   3.004 -0.0126 -0.3207 -0.2984
 8975TIP3    H148416   2.761   1.971   3.086 -0.6726  1.3639  0.0997
 8975TIP3    H248417   2.823   2.094   3.022  0.1290 -0.0123 -1.8654
 8976TIP3   OH248418   1.757   6.556  14.972 -0.6406 -0.7053 -0.0922
 8976TIP3    H148419   1.691   6.492  14.945  0.9017 -2.7788  0.7523
 8976TIP3    H248420   1.795   6.519  15.051  1.5473  0.4032 -0.5554
 8977TIP3   OH248421   3.414   0.701   4.505 -0.5417 -0.1372 -0.0974
 8977TIP3    H148422   3.404   0.608   4.483  0.2217 -1.0361  2.9573
 8977TIP3    H248423   3.480   0.733   4.444 -1.2418 -1.4104 -1.5988
 8978TIP3   OH248424   2.745   2.809  11.916 -0.3491 -0.0487  0.1201
 8978TIP3    H148425   2.747   2.846  12.004  1.5683 -1.0777  0.5831
 8978TIP3    H248426   2.718   2.881  11.860  1.0220  1.4127  1.2391
 8979TIP3   OH248427   1.619   6.264  15.276 -0.1402  0.2428  0.5157
 8979TIP3    H148428   1.695   6.208  15.261  0.3955  0.8935  0.7356
 8979TIP3    H248429   1.597   6.298  15.189 -0.7157 -0.6049  0.3171
 8980TIP3   OH248430   3.107   3.030   4.695 -0.5968  0.2839 -0.4315
 8980TIP3    H148431   3.181   2.973   4.716  0.0165  1.4948  0.8499
 8980TIP3    H248432   3.065   2.988   4.620 -0.1370 -1.7995  0.4308
 8981TIP3   OH248433   4.540   0.425  14.917 -0.2218  0.0923 -0.1998
 8981TIP3    H148434   4.485   0.384  14.849  0.0673  0.1500 -0.4670
 8981TIP3    H248435   4.615   0.366  14.925 -0.6876 -0.3986  0.7138
 8982TIP3   OH248436   5.363   3.820   5.054 -0.1597 -0.5714 -0.3261
 8982TIP3    H148437   5.349   3.877   4.978  0.2219  0.1116  0.1060
 8982TIP3    H248438   5.310   3.742   5.035 -2.1875  0.6638 -0.1161
 8983TIP3   OH248439   5.732   6.480  10.464 -0.5752  0.7987 -0.6913
 8983TIP3    H148440   5.667   6.509  10.528 -1.3573 -1.9445 -0.0890
 8983TIP3    H248441   5.798   6.549  10.463 -1.4345  1.7629  1.7407
 8984TIP3   OH248442   5.418   5.994  15.312  0.5202 -0.0866  0.3251
 8984TIP3    H148443   5.463   5.909  15.304  0.2169 -0.2121 -0.0844
 8984TIP3    H248444   5.380   5.992  15.400 -1.4181 -1.3535 -0.4780
 8985TIP3   OH248445   6.823   6.477   2.376  0.3525  0.0962 -0.3607
 8985TIP3    H148446   6.735   6.511   2.395  0.6560 -0.7201  3.2007
 8985TIP3    H248447   6.837   6.499   2.284 -3.8601 -0.3899 -1.3653
 8986TIP3   OH248448   2.529   5.557   4.808 -0.0009 -0.6707  0.8139
 8986TIP3    H148449   2.557   5.501   4.736  0.3714 -0.4805  0.8092
 8986TIP3    H248450   2.447   5.518   4.839 -0.0219 -0.9041  0.4615
 8987TIP3   OH248451   2.331   2.222  12.923 -0.6120 -0.2254 -0.0112
 8987TIP3    H148452   2.236   2.209  12.913 -0.5929 -1.9255  1.4324
 8987TIP3    H248453   2.339   2.287  12.992 -0.7001  0.9718 -1.0982
 8988TIP3   OH248454   3.859   0.328  11.234  0.3779 -0.3905  0.3655
 8988TIP3    H148455   3.852   0.376  11.151  2.0746  1.8938  1.4433
 8988TIP3    H248456   3.928   0.264  11.219 -0.4465 -1.1169 -0.4491
 8989TIP3   OH248457   4.006   5.446   6.039 -0.5060 -0.6631 -0.0982
 8989TIP3    H148458   4.000   5.362   6.085  0.4405 -0.9556 -0.4718
 8989TIP3    H248459   4.008   5.512   6.108 -2.0158 -0.8775  0.1803
 8990TIP3   OH248460   1.931   5.974   3.421 -0.2841  0.4415 -0.4979
 8990TIP3    H148461   1.954   5.946   3.509  0.6285  1.8763 -0.2516
 8990TIP3    H248462   2.013   5.970   3.372 -0.4127  1.3459 -0.7983
 8991TIP3   OH248463   5.089   3.693  11.331 -0.5780  0.0626 -0.5547
 8991TIP3    H148464   5.176   3.688  11.291  0.9130  1.5426  2.2424
 8991TIP3    H248465   5.087   3.620  11.393 -0.4475  1.2810  0.9194
 8992TIP3   OH248466   0.825   0.617   4.869 -0.0987 -0.0189 -0.4928
 8992TIP3    H148467   0.877   0.557   4.815 -0.6547 -0.1810 -0.8718
 8992TIP3    H248468   0.744   0.629   4.818 -0.4681  0.1408  0.1239
 8993TIP3   OH248469   5.898   0.501  13.234  0.0765  0.0233 -0.6240
 8993TIP3    H148470   5.935   0.472  13.151  0.2453  0.0649 -0.5638
 8993TIP3    H248471   5.972   0.543  13.279 -0.2024  0.7212 -0.7958
 8994TIP3   OH248472   5.632   1.969   4.207 -0.2253  0.4838 -0.4410
 8994TIP3    H148473   5.684   2.049   4.214  0.4223 -0.0723  3.5886
 8994TIP3    H248474   5.697   1.899   4.204 -0.7433 -0.0376  0.2687
 8995TIP3   OH248475   6.372   2.007   3.923 -0.1334 -0.7429 -0.9944
 8995TIP3    H148476   6.330   1.942   3.979  0.8745  0.7317  1.6453
 8995TIP3    H248477   6.304   2.074   3.910  0.2404 -0.0683  0.3214
 8996TIP3   OH248478   0.306   4.076  11.399 -0.3266  0.3798  0.3088
 8996TIP3    H148479   0.215   4.099  11.419 -0.0381  2.1314 -0.2232
 8996TIP3    H248480   0.309   4.071  11.304 -0.0276 -0.4110  0.3601
 8997TIP3   OH248481   2.308   3.975   1.773 -0.3210  0.2807  0.0712
 8997TIP3    H148482   2.283   4.067   1.771 -0.6848  0.1777 -0.9972
 8997TIP3    H248483   2.321   3.952   1.681 -2.1305 -1.2305  0.1227
 8998TIP3   OH248484   4.084   1.043  14.619 -0.3428 -0.1777 -0.2983
 8998TIP3    H148485   4.138   1.033  14.540 -0.2597  0.0448 -0.2707
 8998TIP3    H248486   4.106   1.130  14.652 -0.5277 -0.1895 -0.1421
 8999TIP3   OH248487   3.874   4.954  14.099  0.2163 -0.0184  0.0658
 8999TIP3    H148488   3.840   5.043  14.109  0.8449  0.3530 -0.9646
 8999TIP3    H248489   3.968   4.962  14.111  0.4035 -0.3582 -1.0388
 9000TIP3   OH248490   5.773   1.590   2.846  0.1461 -0.7261 -0.1771
 9000TIP3    H148491   5.854   1.639   2.859  0.3111 -1.2340  0.8383
 9000TIP3    H248492   5.781   1.553   2.758 -0.1828  1.3867 -1.1594
 9001TIP3   OH248493   0.752   3.385  17.023 -0.4338  0.8493  0.3471
 9001TIP3    H148494   0.765   3.460  16.964 -0.8307  0.8938  0.3094
 9001TIP3    H248495   0.692   3.328  16.975 -0.9211  0.9835  0.7919
 9002TIP3   OH248496   1.567   2.876   3.714  0.3170  0.6383  0.1767
 9002TIP3    H148497   1.650   2.830   3.704 -0.3792 -0.1693 -2.4411
 9002TIP3    H248498   1.584   2.964   3.681  0.1800  0.5163 -0.2236
 9003TIP3   OH248499   1.381   3.224   5.548  0.0123  0.7321  0.1881
 9003TIP3    H148500   1.344   3.224   5.637  0.3917 -0.0951  0.3568
 9003TIP3    H248501   1.446   3.294   5.549 -0.5771  1.2872  0.3016
 9004TIP3   OH248502   5.104   4.679  15.269  0.0182  0.8798  0.1949
 9004TIP3    H148503   5.044   4.697  15.197 -0.8411  0.3938  0.7727
 9004TIP3    H248504   5.161   4.756  15.272  0.5549  0.5870 -1.4613
 9005TIP3   OH248505   0.101   6.331   4.955 -0.0079 -0.1996 -0.1937
 9005TIP3    H148506   0.170   6.265   4.966 -1.5769 -2.2717 -1.8651
 9005TIP3    H248507   0.134   6.408   5.001  3.2672 -1.1721 -0.6683
 9006TIP3   OH248508   2.243   4.712   5.803  0.8148 -0.3427 -0.3863
 9006TIP3    H148509   2.180   4.768   5.849  0.3202 -0.5441 -0.8089
 9006TIP3    H248510   2.299   4.677   5.873  1.7408  1.4151 -0.2144
 9007TIP3   OH248511   4.569   0.471   3.284  0.1318 -0.1126  0.3377
 9007TIP3    H148512   4.515   0.403   3.323  1.1035 -0.6568  0.7725
 9007TIP3    H248513   4.599   0.434   3.201  0.7132 -0.2473  0.6033
 9008TIP3   OH248514   5.096   3.589   3.217  0.1491  0.0660  0.3201
 9008TIP3    H148515   5.118   3.623   3.130 -0.2168 -1.8126 -0.5694
 9008TIP3    H248516   5.001   3.602   3.225 -0.1259 -1.3340 -0.3462
 9009TIP3   OH248517   0.272   6.109   2.357  0.1943  0.1689  0.6290
 9009TIP3    H148518   0.308   6.108   2.268 -1.2982 -1.6902 -0.0262
 9009TIP3    H248519   0.336   6.064   2.410  1.3506  1.7563  0.6612
 9010TIP3   OH248520   6.143   4.439   4.079 -0.2879 -0.8202  0.4040
 9010TIP3    H148521   6.191   4.483   4.009  1.0668  0.0768  1.8195
 9010TIP3    H248522   6.132   4.349   4.049 -1.0419 -0.1072 -1.5659
 9011TIP3   OH248523   6.576   3.826  14.771 -0.3208  0.4871 -0.5322
 9011TIP3    H148524   6.632   3.902  14.756  0.9385 -0.4242 -0.5710
 9011TIP3    H248525   6.514   3.855  14.838  0.9753  1.1501  0.4329
 9012TIP3   OH248526   2.129   2.406  14.348  0.4722  0.2347 -0.1321
 9012TIP3    H148527   2.072   2.450  14.285 -0.8278 -0.2456  0.6726
 9012TIP3    H248528   2.084   2.324  14.368  0.9273  0.2995  1.2759
 9013TIP3   OH248529   2.765   3.868   4.528  0.6438 -0.6680  0.3446
 9013TIP3    H148530   2.787   3.778   4.551 -0.3614 -0.4042  2.5343
 9013TIP3    H248531   2.811   3.922   4.592 -2.6902  0.0789  2.3257
 9014TIP3   OH248532   0.309   1.464   5.635 -0.7718  0.7244 -0.0276
 9014TIP3    H148533   0.285   1.498   5.548  1.4013  2.2171 -0.1432
 9014TIP3    H248534   0.258   1.517   5.696 -1.3625  0.5524 -0.3709
 9015TIP3   OH248535   4.270   4.089   3.356 -0.3041  0.4824 -0.1895
 9015TIP3    H148536   4.288   4.173   3.314 -1.6573  0.2692 -1.2341
 9015TIP3    H248537   4.186   4.102   3.400 -0.0440 -0.0406  0.4850
 9016TIP3   OH248538   3.484   6.245  15.673 -0.6063 -0.0314  0.0607
 9016TIP3    H148539   3.532   6.203  15.601 -1.2136  0.1504 -0.4554
 9016TIP3    H248540   3.400   6.200  15.676 -0.3167 -0.5489  1.1622
 9017TIP3   OH248541   4.649   5.011   4.745 -0.1566  0.2013  0.1120
 9017TIP3    H148542   4.741   5.021   4.719  0.3003 -1.1535  1.1297
 9017TIP3    H248543   4.601   5.011   4.662  1.1356 -2.8189 -0.7836
 9018TIP3   OH248544   5.358   2.895  13.880  0.3237  0.1526  0.6192
 9018TIP3    H148545   5.344   2.865  13.970 -1.6284 -1.7821 -0.2452
 9018TIP3    H248546   5.384   2.816  13.832  0.2100  0.9110 -0.7454
 9019TIP3   OH248547   6.458   0.719  12.531 -0.1844 -0.0819 -0.0241
 9019TIP3    H148548   6.496   0.658  12.594  0.5286  1.0482  0.6686
 9019TIP3    H248549   6.442   0.799  12.581 -2.9952 -0.3123 -0.4100
 9020TIP3   OH248550   4.493   1.700  13.891 -0.0125 -0.0943  0.1947
 9020TIP3    H148551   4.399   1.706  13.907  0.1446  0.9970  0.7953
 9020TIP3    H248552   4.500   1.671  13.800 -0.9351  1.0580 -0.2686
 9021TIP3   OH248553   2.603   3.522  16.750 -0.1778  0.0439 -0.0085
 9021TIP3    H148554   2.606   3.500  16.843  0.6428 -0.9106 -0.2468
 9021TIP3    H248555   2.528   3.473  16.717  0.7484 -1.2529 -0.2396
 9022TIP3   OH248556   5.982   1.743   3.019  0.3710  0.1596 -0.5163
 9022TIP3    H148557   6.030   1.809   2.969  1.8088 -1.5740 -1.5333
 9022TIP3    H248558   6.049   1.688   3.058 -0.7593 -1.2638 -0.4868
 9023TIP3   OH248559   4.309   5.589  12.526  0.3028  0.6105 -0.2936
 9023TIP3    H148560   4.219   5.619  12.542  0.2884 -0.1064  1.1150
 9023TIP3    H248561   4.298   5.501  12.489  0.4289  0.5632 -0.2166
 9024TIP3   OH248562   4.417   3.902  12.569  0.1993  0.4886 -0.0014
 9024TIP3    H148563   4.456   3.851  12.498 -3.0113 -2.0056 -0.2199
 9024TIP3    H248564   4.344   3.948  12.528 -0.7134  0.3093  1.3913
 9025TIP3   OH248565   5.217   1.534   2.160  0.0091  0.2827  0.3516
 9025TIP3    H148566   5.287   1.583   2.203  0.7152  0.2472 -0.7074
 9025TIP3    H248567   5.185   1.594   2.092 -2.4720  1.1395  2.1426
 9026TIP3   OH248568   0.037   1.398   5.360 -0.3414 -0.2213 -0.1595
 9026TIP3    H148569   0.069   1.312   5.389  2.0993  0.2267 -1.2665
 9026TIP3    H248570   0.063   1.403   5.268  0.2163  1.9659  0.0746
 9027TIP3   OH248571   4.575   5.302  16.759  0.1094 -0.1101 -0.1517
 9027TIP3    H148572   4.572   5.389  16.718  1.1447 -0.3663 -0.8073
 9027TIP3    H248573   4.649   5.259  16.718 -1.5274 -2.0356 -1.2404
 9028TIP3   OH248574   3.593   3.017  15.868  0.0878  0.1623  0.6249
 9028TIP3    H148575   3.587   3.073  15.945  1.1205 -0.0848  0.8871
 9028TIP3    H248576   3.502   3.010  15.837 -0.1222  1.6360  0.8230
 9029TIP3   OH248577   4.143   3.261  11.506 -0.1683 -0.3856  0.4253
 9029TIP3    H148578   4.156   3.348  11.544 -1.0919 -0.6395  1.3799
 9029TIP3    H248579   4.057   3.234  11.537 -0.3637 -1.1946 -0.7711
 9030TIP3   OH248580   6.170   3.093   0.159 -0.3482  0.3539 -0.7200
 9030TIP3    H148581   6.099   3.148   0.192  1.2145  0.8585  2.0986
 9030TIP3    H248582   6.153   3.007   0.197 -0.3671  0.0250 -1.4617
 9031TIP3   OH248583   3.598   3.538  16.357 -0.2888 -0.6099 -0.0703
 9031TIP3    H148584   3.518   3.541  16.305  0.1840 -1.0769 -0.8419
 9031TIP3    H248585   3.568   3.519  16.446 -1.2212  1.5123  0.1274
 9032TIP3   OH248586   5.613   5.172  13.121 -0.5120  0.0857 -0.2094
 9032TIP3    H148587   5.534   5.142  13.165  0.0756 -0.2379  0.6467
 9032TIP3    H248588   5.661   5.092  13.101  0.5384  0.3636  1.0824
 9033TIP3   OH248589   6.759   5.242  15.730  0.6894  0.1539  0.1468
 9033TIP3    H148590   6.781   5.226  15.638  2.5400  0.9726  0.4051
 9033TIP3    H248591   6.828   5.301  15.762 -0.1713  0.2668  1.9407
 9034TIP3   OH248592   3.983   1.302  14.419 -0.3143  0.6320 -0.5687
 9034TIP3    H148593   4.017   1.362  14.485 -1.1588  0.8894 -0.3518
 9034TIP3    H248594   3.939   1.359  14.356 -0.6814  0.2863 -0.6279
 9035TIP3   OH248595   1.296   6.810  12.875  0.1287 -0.0042  1.2046
 9035TIP3    H148596   1.344   6.732  12.901 -0.5611 -1.3824 -1.2961
 9035TIP3    H248597   1.206   6.793  12.903  0.1363  0.2602  1.3903
 9036TIP3   OH248598   4.183   5.219   2.159 -0.6303 -0.6275  0.0941
 9036TIP3    H148599   4.141   5.177   2.234  0.7460  0.1882  1.3715
 9036TIP3    H248600   4.112   5.266   2.115 -1.5867 -1.6873  0.4558
 9037TIP3   OH248601   3.888   0.364  15.829  0.2211 -0.0308 -0.2417
 9037TIP3    H148602   3.889   0.459  15.842  0.8371  0.0970 -1.1324
 9037TIP3    H248603   3.819   0.333  15.888  1.2051  0.7474  1.4220
 9038TIP3   OH248604   1.166   0.174   3.581  0.2036 -0.3761  0.1928
 9038TIP3    H148605   1.168   0.269   3.591  2.4682  0.1568 -3.5482
 9038TIP3    H248606   1.253   0.145   3.610  0.5662 -0.9019 -1.3630
 9039TIP3   OH248607   6.751   6.651   4.995 -0.0925 -0.1040 -0.5248
 9039TIP3    H148608   6.701   6.593   5.053 -1.6253  1.9994  0.3883
 9039TIP3    H248609   6.815   6.692   5.053  0.0950  0.1015 -0.8813
 9040TIP3   OH248610   3.102   2.236   5.240  0.0732 -0.0907 -0.0159
 9040TIP3    H148611   3.062   2.266   5.322  1.4961  0.2351  0.5760
 9040TIP3    H248612   3.028   2.228   5.179 -0.8791  0.5813  1.0201
 9041TIP3   OH248613   6.214   1.773  11.379 -0.0172 -0.2476 -0.4283
 9041TIP3    H148614   6.279   1.710  11.345  1.1577 -0.3409  1.7873
 9041TIP3    H248615   6.261   1.856  11.382 -0.3473 -0.0748  0.1307
 9042TIP3   OH248616   2.141   4.506  13.658  0.1977  0.4997 -0.0250
 9042TIP3    H148617   2.115   4.495  13.749  0.7805  0.3886  0.1368
 9042TIP3    H248618   2.207   4.437  13.644 -0.8138 -0.3223 -0.9084
 9043TIP3   OH248619   4.444   3.308  10.951 -0.2410  0.2666 -0.3112
 9043TIP3    H148620   4.497   3.305  10.872  0.2734 -0.5115  0.0516
 9043TIP3    H248621   4.400   3.223  10.953  0.9318 -0.3438  1.0213
 9044TIP3   OH248622   0.916   6.240   2.573  0.9588 -0.3105 -0.3107
 9044TIP3    H148623   0.868   6.205   2.498 -1.5378  1.6705  0.2343
 9044TIP3    H248624   0.893   6.332   2.576  3.2523  0.3042  1.2770
 9045TIP3   OH248625   4.206   0.409   0.239  0.8068  0.2910  0.1018
 9045TIP3    H148626   4.196   0.462   0.161  1.2014  0.0503 -0.1176
 9045TIP3    H248627   4.300   0.391   0.244  0.4963 -2.0345 -0.9436
 9046TIP3   OH248628   0.484   2.212   2.662  0.6987 -0.0030  0.1275
 9046TIP3    H148629   0.511   2.123   2.688  1.9760  0.1114 -0.7024
 9046TIP3    H248630   0.433   2.244   2.736  0.9989 -1.0914  0.8361
 9047TIP3   OH248631   2.782   6.609   6.294  0.3083 -0.3125 -0.2090
 9047TIP3    H148632   2.858   6.600   6.351  0.3214 -0.4958 -0.2564
 9047TIP3    H248633   2.724   6.669   6.341  0.4741 -0.1847 -0.1648
 9048TIP3   OH248634   0.503   1.497  16.759 -0.1247  0.2493  0.2623
 9048TIP3    H148635   0.453   1.575  16.781  1.3453  1.4674 -0.5379
 9048TIP3    H248636   0.553   1.521  16.681  1.9695 -0.7577  1.2076
 9049TIP3   OH248637   2.976   6.024   5.266 -0.0866 -0.6896 -0.2317
 9049TIP3    H148638   3.000   6.110   5.232 -0.7721  1.1462  3.5142
 9049TIP3    H248639   3.057   5.989   5.304  0.1058 -1.6250 -1.4211
 9050TIP3   OH248640   3.387   2.603   5.026 -0.3023  0.1517 -0.0872
 9050TIP3    H148641   3.433   2.655   4.959  1.6697 -2.2122 -0.7261
 9050TIP3    H248642   3.422   2.635   5.109  2.3838 -1.2822 -0.5424
 9051TIP3   OH248643   0.069   3.435  15.121 -0.7756  0.5242  0.0255
 9051TIP3    H148644   0.042   3.357  15.170  1.7234 -0.0183  0.6777
 9051TIP3    H248645  -0.008   3.459  15.070 -1.8316 -1.9973  0.2771
 9052TIP3   OH248646   2.996   0.170  11.803  0.1034 -0.1646 -0.4817
 9052TIP3    H148647   2.940   0.097  11.830 -1.8497  1.7916  1.1314
 9052TIP3    H248648   3.003   0.160  11.708 -2.2635 -1.0666 -0.6470
 9053TIP3   OH248649   4.281   0.256   3.932 -0.2896  0.3081  0.1070
 9053TIP3    H148650   4.192   0.240   3.965 -0.9722  0.7406 -1.4389
 9053TIP3    H248651   4.315   0.169   3.913 -2.1029  0.1885 -3.4864
 9054TIP3   OH248652   2.545   3.932  12.103 -0.0286  0.4762 -0.0355
 9054TIP3    H148653   2.485   3.871  12.061  0.9909  0.0190 -0.8760
 9054TIP3    H248654   2.627   3.884  12.110 -0.1212  0.5437  2.4991
 9055TIP3   OH248655   4.844   1.031   2.747 -0.7190 -0.2999 -0.0601
 9055TIP3    H148656   4.844   1.125   2.766 -1.7959 -0.1969 -0.4931
 9055TIP3    H248657   4.936   1.006   2.753 -0.4558  0.7054  0.4228
 9056TIP3   OH248658   0.105   1.118   5.462  0.0078  0.4185  0.2523
 9056TIP3    H148659   0.185   1.065   5.464 -1.6165 -2.2350 -0.8419
 9056TIP3    H248660   0.087   1.137   5.554  1.6550  0.7791  0.5395
 9057TIP3   OH248661   6.183   5.074   0.789  0.0495  0.3473  0.0030
 9057TIP3    H148662   6.209   5.030   0.708 -0.3937 -0.2057  0.1532
 9057TIP3    H248663   6.220   5.020   0.859  1.4932  1.4854  0.1831
 9058TIP3   OH248664   2.700   2.445  14.265  0.2979  0.4103  0.0462
 9058TIP3    H148665   2.717   2.393  14.186  0.8938  1.8256 -0.7977
 9058TIP3    H248666   2.625   2.499  14.242  2.4398  3.2386 -0.8584
 9059TIP3   OH248667   6.405   3.425   5.159  0.4345  0.0203 -0.9160
 9059TIP3    H148668   6.485   3.475   5.172  0.7934 -0.2924 -1.7741
 9059TIP3    H248669   6.352   3.441   5.237  0.6651  1.4711 -1.0308
 9060TIP3   OH248670   4.961   6.611  15.140  0.1565 -0.5168 -0.3245
 9060TIP3    H148671   5.049   6.594  15.107  0.3372  0.4940 -0.4108
 9060TIP3    H248672   4.966   6.590  15.233  0.3684 -0.8757 -0.4149
 9061TIP3   OH248673   2.652   2.639  12.111 -0.2869 -0.6285 -0.3303
 9061TIP3    H148674   2.651   2.680  12.024 -0.0011 -3.7744 -1.9733
 9061TIP3    H248675   2.713   2.691  12.162 -0.4630  1.3276 -1.9928
 9062TIP3   OH248676   1.236   4.213   6.603 -0.3414  0.0536 -0.0281
 9062TIP3    H148677   1.223   4.136   6.660 -1.4243  1.7811  2.2330
 9062TIP3    H248678   1.147   4.240   6.580 -0.1674  2.0189  1.3144
 9063TIP3   OH248679   3.199   1.199  13.672  0.0967  0.5342 -0.0929
 9063TIP3    H148680   3.125   1.148  13.637 -0.0052  1.4901 -1.3359
 9063TIP3    H248681   3.262   1.202  13.601 -0.0572  2.4357 -0.1940
 9064TIP3   OH248682   5.169   4.071  14.761 -0.4785 -0.6591  0.3277
 9064TIP3    H148683   5.257   4.037  14.742  0.2103  0.6839  0.9661
 9064TIP3    H248684   5.125   4.071  14.676  1.4097  2.0892 -0.7955
 9065TIP3   OH248685   5.053   3.455  15.740 -0.4965 -0.1649  0.5488
 9065TIP3    H148686   5.095   3.411  15.665  0.0062  2.3030 -0.7292
 9065TIP3    H248687   4.970   3.410  15.750  0.4131 -2.0844  0.0433
 9066TIP3   OH248688   2.771   0.396   1.685  0.1686 -0.2385 -0.5500
 9066TIP3    H148689   2.747   0.389   1.592 -1.6801 -0.2703 -0.1084
 9066TIP3    H248690   2.816   0.479   1.692 -0.3356  0.1195 -1.3707
 9067TIP3   OH248691   6.504   3.028   1.973  0.0566 -0.4672  0.1455
 9067TIP3    H148692   6.434   3.071   1.926 -1.6153  0.6344  3.3345
 9067TIP3    H248693   6.584   3.074   1.947 -1.0040  1.1272 -0.3895
 9068TIP3   OH248694   5.187   0.425   5.633 -0.2978  0.3158  0.1465
 9068TIP3    H148695   5.205   0.490   5.700 -2.1208  0.2982  0.7245
 9068TIP3    H248696   5.218   0.342   5.671 -0.3322  0.4666  0.5056
 9069TIP3   OH248697   1.873   6.817  15.610 -0.0187 -0.2640  0.2656
 9069TIP3    H148698   1.847   6.886  15.672  0.0526 -2.3376  2.7607
 9069TIP3    H248699   1.968   6.812  15.619  0.0622 -0.1850 -0.4995
 9070TIP3   OH248700   3.350   1.495   4.662  0.2476  0.0604 -0.9611
 9070TIP3    H148701   3.285   1.559   4.632 -1.8145 -1.5556 -0.2098
 9070TIP3    H248702   3.434   1.539   4.650 -0.9711  2.3720 -1.7295
 9071TIP3   OH248703   3.293   0.973  13.479 -0.0034 -0.8081 -0.7124
 9071TIP3    H148704   3.296   0.937  13.391 -0.8197 -0.3633 -0.9265
 9071TIP3    H248705   3.317   1.065  13.468 -1.6031 -0.3674 -0.6942
 9072TIP3   OH248706   2.868   4.399   1.260  0.5337  0.0777 -0.1249
 9072TIP3    H148707   2.870   4.314   1.303 -0.3158 -0.1503 -0.5165
 9072TIP3    H248708   2.779   4.430   1.272  0.5751  0.4835 -0.7991
 9073TIP3   OH248709   4.021   6.612  14.350 -0.2327 -0.3601  0.7416
 9073TIP3    H148710   4.045   6.606  14.443 -0.6992  0.0412  0.8969
 9073TIP3    H248711   4.034   6.524  14.316 -2.2856 -1.1309  1.7555
 9074TIP3   OH248712   1.291   0.847  11.894 -0.5639 -0.3513 -0.0855
 9074TIP3    H148713   1.198   0.825  11.900 -0.3176 -1.9154 -1.2617
 9074TIP3    H248714   1.293   0.926  11.839 -1.1508 -0.9256 -0.9562
 9075TIP3   OH248715   3.576   5.325  12.826 -0.0426  0.4476 -0.1745
 9075TIP3    H148716   3.522   5.401  12.803 -0.6574  0.6814  1.8289
 9075TIP3    H248717   3.605   5.343  12.916  1.9380 -0.5026 -0.5710
 9076TIP3   OH248718   0.380   3.670  11.673 -0.0810 -0.0416 -0.2222
 9076TIP3    H148719   0.425   3.754  11.685 -0.3161 -0.0500  0.8441
 9076TIP3    H248720   0.415   3.615  11.743 -0.7806 -0.4687 -0.2050
 9077TIP3   OH248721   2.999   5.148  11.203  0.0212 -0.5791  0.1837
 9077TIP3    H148722   2.951   5.170  11.123  0.0819 -2.8165 -0.5449
 9077TIP3    H248723   2.944   5.182  11.274 -1.3424 -0.8166 -0.7253
 9078TIP3   OH248724   3.908   4.979   0.614  0.2122  0.5591  0.7150
 9078TIP3    H148725   3.886   4.892   0.648  0.8969  0.3970  0.7496
 9078TIP3    H248726   3.992   5.000   0.654 -0.3413  1.6066  1.3669
 9079TIP3   OH248727   1.436   3.552  16.089 -0.2453  0.0775  0.1979
 9079TIP3    H148728   1.347   3.566  16.124 -0.3553 -0.4408  0.1376
 9079TIP3    H248729   1.488   3.622  16.127 -1.0343  1.4263 -1.1073
 9080TIP3   OH248730   6.024   2.974  16.238  0.4901  0.0917 -0.2687
 9080TIP3    H148731   6.112   3.006  16.256  0.4694  0.6297 -1.0612
 9080TIP3    H248732   6.035   2.881  16.219  0.7656 -0.0331  0.4775
 9081TIP3   OH248733   3.133   0.627   5.171  0.7600  1.0943  0.1411
 9081TIP3    H148734   3.047   0.661   5.196 -0.4104 -1.1762 -0.4798
 9081TIP3    H248735   3.167   0.586   5.251 -0.1596 -0.6812 -0.3373
 9082TIP3   OH248736   5.828   4.020   0.053 -0.1067 -0.0890 -0.2742
 9082TIP3    H148737   5.844   3.996   0.145 -1.8252  0.3018  0.1560
 9082TIP3    H248738   5.869   4.107   0.045  0.3270 -0.2577  0.0252
 9083TIP3   OH248739   4.743   2.778  11.948  0.0114 -0.0360 -0.4802
 9083TIP3    H148740   4.753   2.713  12.017  4.2883  1.9800  1.1572
 9083TIP3    H248741   4.756   2.729  11.867  0.8599 -1.5729  0.5423
 9084TIP3   OH248742   0.629   0.304   5.251 -0.7132  0.1895 -0.1993
 9084TIP3    H148743   0.724   0.304   5.256 -0.6157  0.7385 -1.5564
 9084TIP3    H248744   0.604   0.212   5.257 -0.1727  0.0962  0.9525
 9085TIP3   OH248745   3.511   2.940   6.299 -0.8446 -0.5167 -0.8071
 9085TIP3    H148746   3.541   2.985   6.378 -1.3983 -2.1693  0.4028
 9085TIP3    H248747   3.431   2.986   6.274 -1.8291 -1.2350  0.8540
 9086TIP3   OH248748   1.172   1.997  14.570  0.3221 -0.1040  0.0352
 9086TIP3    H148749   1.148   1.971  14.659  0.4622 -0.8950 -0.1491
 9086TIP3    H248750   1.248   1.942  14.549 -0.1182 -0.4029 -0.8091
 9087TIP3   OH248751   0.967   6.499   4.673  0.1023  0.1707  0.4073
 9087TIP3    H148752   0.939   6.590   4.682 -0.2641  0.1761 -0.6072
 9087TIP3    H248753   0.980   6.468   4.763 -0.4783  1.0032  0.7885
 9088TIP3   OH248754   6.530   1.638   4.534  0.3932 -0.0927 -0.0074
 9088TIP3    H148755   6.616   1.624   4.493  0.3590  1.5397 -0.7291
 9088TIP3    H248756   6.533   1.728   4.564 -1.3950  0.2968 -0.8839
 9089TIP3   OH248757   6.079   6.076   0.724 -0.0276  0.3723  0.5714
 9089TIP3    H148758   6.120   6.134   0.660  0.3846 -1.4415 -0.8938
 9089TIP3    H248759   6.143   6.007   0.738 -1.0928 -0.5244  1.1376
 9090TIP3   OH248760   2.279   4.734  10.660  0.1911 -0.0068 -0.7491
 9090TIP3    H148761   2.298   4.675  10.733  1.1870  0.2889 -0.7466
 9090TIP3    H248762   2.209   4.791  10.692 -0.3224 -0.7542 -0.5194
 9091TIP3   OH248763   1.703   6.098   4.263  0.3271  0.3090 -0.4962
 9091TIP3    H148764   1.641   6.136   4.200  1.9899  1.5428 -1.4661
 9091TIP3    H248765   1.681   6.141   4.346 -1.6767 -1.0995 -0.2226
 9092TIP3   OH248766   2.794   1.645   1.134  0.0599 -0.0801  0.1523
 9092TIP3    H148767   2.722   1.681   1.186 -1.0376 -2.1250  0.1597
 9092TIP3    H248768   2.834   1.579   1.190 -0.9469 -2.1226 -1.3886
 9093TIP3   OH248769   1.775   2.574  11.039  0.9896  0.2114  0.0090
 9093TIP3    H148770   1.742   2.610  10.957  0.0847  1.1049  0.7462
 9093TIP3    H248771   1.748   2.483  11.038  2.6363 -0.3216 -1.5309
 9094TIP3   OH248772   6.370   3.611  16.494  0.3964  0.7362  0.0768
 9094TIP3    H148773   6.430   3.633  16.423  0.3879  1.0446  0.1676
 9094TIP3    H248774   6.426   3.607  16.572  0.3531  0.7039  0.1072
 9095TIP3   OH248775   6.216   2.337  16.753  0.5436 -0.2090 -0.0382
 9095TIP3    H148776   6.308   2.336  16.730  1.0598  0.2347  1.8455
 9095TIP3    H248777   6.193   2.430  16.756  0.5369 -0.2316  1.2340
 9096TIP3   OH248778   0.817   2.201   0.167  0.6638 -0.1929  0.4240
 9096TIP3    H148779   0.745   2.236   0.220 -0.9449 -0.6014 -1.4011
 9096TIP3    H248780   0.809   2.106   0.177 -0.9697 -0.4019 -2.0532
 9097TIP3   OH248781   3.769   4.046   1.164 -0.0611 -0.2732 -0.6030
 9097TIP3    H148782   3.737   4.039   1.254 -1.8725 -1.3526 -1.2729
 9097TIP3    H248783   3.864   4.041   1.171 -0.2115 -1.1431  1.1814
 9098TIP3   OH248784   4.857   5.844   0.801 -0.2328 -0.1727  0.0453
 9098TIP3    H148785   4.902   5.923   0.773  0.0826 -0.4538 -0.2642
 9098TIP3    H248786   4.920   5.773   0.783 -0.8182 -0.5783 -0.4554
 9099TIP3   OH248787   5.220   6.649  17.161  0.0515  0.0370  0.1926
 9099TIP3    H148788   5.249   6.630  17.072 -2.1200  2.7864 -1.2623
 9099TIP3    H248789   5.274   6.593  17.217  0.5296 -2.8714 -2.8835
 9100TIP3   OH248790   4.247   2.943  11.648 -0.0594 -0.0922 -0.4942
 9100TIP3    H148791   4.311   3.013  11.660  1.0204 -0.8743 -1.4959
 9100TIP3    H248792   4.259   2.913  11.558 -0.5526 -1.5013 -0.1294
 9101TIP3   OH248793   4.107   5.639  15.230 -0.0852 -0.5057 -0.0632
 9101TIP3    H148794   4.097   5.569  15.295  0.2931 -0.1331  0.3989
 9101TIP3    H248795   4.035   5.624  15.168 -1.0653 -0.2863  0.9846
 9102TIP3   OH248796   4.282   3.076  13.970  0.1862  0.3418  0.3283
 9102TIP3    H148797   4.224   3.143  14.005 -0.2338  0.5321 -0.6818
 9102TIP3    H248798   4.335   3.048  14.045 -0.3472  1.0545  0.9895
 9103TIP3   OH248799   2.502   1.337  16.444  0.7714 -0.3073  0.2608
 9103TIP3    H148800   2.489   1.420  16.399  1.1895 -0.4903 -0.2098
 9103TIP3    H248801   2.471   1.271  16.381 -0.5669 -0.4627  1.0323
 9104TIP3   OH248802   5.087   2.151   0.292 -0.1692 -0.8032  0.2353
 9104TIP3    H148803   5.049   2.220   0.346  0.8703 -0.0208  0.0132
 9104TIP3    H248804   5.142   2.101   0.352  0.4640 -0.3391  0.0573
 9105TIP3   OH248805   4.161   6.536   4.503 -0.0229  0.0932  0.2550
 9105TIP3    H148806   4.236   6.559   4.449  0.8658  1.0138  1.7921
 9105TIP3    H248807   4.089   6.522   4.441  1.0875  0.4979 -1.1648
 9106TIP3   OH248808   6.598   1.014  16.257 -0.3438  0.0891  0.6869
 9106TIP3    H148809   6.543   1.034  16.181 -0.5846 -1.9863  0.2585
 9106TIP3    H248810   6.680   0.982  16.219  0.3016  0.9342  1.3271
 9107TIP3   OH248811   3.766   2.265   2.381 -0.5225 -0.0357  0.3545
 9107TIP3    H148812   3.707   2.314   2.324  0.2541  0.0658 -0.3735
 9107TIP3    H248813   3.851   2.306   2.370 -0.7634  1.6168  3.5037
 9108TIP3   OH248814   4.979   0.603   1.384  0.6348  0.1121  0.7173
 9108TIP3    H148815   4.960   0.515   1.352 -1.7198  0.0899  1.9107
 9108TIP3    H248816   5.030   0.589   1.464  3.0531  0.0315 -0.7394
 9109TIP3   OH248817   0.739   1.293  13.163  0.7566 -0.0138  0.5838
 9109TIP3    H148818   0.684   1.371  13.161  0.3144 -0.3163 -1.4833
 9109TIP3    H248819   0.820   1.322  13.204  1.2584  2.0531 -1.6342
 9110TIP3   OH248820   3.493   1.601   1.340 -0.4425  0.3687 -0.1321
 9110TIP3    H148821   3.456   1.687   1.358 -0.6218  0.0745  0.9910
 9110TIP3    H248822   3.526   1.607   1.251  0.7643  2.0446  0.3706
 9111TIP3   OH248823   1.967   5.056  14.373  0.1021  0.3390 -0.3751
 9111TIP3    H148824   1.989   5.070  14.281 -0.3989  3.3528 -0.1401
 9111TIP3    H248825   2.052   5.047  14.416  0.5526  2.2531 -0.7498
 9112TIP3   OH248826   0.418   0.897  14.755 -0.3009 -0.0753  0.0169
 9112TIP3    H148827   0.452   0.971  14.805 -0.3080 -0.6505  0.9001
 9112TIP3    H248828   0.490   0.870  14.699 -0.1693  0.3463 -0.0200
 9113TIP3   OH248829   2.923   0.209  16.548  0.0939 -0.0836  0.7931
 9113TIP3    H148830   2.980   0.275  16.586 -0.4567  1.3623 -0.7540
 9113TIP3    H248831   2.837   0.225  16.587 -0.1857  0.5687 -0.0603
 9114TIP3   OH248832   6.819   6.381  14.079  0.2987  0.4042  0.5654
 9114TIP3    H148833   6.826   6.364  13.986  0.4129  0.1718  0.6149
 9114TIP3    H248834   6.893   6.335  14.118  1.1741  1.7729  0.6039
 9115TIP3   OH248835   3.403   1.962   6.083  0.2254  0.4807 -0.3588
 9115TIP3    H148836   3.364   1.886   6.126  0.0123  1.4697  1.2552
 9115TIP3    H248837   3.462   1.924   6.018 -0.3995 -1.0567 -0.0799
 9116TIP3   OH248838   6.409   5.524  10.865 -0.2252  0.1007 -0.1819
 9116TIP3    H148839   6.323   5.566  10.868 -0.9732 -1.3914  0.3276
 9116TIP3    H248840   6.391   5.435  10.833  0.9581 -0.5799  0.9269
 9117TIP3   OH248841   2.909   0.387  13.160  0.5395  0.0044  0.5076
 9117TIP3    H148842   2.862   0.355  13.237  1.6441 -2.3770  0.2603
 9117TIP3    H248843   2.842   0.395  13.093 -0.1860  0.7321  1.2850
 9118TIP3   OH248844   0.647   5.092  15.497  0.3571 -0.0479  0.2194
 9118TIP3    H148845   0.701   5.121  15.571  0.1623  2.5870 -0.5702
 9118TIP3    H248846   0.558   5.116  15.521 -0.0270 -1.2712  0.0680
 9119TIP3   OH248847   3.234   1.472  16.921  0.4592 -0.0335  0.4043
 9119TIP3    H148848   3.230   1.425  16.838  2.2562  0.5159 -0.0268
 9119TIP3    H248849   3.204   1.560  16.900 -1.8245 -0.6101  0.9792
 9120TIP3   OH248850   5.207   3.262  17.040  0.1328 -0.0970 -0.1207
 9120TIP3    H148851   5.272   3.271  16.971 -1.4559  1.0111 -1.5507
 9120TIP3    H248852   5.199   3.351  17.076 -0.6112 -0.2177  0.0170
 9121TIP3   OH248853   3.189   0.979   5.096 -0.3083  0.5719  0.2085
 9121TIP3    H148854   3.178   0.994   5.002 -0.3560  1.5206  0.3599
 9121TIP3    H248855   3.227   0.891   5.101  0.2293  0.7305 -0.7323
 9122TIP3   OH248856   2.415   5.238  13.667 -0.3028 -0.0979  0.3492
 9122TIP3    H148857   2.492   5.267  13.618  1.1114 -1.7763  1.4608
 9122TIP3    H248858   2.344   5.240  13.603  0.6751  1.2787 -0.7642
 9123TIP3   OH248859   6.320   6.773  14.542  0.1069 -0.2059  0.6215
 9123TIP3    H148860   6.240   6.730  14.573 -0.5533  0.2082 -0.4640
 9123TIP3    H248861   6.290   6.835  14.476  1.0794  1.5923  1.7662
 9124TIP3   OH248862   2.469   1.698  15.865  0.1319 -0.3180  0.0271
 9124TIP3    H148863   2.536   1.666  15.925  1.1490 -2.4721 -2.0885
 9124TIP3    H248864   2.518   1.731  15.790 -1.1230 -0.0464 -0.7067
 9125TIP3   OH248865   0.299   4.182   2.369  0.2737  0.3483 -0.0476
 9125TIP3    H148866   0.230   4.232   2.412 -0.1507 -0.4238  0.1930
 9125TIP3    H248867   0.332   4.240   2.301 -0.0959  1.0082  0.3222
 9126TIP3   OH248868   2.552   0.080   1.392  0.0842 -0.1354  0.1144
 9126TIP3    H148869   2.543  -0.015   1.389 -0.5642 -0.0937  0.4094
 9126TIP3    H248870   2.462   0.112   1.390  0.2701  0.4446  0.8062
 9127TIP3   OH248871   4.876   0.614   6.628  0.2442  0.2984  0.6120
 9127TIP3    H148872   4.860   0.692   6.575  2.1946  0.0464 -0.4337
 9127TIP3    H248873   4.802   0.556   6.608  0.2815  0.7141 -0.8751
 9128TIP3   OH248874   3.030   5.961   2.117  0.2260  0.5039 -0.3235
 9128TIP3    H148875   2.961   6.024   2.097  0.3492  1.1365  1.1086
 9128TIP3    H248876   3.069   5.940   2.032  0.5116  2.7440 -0.7920
 9129TIP3   OH248877   4.233   6.570  15.920  0.1208 -0.0668  0.6761
 9129TIP3    H148878   4.261   6.649  15.967  0.7366 -0.1603  0.4641
 9129TIP3    H248879   4.139   6.584  15.906  0.4105  1.0955 -0.2592
 9130TIP3   OH248880   3.964   2.361  12.195  0.4261  0.1035  0.7607
 9130TIP3    H148881   3.924   2.332  12.113 -0.8197  0.5585  1.1990
 9130TIP3    H248882   4.053   2.386  12.170  0.5330 -1.1042 -0.1881
 9131TIP3   OH248883   6.314   2.997   5.314  0.0327 -0.8609  0.8683
 9131TIP3    H148884   6.230   3.016   5.354  0.2025  1.0445  0.3942
 9131TIP3    H248885   6.296   2.926   5.252 -0.8716 -1.5597  1.9080
 9132TIP3   OH248886   3.784   2.504   6.240  0.2851  0.0910  0.0398
 9132TIP3    H148887   3.831   2.435   6.193  1.8460  0.7967  0.4864
 9132TIP3    H248888   3.692   2.483   6.228  0.4779  0.6976 -4.0756
 9133TIP3   OH248889   4.722   2.328   4.116  0.1085 -0.0366  0.3643
 9133TIP3    H148890   4.709   2.408   4.065  2.1542  2.1000  2.8737
 9133TIP3    H248891   4.637   2.310   4.156 -0.3469  0.9568 -0.1330
 9134TIP3   OH248892   0.495   2.216   3.843  0.5555 -0.2986 -0.0955
 9134TIP3    H148893   0.412   2.170   3.848  0.8268 -0.7262  0.6613
 9134TIP3    H248894   0.500   2.247   3.753 -0.5223 -0.0674 -0.0869
 9135TIP3   OH248895   0.348   1.314  10.966  0.0701 -0.1926 -0.0243
 9135TIP3    H148896   0.266   1.271  10.992  0.2662 -0.2293  0.5383
 9135TIP3    H248897   0.416   1.249  10.983  0.1462 -0.4735 -1.2730
 9136TIP3   OH248898   1.254   5.054   2.193 -0.8586 -0.5994 -0.2298
 9136TIP3    H148899   1.277   5.118   2.260  1.2987 -0.5307 -0.9525
 9136TIP3    H248900   1.338   5.032   2.152 -1.8232 -2.3560 -1.3636
 9137TIP3   OH248901   0.632   6.701  16.282 -0.2720 -0.1669  0.1493
 9137TIP3    H148902   0.597   6.701  16.371  0.0943 -0.1324  0.2940
 9137TIP3    H248903   0.700   6.633  16.283 -1.5557 -1.5527 -0.6128
 9138TIP3   OH248904   1.973   6.264  11.997  0.3075  0.7718  0.4636
 9138TIP3    H148905   1.987   6.252  12.091  0.7970 -1.5605  0.1548
 9138TIP3    H248906   2.059   6.291  11.964  0.4529  0.4117  0.5372
 9139TIP3   OH248907   1.360   1.105   1.673 -0.3503 -0.0479 -0.9816
 9139TIP3    H148908   1.267   1.129   1.681 -0.4322 -0.7804  0.8400
 9139TIP3    H248909   1.359   1.026   1.619 -0.9858 -0.9449  0.2783
 9140TIP3   OH248910   2.158   1.695   0.149  0.0270  0.1416  0.5581
 9140TIP3    H148911   2.107   1.760   0.101  1.0743  1.6516  1.4086
 9140TIP3    H248912   2.119   1.695   0.237  1.9725  1.9843  1.4919
 9141TIP3   OH248913   6.388   3.715  12.020  0.0557 -0.2188  0.0766
 9141TIP3    H148914   6.444   3.744  12.092 -1.6582  1.7941  0.7206
 9141TIP3    H248915   6.335   3.792  11.999 -2.0050 -1.8087 -0.8850
 9142TIP3   OH248916   2.107   1.585  14.018 -0.2050  0.3261 -0.0542
 9142TIP3    H148917   2.164   1.653  14.055  1.6841 -0.6061 -1.0772
 9142TIP3    H248918   2.060   1.550  14.093  0.0057  1.6443  0.7298
 9143TIP3   OH248919   5.718   5.667   4.817  0.3150 -0.1885 -0.2148
 9143TIP3    H148920   5.709   5.741   4.878 -0.9804  1.0680 -1.8189
 9143TIP3    H248921   5.797   5.687   4.767 -0.0753  0.1716 -0.6972
 9144TIP3   OH248922   1.041   1.332   0.224  0.1195  0.8794  0.1356
 9144TIP3    H148923   1.101   1.379   0.166  1.2921  1.2513  1.5889
 9144TIP3    H248924   1.075   1.348   0.312 -0.9463 -0.5946  0.8623
 9145TIP3   OH248925   2.018   6.303  14.089 -0.1558  0.1134  0.5447
 9145TIP3    H148926   2.091   6.337  14.140 -0.8733  1.0349  0.9999
 9145TIP3    H248927   1.945   6.301  14.151 -0.7282  0.0476 -0.1256
 9146TIP3   OH248928   1.317   1.276   5.344 -0.0015 -0.3360  0.1425
 9146TIP3    H148929   1.289   1.312   5.260 -1.2252 -0.3943  0.5173
 9146TIP3    H248930   1.238   1.238   5.382  0.8550 -1.7217  0.6241
 9147TIP3   OH248931   3.095   3.102   5.303 -0.0948 -0.3839 -0.3863
 9147TIP3    H148932   3.017   3.156   5.312 -0.7101 -1.6405  3.6550
 9147TIP3    H248933   3.080   3.051   5.223 -2.9202  0.1363 -0.2840
 9148TIP3   OH248934   3.215   1.701   4.139 -0.3647 -0.6116 -0.0726
 9148TIP3    H148935   3.283   1.768   4.138  1.1702 -1.9821  2.0373
 9148TIP3    H248936   3.263   1.620   4.160 -2.1341 -2.3694 -2.3965
 9149TIP3   OH248937   5.986   3.780  13.227 -0.4915 -0.1310  0.3335
 9149TIP3    H148938   6.000   3.855  13.169 -1.7262 -0.6159 -0.6437
 9149TIP3    H248939   6.070   3.735  13.228 -0.3230  0.1194 -0.7816
 9150TIP3   OH248940   4.197   3.664  12.274 -0.2473  0.1040 -0.0728
 9150TIP3    H148941   4.179   3.607  12.199  1.3434 -0.5924  0.0302
 9150TIP3    H248942   4.223   3.747  12.235 -2.0023  0.6143 -0.2324
 9151TIP3   OH248943   5.893   0.269   2.799 -0.3240  0.4342 -0.3440
 9151TIP3    H148944   5.946   0.286   2.721 -1.5317  1.2100 -1.0281
 9151TIP3    H248945   5.803   0.267   2.766 -0.9031  1.2531  1.1106
 9152TIP3   OH248946   0.832   1.179  12.278 -0.6910  0.2273 -0.2099
 9152TIP3    H148947   0.813   1.137  12.361  0.3223 -0.3265 -0.2420
 9152TIP3    H248948   0.927   1.181  12.273 -0.7211 -0.3252 -1.6255
 9153TIP3   OH248949   0.430   4.000  16.594 -0.0929 -0.1049  0.0436
 9153TIP3    H148950   0.397   4.039  16.675 -2.9680 -3.1496  0.5573
 9153TIP3    H248951   0.351   3.973  16.547  1.5198  0.5028 -3.3290
 9154TIP3   OH248952   2.224   6.372   2.036 -0.4342 -0.5089 -0.1857
 9154TIP3    H148953   2.206   6.364   2.130 -1.1059  1.7850 -0.0625
 9154TIP3    H248954   2.318   6.388   2.031 -0.6748  1.3354  0.3117
 9155TIP3   OH248955   1.947   5.869   5.950 -0.1164  0.0420 -0.5406
 9155TIP3    H148956   1.913   5.799   5.895 -2.4221  0.6869 -0.0592
 9155TIP3    H248957   1.989   5.824   6.023 -0.6078 -0.8530 -0.7937
 9156TIP3   OH248958   1.251   3.788   0.580 -0.1601 -0.2023  0.5428
 9156TIP3    H148959   1.288   3.867   0.618  0.0301 -0.3194  0.6021
 9156TIP3    H248960   1.298   3.716   0.623  1.7666 -0.3269 -1.5774
 9157TIP3   OH248961   1.743   5.469  12.964 -0.9967 -0.4265  0.3068
 9157TIP3    H148962   1.796   5.545  12.986  1.6305 -1.5125 -1.8110
 9157TIP3    H248963   1.733   5.422  13.047  0.4910  0.3408  0.9501
 9158TIP3   OH248964   2.104   0.967  16.126 -0.2888  0.4256  0.5681
 9158TIP3    H148965   2.023   0.981  16.176 -1.0084 -0.0530 -0.4324
 9158TIP3    H248966   2.085   0.892  16.071  0.6542  0.6622 -0.0915
 9159TIP3   OH248967   0.098   6.305   2.938 -0.6917 -0.0270  0.1040
 9159TIP3    H148968   0.067   6.393   2.915 -2.7505 -1.0961 -1.5057
 9159TIP3    H248969   0.052   6.283   3.019  0.1271  0.4696  0.7316
 9160TIP3   OH248970   3.369   4.723  14.583 -0.0139  0.3039  0.1049
 9160TIP3    H148971   3.276   4.713  14.601 -0.0195 -1.4934 -0.6432
 9160TIP3    H248972   3.373   4.740  14.489  0.4435 -2.6207 -0.5296
 9161TIP3   OH248973   4.038   2.362   2.411  0.1680 -0.0716 -0.1304
 9161TIP3    H148974   4.045   2.279   2.459 -0.0462  0.1267  0.2529
 9161TIP3    H248975   4.123   2.405   2.425  0.6692 -0.6797 -1.2008
 9162TIP3   OH248976   3.391   1.641   3.005 -0.5570  0.1050  0.0535
 9162TIP3    H148977   3.339   1.633   2.924 -0.8006 -0.7757  0.2810
 9162TIP3    H248978   3.380   1.556   3.048  0.1127  0.3374  0.6919
 9163TIP3   OH248979   3.135   1.459  13.018  0.1715  0.0337  0.3706
 9163TIP3    H148980   3.180   1.375  13.024  0.7757  0.1785 -1.4833
 9163TIP3    H248981   3.076   1.461  13.093  1.4382 -1.2575  1.4351
 9164TIP3   OH248982   4.483   5.216   1.291  0.7280 -0.0742 -0.1381
 9164TIP3    H148983   4.496   5.121   1.296 -1.3252 -0.4287 -0.6245
 9164TIP3    H248984   4.572   5.252   1.288  1.5604 -2.0194 -0.6742
 9165TIP3   OH248985   2.544   4.346  11.455  0.7253  0.3812 -0.1998
 9165TIP3    H148986   2.585   4.292  11.523  2.1314  1.5970 -0.0407
 9165TIP3    H248987   2.539   4.287  11.379  2.1902 -0.0117 -0.0208
 9166TIP3   OH248988   6.023   5.547  10.266  0.1650  0.8236  0.0075
 9166TIP3    H148989   6.041   5.586  10.351  3.9786  0.1496 -0.3147
 9166TIP3    H248990   6.029   5.453  10.281  3.0453  0.6971 -1.2118
 9167TIP3   OH248991   5.380   0.263   5.104 -0.2383  0.2548  0.4143
 9167TIP3    H148992   5.348   0.256   5.014 -1.3928 -0.3727  0.8525
 9167TIP3    H248993   5.449   0.196   5.110  0.8960  1.2914 -0.3972
 9168TIP3   OH248994   4.896   1.843   2.759  0.5805  0.3162  0.0910
 9168TIP3    H148995   4.863   1.933   2.761  0.6366  0.3496 -0.4171
 9168TIP3    H248996   4.819   1.788   2.774 -0.0378  0.3162 -2.6211
 9169TIP3   OH248997   6.339   6.120   3.115  0.4926 -0.7000 -0.0945
 9169TIP3    H148998   6.310   6.194   3.169  0.3757 -0.3363 -0.6496
 9169TIP3    H248999   6.289   6.046   3.147 -0.5962 -0.2109 -0.6055
 9170TIP3   OH249000   4.140   5.576   1.108 -0.4163  0.0146 -0.0953
 9170TIP3    H149001   4.114   5.601   1.197  0.7392 -2.5181  1.0346
 9170TIP3    H249002   4.067   5.524   1.076  0.2391 -1.2460  0.4041
 9171TIP3   OH249003   2.563   5.569  16.441  0.8995 -0.1445  0.0979
 9171TIP3    H149004   2.634   5.629  16.420  1.7593 -1.2197 -0.1285
 9171TIP3    H249005   2.606   5.489  16.470 -0.2266 -0.4915  0.8953
 9172TIP3   OH249006   6.194   1.593  14.765 -0.4470  0.0976 -0.5498
 9172TIP3    H149007   6.153   1.507  14.771 -1.8249  0.6171 -1.9044
 9172TIP3    H249008   6.282   1.576  14.733 -0.9374 -0.7806 -1.4867
 9173TIP3   OH249009   6.469   5.290   1.833  0.0216 -0.2259  0.0743
 9173TIP3    H149010   6.526   5.258   1.902  1.6420  0.6259 -0.8248
 9173TIP3    H249011   6.439   5.375   1.864  0.6619  0.1077 -0.2030
 9174TIP3   OH249012   4.287   2.343  11.799  0.1873 -0.6460  0.1255
 9174TIP3    H149013   4.215   2.356  11.861 -0.3889 -0.6680 -0.5418
 9174TIP3    H249014   4.249   2.295  11.726  0.7068 -0.0515 -0.5534
 9175TIP3   OH249015   0.313   1.196  13.640 -0.2837  0.0045 -0.1042
 9175TIP3    H149016   0.393   1.227  13.598  0.0371 -0.2030  0.3499
 9175TIP3    H249017   0.297   1.110  13.601 -0.8509  0.4760 -0.9369
 9176TIP3   OH249018   2.284   1.992  13.534  0.7061 -0.3993 -0.2683
 9176TIP3    H149019   2.308   2.073  13.489  0.2454  0.6073  1.2376
 9176TIP3    H249020   2.365   1.963  13.576  0.4554  0.2658  0.6787
 9177TIP3   OH249021   1.848   2.230  13.318 -0.2857 -0.4515 -0.5096
 9177TIP3    H149022   1.817   2.147  13.282 -2.6778 -0.4387  1.2665
 9177TIP3    H249023   1.803   2.297  13.267 -0.1720 -0.3166 -0.4339
 9178TIP3   OH249024   4.622   6.758  16.228  0.2571 -0.5382  0.6645
 9178TIP3    H149025   4.711   6.794  16.232 -0.2412  0.7056  1.1432
 9178TIP3    H249026   4.591   6.762  16.318 -1.6031  2.6158  0.0277
 9179TIP3   OH249027   4.182   3.569  15.874  0.3367  0.2815 -0.2465
 9179TIP3    H149028   4.195   3.628  15.800 -0.3692  1.0876  0.2499
 9179TIP3    H249029   4.225   3.488  15.848 -0.5742  0.2719 -1.8559
 9180TIP3   OH249030   3.896   2.088   1.229 -0.1369 -0.8010  0.4327
 9180TIP3    H149031   3.934   2.094   1.141 -0.5546 -1.9758  0.1583
 9180TIP3    H249032   3.940   2.157   1.278 -0.4467  0.3809 -0.8915
 9181TIP3   OH249033   0.542   0.997   4.520  0.0704  0.3320  0.0860
 9181TIP3    H149034   0.471   0.933   4.532 -0.0197  0.6388  1.2954
 9181TIP3    H249035   0.584   1.002   4.605  1.3611  0.3997 -0.5305
 9182TIP3   OH249036   1.924   1.569  12.687 -0.3363 -0.1028  0.3869
 9182TIP3    H149037   1.855   1.602  12.630 -0.2222 -0.8253 -0.1813
 9182TIP3    H249038   1.988   1.640  12.690  0.1787 -0.4539 -1.2696
 9183TIP3   OH249039   6.101   6.384   4.611  0.6672  0.8642  0.3174
 9183TIP3    H149040   6.169   6.373   4.678  1.1667  0.9353 -0.1643
 9183TIP3    H249041   6.150   6.403   4.531  0.0693  0.9888 -0.0250
 9184TIP3   OH249042   1.549   6.605   1.873  0.1216 -0.3440  0.2802
 9184TIP3    H149043   1.589   6.601   1.786 -0.8317 -0.5293 -0.1577
 9184TIP3    H249044   1.471   6.550   1.866  0.3882 -0.9094  1.4484
 9185TIP3   OH249045   4.268   5.397  12.769  0.0647  0.0035  0.5780
 9185TIP3    H149046   4.185   5.407  12.722 -0.1593 -0.6744  0.8125
 9185TIP3    H249047   4.298   5.486  12.785  0.0416  0.2448 -0.6590
 9186TIP3   OH249048   3.233   5.359   1.716  0.5631  0.0209  0.0176
 9186TIP3    H149049   3.250   5.443   1.758  0.9039  0.0511 -0.1785
 9186TIP3    H249050   3.320   5.323   1.698  0.4197 -0.7099  0.7680
 9187TIP3   OH249051   2.595   4.349  15.082  0.1273  0.0587 -0.2065
 9187TIP3    H149052   2.508   4.347  15.043 -0.1617 -1.0895  0.4304
 9187TIP3    H249053   2.580   4.325  15.174  1.0653  0.2525  0.0049
 9188TIP3   OH249054   5.895   5.534   6.315 -0.2039  0.3407  0.3303
 9188TIP3    H149055   5.908   5.585   6.395 -1.6132  0.6955  0.3496
 9188TIP3    H249056   5.818   5.481   6.333 -0.2010  0.0053 -0.5999
 9189TIP3   OH249057   2.802   4.876  14.818 -0.2834  0.5052 -0.6936
 9189TIP3    H149058   2.719   4.867  14.865 -0.0412  1.6480 -0.0172
 9189TIP3    H249059   2.865   4.827  14.872 -0.7555 -1.5866 -1.9501
 9190TIP3   OH249060   5.997   0.161   0.207  0.9938  0.5258 -0.2615
 9190TIP3    H149061   5.984   0.142   0.114  2.0590 -1.5132 -0.0497
 9190TIP3    H249062   6.054   0.091   0.238  1.6250  1.8133  1.6871
 9191TIP3   OH249063   2.754   0.702  12.932  0.1235 -0.5457 -0.5210
 9191TIP3    H149064   2.842   0.675  12.908 -0.1002  0.3544 -2.5452
 9191TIP3    H249065   2.754   0.797  12.916 -1.0792 -0.4661 -0.1038
 9192TIP3   OH249066   6.571   3.714  12.238 -0.4289 -0.1380  0.2272
 9192TIP3    H149067   6.554   3.633  12.190  1.1271 -0.4696  0.1693
 9192TIP3    H249068   6.664   3.710  12.259 -0.8777  0.4228  2.5395
 9193TIP3   OH249069   1.522   2.503  17.042 -0.3139 -0.3102 -0.3563
 9193TIP3    H149070   1.450   2.544  17.089  0.1747 -0.1575  0.2751
 9193TIP3    H249071   1.480   2.455  16.971 -0.8847  1.3750 -1.2009
 9194TIP3   OH249072   5.026   1.084  12.636 -0.0334 -0.4679  0.1682
 9194TIP3    H149073   4.971   1.035  12.575  1.6916 -1.0905 -0.9704
 9194TIP3    H249074   4.966   1.143  12.682 -1.4941 -0.4286 -1.6935
 9195TIP3   OH249075   3.203   0.709   2.198  0.1439  0.3331 -0.5227
 9195TIP3    H149076   3.131   0.683   2.255  1.6846 -1.4045  0.7663
 9195TIP3    H249077   3.254   0.771   2.250  0.7723 -0.1624 -0.5279
 9196TIP3   OH249078   1.537   5.792  10.483  0.6300 -0.1858  0.4513
 9196TIP3    H149079   1.512   5.868  10.535  1.3929  1.1426 -1.0061
 9196TIP3    H249080   1.611   5.824  10.430  1.6566 -2.2637  0.5459
 9197TIP3   OH249081   1.712   2.531   2.084  0.1639 -0.0017  1.0828
 9197TIP3    H149082   1.634   2.570   2.122 -0.1698  0.8301 -0.3834
 9197TIP3    H249083   1.715   2.443   2.121 -1.8715 -0.3089  0.6367
 9198TIP3   OH249084   1.027   2.180  14.986  0.2326  0.3427 -0.2449
 9198TIP3    H149085   0.985   2.191  15.071  0.4300 -0.2666 -0.0585
 9198TIP3    H249086   1.040   2.269  14.953 -0.7897  0.5466 -0.1081
 9199TIP3   OH249087   6.519   5.266  13.551 -0.5156  0.2017 -0.6327
 9199TIP3    H149088   6.426   5.290  13.552 -0.3894  0.6839 -0.1936
 9199TIP3    H249089   6.524   5.188  13.606 -1.1990 -1.9562 -3.3686
 9200TIP3   OH249090   3.543   5.025   1.338 -0.1438  0.3777 -0.7973
 9200TIP3    H149091   3.485   4.959   1.301  0.5211 -1.0801  0.6209
 9200TIP3    H249092   3.534   5.014   1.433 -0.0726  2.4111 -0.5069
 9201TIP3   OH249093   2.533   4.807  14.876  0.3032  0.3413  0.6242
 9201TIP3    H149094   2.539   4.719  14.838  2.5043  0.2024  1.1428
 9201TIP3    H249095   2.496   4.793  14.963 -2.7774  0.4177 -0.5678
 9202TIP3   OH249096   1.617   2.608   4.343 -0.6819  0.1223  0.1351
 9202TIP3    H149097   1.667   2.556   4.280  1.3783  1.0815  0.8693
 9202TIP3    H249098   1.605   2.693   4.300 -1.5249 -0.0268  0.0561
 9203TIP3   OH249099   6.544   0.923   4.882  0.3755 -0.1001 -0.1131
 9203TIP3    H149100   6.620   0.879   4.919 -0.5330  0.1842  2.2415
 9203TIP3    H249101   6.477   0.855   4.876  0.2531  0.0492 -0.4908
 9204TIP3   OH249102   1.997   6.179   4.080 -0.0035 -0.1817  0.2241
 9204TIP3    H149103   1.987   6.190   3.985  0.5866 -1.7412 -0.0495
 9204TIP3    H249104   1.917   6.134   4.108  0.9005 -2.0181  0.0047
 9205TIP3   OH249105   6.701   4.359  15.155  0.1783 -0.0476 -0.3877
 9205TIP3    H149106   6.712   4.352  15.250 -0.2707  0.5458 -0.2874
 9205TIP3    H249107   6.625   4.304  15.136  1.1102 -1.3017 -0.6035
 9206TIP3   OH249108   3.763   1.999  12.062  0.3920  0.1739  0.5640
 9206TIP3    H149109   3.796   1.934  12.000 -0.2977  0.4713 -0.1326
 9206TIP3    H249110   3.782   1.962  12.149  0.3749 -0.7625  0.1744
 9207TIP3   OH249111   5.727   5.700  12.034 -0.2985  0.5052 -0.2454
 9207TIP3    H149112   5.762   5.612  12.021  2.0233  1.3687 -0.2143
 9207TIP3    H249113   5.686   5.723  11.950 -0.0117 -0.2013 -0.5786
 9208TIP3   OH249114   1.111   3.070  16.724  0.4238 -0.1076  0.2911
 9208TIP3    H149115   1.107   3.033  16.812 -0.2223 -1.9819 -0.4822
 9208TIP3    H249116   1.176   3.016  16.678 -1.3711 -1.1150 -1.2017
 9209TIP3   OH249117   6.367   3.595   4.165 -0.0737  0.4405  0.6216
 9209TIP3    H149118   6.383   3.505   4.193 -0.5463 -0.1583 -0.9502
 9209TIP3    H249119   6.413   3.648   4.230  2.8178 -1.0137 -0.0407
 9210TIP3   OH249120   4.279   3.980   2.922 -0.3003  0.0776 -0.3850
 9210TIP3    H149121   4.187   3.988   2.894 -0.3591  0.7032 -0.0315
 9210TIP3    H249122   4.277   3.910   2.987 -0.5346  0.1222 -0.3416
 9211TIP3   OH249123   3.655   5.445  14.990 -0.2186 -0.0182 -0.0534
 9211TIP3    H149124   3.738   5.493  14.986 -0.3556  0.2908  0.7031
 9211TIP3    H249125   3.681   5.353  14.996  0.0448 -0.2177 -2.8809
 9212TIP3   OH249126   5.720   0.965  10.969  0.3491  0.0401 -0.0794
 9212TIP3    H149127   5.660   0.948  10.896 -2.6092  1.8504  1.7342
 9212TIP3    H249128   5.764   1.047  10.945  2.1016 -1.1616 -1.2941
 9213TIP3   OH249129   5.324   0.662  16.406  0.1721 -0.2383 -0.3559
 9213TIP3    H149130   5.397   0.606  16.433  0.0971  0.0849  0.5292
 9213TIP3    H249131   5.336   0.672  16.311  0.6798 -1.0349 -0.3892
 9214TIP3   OH249132   2.948   4.241  13.365  0.3655 -0.1002 -0.0792
 9214TIP3    H149133   2.941   4.235  13.270 -1.8681 -1.0834  0.0688
 9214TIP3    H249134   2.939   4.334  13.384  0.1296  0.0318 -0.8081
 9215TIP3   OH249135   4.878   3.306   3.303 -0.1843  0.6900 -0.1338
 9215TIP3    H149136   4.871   3.400   3.319 -0.6481  0.6030  0.1709
 9215TIP3    H249137   4.950   3.278   3.360  0.0941  0.8910 -0.3783
 9216TIP3   OH249138   5.914   2.551   1.017 -0.9614  0.6317  0.5924
 9216TIP3    H149139   5.948   2.542   0.928  2.2203 -0.8228  1.8059
 9216TIP3    H249140   5.858   2.474   1.029 -2.3050  1.3974 -0.4198
 9217TIP3   OH249141   6.176   0.436   1.751  0.0064  0.6977 -0.3915
 9217TIP3    H149142   6.263   0.435   1.792 -0.2693  1.0162  0.2170
 9217TIP3    H249143   6.151   0.528   1.751 -0.9769  0.4565  0.8652
 9218TIP3   OH249144   3.404   4.867  16.454  0.0281 -0.3298 -0.4693
 9218TIP3    H149145   3.335   4.823  16.505  0.8217  0.5481  1.4864
 9218TIP3    H249146   3.484   4.823  16.481  0.6707  1.3144  0.4633
 9219TIP3   OH249147   3.736   6.449  14.513 -0.3351 -0.1262 -0.1203
 9219TIP3    H149148   3.792   6.429  14.438  0.2821  2.7438 -0.5344
 9219TIP3    H249149   3.739   6.370  14.568  2.8350 -0.6493 -0.8983
 9220TIP3   OH249150   2.457   2.587   0.973 -0.0611 -0.0397  0.0151
 9220TIP3    H149151   2.465   2.493   0.991  0.3294 -0.1114 -0.4732
 9220TIP3    H249152   2.421   2.591   0.884  0.6002  0.2599 -0.2470
 9221TIP3   OH249153   2.006   0.799  15.947  0.0698 -0.4087  0.0397
 9221TIP3    H149154   1.919   0.760  15.953  0.5415 -1.7320 -1.0814
 9221TIP3    H249155   2.026   0.797  15.853  0.5645  1.6080  0.0600
 9222TIP3   OH249156   4.324   4.209  13.027  0.1083  0.1785  0.4403
 9222TIP3    H149157   4.417   4.196  13.010 -0.1971  0.9986 -2.3890
 9222TIP3    H249158   4.280   4.143  12.972 -1.0023  0.7283  0.6384
 9223TIP3   OH249159   0.889   2.202   2.332 -0.1335 -0.0924 -0.3439
 9223TIP3    H149160   0.827   2.227   2.400 -0.6753  0.5860 -1.0591
 9223TIP3    H249161   0.883   2.272   2.267  2.2722  0.6218  0.1119
 9224TIP3   OH249162   6.653   2.218  13.627 -0.6110  0.0350  0.4532
 9224TIP3    H149163   6.590   2.147  13.610  0.0969 -0.4897 -0.0243
 9224TIP3    H249164   6.620   2.260  13.707 -0.7294 -1.2020  1.0764
 9225TIP3   OH249165   3.818   3.954   4.685  0.0631  0.5614 -1.0093
 9225TIP3    H149166   3.889   4.016   4.668  2.4023 -1.2258  1.4222
 9225TIP3    H249167   3.774   3.988   4.763  1.6662 -0.9224  0.6332
 9226TIP3   OH249168   5.161   3.312  11.274 -0.1583 -0.0120 -0.0683
 9226TIP3    H149169   5.240   3.364  11.255 -0.9184  0.2893 -2.8841
 9226TIP3    H249170   5.099   3.338  11.206 -3.2630  0.7618  2.7957
 9227TIP3   OH249171   4.833   0.683   1.183 -0.0999 -0.1161 -0.2059
 9227TIP3    H149172   4.807   0.607   1.131 -1.9384 -0.0892  0.6010
 9227TIP3    H249173   4.877   0.646   1.259  3.1326 -0.1424 -1.8768
 9228TIP3   OH249174   3.616   2.750  12.292 -0.0102 -0.2844  0.3076
 9228TIP3    H149175   3.648   2.816  12.353 -2.1359  0.4118  0.7514
 9228TIP3    H249176   3.555   2.697  12.343 -0.2101 -1.0481 -0.6870
 9229TIP3   OH249177   2.767   0.030  14.291  0.5862  0.1250  0.2894
 9229TIP3    H149178   2.822  -0.031  14.242 -0.6062 -0.8935  0.1761
 9229TIP3    H249179   2.826   0.066  14.358  1.7694  0.2276 -0.7658
 9230TIP3   OH249180   3.359   3.203   5.362 -0.0720 -0.0068  0.0423
 9230TIP3    H149181   3.358   3.298   5.350 -1.1588  0.0207  0.1846
 9230TIP3    H249182   3.268   3.176   5.348 -0.0888 -0.8286  1.5030
 9231TIP3   OH249183   4.280   5.654  16.484  0.6120 -0.5085  0.1129
 9231TIP3    H149184   4.369   5.623  16.502  0.4441 -0.1009  1.8649
 9231TIP3    H249185   4.229   5.575  16.468  1.5619 -0.6765 -2.5471
 9232TIP3   OH249186   6.001   4.012  11.882 -0.2214 -0.3839 -0.1207
 9232TIP3    H149187   6.025   3.922  11.861  0.4615 -0.4473  0.8762
 9232TIP3    H249188   6.001   4.057  11.797  1.1562 -0.9325 -0.4426
 9233TIP3   OH249189   3.891   5.260   4.229 -0.2213 -0.2445  0.1719
 9233TIP3    H149190   3.836   5.242   4.306 -0.1846  1.5160  0.6468
 9233TIP3    H249191   3.830   5.294   4.164  0.0273  0.0248  0.0778
 9234TIP3   OH249192   6.015   2.066   3.164  0.1906  0.1107 -0.2349
 9234TIP3    H149193   5.976   2.121   3.233 -0.1684 -1.3140  0.7599
 9234TIP3    H249194   6.105   2.096   3.158  0.3865 -0.0712  1.2785
 9235TIP3   OH249195   5.466   5.232  15.733  0.0475  0.2923 -0.1550
 9235TIP3    H149196   5.558   5.210  15.751 -0.1567  0.4613  1.1819
 9235TIP3    H249197   5.464   5.252  15.639  0.9164 -1.9856 -0.7320
 9236TIP3   OH249198   0.905   4.480  14.106 -0.7240  0.0244  0.1048
 9236TIP3    H149199   0.964   4.517  14.172 -1.9822  0.3836  1.0702
 9236TIP3    H249200   0.868   4.556  14.062 -2.5091 -0.0531  1.3698
 9237TIP3   OH249201   1.877   5.323   3.080 -0.7921  0.5344 -0.6355
 9237TIP3    H149202   1.794   5.322   3.033 -0.9061  0.3034 -0.4335
 9237TIP3    H249203   1.854   5.301   3.170 -0.3277 -1.1783 -0.8885
 9238TIP3   OH249204   4.583   1.300  16.947  0.6512 -0.5704 -0.4869
 9238TIP3    H149205   4.500   1.316  16.992  0.6211 -0.0785 -0.7101
 9238TIP3    H249206   4.560   1.241  16.875  0.5617 -0.7454 -0.3130
 9239TIP3   OH249207   5.766   4.093  16.715  0.2118  0.1459 -0.1344
 9239TIP3    H149208   5.753   4.171  16.661 -0.1908  0.1665 -0.0117
 9239TIP3    H249209   5.703   4.030  16.681  0.7754 -0.2539 -0.4618
 9240TIP3   OH249210   5.100   3.675  13.054 -0.3296 -0.0269  0.3548
 9240TIP3    H149211   5.009   3.703  13.050 -0.4274 -0.4327 -0.3667
 9240TIP3    H249212   5.106   3.626  13.136 -0.7259  0.0978  0.4631
 9241TIP3   OH249213   0.546   4.595  11.301  0.0466  0.1193  0.3254
 9241TIP3    H149214   0.482   4.645  11.250  1.7365  0.8632 -1.2023
 9241TIP3    H249215   0.618   4.657  11.315  1.3455 -1.2931  0.0876
 9242TIP3   OH249216   2.101   5.023  12.444 -0.2866 -0.3436  0.0815
 9242TIP3    H149217   2.083   5.017  12.350 -0.3678  0.3406  0.0437
 9242TIP3    H249218   2.140   5.110  12.455 -0.2882 -0.4149  0.6823
 9243TIP3   OH249219   1.710   6.087  10.441 -0.2459  0.2109 -0.0475
 9243TIP3    H149220   1.788   6.143  10.446  0.2563 -0.2182 -2.0170
 9243TIP3    H249221   1.637   6.147  10.454  0.3683  0.4418  3.0394
 9244TIP3   OH249222   3.464   0.620  16.107 -0.0518  0.4357  0.2510
 9244TIP3    H149223   3.502   0.557  16.169 -1.2208 -0.3165  0.2329
 9244TIP3    H249224   3.538   0.650  16.055  0.3560 -2.0790 -0.7550
 9245TIP3   OH249225   5.573   0.136  15.600 -0.8234  0.1480 -0.0132
 9245TIP3    H149226   5.590   0.154  15.693  0.1584 -0.7229 -0.0020
 9245TIP3    H249227   5.631   0.196  15.553 -1.0075  0.2962 -0.0480
 9246TIP3   OH249228   5.151   5.234  15.556  0.2892  0.2725  0.0879
 9246TIP3    H149229   5.131   5.328  15.556 -0.9349  0.0259  0.0370
 9246TIP3    H249230   5.091   5.196  15.620  0.8608 -0.4673  0.2048
 9247TIP3   OH249231   2.702   2.667   0.328 -0.4177  0.4905  0.4409
 9247TIP3    H149232   2.695   2.702   0.239  0.3217 -0.1575  0.1103
 9247TIP3    H249233   2.796   2.658   0.343 -0.5518 -1.2529  0.5132
 9248TIP3   OH249234   6.537   0.317   3.205 -0.7187  0.3555 -0.3076
 9248TIP3    H149235   6.493   0.384   3.154 -2.2756  0.1033  0.6280
 9248TIP3    H249236   6.487   0.312   3.287 -0.0504 -1.2548  0.0523
 9249TIP3   OH249237   2.978   2.745   2.426  0.0955  0.3142  0.7010
 9249TIP3    H149238   2.952   2.815   2.486  1.1495 -0.5162  2.1837
 9249TIP3    H249239   2.902   2.734   2.369 -0.1999  2.4541  0.6048
 9250TIP3   OH249240   2.469   3.421   2.413  0.0411 -0.3320 -0.5259
 9250TIP3    H149241   2.480   3.352   2.479 -0.1663  1.5231  1.5682
 9250TIP3    H249242   2.375   3.434   2.408  0.1172  0.3204 -0.3175
 9251TIP3   OH249243   2.428   4.084   5.655  0.0685 -0.1927  0.2623
 9251TIP3    H149244   2.483   4.130   5.592  0.6324 -0.1910  0.7499
 9251TIP3    H249245   2.488   4.028   5.703 -0.5931 -1.3704 -0.2503
 9252TIP3   OH249246   6.664   0.846  15.056 -0.1902  0.4540 -0.1098
 9252TIP3    H149247   6.709   0.916  15.103  1.3188 -0.8852  0.5296
 9252TIP3    H249248   6.719   0.829  14.979  0.6276 -1.3831  0.8148
 9253TIP3   OH249249   6.657   4.309  11.019 -0.6263 -0.3392 -0.2291
 9253TIP3    H149250   6.583   4.250  11.029  0.1499 -1.3023 -0.0737
 9253TIP3    H249251   6.633   4.367  10.947 -0.6968 -1.9178 -1.5008
 9254TIP3   OH249252   5.974   5.177  11.381 -0.1005  0.0807 -0.1536
 9254TIP3    H149253   5.957   5.141  11.295  2.6505 -1.6352 -0.0882
 9254TIP3    H249254   5.982   5.101  11.439  1.0818  0.9935  0.9816
 9255TIP3   OH249255   1.232   1.530  15.354  0.1153  0.1019 -0.3445
 9255TIP3    H149256   1.198   1.454  15.402  0.5273  0.1531  0.0345
 9255TIP3    H249257   1.189   1.525  15.269  0.5254 -0.8710 -0.5186
 9256TIP3   OH249258   6.295   6.293   1.960  0.5543  0.4811 -0.0453
 9256TIP3    H149259   6.332   6.372   1.919  0.4368  0.4245 -0.2624
 9256TIP3    H249260   6.298   6.227   1.891 -0.5074  0.6413 -0.2695
 9257TIP3   OH249261   2.973   1.014   3.851 -0.0865 -0.7166 -0.0240
 9257TIP3    H149262   3.012   1.096   3.821 -0.0654 -1.3827 -1.9390
 9257TIP3    H249263   3.047   0.955   3.865 -0.1204 -0.5194  1.0693
 9258TIP3   OH249264   4.309   1.689   3.187 -0.5543  0.0757  0.1212
 9258TIP3    H149265   4.316   1.784   3.173 -2.6882  0.1617 -0.7467
 9258TIP3    H249266   4.372   1.651   3.125  1.1268  0.9068  1.2502
 9259TIP3   OH249267   0.725   4.568  11.547 -0.5097  0.2747  0.2748
 9259TIP3    H149268   0.698   4.580  11.456  1.5398 -0.9726 -0.5635
 9259TIP3    H249269   0.757   4.655  11.574  1.0997  0.1025 -1.0109
 9260TIP3   OH249270   3.335   5.574  13.381 -0.0365 -0.2827  0.5768
 9260TIP3    H149271   3.419   5.614  13.356 -0.2731  1.1571  1.9206
 9260TIP3    H249272   3.351   5.480  13.376  0.9383 -0.0748 -1.4566
 9261TIP3   OH249273   6.560   1.244   3.085 -0.4377  0.5423  0.0439
 9261TIP3    H149274   6.471   1.251   3.052 -0.3881 -0.7747 -0.4214
 9261TIP3    H249275   6.615   1.258   3.007 -0.2740 -0.2460  0.0140
 9262TIP3   OH249276   2.256   4.226   1.650 -0.0624 -0.2159 -0.1828
 9262TIP3    H149277   2.248   4.321   1.647 -1.1755 -0.2109  1.4747
 9262TIP3    H249278   2.166   4.194   1.660  0.4126 -1.3168  1.0421
 9263TIP3   OH249279   2.636   1.254   5.979 -0.1733 -0.1145 -0.2768
 9263TIP3    H149280   2.565   1.193   6.000 -0.3591 -0.7060 -2.3715
 9263TIP3    H249281   2.608   1.337   6.018 -0.6908 -0.9613  1.2458
 9264TIP3   OH249282   0.174   2.017   0.065  1.2353 -0.3295 -0.2473
 9264TIP3    H149283   0.189   1.999   0.158  3.2072  0.5505 -0.3581
 9264TIP3    H249284   0.237   2.085   0.043 -0.4369  0.7767 -1.8207
 9265TIP3   OH249285   5.476   0.673   3.825  0.1990  1.0435 -0.3907
 9265TIP3    H149286   5.451   0.758   3.860  0.2780  0.8787  0.0671
 9265TIP3    H249287   5.395   0.623   3.820  0.7226 -0.7221  4.3512
 9266TIP3   OH249288   4.491   0.348   0.176 -0.1659  0.4827 -0.4811
 9266TIP3    H149289   4.462   0.428   0.131  0.7941 -0.0344 -2.1267
 9266TIP3    H249290   4.577   0.369   0.210 -0.7800  0.7838  0.9728
 9267TIP3   OH249291   6.098   3.263  11.754  0.2560  0.0391  0.8537
 9267TIP3    H149292   6.084   3.315  11.834 -1.0531 -1.9232  1.9956
 9267TIP3    H249293   6.022   3.282  11.699  0.6271  0.5934  0.5273
 9268TIP3   OH249294   6.099   1.830   3.710  0.2350 -0.5455  0.1874
 9268TIP3    H149295   6.129   1.861   3.795  0.8013  0.8632 -0.4877
 9268TIP3    H249296   6.012   1.867   3.699  0.6174  0.2389 -0.3087
 9269TIP3   OH249297   2.647   2.830   6.121 -0.6676 -0.1963 -0.7618
 9269TIP3    H149298   2.740   2.843   6.102 -0.5147  2.1379  1.0904
 9269TIP3    H249299   2.639   2.844   6.215 -2.8855 -0.5263 -0.8442
 9270TIP3   OH249300   3.882   3.768  10.709 -0.7574  0.0373  0.3198
 9270TIP3    H149301   3.824   3.716  10.764 -0.4578  0.4189  1.0101
 9270TIP3    H249302   3.826   3.801  10.639 -0.6194 -2.5704 -1.1056
 9271TIP3   OH249303   5.496   3.875  13.824  0.3891  0.1094  0.3730
 9271TIP3    H149304   5.473   3.929  13.900  2.5332  2.3243 -0.4197
 9271TIP3    H249305   5.422   3.884  13.765  0.2725  1.4365  0.6839
 9272TIP3   OH249306   3.521   0.562  12.086  0.5287 -0.4318 -0.0546
 9272TIP3    H149307   3.572   0.547  12.166  1.1259  1.8868  0.0590
 9272TIP3    H249308   3.578   0.616  12.031 -0.6503 -0.3210 -1.1967
 9273TIP3   OH249309   2.642   2.041   1.506  0.3635  0.2319 -0.4712
 9273TIP3    H149310   2.601   2.125   1.527 -1.4603 -0.9950  1.2410
 9273TIP3    H249311   2.727   2.044   1.549 -0.0608  0.8866  0.3626
 9274TIP3   OH249312   0.289   2.693  11.851  0.0625  0.3831 -0.5501
 9274TIP3    H149313   0.209   2.642  11.859  0.2985  0.2517  1.3138
 9274TIP3    H249314   0.260   2.785  11.853 -0.0420  0.3418  0.5320
 9275TIP3   OH249315   4.771   0.365  11.872  0.0429  0.3674 -0.5617
 9275TIP3    H149316   4.734   0.340  11.787 -0.5979  0.2475 -0.2557
 9275TIP3    H249317   4.786   0.459  11.865 -2.4101  0.8868  0.0350
 9276TIP3   OH249318   2.470   4.901  12.058 -0.5628  0.2096  0.1288
 9276TIP3    H149319   2.449   4.808  12.049 -1.0119 -0.0008  2.7180
 9276TIP3    H249320   2.503   4.926  11.971 -1.4413 -2.0702 -0.9489
 9277TIP3   OH249321   4.030   1.467   1.627 -0.3657  0.0400  0.1404
 9277TIP3    H149322   4.007   1.559   1.643  2.4289  0.8165  0.1257
 9277TIP3    H249323   3.975   1.442   1.552 -1.4344  1.5659  0.3600
 9278TIP3   OH249324   4.091   4.511  14.434  0.4112 -0.2197 -0.2097
 9278TIP3    H149325   4.097   4.511  14.338  0.5135 -1.1750 -0.2149
 9278TIP3    H249326   4.182   4.501  14.464  0.2782 -0.9211 -0.0332
 9279TIP3   OH249327   2.042   6.255   3.284  0.4907  0.1900 -0.5780
 9279TIP3    H149328   2.090   6.187   3.333  0.5656 -0.5014 -1.5756
 9279TIP3    H249329   1.978   6.289   3.347  1.4905  0.2898  0.4103
 9280TIP3   OH249330   0.627   0.045  11.427  0.2086 -0.0715 -0.3942
 9280TIP3    H149331   0.611   0.139  11.438  0.0876  0.0416 -1.4310
 9280TIP3    H249332   0.711   0.041  11.380  1.2899 -0.5510  1.4693
 9281TIP3   OH249333   4.580   2.237   1.179 -0.2345  0.0516 -0.1180
 9281TIP3    H149334   4.655   2.215   1.234 -0.3899  1.5710  0.7548
 9281TIP3    H249335   4.574   2.332   1.185 -2.8009 -0.0930  0.6132
 9282TIP3   OH249336   6.684   1.883  13.707 -0.0120  0.5623  0.2969
 9282TIP3    H149337   6.655   1.796  13.735  0.3403  0.7055  1.1388
 9282TIP3    H249338   6.603   1.930  13.687 -0.2755  0.4242  1.0022
 9283TIP3   OH249339   0.244   2.250   5.474  0.2722  0.1827 -0.0559
 9283TIP3    H149340   0.185   2.232   5.548  0.6329  3.4076  1.1793
 9283TIP3    H249341   0.201   2.321   5.426  1.7669  0.6192 -0.7983
 9284TIP3   OH249342   3.300   4.660   2.463 -0.2670  0.2513 -0.3799
 9284TIP3    H149343   3.240   4.700   2.526 -1.9740 -0.5257 -1.4321
 9284TIP3    H249344   3.274   4.568   2.461  0.8942 -0.0808 -0.9858
 9285TIP3   OH249345   2.432   5.145  14.523  0.1539 -0.2336  0.5526
 9285TIP3    H149346   2.403   5.189  14.443  1.9003  0.9599  0.5088
 9285TIP3    H249347   2.448   5.216  14.585  0.8200 -0.9860  1.2691
 9286TIP3   OH249348   5.052   6.343   3.241  0.0823 -0.8322 -0.1721
 9286TIP3    H149349   5.034   6.255   3.209 -1.0699 -0.5665 -0.3112
 9286TIP3    H249350   4.979   6.396   3.208  0.9181  0.2440 -0.3589
 9287TIP3   OH249351   6.538   6.277   3.781 -0.3271 -0.3876 -0.3495
 9287TIP3    H149352   6.477   6.243   3.716 -0.9318  1.0030 -0.5583
 9287TIP3    H249353   6.572   6.357   3.741  1.2378 -0.8573  0.0006
 9288TIP3   OH249354   6.260   2.363   1.042  0.1076  0.2670 -0.2029
 9288TIP3    H149355   6.231   2.275   1.017 -0.8543  0.3145  0.6805
 9288TIP3    H249356   6.285   2.404   0.959 -0.3910 -0.4944 -0.7508
 9289TIP3   OH249357   4.997   1.407  15.588 -0.0533 -0.0183 -0.9250
 9289TIP3    H149358   4.915   1.404  15.638 -0.9046 -0.4037 -2.2852
 9289TIP3    H249359   4.974   1.372  15.502  1.0738  1.7229 -1.9983
 9290TIP3   OH249360   3.114   2.020   0.487  0.5836  0.4792  0.3597
 9290TIP3    H149361   3.054   2.065   0.547 -0.1700 -2.1291  1.7167
 9290TIP3    H249362   3.057   1.988   0.416  0.9928  1.0565 -0.2389
 9291TIP3   OH249363   3.559   0.142   3.868  0.6120  0.4456 -0.1084
 9291TIP3    H149364   3.505   0.219   3.888  0.7045  0.3285  0.6199
 9291TIP3    H249365   3.636   0.178   3.823 -0.1877  0.5844 -1.4131
 9292TIP3   OH249366   6.041   2.730   0.033 -0.0060  0.2582 -0.3360
 9292TIP3    H149367   6.061   2.777  -0.047  1.5120  0.1615 -0.0365
 9292TIP3    H249368   6.065   2.790   0.104 -0.0674 -0.1556  0.0440
 9293TIP3   OH249369   3.151   3.823  13.455  0.9798  0.2775 -0.2830
 9293TIP3    H149370   3.195   3.831  13.539  0.9588  1.8421 -0.3910
 9293TIP3    H249371   3.175   3.736  13.423  0.8204 -0.4280  1.4185
 9294TIP3   OH249372   3.410   5.644   1.707  0.2279  0.5016 -0.4775
 9294TIP3    H149373   3.452   5.725   1.680  0.7730 -0.1861 -1.7736
 9294TIP3    H249374   3.483   5.584   1.724 -0.1889 -0.0885 -0.7529
 9295TIP3   OH249375   5.228   2.143  10.084  0.2825  0.2680 -0.0737
 9295TIP3    H149376   5.185   2.096  10.012 -0.2362 -1.3672  1.2209
 9295TIP3    H249377   5.280   2.210  10.042 -0.1387 -0.5288 -1.9652
 9296TIP3   OH249378   0.575   2.867  15.667 -0.2447 -0.6232  0.3867
 9296TIP3    H149379   0.549   2.958  15.684  2.8139 -0.0370  2.8271
 9296TIP3    H249380   0.509   2.815  15.714 -1.1386  0.3966  0.3128
 9297TIP3   OH249381   5.468   6.404  15.392 -0.1698  0.5022 -0.1010
 9297TIP3    H149382   5.521   6.483  15.405  0.6492  0.0143 -0.3566
 9297TIP3    H249383   5.531   6.332  15.399 -0.7944 -0.0937 -0.4848
 9298TIP3   OH249384   1.353   2.213  12.233 -0.4366  0.9027 -0.1878
 9298TIP3    H149385   1.445   2.188  12.225 -0.2143  1.8071 -0.5770
 9298TIP3    H249386   1.355   2.300  12.271 -1.1026  1.2123 -0.8304
 9299TIP3   OH249387   6.674   0.316   1.784 -0.1043 -0.5284 -0.7841
 9299TIP3    H149388   6.739   0.268   1.733  1.0438 -0.3357  0.4485
 9299TIP3    H249389   6.705   0.310   1.875 -1.5923 -0.0829 -0.2091
 9300TIP3   OH249390   0.650   6.373  13.654  0.9321 -0.9559  0.2544
 9300TIP3    H149391   0.619   6.351  13.566  0.8909  1.6323 -0.4396
 9300TIP3    H249392   0.699   6.454  13.643  1.1627 -0.7212  2.5899
 9301TIP3   OH249393   0.442   6.302  11.709  0.3377 -0.3734 -0.1737
 9301TIP3    H149394   0.470   6.283  11.620 -3.2476  1.1328 -1.8260
 9301TIP3    H249395   0.457   6.396  11.719  1.9457 -0.7415  1.4145
 9302TIP3   OH249396   6.418   3.345  13.726  0.2011  0.1727  0.3191
 9302TIP3    H149397   6.497   3.290  13.733 -0.4572 -0.7667  0.6591
 9302TIP3    H249398   6.404   3.378  13.814  1.0159  1.5208 -0.0391
 9303TIP3   OH249399   5.656   4.106  12.838 -0.4980  0.7873  0.0845
 9303TIP3    H149400   5.591   4.102  12.768  1.0587  2.4119 -1.5734
 9303TIP3    H249401   5.706   4.025  12.829 -0.5208  0.8301 -0.4638
 9304TIP3   OH249402   4.490   3.354   1.758  0.3528  0.1077 -0.1863
 9304TIP3    H149403   4.518   3.283   1.815 -1.2116 -0.1316  0.3543
 9304TIP3    H249404   4.463   3.424   1.818  1.5361  1.0318 -0.7053
 9305TIP3   OH249405   0.131   0.842  16.626 -0.3478 -0.5877 -0.3626
 9305TIP3    H149406   0.111   0.907  16.558 -1.3987 -2.2899 -1.7779
 9305TIP3    H249407   0.108   0.886  16.708  0.6566  1.4276 -1.0978
 9306TIP3   OH249408   4.224   2.990   1.069 -0.2087 -0.0323  0.6953
 9306TIP3    H149409   4.190   3.069   1.026  0.9131 -0.2017 -0.5473
 9306TIP3    H249410   4.314   2.982   1.037 -0.3882 -1.9671  0.5732
 9307TIP3   OH249411   1.215   5.342   0.719  0.2569 -0.7911 -0.7712
 9307TIP3    H149412   1.288   5.281   0.729 -0.2906 -1.3478 -0.0727
 9307TIP3    H249413   1.249   5.410   0.661  0.5621 -2.2402 -2.3883
 9308TIP3   OH249414   5.188   1.085   3.011 -0.4219  0.4547  0.3739
 9308TIP3    H149415   5.155   1.172   3.033 -1.6356  0.4057 -1.0633
 9308TIP3    H249416   5.167   1.032   3.088  1.1838  1.5880  1.6582
 9309TIP3   OH249417   2.278   0.918   3.547  0.3552 -0.1423 -0.2896
 9309TIP3    H149418   2.346   0.906   3.481  0.5224 -0.2113 -0.1048
 9309TIP3    H249419   2.195   0.906   3.500  0.4295  1.1635 -0.7868
 9310TIP3   OH249420   2.247   5.855  12.077 -0.4683 -0.7934 -0.6106
 9310TIP3    H149421   2.282   5.773  12.042  1.9696  0.9684 -2.6438
 9310TIP3    H249422   2.293   5.868  12.160 -3.2623 -2.9307  1.4957
 9311TIP3   OH249423   2.145   4.891  16.241  0.0198  0.4922 -0.6131
 9311TIP3    H149424   2.113   4.960  16.183 -0.7300  0.2626 -0.4777
 9311TIP3    H249425   2.138   4.811  16.189 -1.4421  0.1600  0.0567
 9312TIP3   OH249426   0.924   1.009   0.375 -0.2964 -0.2336 -0.1002
 9312TIP3    H149427   0.857   0.940   0.382 -0.0698 -0.4205  0.2320
 9312TIP3    H249428   0.996   0.977   0.428  0.5101 -0.5572 -1.3503
 9313TIP3   OH249429   1.226   4.894   1.782 -0.0632 -0.0055 -0.3456
 9313TIP3    H149430   1.311   4.935   1.774  0.2735 -0.4485  0.7462
 9313TIP3    H249431   1.180   4.946   1.848  0.0280 -0.7883  0.3619
 9314TIP3   OH249432   1.290   1.226  11.544  0.1499  0.0212  0.0117
 9314TIP3    H149433   1.380   1.207  11.518 -0.1066 -1.1949 -0.0715
 9314TIP3    H249434   1.275   1.315  11.514  0.4473 -0.6691 -2.4872
 9315TIP3   OH249435   3.600   6.040   3.789 -0.3480 -0.0272  0.2980
 9315TIP3    H149436   3.516   6.067   3.752 -0.5440  0.3998  1.0521
 9315TIP3    H249437   3.622   6.107   3.853  0.4465 -0.2703  0.2996
 9316TIP3   OH249438   3.840   1.498  13.871  0.0387 -0.0229 -0.6576
 9316TIP3    H149439   3.933   1.504  13.851  0.1311  0.3441 -0.1399
 9316TIP3    H249440   3.836   1.440  13.947  0.0196  1.3750  0.4496
 9317TIP3   OH249441   3.963   3.187   4.962 -0.1707  0.2981  0.2301
 9317TIP3    H149442   3.891   3.224   4.911 -0.3786 -1.0791 -0.5296
 9317TIP3    H249443   4.042   3.225   4.924 -0.4574  1.6197  0.8980
 9318TIP3   OH249444   0.754   6.442  15.884 -0.0823 -0.0997  0.3824
 9318TIP3    H149445   0.707   6.396  15.814  0.6604  2.5112 -2.0285
 9318TIP3    H249446   0.695   6.514  15.908  0.7542  0.5185  0.6090
 9319TIP3   OH249447   6.813   3.103   4.175 -0.4140  0.3086 -0.0903
 9319TIP3    H149448   6.734   3.116   4.227  1.6711 -0.9328  3.7408
 9319TIP3    H249449   6.830   3.009   4.178  0.8441  0.4373 -1.4586
 9320TIP3   OH249450   2.287   1.214   1.171  0.1462 -0.1081 -0.0865
 9320TIP3    H149451   2.290   1.303   1.136 -1.8641  1.0602  2.3267
 9320TIP3    H249452   2.243   1.224   1.256  0.6672 -3.3031  0.6701
 9321TIP3   OH249453   3.727   1.339  12.325 -0.4848 -0.6411 -0.1581
 9321TIP3    H149454   3.703   1.372  12.238  1.7528 -0.7098 -0.8873
 9321TIP3    H249455   3.753   1.418  12.374 -0.5810 -0.7278  0.0335
 9322TIP3   OH249456   3.200   1.447   5.667  0.1339 -0.3543 -0.9389
 9322TIP3    H149457   3.233   1.392   5.738  2.3940  2.3955  0.3376
 9322TIP3    H249458   3.105   1.432   5.668  0.3097 -1.8487  1.4239
 9323TIP3   OH249459   1.809   0.507  16.252  0.0629 -0.0567 -0.3351
 9323TIP3    H149460   1.841   0.431  16.301 -1.6191  0.3089  1.4532
 9323TIP3    H249461   1.872   0.577  16.272 -0.2125 -0.1090  0.7425
 9324TIP3   OH249462   4.618   3.901   0.853  1.0043  0.3784  0.1620
 9324TIP3    H149463   4.600   3.895   0.760 -0.4788  0.9202  0.3780
 9324TIP3    H249464   4.704   3.943   0.859  0.7261  1.1257 -0.9459
 9325TIP3   OH249465   1.623   4.494   1.861 -0.4604 -0.2388  0.0107
 9325TIP3    H149466   1.686   4.502   1.933 -0.3639 -1.8392  0.1422
 9325TIP3    H249467   1.592   4.403   1.866 -1.2840 -0.0576 -1.2894
 9326TIP3   OH249468   4.274   2.437  15.771 -0.4403  0.4178 -0.5358
 9326TIP3    H149469   4.241   2.451  15.860  1.0606  0.8503 -0.0248
 9326TIP3    H249470   4.197   2.452  15.716 -1.6259 -0.7565  0.7134
 9327TIP3   OH249471   6.299   5.311   5.641 -0.2320  0.0653 -0.1678
 9327TIP3    H149472   6.294   5.402   5.669 -2.6858 -0.3451  1.0381
 9327TIP3    H249473   6.264   5.261   5.716 -2.0134 -1.5527 -1.9539
 9328TIP3   OH249474   4.088   1.841   4.010 -0.1371 -0.3539  0.3917
 9328TIP3    H149475   4.111   1.930   4.037  0.5962 -0.5618  0.4793
 9328TIP3    H249476   4.130   1.830   3.925  1.0401 -1.1072  1.0286
 9329TIP3   OH249477   2.322   0.141   1.865 -0.2404  0.6113 -0.1619
 9329TIP3    H149478   2.376   0.169   1.790  0.0216  1.2648  0.2620
 9329TIP3    H249479   2.381   0.145   1.940 -0.1024 -1.3900 -0.1035
 9330TIP3   OH249480   1.667   2.300   1.166  0.6047  0.2067  0.1557
 9330TIP3    H149481   1.741   2.358   1.151  0.2923  0.6646  0.3694
 9330TIP3    H249482   1.625   2.291   1.080  1.6446 -1.1006 -0.2588
 9331TIP3   OH249483   4.736   6.737   4.655 -0.0044  0.2873  0.3332
 9331TIP3    H149484   4.680   6.677   4.704  0.0644  0.1087  0.1939
 9331TIP3    H249485   4.810   6.683   4.628 -0.2567  0.2782 -0.3517
 9332TIP3   OH249486   2.974   3.026   3.242  0.4197 -0.0005  0.1816
 9332TIP3    H149487   2.910   3.006   3.311  0.5146 -2.3670 -0.3532
 9332TIP3    H249488   2.924   3.078   3.178 -0.3910 -0.0548  0.7435
 9333TIP3   OH249489   2.693   1.053   2.833 -0.1112  1.3399  0.3505
 9333TIP3    H149490   2.743   0.997   2.774  0.2511  1.1805  0.8065
 9333TIP3    H249491   2.744   1.134   2.839 -1.2051  2.2041 -1.2234
 9334TIP3   OH249492   3.591   6.555   0.757 -0.4404 -0.2872 -0.0756
 9334TIP3    H149493   3.517   6.565   0.817  0.1884  0.8276  0.5616
 9334TIP3    H249494   3.552   6.524   0.675 -1.4416 -0.9153  0.6130
 9335TIP3   OH249495   4.927   2.940   5.080 -0.2236 -0.1619  0.2300
 9335TIP3    H149496   4.909   2.957   4.988 -0.9600  2.9273  0.8149
 9335TIP3    H249497   4.847   2.901   5.114 -0.2610 -0.5166 -0.2584
 9336TIP3   OH249498   4.898   0.810   6.037  0.0970  0.2976  0.0726
 9336TIP3    H149499   4.967   0.763   6.083 -1.6251 -2.4736  0.0220
 9336TIP3    H249500   4.820   0.797   6.091 -0.8705  1.4944 -0.9660
 9337TIP3   OH249501   4.167   2.519  14.138  0.2284  0.2706 -0.9841
 9337TIP3    H149502   4.097   2.457  14.162  1.0083 -0.4852 -0.6281
 9337TIP3    H249503   4.144   2.599  14.185 -0.0929 -0.1497 -0.4011
 9338TIP3   OH249504   4.505   3.997  11.400  0.4324 -0.0088 -0.4618
 9338TIP3    H149505   4.425   3.945  11.412  0.2638  0.3378 -0.0798
 9338TIP3    H249506   4.474   4.083  11.373  0.5229  0.8419  1.9177
 9339TIP3   OH249507   0.956   6.303   0.435  0.7815 -0.4657  0.0260
 9339TIP3    H149508   0.946   6.211   0.461 -1.0543 -0.3683 -0.2479
 9339TIP3    H249509   0.980   6.348   0.516  2.6248 -1.2907 -0.0114
 9340TIP3   OH249510   4.566   4.338   0.133  0.4796 -0.1386  0.0118
 9340TIP3    H149511   4.508   4.394   0.184 -0.0476 -1.0695  0.4445
 9340TIP3    H249512   4.555   4.368   0.043 -0.0622  0.2179  0.1927
 9341TIP3   OH249513   4.291   6.579   2.852  0.3402 -0.3841 -0.3183
 9341TIP3    H149514   4.267   6.662   2.894 -0.9356 -1.2387  0.7435
 9341TIP3    H249515   4.366   6.601   2.797  1.0683  1.1410  1.1772
 9342TIP3   OH249516   2.732   3.174  12.089 -0.0912 -0.5232 -0.0176
 9342TIP3    H149517   2.820   3.184  12.052 -0.4114 -0.5852 -0.8170
 9342TIP3    H249518   2.714   3.258  12.131  0.9118 -0.9851  1.4432
 9343TIP3   OH249519   2.623   1.215   5.355  0.3160 -0.2350  0.0737
 9343TIP3    H149520   2.539   1.200   5.399  1.0239  0.0272  1.5714
 9343TIP3    H249521   2.649   1.128   5.325 -0.0968 -0.4512  0.3240
 9344TIP3   OH249522   0.488   4.324  15.943  0.0177  0.2153  0.0803
 9344TIP3    H149523   0.456   4.252  15.997 -0.4890  1.7587  1.9392
 9344TIP3    H249524   0.460   4.403  15.989 -0.8654  1.6612 -2.6987
 9345TIP3   OH249525   6.084   1.820  14.123  0.6227 -0.0483  0.0320
 9345TIP3    H149526   6.079   1.726  14.109 -0.7292 -0.2686  1.6732
 9345TIP3    H249527   6.178   1.838  14.131  0.8507 -1.4881  0.9794
 9346TIP3   OH249528   5.611   0.384  15.210  0.1763 -0.4315 -0.0870
 9346TIP3    H149529   5.657   0.432  15.278 -0.3501  1.0621 -0.7318
 9346TIP3    H249530   5.676   0.323  15.175  1.5145  1.1908 -0.5636
 9347TIP3   OH249531   4.110   3.147  11.053  0.5345  0.8791  0.1523
 9347TIP3    H149532   4.046   3.080  11.077 -0.8386  2.5993  1.6269
 9347TIP3    H249533   4.079   3.181  10.969 -0.8756  2.0706  1.1093
 9348TIP3   OH249534   0.461   4.117  16.148 -0.0549 -0.3645  0.0748
 9348TIP3    H149535   0.526   4.070  16.201 -0.9712 -2.2368 -0.4149
 9348TIP3    H249536   0.380   4.111  16.199 -0.1986  0.7258  0.0027
 9349TIP3   OH249537   0.014   5.831   0.085 -0.0761 -0.5178 -0.0977
 9349TIP3    H149538   0.089   5.864   0.134 -1.1368  2.0175 -0.0548
 9349TIP3    H249539  -0.047   5.801   0.153  0.8350 -2.6088 -0.1336
 9350TIP3   OH249540   0.728   3.836   5.515  0.3172 -0.1304 -0.2630
 9350TIP3    H149541   0.747   3.875   5.430 -0.3412 -0.1861 -0.4404
 9350TIP3    H249542   0.814   3.811   5.549  0.7711  1.4508 -0.1504
 9351TIP3   OH249543   4.810   1.682  13.976  0.3844  0.2623  0.4125
 9351TIP3    H149544   4.817   1.648  13.887 -2.0641  0.3733  0.0924
 9351TIP3    H249545   4.895   1.721  13.994  0.9064  0.3400 -1.9239
 9352TIP3   OH249546   0.831   5.525   3.429  0.0149  0.5658 -0.4450
 9352TIP3    H149547   0.923   5.551   3.428 -0.2279  1.5235  0.1818
 9352TIP3    H249548   0.829   5.439   3.386  1.3580  0.0055  0.5389
 9353TIP3   OH249549   5.848   5.117  16.509  0.1370  0.0385  0.2760
 9353TIP3    H149550   5.871   5.084  16.422 -0.2858  0.1961  0.1043
 9353TIP3    H249551   5.804   5.044  16.551  0.2760 -0.0132  0.3324
 9354TIP3   OH249552   5.409   5.695   0.864  0.3451  0.1473 -0.4337
 9354TIP3    H149553   5.412   5.788   0.843  0.7735 -0.1028 -1.5271
 9354TIP3    H249554   5.441   5.690   0.955 -0.5142  1.1414 -0.0536
 9355TIP3   OH249555   0.410   1.650  15.589  0.5419  0.5898 -1.5203
 9355TIP3    H149556   0.323   1.614  15.572  0.8175 -0.5043 -0.7502
 9355TIP3    H249557   0.397   1.744  15.594 -0.7690  0.3796 -0.5202
 9356TIP3   OH249558   5.500   5.267  16.425 -0.0251 -0.4590  0.7312
 9356TIP3    H149559   5.479   5.288  16.335 -0.4844 -0.1324  0.9127
 9356TIP3    H249560   5.422   5.223  16.459  0.4225 -1.2709  0.7536
 9357TIP3   OH249561   5.973   2.246   5.368 -0.5295 -0.0213 -0.4642
 9357TIP3    H149562   6.051   2.265   5.419 -0.2268 -1.0338 -0.5307
 9357TIP3    H249563   5.910   2.212   5.431 -0.8255  0.5258 -0.4576
 9358TIP3   OH249564   5.537   3.133   2.597 -0.0716  0.4397  0.1311
 9358TIP3    H149565   5.488   3.144   2.516 -0.5096 -4.2938 -0.4989
 9358TIP3    H249566   5.470   3.120   2.664  0.3057  0.4685  0.5220
 9359TIP3   OH249567   0.106   1.993  12.676 -0.1499  0.1499  0.1288
 9359TIP3    H149568   0.117   2.009  12.770 -1.8483 -0.9781  0.5549
 9359TIP3    H249569   0.194   1.971  12.646  0.1128 -1.4473  1.8739
 9360TIP3   OH249570   0.615   1.817  13.570 -0.2055  0.3180  0.1454
 9360TIP3    H149571   0.639   1.743  13.514  1.7351 -0.9237  2.4281
 9360TIP3    H249572   0.615   1.893  13.512 -2.5270 -1.4092 -2.3528
 9361TIP3   OH249573   3.848   3.577  17.132 -0.0897  0.0200  0.3887
 9361TIP3    H149574   3.888   3.527  17.203 -2.0842 -1.8552  0.2826
 9361TIP3    H249575   3.907   3.564  17.057  1.7313  1.5496  1.4501
 9362TIP3   OH249576   2.971   2.551   0.646  0.1391  0.0451 -0.2354
 9362TIP3    H149577   2.902   2.528   0.708  0.3357  1.2932  0.4765
 9362TIP3    H249578   3.045   2.496   0.671 -0.1388 -0.2550 -0.0689
 9363TIP3   OH249579   4.640   6.685   2.369 -0.1173 -0.2210  0.1993
 9363TIP3    H149580   4.653   6.780   2.365 -0.3914 -0.1124  1.4926
 9363TIP3    H249581   4.548   6.672   2.347 -0.5427 -0.0111  1.7679
 9364TIP3   OH249582   1.247   0.250   2.704 -0.5471  0.1980  0.5260
 9364TIP3    H149583   1.208   0.214   2.624 -0.0582  0.7013  0.0513
 9364TIP3    H249584   1.178   0.243   2.770 -0.9177 -0.3313  0.0913
 9365TIP3   OH249585   4.066   2.939   4.939 -0.1902  0.2576 -0.2180
 9365TIP3    H149586   4.153   2.978   4.947 -0.1957  0.1095  0.7403
 9365TIP3    H249587   4.006   3.010   4.962 -0.2129 -0.1837  1.2242
 9366TIP3   OH249588   1.064   3.563   0.530 -0.5181 -0.3410  0.0148
 9366TIP3    H149589   0.975   3.581   0.559 -0.3619  1.4243 -0.5043
 9366TIP3    H249590   1.117   3.631   0.571  0.3017 -0.2599 -1.1309
 9367TIP3   OH249591   2.117   0.334  15.983 -0.4227 -0.8041  0.4552
 9367TIP3    H149592   2.109   0.259  15.925  0.3736 -0.2958 -0.3427
 9367TIP3    H249593   2.071   0.404  15.938  2.7796  0.4682 -1.2127
 9368TIP3   OH249594   3.227   4.329  14.471  0.1390 -0.4750 -0.1920
 9368TIP3    H149595   3.179   4.384  14.534 -0.4461 -0.8350 -0.3126
 9368TIP3    H249596   3.318   4.334  14.499 -0.1734 -1.0296  0.9776
 9369TIP3   OH249597   1.081   3.215  16.482 -0.1774 -0.5993 -0.5001
 9369TIP3    H149598   1.087   3.157  16.558  0.8640  0.0209 -0.0777
 9369TIP3    H249599   1.064   3.302  16.520 -2.9515 -0.7642 -1.1885
 9370TIP3   OH249600   2.327   4.510   5.632 -0.3611 -0.1382 -0.5888
 9370TIP3    H149601   2.248   4.481   5.585 -1.1873 -0.3090  0.8373
 9370TIP3    H249602   2.293   4.570   5.698  0.8300  0.4580 -0.5055
 9371TIP3   OH249603   0.101   2.139  10.793 -0.0730 -0.0215  0.3441
 9371TIP3    H149604   0.138   2.226  10.778 -0.5031 -0.0782 -1.2931
 9371TIP3    H249605   0.025   2.135  10.735  0.6617 -1.9235 -0.5639
 9372TIP3   OH249606   4.461   6.537  15.240 -0.4078  0.4574  0.9325
 9372TIP3    H149607   4.405   6.473  15.197  1.2396 -0.1785 -0.3900
 9372TIP3    H249608   4.550   6.513  15.213  0.4317  2.0630  2.0768
 9373TIP3   OH249609   3.393   2.262  16.284  0.0048 -0.9673 -0.0583
 9373TIP3    H149610   3.442   2.180  16.290  0.0909 -0.8551  1.0486
 9373TIP3    H249611   3.377   2.287  16.375 -0.5346 -0.0617 -0.3871
 9374TIP3   OH249612   4.204   5.183   1.477  0.0303  0.4574 -0.0538
 9374TIP3    H149613   4.209   5.116   1.408 -0.1825  0.1208  0.2544
 9374TIP3    H249614   4.125   5.232   1.455 -0.6772 -0.3639  0.5784
 9375TIP3   OH249615   4.720   3.986   4.973 -0.5451 -0.5741  0.3811
 9375TIP3    H149616   4.760   3.906   4.939  1.3552  1.1474 -1.7615
 9375TIP3    H249617   4.667   4.019   4.901  0.6261  1.2775  0.3134
 9376TIP3   OH249618   6.027   5.699  13.735 -0.0749 -0.9316  0.2272
 9376TIP3    H149619   6.070   5.662  13.812  0.3593 -1.6697 -0.3642
 9376TIP3    H249620   5.935   5.709  13.761  0.4343  0.8047  1.5577
 9377TIP3   OH249621   5.855   3.148   0.962 -0.4897 -0.3417  0.0069
 9377TIP3    H149622   5.941   3.122   0.930 -1.0958 -1.3085 -0.9074
 9377TIP3    H249623   5.795   3.123   0.891 -1.6389 -0.5966  1.0438
 9378TIP3   OH249624   1.543   4.383   3.064 -0.2412 -0.1733  0.3463
 9378TIP3    H149625   1.562   4.303   3.015  1.1729  0.2420  0.1579
 9378TIP3    H249626   1.626   4.403   3.109 -1.1836  0.0295  2.0832
 9379TIP3   OH249627   5.644   5.865   1.533  0.0264  0.0474  0.0319
 9379TIP3    H149628   5.721   5.811   1.514  0.0131 -0.0667  0.2996
 9379TIP3    H249629   5.681   5.951   1.554 -0.0124  0.5471 -1.7295
 9380TIP3   OH249630   1.000   3.866  11.476 -0.6528 -0.1443 -0.1521
 9380TIP3    H149631   0.978   3.839  11.387  0.8585  4.7821 -2.3836
 9380TIP3    H249632   0.921   3.911  11.508 -0.7047 -0.6589  0.4747
 9381TIP3   OH249633   6.829   4.866   5.269  0.0605  0.3978 -0.2889
 9381TIP3    H149634   6.821   4.938   5.331  1.6799  0.8104 -0.5303
 9381TIP3    H249635   6.853   4.908   5.186 -1.7833 -0.1712 -1.1707
 9382TIP3   OH249636   3.599   3.322   5.662  0.1275  0.2231  0.4799
 9382TIP3    H149637   3.656   3.319   5.738 -0.2649 -0.8453  0.7600
 9382TIP3    H249638   3.556   3.236   5.662 -0.9529  0.7505 -0.1157
 9383TIP3   OH249639   4.866   2.907   5.448  0.1708  0.6655  0.2292
 9383TIP3    H149640   4.800   2.967   5.483 -0.0887  0.4993  0.0262
 9383TIP3    H249641   4.939   2.965   5.423  1.9663  0.5543  4.3801
 9384TIP3   OH249642   5.459   3.194  14.218 -0.4121 -0.3984 -0.0516
 9384TIP3    H149643   5.461   3.270  14.161  0.4690 -1.0125 -0.8738
 9384TIP3    H249644   5.534   3.141  14.191 -1.8746 -2.3197 -0.5967
 9385TIP3   OH249645   3.345   0.066   3.065 -0.5847 -0.3198 -0.0810
 9385TIP3    H149646   3.330  -0.021   3.030 -0.3708  0.0941 -1.2575
 9385TIP3    H249647   3.433   0.089   3.035 -0.7929  0.4507 -0.1401
 9386TIP3   OH249648   6.769   6.662   6.463 -0.1021 -0.7926  0.0953
 9386TIP3    H149649   6.789   6.569   6.449 -0.6320 -1.0872  1.2069
 9386TIP3    H249650   6.828   6.689   6.533  1.1832  0.1575 -1.2928
 9387TIP3   OH249651   6.438   0.408  13.657 -0.2675 -0.1767  1.0343
 9387TIP3    H149652   6.483   0.493  13.661  1.6243 -1.0106 -0.7472
 9387TIP3    H249653   6.450   0.372  13.745  0.2021  0.7886  1.3849
 9388TIP3   OH249654   1.822   6.578   0.218  0.3124 -0.8679  0.7629
 9388TIP3    H149655   1.833   6.653   0.160  0.3290 -1.1228  0.4318
 9388TIP3    H249656   1.844   6.502   0.163 -2.1438 -1.3478  0.2998
 9389TIP3   OH249657   2.453   6.791  15.244  0.0663 -0.5052  0.2510
 9389TIP3    H149658   2.390   6.722  15.265  1.8443 -2.3407 -0.0595
 9389TIP3    H249659   2.485   6.768  15.157  0.0994  1.2405 -0.2285
 9390TIP3   OH249660   3.201   2.188  14.262 -0.3208 -0.2276 -0.0084
 9390TIP3    H149661   3.119   2.186  14.214 -0.0277  0.3777 -0.5493
 9390TIP3    H249662   3.194   2.267  14.317  0.6167  0.8671 -1.3889
 9391TIP3   OH249663   0.212   5.475  14.846 -0.1740  0.2606 -0.1055
 9391TIP3    H149664   0.260   5.553  14.819 -1.1592  1.4157  1.2616
 9391TIP3    H249665   0.188   5.493  14.937 -2.2131 -0.7256 -0.3894
 9392TIP3   OH249666   4.730   2.486   0.520 -0.5198 -0.0795  1.0314
 9392TIP3    H149667   4.802   2.535   0.481 -0.8499  1.9064  2.7157
 9392TIP3    H249668   4.651   2.521   0.479 -0.6423 -1.3332  0.1335
 9393TIP3   OH249669   6.790   1.209  16.457  0.0607 -0.1531  0.2013
 9393TIP3    H149670   6.837   1.256  16.526  2.0025  0.3162 -1.3535
 9393TIP3    H249671   6.831   1.123  16.454 -0.8770 -0.6203  0.4572
 9394TIP3   OH249672   5.548   5.191   6.012  0.4566 -0.8648 -0.5045
 9394TIP3    H149673   5.572   5.104   6.044  1.0137 -0.3665  0.4615
 9394TIP3    H249674   5.459   5.204   6.043 -0.7899 -2.2526 -3.1351
 9395TIP3   OH249675   0.730   0.344  11.380  0.7183  0.6122 -0.0266
 9395TIP3    H149676   0.648   0.393  11.388  0.4310  0.5684 -2.0206
 9395TIP3    H249677   0.722   0.297  11.297  1.7607 -1.3773  0.9064
 9396TIP3   OH249678   6.351   1.927  16.079  0.3983 -0.2617 -0.3686
 9396TIP3    H149679   6.265   1.886  16.073  0.1648  0.2776 -0.6595
 9396TIP3    H249680   6.405   1.879  16.016  0.3553 -0.6923 -0.0855
 9397TIP3   OH249681   2.776   0.229  15.374  0.1666  0.6144  0.0626
 9397TIP3    H149682   2.784   0.324  15.382 -0.7852  0.7057  0.0284
 9397TIP3    H249683   2.866   0.196  15.381  0.6180  1.5882 -0.9968
 9398TIP3   OH249684   2.760   6.504  14.347 -0.4784 -0.0760 -0.7926
 9398TIP3    H149685   2.795   6.554  14.273  0.0603  0.8236  0.0368
 9398TIP3    H249686   2.779   6.559  14.423  0.0662 -1.5524  0.1550
 9399TIP3   OH249687   3.491   2.870   1.815  0.4991 -0.3628  0.4272
 9399TIP3    H149688   3.526   2.904   1.733 -0.4762  0.8648  0.4949
 9399TIP3    H249689   3.467   2.779   1.795  1.1184 -0.3548 -0.3837
 9400TIP3   OH249690   1.150   4.792  11.170 -0.1648 -0.2906 -0.8252
 9400TIP3    H149691   1.146   4.701  11.199  1.8762 -0.7499 -1.8067
 9400TIP3    H249692   1.059   4.818  11.160 -0.7955 -2.3163 -0.8315
 9401TIP3   OH249693   3.722   2.237   5.955 -0.7001 -0.0231 -0.7542
 9401TIP3    H149694   3.660   2.309   5.943 -0.4235  0.5908  1.0378
 9401TIP3    H249695   3.790   2.274   6.012  0.5337 -1.1149 -1.4632
 9402TIP3   OH249696   4.080   4.682  10.882 -0.3309 -0.2228  0.0705
 9402TIP3    H149697   4.079   4.709  10.974 -2.2045 -0.9929  0.3327
 9402TIP3    H249698   4.155   4.622  10.876  0.1979  0.3244  0.9252
 9403TIP3   OH249699   5.772   4.157   1.038  0.1575  0.1828  0.0834
 9403TIP3    H149700   5.848   4.136   1.092  0.7047  2.6167  0.3745
 9403TIP3    H249701   5.802   4.144   0.948  0.5106 -0.0510  0.2341
 9404TIP3   OH249702   5.976   4.305  11.279  0.3054  0.1963  0.0051
 9404TIP3    H149703   5.885   4.308  11.308  0.4211 -0.8723  0.5313
 9404TIP3    H249704   5.979   4.234  11.215  1.0331 -0.7198  1.0225
 9405TIP3   OH249705   4.883   0.809   0.500 -0.4768  0.1729  0.0359
 9405TIP3    H149706   4.930   0.796   0.417 -1.1260 -1.9296 -0.0683
 9405TIP3    H249707   4.930   0.881   0.542  1.3856 -0.2832 -1.0917
 9406TIP3   OH249708   3.965   5.108   1.089  0.2908 -0.3510  0.1794
 9406TIP3    H149709   4.019   5.177   1.127 -0.2180  0.5672 -0.7385
 9406TIP3    H249710   3.912   5.076   1.162 -1.1123  1.8047  0.1995
 9407TIP3   OH249711   5.569   2.677  15.347 -0.3688 -0.4879  0.1258
 9407TIP3    H149712   5.602   2.683  15.437  0.9357 -0.3442 -0.3588
 9407TIP3    H249713   5.483   2.720  15.351 -0.1219 -0.0504  1.1899
 9408TIP3   OH249714   1.204   4.565  17.044  0.3194  0.2592  0.2865
 9408TIP3    H149715   1.145   4.491  17.028 -0.5503  1.1205 -0.6507
 9408TIP3    H249716   1.147   4.642  17.043  1.2280  0.9723  1.0956
 9409TIP3   OH249717   1.039   3.919   4.185 -0.0239  0.1692 -0.3875
 9409TIP3    H149718   1.054   4.005   4.223  2.6615 -0.1935 -0.4389
 9409TIP3    H249719   0.992   3.870   4.253  0.2801  1.0272  0.4598
 9410TIP3   OH249720   6.080   5.639  15.492  0.2776 -0.6718 -0.1181
 9410TIP3    H149721   6.083   5.685  15.407 -0.3726 -0.4154 -0.0078
 9410TIP3    H249722   6.038   5.702  15.551  0.1950 -1.0759  0.2524
 9411TIP3   OH249723   5.706   3.975  14.790  0.0373  0.3991 -0.1434
 9411TIP3    H149724   5.680   3.891  14.751 -1.7959  1.6811 -1.8489
 9411TIP3    H249725   5.796   3.960  14.820  0.3610 -1.6916 -1.9128
 9412TIP3   OH249726   2.819   4.975  11.467  0.7951 -0.7992 -0.2394
 9412TIP3    H149727   2.874   5.026  11.526 -1.1604  0.2281  0.7727
 9412TIP3    H249728   2.761   5.039  11.426 -2.6892 -2.1789  2.1159
 9413TIP3   OH249729   0.815   1.827  10.260  0.4969  0.5828  0.3345
 9413TIP3    H149730   0.901   1.796  10.287  0.2114  0.0926  0.6947
 9413TIP3    H249731   0.812   1.812  10.166  0.7336  0.4324  0.3504
 9414TIP3   OH249732   4.536   5.842  13.601  0.3490  0.1910  0.1351
 9414TIP3    H149733   4.549   5.780  13.673  1.9253 -1.5390 -1.5197
 9414TIP3    H249734   4.623   5.879  13.586  0.3232 -0.3483 -1.5627
 9415TIP3   OH249735   4.357   3.340  14.526  0.0344  0.2248  0.1012
 9415TIP3    H149736   4.379   3.407  14.590 -1.1612  1.3283 -0.5997
 9415TIP3    H249737   4.270   3.364  14.494 -0.5337 -1.7855 -0.0311
 9416TIP3   OH249738   0.914   3.927  12.679  0.1919 -0.3098 -0.1421
 9416TIP3    H149739   0.907   3.994  12.747 -0.5566  0.3877 -0.8790
 9416TIP3    H249740   0.965   3.968  12.609  1.8825 -1.3851  0.3895
 9417TIP3   OH249741   4.420   0.291   1.695  0.6470 -0.0416  0.0019
 9417TIP3    H149742   4.360   0.328   1.629  0.0683  0.3720  0.7485
 9417TIP3    H249743   4.464   0.367   1.732  2.2692 -0.3815 -1.0910
 9418TIP3   OH249744   5.022   2.074  16.336 -0.3954 -0.1745 -0.0651
 9418TIP3    H149745   4.969   1.995  16.346 -0.3114 -0.2139  0.0685
 9418TIP3    H249746   5.107   2.051  16.373 -0.8710  0.5033  1.5241
 9419TIP3   OH249747   5.482   1.186   2.018  0.5419 -0.0606  0.4280
 9419TIP3    H149748   5.465   1.223   2.104 -1.4157  0.6653 -0.2045
 9419TIP3    H249749   5.569   1.218   1.994  1.0779 -0.2147  2.0732
 9420TIP3   OH249750   2.204   2.516   1.336 -0.3443 -0.8152  0.2714
 9420TIP3    H149751   2.148   2.510   1.414 -1.1846  4.0786  0.3817
 9420TIP3    H249752   2.287   2.548   1.369 -0.3297  0.1854 -0.6828
 9421TIP3   OH249753   5.589   3.129  16.794 -0.6157  1.3455 -0.0827
 9421TIP3    H149754   5.625   3.143  16.706 -1.5074  0.3304 -0.6350
 9421TIP3    H249755   5.586   3.034  16.803  0.2287  1.4339  1.3956
 9422TIP3   OH249756   3.704   3.880   2.515  0.4965  0.6774  0.4435
 9422TIP3    H149757   3.739   3.807   2.567 -0.4035 -1.5610 -1.8939
 9422TIP3    H249758   3.767   3.891   2.444  0.2666  1.7550  0.3896
 9423TIP3   OH249759   0.158   2.063  16.058 -0.3941 -0.1436  0.2446
 9423TIP3    H149760   0.102   1.989  16.036 -2.3290  1.5192 -0.8002
 9423TIP3    H249761   0.198   2.088  15.975 -1.3097  1.1390  0.1544
 9424TIP3   OH249762   1.029   2.604  15.161 -0.5657  0.8320 -0.3255
 9424TIP3    H149763   0.965   2.538  15.132 -1.2343  0.1680  2.4173
 9424TIP3    H249764   0.976   2.670  15.207  0.6959 -0.4341  3.2668
 9425TIP3   OH249765   2.830   4.361   2.254  0.1145  0.7488  0.5742
 9425TIP3    H149766   2.767   4.403   2.195 -0.8989 -0.8425  0.4877
 9425TIP3    H249767   2.861   4.433   2.309 -0.1923  1.9547 -0.7524
 9426TIP3   OH249768   5.956   4.976   1.855 -0.1951 -0.3821 -0.4466
 9426TIP3    H149769   6.023   5.034   1.892  2.1577 -2.6670 -0.9000
 9426TIP3    H249770   5.941   5.010   1.767 -0.1559  0.5431 -0.1084
 9427TIP3   OH249771   4.961   2.590  12.063 -0.1808 -0.1178 -0.4977
 9427TIP3    H149772   4.999   2.576  12.150 -0.1545  0.9249 -0.3210
 9427TIP3    H249773   4.960   2.686  12.053 -2.2983 -0.1215 -0.7071
 9428TIP3   OH249774   3.436   3.723  13.002  0.0675 -0.5029 -0.5205
 9428TIP3    H149775   3.357   3.693  12.958 -0.4835  0.6364 -0.3674
 9428TIP3    H249776   3.508   3.682  12.955 -0.6008 -1.2941 -0.8693
 9429TIP3   OH249777   1.918   6.449   0.837 -0.0028  0.4162 -0.2711
 9429TIP3    H149778   1.898   6.538   0.809 -1.6149  0.0267 -0.4781
 9429TIP3    H249779   2.012   6.440   0.825  0.2687  2.2526  0.2674
 9430TIP3   OH249780   5.354   0.189   3.141 -0.3363 -0.1742  0.1326
 9430TIP3    H149781   5.436   0.238   3.145  0.4096 -1.2964 -0.4805
 9430TIP3    H249782   5.310   0.207   3.224 -0.0071  1.3355  0.0027
 9431TIP3   OH249783   3.212   4.930  11.957  0.0242 -0.5443  0.2657
 9431TIP3    H149784   3.305   4.909  11.963  0.1291 -0.5875 -1.1435
 9431TIP3    H249785   3.168   4.859  12.004  0.6649 -1.0129  0.1707
 9432TIP3   OH249786   6.009   5.883  12.615  0.2670 -0.2664  0.2180
 9432TIP3    H149787   6.020   5.848  12.703 -0.6600 -0.9029  0.0950
 9432TIP3    H249788   5.996   5.807  12.559  0.4018  0.1525 -0.3984
 9433TIP3   OH249789   5.134   5.866  11.509 -0.1428 -0.5109 -0.5667
 9433TIP3    H149790   5.222   5.901  11.498 -0.2988  0.8535  1.7899
 9433TIP3    H249791   5.096   5.865  11.421  1.8727 -0.2373 -1.4756
 9434TIP3   OH249792   3.931   3.610  11.693  0.6877  0.0601  0.4525
 9434TIP3    H149793   3.863   3.551  11.662  1.3732 -0.5586  0.0761
 9434TIP3    H249794   3.968   3.648  11.613 -1.2921  2.8847  0.7113
 9435TIP3   OH249795   1.614   6.682  14.212  0.2736 -0.4094  0.4260
 9435TIP3    H149796   1.611   6.744  14.139  0.4682 -0.4641  0.3706
 9435TIP3    H249797   1.544   6.711  14.271  0.7058  0.1950  0.6558
 9436TIP3   OH249798   4.486   4.064  17.026 -0.2382  0.3378  0.2598
 9436TIP3    H149799   4.460   4.003  17.095 -0.1924 -1.8864 -1.5707
 9436TIP3    H249800   4.538   4.011  16.965 -1.0366  1.9280 -1.9536
 9437TIP3   OH249801   2.133   0.062  11.642 -0.1913 -0.7421  0.0174
 9437TIP3    H149802   2.050   0.035  11.603 -0.6491 -1.2843  1.3116
 9437TIP3    H249803   2.118   0.057  11.736  1.1362 -0.2842  0.2751
 9438TIP3   OH249804   6.118   5.465  16.185  0.1310  0.1972  0.1390
 9438TIP3    H149805   6.175   5.522  16.236 -1.3397  0.1780  1.9175
 9438TIP3    H249806   6.168   5.385  16.172  1.3498  1.0126 -0.3882
 9439TIP3   OH249807   2.419   1.856   1.601 -0.3804 -0.3427 -0.1937
 9439TIP3    H149808   2.379   1.816   1.523 -1.6714  0.2332  0.1458
 9439TIP3    H249809   2.464   1.934   1.567 -1.4071  0.2187 -0.3275
 9440TIP3   OH249810   6.033   4.704  14.673  0.0121  1.0434 -0.4734
 9440TIP3    H149811   5.952   4.653  14.664  0.7432  0.1785 -3.0713
 9440TIP3    H249812   6.103   4.641  14.656  1.3033  1.7575  1.7721
 9441TIP3   OH249813   0.668   5.674  16.740  0.1042 -0.4575  0.3331
 9441TIP3    H149814   0.647   5.761  16.707 -0.0267 -0.9996 -1.0493
 9441TIP3    H249815   0.755   5.655  16.705 -0.4101 -1.4062 -0.4799
 9442TIP3   OH249816   3.028   1.741  15.204 -0.1022  0.2786 -0.0981
 9442TIP3    H149817   3.077   1.658  15.207 -1.0172 -0.3017 -0.6724
 9442TIP3    H249818   3.060   1.790  15.279  0.4020 -0.6410  0.3107
 9443TIP3   OH249819   6.396   2.050  10.123 -0.2472 -0.5547  0.1975
 9443TIP3    H149820   6.409   1.983  10.056 -0.1447 -0.9377  0.5972
 9443TIP3    H249821   6.481   2.055  10.168  0.1566  0.7727 -0.6749
 9444TIP3   OH249822   1.605   5.597  13.391  0.5300  0.0680 -0.4019
 9444TIP3    H149823   1.656   5.586  13.471 -0.0034  0.7684  0.0396
 9444TIP3    H249824   1.617   5.514  13.344  3.0347  0.5961 -0.8869
 9445TIP3   OH249825   6.440   2.018   1.501  0.2252  0.1902 -0.1337
 9445TIP3    H149826   6.390   2.098   1.509 -2.0466 -1.0810 -0.8164
 9445TIP3    H249827   6.441   1.998   1.408  0.3462 -0.8091  0.0619
 9446TIP3   OH249828   0.795   4.442   3.176  0.1955  0.0313  0.2010
 9446TIP3    H149829   0.845   4.427   3.095 -0.8225 -0.0995 -0.4260
 9446TIP3    H249830   0.711   4.475   3.146 -0.2271 -0.0907  1.2185
 9447TIP3   OH249831   1.697   0.315  13.213  0.1132  0.1957 -0.2745
 9447TIP3    H149832   1.757   0.387  13.194 -0.7160  0.8979 -0.2939
 9447TIP3    H249833   1.753   0.245  13.246  0.9401  0.8288 -0.3115
 9448TIP3   OH249834   3.885   4.807  16.062 -0.4365  0.0723  0.2279
 9448TIP3    H149835   3.944   4.733  16.064  0.3632  0.6668  3.0209
 9448TIP3    H249836   3.931   4.876  16.109 -1.7513  1.8930 -0.9962
 9449TIP3   OH249837   3.468   0.759   5.275 -0.1998 -0.3163 -0.0656
 9449TIP3    H149838   3.544   0.747   5.333 -0.0048 -1.6694 -0.5444
 9449TIP3    H249839   3.400   0.704   5.313 -0.2788 -0.7043 -0.7379
 9450TIP3   OH249840   2.996   2.046  15.207  0.3805 -0.4481  0.1471
 9450TIP3    H149841   3.034   2.029  15.292 -0.2445  0.7349  0.6830
 9450TIP3    H249842   2.941   2.123  15.219  1.9847  1.1227 -1.8202
 9451TIP3   OH249843   1.343   3.852  15.008  0.2151 -0.7418 -0.1427
 9451TIP3    H149844   1.291   3.839  14.928 -0.7105 -1.2067  0.5204
 9451TIP3    H249845   1.292   3.914  15.060  1.1484  0.0970 -0.1929
 9452TIP3   OH249846   0.242   0.350   5.307  0.3038  0.7344  0.0503
 9452TIP3    H149847   0.171   0.410   5.331  0.9388  0.9619  1.4893
 9452TIP3    H249848   0.302   0.353   5.382  1.3733 -0.1535 -0.7332
 9453TIP3   OH249849   0.052   5.476   5.641  0.0571  0.0312 -0.0233
 9453TIP3    H149850   0.041   5.388   5.677  1.2442 -0.2123 -0.2049
 9453TIP3    H249851  -0.017   5.528   5.682  0.3207 -0.6234  1.3151
 9454TIP3   OH249852   3.172   5.760  11.501  0.1963 -0.2858 -0.0710
 9454TIP3    H149853   3.147   5.686  11.555 -0.7181 -0.9222 -1.3001
 9454TIP3    H249854   3.214   5.821  11.561 -0.5797 -1.0497  1.2950
 9455TIP3   OH249855   0.197   1.219   3.259 -0.5859  0.0017  0.4123
 9455TIP3    H149856   0.202   1.239   3.165 -3.0236  0.1207  0.2537
 9455TIP3    H249857   0.280   1.251   3.294  0.5422 -0.3643 -1.7515
 9456TIP3   OH249858   1.620   2.918   4.757 -0.1198  0.1957 -0.3034
 9456TIP3    H149859   1.678   2.925   4.682 -0.0523 -1.3529 -0.4360
 9456TIP3    H249860   1.546   2.865   4.726 -1.0686  1.1794  0.1809
 9457TIP3   OH249861   4.305   5.282  16.829 -0.1272  0.2654 -0.3496
 9457TIP3    H149862   4.389   5.266  16.786  0.7577  1.4098  0.8833
 9457TIP3    H249863   4.313   5.371  16.865 -2.0341  0.5764 -0.5887
 9458TIP3   OH249864   6.223   6.488  12.306 -0.5855  0.2081  0.5299
 9458TIP3    H149865   6.244   6.550  12.376 -0.6108 -1.0391  1.6761
 9458TIP3    H249866   6.298   6.429  12.303 -0.9800 -0.2823  0.1027
 9459TIP3   OH249867   5.201   6.035   2.350 -0.0473  0.1253  0.0460
 9459TIP3    H149868   5.260   5.964   2.375 -0.4888 -0.7035 -1.1824
 9459TIP3    H249869   5.237   6.067   2.267 -0.2755  0.8506  0.2223
 9460TIP3   OH249870   5.847   6.088  11.507 -0.7715 -0.2686 -0.5893
 9460TIP3    H149871   5.932   6.117  11.541 -1.2081 -0.6629  0.9476
 9460TIP3    H249872   5.868   6.034  11.431  0.2170  1.4149 -1.5682
 9461TIP3   OH249873   4.718   4.778  12.634 -0.4335  0.7879 -0.1926
 9461TIP3    H149874   4.691   4.870  12.636 -0.9150  0.6557 -0.2723
 9461TIP3    H249875   4.811   4.779  12.655 -0.6315  1.2198  0.7272
 9462TIP3   OH249876   5.901   5.012   2.561  0.4063 -0.0127 -0.4536
 9462TIP3    H149877   5.828   4.950   2.565  1.8836 -1.9548 -1.7647
 9462TIP3    H249878   5.978   4.959   2.579  1.5045  2.1379  1.6830
 9463TIP3   OH249879   0.844   3.731   4.842  0.1362  0.5439  0.0349
 9463TIP3    H149880   0.841   3.780   4.760  0.2176 -0.5506 -0.6439
 9463TIP3    H249881   0.879   3.646   4.818 -0.4197 -0.0124  1.1121
 9464TIP3   OH249882   6.575   6.028  11.574  0.0767 -0.0083  0.0465
 9464TIP3    H149883   6.665   6.003  11.555 -0.8050 -3.2557 -0.4364
 9464TIP3    H249884   6.572   6.039  11.669  0.9099 -0.0951  0.0858
 9465TIP3   OH249885   6.487   2.903  13.295  0.2414  0.3858  0.1835
 9465TIP3    H149886   6.403   2.928  13.257 -0.8753 -0.1722  2.1382
 9465TIP3    H249887   6.552   2.935  13.233 -1.4342 -1.4130 -2.7784
 9466TIP3   OH249888   1.099   4.367  10.759 -0.4751  0.4884 -1.0527
 9466TIP3    H149889   1.166   4.307  10.791 -1.0512  0.5140  0.2447
 9466TIP3    H249890   1.062   4.323  10.682  0.8599  0.3866 -1.6712
 9467TIP3   OH249891   4.999   0.897   1.469 -0.7286  0.4157 -0.1976
 9467TIP3    H149892   4.921   0.930   1.425 -1.1360 -0.1608  0.0886
 9467TIP3    H249893   4.996   0.802   1.456  0.4650  0.4713 -1.0741
 9468TIP3   OH249894   4.250   3.189  14.831 -0.1078 -0.0475 -0.5800
 9468TIP3    H149895   4.169   3.210  14.786 -0.3784  0.9200  0.3325
 9468TIP3    H249896   4.313   3.174  14.760 -1.3602 -2.1548 -1.3437
 9469TIP3   OH249897   0.359   6.338  11.288  0.1241 -0.5445 -0.1779
 9469TIP3    H149898   0.311   6.379  11.359  1.2378 -1.0409  0.8999
 9469TIP3    H249899   0.370   6.408  11.223 -0.8222 -0.0584  0.1763
 9470TIP3   OH249900   3.710   2.737   0.614  0.0894 -0.1207  0.3938
 9470TIP3    H149901   3.616   2.752   0.613 -0.0313 -0.6650  1.7224
 9470TIP3    H249902   3.745   2.798   0.550 -1.1817 -0.0528 -0.2673
 9471TIP3   OH249903   0.830   6.613  16.716  0.3814 -0.3533 -0.0764
 9471TIP3    H149904   0.846   6.519  16.723  1.7742 -0.0354  1.7163
 9471TIP3    H249905   0.902   6.646  16.663 -0.2959 -0.3182 -0.9972
 9472TIP3   OH249906   4.567   4.166   0.667 -0.1850  0.3207  0.4402
 9472TIP3    H149907   4.473   4.150   0.659 -0.1378 -0.4952  1.2981
 9472TIP3    H249908   4.577   4.204   0.755  0.3507 -0.2194  0.6214
 9473TIP3   OH249909   2.713   4.560  11.450 -0.1649 -0.2285  0.5192
 9473TIP3    H149910   2.657   4.485  11.431 -0.7359  0.0511  1.0401
 9473TIP3    H249911   2.735   4.551  11.543 -1.5945  1.0933  1.0269
 9474TIP3   OH249912   6.009   0.928   4.626 -0.3603  0.4350  0.3507
 9474TIP3    H149913   5.990   0.882   4.544 -0.4985  0.6374  0.2677
 9474TIP3    H249914   6.094   0.970   4.611 -0.4846  0.6483  0.2317
 9475TIP3   OH249915   6.143   1.550  13.012  0.0675  0.7992  0.1477
 9475TIP3    H149916   6.081   1.590  12.950  0.5713  1.3013 -0.0410
 9475TIP3    H249917   6.124   1.593  13.096  1.4364  2.4114 -0.2999
 9476TIP3   OH249918   4.374   4.618   4.976 -0.6821 -0.2588 -0.6617
 9476TIP3    H149919   4.417   4.703   4.971 -0.9690 -0.1106 -0.6639
 9476TIP3    H249920   4.389   4.578   4.890 -0.6225 -0.1734 -0.6907
 9477TIP3   OH249921   1.447   5.810   5.408 -0.3062  0.2527 -0.7836
 9477TIP3    H149922   1.482   5.746   5.346 -2.7433 -1.4445 -0.5799
 9477TIP3    H249923   1.426   5.758   5.486 -0.4161  1.7100  0.1918
 9478TIP3   OH249924   6.516   0.300  11.067 -0.1856 -0.3087  0.1324
 9478TIP3    H149925   6.545   0.370  11.008  0.3869 -0.3797  0.3288
 9478TIP3    H249926   6.595   0.273  11.113 -0.6924 -0.0426  1.1700
 9479TIP3   OH249927   5.775   4.589  16.682 -0.1132 -0.2013 -0.1355
 9479TIP3    H149928   5.831   4.627  16.750  1.0205 -1.7930 -0.1116
 9479TIP3    H249929   5.780   4.651  16.609 -0.2602  0.8640  0.7304
 9480TIP3   OH249930   3.258   4.400  14.210  0.4189  0.4582 -0.6823
 9480TIP3    H149931   3.255   4.353  14.294  1.5622 -0.6314 -1.2310
 9480TIP3    H249932   3.299   4.339  14.149 -0.1585  1.3348 -1.9915
 9481TIP3   OH249933   4.411   0.331  14.709  0.4434  0.4512 -0.4592
 9481TIP3    H149934   4.407   0.344  14.614  0.2567 -0.1004 -0.5279
 9481TIP3    H249935   4.449   0.244  14.719  1.6525  1.0032  0.0006
 9482TIP3   OH249936   1.650   5.316   5.015  0.9081 -0.0642 -0.0188
 9482TIP3    H149937   1.619   5.238   4.970 -0.0656  0.4328 -0.2428
 9482TIP3    H249938   1.673   5.377   4.944  0.8110  0.1697  0.1484
 9483TIP3   OH249939   2.766   0.222   2.873 -0.3053 -0.0660  0.1959
 9483TIP3    H149940   2.785   0.250   2.963 -0.2053 -0.1518  0.2024
 9483TIP3    H249941   2.674   0.244   2.860  0.3684  2.6392 -0.6682
 9484TIP3   OH249942   2.888   6.680  14.129  0.1439 -0.6459 -0.4979
 9484TIP3    H149943   2.968   6.713  14.087 -0.7735  1.1743 -0.9448
 9484TIP3    H249944   2.823   6.681  14.059 -0.8428  0.2298  0.3938
 9485TIP3   OH249945   0.166   5.552  11.592 -0.2947 -0.1040  0.2391
 9485TIP3    H149946   0.091   5.601  11.625 -0.3859 -0.7060  0.9459
 9485TIP3    H249947   0.236   5.617  11.584 -0.9396  0.5026 -0.6185
 9486TIP3   OH249948   6.027   3.220  12.969  0.6519  0.0627 -0.3028
 9486TIP3    H149949   6.041   3.136  13.013 -1.5641  0.2801  1.0042
 9486TIP3    H249950   5.962   3.202  12.901 -0.2184  0.7605  0.3107
 9487TIP3   OH249951   2.871   2.376   2.148  0.4630  0.4074 -0.3145
 9487TIP3    H149952   2.845   2.307   2.087  3.0592 -1.9173  0.9724
 9487TIP3    H249953   2.833   2.348   2.232  1.5452  0.4955  0.2210
 9488TIP3   OH249954   4.947   5.821  12.385 -0.2763 -0.0816  0.2828
 9488TIP3    H149955   5.008   5.880  12.430  1.0319  0.1538 -1.6683
 9488TIP3    H249956   4.938   5.747  12.445  0.9880  0.4353  1.1657
 9489TIP3   OH249957   3.071   2.394  14.675  0.3944  0.2855  0.2961
 9489TIP3    H149958   2.996   2.368  14.728 -0.6102  1.2925 -0.5670
 9489TIP3    H249959   3.135   2.324  14.688 -0.3001 -0.1067  1.8291
 9490TIP3   OH249960   5.989   6.699  11.783  0.2021 -0.4490 -0.4110
 9490TIP3    H149961   6.066   6.679  11.835 -0.8341 -3.9560  0.0107
 9490TIP3    H249962   5.973   6.620  11.731 -2.0153  0.8666 -1.9222
 9491TIP3   OH249963   2.252   2.996   0.490 -0.2868 -0.0401 -0.0862
 9491TIP3    H149964   2.320   2.969   0.552  0.5789  1.1142 -0.5042
 9491TIP3    H249965   2.176   3.015   0.545  0.5144  1.1215  0.6726
 9492TIP3   OH249966   6.387   4.371  12.761  0.1210  0.2167 -0.2950
 9492TIP3    H149967   6.465   4.413  12.797 -0.8397  0.5854  1.5050
 9492TIP3    H249968   6.378   4.289  12.811  0.0929 -0.5009 -1.4276
 9493TIP3   OH249969   5.443   4.437  11.097 -0.4068  0.2995  0.4852
 9493TIP3    H149970   5.372   4.425  11.034 -0.2514 -1.7131  0.6378
 9493TIP3    H249971   5.512   4.378  11.067 -0.8452 -1.8175  3.2620
 9494TIP3   OH249972   1.328   1.014   2.773 -0.1078  0.2686 -0.0464
 9494TIP3    H149973   1.399   1.061   2.729  0.6141 -1.9536 -1.4275
 9494TIP3    H249974   1.252   1.026   2.715  0.5644 -1.7259 -1.4752
 9495TIP3   OH249975   2.239   0.665  14.240 -0.0205  0.4044 -0.0031
 9495TIP3    H149976   2.161   0.702  14.199  0.9453  1.6543 -0.8012
 9495TIP3    H249977   2.206   0.610  14.311 -1.6015  1.2048 -0.0905
 9496TIP3   OH249978   3.750   5.906   1.814 -0.4905  0.1903  0.8666
 9496TIP3    H149979   3.693   5.890   1.738 -0.2606  0.2589  0.6752
 9496TIP3    H249980   3.735   5.998   1.835 -1.6070 -0.1822  1.7948
 9497TIP3   OH249981   3.745   0.233   0.792 -0.4835 -0.5211 -0.0062
 9497TIP3    H149982   3.769   0.248   0.701 -0.4249 -1.8279 -0.2228
 9497TIP3    H249983   3.757   0.139   0.805  1.6382 -0.0896  1.9471
 9498TIP3   OH249984   0.237   1.436   4.148 -0.1862 -0.1214  0.1731
 9498TIP3    H149985   0.303   1.387   4.196  1.3624 -0.2860 -1.9741
 9498TIP3    H249986   0.228   1.518   4.195  1.0183 -0.4038  0.9201
 9499TIP3   OH249987   4.362   3.977  15.743 -0.2497  0.8885 -0.0204
 9499TIP3    H149988   4.389   3.910  15.680  0.5924  1.3116 -0.1221
 9499TIP3    H249989   4.435   3.981  15.805  0.0507  2.2358 -0.4430
 9500TIP3   OH249990   0.903   2.612  15.688  0.5070 -0.1124  0.1568
 9500TIP3    H149991   0.872   2.645  15.773 -0.6824 -0.9996  0.0834
 9500TIP3    H249992   0.994   2.642  15.683 -0.4793  3.2789  0.0318
 9501TIP3   OH249993   1.515   5.691  10.736 -0.4496  0.0212 -0.1183
 9501TIP3    H149994   1.445   5.683  10.671 -0.9979  0.3937  0.4101
 9501TIP3    H249995   1.481   5.754  10.800 -0.0753 -0.6181  0.7287
 9502TIP3   OH249996   6.090   0.825  16.947  0.0321 -0.5294 -0.3721
 9502TIP3    H149997   6.153   0.761  16.979  1.1160 -0.4322 -2.1778
 9502TIP3    H249998   6.006   0.779  16.945 -0.0226 -0.6786  2.0008
 9503TIP3   OH249999   2.406   5.553   1.842 -0.3891  0.4769 -0.5403
 9503TIP3    H150000   2.501   5.542   1.838 -0.6540 -2.0696 -1.9216
 9503TIP3    H250001   2.379   5.569   1.752 -1.2956  1.2094 -0.1604
 9504TIP3   OH250002   1.262   2.573   6.034 -0.4026  0.3795  0.0376
 9504TIP3    H150003   1.273   2.516   5.957  1.5245  0.5065  0.1723
 9504TIP3    H250004   1.287   2.518   6.108 -1.5869  0.4703  0.5293
 9505TIP3   OH250005   1.326   5.930   3.085 -0.2091 -0.2633  0.2108
 9505TIP3    H150006   1.372   5.899   3.007  0.9359  0.1264  0.7129
 9505TIP3    H250007   1.264   5.996   3.052 -0.2515 -0.6261 -0.4444
 9506TIP3   OH250008   1.260   0.338  11.419  0.0281  0.0313  0.0687
 9506TIP3    H150009   1.290   0.300  11.337 -0.0938  0.6887 -0.2869
 9506TIP3    H250010   1.167   0.357  11.404  0.6084  2.7510 -0.6684
 9507TIP3   OH250011   5.605   4.971   6.124 -1.1377  0.6037 -0.0886
 9507TIP3    H150012   5.585   5.011   6.208 -1.4678  1.3932 -0.5274
 9507TIP3    H250013   5.645   4.887   6.146  1.1377  1.8526  0.9151
 9508TIP3   OH250014   1.878   2.668   0.735  0.6720  0.0538 -0.1005
 9508TIP3    H150015   1.880   2.722   0.814 -2.1517 -1.0662  0.8867
 9508TIP3    H250016   1.800   2.698   0.688  1.3507 -0.4595 -1.6195
 9509TIP3   OH250017   2.655   3.024  14.747 -0.1819 -0.2402 -0.0782
 9509TIP3    H150018   2.636   3.078  14.824  1.7164  1.3598 -0.6184
 9509TIP3    H250019   2.606   3.065  14.676  0.8256  0.4881 -0.3790
 9510TIP3   OH250020   3.123   1.895   4.336  0.1204  0.0201 -0.0228
 9510TIP3    H150021   3.155   1.834   4.270  0.5815  2.1498 -1.9085
 9510TIP3    H250022   3.166   1.869   4.417  1.5220 -1.1615 -1.1055
 9511TIP3   OH250023   0.558   6.389  12.530 -0.2188 -0.1424 -0.0655
 9511TIP3    H150024   0.488   6.400  12.465 -0.9691  0.0352  0.7536
 9511TIP3    H250025   0.519   6.418  12.612  0.4596 -1.1236  0.6189
 9512TIP3   OH250026   3.861   1.704  14.620  0.2818  0.2763  0.2307
 9512TIP3    H150027   3.850   1.797  14.639 -0.1104  0.1985  0.3901
 9512TIP3    H250028   3.819   1.692  14.535 -0.1506  0.1404  0.4611
 9513TIP3   OH250029   1.785   6.219   3.414 -0.4277 -0.1096 -0.3200
 9513TIP3    H150030   1.826   6.136   3.436 -1.4803 -0.6434 -0.2986
 9513TIP3    H250031   1.766   6.213   3.320  1.1980  0.8908 -0.7502
 9514TIP3   OH250032   3.271   5.529  13.049 -0.2220 -0.0275  0.4340
 9514TIP3    H150033   3.248   5.528  12.956  0.4573  0.4771  0.2464
 9514TIP3    H250034   3.367   5.537  13.049 -0.2784  0.8093  1.1685
 9515TIP3   OH250035   5.839   2.410   3.662  0.0966 -0.1529  0.4453
 9515TIP3    H150036   5.896   2.419   3.586  2.2747  0.7293  2.0593
 9515TIP3    H250037   5.818   2.317   3.666  0.1296 -0.2457 -1.0738
 9516TIP3   OH250038   5.584   2.949   0.430  0.2085  0.0411 -0.2580
 9516TIP3    H150039   5.628   2.994   0.502 -0.2106 -1.4553  0.9990
 9516TIP3    H250040   5.495   2.932   0.463 -0.5955  0.9239 -1.8503
 9517TIP3   OH250041   2.443   0.031  16.638 -0.1416  0.4543 -0.3264
 9517TIP3    H150042   2.421   0.084  16.562  0.2297 -0.5492 -1.1447
 9517TIP3    H250043   2.409  -0.056  16.619 -3.9181  1.0658  2.4655
 9518TIP3   OH250044   4.136   5.285  12.137 -0.5091  0.2250  0.6497
 9518TIP3    H150045   4.218   5.317  12.100 -0.9425 -0.2126 -0.7809
 9518TIP3    H250046   4.112   5.211  12.081 -2.8466  1.5144 -0.2239
 9519TIP3   OH250047   4.021   3.917   0.859  0.1684 -0.3835 -0.2526
 9519TIP3    H150048   4.105   3.926   0.814 -0.7281  2.8691 -1.5601
 9519TIP3    H250049   3.956   3.920   0.788 -1.1450 -3.2261  0.6770
 9520TIP3   OH250050   5.542   1.183  13.543 -0.3538 -0.0078  0.1150
 9520TIP3    H150051   5.595   1.189  13.463 -0.4551 -0.2313  0.0299
 9520TIP3    H250052   5.574   1.105  13.588 -1.9053 -1.2977 -0.8996
 9521TIP3   OH250053   0.075   3.994  12.535 -0.0094  0.5174  0.0064
 9521TIP3    H150054   0.110   4.019  12.450  1.3616  0.6669  0.5765
 9521TIP3    H250055   0.108   4.061  12.595 -0.7393  0.2773  0.6999
 9522TIP3   OH250056   3.658   3.058   0.758 -0.7841 -0.1692 -0.5385
 9522TIP3    H150057   3.613   2.998   0.817 -1.2690  1.4930  0.8668
 9522TIP3    H250058   3.590   3.090   0.699 -0.9567  0.4751 -0.0035
 9523TIP3   OH250059   2.507   5.295  15.066  0.3786  0.2440  0.2046
 9523TIP3    H150060   2.589   5.281  15.019  0.9221  1.0288  0.8775
 9523TIP3    H250061   2.517   5.381  15.107 -1.0125  0.6069 -0.1534
 9524TIP3   OH250062   1.906   4.331  15.134 -0.3631 -0.0485  0.0272
 9524TIP3    H150063   1.993   4.296  15.150  0.4103  1.3796 -0.8558
 9524TIP3    H250064   1.871   4.351  15.221 -0.4306 -1.9996  0.4801
 9525TIP3   OH250065   0.592   0.672  15.795  0.1732 -0.2982 -0.0779
 9525TIP3    H150066   0.607   0.578  15.792 -1.0177 -0.5060  0.2365
 9525TIP3    H250067   0.593   0.694  15.888  1.9200  0.2709 -0.1904
 9526TIP3   OH250068   4.254   1.810   2.018 -0.3982  0.2285  0.1525
 9526TIP3    H150069   4.296   1.886   1.978 -0.0417 -0.2521 -0.4155
 9526TIP3    H250070   4.210   1.766   1.945 -0.6753 -0.0561  0.4914
 9527TIP3   OH250071   4.023   2.328   4.336  0.5685  0.2570  0.0517
 9527TIP3    H150072   4.053   2.418   4.322  2.1257  0.0573  1.8032
 9527TIP3    H250073   4.104   2.278   4.348 -0.3321 -0.6843  2.8573
 9528TIP3   OH250074   0.025   3.282  14.020  0.1226 -0.2391  0.0890
 9528TIP3    H150075   0.028   3.315  14.111  0.9767  0.1607 -0.0676
 9528TIP3    H250076   0.048   3.359  13.967 -1.2564 -0.2380 -0.5425
 9529TIP3   OH250077   2.989   4.305   3.080 -0.2312 -0.1646 -0.5144
 9529TIP3    H150078   3.012   4.398   3.077  1.4252 -0.5362 -0.1539
 9529TIP3    H250079   2.963   4.289   3.171 -0.7029 -0.0234 -0.6212
 9530TIP3   OH250080   5.176   3.330  15.522 -0.1738 -0.1366 -0.3154
 9530TIP3    H150081   5.175   3.237  15.502 -0.9403 -0.2079  0.0036
 9530TIP3    H250082   5.218   3.371  15.447  0.6221 -0.7861 -0.2320
 9531TIP3   OH250083   3.336   4.576   3.785  0.2257  0.6419 -0.1057
 9531TIP3    H150084   3.342   4.616   3.872  0.7383  1.6383 -0.5833
 9531TIP3    H250085   3.421   4.593   3.745 -0.1883  0.6665 -0.9940
 9532TIP3   OH250086   3.811   4.487  11.622  0.2879 -0.4479 -0.4204
 9532TIP3    H150087   3.795   4.561  11.564  0.0530  0.9502  1.3260
 9532TIP3    H250088   3.728   4.439  11.622 -0.1866  0.3436 -0.1724
 9533TIP3   OH250089   3.040   1.366  14.556  0.1494 -0.2294  0.0774
 9533TIP3    H150090   2.959   1.410  14.581  0.0922 -0.4155  0.2203
 9533TIP3    H250091   3.023   1.332  14.468 -0.6265 -1.9758  0.8590
 9534TIP3   OH250092   3.089   5.525  11.667  0.1960 -0.4711 -0.0190
 9534TIP3    H150093   3.072   5.456  11.603 -3.8635  0.0323  0.1964
 9534TIP3    H250094   3.033   5.501  11.741 -0.5380  2.4494  0.4721
 9535TIP3   OH250095   4.244   4.119   2.603  0.0264  0.5367 -0.2787
 9535TIP3    H150096   4.175   4.070   2.648  0.3028  0.9381  0.6055
 9535TIP3    H250097   4.222   4.112   2.510 -0.6410 -0.1854 -0.0755
 9536TIP3   OH250098   3.039   4.470  13.467  0.0513  0.1296 -0.8318
 9536TIP3    H150099   2.983   4.543  13.440 -2.0061 -1.3150 -0.6008
 9536TIP3    H250100   3.125   4.493  13.431 -1.2800  1.0375 -3.7240
 9537TIP3   OH250101   6.108   6.826  15.055  0.0499 -0.1362 -0.3901
 9537TIP3    H150102   6.037   6.785  15.104  1.3468 -1.8249  0.1581
 9537TIP3    H250103   6.070   6.843  14.968 -1.1641 -0.5225  0.0380
 9538TIP3   OH250104   3.511   4.193  14.828 -0.2489  0.6465 -0.1497
 9538TIP3    H150105   3.596   4.192  14.871 -0.6381 -0.7218  0.6436
 9538TIP3    H250106   3.448   4.206  14.899 -0.7898  0.2293 -0.5413
 9539TIP3   OH250107   1.061   3.648   5.229 -0.2871  0.1951  0.5576
 9539TIP3    H150108   1.138   3.704   5.235 -1.0862  1.7434 -2.0339
 9539TIP3    H250109   1.091   3.569   5.184  0.3483 -0.5464  2.1971
 9540TIP3   OH250110   1.905   5.821  14.455  0.4155 -0.5316  0.8117
 9540TIP3    H150111   1.914   5.792  14.365 -0.2899 -0.0340  0.5773
 9540TIP3    H250112   1.830   5.772  14.489 -0.3224  0.4376  0.6340
 9541TIP3   OH250113   0.342   4.323  14.130 -0.1701  0.2304  0.5373
 9541TIP3    H150114   0.291   4.254  14.173 -0.3087  0.4938  0.7974
 9541TIP3    H250115   0.385   4.369  14.202 -3.3568  3.1360  0.8449
 9542TIP3   OH250116   4.741   5.225  13.171 -0.1053  0.3747 -0.5735
 9542TIP3    H150117   4.731   5.319  13.153 -0.8201  0.2559 -0.8276
 9542TIP3    H250118   4.676   5.183  13.115  1.1432 -0.3932 -1.5239
 9543TIP3   OH250119   5.270   0.409  12.208  0.4986  0.8379  0.6096
 9543TIP3    H150120   5.264   0.317  12.230 -0.6028  0.6099 -0.5405
 9543TIP3    H250121   5.194   0.449  12.249  0.3917  1.0325  0.2350
 9544TIP3   OH250122   4.851   6.665  14.493 -0.0407 -0.3060 -0.0592
 9544TIP3    H150123   4.894   6.750  14.503  1.2245 -1.0017  0.8543
 9544TIP3    H250124   4.910   6.615  14.437 -0.3628 -0.8338  0.0653
 9545TIP3   OH250125   4.998   0.365  15.060 -0.1196  1.0024  0.1411
 9545TIP3    H150126   5.076   0.379  15.112  0.2688 -1.8103  0.4818
 9545TIP3    H250127   4.993   0.270  15.049 -3.1902  1.0984 -0.3277
 9546TIP3   OH250128   4.188   5.582  12.216 -0.1012 -0.3670  0.1514
 9546TIP3    H150129   4.135   5.546  12.287  0.1578 -0.4239  0.3170
 9546TIP3    H250130   4.127   5.594  12.144 -0.2158 -1.0235  0.1360
 9547TIP3   OH250131   3.054   1.945  13.932 -0.0578  0.3904 -0.4403
 9547TIP3    H150132   2.995   2.011  13.897 -0.2308 -0.1654 -1.2404
 9547TIP3    H250133   3.138   1.990  13.942 -0.4628  1.0195  0.1112
 9548TIP3   OH250134   1.152   0.043  15.517  0.1611 -0.7636 -0.5114
 9548TIP3    H150135   1.155   0.033  15.612  0.7259  0.0019 -0.4398
 9548TIP3    H250136   1.242   0.028  15.489  0.6160  1.7475 -0.6186
 9549TIP3   OH250137   5.600   1.975  13.876  0.3290  0.3395  0.5493
 9549TIP3    H150138   5.548   1.895  13.868  1.1308 -0.0724 -0.9742
 9549TIP3    H250139   5.554   2.038  13.820  1.2963  0.0359 -0.6300
 9550TIP3   OH250140   6.137   0.101  15.628 -0.3791  0.2632  0.0565
 9550TIP3    H150141   6.208   0.069  15.572  0.4771  1.4668  0.4262
 9550TIP3    H250142   6.166   0.082  15.717 -0.8057  0.2160  0.1886
 9551TIP3   OH250143   1.270   2.226   1.693 -0.1627  0.0178  0.4020
 9551TIP3    H150144   1.272   2.176   1.775  0.0580  0.0626  0.4259
 9551TIP3    H250145   1.305   2.166   1.627  1.4985  0.6039  0.6987
 9552TIP3   OH250146   5.369   0.736   4.261  0.0204 -0.0376  0.0321
 9552TIP3    H150147   5.419   0.800   4.209 -1.4341  1.4480  0.3756
 9552TIP3    H250148   5.345   0.668   4.198  1.8073 -0.4083 -0.2940
 9553TIP3   OH250149   5.609   1.081  12.306  0.7375 -0.0554  0.4168
 9553TIP3    H150150   5.658   1.016  12.256  2.3518 -1.0125  3.0428
 9553TIP3    H250151   5.612   1.049  12.396 -1.0359  2.1407  1.3474
 9554TIP3   OH250152   0.541   1.594   6.052  0.7277 -0.4930  0.2153
 9554TIP3    H150153   0.506   1.656   6.116  0.5685 -0.9837  0.6043
 9554TIP3    H250154   0.478   1.522   6.050  2.2653 -2.0062  1.8729
 9555TIP3   OH250155   2.356   4.197   5.301  0.1570 -0.4228 -0.4367
 9555TIP3    H150156   2.423   4.178   5.367 -0.5119  0.1404  0.4104
 9555TIP3    H250157   2.388   4.276   5.257  0.2948 -0.4451 -0.3775
 9556TIP3   OH250158   6.247   6.443   3.655 -0.1567  0.3608 -0.6012
 9556TIP3    H150159   6.276   6.356   3.630  1.0820  0.7600 -0.6210
 9556TIP3    H250160   6.230   6.437   3.749  1.4744  0.4740 -0.2730
 9557TIP3   OH250161   6.794   0.917   3.769  0.2118 -0.5324 -0.4077
 9557TIP3    H150162   6.852   0.911   3.845  1.4854  0.6327 -1.2451
 9557TIP3    H250163   6.852   0.904   3.693 -0.3964  1.5982 -1.3279
 9558TIP3   OH250164   2.770   1.013   4.801  0.5772  0.8925 -0.2263
 9558TIP3    H150165   2.838   1.055   4.750  0.6528  0.7159 -0.2735
 9558TIP3    H250166   2.796   0.920   4.804  0.9593  1.0129  0.7296
 9559TIP3   OH250167   2.237   3.505  10.882 -0.3326  0.2413  0.5745
 9559TIP3    H150168   2.167   3.570  10.888 -0.5051  0.3089 -1.5131
 9559TIP3    H250169   2.239   3.480  10.790  0.9045 -1.4398  1.0043
 9560TIP3   OH250170   2.223   5.061   2.773  0.1345 -0.1192  0.3268
 9560TIP3    H150171   2.288   5.009   2.727  0.8462  1.7161 -0.8470
 9560TIP3    H250172   2.272   5.137   2.806 -0.9304  0.0440  1.6329
 9561TIP3   OH250173   6.753   6.823   1.866  0.1849  0.1903 -0.6633
 9561TIP3    H150174   6.665   6.839   1.899 -0.0768  1.0674 -1.7291
 9561TIP3    H250175   6.761   6.728   1.863 -0.0751  0.0841  1.0759
 9562TIP3   OH250176   5.407   4.491  16.681  0.2865 -0.1064 -0.1331
 9562TIP3    H150177   5.450   4.462  16.762  0.9143  2.7733  0.6588
 9562TIP3    H250178   5.399   4.586  16.690 -1.9969  0.0191 -2.3577
 9563TIP3   OH250179   5.873   1.283  12.250 -0.0219 -0.0735 -0.2025
 9563TIP3    H150180   5.803   1.258  12.310 -0.5975  0.3972 -0.6624
 9563TIP3    H250181   5.917   1.356  12.294 -2.0232  1.9729 -1.4042
 9564TIP3   OH250182   2.959   2.197   0.619  0.0860  0.0374  0.2387
 9564TIP3    H150183   2.874   2.157   0.640  0.2161 -0.9187 -0.9423
 9564TIP3    H250184   2.938   2.264   0.555 -0.0429  1.4566  1.7071
 9565TIP3   OH250185   0.664   1.478   0.888  0.0574  0.1912 -0.7206
 9565TIP3    H150186   0.688   1.389   0.862 -0.3379 -0.2549  0.3675
 9565TIP3    H250187   0.712   1.535   0.828 -0.3064 -0.7580 -1.9554
 9566TIP3   OH250188   1.921   6.173   1.087  0.2492  0.5910 -0.7535
 9566TIP3    H150189   1.943   6.258   1.125  0.5585 -0.2146  0.9277
 9566TIP3    H250190   1.825   6.168   1.093  0.4168 -0.6626  2.6085
 9567TIP3   OH250191   4.457   4.110  14.040 -0.2224 -0.0798  0.1578
 9567TIP3    H150192   4.479   4.065  14.122  1.1760  0.9977  0.4286
 9567TIP3    H250193   4.520   4.077  13.976 -0.5202 -0.0298 -0.1627
 9568TIP3   OH250194   6.766   6.162  11.990  0.1764 -0.5860 -0.4077
 9568TIP3    H150195   6.749   6.144  12.082  0.6018 -2.9961 -0.7394
 9568TIP3    H250196   6.836   6.228  11.991  1.5053 -1.9201  1.0330
 9569TIP3   OH250197   6.834   5.073   5.473 -0.4356 -0.0516  0.1291
 9569TIP3    H150198   6.881   5.044   5.551 -1.1772 -0.3462  0.4683
 9569TIP3    H250199   6.747   5.035   5.482 -1.0271  1.2294 -0.0535
 9570TIP3   OH250200   3.877   1.427   0.649  0.7169 -0.3152 -0.2144
 9570TIP3    H150201   3.866   1.344   0.696 -2.0842  0.8978  1.5466
 9570TIP3    H250202   3.794   1.441   0.605  1.3829  1.2272 -1.0702
 9571TIP3   OH250203   5.966   1.104   0.759 -0.3336 -0.3060 -0.2395
 9571TIP3    H150204   6.036   1.073   0.817  0.0515 -1.4553 -1.2573
 9571TIP3    H250205   5.886   1.093   0.810  0.1210  0.0283  0.5666
 9572TIP3   OH250206   0.165   4.625  14.878  0.1505 -0.1035  0.6245
 9572TIP3    H150207   0.156   4.710  14.922 -1.9917  0.3905 -0.6333
 9572TIP3    H250208   0.258   4.619  14.856  0.3892  1.8007  0.9710
 9573TIP3   OH250209   6.298   4.113  10.837  0.0501  0.7049 -0.0049
 9573TIP3    H150210   6.253   4.096  10.754 -0.2460  0.9280  0.1105
 9573TIP3    H250211   6.292   4.030  10.885  1.0263  0.2757 -0.5704
 9574TIP3   OH250212   0.306   2.103  11.293 -0.1473 -0.2375  0.5761
 9574TIP3    H150213   0.316   2.110  11.198  0.9547 -2.5615  0.4488
 9574TIP3    H250214   0.292   2.009  11.309 -2.3070  0.3297  2.5859
 9575TIP3   OH250215   2.959   3.022  10.539  0.0740  0.1670  0.0129
 9575TIP3    H150216   2.872   3.060  10.546  0.1783  0.5566 -0.6865
 9575TIP3    H250217   2.967   2.964  10.614 -1.4831 -1.2971 -0.8854
 9576TIP3   OH250218   1.190   0.942   3.915  0.7290 -0.0889 -0.0493
 9576TIP3    H150219   1.204   0.850   3.893 -0.4943 -0.1897 -0.4986
 9576TIP3    H250220   1.240   0.990   3.849  0.6645 -0.4332 -0.3539
 9577TIP3   OH250221   5.287   6.472  16.152 -0.1565  0.5377  0.0980
 9577TIP3    H150222   5.219   6.436  16.096  0.1082 -1.0751  0.7627
 9577TIP3    H250223   5.342   6.398  16.175  1.0331  1.5579  0.7001
 9578TIP3   OH250224   3.052   2.391  15.641  0.0781  0.0018 -0.0535
 9578TIP3    H150225   3.041   2.398  15.736  0.7073 -4.2751  0.5308
 9578TIP3    H250226   2.963   2.376  15.608 -0.4441  3.3738 -0.5754
 9579TIP3   OH250227   0.097   2.882  15.301  0.2319  0.1121  0.3679
 9579TIP3    H150228   0.107   2.791  15.270 -0.1364  0.5963 -1.2947
 9579TIP3    H250229   0.186   2.916  15.302  0.5540 -0.6672  2.4345
 9580TIP3   OH250230   1.492   4.960  10.754  0.8333 -0.8753 -0.3166
 9580TIP3    H150231   1.558   5.024  10.729  1.5792 -1.3879  0.3074
 9580TIP3    H250232   1.416   5.013  10.780  1.2187 -0.2678 -0.4119
 9581TIP3   OH250233   2.280   6.281  15.229 -0.0534  0.7214 -0.0863
 9581TIP3    H150234   2.290   6.221  15.156 -2.3311  2.5811 -2.1272
 9581TIP3    H250235   2.368   6.315  15.244  0.5747 -0.0885 -1.6504
 9582TIP3   OH250236   3.337   2.087   0.344  0.3326 -0.3931  0.0397
 9582TIP3    H150237   3.378   2.161   0.389 -0.1744 -0.6254  0.9060
 9582TIP3    H250238   3.265   2.060   0.401 -1.1084  0.0588 -1.4849
 9583TIP3   OH250239   1.306   1.684   5.113  0.0955  0.2046  0.4814
 9583TIP3    H150240   1.305   1.599   5.156 -0.7945 -0.3833 -0.6281
 9583TIP3    H250241   1.385   1.682   5.059 -0.5833 -0.4687 -0.5284
 9584TIP3   OH250242   2.354   5.563  13.858  0.2210  0.4920 -0.3189
 9584TIP3    H150243   2.403   5.616  13.921  2.7294  0.8990 -2.4489
 9584TIP3    H250244   2.287   5.622  13.823  0.7339  1.1741 -0.1590
 9585TIP3   OH250245   0.402   0.724   1.567 -0.6350 -0.2335  0.1317
 9585TIP3    H150246   0.353   0.682   1.496  0.1680 -3.3136  1.2412
 9585TIP3    H250247   0.479   0.669   1.579  0.1551  1.2016  2.2421
 9586TIP3   OH250248   0.771   3.981  16.928 -0.1395 -1.3594 -0.5863
 9586TIP3    H150249   0.702   4.033  16.886  1.6503  0.0266 -1.9989
 9586TIP3    H250250   0.789   4.027  17.010  1.4486  0.3806 -1.8370
 9587TIP3   OH250251   3.392   3.398  11.546  0.1614 -0.1582  0.2647
 9587TIP3    H150252   3.445   3.464  11.591  0.2209 -0.6854  0.9851
 9587TIP3    H250253   3.332   3.366  11.614 -0.6350 -0.0375 -0.3726
 9588TIP3   OH250254   1.915   2.114  11.534 -0.0891  0.0119  0.5129
 9588TIP3    H150255   1.861   2.054  11.586  1.0008 -1.6281 -0.1652
 9588TIP3    H250256   1.944   2.180  11.596 -0.0849 -1.0215  1.6503
 9589TIP3   OH250257   3.274   2.556  17.014  0.0662 -0.8354 -0.4227
 9589TIP3    H150258   3.242   2.564  16.924 -2.0094 -1.2372  0.2139
 9589TIP3    H250259   3.369   2.555  17.006 -0.0421 -3.2560 -2.8488
 9590TIP3   OH250260   6.047   0.124  16.691 -0.0705 -0.1074  0.2142
 9590TIP3    H150261   6.011   0.128  16.603  0.3546  1.5499  0.0802
 9590TIP3    H250262   6.068   0.215  16.712 -1.8425 -0.1752  2.7344
 9591TIP3   OH250263   2.867   6.777  16.474 -0.0563  0.3985 -0.2096
 9591TIP3    H150264   2.901   6.863  16.503 -0.5156  0.3206  0.5862
 9591TIP3    H250265   2.794   6.798  16.416  1.0132  0.5624 -1.5447
 9592TIP3   OH250266   1.310   3.167   3.814 -0.0985 -0.3669 -0.0506
 9592TIP3    H150267   1.302   3.174   3.719 -0.0717  1.9622  0.0744
 9592TIP3    H250268   1.370   3.237   3.838  1.5034 -2.1663  1.5299
 9593TIP3   OH250269   1.144   6.111   1.730 -0.6197  0.1579 -0.7487
 9593TIP3    H150270   1.127   6.048   1.660  2.1884 -1.7168  0.1308
 9593TIP3    H250271   1.172   6.191   1.684  0.9111 -0.9436 -1.7961
 9594TIP3   OH250272   4.535   4.491   3.020  0.3406 -0.2249  0.1835
 9594TIP3    H150273   4.595   4.559   3.050 -0.5434  0.9132 -0.5664
 9594TIP3    H250274   4.589   4.432   2.969  0.9909  0.2949  0.2579
 9595TIP3   OH250275   4.482   3.062  14.661  0.3420  0.0655  0.5356
 9595TIP3    H150276   4.564   3.104  14.688  0.0887  1.4674 -0.7550
 9595TIP3    H250277   4.455   3.110  14.583 -3.3787  1.8571  2.6398
 9596TIP3   OH250278   6.569   3.489   5.534  0.0776  0.4710 -0.2507
 9596TIP3    H150279   6.651   3.527   5.502  0.1915  2.0604  1.7282
 9596TIP3    H250280   6.523   3.561   5.576 -2.4531 -0.3386 -1.3707
 9597TIP3   OH250281   5.845   1.629   1.344  0.2010  0.4374 -0.2021
 9597TIP3    H150282   5.858   1.589   1.258  2.2700 -0.9466  0.7059
 9597TIP3    H250283   5.932   1.636   1.381 -0.6536  1.0070  1.8188
 9598TIP3   OH250284   6.371   0.565  14.464  0.6602  0.0163  0.0718
 9598TIP3    H150285   6.463   0.581  14.484  0.8764 -0.0027 -0.8890
 9598TIP3    H250286   6.337   0.650  14.438  0.4342 -0.0047  0.2937
 9599TIP3   OH250287   0.210   2.281   1.378 -0.2154  0.0233 -0.5424
 9599TIP3    H150288   0.119   2.267   1.354 -0.0911  1.0639 -1.7377
 9599TIP3    H250289   0.206   2.337   1.456 -0.6107  0.1530 -0.6538
 9600TIP3   OH250290   2.804   5.603  10.782 -0.3228 -0.0227 -0.1189
 9600TIP3    H150291   2.864   5.579  10.712 -1.0910  0.4551 -0.9627
 9600TIP3    H250292   2.832   5.690  10.810  0.8034 -0.7358  1.1091
 9601TIP3   OH250293   0.330   1.960  11.752 -0.2549 -0.1090 -0.1086
 9601TIP3    H150294   0.354   1.998  11.837 -0.8010  1.0959 -0.4641
 9601TIP3    H250295   0.413   1.957  11.703 -0.5311  3.5213 -1.1395
 9602TIP3   OH250296   1.062   1.700   4.312 -0.2226  0.2389  0.0416
 9602TIP3    H150297   1.090   1.735   4.396 -2.3403 -1.2251  1.4829
 9602TIP3    H250298   1.015   1.772   4.269  0.3209  0.8039  0.3983
 9603TIP3   OH250299   1.111   0.979  13.660 -0.1384 -0.3372 -0.9718
 9603TIP3    H150300   1.042   0.937  13.711  0.8383  1.2004  1.8914
 9603TIP3    H250301   1.090   1.072  13.663  0.2781 -0.1494 -2.9944
 9604TIP3   OH250302   4.285   0.480   4.178  0.7366  0.0380 -0.2279
 9604TIP3    H150303   4.344   0.444   4.244 -0.9539 -1.4238  0.5880
 9604TIP3    H250304   4.225   0.408   4.158 -0.8866  1.4914 -0.8633
 9605TIP3   OH250305   1.279   5.648  17.004  0.0556 -0.4148  0.1705
 9605TIP3    H150306   1.347   5.714  17.021 -0.8703  0.8645 -0.9466
 9605TIP3    H250307   1.271   5.600  17.087  0.8257  0.8059  0.9724
 9606TIP3   OH250308   0.592   5.372  10.223  0.7211  0.1260  0.1712
 9606TIP3    H150309   0.500   5.358  10.244  0.9545  1.0582  2.0874
 9606TIP3    H250310   0.593   5.452  10.171  0.4632  0.4045  0.5813
 9607TIP3   OH250311   0.148   0.192   2.202  0.2197  0.1773 -0.2405
 9607TIP3    H150312   0.142   0.170   2.295  2.3808 -1.7683 -0.4750
 9607TIP3    H250313   0.169   0.286   2.201 -0.5307  0.3927  1.1620
 9608TIP3   OH250314   2.999   5.186  14.071  0.0306  0.4104 -0.1147
 9608TIP3    H150315   3.006   5.094  14.095 -1.2137  0.0049 -1.2145
 9608TIP3    H250316   3.083   5.206  14.030 -0.8039 -1.1869 -2.8355
 9609TIP3   OH250317   1.770   0.495  14.082 -0.4532 -0.8321  0.1573
 9609TIP3    H150318   1.721   0.507  14.001 -0.0201  0.9748  0.1155
 9609TIP3    H250319   1.771   0.401  14.096  1.5273 -1.4546 -3.2071
 9610TIP3   OH250320   3.584   6.258  11.846 -0.2202 -0.4061 -0.0037
 9610TIP3    H150321   3.647   6.319  11.885 -1.0494  0.1097  0.5450
 9610TIP3    H250322   3.595   6.271  11.752 -2.0816  2.4553  0.0380
 9611TIP3   OH250323   1.536   4.021   4.243 -0.0713  0.1922 -0.1174
 9611TIP3    H150324   1.539   3.926   4.246 -0.5543  0.1855  0.1811
 9611TIP3    H250325   1.508   4.042   4.154  1.0409  0.0878 -0.5133
 9612TIP3   OH250326   5.008   3.696   2.444  0.2136 -0.3534 -0.6179
 9612TIP3    H150327   5.052   3.631   2.390  0.8007 -0.6606  0.2177
 9612TIP3    H250328   4.927   3.653   2.471  1.0198 -1.1219  0.6903
 9613TIP3   OH250329   5.713   0.097  16.810 -0.1868  0.2506 -0.1232
 9613TIP3    H150330   5.770   0.028  16.843 -0.8360 -0.0369  0.4258
 9613TIP3    H250331   5.707   0.081  16.716  1.3099  0.8002 -0.3548
 9614TIP3   OH250332   2.936   5.532   1.821 -0.4083 -0.0676  0.1298
 9614TIP3    H150333   2.846   5.565   1.821 -1.0027 -1.5924  0.8200
 9614TIP3    H250334   2.978   5.579   1.893 -1.9299 -2.4230  2.7323
 9615TIP3   OH250335   5.482   5.152   1.503 -0.5159  0.4145 -0.1813
 9615TIP3    H150336   5.503   5.083   1.440 -1.2103  0.3763 -0.3894
 9615TIP3    H250337   5.399   5.124   1.542 -0.0755  0.4139  0.7971
 9616TIP3   OH250338   2.774   2.544  15.493 -0.1408  0.3299  0.3599
 9616TIP3    H150339   2.680   2.552  15.511 -0.3623 -0.1936 -0.4944
 9616TIP3    H250340   2.814   2.530  15.579 -1.0818 -1.4699  0.5456
 9617TIP3   OH250341   6.614   3.001  13.726 -0.2151  0.1978  0.0408
 9617TIP3    H150342   6.638   3.077  13.779 -1.8349  0.4341  0.4992
 9617TIP3    H250343   6.624   2.926  13.786  1.6918 -0.0228 -0.5062
 9618TIP3   OH250344   2.235   0.668   4.106 -0.2156  0.0517 -0.0809
 9618TIP3    H150345   2.227   0.625   4.021  2.6651 -1.4117  0.2513
 9618TIP3    H250346   2.227   0.761   4.087 -0.0496 -0.2658 -1.9076
 9619TIP3   OH250347   4.032   0.141   0.954  0.3843 -0.3595  0.1545
 9619TIP3    H150348   4.110   0.089   0.975  0.4839 -0.2789 -0.0105
 9619TIP3    H250349   4.031   0.145   0.858 -1.3315 -2.6363  0.0096
 9620TIP3   OH250350   0.293   0.013   5.253  0.2414 -0.1559  0.1459
 9620TIP3    H150351   0.322  -0.055   5.314  1.0170  0.8018  0.8824
 9620TIP3    H250352   0.302   0.095   5.303 -1.7358  0.4056 -0.3235
 9621TIP3   OH250353   1.578   6.136  13.598  0.8053  0.1558  0.4898
 9621TIP3    H150354   1.504   6.188  13.568  1.3321  1.0437  0.6985
 9621TIP3    H250355   1.618   6.102  13.517  1.1737  1.0854  0.2714
 9622TIP3   OH250356   3.930   4.112  11.626  0.4772 -0.0376  0.0008
 9622TIP3    H150357   3.847   4.098  11.672  0.8582 -0.8575  0.4578
 9622TIP3    H250358   3.914   4.187  11.569 -1.1982 -1.3806 -1.4113
 9623TIP3   OH250359   1.927   3.383  15.829  0.0770  0.4955 -0.0203
 9623TIP3    H150360   1.872   3.448  15.784  0.2712  0.2574 -0.6204
 9623TIP3    H250361   2.010   3.386  15.782  0.0098 -0.3593 -0.2187
 9624TIP3   OH250362   4.239   5.898  11.631  0.0056  0.1996  0.2925
 9624TIP3    H150363   4.255   5.815  11.587 -1.8944  0.2824 -0.6867
 9624TIP3    H250364   4.200   5.954  11.564  0.3421  1.5628  1.1821
 9625TIP3   OH250365   2.454   1.452  11.773 -0.0765  0.8172 -0.2550
 9625TIP3    H150366   2.518   1.440  11.703 -0.5943  1.4641 -0.8579
 9625TIP3    H250367   2.398   1.523  11.742 -0.2997  1.1404  0.8344
 9626TIP3   OH250368   5.416   6.549  13.520 -0.0385 -0.2038 -0.2531
 9626TIP3    H150369   5.508   6.555  13.494  0.3199  0.6637  1.1120
 9626TIP3    H250370   5.379   6.635  13.502  0.6502  1.0504  3.3476
 9627TIP3   OH250371   4.687   1.252   1.340 -0.1656  0.3758 -0.2252
 9627TIP3    H150372   4.606   1.262   1.390  1.1244 -0.0541  2.0966
 9627TIP3    H250373   4.723   1.168   1.369  1.1347  0.5789 -1.1633
 9628TIP3   OH250374   0.383   0.023  15.307  0.5093 -0.0742 -0.4040
 9628TIP3    H150375   0.392   0.039  15.401  0.1429 -0.5368 -0.2839
 9628TIP3    H250376   0.289   0.031  15.290  0.6794  1.0067 -0.9254
 9629TIP3   OH250377   1.377   3.063   6.295 -0.4159 -0.2073 -0.1579
 9629TIP3    H150378   1.455   3.019   6.329  1.4787  1.7459 -1.6568
 9629TIP3    H250379   1.308   3.041   6.357  1.1094 -2.6655  0.8190
 9630TIP3   OH250380   0.468   5.991  11.629 -0.6271  0.1746 -0.2256
 9630TIP3    H150381   0.475   5.960  11.539 -1.0718  0.4583 -0.3622
 9630TIP3    H250382   0.503   6.080  11.626  0.5243 -0.2510  0.1389
 9631TIP3   OH250383   5.881   4.122   5.477  0.1044 -0.1201 -1.0105
 9631TIP3    H150384   5.872   4.051   5.541 -3.4748  0.4658 -0.6936
 9631TIP3    H250385   5.904   4.077   5.396  1.5685 -1.1985 -0.0546
 9632TIP3   OH250386   0.390   4.152  12.993  0.1666  0.4465 -0.6621
 9632TIP3    H150387   0.360   4.072  12.948 -0.1902 -0.1333  0.5542
 9632TIP3    H250388   0.371   4.223  12.932 -0.4894 -0.2905 -1.3322
 9633TIP3   OH250389   4.075   6.200   1.647  0.2768 -0.9946  0.1062
 9633TIP3    H150390   4.158   6.244   1.667  0.4160 -1.1514 -0.1196
 9633TIP3    H250391   4.062   6.140   1.721 -0.9066  0.7931  1.4426
 9634TIP3   OH250392   3.567   5.263  12.422 -0.1590  0.4742  0.2775
 9634TIP3    H150393   3.655   5.273  12.459  0.5006  1.0025 -1.3393
 9634TIP3    H250394   3.508   5.288  12.494  0.9663 -0.3835  1.5511
 9635TIP3   OH250395   6.150   2.796   3.432  0.0596 -0.0137  0.4024
 9635TIP3    H150396   6.198   2.736   3.374 -2.8688 -1.4209 -0.7827
 9635TIP3    H250397   6.123   2.868   3.374 -1.3260 -0.5061  0.4036
 9636TIP3   OH250398   6.577   1.796   1.597 -0.3508 -0.0942 -0.1778
 9636TIP3    H150399   6.629   1.768   1.522 -0.9142 -0.9186 -0.2657
 9636TIP3    H250400   6.519   1.863   1.561 -0.2896 -0.1436 -0.3737
 9637TIP3   OH250401   3.381   2.339  10.527  0.2801  0.6962  0.1176
 9637TIP3    H150402   3.440   2.264  10.529  0.2525  0.6848  0.6085
 9637TIP3    H250403   3.299   2.307  10.565 -0.8377  0.0699 -2.5528
 9638TIP3   OH250404   1.543   5.613   4.839 -0.4917 -0.2510  0.5747
 9638TIP3    H150405   1.523   5.585   4.749 -0.6857 -1.9800  1.1284
 9638TIP3    H250406   1.628   5.574   4.858 -0.3357  0.3162  1.0778
 9639TIP3   OH250407   1.490   1.664  11.834 -0.3738  0.2511 -0.0913
 9639TIP3    H150408   1.524   1.582  11.871 -1.2650 -0.1314 -0.0842
 9639TIP3    H250409   1.552   1.731  11.863  0.5690 -0.4679 -0.3962
 9640TIP3   OH250410   6.613   3.985  15.500  0.6807  0.1817  0.2442
 9640TIP3    H150411   6.518   3.999  15.510  0.4204 -2.3169  2.1127
 9640TIP3    H250412   6.621   3.931  15.421  0.6173  0.8159 -0.2038
 9641TIP3   OH250413   0.261   1.986   5.397  0.8553  0.3044 -0.2878
 9641TIP3    H150414   0.347   1.979   5.439  0.6311  0.7535  0.2695
 9641TIP3    H250415   0.243   2.080   5.396  0.4152  0.2200 -0.4969
 9642TIP3   OH250416   6.580   2.926  12.298 -0.1099 -0.0582  0.0358
 9642TIP3    H150417   6.516   2.944  12.230 -0.0548  1.0865  0.2660
 9642TIP3    H250418   6.578   3.004  12.354  0.6864 -0.4783  0.6680
 9643TIP3   OH250419   5.242   4.732   1.950 -0.3519 -0.4700  0.4217
 9643TIP3    H150420   5.334   4.755   1.938 -0.1097 -1.6694 -0.1959
 9643TIP3    H250421   5.223   4.757   2.041 -0.5639  3.3737 -0.5044
 9644TIP3   OH250422   0.885   2.466  14.952  0.0937  0.6065  0.0030
 9644TIP3    H150423   0.798   2.429  14.937  0.1096  0.0090  1.2615
 9644TIP3    H250424   0.930   2.455  14.869 -0.0579 -1.8381  0.1796
 9645TIP3   OH250425   4.757   2.699  16.667  0.0201 -0.5820 -0.7106
 9645TIP3    H150426   4.716   2.675  16.750 -0.3150  0.7566 -0.4628
 9645TIP3    H250427   4.686   2.700  16.604 -0.3003  1.3348 -0.3669
 9646TIP3   OH250428   1.554   2.991   2.654  0.1455  0.0289  0.3721
 9646TIP3    H150429   1.486   2.973   2.719  1.6582 -0.5881  1.8622
 9646TIP3    H250430   1.527   3.072   2.611 -1.0288  0.3040  1.5920
 9647TIP3   OH250431   1.112   5.647   1.362 -0.1953  0.0166  0.6037
 9647TIP3    H150432   1.023   5.663   1.333 -0.4063  0.3718  1.4101
 9647TIP3    H250433   1.112   5.674   1.454  0.6222 -0.4132  0.7365
 9648TIP3   OH250434   0.736   3.076  14.542 -0.0291 -0.0831 -0.1151
 9648TIP3    H150435   0.738   2.982  14.555 -0.7939 -0.6927 -3.5565
 9648TIP3    H250436   0.643   3.098  14.538  0.1414  0.6128 -0.4961
 9649TIP3   OH250437   6.660   3.512  11.587  0.1613  0.0199  0.2954
 9649TIP3    H150438   6.619   3.571  11.650  1.8474  0.4472  1.0533
 9649TIP3    H250439   6.735   3.474  11.634 -0.7420 -2.6321 -0.2095
 9650TIP3   OH250440   4.481   6.220  10.029 -0.3396 -0.4472  0.1039
 9650TIP3    H150441   4.522   6.138  10.058 -1.2689 -0.0869  2.6970
 9650TIP3    H250442   4.449   6.261  10.109 -1.1309  1.8222 -1.2632
 9651TIP3   OH250443   1.562   2.748   2.302 -0.6294 -0.4963 -0.2406
 9651TIP3    H150444   1.471   2.741   2.329 -0.8581 -0.7890 -1.0609
 9651TIP3    H250445   1.558   2.792   2.217  0.1448  1.4297  0.6461
 9652TIP3   OH250446   1.958   0.687  10.810 -0.1447 -0.5063  0.0653
 9652TIP3    H150447   1.965   0.605  10.760  1.0396 -1.2051  1.2897
 9652TIP3    H250448   1.866   0.692  10.836 -0.7280 -0.2672 -1.9023
 9653TIP3   OH250449   1.845   2.405  16.538  0.1501 -0.1341 -0.7928
 9653TIP3    H150450   1.774   2.465  16.514  0.5617  0.1982 -1.2146
 9653TIP3    H250451   1.918   2.431  16.482  0.4681 -0.7626 -0.6784
 9654TIP3   OH250452   6.001   0.007   1.643 -0.2246  0.0070  0.0408
 9654TIP3    H150453   6.019   0.093   1.605 -0.5591  2.7813  5.1319
 9654TIP3    H250454   6.087  -0.029   1.664  0.0099  1.5877  2.2039
 9655TIP3   OH250455   5.600   3.930  15.640  0.0423 -0.3704 -0.8272
 9655TIP3    H150456   5.670   3.995  15.637 -0.5462  0.2710 -0.8906
 9655TIP3    H250457   5.634   3.861  15.697 -0.1006  0.9277  0.9066
 9656TIP3   OH250458   5.615   5.744  14.189 -0.5533  0.1267  0.3107
 9656TIP3    H150459   5.671   5.671  14.216 -1.6209 -0.9218 -0.2003
 9656TIP3    H250460   5.598   5.793  14.269 -1.6399 -1.4987  1.1129
 9657TIP3   OH250461   1.275   3.163  16.281 -0.5386  0.3880  0.3536
 9657TIP3    H150462   1.219   3.128  16.351  1.0267  1.7170  2.3741
 9657TIP3    H250463   1.216   3.219  16.230 -2.2744 -2.3938 -0.9532
 9658TIP3   OH250464   0.708   5.404  11.217  0.1145  0.4242  0.4786
 9658TIP3    H150465   0.663   5.350  11.152 -0.7331  0.0861  1.3193
 9658TIP3    H250466   0.682   5.494  11.197 -0.1440  0.3193  0.3531
 9659TIP3   OH250467   4.376   3.292  11.761 -0.1509  0.1051 -0.5353
 9659TIP3    H150468   4.369   3.254  11.849  0.8828  0.3868 -0.3167
 9659TIP3    H250469   4.301   3.351  11.755  0.0017  0.4050  0.3219
 9660TIP3   OH250470   4.879   5.562   5.941  0.2034  0.3772 -0.1490
 9660TIP3    H150471   4.897   5.514   5.860  0.2437  1.0340 -0.5343
 9660TIP3    H250472   4.927   5.644   5.931 -0.5125  0.8390  0.1557
 9661TIP3   OH250473   5.507   2.798  14.174 -0.2380  0.4318  0.0493
 9661TIP3    H150474   5.590   2.765  14.206  0.2258  0.3777 -1.1552
 9661TIP3    H250475   5.441   2.747  14.221  0.4212 -0.1534  0.3538
 9662TIP3   OH250476   2.932   4.927   1.305 -0.2092  0.0175 -0.2458
 9662TIP3    H150477   2.880   4.973   1.240 -0.6894 -0.0008  0.1203
 9662TIP3    H250478   3.008   4.893   1.256 -0.9094 -0.5962 -0.9357
 9663TIP3   OH250479   3.554   2.433   2.907 -0.2026  0.1698 -0.1247
 9663TIP3    H150480   3.625   2.469   2.855 -0.6937  0.0550 -0.8814
 9663TIP3    H250481   3.597   2.399   2.986  0.7400 -0.9258 -1.0669
 9664TIP3   OH250482   4.308   0.929  14.767 -0.2058  0.0015 -0.0022
 9664TIP3    H150483   4.249   0.999  14.737  1.3463  1.4081  0.0854
 9664TIP3    H250484   4.372   0.974  14.822  1.4951 -1.3175 -0.8190
 9665TIP3   OH250485   3.981   2.450   1.526 -0.0620 -0.3778  0.0831
 9665TIP3    H150486   3.900   2.406   1.553  1.0270 -1.4827  1.7554
 9665TIP3    H250487   3.976   2.537   1.564 -1.3408  0.3228 -1.5620
 9666TIP3   OH250488   0.389   4.362  11.822 -0.2742  0.3552  0.1933
 9666TIP3    H150489   0.359   4.401  11.740  1.1746  0.5551 -0.2733
 9666TIP3    H250490   0.479   4.336  11.804 -0.0422  0.1007  1.6328
 9667TIP3   OH250491   5.648   0.554  14.320  0.1321  0.5962  0.2508
 9667TIP3    H150492   5.717   0.533  14.383 -0.1222  0.2742  0.4221
 9667TIP3    H250493   5.567   0.522  14.360 -0.2364  1.6728  0.3980
 9668TIP3   OH250494   3.340   2.334   0.490 -1.0389 -0.6429  0.1108
 9668TIP3    H150495   3.347   2.421   0.451  2.0429 -0.1919  1.3608
 9668TIP3    H250496   3.300   2.349   0.576 -2.0446 -0.7389 -0.3275
 9669TIP3   OH250497   3.695   3.343  12.667 -0.2835  0.2621 -0.0307
 9669TIP3    H150498   3.728   3.411  12.725  0.7218 -1.4859  1.5615
 9669TIP3    H250499   3.771   3.316  12.616 -0.7600  0.5479 -0.9202
 9670TIP3   OH250500   3.371   2.782  13.533  0.2893 -0.1602 -0.1217
 9670TIP3    H150501   3.407   2.806  13.448  1.3260 -0.8313  0.1079
 9670TIP3    H250502   3.277   2.796  13.525  0.0057 -2.5720 -2.2092
 9671TIP3   OH250503   1.572   2.347   0.907  0.0771 -0.0690 -0.2630
 9671TIP3    H150504   1.619   2.290   0.846 -1.0391 -0.4382 -0.8011
 9671TIP3    H250505   1.550   2.425   0.856  0.3745  0.2383  0.0729
 9672TIP3   OH250506   0.984   5.033  11.404 -0.4388 -0.9130 -0.3236
 9672TIP3    H150507   1.047   4.989  11.462  1.0065 -0.2164 -1.3343
 9672TIP3    H250508   0.912   5.056  11.462  0.8564 -0.4508  1.1744
 9673TIP3   OH250509   4.409   3.636   5.253 -0.4197  0.2334  0.0967
 9673TIP3    H150510   4.485   3.583   5.229  0.8932  1.8833  0.3902
 9673TIP3    H250511   4.333   3.582   5.231  0.8346 -1.7215  0.3803
 9674TIP3   OH250512   1.572   5.260  15.919  0.0980 -0.1933 -0.5617
 9674TIP3    H150513   1.599   5.351  15.933  1.2277 -0.1851 -2.3967
 9674TIP3    H250514   1.477   5.263  15.919  0.0473  0.5203  1.8574
 9675TIP3   OH250515   0.773   0.291   5.573 -0.0107  0.8182 -0.4160
 9675TIP3    H150516   0.820   0.235   5.635 -0.7322 -0.7853 -1.2739
 9675TIP3    H250517   0.837   0.308   5.504 -0.3776 -0.6526 -1.1544
 9676TIP3   OH250518   1.673   2.780   0.570 -0.4237 -0.2814  0.2546
 9676TIP3    H150519   1.577   2.785   0.566 -0.5818 -2.5335 -0.4463
 9676TIP3    H250520   1.703   2.841   0.502 -1.5147 -1.7045 -1.6152
 9677TIP3   OH250521   4.664   1.514  13.362  0.2540  0.5697 -0.0985
 9677TIP3    H150522   4.648   1.474  13.448 -1.0179  2.3896  0.5760
 9677TIP3    H250523   4.720   1.451  13.316 -1.8155 -2.0912  0.7578
 9678TIP3   OH250524   2.060   4.868   3.618  0.3101  0.0613 -0.1090
 9678TIP3    H150525   2.142   4.854   3.666 -0.2831  0.7447  1.1275
 9678TIP3    H250526   2.084   4.929   3.548  1.2114 -1.0642 -0.8378
 9679TIP3   OH250527   4.752   4.538  15.564 -0.3189 -0.0814  0.4919
 9679TIP3    H150528   4.712   4.599  15.502 -0.8670  0.9860  1.8440
 9679TIP3    H250529   4.839   4.521  15.529 -0.4571  0.8492 -0.3287
 9680TIP3   OH250530   6.755   2.746   0.886 -0.0444 -0.6221 -0.2146
 9680TIP3    H150531   6.722   2.679   0.827  0.6978 -1.1763 -0.0129
 9680TIP3    H250532   6.746   2.709   0.974  0.5231 -0.5325 -0.1124
 9681TIP3   OH250533   2.157   1.503  12.115  0.3956  0.1046  0.0458
 9681TIP3    H150534   2.116   1.451  12.046  1.2593  2.1848 -2.2042
 9681TIP3    H250535   2.231   1.450  12.145 -1.1227 -1.6638  0.8126
 9682TIP3   OH250536   0.748   5.776  16.282  0.3111 -0.2672  0.0436
 9682TIP3    H150537   0.793   5.799  16.363 -1.1572  0.4290  0.6930
 9682TIP3    H250538   0.756   5.854  16.227 -3.4465  1.5605  1.7096
 9683TIP3   OH250539   0.827   4.128  17.160  0.2308 -0.3363  0.5455
 9683TIP3    H150540   0.912   4.159  17.191 -0.0612 -0.5476  1.5997
 9683TIP3    H250541   0.793   4.074  17.232 -0.8788 -0.0822  0.2363
 9684TIP3   OH250542   1.090   6.337   5.799  0.2743 -0.3117  0.3621
 9684TIP3    H150543   1.153   6.407   5.781 -0.3073  0.3166  0.7524
 9684TIP3    H250544   1.141   6.271   5.847  1.3191 -1.0586 -1.6609
 9685TIP3   OH250545   2.740   5.248   1.470 -0.5919 -0.6084 -0.5588
 9685TIP3    H150546   2.714   5.265   1.380 -2.9190  2.9930  0.5929
 9685TIP3    H250547   2.830   5.282   1.476 -1.1603  1.0925 -1.1032
 9686TIP3   OH250548   1.106   3.787  14.882  0.0168  0.4689 -0.2582
 9686TIP3    H150549   1.069   3.801  14.795  1.7656  1.0251 -0.9573
 9686TIP3    H250550   1.086   3.868  14.929 -1.9396 -0.2715  0.2966
 9687TIP3   OH250551   1.682   6.002  15.664 -0.0445  0.2683  0.4378
 9687TIP3    H150552   1.729   6.068  15.614  1.9541 -0.5655  1.1407
 9687TIP3    H250553   1.744   5.971  15.730 -1.1657 -1.7204  0.6690
 9688TIP3   OH250554   6.556   1.413  12.029  0.6172 -0.1343  0.0513
 9688TIP3    H150555   6.522   1.367  11.953 -0.1320  1.7673 -0.8345
 9688TIP3    H250556   6.549   1.350  12.101  0.3767 -1.6229 -1.2228
 9689TIP3   OH250557   4.695   1.764   1.506 -0.4076  0.0708  0.2235
 9689TIP3    H150558   4.610   1.774   1.548 -1.1167 -1.2566 -0.8258
 9689TIP3    H250559   4.751   1.828   1.551 -1.7123  0.3655  1.5312
 9690TIP3   OH250560   4.499   2.959   4.041  0.5096  0.3203 -0.2170
 9690TIP3    H150561   4.522   2.883   3.988 -1.7127  0.3124 -1.2679
 9690TIP3    H250562   4.534   2.940   4.128  0.7052 -1.5241 -0.6792
 9691TIP3   OH250563   1.979   2.137  13.531  0.1603  0.2933 -0.0237
 9691TIP3    H150564   1.908   2.181  13.484  1.0614  0.1732 -1.5574
 9691TIP3    H250565   2.048   2.204  13.538  0.1808  0.1880  0.7848
 9692TIP3   OH250566   6.044   6.182  12.159 -0.0333 -0.0899 -0.0758
 9692TIP3    H150567   6.004   6.147  12.239  2.5958 -2.7988  0.2494
 9692TIP3    H250568   6.027   6.276  12.162 -2.3878 -0.4775  2.2031
 9693TIP3   OH250569   5.860   4.065   0.785  0.4318 -0.3612 -0.2396
 9693TIP3    H150570   5.829   3.982   0.822  1.1867 -0.5399  0.0116
 9693TIP3    H250571   5.955   4.062   0.796  0.7019 -0.4322 -2.1836
 9694TIP3   OH250572   4.819   4.974   0.408  0.0351  0.1056  0.8358
 9694TIP3    H150573   4.811   4.879   0.399  0.9224  0.1414 -0.4961
 9694TIP3    H250574   4.729   5.005   0.419 -0.6940 -0.5765 -2.3271
 9695TIP3   OH250575   1.393   3.457   6.233 -0.3282 -0.0722  0.5489
 9695TIP3    H150576   1.433   3.423   6.313 -1.1826 -1.6950  0.3230
 9695TIP3    H250577   1.302   3.431   6.238 -0.2915 -0.6848 -1.1899
 9696TIP3   OH250578   1.024   0.517   4.105  0.1383 -0.4197 -0.4538
 9696TIP3    H150579   0.990   0.467   4.031 -1.1964 -0.7485  0.3513
 9696TIP3    H250580   0.963   0.499   4.177  1.6423 -0.4661  0.8704
 9697TIP3   OH250581   2.228   6.638  12.011 -0.0494  0.4007 -0.3959
 9697TIP3    H150582   2.290   6.705  12.039  0.4447  0.0011 -0.5170
 9697TIP3    H250583   2.185   6.609  12.092  0.0278  0.5713 -0.2944
 9698TIP3   OH250584   4.458   3.839   6.319  0.2414  0.0431 -0.4382
 9698TIP3    H150585   4.495   3.921   6.352 -0.2282  0.2310 -0.3837
 9698TIP3    H250586   4.527   3.803   6.262  0.8566 -0.0289  0.3273
 9699TIP3   OH250587   6.229   0.412  12.610  0.0324 -0.1023  0.1078
 9699TIP3    H150588   6.260   0.460  12.686 -0.2512  1.4091 -0.6868
 9699TIP3    H250589   6.287   0.440  12.539 -0.6149 -0.3522 -0.5365
 9700TIP3   OH250590   5.998   3.748  13.506  0.0025 -0.3089 -0.0619
 9700TIP3    H150591   5.959   3.774  13.422 -0.2203 -1.6564 -0.3897
 9700TIP3    H250592   6.082   3.709  13.483  1.4363  2.1758  0.6151
 9701TIP3   OH250593   0.092   1.221   2.448  0.1625 -0.7415  0.2336
 9701TIP3    H150594   0.141   1.145   2.417 -5.1546 -3.9749 -1.6616
 9701TIP3    H250595   0.036   1.186   2.518 -1.0106  2.0049  0.7909
 9702TIP3   OH250596   3.646   1.018  14.825  0.2016 -0.5571  0.5800
 9702TIP3    H150597   3.722   1.068  14.796 -1.2705  0.6072 -1.5800
 9702TIP3    H250598   3.594   1.081  14.876 -1.0114 -0.1800 -1.0287
 9703TIP3   OH250599   5.330   3.810  13.609 -0.0766 -0.1046 -0.2420
 9703TIP3    H150600   5.256   3.826  13.551  0.4701  1.1634 -0.6393
 9703TIP3    H250601   5.333   3.715  13.619 -0.7859 -0.2854 -1.5154
 9704TIP3   OH250602   5.218   0.505   5.895  0.0913  0.1174 -0.4116
 9704TIP3    H150603   5.199   0.534   5.984  0.0298 -1.6692  0.1953
 9704TIP3    H250604   5.313   0.504   5.890  0.0993  1.2889 -0.7590
 9705TIP3   OH250605   6.265   0.547   2.760  0.6537  0.7319  0.9661
 9705TIP3    H150606   6.181   0.593   2.760  0.6841  0.7934  1.4538
 9705TIP3    H250607   6.320   0.596   2.699  0.1716  0.3801  0.2346
 9706TIP3   OH250608   2.017   4.281   5.224 -0.6738  0.2651 -0.0958
 9706TIP3    H150609   2.056   4.326   5.299 -0.0079 -0.1863 -0.1617
 9706TIP3    H250610   1.946   4.229   5.261 -0.7934  0.5774  0.1207
 9707TIP3   OH250611   5.922   6.492  11.643 -0.1513  0.1277  0.3018
 9707TIP3    H150612   5.844   6.447  11.675 -1.1270 -0.2157 -2.3445
 9707TIP3    H250613   5.918   6.484  11.548  3.2288 -0.0665  0.0382
 9708TIP3   OH250614   5.977   0.101   4.180  0.0207 -0.2822 -0.1508
 9708TIP3    H150615   6.053   0.075   4.128  1.0189  1.1151  0.5271
 9708TIP3    H250616   6.013   0.162   4.245 -1.5782 -0.1318  0.6401
 9709TIP3   OH250617   2.748   2.805   3.105  0.1934 -0.0092  0.0746
 9709TIP3    H150618   2.687   2.733   3.092 -2.5101  1.4399  3.2650
 9709TIP3    H250619   2.810   2.772   3.170  1.5057 -0.6867 -1.4438
 9710TIP3   OH250620   0.915   1.355   3.624 -0.1099  0.0435  0.2603
 9710TIP3    H150621   0.915   1.350   3.719 -1.3286 -3.5429  0.2214
 9710TIP3    H250622   1.007   1.367   3.600  0.7490 -2.4551  1.9116
 9711TIP3   OH250623   5.063   5.758  13.824 -0.0669  0.2928 -0.0530
 9711TIP3    H150624   5.058   5.827  13.890  0.6567 -0.5567  0.9243
 9711TIP3    H250625   4.974   5.724  13.818 -0.3517  1.0640 -0.2833
 9712TIP3   OH250626   1.901   3.370   4.210 -0.4577 -0.1704  0.4056
 9712TIP3    H150627   1.897   3.450   4.157 -1.2846 -0.8919 -0.6647
 9712TIP3    H250628   1.960   3.392   4.282 -0.0296  1.1448 -0.3088
 9713TIP3   OH250629   6.698   1.583   0.429  0.2102 -0.3423  0.2395
 9713TIP3    H150630   6.658   1.659   0.388  0.4266 -0.4747 -0.2191
 9713TIP3    H250631   6.626   1.524   0.448  0.2700 -1.0240 -1.4958
 9714TIP3   OH250632   4.541   2.712   0.532  0.3035  0.3772  0.1754
 9714TIP3    H150633   4.607   2.779   0.547 -0.2161  1.4213 -1.7831
 9714TIP3    H250634   4.508   2.690   0.619  2.2080  0.8413  1.0700
 9715TIP3   OH250635   5.314   0.810  15.337  0.2711  0.2457 -0.3369
 9715TIP3    H150636   5.219   0.797  15.341  0.2104  0.9125  0.8437
 9715TIP3    H250637   5.342   0.812  15.428  1.4135  0.1516 -0.6733
 9716TIP3   OH250638   4.505   0.627  16.373  0.1504  0.1772 -0.0874
 9716TIP3    H150639   4.440   0.557  16.381  0.1688  0.3666  2.2412
 9716TIP3    H250640   4.453   0.708  16.374  0.3527  0.4251  3.5071
 9717TIP3   OH250641   5.261   4.932  15.525 -0.5969 -0.5171  0.0511
 9717TIP3    H150642   5.192   4.953  15.589  0.5588  0.6957  0.9269
 9717TIP3    H250643   5.326   4.883  15.576  0.9218  1.5168  0.1519
 9718TIP3   OH250644   2.532   2.084   4.580  0.4968  0.6088  0.4803
 9718TIP3    H150645   2.548   2.100   4.487  1.2690  0.9180  0.6594
 9718TIP3    H250646   2.493   1.997   4.583 -0.0148  0.8085 -0.1726
 9719TIP3   OH250647   5.446   0.927   6.259  0.0228 -0.2855 -0.7173
 9719TIP3    H150648   5.484   0.910   6.173 -1.6984 -1.3442 -1.3225
 9719TIP3    H250649   5.512   0.896   6.321  1.1575  0.2071 -1.6520
 9720TIP3   OH250650   4.290   5.739  16.189  0.2017  0.3506 -0.3589
 9720TIP3    H150651   4.273   5.713  16.280 -0.4043  2.1746  0.0894
 9720TIP3    H250652   4.235   5.681  16.137  1.6585 -1.7403  0.2825
 9721TIP3   OH250653   3.261   3.697   0.239  0.4200  0.0002  0.2405
 9721TIP3    H150654   3.267   3.785   0.202  1.6267 -0.6283 -1.1890
 9721TIP3    H250655   3.226   3.710   0.327  0.5159  1.8903  0.0475
 9722TIP3   OH250656   0.146   5.721   0.738  0.7969  0.5499  0.6122
 9722TIP3    H150657   0.162   5.796   0.680  0.0874 -1.2080 -2.0509
 9722TIP3    H250658   0.233   5.689   0.760  1.1733 -0.2184 -1.6764
 9723TIP3   OH250659   6.781   1.412  14.148 -0.1461 -0.1459 -1.0621
 9723TIP3    H150660   6.855   1.473  14.157 -0.1144 -0.2195 -0.8209
 9723TIP3    H250661   6.756   1.419  14.056 -0.0029  0.0716 -1.0865
 9724TIP3   OH250662   4.116   2.809  11.003  0.5799  0.1700  0.4540
 9724TIP3    H150663   4.075   2.809  10.917  0.4432  1.2718  0.5094
 9724TIP3    H250664   4.063   2.868  11.056 -0.1555 -1.5412  1.7245
 9725TIP3   OH250665   2.910   0.339   5.073  0.1787 -0.0878  0.2785
 9725TIP3    H150666   2.944   0.329   5.162  2.1512 -2.3659 -0.6173
 9725TIP3    H250667   2.849   0.412   5.079  1.3139  0.7814  3.1971
 9726TIP3   OH250668   2.337   2.383   1.701  0.0163 -0.1104  0.0736
 9726TIP3    H150669   2.260   2.353   1.750  0.2600 -1.6820 -0.4433
 9726TIP3    H250670   2.409   2.377   1.763  0.0630 -0.6634 -0.0221
 9727TIP3   OH250671   5.867   4.439   5.277 -0.4664  0.4554  0.5786
 9727TIP3    H150672   5.930   4.393   5.333  0.9529  1.3171 -0.2815
 9727TIP3    H250673   5.909   4.523   5.257  0.1741 -0.6877 -3.6863
 9728TIP3   OH250674   1.375   1.939  15.659 -0.5146 -0.1379  0.2012
 9728TIP3    H150675   1.334   2.021  15.631 -1.7647 -1.3268 -1.6257
 9728TIP3    H250676   1.336   1.872  15.603 -0.1245 -2.1242  2.1646
 9729TIP3   OH250677   4.054   4.424   5.006 -0.1360  0.1859 -0.1416
 9729TIP3    H150678   4.028   4.331   5.007 -1.0815  0.4450 -0.1112
 9729TIP3    H250679   4.084   4.441   5.095  0.8275 -0.2985 -0.3564
 9730TIP3   OH250680   3.933   3.295   3.604  0.0618 -0.4227 -0.0132
 9730TIP3    H150681   3.887   3.327   3.526  0.4241  0.8585  0.2781
 9730TIP3    H250682   3.863   3.272   3.665 -0.2171  0.3913 -0.0136
 9731TIP3   OH250683   4.870   3.069  15.328 -0.3779 -0.5351  0.2370
 9731TIP3    H150684   4.963   3.075  15.310 -0.1662 -2.2741  0.6284
 9731TIP3    H250685   4.829   3.125  15.262  1.0111  1.8673  1.2607
 9732TIP3   OH250686   1.713   5.941   1.188  0.0240  0.7424 -0.1164
 9732TIP3    H150687   1.670   6.025   1.173  0.0926  0.7803 -0.1016
 9732TIP3    H250688   1.655   5.877   1.148 -0.2794  0.7464  0.3145
 9733TIP3   OH250689   0.879   0.081  17.008 -0.4443 -0.3504  0.0229
 9733TIP3    H150690   0.948   0.015  17.011  0.2160  0.2764 -0.8186
 9733TIP3    H250691   0.798   0.031  16.999  0.0669 -1.0507 -0.8705
 9734TIP3   OH250692   1.929   1.706  13.418 -0.2384  0.0188 -0.2027
 9734TIP3    H150693   1.976   1.690  13.499  0.8805  0.4505 -0.7517
 9734TIP3    H250694   1.984   1.767  13.369  0.7021 -2.6281 -2.6910
 9735TIP3   OH250695   3.094   5.076   4.178 -0.3009  0.1609 -0.2696
 9735TIP3    H150696   3.095   5.097   4.271 -2.1918 -1.2155  0.1212
 9735TIP3    H250697   3.055   5.154   4.137 -1.8815 -0.2090  0.4463
 9736TIP3   OH250698   3.555   5.972  16.764  0.0581 -0.0636  0.2823
 9736TIP3    H150699   3.567   5.944  16.673  1.3903  0.7002  0.2029
 9736TIP3    H250700   3.524   5.893  16.809  3.0714 -1.5704 -0.0468
 9737TIP3   OH250701   1.573   3.259  15.312  0.4660 -0.0539 -0.0008
 9737TIP3    H150702   1.635   3.187  15.299 -0.1412 -0.6088  0.1016
 9737TIP3    H250703   1.604   3.302  15.392  0.9283 -0.0963 -0.1520
 9738TIP3   OH250704   1.269   3.402  11.827  0.3962 -0.3842 -0.1881
 9738TIP3    H150705   1.311   3.317  11.841  0.5335 -0.3720 -0.5211
 9738TIP3    H250706   1.326   3.465  11.872  0.7910 -0.3550 -0.7311
 9739TIP3   OH250707   3.291   6.820  16.731  0.6468 -0.2494 -0.1626
 9739TIP3    H150708   3.263   6.734  16.763  1.2829  0.0945  1.4022
 9739TIP3    H250709   3.341   6.858  16.803  1.5277  0.8982 -1.3188
 9740TIP3   OH250710   4.478   0.129  13.799  0.8070  0.1736  0.6349
 9740TIP3    H150711   4.552   0.106  13.855  1.3429  1.8495  0.6685
 9740TIP3    H250712   4.497   0.218  13.770 -0.1626 -0.1333 -1.0733
 9741TIP3   OH250713   0.997   5.344  12.861 -0.2715 -0.0699 -0.2817
 9741TIP3    H150714   1.008   5.433  12.895  0.2780  0.1397 -0.9914
 9741TIP3    H250715   1.036   5.346  12.774  1.3900 -1.4486  0.3526
 9742TIP3   OH250716   6.645   1.973   0.578  0.0690  1.0392  0.1331
 9742TIP3    H150717   6.573   2.031   0.550 -2.8136 -2.7131 -1.1994
 9742TIP3    H250718   6.643   1.977   0.673 -3.3242 -0.1904  0.2675
 9743TIP3   OH250719   4.626   4.829   2.466 -0.1601  0.0393  0.0436
 9743TIP3    H150720   4.688   4.845   2.396  0.6425 -1.7798  0.2818
 9743TIP3    H250721   4.660   4.752   2.511 -1.9128 -0.2417  0.9794
 9744TIP3   OH250722   0.053   0.154   4.964  0.1295 -0.0768  0.3255
 9744TIP3    H150723   0.132   0.100   4.964  1.8783  2.3321  1.4612
 9744TIP3    H250724   0.032   0.167   5.056 -0.9531  0.2668  0.0553
 9745TIP3   OH250725   3.879   1.377   1.315  0.1302 -0.1968  0.1979
 9745TIP3    H150726   3.929   1.457   1.298 -1.1796  1.0579  1.9087
 9745TIP3    H250727   3.945   1.308   1.325  1.6348  1.5172  3.1092
 9746TIP3   OH250728   3.601   0.408  11.247 -0.2407  0.1479 -0.1892
 9746TIP3    H150729   3.568   0.373  11.164  1.4473  0.1338 -0.9128
 9746TIP3    H250730   3.692   0.378  11.250 -0.3931 -0.2224  1.9050
 9747TIP3   OH250731   6.290   3.625  14.722  0.3180 -0.3791 -0.0651
 9747TIP3    H150732   6.220   3.573  14.681  1.6259 -1.2826 -1.2151
 9747TIP3    H250733   6.269   3.715  14.699 -1.8868 -0.3017  1.7928
 9748TIP3   OH250734   0.210   6.829  12.273  0.1044  0.5182  0.1261
 9748TIP3    H150735   0.124   6.793  12.294 -0.3376  0.6214 -1.4257
 9748TIP3    H250736   0.225   6.896  12.340 -1.5101  1.2651 -0.2171
 9749TIP3   OH250737   1.956   5.800   3.952 -0.4233 -0.0667 -0.4324
 9749TIP3    H150738   2.008   5.818   4.029 -1.2458  0.6136 -0.0190
 9749TIP3    H250739   1.961   5.705   3.941 -1.8639 -0.4457  1.6156
 9750TIP3   OH250740   2.375   4.874   4.992  0.0458 -0.2107  0.3828
 9750TIP3    H150741   2.360   4.968   4.981  2.8033  0.2000 -0.5986
 9750TIP3    H250742   2.434   4.868   5.067 -0.2317 -1.2097  0.5384
 9751TIP3   OH250743   5.148   4.332   0.313  0.5470 -0.0462  0.1587
 9751TIP3    H150744   5.206   4.323   0.389  2.9822 -1.3394 -1.6889
 9751TIP3    H250745   5.170   4.418   0.277  1.0124 -0.3449 -0.2832
 9752TIP3   OH250746   3.097   6.146   2.879 -0.2362 -0.0560 -0.0110
 9752TIP3    H150747   3.092   6.077   2.813  0.8318 -0.2464  0.0772
 9752TIP3    H250748   3.020   6.201   2.864 -1.7257 -1.8571  0.5963
 9753TIP3   OH250749   4.360   1.609  11.208 -0.1596  0.4017 -0.2586
 9753TIP3    H150750   4.273   1.627  11.243 -0.3814  1.4605 -1.2947
 9753TIP3    H250751   4.416   1.599  11.285 -1.4545 -1.9119  0.4992
 9754TIP3   OH250752   4.670   1.174  12.961 -0.1248 -0.2589  0.0733
 9754TIP3    H150753   4.629   1.220  13.034 -3.0385 -3.3740  0.6372
 9754TIP3    H250754   4.752   1.139  12.998 -0.6198 -0.2002  1.2643
 9755TIP3   OH250755   6.077   1.001  13.758 -0.1725 -0.2600 -0.3704
 9755TIP3    H150756   6.019   0.929  13.784 -0.2558  0.1489  0.6443
 9755TIP3    H250757   6.110   1.036  13.841 -1.3767  1.8891 -0.7109
 9756TIP3   OH250758   4.396   0.498   0.615  0.1610  1.1314 -0.5340
 9756TIP3    H150759   4.390   0.577   0.668  1.2880  1.1111 -0.3590
 9756TIP3    H250760   4.430   0.528   0.531  1.6889  0.6972 -0.0954
 9757TIP3   OH250761   1.268   5.465  16.240  0.2329 -0.1744  0.1184
 9757TIP3    H150762   1.308   5.384  16.208  1.3853  0.2249  0.4996
 9757TIP3    H250763   1.308   5.480  16.325 -1.2461 -0.0917  0.8398
 9758TIP3   OH250764   3.158   3.624  15.614  0.6134 -0.3777  0.0236
 9758TIP3    H150765   3.209   3.549  15.645  1.8376  0.0696 -0.8333
 9758TIP3    H250766   3.197   3.700  15.657 -0.0544 -0.1197  0.2019
 9759TIP3   OH250767   4.812   6.358  14.253 -0.1677  0.3076 -0.8533
 9759TIP3    H150768   4.863   6.374  14.332 -2.3689  0.6830  0.5710
 9759TIP3    H250769   4.854   6.413  14.186  1.8125 -0.1154 -0.0325
 9760TIP3   OH250770   1.462   1.806   2.884 -0.4299 -0.3798  0.3797
 9760TIP3    H150771   1.461   1.768   2.972  0.2196 -0.9675  0.1403
 9760TIP3    H250772   1.391   1.762   2.838 -0.9157  0.0881  0.6678
 9761TIP3   OH250773   6.745   0.832  16.847 -0.4329 -0.6060 -0.1191
 9761TIP3    H150774   6.705   0.846  16.761 -0.8911 -0.6556  0.0815
 9761TIP3    H250775   6.695   0.759  16.884  0.5456 -1.3887 -0.2952
 9762TIP3   OH250776   5.206   1.142   5.482  0.2826  0.0639 -0.2461
 9762TIP3    H150777   5.130   1.193   5.453 -1.2219 -0.8470  1.8216
 9762TIP3    H250778   5.188   1.053   5.449  1.8715  0.3588 -2.0758
 9763TIP3   OH250779   3.520   2.684   5.259  0.5820 -0.1989 -0.3118
 9763TIP3    H150780   3.505   2.623   5.332  0.5046 -0.5227 -0.5975
 9763TIP3    H250781   3.461   2.757   5.277  0.5439 -0.2893 -0.0634
 9764TIP3   OH250782   2.421   2.236  14.895  0.4812 -0.0385  0.3356
 9764TIP3    H150783   2.502   2.226  14.945 -0.6315 -2.2035  1.8672
 9764TIP3    H250784   2.357   2.268  14.958 -0.0650  0.9105 -0.6642
 9765TIP3   OH250785   2.954   3.719  14.337  0.1538  0.2065  0.4818
 9765TIP3    H150786   3.030   3.661  14.326  0.2596  0.0790  1.7786
 9765TIP3    H250787   2.946   3.731  14.432 -0.7990  1.0901  0.3069
 9766TIP3   OH250788   6.103   4.173   4.001 -0.0275  0.2467 -0.6833
 9766TIP3    H150789   6.084   4.185   4.094 -1.1790  0.8208 -0.9756
 9766TIP3    H250790   6.082   4.082   3.983  0.9158 -0.0735 -0.2322
 9767TIP3   OH250791   2.854   3.230   5.396  0.0648 -0.2296 -0.6293
 9767TIP3    H150792   2.783   3.290   5.375  1.2704  0.8537 -1.7918
 9767TIP3    H250793   2.898   3.269   5.472 -0.3875 -0.7400 -0.0986
 9768TIP3   OH250794   1.434   6.800  15.484  0.3747  0.0171  0.0922
 9768TIP3    H150795   1.443   6.732  15.417  0.3550  0.4753 -0.3827
 9768TIP3    H250796   1.472   6.879  15.444 -0.9300  0.6592  0.0657
 9769TIP3   OH250797   6.247   6.754  16.541  0.5337 -0.0993 -0.0947
 9769TIP3    H150798   6.313   6.703  16.587 -0.3219 -2.3692 -1.2232
 9769TIP3    H250799   6.225   6.826  16.601 -0.3902 -2.7690  3.0303
 9770TIP3   OH250800   0.268   5.809  11.614 -0.3007  0.4154 -0.0170
 9770TIP3    H150801   0.331   5.867  11.656 -1.6044  1.2653  0.8306
 9770TIP3    H250802   0.262   5.842  11.524 -0.2982  0.9762  0.1847
 9771TIP3   OH250803   6.005   1.668  15.219 -0.2210 -0.2913  0.4659
 9771TIP3    H150804   6.040   1.723  15.149  2.8781  0.7420  2.6127
 9771TIP3    H250805   6.046   1.582  15.205 -0.7553 -0.5161  0.2321
 9772TIP3   OH250806   6.498   3.012   5.529  0.5104 -0.2090 -0.0215
 9772TIP3    H150807   6.427   3.001   5.466 -0.3774  4.3497 -0.1099
 9772TIP3    H250808   6.454   3.026   5.613  1.2110  2.1017  0.0232
 9773TIP3   OH250809   4.041   2.191   5.723 -0.0431 -0.3637  0.3586
 9773TIP3    H150810   3.967   2.223   5.672  0.1930  1.8111  1.2839
 9773TIP3    H250811   4.100   2.266   5.730  0.9114 -1.2086  2.0249
 9774TIP3   OH250812   2.926   1.425   5.635 -0.4830 -0.5705 -0.0161
 9774TIP3    H150813   2.875   1.443   5.714 -0.1820 -0.7384  0.2189
 9774TIP3    H250814   2.866   1.442   5.563 -1.5558 -2.7005  0.2744
 9775TIP3   OH250815   6.835   5.843  16.739 -0.3679  0.2783  0.3606
 9775TIP3    H150816   6.824   5.817  16.831  0.1305  0.7506  0.5570
 9775TIP3    H250817   6.828   5.761  16.690  0.7770 -0.1900  0.9398
 9776TIP3   OH250818   4.925   0.373   1.270 -0.4486  0.6974  0.0360
 9776TIP3    H150819   4.850   0.323   1.303  0.0011 -0.1375 -0.2012
 9776TIP3    H250820   4.965   0.316   1.205  0.7727  0.8767  0.6149
 9777TIP3   OH250821   4.789   0.696   3.967  0.4886  0.4216  0.3747
 9777TIP3    H150822   4.759   0.758   4.035  1.6759  0.6986  0.6753
 9777TIP3    H250823   4.713   0.684   3.910 -0.5916  0.0798  1.8205
 9778TIP3   OH250824   2.199   2.613   3.346  0.0432  0.1875 -0.2838
 9778TIP3    H150825   2.155   2.543   3.296 -0.6819  0.1258  0.4285
 9778TIP3    H250826   2.284   2.576   3.369  0.4513  0.2638 -1.5748
 9779TIP3   OH250827   5.570   3.588  15.964 -0.3050 -0.5656 -0.4602
 9779TIP3    H150828   5.616   3.638  15.896  0.7378 -2.3480 -1.1501
 9779TIP3    H250829   5.544   3.507  15.920 -0.6008 -1.2937  0.9953
 9780TIP3   OH250830   3.053   3.849  14.928  0.2111  0.2212 -0.2560
 9780TIP3    H150831   3.132   3.858  14.875 -0.6138  1.6389 -1.3308
 9780TIP3    H250832   2.986   3.818  14.867 -0.2864 -0.1096  0.4321
 9781TIP3   OH250833   1.336   3.834   1.011 -0.2069  0.0012  0.4880
 9781TIP3    H150834   1.311   3.745   0.989 -1.7102  0.6125 -0.4413
 9781TIP3    H250835   1.302   3.848   1.099 -0.9521 -0.0079  0.2117
 9782TIP3   OH250836   2.300   5.761  16.802 -0.3612 -0.6489 -0.4207
 9782TIP3    H150837   2.392   5.787  16.797 -0.5451  0.5203  1.4221
 9782TIP3    H250838   2.301   5.666  16.785  1.3155 -0.8460  0.5719
 9783TIP3   OH250839   3.819   1.210   0.400 -0.4649  0.5446  0.1799
 9783TIP3    H150840   3.772   1.288   0.427 -2.1306 -0.8948  1.6740
 9783TIP3    H250841   3.750   1.145   0.383  0.8577 -0.6217 -1.0271
 9784TIP3   OH250842   4.253   0.709   4.031  0.0712  0.5935  0.1941
 9784TIP3    H150843   4.246   0.662   3.948 -0.9335  0.9537  0.0541
 9784TIP3    H250844   4.271   0.640   4.096  2.6403  0.5029 -0.5164
 9785TIP3   OH250845   1.559   5.704  16.637  0.1560 -0.3835  0.3779
 9785TIP3    H150846   1.592   5.764  16.703 -1.7885 -0.1591  1.2032
 9785TIP3    H250847   1.616   5.627  16.643  0.4245 -0.0869  1.8500
 9786TIP3   OH250848   3.653   1.344  14.026  0.1071  0.3627  0.2363
 9786TIP3    H150849   3.589   1.320  13.959  1.6253  0.3970 -1.2913
 9786TIP3    H250850   3.639   1.437  14.040 -0.0102  0.4307 -0.2965
 9787TIP3   OH250851   2.691   2.563   2.806  0.0339 -0.0182 -0.7261
 9787TIP3    H150852   2.696   2.654   2.778  0.4890 -0.0790 -0.8596
 9787TIP3    H250853   2.606   2.555   2.848 -0.8275 -0.0035 -2.3792
 9788TIP3   OH250854   0.895   1.418   2.616  0.0252  0.1798 -0.1618
 9788TIP3    H150855   0.960   1.387   2.679 -1.1915  0.0594  1.0864
 9788TIP3    H250856   0.935   1.496   2.578  0.3712  0.9259  1.5953
 9789TIP3   OH250857   1.575   0.805   5.346 -0.3401 -0.3218 -0.1147
 9789TIP3    H150858   1.487   0.808   5.383 -0.0522 -1.1813  0.6600
 9789TIP3    H250859   1.562   0.786   5.254 -1.0848  2.1018 -0.5953
 9790TIP3   OH250860   2.825   2.178  11.507  1.1322 -0.4072  0.4519
 9790TIP3    H150861   2.827   2.142  11.418  2.7061  1.2774 -0.2534
 9790TIP3    H250862   2.912   2.158  11.543  0.7913 -0.3715  1.3193
 9791TIP3   OH250863   1.622   0.069  14.640  0.2883 -0.3615 -0.6162
 9791TIP3    H150864   1.669   0.012  14.700  1.6593  1.1579 -0.1772
 9791TIP3    H250865   1.687   0.094  14.574  0.2207  1.9377  0.1152
 9792TIP3   OH250866   2.765   5.238   1.927 -0.3004 -0.1904 -0.0584
 9792TIP3    H150867   2.835   5.256   1.864 -0.4487  0.7364  0.0343
 9792TIP3    H250868   2.736   5.324   1.957 -0.8373 -0.5912  0.6186
 9793TIP3   OH250869   4.725   1.968   4.041 -0.3056  0.1356 -0.0340
 9793TIP3    H150870   4.721   2.004   4.129 -2.8303 -0.1959  0.0761
 9793TIP3    H250871   4.669   2.026   3.989  0.2283 -0.3271 -1.1583
 9794TIP3   OH250872   0.093   0.315  10.679 -0.3280 -0.4328 -0.6201
 9794TIP3    H150873   0.057   0.319  10.591 -0.8372 -2.4090 -0.5626
 9794TIP3    H250874   0.115   0.223  10.692  2.4222  0.2547  0.3068
 9795TIP3   OH250875   3.900   3.592  15.836 -0.1214  0.0170 -0.3921
 9795TIP3    H150876   3.859   3.524  15.890  0.4304  0.1716  0.2372
 9795TIP3    H250877   3.993   3.588  15.860  0.5329 -1.3098 -2.8446
 9796TIP3   OH250878   3.692   5.363   5.513 -0.5089  0.2435 -0.1215
 9796TIP3    H150879   3.658   5.419   5.444  0.8504  1.1950 -0.0620
 9796TIP3    H250880   3.704   5.422   5.588  2.4264  0.3312 -0.5184
 9797TIP3   OH250881   5.871   4.187   0.311  0.0620 -0.2928 -0.2264
 9797TIP3    H150882   5.822   4.112   0.345 -1.0366  0.1104 -0.8929
 9797TIP3    H250883   5.806   4.254   0.295  1.1416  1.1855  1.2311
 9798TIP3   OH250884   6.038   5.512   2.850  0.0386 -0.7467  0.4369
 9798TIP3    H150885   6.114   5.454   2.859  0.7016  0.0559  0.1599
 9798TIP3    H250886   5.985   5.472   2.781  0.5029 -1.0042  0.2252
 9799TIP3   OH250887   6.367   1.405  11.184  0.0791 -0.1193  0.1391
 9799TIP3    H150888   6.363   1.350  11.105 -0.5307 -0.3806  0.3435
 9799TIP3    H250889   6.446   1.458  11.173 -2.2603  3.1664 -2.8462
 9800TIP3   OH250890   4.886   0.775  11.522 -0.1661 -0.0925 -0.6487
 9800TIP3    H150891   4.875   0.837  11.449 -1.9960 -0.6343 -0.8851
 9800TIP3    H250892   4.803   0.727  11.525  0.7012 -1.5905  0.4099
 9801TIP3   OH250893   6.432   0.764   1.960 -0.1390 -0.5581 -0.4580
 9801TIP3    H150894   6.483   0.695   2.001  0.3867 -0.5879 -1.1418
 9801TIP3    H250895   6.360   0.781   2.021  0.0437 -1.3142 -0.0258
 9802TIP3   OH250896   0.908   4.573   0.043  0.3024 -0.4718  0.5422
 9802TIP3    H150897   0.921   4.499  -0.017 -0.7759 -0.1147 -0.1630
 9802TIP3    H250898   0.954   4.646   0.001 -1.1634 -0.0060 -0.3315
 9803TIP3   OH250899   5.196   6.369   1.098  0.6459 -0.3303  0.4563
 9803TIP3    H150900   5.264   6.429   1.069 -0.0322  1.4635  2.3777
 9803TIP3    H250901   5.244   6.298   1.141  1.3515  0.2304  0.6155
 9804TIP3   OH250902   0.144   1.630  15.479  0.6059  0.0904  0.3300
 9804TIP3    H150903   0.080   1.580  15.529  1.3154 -0.2168  0.9644
 9804TIP3    H250904   0.094   1.671  15.408 -0.1293 -0.8388  0.2982
 9805TIP3   OH250905   6.381   0.502   3.095  0.4500  0.1372 -0.5404
 9805TIP3    H150906   6.436   0.573   3.063  1.5589 -0.7039 -0.5802
 9805TIP3    H250907   6.332   0.539   3.168  3.8340 -0.0215  2.0071
 9806TIP3   OH250908   1.648   6.209   1.150  0.2844  0.2510  0.0353
 9806TIP3    H150909   1.609   6.286   1.109 -2.5013  0.0443  2.0788
 9806TIP3    H250910   1.680   6.240   1.234 -0.1021 -0.6391  0.5214
 9807TIP3   OH250911   0.670   5.471   2.701  0.1707 -0.5094 -0.0204
 9807TIP3    H150912   0.684   5.483   2.607 -0.3094 -2.2685 -0.3517
 9807TIP3    H250913   0.618   5.546   2.728  0.8915  0.3727 -1.0129
 9808TIP3   OH250914   6.388   2.587  15.583  0.6143 -0.2494  0.2509
 9808TIP3    H150915   6.355   2.503  15.616 -0.6397  0.2613  0.3433
 9808TIP3    H250916   6.474   2.596  15.624 -0.0571 -0.5915  1.8104
 9809TIP3   OH250917   0.497   2.141  16.320  0.7399  0.1989 -0.2148
 9809TIP3    H150918   0.451   2.219  16.288 -0.5652 -0.1231  0.8028
 9809TIP3    H250919   0.427   2.078  16.339  1.7568 -1.1658 -0.8147
 9810TIP3   OH250920   3.807   6.416  11.923 -0.0940 -0.4644  0.3214
 9810TIP3    H150921   3.872   6.464  11.871 -0.1497 -0.0554  0.6261
 9810TIP3    H250922   3.851   6.335  11.948  1.5618  1.1954  3.3675
 9811TIP3   OH250923   5.512   0.019   2.774 -0.2436 -0.2956 -0.4607
 9811TIP3    H150924   5.423   0.000   2.805 -0.7226  0.7553 -1.1363
 9811TIP3    H250925   5.569  -0.026   2.835 -1.2060  0.2771  0.9002
 9812TIP3   OH250926   1.031   4.935   1.248  0.0049 -0.7581  0.0051
 9812TIP3    H150927   1.038   4.992   1.325 -1.7560 -1.1903  0.5227
 9812TIP3    H250928   0.941   4.945   1.219  0.6072 -0.6720 -1.9906
 9813TIP3   OH250929   6.008   2.887   6.605 -0.2106  0.2659  0.0597
 9813TIP3    H150930   5.923   2.854   6.632  0.4020 -0.7282  0.8303
 9813TIP3    H250931   6.069   2.814   6.619  0.4957  0.3510 -2.1511
 9814TIP3   OH250932   1.038   2.498  16.607  0.0656 -0.4796 -0.1345
 9814TIP3    H150933   1.013   2.488  16.699 -1.0893  2.8273  0.0414
 9814TIP3    H250934   0.960   2.470  16.558 -1.9073  3.6009  0.2400
 9815TIP3   OH250935   1.237   5.393   1.432  0.0898  0.1887  0.6489
 9815TIP3    H150936   1.209   5.483   1.446 -1.6868 -0.5136  2.0475
 9815TIP3    H250937   1.190   5.365   1.354 -0.5556  0.0216  1.0920
 9816TIP3   OH250938   2.258   4.737   3.427 -0.1495  0.1160  0.7745
 9816TIP3    H150939   2.255   4.797   3.353 -1.1984  1.1699  1.6448
 9816TIP3    H250940   2.345   4.697   3.421  0.8845  2.2399  0.5712
 9817TIP3   OH250941   5.226   3.610   1.518 -0.1507 -0.2940  0.1121
 9817TIP3    H150942   5.230   3.699   1.554  0.0249  0.2746 -1.2569
 9817TIP3    H250943   5.288   3.611   1.445 -0.0364 -1.5998  0.1652
 9818TIP3   OH250944   0.834   5.205   1.177 -0.4570 -0.5203  0.4773
 9818TIP3    H150945   0.805   5.235   1.091  1.7775 -1.7417 -0.7882
 9818TIP3    H250946   0.803   5.115   1.184 -0.6648 -0.4155  0.9827
 9819TIP3   OH250947   5.489   5.387  10.979 -0.4644 -0.2750  0.3877
 9819TIP3    H150948   5.502   5.430  11.063 -0.4596  1.1698 -0.3179
 9819TIP3    H250949   5.464   5.458  10.919 -1.1664 -1.3734 -0.6696
 9820TIP3   OH250950   4.281   6.634  16.477 -0.5470 -0.1288  0.4808
 9820TIP3    H150951   4.199   6.591  16.500 -0.9055 -0.0941 -0.6429
 9820TIP3    H250952   4.327   6.570  16.422 -1.5454  1.1999 -2.0965
 9821TIP3   OH250953   4.390   1.728   4.468  0.4818  0.1725  0.1832
 9821TIP3    H150954   4.299   1.703   4.454  0.0029  1.4933  0.7891
 9821TIP3    H250955   4.400   1.810   4.419  0.9040  0.8481  1.3678
 9822TIP3   OH250956   5.961   4.562  16.105  0.3349  0.7761  0.2067
 9822TIP3    H150957   5.883   4.574  16.160  1.2753 -0.0665  1.8110
 9822TIP3    H250958   6.027   4.620  16.144  1.5700 -1.1737  1.1759
 9823TIP3   OH250959   4.451   2.526   5.899 -0.0963  0.2925  0.0186
 9823TIP3    H150960   4.446   2.433   5.919  1.0759  0.5580  1.8697
 9823TIP3    H250961   4.418   2.569   5.979  0.3878  1.4687 -0.3923
 9824TIP3   OH250962   2.946   2.958   2.606  0.2367 -0.2516 -0.2385
 9824TIP3    H150963   3.039   2.981   2.608 -0.2175  1.6497  0.3747
 9824TIP3    H250964   2.923   2.943   2.698 -0.6492  1.8926 -0.0706
 9825TIP3   OH250965   0.996   2.856  16.507 -0.3711 -0.2441 -0.0220
 9825TIP3    H150966   1.014   2.837  16.599 -0.5920  1.9507  0.5454
 9825TIP3    H250967   1.079   2.836  16.462 -0.1057 -0.8818  0.7407
 9826TIP3   OH250968   2.095   0.159  13.171  0.1223 -0.0481 -0.3864
 9826TIP3    H150969   2.162   0.212  13.213 -0.1904  0.9289 -1.0957
 9826TIP3    H250970   2.144   0.099  13.114  0.6898 -2.5267  2.4242
 9827TIP3   OH250971   1.795   5.264   0.596  0.4551 -0.1091 -0.6276
 9827TIP3    H150972   1.813   5.170   0.591 -1.4775 -0.8570  3.0679
 9827TIP3    H250973   1.699   5.270   0.601  0.3814  2.3147 -2.7497
 9828TIP3   OH250974   2.309   6.307  12.970 -0.1660  0.8063  0.0923
 9828TIP3    H150975   2.387   6.286  13.021  0.3617  0.9016 -0.6502
 9828TIP3    H250976   2.252   6.353  13.031  0.6070  1.2463  0.5024
 9829TIP3   OH250977   3.498   1.923  12.975 -0.1618 -0.0297 -0.1362
 9829TIP3    H150978   3.423   1.976  12.946 -1.4869 -0.6983  1.8466
 9829TIP3    H250979   3.460   1.862  13.039  1.3770 -3.0805 -1.9544
 9830TIP3   OH250980   2.186   2.237  10.307  0.4370 -0.2299  0.7886
 9830TIP3    H150981   2.273   2.270  10.328  0.2485  0.2093  0.8877
 9830TIP3    H250982   2.201   2.170  10.240  0.8048  0.2078  0.4273
 9831TIP3   OH250983   1.737   4.355   0.680 -0.2171 -0.1569  0.3385
 9831TIP3    H150984   1.732   4.297   0.604  0.3718 -1.2281  1.0926
 9831TIP3    H250985   1.671   4.423   0.663 -0.0339 -0.3289 -1.1517
 9832TIP3   OH250986   6.120   1.703  12.065 -0.3580  0.9008 -0.6947
 9832TIP3    H150987   6.104   1.620  12.020  1.7195  0.1974 -0.2686
 9832TIP3    H250988   6.039   1.722  12.111 -0.2576 -1.9818  0.8501
 9833TIP3   OH250989   0.391   0.262  13.402 -0.1659  0.1167  0.8837
 9833TIP3    H150990   0.431   0.323  13.341 -0.5158 -0.6468 -0.1344
 9833TIP3    H250991   0.464   0.215  13.442  0.1052  1.1725  1.6764
 9834TIP3   OH250992   1.832   5.955  12.100 -0.2889 -0.1950 -0.2507
 9834TIP3    H150993   1.808   5.980  12.189 -0.0983 -0.9140  0.0051
 9834TIP3    H250994   1.927   5.950  12.101 -0.2408  0.4855 -0.6858
 9835TIP3   OH250995   6.571   5.643   4.877  0.1927  0.2740 -0.1676
 9835TIP3    H150996   6.584   5.730   4.914  2.4669  0.3605 -1.0225
 9835TIP3    H250997   6.567   5.585   4.953 -2.6300  1.1835  0.4876
 9836TIP3   OH250998   5.782   1.557   3.205 -0.0652  0.4151 -0.1999
 9836TIP3    H150999   5.720   1.512   3.148  2.1662 -1.8787 -1.0226
 9836TIP3    H251000   5.846   1.595   3.145 -0.3312  2.2795  0.6445
 9837TIP3   OH251001   5.777   2.894   3.156  0.1370 -0.3068 -0.2556
 9837TIP3    H151002   5.774   2.859   3.067  0.5291  0.1757 -0.4618
 9837TIP3    H251003   5.846   2.960   3.153 -0.6279  0.5251  0.1204
 9838TIP3   OH251004   4.462   1.529  15.514  0.0963 -0.0017 -0.0718
 9838TIP3    H151005   4.446   1.530  15.608 -1.3670 -0.2612 -0.2884
 9838TIP3    H251006   4.459   1.621  15.488 -1.2789 -0.0335 -0.1055
 9839TIP3   OH251007   0.332   1.938   2.438 -0.0636 -0.2952  0.6143
 9839TIP3    H151008   0.308   2.009   2.378 -0.3184  0.2196  1.3040
 9839TIP3    H251009   0.405   1.893   2.395 -0.2036  0.0969 -0.0467
 9840TIP3   OH251010   2.226   3.582   1.517  0.0557  0.1079  0.4057
 9840TIP3    H151011   2.180   3.552   1.595  1.6303 -2.5234  0.4776
 9840TIP3    H251012   2.319   3.579   1.542  0.4768  2.6855 -0.5233
 9841TIP3   OH251013   5.477   6.606   5.210  0.7169 -0.2628 -0.3281
 9841TIP3    H151014   5.418   6.629   5.282 -1.2699  0.3123 -2.0451
 9841TIP3    H251015   5.564   6.630   5.242 -0.2493  1.3057  1.3325
 9842TIP3   OH251016   0.374   5.114  11.763  0.5054  1.2990 -0.0322
 9842TIP3    H151017   0.354   5.026  11.794  1.6363  0.5718 -1.2530
 9842TIP3    H251018   0.290   5.148  11.730 -0.0906  0.9966  1.1321
 9843TIP3   OH251019   5.347   6.061  15.578 -0.4662 -0.0980  0.1928
 9843TIP3    H151020   5.342   6.157  15.581 -1.8760 -0.1571  0.5642
 9843TIP3    H251021   5.275   6.032  15.634  0.8535 -1.3939  1.3192
 9844TIP3   OH251022   6.392   4.650   5.791 -0.1435 -0.6286  0.6687
 9844TIP3    H151023   6.408   4.566   5.747 -0.6560  0.0189 -0.8233
 9844TIP3    H251024   6.474   4.698   5.780  0.2042 -0.9745  1.6609
 9845TIP3   OH251025   4.977   1.593  15.937  0.5975  0.0979 -0.2315
 9845TIP3    H151026   4.966   1.501  15.911 -2.2667  0.2030  0.2665
 9845TIP3    H251027   4.988   1.590  16.032  0.2649  0.2682 -0.1862
 9846TIP3   OH251028   1.761   5.935   1.464 -0.2014  0.2873 -0.2856
 9846TIP3    H151029   1.851   5.929   1.494 -0.6601  0.1028  1.1468
 9846TIP3    H251030   1.767   5.952   1.370  1.3598  2.7264  0.1662
 9847TIP3   OH251031   1.949   3.474   5.387  0.1918 -0.4778  0.4534
 9847TIP3    H151032   1.891   3.398   5.382 -0.0116 -0.3786  1.2389
 9847TIP3    H251033   1.891   3.549   5.399  0.3202 -0.0514 -1.3406
 9848TIP3   OH251034   1.123   3.940   3.653 -0.0111  0.0841 -0.0676
 9848TIP3    H151035   1.197   3.883   3.632  0.6703  1.1856 -0.7562
 9848TIP3    H251036   1.108   3.927   3.747 -0.0121 -1.3531 -0.2397
 9849TIP3   OH251037   0.303   3.330   1.686  0.3806 -0.0401  0.0332
 9849TIP3    H151038   0.287   3.324   1.592  2.2564 -4.5426 -0.2432
 9849TIP3    H251039   0.394   3.360   1.692 -0.0692  1.3034  0.5454
 9850TIP3   OH251040   0.739   2.032   2.104  0.2377  0.4158 -0.0979
 9850TIP3    H151041   0.762   2.082   2.025  0.3712 -0.7753 -0.8323
 9850TIP3    H251042   0.794   2.070   2.173 -0.3235  1.8844 -0.4052
 9851TIP3   OH251043   1.297   6.500   5.783  0.4781  0.0812  0.1563
 9851TIP3    H151044   1.342   6.419   5.805  2.4986  1.1910  0.3998
 9851TIP3    H251045   1.366   6.558   5.750 -1.1450  1.1937 -1.5126
 9852TIP3   OH251046   0.514   4.380  11.476  0.0025 -0.4889  0.1544
 9852TIP3    H151047   0.585   4.412  11.532 -0.5744 -0.2660  0.7714
 9852TIP3    H251048   0.517   4.438  11.399  1.4552 -1.4463 -0.5573
 9853TIP3   OH251049   3.063   3.926   2.225 -0.3242 -0.0494  0.1376
 9853TIP3    H151050   2.990   3.961   2.175  0.9479  1.6149 -0.6378
 9853TIP3    H251051   3.125   3.896   2.159  0.0734 -0.6539  0.7763
 9854TIP3   OH251052   3.245   2.892  14.704 -0.8048 -0.2685 -0.0889
 9854TIP3    H151053   3.271   2.802  14.725 -0.0366 -0.1539 -0.5214
 9854TIP3    H251054   3.252   2.898  14.609 -0.0069  0.4931 -0.0023
 9855TIP3   OH251055   5.768   0.049  11.760  0.2165 -0.0089 -0.1770
 9855TIP3    H151056   5.694  -0.010  11.744 -0.6954  0.6964  1.2194
 9855TIP3    H251057   5.840  -0.009  11.786 -1.0216 -0.4909  2.4282
 9856TIP3   OH251058   2.792   5.049   5.264  0.2013  0.3153  0.0930
 9856TIP3    H151059   2.839   5.075   5.343 -0.2870 -1.3330  0.9734
 9856TIP3    H251060   2.828   5.105   5.195  2.2355  0.2762  1.0552
 9857TIP3   OH251061   3.163   6.001   0.570  0.1895 -0.6880 -1.2725
 9857TIP3    H151062   3.082   5.951   0.562 -0.5043 -0.1158  1.1633
 9857TIP3    H251063   3.211   5.957   0.641  1.4433 -0.2524 -1.8170
 9858TIP3   OH251064   5.940   2.349   3.011  0.3238  0.1862  0.0154
 9858TIP3    H151065   6.000   2.283   2.976 -0.8329 -0.5789 -0.5792
 9858TIP3    H251066   5.996   2.406   3.064  1.5453 -0.5884 -0.3938
 9859TIP3   OH251067   2.325   5.619   5.677 -0.0775  0.5719 -0.4850
 9859TIP3    H151068   2.338   5.706   5.714  0.0672  0.5971 -0.5934
 9859TIP3    H251069   2.252   5.582   5.726  0.8889  0.1242  0.6601
 9860TIP3   OH251070   0.830   5.893  14.402 -0.1019 -0.0107  0.1520
 9860TIP3    H151071   0.870   5.809  14.382 -0.1567  0.0525 -0.2293
 9860TIP3    H251072   0.837   5.901  14.497 -0.0608 -0.4262  0.1849
 9861TIP3   OH251073   5.529   6.234   4.909  0.0375  0.2201 -0.1779
 9861TIP3    H151074   5.485   6.241   4.824 -1.1777 -0.2728  0.3900
 9861TIP3    H251075   5.597   6.302   4.906 -0.3361  0.5665 -1.3394
 9862TIP3   OH251076   0.457   4.687  16.235  0.0075  0.2026 -0.4775
 9862TIP3    H151077   0.376   4.731  16.208 -0.8699 -1.3058 -0.4307
 9862TIP3    H251078   0.468   4.616  16.171  1.0231  0.0869 -0.1885
 9863TIP3   OH251079   6.346   2.141   0.799 -0.3715 -0.0618 -0.5499
 9863TIP3    H151080   6.440   2.141   0.818 -0.7072  2.1008  1.7040
 9863TIP3    H251081   6.323   2.234   0.796 -2.2382 -0.5326 -2.3707
 9864TIP3   OH251082   2.139   4.734  11.042  0.2689  0.4370 -0.1649
 9864TIP3    H151083   2.060   4.787  11.049  1.0511  1.4613  1.4365
 9864TIP3    H251084   2.109   4.651  11.005 -1.5797  0.7176  0.6196
 9865TIP3   OH251085   2.184   1.888  13.770  0.2757  0.1950 -0.3665
 9865TIP3    H151086   2.104   1.940  13.760  0.4543  0.4762 -0.3563
 9865TIP3    H251087   2.239   1.916  13.697  0.8182  0.8465  0.2712
 9866TIP3   OH251088   6.104   3.228  12.187  0.1888 -0.0765 -0.2911
 9866TIP3    H151089   6.009   3.227  12.184  0.1804 -0.7455 -3.3565
 9866TIP3    H251090   6.129   3.315  12.155  0.6317  0.0973  0.4898
 9867TIP3   OH251091   5.196   4.959   0.596  0.3978  0.1275 -0.0345
 9867TIP3    H151092   5.286   4.974   0.628  0.8261 -1.3000 -0.5177
 9867TIP3    H251093   5.165   5.047   0.573  1.4295  0.7329  0.7495
 9868TIP3   OH251094   1.286   6.532  12.952  0.4624 -0.2215 -0.2901
 9868TIP3    H151095   1.233   6.515  12.874  0.4234 -1.2141 -0.0641
 9868TIP3    H251096   1.237   6.490  13.023  1.7050 -1.4762 -0.1344
 9869TIP3   OH251097   5.983   4.104   3.761 -0.0707  0.2870  0.1493
 9869TIP3    H151098   5.943   4.116   3.675 -1.5608 -0.6498  0.6629
 9869TIP3    H251099   6.052   4.038   3.747 -1.2335 -0.9188 -0.1113
 9870TIP3   OH251100   3.727   3.063   3.403  0.1214  0.3378 -0.9160
 9870TIP3    H151101   3.809   3.026   3.435 -0.5424 -0.5257 -0.1637
 9870TIP3    H251102   3.707   3.014   3.323 -0.5629 -0.7056 -0.1255
 9871TIP3   OH251103   0.862   2.590  11.099 -0.5571  0.4777 -0.6812
 9871TIP3    H151104   0.902   2.530  11.162  0.0162  0.0431 -1.4353
 9871TIP3    H251105   0.932   2.650  11.074 -0.5267  0.0950 -1.5578
 9872TIP3   OH251106   1.687   2.151   0.745 -0.3166 -0.0784  0.1578
 9872TIP3    H151107   1.637   2.073   0.770  1.5876 -0.2356  4.4133
 9872TIP3    H251108   1.776   2.118   0.729  0.6004  1.1462  2.3843
 9873TIP3   OH251109   5.560   5.359  15.172 -0.5745 -0.1533  0.2630
 9873TIP3    H151110   5.537   5.412  15.248  0.6971  1.5077 -0.4654
 9873TIP3    H251111   5.531   5.411  15.097  0.3298 -0.6642 -0.4630
 9874TIP3   OH251112   2.763   6.466   1.833 -0.3936  0.3554  0.1555
 9874TIP3    H151113   2.837   6.520   1.805 -1.7408  1.0911 -2.3634
 9874TIP3    H251114   2.776   6.383   1.787  1.3694 -1.4426  3.5713
 9875TIP3   OH251115   3.437   0.061   2.569 -0.4716  0.8928 -0.0175
 9875TIP3    H151116   3.496   0.092   2.500 -1.0104  0.5083 -0.6624
 9875TIP3    H251117   3.361   0.026   2.522 -0.7515  0.4228  0.7619
 9876TIP3   OH251118   0.756   6.015  14.134 -0.1392  0.3704  0.2623
 9876TIP3    H151119   0.756   5.971  14.219  2.7052 -2.5102 -1.0211
 9876TIP3    H251120   0.703   5.959  14.078  1.1296  0.1363 -0.7344
 9877TIP3   OH251121   6.660   3.707   3.842 -0.1602  0.3259 -0.0896
 9877TIP3    H151122   6.716   3.744   3.910 -0.4558 -0.6352  0.6935
 9877TIP3    H251123   6.665   3.613   3.855  1.0135 -0.0037 -2.3919
 9878TIP3   OH251124   4.798   5.282   6.420 -0.7656  0.1182  0.3096
 9878TIP3    H151125   4.832   5.204   6.464 -0.4381  1.2603  2.1755
 9878TIP3    H251126   4.709   5.259   6.395 -0.1792 -1.3605 -0.5577
 9879TIP3   OH251127   1.721   3.036   0.733 -0.3706  0.5066 -0.1673
 9879TIP3    H151128   1.788   3.103   0.747 -0.0405 -0.1729  1.8583
 9879TIP3    H251129   1.770   2.959   0.705 -0.3705  0.2301  0.5712
 9880TIP3   OH251130   2.217   6.197   0.371 -0.5219  0.3638 -0.1990
 9880TIP3    H151131   2.180   6.199   0.459  2.3203 -0.5319  1.1300
 9880TIP3    H251132   2.235   6.104   0.355 -0.6092  0.5654 -1.5860
 9881TIP3   OH251133   4.065   1.731  15.502  0.4593  0.1871  0.2284
 9881TIP3    H151134   4.019   1.652  15.529  0.2155  0.1529 -0.2753
 9881TIP3    H251135   4.116   1.705  15.425 -0.8953  0.8865 -0.9538
 9882TIP3   OH251136   1.259   5.587   5.215 -0.3742  0.4280  0.0638
 9882TIP3    H151137   1.353   5.592   5.197 -0.2958  0.0622  0.3623
 9882TIP3    H251138   1.218   5.588   5.128  0.0089 -1.4147 -0.1878
 9883TIP3   OH251139   5.641   3.307   0.343 -0.5430  0.3297  0.8394
 9883TIP3    H151140   5.638   3.392   0.386 -1.3893  0.5731  0.3304
 9883TIP3    H251141   5.733   3.295   0.321 -0.3832  1.0303  1.0878
 9884TIP3   OH251142   4.035   2.849  12.888 -0.0531 -0.0392 -0.4501
 9884TIP3    H151143   4.055   2.903  12.812 -0.6028  1.1127  0.1919
 9884TIP3    H251144   4.101   2.872  12.953 -1.8839  2.0286  0.8288
 9885TIP3   OH251145   5.304   1.968  14.349 -0.1715  0.1327  0.2883
 9885TIP3    H151146   5.223   1.947  14.301  1.1584 -0.8184 -1.7037
 9885TIP3    H251147   5.302   2.063  14.359 -0.8860  0.2725 -0.9651
 9886TIP3   OH251148   1.389   6.550   0.093  0.5009  0.2783 -0.0207
 9886TIP3    H151149   1.475   6.558   0.051  0.4220  1.4866  0.0120
 9886TIP3    H251150   1.408   6.549   0.186  0.4271  1.5616  0.0192
 9887TIP3   OH251151   3.291   0.331  14.211  0.3573  1.0440 -0.1667
 9887TIP3    H151152   3.378   0.322  14.171  0.1855  1.9226 -0.7546
 9887TIP3    H251153   3.263   0.420  14.188 -1.7776 -0.0449 -2.1272
 9888TIP3   OH251154   0.036   0.495  16.770  0.6910  0.3218 -0.4955
 9888TIP3    H151155  -0.038   0.451  16.730  0.4501 -0.7529  1.0442
 9888TIP3    H251156   0.021   0.588  16.752 -0.3682  0.0244 -1.2526
 9889TIP3   OH251157   6.591   0.581   1.270  0.2568 -0.4250  0.4062
 9889TIP3    H151158   6.571   0.656   1.214 -0.5696 -3.0441 -3.1322
 9889TIP3    H251159   6.518   0.578   1.332  0.2076  1.5254  0.5132
 9890TIP3   OH251160   0.925   1.672   0.191  0.2361  0.1656  0.5865
 9890TIP3    H151161   0.853   1.616   0.162  0.5250 -1.1990  2.3178
 9890TIP3    H251162   1.004   1.628   0.157  0.4034  0.0692  1.0888
 9891TIP3   OH251163   1.640   4.120   2.966 -0.2253 -0.1676  0.0747
 9891TIP3    H151164   1.701   4.093   3.035 -1.6555  1.7500  2.2615
 9891TIP3    H251165   1.561   4.067   2.981 -0.5445  0.2593 -0.0684
 9892TIP3   OH251166   3.320   1.651   1.947  0.3580  0.0762 -0.5867
 9892TIP3    H151167   3.346   1.720   1.885  0.3613  0.3267 -0.3085
 9892TIP3    H251168   3.230   1.673   1.971 -0.4840 -1.3005 -2.2576
 9893TIP3   OH251169   2.720   5.220  11.355  0.1222  0.8480  0.2519
 9893TIP3    H151170   2.782   5.292  11.368 -1.3526  2.3686 -0.7191
 9893TIP3    H251171   2.665   5.248  11.282 -2.1289 -0.1059  1.4661
 9894TIP3   OH251172   3.986   3.266  14.716  0.6488  0.0743 -0.3681
 9894TIP3    H151173   3.894   3.271  14.738  0.9265 -1.2960  1.2993
 9894TIP3    H251174   3.990   3.206  14.641  0.1451  0.7445 -0.9421
 9895TIP3   OH251175   0.857   2.816   1.497  0.0585 -0.1357 -0.1231
 9895TIP3    H151176   0.784   2.876   1.485 -0.4205 -0.4245  1.1014
 9895TIP3    H251177   0.933   2.861   1.460 -0.1523  1.5220  1.3319
 9896TIP3   OH251178   6.224   1.789   0.025  0.7056 -1.0182  0.6954
 9896TIP3    H151179   6.173   1.709   0.036 -1.0036 -0.6411 -3.0859
 9896TIP3    H251180   6.159   1.859   0.025  1.5797 -0.1553 -0.7720
 9897TIP3   OH251181   5.172   6.223   4.479 -0.1110 -0.3123  0.3116
 9897TIP3    H151182   5.265   6.225   4.457 -0.3527 -2.0870 -1.1501
 9897TIP3    H251183   5.166   6.167   4.556 -0.1026 -1.9639 -0.8258
 9898TIP3   OH251184   0.182   3.420   2.853 -0.1372  0.5098  0.5241
 9898TIP3    H151185   0.156   3.344   2.904  1.7755 -0.5589 -0.0206
 9898TIP3    H251186   0.167   3.395   2.762 -0.1997  1.0582  0.3808
 9899TIP3   OH251187   5.441   1.753   5.352 -0.2947  0.0069  0.4155
 9899TIP3    H151188   5.412   1.825   5.297  1.4830 -0.4085 -1.1657
 9899TIP3    H251189   5.537   1.759   5.351 -0.1295 -1.9005  0.8765
 9900TIP3   OH251190   6.323   0.976   2.680  0.7021 -0.4891  0.2927
 9900TIP3    H151191   6.380   1.036   2.727 -0.0958 -0.6031  1.4634
 9900TIP3    H251192   6.360   0.889   2.697  1.6553 -0.3848 -1.1113
 9901TIP3   OH251193   1.030   5.525   4.784 -0.3096 -0.3742  0.1686
 9901TIP3    H151194   1.009   5.547   4.875 -0.3135 -0.5063  0.2005
 9901TIP3    H251195   0.977   5.447   4.766 -0.5545 -0.1581 -0.0496
 9902TIP3   OH251196   2.507   3.194  16.844  0.0009  0.1631  0.6414
 9902TIP3    H151197   2.495   3.166  16.753 -0.9739  0.8123  0.5563
 9902TIP3    H251198   2.599   3.219  16.849 -0.2831  1.6496 -0.6397
 9903TIP3   OH251199   2.254   1.560  15.768  0.2762 -0.2540 -0.0670
 9903TIP3    H151200   2.323   1.624  15.783  0.3461 -0.3846  0.1870
 9903TIP3    H251201   2.227   1.533  15.856 -0.7106  0.4458 -0.1319
 9904TIP3   OH251202   5.383   5.512  12.985  0.6570 -0.0114  0.3945
 9904TIP3    H151203   5.453   5.529  12.922  2.6314 -2.4225  1.7988
 9904TIP3    H251204   5.426   5.467  13.058 -2.2096 -0.7555  1.7615
 9905TIP3   OH251205   4.501   4.947   1.412 -0.0445 -0.6749 -0.0689
 9905TIP3    H151206   4.469   4.929   1.501 -0.4965  1.2052  0.1829
 9905TIP3    H251207   4.594   4.925   1.415  0.0020 -0.3778  0.9502
 9906TIP3   OH251208   3.710   6.388  12.358 -0.4339  0.1633  0.5076
 9906TIP3    H151209   3.667   6.400  12.442 -1.3138  3.2432 -0.2397
 9906TIP3    H251210   3.795   6.433  12.368 -0.8588  1.2284 -0.4119
 9907TIP3   OH251211   5.329   4.174  12.354 -0.4683  0.1689 -0.8631
 9907TIP3    H151212   5.411   4.147  12.313 -0.6274 -0.6719 -0.6460
 9907TIP3    H251213   5.355   4.235  12.423  0.0960 -0.9770 -0.0241
 9908TIP3   OH251214   2.429   2.162   1.996  0.1101 -0.1477  0.5817
 9908TIP3    H151215   2.351   2.144   1.942  0.3827 -0.4143  0.2741
 9908TIP3    H251216   2.475   2.231   1.947  0.4464 -0.5116  0.3851
 9909TIP3   OH251217   2.019   3.014   0.656  0.5946  0.8076  0.4270
 9909TIP3    H151218   1.986   3.104   0.651  2.1735  1.3645 -0.7049
 9909TIP3    H251219   2.049   3.005   0.746 -2.1492  0.4023  1.4052
 9910TIP3   OH251220   2.946   4.075   0.596  0.6639  0.0113 -0.1217
 9910TIP3    H151221   3.021   4.020   0.621  0.1038 -0.5855  0.2607
 9910TIP3    H251222   2.896   4.085   0.677 -0.9162 -1.5347 -0.8393
 9911TIP3   OH251223   3.053   5.816  13.518  0.0235 -0.1863  0.1884
 9911TIP3    H151224   3.019   5.730  13.544 -1.5554  0.1372 -0.6791
 9911TIP3    H251225   3.098   5.800  13.435 -0.8019 -0.0883 -0.2863
 9912TIP3   OH251226   2.066   0.027  11.329 -0.1546  0.3428 -0.6547
 9912TIP3    H151227   2.009  -0.037  11.285  1.1293 -2.2552  1.2280
 9912TIP3    H251228   2.012   0.061  11.400 -0.4549  0.4780 -0.9408
 9913TIP3   OH251229   5.636   5.060   3.211 -0.0207  0.4512  0.2693
 9913TIP3    H151230   5.635   4.965   3.225  0.3197  0.3831 -0.1340
 9913TIP3    H251231   5.641   5.098   3.299 -3.9801  0.2309  0.7774
 9914TIP3   OH251232   5.173   0.427  12.796 -0.0157  0.5685  0.3210
 9914TIP3    H151233   5.263   0.453  12.773  0.3768 -0.6946  0.3443
 9914TIP3    H251234   5.176   0.412  12.890 -0.0459 -0.2378  0.1973
 9915TIP3   OH251235   4.621   3.837  12.065  0.2507 -0.0317  0.6072
 9915TIP3    H151236   4.698   3.816  12.118 -0.5068 -2.5704  0.8153
 9915TIP3    H251237   4.569   3.757  12.065 -1.6568  1.1258 -0.8145
 9916TIP3   OH251238   1.751   6.544   1.650  0.3203  0.1453 -0.4233
 9916TIP3    H151239   1.845   6.556   1.641  0.5886  1.2066  2.5419
 9916TIP3    H251240   1.739   6.451   1.668  1.0940  0.2903  1.0526
 9917TIP3   OH251241   1.801   2.443  13.932 -0.1798 -0.4676  0.2801
 9917TIP3    H151242   1.853   2.364  13.918 -1.0506 -0.7179 -1.9724
 9917TIP3    H251243   1.825   2.472  14.020  2.8642 -1.2024 -0.1862
 9918TIP3   OH251244   0.134   1.865  16.394  0.3327 -0.0484 -0.4677
 9918TIP3    H151245   0.219   1.823  16.388  0.4228  0.2271 -1.2669
 9918TIP3    H251246   0.154   1.959  16.398  0.0830 -0.0026 -0.2628
 9919TIP3   OH251247   4.051   4.905  12.472  0.1832 -0.7326  0.1061
 9919TIP3    H151248   3.974   4.854  12.447  0.6920 -0.8082 -1.3830
 9919TIP3    H251249   4.093   4.853  12.541 -2.1581  0.2945  2.4776
 9920TIP3   OH251250   3.731   6.027  16.337  0.0044  0.5414  0.5303
 9920TIP3    H151251   3.674   5.993  16.268 -0.2168 -1.2156  1.4985
 9920TIP3    H251252   3.820   6.015  16.302 -0.1384  0.9912 -0.0021
 9921TIP3   OH251253   2.777   4.218  14.935 -0.0949 -0.4663  0.5392
 9921TIP3    H151254   2.715   4.280  14.973  1.5220 -0.2711  3.1146
 9921TIP3    H251255   2.722   4.148  14.898 -1.8556  0.3004  1.5752
 9922TIP3   OH251256   1.467   6.332  14.046  0.3879  0.0356  0.7250
 9922TIP3    H151257   1.415   6.339  14.126 -0.5496  0.0699  0.1267
 9922TIP3    H251258   1.542   6.390  14.061 -1.5557  2.8651  0.2509
 9923TIP3   OH251259   2.852   4.407   1.584  0.1889  0.3264 -0.0443
 9923TIP3    H151260   2.821   4.330   1.538 -0.7984  1.7888 -2.0033
 9923TIP3    H251261   2.782   4.428   1.647  0.8306 -0.7943  1.0717
 9924TIP3   OH251262   5.067   1.572  16.193  0.5689 -0.4469 -0.2896
 9924TIP3    H151263   5.162   1.581  16.186  0.6731 -1.4272 -0.1647
 9924TIP3    H251264   5.054   1.494  16.246 -0.3036  0.7448  1.3658
 9925TIP3   OH251265   3.586   6.593  11.814  0.4139  0.3371  0.1329
 9925TIP3    H151266   3.662   6.649  11.826  1.1438 -0.0869 -2.1018
 9925TIP3    H251267   3.623   6.508  11.790 -0.7078  0.4003 -2.0942
 9926TIP3   OH251268   5.206   6.730   5.013 -0.1622 -0.0527 -0.1181
 9926TIP3    H151269   5.252   6.687   5.085 -3.4113 -0.0295  2.1758
 9926TIP3    H251270   5.171   6.659   4.960  0.4869 -0.0865 -0.5155
 9927TIP3   OH251271   6.502   2.457  13.166  0.3716 -0.4006  0.3522
 9927TIP3    H151272   6.534   2.382  13.216 -1.5291 -0.5534  1.4279
 9927TIP3    H251273   6.558   2.530  13.194  0.9386 -0.9997  0.8113
 9928TIP3   OH251274   6.127   4.855  13.090 -0.0510  0.2280 -0.1237
 9928TIP3    H151275   6.093   4.802  13.018 -0.8464  1.8896 -1.0321
 9928TIP3    H251276   6.114   4.802  13.168 -0.7871 -0.9137 -1.0028
 9929TIP3   OH251277   3.213   1.320   2.523  0.0333 -0.0696 -0.1493
 9929TIP3    H151278   3.212   1.236   2.478 -0.1910  0.1094 -0.4815
 9929TIP3    H251279   3.263   1.378   2.466 -1.1863  0.4554 -0.7269
 9930TIP3   OH251280   6.436   5.307   4.872 -0.5921 -0.4542  0.3650
 9930TIP3    H151281   6.394   5.231   4.833 -0.5544 -0.1937 -0.1949
 9930TIP3    H251282   6.496   5.271   4.938  0.6619 -1.0388 -1.0243
 9931TIP3   OH251283   1.143   3.257  12.543  0.1261 -0.1440  0.3151
 9931TIP3    H151284   1.138   3.165  12.514 -1.1297 -0.2952  0.9664
 9931TIP3    H251285   1.210   3.256  12.612 -0.8152 -0.8599  1.2587
 9932TIP3   OH251286   3.853   6.095   2.118 -0.2717 -0.3636 -0.1605
 9932TIP3    H151287   3.904   6.176   2.126 -0.2239 -0.4799  0.8602
 9932TIP3    H251288   3.801   6.107   2.039  2.1779 -0.7083 -1.9441
 9933TIP3   OH251289   5.779   4.319  14.223  0.0463  0.0079  0.1035
 9933TIP3    H151290   5.813   4.341  14.136  0.6268 -0.2116  0.2730
 9933TIP3    H251291   5.725   4.393  14.246  2.8396  1.8790  1.1439
 9934TIP3   OH251292   1.413   0.656   2.646 -0.2016 -0.3083  0.4435
 9934TIP3    H151293   1.332   0.650   2.696 -0.6664  0.4334 -0.1877
 9934TIP3    H251294   1.393   0.717   2.575  1.4267  1.3204  1.2973
 9935TIP3   OH251295   1.859   1.132   3.200  0.8995 -0.4669 -0.4489
 9935TIP3    H151296   1.937   1.110   3.149  0.1050 -2.3322 -0.9135
 9935TIP3    H251297   1.838   1.052   3.248  0.2253  0.5303  0.9919
 9936TIP3   OH251298   0.735   0.313  13.720  0.1189 -0.0896 -0.3025
 9936TIP3    H151299   0.714   0.392  13.670  0.2872 -1.1943 -2.2318
 9936TIP3    H251300   0.694   0.327  13.805  0.3885  2.1741 -0.4799
 9937TIP3   OH251301   6.763   4.176  15.623 -0.6753  0.1686  0.3522
 9937TIP3    H151302   6.736   4.098  15.575  0.3610 -1.1248  1.7530
 9937TIP3    H251303   6.682   4.224  15.640 -1.4530 -1.0542  0.2126
 9938TIP3   OH251304   3.080   6.089  12.750  0.1672 -0.0478 -0.9483
 9938TIP3    H151305   3.147   6.039  12.798  0.2014  0.2142 -0.7243
 9938TIP3    H251306   3.123   6.171  12.727 -0.5991  0.8779  0.7249
 9939TIP3   OH251307   4.784   1.150  14.636  0.2460  0.0859  0.2200
 9939TIP3    H151308   4.774   1.170  14.729  0.1366  0.0413  0.2175
 9939TIP3    H251309   4.706   1.187  14.595  2.1823  4.0471 -0.4827
 9940TIP3   OH251310   0.912   6.749  13.735 -0.0109  0.2863 -0.2717
 9940TIP3    H151311   0.873   6.742  13.822 -3.8028  0.6935 -1.7145
 9940TIP3    H251312   0.956   6.833  13.734 -0.6590  0.6565  1.0152
 9941TIP3   OH251313   5.505   0.086   1.556 -0.0559 -0.3247  0.1211
 9941TIP3    H151314   5.455   0.131   1.624  0.7259  0.5830  0.1228
 9941TIP3    H251315   5.455   0.007   1.537 -0.2714 -0.6199  1.7636
 9942TIP3   OH251316   0.696   2.185  11.207 -0.2681  0.1430  0.0141
 9942TIP3    H151317   0.759   2.210  11.140  0.1872  1.0119  0.7500
 9942TIP3    H251318   0.748   2.150  11.278 -0.5854  1.0892  0.7269
 9943TIP3   OH251319   6.165   1.181  12.992 -0.2842  0.0389 -0.4690
 9943TIP3    H151320   6.167   1.113  13.060 -0.7913  0.5557  0.0669
 9943TIP3    H251321   6.116   1.142  12.920 -1.2903  0.1318  0.1595
 9944TIP3   OH251322   1.300   5.369   4.674  0.0754  0.6312 -0.5564
 9944TIP3    H151323   1.215   5.412   4.668 -0.1757  0.2335  0.0626
 9944TIP3    H251324   1.281   5.280   4.703  0.6036  0.1092 -1.7553
 9945TIP3   OH251325   3.928   0.763   1.322  0.3608 -0.0402 -0.4504
 9945TIP3    H151326   3.882   0.688   1.285  0.0735  1.0919 -2.5684
 9945TIP3    H251327   3.861   0.831   1.330  0.6979  0.1605  1.0607
 9946TIP3   OH251328   2.825   1.268  11.577 -1.0451 -0.1244  0.0140
 9946TIP3    H151329   2.789   1.188  11.537 -1.9639 -0.3482  1.2427
 9946TIP3    H251330   2.910   1.240  11.612 -0.0153  0.1740 -2.0591
 9947TIP3   OH251331   1.931   3.613  11.691 -0.2871 -0.3393  0.3035
 9947TIP3    H151332   1.931   3.574  11.778 -1.5488 -1.5327 -0.1970
 9947TIP3    H251333   1.972   3.699  11.703  0.1157 -0.7340  1.9387
 9948TIP3   OH251334   2.730   3.448  12.146 -0.3604  0.0142  0.1418
 9948TIP3    H151335   2.783   3.459  12.067  1.2161 -2.0842  0.8317
 9948TIP3    H251336   2.765   3.512  12.208  0.2084 -0.1914  0.0305
 9949TIP3   OH251337   5.588   2.787   3.618  0.1881 -0.1616 -0.0137
 9949TIP3    H151338   5.568   2.696   3.637  1.1248 -0.1542  1.1340
 9949TIP3    H251339   5.668   2.784   3.565  1.7006  0.0097  2.1134
 9950TIP3   OH251340   5.239   6.198  12.923 -0.4583 -0.1898  0.5848
 9950TIP3    H151341   5.182   6.265  12.962 -0.7671 -0.9171  1.4014
 9950TIP3    H251342   5.299   6.248  12.867 -0.6434  0.7762  1.2279
 9951TIP3   OH251343   1.206   4.855  16.056  0.6295 -0.2102  0.6383
 9951TIP3    H151344   1.147   4.819  15.989  0.2038  0.7077  0.4994
 9951TIP3    H251345   1.289   4.811  16.040  0.0286 -1.4526  0.7662
 9952TIP3   OH251346   0.386   3.227  13.993 -0.2917  0.2977 -0.5087
 9952TIP3    H151347   0.370   3.321  13.991 -2.1659  0.0412 -0.0029
 9952TIP3    H251348   0.376   3.198  13.903 -0.3233  0.4990 -0.5685
 9953TIP3   OH251349   0.998   3.295  11.881  0.0641 -0.2723  0.3241
 9953TIP3    H151350   1.082   3.341  11.882  0.8118 -1.5773  0.0624
 9953TIP3    H251351   1.013   3.219  11.824 -1.8496  0.4542 -1.2826
 9954TIP3   OH251352   3.387   6.270   5.122  0.4970  0.1660 -0.0468
 9954TIP3    H151353   3.403   6.306   5.209  1.5341  0.5062 -0.3629
 9954TIP3    H251354   3.358   6.180   5.139 -1.6193  0.9367  0.7200
 9955TIP3   OH251355   1.804   0.032  17.045  0.0819 -0.7558 -0.3567
 9955TIP3    H151356   1.815  -0.050  17.093 -0.8592 -1.4823 -1.3371
 9955TIP3    H251357   1.812   0.007  16.952 -2.8956 -0.2824 -0.8489
 9956TIP3   OH251358   2.939   0.423  11.997  0.1593 -0.4216 -0.1057
 9956TIP3    H151359   2.980   0.380  11.922  1.3461  0.1666  0.1784
 9956TIP3    H251360   2.863   0.368  12.018 -0.5097 -0.2915 -2.0510
 9957TIP3   OH251361   4.066   0.539  13.942 -0.4294  1.0082 -0.3818
 9957TIP3    H151362   4.144   0.517  13.991 -1.2921  0.8097  0.9471
 9957TIP3    H251363   3.998   0.551  14.008 -1.3066  2.1426 -1.4275
 9958TIP3   OH251364   4.956   1.072   0.879  0.5788  0.2147 -0.5365
 9958TIP3    H151365   4.911   1.155   0.896 -1.7025 -0.7904 -1.2041
 9958TIP3    H251366   4.908   1.009   0.933 -0.3643 -1.3112 -3.0193
 9959TIP3   OH251367   5.977   3.362  13.824  0.1899  0.7934 -0.1440
 9959TIP3    H151368   5.978   3.311  13.743 -0.0046 -0.1710  0.4499
 9959TIP3    H251369   6.037   3.316  13.882 -1.1554  0.3204  0.9360
 9960TIP3   OH251370   4.804   3.376  15.676 -0.3053  0.3386 -0.5738
 9960TIP3    H151371   4.816   3.432  15.599 -0.2285  2.0532  0.6278
 9960TIP3    H251372   4.725   3.325  15.656 -0.8937  1.4972 -1.3795
 9961TIP3   OH251373   3.041   1.621   3.250 -0.2526 -0.2489 -0.3111
 9961TIP3    H151374   3.099   1.578   3.313 -0.6333 -1.7193 -0.9210
 9961TIP3    H251375   3.039   1.561   3.175  0.0947  1.4162 -1.6924
 9962TIP3   OH251376   1.016   0.295  12.021  0.2201 -0.1553 -0.8372
 9962TIP3    H151377   1.055   0.222  11.972 -0.4883  0.2038 -1.9544
 9962TIP3    H251378   0.956   0.336  11.959  2.2263  2.7778 -1.0270
 9963TIP3   OH251379   3.279   0.619   4.941  0.0708  0.1488 -0.5619
 9963TIP3    H151380   3.218   0.609   5.013 -0.5103  1.6647 -0.7992
 9963TIP3    H251381   3.363   0.636   4.982 -0.0640  0.0149 -0.2339
 9964TIP3   OH251382   2.612   0.835  17.028 -0.2551  0.2172  0.4231
 9964TIP3    H151383   2.603   0.928  17.048 -0.9300  0.2925 -0.2003
 9964TIP3    H251384   2.559   0.791  17.093 -0.1857  0.2864  0.5268
 9965TIP3   OH251385   1.801   2.667   1.829  0.0332 -0.0855  0.2346
 9965TIP3    H151386   1.782   2.623   1.912  1.0248  2.1565  1.7791
 9965TIP3    H251387   1.786   2.760   1.848  1.6725  0.6366 -1.6796
 9966TIP3   OH251388   1.097   1.329   3.094  0.3775  0.0426  0.4360
 9966TIP3    H151389   1.188   1.328   3.122  0.3323  2.3409  0.8771
 9966TIP3    H251390   1.053   1.385   3.158 -1.0489  0.1436 -0.5867
 9967TIP3   OH251391   4.532   3.095  15.059  0.1641 -0.3503 -0.1962
 9967TIP3    H151392   4.437   3.083  15.067  0.2791 -0.8371  0.5039
 9967TIP3    H251393   4.543   3.144  14.978 -0.5877 -1.9765 -1.3479
 9968TIP3   OH251394   5.170   3.777  14.131  1.2667  0.4967  0.3900
 9968TIP3    H151395   5.155   3.806  14.041  0.7744  0.5494  0.4841
 9968TIP3    H251396   5.148   3.854  14.184 -0.1753 -0.0756  0.6499
 9969TIP3   OH251397   3.537   2.109  16.709 -0.0426 -0.0295  0.4430
 9969TIP3    H151398   3.597   2.144  16.775 -0.2524  0.7742  0.2156
 9969TIP3    H251399   3.483   2.184  16.684  1.7640  0.4535 -2.5893
 9970TIP3   OH251400   6.270   5.868   5.131  0.4781 -0.6224 -0.5878
 9970TIP3    H151401   6.218   5.948   5.117  0.7304 -0.2674  0.4220
 9970TIP3    H251402   6.209   5.797   5.116 -0.1196 -0.2139 -0.1322
 9971TIP3   OH251403   5.443   6.103   0.900  0.1136 -0.1145  0.0782
 9971TIP3    H151404   5.533   6.098   0.867  0.3175 -0.3048  0.6512
 9971TIP3    H251405   5.443   6.047   0.977 -0.2869  0.5172  0.5453
 9972TIP3   OH251406   4.269   3.764   4.864 -0.4583 -0.3414 -0.2488
 9972TIP3    H151407   4.307   3.803   4.943  1.6534 -1.9791 -0.3772
 9972TIP3    H251408   4.186   3.810   4.853 -0.1225  0.9942  2.0534
 9973TIP3   OH251409   2.961   1.372   4.597 -0.3092 -0.0824  0.0033
 9973TIP3    H151410   2.998   1.429   4.529  3.3426 -0.8942  1.0819
 9973TIP3    H251411   3.010   1.290   4.588 -0.6527 -0.6656  2.7581
 9974TIP3   OH251412   1.913   6.293   3.854  0.5048 -0.4704  0.2301
 9974TIP3    H151413   1.833   6.276   3.803 -0.3364 -2.0397  1.9662
 9974TIP3    H251414   1.893   6.372   3.904  1.1278  0.7524 -1.3677
 9975TIP3   OH251415   4.139   3.356   0.342 -0.2284 -0.1740 -0.3075
 9975TIP3    H151416   4.201   3.288   0.314  1.9638  1.8155 -0.6353
 9975TIP3    H251417   4.126   3.340   0.435  3.2355  1.0046  0.5251
 9976TIP3   OH251418   1.847   6.096  16.058  0.4791  0.1104 -0.3384
 9976TIP3    H151419   1.852   6.045  16.139 -2.8667 -0.2676 -0.2364
 9976TIP3    H251420   1.814   6.182  16.086 -1.1513 -0.1712 -1.2878
 9977TIP3   OH251421   1.423   3.366  12.478  0.3604  0.4105  0.1556
 9977TIP3    H151422   1.371   3.326  12.408  2.4076  0.6287 -1.5770
 9977TIP3    H251423   1.425   3.300  12.547 -1.0418 -0.1332 -0.2753
 9978TIP3   OH251424   6.125   6.262   6.446 -0.0927 -0.1633 -0.1990
 9978TIP3    H151425   6.040   6.305   6.444 -0.1752 -0.2876  0.3294
 9978TIP3    H251426   6.127   6.207   6.368 -0.0633  0.6530 -0.7844
 9979TIP3   OH251427   2.462   5.743   3.144  0.1491 -0.3462  0.0934
 9979TIP3    H151428   2.446   5.822   3.195  3.4817  0.8771 -0.4918
 9979TIP3    H251429   2.530   5.696   3.194  0.3103 -1.3375 -1.0178
 9980TIP3   OH251430   4.626   3.966  15.159 -0.9210 -0.3102 -0.1077
 9980TIP3    H151431   4.700   3.907  15.173 -0.6936 -0.2633 -1.0814
 9980TIP3    H251432   4.663   4.053  15.169 -1.2939 -0.3135  1.5098
 9981TIP3   OH251433   4.785   4.719   0.282  0.7664 -0.3842  0.0045
 9981TIP3    H151434   4.832   4.643   0.316  0.7522 -0.7106 -0.6797
 9981TIP3    H251435   4.703   4.684   0.249  1.2392 -0.2871 -1.3707
 9982TIP3   OH251436   5.689   0.477   3.548 -0.2054  0.0096 -0.1473
 9982TIP3    H151437   5.691   0.493   3.642 -1.5051  0.7996 -0.2184
 9982TIP3    H251438   5.773   0.436   3.528  0.9520  1.6771  1.0146
 9983TIP3   OH251439   6.336   1.298   0.068 -0.6962  0.0855 -0.6601
 9983TIP3    H151440   6.345   1.326  -0.023  0.5708  0.0946 -0.5476
 9983TIP3    H251441   6.253   1.335   0.097 -0.9018  0.4352 -1.6868
 9984TIP3   OH251442   3.055   3.902   2.706  0.4208 -0.2107  0.0419
 9984TIP3    H151443   3.032   3.965   2.774 -0.6365  0.4173 -0.8485
 9984TIP3    H251444   3.092   3.955   2.636  1.8082 -0.8833  0.2340
 9985TIP3   OH251445   6.756   4.882   2.678  0.0059  0.0645  0.2088
 9985TIP3    H151446   6.832   4.902   2.732 -1.2229  0.8904  1.7115
 9985TIP3    H251447   6.710   4.966   2.669 -0.2375 -0.2104 -1.5041
 9986TIP3   OH251448   1.480   1.645  15.636 -0.7478  0.4762  0.3107
 9986TIP3    H151449   1.512   1.723  15.591  0.4106 -0.7384 -1.0661
 9986TIP3    H251450   1.401   1.621  15.589 -0.1434 -0.1601 -0.4004
 9987TIP3   OH251451   6.433   4.267  15.141 -0.3679 -0.6826 -0.2304
 9987TIP3    H151452   6.492   4.191  15.141 -1.2329 -1.3709 -0.9564
 9987TIP3    H251453   6.380   4.256  15.063 -0.9501  0.3391  0.0100
 9988TIP3   OH251454   5.390   3.861  12.809  0.2789  0.4572  0.2666
 9988TIP3    H151455   5.420   3.829  12.895  2.0644 -2.6011 -1.3204
 9988TIP3    H251456   5.436   3.944  12.798  0.4179  0.6705  2.0362
 9989TIP3   OH251457   5.565   3.265   6.393  0.1391 -0.1088 -0.5500
 9989TIP3    H151458   5.519   3.349   6.386 -0.5003 -0.3807  0.2038
 9989TIP3    H251459   5.544   3.219   6.312 -3.7833 -1.6118  1.0856
 9990TIP3   OH251460   1.710   3.615   1.445 -0.0242 -0.0433 -0.3919
 9990TIP3    H151461   1.803   3.633   1.433  0.0106 -0.4371 -0.7098
 9990TIP3    H251462   1.690   3.648   1.533  0.2252  0.7929 -0.6361
 9991TIP3   OH251463   3.183   4.794  15.811 -0.0773  0.3933 -0.4065
 9991TIP3    H151464   3.259   4.852  15.819 -0.3349  0.6059  0.6565
 9991TIP3    H251465   3.191   4.734  15.885 -0.8173  0.2715 -0.4194
 9992TIP3   OH251466   6.139   2.200  17.015 -0.2486  0.0376 -0.1526
 9992TIP3    H151467   6.117   2.159  16.932  0.4917  1.3931 -1.0543
 9992TIP3    H251468   6.124   2.294  17.001  1.5742  0.5016  0.6592
 9993TIP3   OH251469   6.031   4.978  11.566  0.0458 -0.0965  0.3914
 9993TIP3    H151470   6.055   4.886  11.557 -2.6241 -0.8404  0.0432
 9993TIP3    H251471   5.992   4.984  11.653 -0.2911  0.5783  0.1995
 9994TIP3   OH251472   3.340   0.574   3.700 -0.0977  0.2082  0.3683
 9994TIP3    H151473   3.392   0.532   3.769  0.3765 -0.0252 -0.1232
 9994TIP3    H251474   3.400   0.581   3.626 -0.7444  0.0319 -0.1801
 9995TIP3   OH251475   4.599   0.088   0.293 -0.1969 -0.3029  0.2005
 9995TIP3    H151476   4.687   0.122   0.276 -1.2923  2.7041 -0.1104
 9995TIP3    H251477   4.595   0.081   0.389  0.1461  0.3219  0.2693
 9996TIP3   OH251478   6.320   2.372  13.504  0.1241 -0.0771  0.1994
 9996TIP3    H151479   6.309   2.416  13.419 -2.2787  0.0120  0.4926
 9996TIP3    H251480   6.404   2.406  13.537  1.4288 -0.5208 -2.3221
 9997TIP3   OH251481   1.043   6.102  12.069  0.3882  0.3055  0.6033
 9997TIP3    H151482   1.110   6.170  12.075 -0.7088  1.3362  2.0066
 9997TIP3    H251483   0.987   6.131  11.996 -0.5086  1.3862  1.6684
 9998TIP3   OH251484   1.675   1.806  16.353  0.3391 -0.1976 -0.3051
 9998TIP3    H151485   1.694   1.728  16.406  0.6897  0.3259  0.3571
 9998TIP3    H251486   1.728   1.875  16.393 -3.0631  1.4369  1.8314
 9999TIP3   OH251487   5.568   0.967   5.013  0.3815  0.2135 -0.0562
 9999TIP3    H151488   5.603   0.991   4.927  1.4067  0.3071  0.3680
 9999TIP3    H251489   5.568   1.049   5.063 -0.8998  0.3112 -0.1756
10000TIP3   OH251490   0.469   6.299  14.564  0.4717  0.2422 -0.3419
10000TIP3    H151491   0.455   6.292  14.469  0.2540 -0.3002 -0.2752
10000TIP3    H251492   0.409   6.234  14.602 -1.5854  2.4019  0.3524
10001TIP3   OH251493   4.435   2.880  12.265 -0.3794  0.5295 -0.6871
10001TIP3    H151494   4.350   2.912  12.296 -0.1778 -0.0659  0.5643
10001TIP3    H251495   4.474   2.955  12.221 -0.2042  1.8647  1.5588
10002TIP3   OH251496   3.735   1.398  15.519  0.1284 -0.3240 -0.0994
10002TIP3    H151497   3.653   1.389  15.471  1.0352 -2.3445 -1.4100
10002TIP3    H251498   3.709   1.423  15.607 -1.7976  0.3634 -0.8162
10003TIP3   OH251499   5.452   1.251   5.455  0.2442 -0.2410 -0.4407
10003TIP3    H151500   5.360   1.247   5.483  0.3426  0.0165 -0.0746
10003TIP3    H251501   5.472   1.344   5.450  1.0688 -0.2645  1.4709
10004TIP3   OH251502   5.061   6.787  10.991  0.3413  0.3189  0.4009
10004TIP3    H151503   5.026   6.842  10.921 -0.5683 -1.3841 -0.5417
10004TIP3    H251504   4.994   6.721  11.005  1.4046 -0.5630  1.4839
10005TIP3   OH251505   2.263   5.912   0.293  0.7458  0.1094 -0.0308
10005TIP3    H151506   2.280   5.922   0.386 -0.6323  0.7593  0.1766
10005TIP3    H251507   2.252   5.818   0.280  0.5805  0.0479  0.5284
10006TIP3   OH251508   5.030   5.283  13.645  0.0754  0.6366  0.4532
10006TIP3    H151509   4.993   5.340  13.713 -2.6962 -0.0259 -0.3516
10006TIP3    H251510   5.103   5.333  13.609 -0.1917  2.2416  1.9762
10007TIP3   OH251511   0.618   1.900  11.828  0.4557  0.6325  0.3995
10007TIP3    H151512   0.710   1.891  11.803  0.5472  0.9008  0.6378
10007TIP3    H251513   0.605   1.995  11.837  0.4172  0.5476  1.3465
10008TIP3   OH251514   0.463   5.920   2.128 -0.1257 -0.3456  0.2763
10008TIP3    H151515   0.486   5.906   2.220 -1.6073  0.1232  0.7554
10008TIP3    H251516   0.527   5.983   2.096  0.2241 -0.2796  1.0807
10009TIP3   OH251517   4.112   6.519   3.463  0.0932  0.0302 -0.4330
10009TIP3    H151518   4.113   6.485   3.552  0.2042 -0.2418 -0.5385
10009TIP3    H251519   4.203   6.513   3.433 -0.0033 -0.1976 -0.6858
10010TIP3   OH251520   6.557   1.315  12.991 -0.6436 -0.3568 -0.0572
10010TIP3    H151521   6.596   1.286  12.908  0.7266  1.2680 -0.0568
10010TIP3    H251522   6.475   1.356  12.966  0.3999  1.3726 -0.8605
10011TIP3   OH251523   4.939   6.744  16.650 -0.0250 -0.8335 -0.2092
10011TIP3    H151524   4.910   6.665  16.605 -0.6004  0.1042 -1.5285
10011TIP3    H251525   4.869   6.807  16.637 -0.6370 -0.7372  2.7650
10012TIP3   OH251526   5.259   0.152   5.340  0.6223 -0.2708  0.6104
10012TIP3    H151527   5.324   0.107   5.394  0.7809 -0.6539  0.1031
10012TIP3    H251528   5.302   0.166   5.256 -0.2860 -1.4818 -0.0946
10013TIP3   OH251529   5.372   6.292   1.467  1.0653  0.1691  0.5186
10013TIP3    H151530   5.343   6.206   1.496  2.3083 -0.1272  0.9577
10013TIP3    H251531   5.355   6.350   1.541 -0.7982  0.5602 -0.1715
10014TIP3   OH251532   0.176   6.397   4.266  0.1862 -0.4242 -0.4282
10014TIP3    H151533   0.157   6.454   4.340  0.8632  0.8922 -1.2321
10014TIP3    H251534   0.256   6.351   4.291  1.4892  1.4095 -1.0588
10015TIP3   OH251535   2.688   5.916   3.040  0.5415  0.0809  0.6138
10015TIP3    H151536   2.693   5.898   3.134 -2.7864 -2.2506  0.5139
10015TIP3    H251537   2.665   6.009   3.035  2.6430  0.7512  1.9213
10016TIP3   OH251538   0.237   2.230   2.002  0.3821  0.3535 -0.4130
10016TIP3    H151539   0.310   2.275   1.959 -0.4468 -0.0770 -2.4095
10016TIP3    H251540   0.171   2.222   1.933 -0.9779 -0.5457  0.9438
10017TIP3   OH251541   5.006   1.308  15.891  0.2655  0.6608  0.3812
10017TIP3    H151542   5.096   1.320  15.862  0.4018 -0.0377  0.4988
10017TIP3    H251543   4.974   1.233  15.839 -0.2865  0.9816  0.2476
10018TIP3   OH251544   5.206   3.146  13.924  0.1174  0.0275 -0.0699
10018TIP3    H151545   5.202   3.122  14.016  1.4560  2.1146  0.5953
10018TIP3    H251546   5.267   3.083  13.885 -1.8463 -2.0380 -0.0284
10019TIP3   OH251547   1.114   0.459   3.550 -0.4095  0.3057  0.4193
10019TIP3    H151548   1.109   0.535   3.492 -1.2861 -0.3686 -0.4094
10019TIP3    H251549   1.027   0.454   3.591 -0.6214 -0.7056 -0.1277
10020TIP3   OH251550   3.656   4.842  14.415  0.0662  0.4846 -0.1530
10020TIP3    H151551   3.589   4.832  14.347 -0.5842  2.0352  0.2171
10020TIP3    H251552   3.635   4.925  14.458  0.9860 -0.0243  1.3786
10021TIP3   OH251553   1.547   5.301  14.942 -0.1878 -0.6027  0.0046
10021TIP3    H151554   1.544   5.385  14.896  1.3728 -0.9526 -0.8086
10021TIP3    H251555   1.612   5.314  15.011 -1.2384 -0.6221  1.0219
10022TIP3   OH251556   2.261   4.108   1.126  0.3370 -0.1035  0.2145
10022TIP3    H151557   2.320   4.037   1.100  0.1760  0.5158 -2.0351
10022TIP3    H251558   2.177   4.087   1.085 -0.5295 -0.0100  1.8486
10023TIP3   OH251559   2.250   6.694   4.601 -0.1795  0.0120 -0.0016
10023TIP3    H151560   2.199   6.768   4.633 -1.2977 -0.1145 -1.3958
10023TIP3    H251561   2.219   6.619   4.650 -0.1575  0.2066  0.3112
10024TIP3   OH251562   5.650   3.809  17.106  0.7358  0.2102  0.5196
10024TIP3    H151563   5.706   3.860  17.164  0.8408 -1.1839  1.7172
10024TIP3    H251564   5.657   3.719  17.140  1.0607 -0.7275 -1.8574
10025TIP3   OH251565   0.069   2.225   1.759  0.1648  0.1496  0.2753
10025TIP3    H151566   0.090   2.142   1.716 -0.4656  0.3909 -0.5305
10025TIP3    H251567   0.117   2.291   1.709 -0.3633  0.4040  0.0933
10026TIP3   OH251568   5.556   0.501  16.106 -1.0357  0.3115 -0.1105
10026TIP3    H151569   5.480   0.548  16.071 -0.6395  1.3076  0.3145
10026TIP3    H251570   5.630   0.537  16.058 -0.6471  0.6514  0.7130
10027TIP3   OH251571   0.273   4.421   1.719 -0.1983 -0.4885  0.2830
10027TIP3    H151572   0.303   4.457   1.636  0.9903 -1.8340  0.0739
10027TIP3    H251573   0.195   4.471   1.741  0.9597  1.7267 -0.2837
10028TIP3   OH251574   0.581   5.393  16.069 -0.0167 -0.1117 -0.9698
10028TIP3    H151575   0.584   5.297  16.079 -1.4695  0.0276  2.0700
10028TIP3    H251576   0.659   5.423  16.117 -1.5299  0.2667  1.4127
10029TIP3   OH251577   6.372   3.268   4.950 -0.0275 -0.9518  0.1033
10029TIP3    H151578   6.355   3.347   4.899  1.0956 -0.1857  0.8454
10029TIP3    H251579   6.391   3.300   5.038  1.9320 -1.8940  0.0908
10030TIP3   OH251580   2.077   4.684  16.062  0.2006  0.2578 -0.0200
10030TIP3    H151581   2.050   4.616  16.124  1.7516  0.0407  0.4373
10030TIP3    H251582   2.049   4.650  15.976 -4.0962  1.5707  0.5874
10031TIP3   OH251583   2.159   5.850   3.358 -0.2091  0.3895  0.0345
10031TIP3    H151584   2.238   5.875   3.310 -0.6623  1.3358 -0.2611
10031TIP3    H251585   2.108   5.799   3.295  0.3001 -0.4941  0.3293
10032TIP3   OH251586   2.768   6.350  14.614  0.0740 -0.2806 -0.2130
10032TIP3    H151587   2.694   6.327  14.558 -0.4051  0.7058 -0.0140
10032TIP3    H251588   2.786   6.442  14.593  0.7300 -0.2761  0.3214
10033TIP3   OH251589   2.991   0.359  14.421  0.3637  0.2076 -0.2255
10033TIP3    H151590   3.029   0.434  14.468 -0.9008  0.3608  0.5980
10033TIP3    H251591   2.953   0.397  14.342  2.4936 -0.0499 -1.4669
10034TIP3   OH251592   5.849   3.015  11.878  0.0563 -0.3964 -0.2765
10034TIP3    H151593   5.833   3.044  11.788 -2.2917  0.9854  0.4950
10034TIP3    H251594   5.780   2.951  11.895  1.1518 -1.4904  0.2263
10035TIP3   OH251595   0.982   5.824  12.097 -0.5627 -0.2196  0.1714
10035TIP3    H151596   0.897   5.856  12.067 -1.2339 -0.7235  1.4691
10035TIP3    H251597   1.034   5.903  12.111 -0.9000  0.1037 -0.3430
10036TIP3   OH251598   6.721   2.900  12.575 -0.5905 -0.0793  0.2148
10036TIP3    H151599   6.686   2.819  12.539 -1.4709  0.8562 -1.0948
10036TIP3    H251600   6.795   2.922  12.518 -0.9795  0.5521 -0.0595
10037TIP3   OH251601   0.670   6.766  16.898  0.2458 -0.4845 -0.1482
10037TIP3    H151602   0.620   6.696  16.941 -0.3810 -0.4659 -0.8292
10037TIP3    H251603   0.721   6.721  16.831  1.5095 -0.5628  0.8326
10038TIP3   OH251604   5.683   0.491   5.410 -0.3450  0.0663  0.2534
10038TIP3    H151605   5.590   0.495   5.434 -0.3310 -0.4838  0.4130
10038TIP3    H251606   5.719   0.574   5.439 -0.8393  0.3801 -0.0156
10039TIP3   OH251607   1.233   1.511  13.646  0.3151  0.2814  0.1270
10039TIP3    H151608   1.174   1.585  13.629  0.0267  0.2975  1.1392
10039TIP3    H251609   1.236   1.504  13.742  0.6768 -0.7576  0.0489
10040TIP3   OH251610   5.279   0.693   0.649  0.3541 -0.3488 -0.2177
10040TIP3    H151611   5.235   0.778   0.660  0.0090 -0.4393 -0.8524
10040TIP3    H251612   5.365   0.706   0.688 -0.2612 -0.2032  1.1601
10041TIP3   OH251613   0.980   2.809  12.832  0.0533 -0.1844  0.0070
10041TIP3    H151614   0.974   2.844  12.921 -1.2033 -0.4835  0.0533
10041TIP3    H251615   1.074   2.805  12.815  0.3828 -1.2505  1.7743
10042TIP3   OH251616   3.880   4.104   5.464 -0.0803 -0.5346 -0.6749
10042TIP3    H151617   3.843   4.183   5.505  0.0458  0.1927 -1.9271
10042TIP3    H251618   3.946   4.074   5.526  0.6979  1.0284 -0.6865
10043TIP3   OH251619   3.670   3.302   2.840 -0.0989  0.5032  0.1200
10043TIP3    H151620   3.630   3.389   2.837  0.8897  0.9622 -0.7017
10043TIP3    H251621   3.658   3.267   2.751 -0.6212 -0.2686  0.4863
10044TIP3   OH251622   3.986   0.335  10.505  0.3088 -0.6303  0.0854
10044TIP3    H151623   3.915   0.334  10.569  1.2850  0.6727  1.2369
10044TIP3    H251624   3.984   0.423  10.468  1.7651 -0.3304  0.6656
10045TIP3   OH251625   3.264   0.226   1.444  0.0646 -0.5085 -0.3431
10045TIP3    H151626   3.334   0.272   1.397  0.2502 -1.4954 -1.0676
10045TIP3    H251627   3.251   0.277   1.524 -1.6448  2.4583 -2.3077
10046TIP3   OH251628   0.588   2.558  13.813 -0.7164 -0.7984 -0.1959
10046TIP3    H151629   0.681   2.564  13.834 -0.8699  0.9772  0.0567
10046TIP3    H251630   0.586   2.535  13.720 -0.0355 -0.4475 -0.3014
10047TIP3   OH251631   6.348   6.214   0.584  0.3596 -0.1940  0.0709
10047TIP3    H151632   6.418   6.263   0.541 -0.5121  1.6816  0.6668
10047TIP3    H251633   6.269   6.239   0.536 -0.3177  0.2250  1.3519
10048TIP3   OH251634   0.657   2.420  12.310  0.1586  0.4772  0.0240
10048TIP3    H151635   0.724   2.489  12.307  0.0824  0.5562  0.1216
10048TIP3    H251636   0.639   2.409  12.403  1.0956 -0.5701  0.1092
10049TIP3   OH251637   6.235   0.682  11.541  0.4952 -0.1430 -0.1797
10049TIP3    H151638   6.273   0.766  11.567  0.9058 -1.1509  2.8465
10049TIP3    H251639   6.141   0.693  11.555  0.1529  0.6535 -2.6031
10050TIP3   OH251640   3.790   4.902  16.754  0.2026  0.2529  0.1304
10050TIP3    H151641   3.871   4.859  16.780 -1.1037 -1.4244  1.6344
10050TIP3    H251642   3.759   4.946  16.833 -0.1249  1.3026 -0.5564
10051TIP3   OH251643   6.107   5.322   0.075  0.4881  0.3660 -0.2462
10051TIP3    H151644   6.136   5.411   0.095 -0.9698  1.0579 -0.9516
10051TIP3    H251645   6.172   5.288   0.014  0.9798  1.0241 -0.0943
10052TIP3   OH251646   3.723   3.683   4.018 -0.2420 -0.0107  0.1277
10052TIP3    H151647   3.818   3.683   4.005 -0.2950 -1.8622 -0.6373
10052TIP3    H251648   3.709   3.619   4.087 -0.9279  0.4544  0.4235
10053TIP3   OH251649   3.732   1.552   1.886  0.0268  0.0601  0.0312
10053TIP3    H151650   3.654   1.579   1.934  1.2036  1.5379  1.2727
10053TIP3    H251651   3.796   1.531   1.955  1.5688  1.6007 -0.8377
10054TIP3   OH251652   6.262   1.394   4.250 -0.7944 -0.2376 -0.4240
10054TIP3    H151653   6.224   1.480   4.231 -1.0258 -0.3324 -0.3964
10054TIP3    H251654   6.295   1.363   4.165 -0.2300  0.1075 -0.3363
10055TIP3   OH251655   3.915   2.048   2.794 -0.0956  0.6354  0.1332
10055TIP3    H151656   3.907   2.034   2.700  0.5488 -0.2617  0.1967
10055TIP3    H251657   4.008   2.070   2.807  0.5305 -2.0971  0.8676
10056TIP3   OH251658   2.913   5.729   2.513 -0.2078  0.1661 -0.0996
10056TIP3    H151659   2.955   5.726   2.427  1.3693  0.0662  0.6337
10056TIP3    H251660   2.846   5.661   2.509  0.5905 -0.6070 -0.8806
10057TIP3   OH251661   6.682   0.432   0.100 -0.6371  0.4002 -0.1180
10057TIP3    H151662   6.648   0.366   0.161  3.6914 -1.3960  0.7212
10057TIP3    H251663   6.656   0.399   0.013  0.8329 -2.2471  0.3198
10058TIP3   OH251664   1.457   3.595  14.376 -0.2652  0.1945  0.2111
10058TIP3    H151665   1.413   3.616  14.459 -1.2858 -2.7020  0.4958
10058TIP3    H251666   1.399   3.631  14.309 -0.3894  0.9059  0.6812
10059TIP3   OH251667   4.577   1.145   5.415  0.1353  0.0162 -0.0953
10059TIP3    H151668   4.591   1.137   5.510  0.1259 -2.0791 -0.2313
10059TIP3    H251669   4.500   1.202   5.408 -0.6543 -0.8033  1.2430
10060TIP3   OH251670   6.135   5.622   3.710  0.4041  0.6442 -0.2785
10060TIP3    H151671   6.150   5.578   3.794  0.5814 -1.0142 -1.1380
10060TIP3    H251672   6.192   5.698   3.712 -1.5125  2.1994  2.1785
10061TIP3   OH251673   0.887   0.783  11.014  0.1783 -0.0209 -0.0426
10061TIP3    H151674   0.870   0.781  11.108 -1.9223  2.3500 -0.2433
10061TIP3    H251675   0.931   0.867  11.000 -1.4804  0.6978 -1.3436
10062TIP3   OH251676   2.135   5.314   0.699  0.2271 -0.1015  0.1063
10062TIP3    H151677   2.153   5.228   0.738 -1.6919 -0.3166  0.6197
10062TIP3    H251678   2.049   5.304   0.658  0.5079  1.2464 -0.8967
10063TIP3   OH251679   1.698   3.174  11.968  0.4324 -0.3027 -0.4261
10063TIP3    H151680   1.741   3.147  11.887  2.2216  0.7856  0.1236
10063TIP3    H251681   1.732   3.114  12.035  0.5216  0.0788 -0.1252
10064TIP3   OH251682   6.566   3.548  12.532  0.7493  0.2204  0.2835
10064TIP3    H151683   6.566   3.643  12.521 -1.4312  0.2320  0.1009
10064TIP3    H251684   6.656   3.527  12.558  1.3923  2.2613 -0.1565
10065TIP3   OH251685   2.063   3.236  10.974  0.1191 -0.1652 -0.5262
10065TIP3    H151686   2.059   3.321  10.930 -0.3181 -0.0176 -0.2056
10065TIP3    H251687   2.001   3.243  11.046 -0.3248 -0.9393 -0.8170
10066TIP3   OH251688   5.903   0.323  15.812 -0.3827  0.0619  0.4416
10066TIP3    H151689   5.850   0.380  15.756 -0.4040 -0.7968 -0.4468
10066TIP3    H251690   5.841   0.256  15.843 -0.2193  0.1344  0.9281
10067TIP3   OH251691   5.679   4.599   5.739 -0.2153  0.0370 -0.2577
10067TIP3    H151692   5.650   4.589   5.829  0.2775 -0.3697 -0.1433
10067TIP3    H251693   5.711   4.513   5.714 -1.1887 -0.0964 -1.1225
10068TIP3   OH251694   5.785   6.237   3.430 -0.1889 -0.0430 -0.2522
10068TIP3    H151695   5.723   6.257   3.500  0.6504 -0.5684  0.6709
10068TIP3    H251696   5.752   6.285   3.354 -0.2640  1.8201  0.8964
10069TIP3   OH251697   1.341   4.055   0.615  0.0271  0.7878 -0.2167
10069TIP3    H151698   1.404   4.110   0.661  0.9340 -0.0752 -0.4000
10069TIP3    H251699   1.257   4.073   0.659  0.3463  2.0713 -0.0818
10070TIP3   OH251700   0.589   4.182   3.581 -0.5978 -0.1941  0.6446
10070TIP3    H151701   0.635   4.209   3.502 -2.1492  2.7632  0.6139
10070TIP3    H251702   0.497   4.179   3.554 -0.8268 -4.0726  1.1780
10071TIP3   OH251703   1.812   0.011  15.254 -1.2916 -0.7932  0.3609
10071TIP3    H151704   1.794  -0.065  15.309  0.6042 -0.9788  0.7817
10071TIP3    H251705   1.765   0.083  15.297 -0.7258 -1.1495  1.6159
10072TIP3   OH251706   1.449   4.192  14.916 -0.5298  0.2476  0.2164
10072TIP3    H151707   1.505   4.198  14.993 -0.0841 -2.2021  0.1442
10072TIP3    H251708   1.471   4.270  14.864  1.8938  0.0229  0.7903
10073TIP3   OH251709   4.825   3.345  13.025 -0.6271  0.1361 -0.5875
10073TIP3    H151710   4.838   3.254  12.998  0.4007 -0.1486  0.7618
10073TIP3    H251711   4.734   3.365  13.001 -1.4218 -1.7884  0.6329
10074TIP3   OH251712   1.582   2.487  15.681  0.0143 -0.1384  0.5164
10074TIP3    H151713   1.633   2.534  15.615  0.1917  0.8095  1.3064
10074TIP3    H251714   1.497   2.470  15.638 -0.6715  2.3566  0.7120
10075TIP3   OH251715   1.649   3.736  14.741 -0.1446 -0.0428  0.4061
10075TIP3    H151716   1.649   3.799  14.813 -0.6259  1.0937 -0.5472
10075TIP3    H251717   1.557   3.711  14.731 -0.0581 -0.3199  0.2930
10076TIP3   OH251718   4.072   4.618  16.087  0.2351  0.1706  0.5118
10076TIP3    H151719   4.157   4.577  16.075  0.5344  0.6727  0.8867
10076TIP3    H251720   4.015   4.575  16.023  1.1120  0.8194 -0.7542
10077TIP3   OH251721   4.480   0.980   1.308 -0.4050 -0.0600  0.0992
10077TIP3    H151722   4.423   1.054   1.333 -3.2511 -1.8600 -0.6269
10077TIP3    H251723   4.428   0.931   1.244  2.2257 -1.6136 -0.9659
10078TIP3   OH251724   6.035   1.541  14.119  0.0479 -0.4107  0.5854
10078TIP3    H151725   6.102   1.481  14.153 -2.2424 -3.4314  0.1660
10078TIP3    H251726   6.034   1.527  14.025 -0.8429 -0.0634  0.5259
10079TIP3   OH251727   5.008   0.861  13.183 -0.0438  0.3027 -0.6244
10079TIP3    H151728   5.011   0.791  13.118 -0.3383  0.3418 -0.6801
10079TIP3    H251729   5.089   0.851  13.233 -0.0502 -0.0303 -0.6805
10080TIP3   OH251730   2.202   3.898   3.244  0.0131 -0.2864  0.9748
10080TIP3    H151731   2.119   3.902   3.292 -0.3453 -0.6997  0.4177
10080TIP3    H251732   2.193   3.820   3.189  0.0626  0.6164 -0.3582
10081TIP3   OH251733   5.282   3.703  14.720  0.1685 -0.1003  0.2440
10081TIP3    H151734   5.304   3.781  14.772  0.2667  1.7394 -2.3250
10081TIP3    H251735   5.187   3.696  14.728  0.2662 -0.3583  1.3103
10082TIP3   OH251736   6.000   2.793   5.896 -0.3296  0.1738  0.0516
10082TIP3    H151737   6.072   2.841   5.937  0.4733 -1.8502  1.1622
10082TIP3    H251738   6.039   2.709   5.871 -2.0680 -0.5847 -0.2197
10083TIP3   OH251739   6.626   1.680  16.742  0.1524  0.3554  0.2844
10083TIP3    H151740   6.532   1.683  16.759  0.3412 -0.0748  1.5515
10083TIP3    H251741   6.635   1.624  16.665 -0.5765 -0.6316  0.8814
10084TIP3   OH251742   5.164   2.458   3.677 -0.1126  0.2046  0.0802
10084TIP3    H151743   5.086   2.513   3.673 -1.2259 -1.3441 -0.7263
10084TIP3    H251744   5.130   2.372   3.703  1.4430 -0.3245  0.4314
10085TIP3   OH251745   2.557   2.147  15.569 -0.0297  0.1835 -0.1996
10085TIP3    H151746   2.507   2.077  15.611  1.1012 -1.2223 -1.0856
10085TIP3    H251747   2.580   2.206  15.640 -1.4358 -0.0513  0.4978
10086TIP3   OH251748   4.106   5.847  14.441  0.2041  0.1917  0.1256
10086TIP3    H151749   4.023   5.799  14.450 -0.1842  0.9512  0.6939
10086TIP3    H251750   4.101   5.887  14.354 -0.0480  0.2728  0.1755
10087TIP3   OH251751   4.646   3.610  15.233  0.8792 -0.0765 -0.1909
10087TIP3    H151752   4.568   3.604  15.289  0.6274  3.7813  0.1437
10087TIP3    H251753   4.611   3.622  15.144  1.1957 -1.4118 -0.5123
10088TIP3   OH251754   2.127   5.151   1.606  0.0264 -0.0883  0.0542
10088TIP3    H151755   2.185   5.082   1.574 -0.6142 -1.2138  1.2199
10088TIP3    H251756   2.044   5.106   1.623 -0.2233  0.8433  1.4070
10089TIP3   OH251757   4.179   5.840   4.234 -0.3726  0.3552 -0.5031
10089TIP3    H151758   4.173   5.918   4.289 -0.6846 -0.0736  0.0748
10089TIP3    H251759   4.153   5.768   4.291 -1.6250  0.0137 -1.4718
10090TIP3   OH251760   3.235   0.854   2.445  0.4200 -0.3878 -0.2464
10090TIP3    H151761   3.148   0.894   2.437  0.6901  0.1613 -0.4724
10090TIP3    H251762   3.222   0.781   2.506  0.0195  0.3550  0.5888
10091TIP3   OH251763   3.360   6.585  12.198 -0.4990 -0.2452  0.6206
10091TIP3    H151764   3.331   6.669  12.163  0.8737  0.5688  1.3405
10091TIP3    H251765   3.434   6.560  12.143 -2.0748 -1.9954 -0.8183
10092TIP3   OH251766   5.902   0.644   0.376 -0.4341 -1.1883 -0.6324
10092TIP3    H151767   5.809   0.661   0.357 -0.8378 -0.6911  1.5244
10092TIP3    H251768   5.942   0.731   0.377 -0.4670 -1.1590  0.7057
10093TIP3   OH251769   1.228   1.507  11.488 -0.3051 -0.6107  0.1759
10093TIP3    H151770   1.176   1.577  11.448 -1.0712  0.2810  2.5518
10093TIP3    H251771   1.196   1.502  11.578  0.1344 -3.6676  0.2662
10094TIP3   OH251772   0.023   4.890   1.498  0.0550 -0.2062 -0.1736
10094TIP3    H151773   0.098   4.830   1.495  0.3240  0.0955  0.4773
10094TIP3    H251774  -0.007   4.895   1.407 -1.3502 -3.0609  0.0186
10095TIP3   OH251775   0.850   0.643  14.393 -0.0488  0.3781  0.0504
10095TIP3    H151776   0.876   0.721  14.441 -1.0623  0.5684  0.3130
10095TIP3    H251777   0.862   0.571  14.456  2.4369  0.0414 -0.6814
10096TIP3   OH251778   5.113   2.227  12.689 -0.4569  0.4465 -0.2820
10096TIP3    H151779   5.189   2.220  12.746  0.5144  0.4347 -1.5184
10096TIP3    H251780   5.102   2.321  12.674  0.6770  0.3965 -1.7710
10097TIP3   OH251781   0.639   6.370  11.995 -0.3241 -0.6617 -0.4186
10097TIP3    H151782   0.614   6.285  11.959 -0.4861 -1.0099  0.4892
10097TIP3    H251783   0.726   6.386  11.958  0.1052 -1.6593  0.1238
10098TIP3   OH251784   4.308   5.421  14.952  0.0438  0.3030  0.0308
10098TIP3    H151785   4.383   5.465  14.912 -2.7581  2.3517 -3.5755
10098TIP3    H251786   4.254   5.493  14.987 -0.7713 -1.0257  1.6832
10099TIP3   OH251787   4.342   2.743  13.921  0.2606  0.5211  0.5769
10099TIP3    H151788   4.321   2.734  14.014  0.9958 -0.3420  0.6702
10099TIP3    H251789   4.261   2.773  13.881 -0.1554  0.5832  1.4489
10100TIP3   OH251790   0.041   4.564   1.726 -0.1912 -0.0792  0.0682
10100TIP3    H151791  -0.041   4.599   1.690 -1.5970 -1.0013  2.1762
10100TIP3    H251792   0.069   4.630   1.790 -1.2084 -1.2865  1.8378
10101TIP3   OH251793   1.260   6.254   2.444 -0.2581 -0.6490  0.5349
10101TIP3    H151794   1.198   6.324   2.425 -0.7779 -1.3701 -0.4727
10101TIP3    H251795   1.336   6.299   2.482 -0.7824  0.3988  0.3721
10102TIP3   OH251796   5.524   4.958   4.342 -0.0816  0.5334 -0.6404
10102TIP3    H151797   5.563   4.965   4.429 -0.7307  2.8950 -0.4741
10102TIP3    H251798   5.597   4.973   4.281  0.9802 -3.8132 -0.7516
10103TIP3   OH251799   1.366   6.163   2.037  0.2436  0.4369 -0.0548
10103TIP3    H151800   1.449   6.193   2.074 -0.0133  1.1029 -0.0094
10103TIP3    H251801   1.380   6.166   1.943 -0.2869  2.2660 -0.1202
10104TIP3   OH251802   3.980   2.232  12.689 -0.1367 -0.3640  0.5016
10104TIP3    H151803   4.028   2.315  12.685 -0.0466 -0.4295  0.1885
10104TIP3    H251804   3.961   2.211  12.598 -1.8239  0.2579  0.6773
10105TIP3   OH251805   6.607   2.891  12.830  0.0493 -0.0349  0.2472
10105TIP3    H151806   6.624   2.904  12.737 -2.3631 -0.3093 -0.2719
10105TIP3    H251807   6.638   2.802  12.848 -1.8386 -0.9774 -0.9392
10106TIP3   OH251808   5.772   1.410  15.723 -0.0185 -0.4906  0.0648
10106TIP3    H151809   5.765   1.482  15.786  0.4411 -0.5753  0.2183
10106TIP3    H251810   5.865   1.390  15.720  0.1308  0.2473 -1.4790
10107TIP3   OH251811   5.092   6.817   1.723 -0.0463  0.7483  0.5141
10107TIP3    H151812   5.012   6.861   1.753  0.0397  1.1878  0.1059
10107TIP3    H251813   5.088   6.731   1.764  0.1800  1.4010  1.9564
10108TIP3   OH251814   0.019   6.192   3.711  0.1094  0.4320 -0.4098
10108TIP3    H151815  -0.065   6.149   3.728  1.5225 -2.0527  0.9543
10108TIP3    H251816   0.078   6.120   3.689  1.6485  2.2326 -2.6493
10109TIP3   OH251817   2.119   5.605  15.173 -0.5683  0.0668  0.0835
10109TIP3    H151818   2.173   5.661  15.229 -2.2222  0.9810  0.8576
10109TIP3    H251819   2.074   5.666  15.114 -2.3789 -0.3611  0.9237
10110TIP3   OH251820   2.378   1.746  15.122 -0.1748 -0.0065  0.5883
10110TIP3    H151821   2.345   1.831  15.152  1.3757  1.0100 -0.4275
10110TIP3    H251822   2.458   1.733  15.174  1.3567  0.7490 -1.4339
10111TIP3   OH251823   2.030   1.272  11.117  0.1978 -0.1183  0.3826
10111TIP3    H151824   1.941   1.265  11.152  0.1312  0.1544  0.2732
10111TIP3    H251825   2.019   1.263  11.022  0.2368  0.3038  0.3337
10112TIP3   OH251826   6.177   6.061  16.967 -0.3202 -0.4542 -0.2896
10112TIP3    H151827   6.267   6.094  16.959  0.0643 -1.6565 -1.1707
10112TIP3    H251828   6.162   6.057  17.061 -0.9249  3.5131 -0.0103
10113TIP3   OH251829   6.438   4.937   0.006  0.2848  0.0851 -0.0178
10113TIP3    H151830   6.427   4.901   0.094 -1.4119 -0.9086 -0.5734
10113TIP3    H251831   6.398   4.872  -0.052  0.6400  1.0829 -1.4542
10114TIP3   OH251832   2.475   5.215   1.816  0.1223  0.3467 -0.5048
10114TIP3    H151833   2.380   5.225   1.811 -0.0491 -1.2412 -0.8450
10114TIP3    H251834   2.509   5.300   1.787 -1.1783  1.3274  0.7258
10115TIP3   OH251835   3.693   2.686  10.833 -0.0665 -0.3000 -0.2773
10115TIP3    H151836   3.602   2.660  10.847  0.2584 -0.9592  0.7604
10115TIP3    H251837   3.744   2.611  10.864  0.8452  0.4148 -0.0110
10116TIP3   OH251838   4.116   6.771  13.009 -0.3556  0.2041 -0.0828
10116TIP3    H151839   4.154   6.808  12.929  0.3986  0.8349  0.5515
10116TIP3    H251840   4.030   6.738  12.981 -0.3266  0.8833 -1.0369
10117TIP3   OH251841   1.960   0.140   4.742 -0.4657 -0.0771  0.0934
10117TIP3    H151842   2.053   0.127   4.762 -1.0583 -0.6247  2.9357
10117TIP3    H251843   1.960   0.204   4.671  2.0735 -0.1844 -0.1064
10118TIP3   OH251844   0.316   2.659  13.814  0.6091 -0.3350  0.2480
10118TIP3    H151845   0.256   2.587  13.832  1.1732 -0.7325  0.5703
10118TIP3    H251846   0.402   2.626  13.839  0.6405  1.1340  2.4069
10119TIP3   OH251847   0.741   3.697  11.394 -0.2798 -0.0668 -0.7254
10119TIP3    H151848   0.834   3.684  11.412 -0.6441 -1.4633  0.2844
10119TIP3    H251849   0.701   3.704  11.481 -1.2553 -0.5683 -1.1231
10120TIP3   OH251850   5.154   3.642  17.103  0.4438 -0.3042  0.4045
10120TIP3    H151851   5.149   3.738  17.102  0.5120 -0.2685  1.5998
10120TIP3    H251852   5.235   3.624  17.152  1.1409 -0.9681 -0.9568
10121TIP3   OH251853   1.382   3.627  14.634 -0.1547 -0.2728  0.0728
10121TIP3    H151854   1.295   3.667  14.637  0.4170  0.9956  2.9088
10121TIP3    H251855   1.380   3.559  14.701  1.4792  0.8961  1.3946
10122TIP3   OH251856   3.338   3.533  16.278 -0.4134  0.2964  0.0716
10122TIP3    H151857   3.301   3.446  16.264  0.2064 -0.0498  0.5045
10122TIP3    H251858   3.280   3.574  16.342 -0.1894 -0.1545  0.5743
10123TIP3   OH251859   2.024   2.780   2.953  0.0448  0.0032 -0.4615
10123TIP3    H151860   2.042   2.873   2.936  1.5912  0.0058  0.9435
10123TIP3    H251861   2.105   2.747   2.992 -0.7547 -1.7648 -0.2158
10124TIP3   OH251862   0.334   3.562   2.609  0.7273  0.0280  0.4461
10124TIP3    H151863   0.344   3.467   2.619  1.5636  0.0888  0.2260
10124TIP3    H251864   0.243   3.573   2.582  0.1756 -0.5933  1.9215
10125TIP3   OH251865   1.540   2.109   3.602 -0.0431 -0.3218  0.5065
10125TIP3    H151866   1.617   2.093   3.548  0.7527  0.7735  1.2767
10125TIP3    H251867   1.472   2.136   3.540  0.3463 -0.7362 -0.1126
10126TIP3   OH251868   6.700   0.695   0.215  0.0070  0.3076 -0.1965
10126TIP3    H151869   6.678   0.607   0.183 -0.9957  1.1230 -1.8996
10126TIP3    H251870   6.667   0.754   0.147 -3.7277  2.3397  3.0249
10127TIP3   OH251871   2.778   0.234  11.263 -0.0546  0.8364 -0.3830
10127TIP3    H151872   2.688   0.203  11.252  0.4363 -0.6097 -0.5455
10127TIP3    H251873   2.780   0.272  11.350 -0.1722 -1.7107  0.8357
10128TIP3   OH251874   4.877   2.130  15.693  0.7103 -0.3730 -0.2266
10128TIP3    H151875   4.850   2.180  15.770 -1.0222 -3.1271  1.1350
10128TIP3    H251876   4.940   2.066  15.727 -0.1637 -1.7037 -0.9853
10129TIP3   OH251877   3.763   2.363   2.637  0.5289 -0.8031  0.2396
10129TIP3    H151878   3.745   2.370   2.543  0.6029 -1.2696  0.1905
10129TIP3    H251879   3.848   2.406   2.648 -0.2647  0.8033  0.3705
10130TIP3   OH251880   6.706   2.279  13.259  0.0662  0.1836 -0.1019
10130TIP3    H151881   6.775   2.336  13.227  1.1167 -0.5528  0.8137
10130TIP3    H251882   6.679   2.229  13.181  1.7308 -0.7045 -0.1477
10131TIP3   OH251883   3.691   5.012  16.990 -0.6689  0.4953 -0.4952
10131TIP3    H151884   3.711   5.098  17.027 -0.6675  0.3623 -0.1821
10131TIP3    H251885   3.612   4.984  17.037 -0.1302 -0.0882  0.0770
10132TIP3   OH251886   3.493   5.240   6.391 -0.6551 -0.2294  0.4376
10132TIP3    H151887   3.465   5.174   6.455  1.1221 -0.1093  1.4266
10132TIP3    H251888   3.425   5.307   6.394 -1.5041 -1.0873  0.8687
10133TIP3   OH251889   0.349   5.948  11.003  0.9243 -0.0671  0.5066
10133TIP3    H151890   0.343   5.852  11.012  0.8658 -0.2212 -0.8990
10133TIP3    H251891   0.401   5.961  10.924  1.7585  1.0961  1.2188
10134TIP3   OH251892   3.285   0.516  12.406  0.0939  0.5060 -0.3756
10134TIP3    H151893   3.311   0.607  12.391 -0.5241  0.6945 -0.3328
10134TIP3    H251894   3.225   0.496  12.335 -1.6721  0.9211  0.9361
10135TIP3   OH251895   1.332   3.070   2.809  0.4028  0.1823 -0.1250
10135TIP3    H151896   1.256   3.127   2.801  0.4691  0.4028  0.7085
10135TIP3    H251897   1.361   3.082   2.899 -0.1597 -1.9100  0.3819
10136TIP3   OH251898   0.320   5.382   3.436 -0.1014 -0.6192 -0.3567
10136TIP3    H151899   0.233   5.363   3.470  0.1249 -3.0737 -0.9110
10136TIP3    H251900   0.311   5.371   3.341  0.4035  1.0217 -0.6176
10137TIP3   OH251901   6.484   2.964   4.405 -0.0319  0.0563 -0.1606
10137TIP3    H151902   6.509   3.054   4.385  0.2862 -0.3779 -1.9273
10137TIP3    H251903   6.548   2.935   4.470 -0.0701  1.0539  0.3401
10138TIP3   OH251904   2.438   3.364  16.413  0.4251  0.0375  0.1871
10138TIP3    H151905   2.421   3.423  16.486  1.5614  3.4368 -2.0298
10138TIP3    H251906   2.357   3.365  16.362  1.2474  1.9652 -1.2082
10139TIP3   OH251907   5.738   0.178   6.760  0.2983  0.1977  0.1093
10139TIP3    H151908   5.818   0.127   6.750  0.5398  0.4329  0.7576
10139TIP3    H251909   5.675   0.137   6.700  1.6639  1.7100 -2.5413
10140TIP3   OH251910   3.277   5.691   3.196 -0.6685 -0.9104  0.2195
10140TIP3    H151911   3.245   5.673   3.284 -1.5346  1.9226  0.5964
10140TIP3    H251912   3.366   5.723   3.208 -0.8682 -0.2952  0.1352
10141TIP3   OH251913   0.034   4.388  11.434  0.3077  0.0270  0.5668
10141TIP3    H151914   0.036   4.309  11.487 -3.1014  0.5074  1.6678
10141TIP3    H251915   0.026   4.356  11.344  0.2822 -0.8515  0.8720
10142TIP3   OH251916   3.701   5.497   0.658  0.0938  0.4324  1.0526
10142TIP3    H151917   3.720   5.404   0.645  0.6672  0.5239  1.2100
10142TIP3    H251918   3.662   5.525   0.575 -1.9037 -0.3875  1.6501
10143TIP3   OH251919   4.118   4.890  15.396  0.2621  0.6999  0.3733
10143TIP3    H151920   4.202   4.904  15.440 -0.0516  0.3386  1.1038
10143TIP3    H251921   4.104   4.970  15.345  1.6142  0.2791 -0.7250
10144TIP3   OH251922   2.855   1.242  13.470 -0.4485 -0.5504 -0.0689
10144TIP3    H151923   2.764   1.254  13.497 -0.5936 -0.2578 -0.6692
10144TIP3    H251924   2.894   1.329  13.477 -0.3763 -0.5563 -0.3955
10145TIP3   OH251925   1.629   1.903  12.174 -1.2795 -0.2115  0.0850
10145TIP3    H151926   1.626   1.997  12.158 -1.5121 -0.1890  0.2499
10145TIP3    H251927   1.639   1.864  12.087 -2.2885 -0.0834 -0.1068
10146TIP3   OH251928   1.812   0.141   6.009 -0.1632  0.1501 -0.1210
10146TIP3    H151929   1.745   0.110   6.070 -1.4661  0.7391 -1.1803
10146TIP3    H251930   1.825   0.233   6.033  1.0635 -0.2314  0.7458
10147TIP3   OH251931   2.601   4.247   3.924  0.4090  0.3544  0.2308
10147TIP3    H151932   2.581   4.332   3.965  1.3096  0.9565 -0.5547
10147TIP3    H251933   2.623   4.190   3.998 -0.3389  0.7543  0.7784
10148TIP3   OH251934   5.567   0.885   3.621  0.0025 -0.1371 -0.3261
10148TIP3    H151935   5.641   0.868   3.563 -0.2972  0.1158 -0.7912
10148TIP3    H251936   5.563   0.808   3.678  0.3912 -0.3243 -0.5464
10149TIP3   OH251937   2.276   5.133   4.935  0.7300  0.5243 -0.3300
10149TIP3    H151938   2.194   5.099   4.970  0.7385  0.8979  0.0483
10149TIP3    H251939   2.318   5.178   5.008  1.1824  0.5087 -0.5705
10150TIP3   OH251940   3.948   4.078  16.704  0.4909 -0.6769  0.0100
10150TIP3    H151941   4.015   4.082  16.773  0.1717  1.1792  0.2654
10150TIP3    H251942   3.947   3.986  16.677  0.8716 -1.3992  2.2257
10151TIP3   OH251943   1.590   0.525   1.595 -0.2908  0.2327 -0.0188
10151TIP3    H151944   1.583   0.445   1.542 -1.9399 -0.9188  1.8191
10151TIP3    H251945   1.669   0.511   1.648 -2.5398 -2.1610  3.1300
10152TIP3   OH251946   6.103   4.389  13.997  0.3274 -0.0276  0.7862
10152TIP3    H151947   6.187   4.433  14.009  0.2891  0.2223  0.1322
10152TIP3    H251948   6.126   4.299  13.973  0.4174  0.2939 -0.3596
10153TIP3   OH251949   2.459   2.566  16.752 -0.1383  1.0242 -0.4431
10153TIP3    H151950   2.539   2.537  16.796  0.0576 -0.4525 -1.7183
10153TIP3    H251951   2.448   2.657  16.782  0.5907  0.4637  1.7254
10154TIP3   OH251952   1.031   1.035  11.028 -0.4300  0.2885  0.9238
10154TIP3    H151953   0.960   1.092  11.059  0.4637  2.5465 -0.9053
10154TIP3    H251954   1.056   1.072  10.943  1.6724 -1.5798  0.6563
10155TIP3   OH251955   2.207   1.522  14.751  0.0389 -0.0299  0.3137
10155TIP3    H151956   2.116   1.541  14.726  0.1038  0.7239  0.5972
10155TIP3    H251957   2.259   1.573  14.689  0.3314 -1.5053 -0.7165
10156TIP3   OH251958   5.787   3.355   5.808  0.2987 -0.3774  0.2201
10156TIP3    H151959   5.725   3.413   5.853 -0.6805 -1.0991 -0.1507
10156TIP3    H251960   5.737   3.275   5.792  0.6397 -0.1708 -2.1063
10157TIP3   OH251961   3.016   4.253  16.905 -0.0518  0.0159 -0.1218
10157TIP3    H151962   3.030   4.269  16.811  1.9005  0.2198  0.1620
10157TIP3    H251963   2.952   4.182  16.907 -0.7217  0.5297 -1.5911
10158TIP3   OH251964   3.243   1.550  15.220  0.2163 -0.3440  0.1446
10158TIP3    H151965   3.230   1.475  15.161  0.5429 -1.3874  1.3464
10158TIP3    H251966   3.313   1.601  15.180 -0.5039 -0.2819 -1.0671
10159TIP3   OH251967   6.667   5.452   2.780  0.0234  0.3956 -0.0825
10159TIP3    H151968   6.739   5.483   2.724  1.8588  0.2826  2.0516
10159TIP3    H251969   6.654   5.523   2.843 -1.1061  0.0279  0.1091
10160TIP3   OH251970   6.555   1.879   2.341 -0.4371  0.1312  0.1783
10160TIP3    H151971   6.630   1.875   2.282 -2.1189 -0.5382 -2.0492
10160TIP3    H251972   6.560   1.798   2.392 -0.2235 -0.4285 -0.7085
10161TIP3   OH251973   5.461   3.262   1.542  0.4285 -0.1492  0.7309
10161TIP3    H151974   5.372   3.296   1.550  0.6057 -0.1174  4.0739
10161TIP3    H251975   5.451   3.167   1.552  0.5671 -0.4958 -1.8702
10162TIP3   OH251976   0.156   1.500  13.485  0.3255 -0.3370  0.3912
10162TIP3    H151977   0.137   1.427  13.544 -0.5201 -3.0869 -2.9777
10162TIP3    H251978   0.070   1.527  13.453  0.7634  1.1387  0.4114
10163TIP3   OH251979   5.073   4.199  11.650  0.1821  0.0437 -0.3365
10163TIP3    H151980   5.025   4.208  11.568  3.1027  2.6183 -1.9760
10163TIP3    H251981   5.060   4.108  11.676 -1.9217 -0.5046 -2.9372
10164TIP3   OH251982   4.566   4.475   4.387  0.0604 -0.2479 -1.0453
10164TIP3    H151983   4.543   4.540   4.320  0.3040  0.7878 -0.1520
10164TIP3    H251984   4.485   4.427   4.401  0.1241 -0.8140 -2.4197
10165TIP3   OH251985   5.954   4.360  15.939  0.0829  0.0284 -0.0145
10165TIP3    H151986   6.037   4.320  15.912 -0.0072  0.3472 -0.8118
10165TIP3    H251987   5.980   4.433  15.995  0.3434  0.0413 -0.1464
10166TIP3   OH251988   3.243   6.085  15.669  0.0125  0.8731 -0.4805
10166TIP3    H151989   3.207   6.161  15.623 -0.5645  1.2153  0.4991
10166TIP3    H251990   3.169   6.026  15.679  0.7742 -0.5422 -2.5674
10167TIP3   OH251991   1.004   2.359  10.851 -0.2641  0.5296  0.2973
10167TIP3    H151992   0.966   2.438  10.814  1.2085  0.5920 -1.2027
10167TIP3    H251993   1.067   2.330  10.785 -1.2569 -2.3007  0.4757
10168TIP3   OH251994   4.320   0.013  11.230  0.0346 -0.7561 -0.1907
10168TIP3    H151995   4.394   0.066  11.258 -1.3564  0.6389  1.0234
10168TIP3    H251996   4.346  -0.022  11.145  1.0949  1.7824 -0.9840
10169TIP3   OH251997   5.256   0.240   6.070 -0.7391 -0.1680  0.3539
10169TIP3    H151998   5.309   0.264   5.994 -0.3862 -1.4314  0.1713
10169TIP3    H251999   5.266   0.313   6.131 -0.7191  0.6925 -0.6531
10170TIP3   OH252000   6.821   6.403   3.524  0.1803  0.3977 -0.2776
10170TIP3    H152001   6.855   6.340   3.587 -0.6643  1.8951  1.8124
10170TIP3    H252002   6.765   6.461   3.576 -0.6140  1.7083 -2.4397
10171TIP3   OH252003   0.000   0.741   2.298 -0.2360  0.0537  0.2052
10171TIP3    H152004   0.035   0.776   2.216 -0.4870  0.9989  0.4864
10171TIP3    H252005   0.064   0.768   2.364 -0.7345  0.4982  0.5105
10172TIP3   OH252006   2.237   0.159   4.713 -0.2275  0.2825  0.5455
10172TIP3    H152007   2.283   0.180   4.632 -1.5560  0.5504 -0.1704
10172TIP3    H252008   2.305   0.161   4.781  1.2615 -1.7068 -0.7756
10173TIP3   OH252009   5.432   2.178   1.233  0.1605  1.0763 -0.4066
10173TIP3    H152010   5.436   2.179   1.328  0.3597 -0.7968 -0.3463
10173TIP3    H252011   5.443   2.269   1.207 -0.5489  1.7132  1.3700
10174TIP3   OH252012   4.198   1.446   0.128 -0.3941 -0.1971 -0.2489
10174TIP3    H152013   4.107   1.416   0.117 -0.4660  0.3850 -1.4727
10174TIP3    H252014   4.197   1.495   0.210 -1.1136 -0.4928 -0.0711
10175TIP3   OH252015   5.413   0.495   3.132 -0.0831  0.1783 -0.3868
10175TIP3    H152016   5.432   0.482   3.039  0.1977  1.7288 -0.5762
10175TIP3    H252017   5.488   0.458   3.177  0.3628  0.5027 -0.8477
10176TIP3   OH252018   1.035   5.383  13.838  0.0239  0.1129 -0.7421
10176TIP3    H152019   1.111   5.349  13.885 -0.7706 -0.2919  0.2840
10176TIP3    H252020   1.072   5.443  13.773  1.3319 -1.3549 -1.4238
10177TIP3   OH252021   3.338   0.024  10.795 -0.5458  0.2824  0.2822
10177TIP3    H152022   3.355  -0.059  10.751  0.0489 -0.0389  1.0913
10177TIP3    H252023   3.265   0.063  10.746 -1.1625 -0.9413  0.2022
10178TIP3   OH252024   0.163   5.277   5.163 -0.0782 -0.2644  0.2496
10178TIP3    H152025   0.127   5.292   5.076 -1.0418 -1.6983  0.3654
10178TIP3    H252026   0.225   5.349   5.176 -0.0892  0.1112 -1.5089
10179TIP3   OH252027   5.152   6.045  15.084  0.0759  0.0973 -0.5980
10179TIP3    H152028   5.104   6.024  15.004 -1.7834  1.5276  0.0831
10179TIP3    H252029   5.215   6.112  15.058 -0.1702  0.1839 -0.9653
10180TIP3   OH252030   0.334   1.049  15.433  0.1857 -0.5179  0.4377
10180TIP3    H152031   0.289   1.012  15.357 -1.4880  0.5306  0.8619
10180TIP3    H252032   0.371   1.131  15.402 -2.6959  1.2220  1.2635
10181TIP3   OH252033   4.304   0.955   5.496 -0.4416  0.4924  0.0829
10181TIP3    H152034   4.375   0.890   5.491 -1.5978 -0.9013  0.8861
10181TIP3    H252035   4.330   1.013   5.567  0.2784  0.5063 -0.1764
10182TIP3   OH252036   5.179   3.947  12.053  0.1488 -0.4891 -0.1625
10182TIP3    H152037   5.239   3.951  12.127 -0.9279 -1.6244  0.8232
10182TIP3    H252038   5.186   4.033  12.011  1.0517  0.0463  1.0382
10183TIP3   OH252039   0.663   3.626  15.578 -0.3677 -0.0268  0.8019
10183TIP3    H152040   0.756   3.648  15.587 -0.2084 -0.8680  1.3115
10183TIP3    H252041   0.654   3.596  15.488 -0.2042  0.2978  0.6726
10184TIP3   OH252042   0.628   5.119  13.070 -0.0731  0.4122 -0.7229
10184TIP3    H152043   0.554   5.151  13.121  1.2326 -1.2636  2.5393
10184TIP3    H252044   0.700   5.177  13.092  0.7116 -0.8042  0.0448
10185TIP3   OH252045   1.031   2.802  16.777  0.2789 -0.1058  0.9723
10185TIP3    H152046   0.971   2.732  16.802  1.3043 -1.3291  0.1337
10185TIP3    H252047   1.109   2.787  16.831 -0.0557  1.3485  1.9141
10186TIP3   OH252048   1.380   2.638   3.230 -0.8707  0.3285 -0.3977
10186TIP3    H152049   1.443   2.571   3.202 -1.2567  0.3861 -1.4674
10186TIP3    H252050   1.305   2.625   3.172 -1.6722  0.5414  0.5718
10187TIP3   OH252051   3.675   5.917   0.737 -0.7707 -0.3130  0.4287
10187TIP3    H152052   3.656   5.828   0.767  0.4380 -0.4130  0.9508
10187TIP3    H252053   3.700   5.907   0.646 -1.0935 -0.4453  0.3526
10188TIP3   OH252054   4.638   3.233  16.337  0.5094  0.2577  0.5559
10188TIP3    H152055   4.722   3.202  16.301 -0.5145 -1.4731 -0.4936
10188TIP3    H252056   4.661   3.269  16.422  2.7442  2.5239 -0.8585
10189TIP3   OH252057   2.614   2.316   3.031  0.0413 -0.3304  0.4212
10189TIP3    H152058   2.609   2.396   3.084 -2.8055 -0.5860  0.6813
10189TIP3    H252059   2.527   2.279   3.035  0.6480 -2.2205 -1.6793
10190TIP3   OH252060   3.700   6.448  12.641 -0.7638 -0.0711  0.1015
10190TIP3    H152061   3.716   6.542  12.636 -0.8942 -0.0293  0.4651
10190TIP3    H252062   3.641   6.437  12.716  0.5419 -0.6041  1.0841
10191TIP3   OH252063   0.255   1.054  15.163 -0.4761  0.2841  0.0512
10191TIP3    H152064   0.202   1.133  15.160  0.5101  0.9705  0.0648
10191TIP3    H252065   0.192   0.982  15.164 -1.3768  1.0413 -0.8390
10192TIP3   OH252066   5.019   6.218  16.537  0.7744 -0.3144  0.1635
10192TIP3    H152067   4.937   6.264  16.553  1.1379 -0.3437  2.4995
10192TIP3    H252068   5.068   6.275  16.478 -0.3970  0.3324 -0.2034
10193TIP3   OH252069   2.733   2.619   4.006  0.6161 -0.0447  0.4883
10193TIP3    H152070   2.820   2.584   3.989  0.8120 -0.1197  1.5801
10193TIP3    H252071   2.738   2.710   3.977  0.0193 -0.8745 -2.6192
10194TIP3   OH252072   6.426   2.840  16.031  0.3992 -0.3146 -0.3519
10194TIP3    H152073   6.428   2.847  15.936  1.1900 -0.2705 -0.3399
10194TIP3    H252074   6.398   2.750  16.048 -0.5189 -0.0856 -0.6087
10195TIP3   OH252075   6.220   2.591  14.406 -0.7738  0.4549 -0.6100
10195TIP3    H152076   6.233   2.686  14.410  0.0252  0.4075 -1.7416
10195TIP3    H252077   6.248   2.560  14.492 -0.5241  1.1891 -0.4142
10196TIP3   OH252078   2.634   5.879  14.900  0.1870 -0.2350  0.4771
10196TIP3    H152079   2.631   5.793  14.943 -2.1047 -0.2150  0.4649
10196TIP3    H252080   2.548   5.888  14.859  1.0265  1.3265 -1.0353
10197TIP3   OH252081   6.320   2.858  12.864 -0.1227 -0.3641  0.5382
10197TIP3    H152082   6.409   2.893  12.854 -0.4630  0.6271  0.8518
10197TIP3    H252083   6.305   2.858  12.958  0.3445 -2.6447  0.6579
10198TIP3   OH252084   1.963   4.388   0.444 -0.0538  0.6954 -0.0048
10198TIP3    H152085   1.881   4.337   0.445 -0.8875  1.9727 -0.5042
10198TIP3    H252086   2.008   4.362   0.525 -1.2873  0.4921  0.6477
10199TIP3   OH252087   1.252   3.243   4.636  1.1653  0.6150  0.2104
10199TIP3    H152088   1.187   3.313   4.643  1.3140  0.6756  0.9917
10199TIP3    H252089   1.336   3.286   4.651  1.2257  0.2068  1.0745
10200TIP3   OH252090   4.046   1.151   1.376  0.1900 -0.5404 -0.8734
10200TIP3    H152091   4.139   1.161   1.355  0.1379  2.6277 -0.1996
10200TIP3    H252092   4.045   1.123   1.467  0.5015 -0.4239 -0.8315
10201TIP3   OH252093   1.659   4.658  13.525 -0.1160 -0.1459  0.1605
10201TIP3    H152094   1.708   4.591  13.573 -0.0843 -0.8029 -0.7542
10201TIP3    H252095   1.667   4.737  13.579  0.4801 -0.6868  0.8886
10202TIP3   OH252096   2.236   5.510  16.500 -0.1328 -0.1084 -0.1872
10202TIP3    H152097   2.319   5.465  16.484  1.1726  2.1938 -0.2756
10202TIP3    H252098   2.218   5.495  16.593 -0.4240 -1.8435 -0.4924
10203TIP3   OH252099   2.469   0.372  13.084  0.0059  0.3573  0.0498
10203TIP3    H152100   2.552   0.370  13.036 -0.1154 -0.1975 -0.1392
10203TIP3    H252101   2.404   0.396  13.018 -0.1453 -0.3009 -0.0467
10204TIP3   OH252102   5.606   1.715   3.620  0.3594 -0.1211 -0.3444
10204TIP3    H152103   5.596   1.811   3.619  0.4149 -0.0862  0.6465
10204TIP3    H252104   5.641   1.697   3.707  2.2587 -0.8650 -1.2154
10205TIP3   OH252105   2.988   5.795   0.515  0.6984 -0.0226  0.6567
10205TIP3    H152106   2.940   5.731   0.462  2.2006 -0.6784  0.0140
10205TIP3    H252107   2.994   5.754   0.602  0.2693 -0.0079  0.6982
10206TIP3   OH252108   4.771   4.431   0.306  0.1090  0.2381  0.0513
10206TIP3    H152109   4.792   4.383   0.386 -1.7457  0.7991  0.9170
10206TIP3    H252110   4.681   4.405   0.285  0.2927  0.6942 -1.4260
10207TIP3   OH252111   3.767   0.149   2.802  0.1221  0.2883 -0.2118
10207TIP3    H152112   3.806   0.108   2.879  0.8918  0.2713 -0.6006
10207TIP3    H252113   3.840   0.158   2.741 -0.0514  2.0846 -0.1973
10208TIP3   OH252114   0.865   0.369   0.181  0.1086  0.0935  0.2943
10208TIP3    H152115   0.815   0.347   0.102  2.0727 -1.2648 -0.6284
10208TIP3    H252116   0.844   0.299   0.242  1.0374 -0.6203 -0.1849
10209TIP3   OH252117   2.345   4.332  13.564 -0.3785  0.3589 -0.0447
10209TIP3    H152118   2.421   4.384  13.538 -0.3604  0.4177  0.1212
10209TIP3    H252119   2.374   4.241  13.559 -1.3458  0.0955 -3.5520
10210TIP3   OH252120   6.807   5.526   5.050  0.1492  0.2412 -0.1630
10210TIP3    H152121   6.852   5.611   5.054 -1.8230  1.3543 -0.1666
10210TIP3    H252122   6.805   5.495   5.141  2.1082 -0.5433 -0.3379
10211TIP3   OH252123   4.253   6.117   3.345 -0.1050  0.7289  0.5263
10211TIP3    H152124   4.289   6.031   3.368  1.3936  0.3778 -2.6284
10211TIP3    H252125   4.328   6.177   3.354 -0.9260  1.6165  1.8644
10212TIP3   OH252126   4.271   0.952  12.143  0.2688 -0.0381  0.0558
10212TIP3    H152127   4.186   0.992  12.123  0.1630  0.6316  1.7376
10212TIP3    H252128   4.331   1.026  12.152  0.7277 -0.4322  0.2792
10213TIP3   OH252129   5.402   0.767   4.959 -0.6236 -0.0408  0.0120
10213TIP3    H152130   5.470   0.828   4.989 -1.4720  0.9220  0.0533
10213TIP3    H252131   5.422   0.685   5.003 -1.0002  0.9394  2.1352
10214TIP3   OH252132   5.927   1.541   5.598  0.6941 -0.2505  0.4726
10214TIP3    H152133   5.956   1.631   5.609 -0.8269  0.6107 -1.7965
10214TIP3    H252134   5.935   1.525   5.504  0.4826 -2.3404  0.7610
10215TIP3   OH252135   3.491   4.028   2.425  0.0420  0.1595 -0.7515
10215TIP3    H152136   3.560   3.981   2.472 -0.3133 -1.6486 -1.9337
10215TIP3    H252137   3.536   4.103   2.385  1.5350 -1.4009 -2.1245
10216TIP3   OH252138   5.414   0.841   1.242  0.2466 -0.4280  0.3928
10216TIP3    H152139   5.399   0.817   1.333 -0.3979  0.7992  0.6317
10216TIP3    H252140   5.328   0.830   1.201  0.4489 -0.6140  0.0124
10217TIP3   OH252141   6.000   5.725  10.551 -0.2263  0.3388  0.5129
10217TIP3    H152142   5.965   5.782  10.482 -1.0213 -0.0172  0.6116
10217TIP3    H252143   6.076   5.772  10.584 -0.2933  0.8805 -0.0759
10218TIP3   OH252144   5.000   1.807   4.216  0.4412  0.2227  0.0677
10218TIP3    H152145   4.915   1.773   4.245 -0.4393  1.8307 -0.4940
10218TIP3    H252146   5.062   1.773   4.281 -0.5369 -1.3450  0.2551
10219TIP3   OH252147   1.782   0.788  16.471  0.2694 -0.0463 -0.3181
10219TIP3    H152148   1.727   0.830  16.536 -2.1975 -1.1730 -1.5209
10219TIP3    H252149   1.777   0.694  16.492 -0.2452 -0.3908 -1.8338
10220TIP3   OH252150   5.773   6.676  11.073  0.6046  0.2548 -0.5642
10220TIP3    H152151   5.788   6.584  11.095 -1.6632 -0.1745 -0.5914
10220TIP3    H252152   5.709   6.674  11.002  0.9963  1.8552 -1.0112
10221TIP3   OH252153   4.150   4.655   3.391  0.3645  0.2698 -0.0615
10221TIP3    H152154   4.120   4.569   3.360  1.0198  0.5343 -1.5297
10221TIP3    H252155   4.238   4.638   3.425 -0.5924 -0.1409  2.4007
10222TIP3   OH252156   2.668   3.269   2.884  0.2085 -0.1486  0.5210
10222TIP3    H152157   2.692   3.279   2.792 -3.8407 -1.6012 -0.9456
10222TIP3    H252158   2.633   3.355   2.909 -2.3667 -0.6984 -0.7625
10223TIP3   OH252159   2.519   3.066   2.775 -0.2545  0.4839 -0.1436
10223TIP3    H152160   2.457   3.041   2.843 -0.7869  0.1779 -0.7437
10223TIP3    H252161   2.564   3.143   2.812 -1.3332  1.0242  0.0896
10224TIP3   OH252162   3.267   1.591  14.507  0.3747  0.1615  0.7827
10224TIP3    H152163   3.260   1.559  14.418 -1.9614  1.5745  0.3537
10224TIP3    H252164   3.286   1.513  14.560  1.9286 -0.6702 -0.9081
10225TIP3   OH252165   0.754   3.518  12.646 -0.2063  0.3137 -0.5482
10225TIP3    H152166   0.823   3.584  12.650  0.6366 -0.5861  2.1057
10225TIP3    H252167   0.787   3.452  12.586  0.8475  0.3287  0.0010
10226TIP3   OH252168   1.899   5.683  14.185 -0.0626 -0.2991  0.0763
10226TIP3    H152169   1.872   5.661  14.096  0.9725 -1.0061 -0.0784
10226TIP3    H252170   1.988   5.649  14.192 -0.5338 -1.3130  1.7601
10227TIP3   OH252171   2.454   3.053  13.470  0.3932 -0.0176  0.2355
10227TIP3    H152172   2.511   2.978  13.454  1.2287  0.1486  2.1038
10227TIP3    H252173   2.513   3.128  13.474 -0.3583  0.6669 -0.9640
10228TIP3   OH252174   1.822   1.829  15.180 -0.2726 -0.2576 -1.1418
10228TIP3    H152175   1.783   1.743  15.196  1.7647 -1.1953 -0.9862
10228TIP3    H252176   1.863   1.821  15.094 -0.0987  0.5842 -1.1440
10229TIP3   OH252177   2.904   2.911  14.832  0.3323 -0.5473 -0.4855
10229TIP3    H152178   2.820   2.945  14.799  0.1437  0.5163  0.9829
10229TIP3    H252179   2.948   2.876  14.755 -0.3267  1.3040 -1.7666
10230TIP3   OH252180   2.071   2.432   1.562  0.1503  0.5319  0.3678
10230TIP3    H152181   2.143   2.373   1.586  2.1221  2.2144 -1.0307
10230TIP3    H252182   2.008   2.376   1.517  2.1821 -0.5324 -1.3556
10231TIP3   OH252183   0.370   6.599  13.857  0.4019 -0.3306 -0.1672
10231TIP3    H152184   0.419   6.671  13.898 -0.6554 -0.5491  1.5775
10231TIP3    H252185   0.421   6.521  13.879  1.4069 -0.1860 -1.8362
10232TIP3   OH252186   4.322   5.680   3.857  0.3503  0.0439 -0.1110
10232TIP3    H152187   4.275   5.617   3.913 -0.9808 -2.4477 -3.6803
10232TIP3    H252188   4.411   5.644   3.850  0.0445 -0.5948 -0.8598
10233TIP3   OH252189   0.195   4.108   1.109  0.2418  0.7247 -0.5816
10233TIP3    H152190   0.176   4.015   1.094  0.7076  0.5826 -0.3206
10233TIP3    H252191   0.119   4.141   1.157  0.1687  0.4251 -0.4913
10234TIP3   OH252192   4.472   3.340  14.278  0.1575  0.6410  0.3989
10234TIP3    H152193   4.448   3.416  14.226  1.2042  1.4946  1.1179
10234TIP3    H252194   4.447   3.362  14.367  0.4453  0.1369  0.6131
10235TIP3   OH252195   0.360   3.189   6.489  0.5115  0.3167 -0.2585
10235TIP3    H152196   0.327   3.131   6.557  1.8017  0.3690  0.4270
10235TIP3    H252197   0.294   3.259   6.483  0.2256  0.1334  0.6862
10236TIP3   OH252198   6.460   4.537  14.957 -0.2020 -0.1461  0.4231
10236TIP3    H152199   6.512   4.515  14.880 -0.1342  1.1807  0.0666
10236TIP3    H252200   6.511   4.503  15.031  0.6696  0.2259  0.0061
10237TIP3   OH252201   1.681   2.319  11.855 -0.5299 -0.5477 -0.5897
10237TIP3    H152202   1.669   2.373  11.777  0.1341 -0.9275 -0.9665
10237TIP3    H252203   1.745   2.366  11.908  0.9022 -1.4726 -1.4355
10238TIP3   OH252204   4.378   6.793  13.603  0.5077 -0.3330 -0.2372
10238TIP3    H152205   4.364   6.841  13.521  1.2964 -2.6138 -1.8052
10238TIP3    H252206   4.373   6.860  13.671  0.5039  1.7646 -2.1846
10239TIP3   OH252207   4.623   4.108  11.664  0.8023  0.4376  0.4865
10239TIP3    H152208   4.637   4.029  11.716  0.2564 -0.0669 -0.1249
10239TIP3    H252209   4.540   4.093  11.618  0.4199  1.5770  0.7594
10240TIP3   OH252210   1.485   1.592   1.251 -0.0031 -0.0182 -0.8228
10240TIP3    H152211   1.422   1.548   1.193 -0.7005  1.0607 -0.9031
10240TIP3    H252212   1.437   1.666   1.287  0.0671 -1.1715  1.9446
10241TIP3   OH252213   4.114   2.199  15.824 -0.1293 -0.3357 -0.0775
10241TIP3    H152214   4.104   2.161  15.736  2.6179 -0.3474 -0.4601
10241TIP3    H252215   4.178   2.269  15.812  0.0941 -0.1645  1.8893
10242TIP3   OH252216   4.973   2.162  15.150  0.1646 -0.4259  0.3760
10242TIP3    H152217   4.986   2.222  15.076  0.8387 -0.4766  0.4393
10242TIP3    H252218   4.929   2.215  15.216 -0.3142 -0.3399 -0.0075
10243TIP3   OH252219   1.711   5.093  12.139 -0.4128 -0.3528  0.1224
10243TIP3    H152220   1.621   5.127  12.142 -0.3547  0.1933 -2.1475
10243TIP3    H252221   1.765   5.170  12.120  0.1400 -1.1067 -1.5678
10244TIP3   OH252222   0.994   0.623  12.653 -0.6663 -0.2803 -0.2785
10244TIP3    H152223   0.999   0.693  12.588  0.6315 -0.1015 -0.0137
10244TIP3    H252224   1.083   0.590  12.660 -0.9385 -0.8438  0.8236
10245TIP3   OH252225   0.618   5.137   6.305  0.0099  0.0706  0.3115
10245TIP3    H152226   0.589   5.046   6.309  1.4835 -0.6700 -2.6810
10245TIP3    H252227   0.676   5.148   6.381  0.5169 -1.7825  0.2249
10246TIP3   OH252228   4.226   0.895   2.072 -0.0370  0.0569 -0.2281
10246TIP3    H152229   4.276   0.876   1.993 -0.2079 -1.2924 -0.0385
10246TIP3    H252230   4.292   0.922   2.136  0.6357 -2.6435  0.3142
10247TIP3   OH252231   4.421   1.555  15.938 -0.0163 -0.3779 -0.4074
10247TIP3    H152232   4.356   1.583  15.874 -0.9407 -1.3118  0.1058
10247TIP3    H252233   4.378   1.567  16.023  1.1139  0.6433  0.0543
10248TIP3   OH252234   0.812   1.918  12.658 -0.3161 -0.6054 -0.3889
10248TIP3    H152235   0.737   1.967  12.692  0.5683  0.5294  0.0068
10248TIP3    H252236   0.796   1.828  12.685 -2.3872 -0.7457 -1.7957
10249TIP3   OH252237   6.820   2.779  11.388  0.0924 -0.1508  0.2313
10249TIP3    H152238   6.882   2.738  11.328  0.3371 -2.3869  1.8983
10249TIP3    H252239   6.813   2.718  11.461 -1.7309  1.5120  1.5518
10250TIP3   OH252240   0.728   2.555   5.324 -0.3660  0.2988 -0.0571
10250TIP3    H152241   0.641   2.524   5.296 -1.1934  2.0542  0.4013
10250TIP3    H252242   0.788   2.486   5.297 -1.7338 -0.3290 -1.6667
10251TIP3   OH252243   3.081   4.577   0.249 -0.1377  0.3573  0.2220
10251TIP3    H152244   3.114   4.488   0.247  0.8644  0.6501  1.7674
10251TIP3    H252245   3.106   4.614   0.164 -1.2492 -1.0209 -0.7494
10252TIP3   OH252246   0.707   5.470  11.474  0.8512 -0.2487 -0.3589
10252TIP3    H152247   0.615   5.452  11.493  0.9162 -0.1043  0.0928
10252TIP3    H252248   0.716   5.449  11.381  0.5827 -1.1778 -0.1927
10253TIP3   OH252249   2.160   3.575  16.236 -0.0783  0.3865 -0.2116
10253TIP3    H152250   2.134   3.511  16.302 -3.6577  0.0016 -1.7986
10253TIP3    H252251   2.165   3.658  16.283  1.0147 -0.4147  1.1559
10254TIP3   OH252252   5.438   1.332   1.775  0.4479 -0.1694 -0.1287
10254TIP3    H152253   5.442   1.280   1.856 -2.3236 -0.4568 -0.0999
10254TIP3    H252254   5.348   1.324   1.745  0.9936  1.2634 -2.4127
10255TIP3   OH252255   5.236   4.102  10.694  0.1257  0.3297 -0.5476
10255TIP3    H152256   5.196   4.183  10.727 -0.1116 -0.1507  0.3943
10255TIP3    H252257   5.211   4.036  10.758  0.8322 -0.3712 -0.9813
10256TIP3   OH252258   1.532   6.500  11.470  0.7597 -0.4956 -0.1825
10256TIP3    H152259   1.620   6.481  11.502  0.4036  0.0738  1.2269
10256TIP3    H252260   1.495   6.415  11.447  2.8466 -0.5245 -4.2330
10257TIP3   OH252261   5.652   4.374   3.907  0.1554 -0.0719  0.5111
10257TIP3    H152262   5.669   4.286   3.941  0.1227 -0.8612 -1.3989
10257TIP3    H252263   5.684   4.433   3.976 -1.4442 -1.5336  2.6060
10258TIP3   OH252264   5.042   5.553  14.069  0.2034 -0.2319  0.3024
10258TIP3    H152265   5.028   5.643  14.040 -2.3533 -0.9663 -1.0377
10258TIP3    H252266   5.019   5.555  14.162 -0.9831  0.3031  0.0212
10259TIP3   OH252267   6.345   5.109   4.132  0.5815  0.1080  0.1395
10259TIP3    H152268   6.426   5.060   4.121  1.6537  1.6299  0.9408
10259TIP3    H252269   6.310   5.119   4.044  0.3032 -2.0866 -0.0387
10260TIP3   OH252270   4.453   2.517   3.248 -0.0221 -0.3855 -0.4941
10260TIP3    H152271   4.499   2.510   3.332  0.3544 -4.2481 -0.8318
10260TIP3    H252272   4.523   2.526   3.183 -0.0007 -1.5516 -0.6536
10261TIP3   OH252273   2.784   2.755  10.632 -0.0371  0.0071  0.3191
10261TIP3    H152274   2.839   2.824  10.670 -0.3757  0.0501  0.7420
10261TIP3    H252275   2.846   2.692  10.597  0.2934 -0.0637  1.0101
10262TIP3   OH252276   0.561   3.987  15.030 -0.2621  0.2124  0.1063
10262TIP3    H152277   0.508   3.988  15.109 -1.1668 -0.0984 -0.4823
10262TIP3    H252278   0.523   4.054  14.974 -0.6236 -0.6334 -0.6900
10263TIP3   OH252279   6.245   6.569   6.333 -0.0955 -0.7032 -0.4582
10263TIP3    H152280   6.276   6.549   6.421 -0.1532  1.8776  0.2204
10263TIP3    H252281   6.252   6.664   6.326 -1.6150 -0.6823 -2.6733
10264TIP3   OH252282   5.654   3.854   3.723 -0.2472 -0.8831  0.0131
10264TIP3    H152283   5.610   3.770   3.734  0.6721 -1.3397  0.2774
10264TIP3    H252284   5.745   3.831   3.706 -0.2444  0.0133 -1.3486
10265TIP3   OH252285   0.398   1.558   3.246 -0.3468  0.9697  0.4421
10265TIP3    H152286   0.442   1.473   3.255 -0.9400  0.7145  1.0000
10265TIP3    H252287   0.410   1.582   3.154 -1.6992 -0.5715 -0.1759
10266TIP3   OH252288   2.865   3.414  11.584  0.5544 -0.6633 -0.3641
10266TIP3    H152289   2.935   3.474  11.611 -0.6263  0.2383  0.8313
10266TIP3    H252290   2.842   3.443  11.495 -0.6493  1.3548  0.5394
10267TIP3   OH252291   5.405   3.435   5.667  0.0241 -0.5470  0.8499
10267TIP3    H152292   5.420   3.353   5.621 -0.8536 -0.0879 -0.2886
10267TIP3    H252293   5.487   3.451   5.714  1.2087 -0.7331 -1.0414
10268TIP3   OH252294   3.991   1.968  14.463  0.3214  0.2103 -0.0072
10268TIP3    H152295   3.965   2.046  14.414 -2.0971 -0.2036  0.4920
10268TIP3    H252296   3.965   1.895  14.407  1.6047 -0.2607 -0.0065
10269TIP3   OH252297   2.382   6.218   5.342 -0.8326  0.0516  0.1733
10269TIP3    H152298   2.361   6.140   5.292  0.6998 -0.3615  0.1234
10269TIP3    H252299   2.468   6.200   5.380 -1.9546  0.2910  3.0758
10270TIP3   OH252300   4.214   0.394  11.082 -0.4129  0.5009 -0.1586
10270TIP3    H152301   4.263   0.466  11.122 -2.0330  0.8575  1.2873
10270TIP3    H252302   4.200   0.422  10.991  1.5969  0.5962 -0.4708
10271TIP3   OH252303   4.919   2.207  15.422  0.2111  0.0323 -0.5032
10271TIP3    H152304   5.010   2.182  15.405  0.5428  1.0724 -0.3397
10271TIP3    H252305   4.917   2.227  15.516 -0.6935 -1.9774 -0.0429
10272TIP3   OH252306   2.024   4.848  16.475 -0.1934 -0.0474 -0.3446
10272TIP3    H152307   1.933   4.877  16.474 -0.6012 -1.2595 -0.6247
10272TIP3    H252308   2.060   4.876  16.391 -0.3317  0.3470 -0.2732
10273TIP3   OH252309   1.526   4.835  16.642 -0.7485  0.0598 -0.4668
10273TIP3    H152310   1.516   4.740  16.644  0.6000 -0.0913  0.2934
10273TIP3    H252311   1.582   4.855  16.717  0.9581  1.1989 -1.9773
10274TIP3   OH252312   2.887   1.787  13.268 -0.1058  0.4877  0.2895
10274TIP3    H152313   2.940   1.725  13.217 -0.7208 -0.8152  1.1736
10274TIP3    H252314   2.946   1.816  13.337 -0.0118  0.3877  0.2528
10275TIP3   OH252315   3.749   5.940  12.509  0.1012 -0.2462 -0.2815
10275TIP3    H152316   3.714   5.892  12.584 -2.3286  1.1510 -0.4325
10275TIP3    H252317   3.727   6.032  12.526 -0.1603  0.1628 -2.4864
10276TIP3   OH252318   3.070   4.208   4.102 -0.3084 -0.2690  0.1417
10276TIP3    H152319   3.064   4.117   4.072 -1.1310 -0.1219 -0.1513
10276TIP3    H252320   3.164   4.225   4.106 -0.1541 -0.9258 -0.4227
10277TIP3   OH252321   2.478   4.474  15.525 -0.2218 -0.2603  0.6074
10277TIP3    H152322   2.543   4.537  15.557 -0.4366  0.0628  0.4180
10277TIP3    H252323   2.529   4.396  15.501  0.0451 -0.1644  0.8586
10278TIP3   OH252324   6.503   3.573   0.754  0.1796 -0.4203  0.1787
10278TIP3    H152325   6.522   3.607   0.842 -0.2252  0.1170  0.0611
10278TIP3    H252326   6.485   3.480   0.769 -0.6030 -0.1884  0.7787
10279TIP3   OH252327   1.282   0.139   5.169 -0.7435  0.3247  0.1610
10279TIP3    H152328   1.252   0.085   5.095  1.9894 -0.9192 -0.1434
10279TIP3    H252329   1.238   0.223   5.157 -1.5118 -0.3254 -2.0401
10280TIP3   OH252330   5.475   5.892   2.653  0.4031 -0.1398  0.4785
10280TIP3    H152331   5.445   5.982   2.643  0.1467  0.0160  2.2514
10280TIP3    H252332   5.448   5.868   2.742 -0.6776 -2.4037 -0.3743
10281TIP3   OH252333   3.337   0.256  10.925 -0.7834 -0.0361 -0.1085
10281TIP3    H152334   3.355   0.180  10.870 -3.1865  0.7432 -2.2048
10281TIP3    H252335   3.393   0.245  11.001 -0.3419 -3.3973 -0.7656
10282TIP3   OH252336   5.739   3.378   2.529 -0.4748 -0.3754 -0.6848
10282TIP3    H152337   5.687   3.436   2.473 -2.4941 -1.7594 -0.3602
10282TIP3    H252338   5.736   3.293   2.484 -0.9402 -1.1653  0.7978
10283TIP3   OH252339   3.165   2.663  14.264 -0.0284 -0.2992 -0.5512
10283TIP3    H152340   3.174   2.586  14.320  1.9472  0.1213 -0.2068
10283TIP3    H252341   3.220   2.643  14.188 -0.6013  0.2249 -1.1197
10284TIP3   OH252342   0.286   3.254   1.421 -0.0777 -0.2783 -0.2555
10284TIP3    H152343   0.203   3.221   1.456 -0.0509  0.7998  0.9344
10284TIP3    H252344   0.320   3.183   1.368 -1.2068 -1.1810  0.1798
10285TIP3   OH252345   3.844   2.196  16.914  0.1440 -0.5013  0.2654
10285TIP3    H152346   3.751   2.207  16.934  0.0380 -2.0060  0.8111
10285TIP3    H252347   3.886   2.274  16.950 -1.0387  0.9449 -1.3198
10286TIP3   OH252348   5.326   2.043  15.882  0.4156  0.0041  0.1625
10286TIP3    H152349   5.314   2.127  15.928  0.9322  0.2982 -0.2327
10286TIP3    H252350   5.237   2.015  15.861  0.0557 -0.7610  2.4323
10287TIP3   OH252351   5.142   1.929  15.073  0.7322 -0.0046 -0.4271
10287TIP3    H152352   5.073   1.994  15.090  0.3616 -0.1377 -1.3548
10287TIP3    H252353   5.137   1.869  15.147 -1.3753 -1.0319 -1.3063
10288TIP3   OH252354   1.376   2.502   2.912  0.1847 -0.3443 -0.0142
10288TIP3    H152355   1.450   2.442   2.905 -0.6187 -1.1660 -2.9212
10288TIP3    H252356   1.412   2.587   2.886  0.4069 -0.4714 -0.1312
10289TIP3   OH252357   4.883   4.241  12.246  0.3216  0.2746 -0.2637
10289TIP3    H152358   4.805   4.296  12.254 -0.4714 -0.8145 -0.3068
10289TIP3    H252359   4.920   4.240  12.334 -0.6377 -0.5005  0.1524
10290TIP3   OH252360   3.542   2.882  13.864  0.1717  0.1899 -0.1018
10290TIP3    H152361   3.524   2.975  13.854  0.3190  0.2277 -0.0185
10290TIP3    H252362   3.456   2.841  13.870  0.1094  0.3701  0.2979
10291TIP3   OH252363   5.196   4.844   3.941 -0.0564 -0.1774 -0.4321
10291TIP3    H152364   5.219   4.888   3.860 -0.0143  0.0394 -0.3045
10291TIP3    H252365   5.175   4.915   4.002  3.0646 -0.1006  0.7631
10292TIP3   OH252366   2.892   4.310  16.106 -0.2420  0.1684 -0.2084
10292TIP3    H152367   2.897   4.405  16.116 -0.4325  0.1674 -0.1016
10292TIP3    H252368   2.800   4.289  16.121 -0.4581  0.1017 -1.4916
10293TIP3   OH252369   4.503   4.151  12.719  0.4167  0.0808 -0.0061
10293TIP3    H152370   4.581   4.152  12.775  0.3835 -3.8363  0.3854
10293TIP3    H252371   4.525   4.090  12.649 -2.3147 -1.3173  0.2369
10294TIP3   OH252372   3.854   1.416   3.705  0.2148 -0.0122  0.5686
10294TIP3    H152373   3.774   1.375   3.736 -0.8279 -0.3393 -2.2707
10294TIP3    H252374   3.888   1.355   3.639  1.4587  1.2650 -0.0254
10295TIP3   OH252375   3.339   6.832  16.028 -0.3141 -0.1512 -0.9103
10295TIP3    H152376   3.276   6.761  16.039  0.3343 -0.5554  0.3248
10295TIP3    H252377   3.285   6.911  16.018 -1.0494 -0.7935 -2.4082
10296TIP3   OH252378   0.444   4.541  14.808  0.2797  0.2518 -0.0367
10296TIP3    H152379   0.461   4.629  14.842 -1.3127  1.7933 -2.8989
10296TIP3    H252380   0.469   4.545  14.716 -2.1558 -1.5271 -0.8777
10297TIP3   OH252381   2.954   6.325  14.910 -0.0270  0.1419  0.1292
10297TIP3    H152382   2.958   6.291  14.820 -0.0993 -1.1766  0.6067
10297TIP3    H252383   2.861   6.325  14.931  0.1129 -1.7199  0.9655
10298TIP3   OH252384   6.473   3.017   1.097  0.0588  0.0989 -0.1159
10298TIP3    H152385   6.494   2.926   1.120  0.1958 -0.2273 -1.4585
10298TIP3    H252386   6.390   3.034   1.142 -1.5171 -1.7007 -2.1478
10299TIP3   OH252387   0.123   4.220  17.029  0.0885 -0.7076  0.1717
10299TIP3    H152388   0.111   4.312  17.004  1.2920 -0.3612  0.8036
10299TIP3    H252389   0.079   4.213  17.114  0.4806 -0.5749  0.3853
10300TIP3   OH252390   5.269   0.066   2.502 -0.4302  0.2151  0.3722
10300TIP3    H152391   5.227   0.048   2.586  0.8247  0.5386  1.1045
10300TIP3    H252392   5.228   0.147   2.472  0.8523  1.5490  1.9669
10301TIP3   OH252393   6.070   0.932   2.311 -0.1377  0.6778 -0.1831
10301TIP3    H152394   5.997   0.916   2.252  0.1078  2.1164 -0.9054
10301TIP3    H252395   6.037   0.994   2.375 -0.2953 -0.6112  1.0443
10302TIP3   OH252396   6.093   2.262   3.547  0.3446 -0.1948 -0.4806
10302TIP3    H152397   6.037   2.187   3.567 -1.6280  0.8451 -1.7185
10302TIP3    H252398   6.056   2.298   3.466  3.1981  0.2466 -1.6989
10303TIP3   OH252399   2.506   2.764  10.602  0.1550 -0.3303  0.1822
10303TIP3    H152400   2.490   2.763  10.507 -0.8183 -0.8635  0.3410
10303TIP3    H252401   2.601   2.773  10.610  0.1403  1.1349 -0.8377
10304TIP3   OH252402   0.423   1.938  12.268  0.3345  0.1806  0.2491
10304TIP3    H152403   0.345   1.921  12.321 -0.0536  1.4644  0.1296
10304TIP3    H252404   0.487   1.974  12.330  0.5947 -0.2047  0.2111
10305TIP3   OH252405   3.150   4.399  15.808  0.0940 -0.6549 -0.5177
10305TIP3    H152406   3.167   4.322  15.862 -1.5495 -1.1597 -0.6690
10305TIP3    H252407   3.177   4.473  15.863  4.0367 -1.3138 -1.2578
10306TIP3   OH252408   6.597   3.435   3.854 -0.0724 -0.1066  0.1618
10306TIP3    H152409   6.583   3.340   3.847  1.7598 -0.3254 -1.1788
10306TIP3    H252410   6.526   3.473   3.803  0.1595 -0.8432 -0.7391
10307TIP3   OH252411   6.546   3.055   4.936 -0.0135  0.1566  0.0553
10307TIP3    H152412   6.493   3.134   4.950 -2.1124 -1.1902  0.1624
10307TIP3    H252413   6.571   3.027   5.024 -0.0562  0.1904  0.0780
10308TIP3   OH252414   2.144   4.576   3.146  0.0035  0.2880  0.3321
10308TIP3    H152415   2.095   4.582   3.228  0.6057  1.3425  0.6230
10308TIP3    H252416   2.210   4.645   3.151 -0.9771  1.4813 -1.7338
10309TIP3   OH252417   2.300   2.302   3.266 -0.1779 -0.2020  0.2910
10309TIP3    H152418   2.377   2.358   3.262 -0.8234  0.6365 -1.9865
10309TIP3    H252419   2.228   2.359   3.239 -0.5096 -2.5679 -5.0405
10310TIP3   OH252420   5.554   1.158   0.377 -0.4196 -0.3143  0.5260
10310TIP3    H152421   5.573   1.069   0.407  0.7309  0.6297  2.8812
10310TIP3    H252422   5.471   1.151   0.331  0.4827 -2.8817 -0.8914
10311TIP3   OH252423   1.102   5.000   5.276  0.4323 -0.4233 -0.4882
10311TIP3    H152424   1.084   5.091   5.250 -0.9406 -0.2356  0.9694
10311TIP3    H252425   1.186   5.005   5.323 -0.7164  0.5521  1.5949
10312TIP3   OH252426   0.385   0.977   4.863  0.5907  0.3310 -0.4155
10312TIP3    H152427   0.420   0.919   4.930 -0.4239  0.4814  0.2744
10312TIP3    H252428   0.458   1.034   4.841  0.4697  1.6015  2.0383
10313TIP3   OH252429   5.385   4.232  16.858 -0.1553 -0.4369  0.0967
10313TIP3    H152430   5.378   4.269  16.770 -0.5110 -2.7372 -0.9035
10313TIP3    H252431   5.447   4.290  16.903  1.4354 -0.1839 -2.2366
10314TIP3   OH252432   3.199   1.790   0.591  0.0246  0.4440 -0.2255
10314TIP3    H152433   3.174   1.877   0.559 -4.4104 -0.5503 -0.0648
10314TIP3    H252434   3.175   1.790   0.684 -1.2571 -1.2714 -0.5028
10315TIP3   OH252435   2.165   1.284   3.388  0.6956  0.3814  0.1364
10315TIP3    H152436   2.154   1.199   3.344 -0.4992 -0.1868  1.4354
10315TIP3    H252437   2.164   1.262   3.481 -0.4351  1.8865  0.5222
10316TIP3   OH252438   5.242   0.670   2.707  0.0890  0.2358 -0.4874
10316TIP3    H152439   5.220   0.745   2.650  3.0948  0.6030 -1.3292
10316TIP3    H252440   5.299   0.707   2.774  2.6360 -1.4073 -1.6207
10317TIP3   OH252441   5.599   2.253   1.849  0.3632  0.4272 -0.2188
10317TIP3    H152442   5.595   2.303   1.768 -0.0554 -0.0129 -0.4755
10317TIP3    H252443   5.537   2.181   1.836 -0.9090  1.2238  1.0707
10318TIP3   OH252444   1.788   1.122   0.131 -0.1296  0.0067 -0.2952
10318TIP3    H152445   1.797   1.118   0.226  2.0952  1.3071 -0.3927
10318TIP3    H252446   1.707   1.172   0.117  0.0327  0.6459  0.9356
10319TIP3   OH252447   4.480   1.919  14.439  0.4174 -0.4438 -0.0503
10319TIP3    H152448   4.530   1.865  14.377  1.1566 -0.0237  0.1617
10319TIP3    H252449   4.424   1.974  14.384  0.3522 -0.7606 -0.3041
10320TIP3   OH252450   6.419   1.086  11.982  0.0067  0.1381 -0.1712
10320TIP3    H152451   6.403   0.995  11.959  1.5396 -0.6799  1.7141
10320TIP3    H252452   6.395   1.092  12.074 -1.9073  2.1830 -0.7118
10321TIP3   OH252453   3.095   3.188  12.260 -0.1121 -0.3792 -0.1350
10321TIP3    H152454   3.067   3.205  12.170 -2.4158  0.0421  0.6051
10321TIP3    H252455   3.069   3.266  12.308  0.9150 -0.6831  0.9596
10322TIP3   OH252456   3.780   5.142   5.908 -0.5385  0.0788 -0.0597
10322TIP3    H152457   3.828   5.153   5.990 -1.5739  0.1207  0.5608
10322TIP3    H252458   3.807   5.056   5.876 -1.0917 -0.5134  1.0092
10323TIP3   OH252459   1.068   3.710  16.971 -0.2300 -0.5347 -0.3828
10323TIP3    H152460   1.157   3.682  16.989  0.4865  0.8892 -1.4756
10323TIP3    H252461   1.078   3.786  16.913 -2.0057  1.6508  1.9201
10324TIP3   OH252462   5.589   4.298   1.593 -0.3474  0.2021 -0.6190
10324TIP3    H152463   5.537   4.371   1.627 -0.8518 -0.7590  0.7702
10324TIP3    H252464   5.525   4.239   1.553 -0.3360 -0.8577  0.8532
10325TIP3   OH252465   6.075   2.043   5.846  0.4478 -0.2990  0.6039
10325TIP3    H152466   6.169   2.057   5.858  0.9318  0.2931 -2.9894
10325TIP3    H252467   6.045   2.121   5.800 -1.3824 -1.3863 -0.1489
10326TIP3   OH252468   1.199   1.752   5.380 -0.2996  0.0041 -0.1111
10326TIP3    H152469   1.264   1.697   5.424  0.0626  2.2432  2.3922
10326TIP3    H252470   1.248   1.827   5.347 -1.4338  1.5447  1.4778
10327TIP3   OH252471   0.362   3.879  10.665  0.3929  0.2547  0.0455
10327TIP3    H152472   0.434   3.942  10.659 -0.0127  0.7522  0.3750
10327TIP3    H252473   0.312   3.907  10.741  1.1570 -1.4576  1.2461
10328TIP3   OH252474   4.019   0.155   1.663 -0.1164 -0.0114  0.2769
10328TIP3    H152475   4.039   0.213   1.736  1.5201  0.4276 -0.4507
10328TIP3    H252476   4.025   0.211   1.586 -2.2136 -0.3742 -0.1957
10329TIP3   OH252477   4.291   5.350   4.386 -0.3511 -0.1827  0.0389
10329TIP3    H152478   4.357   5.297   4.431 -1.7477 -2.1049 -0.0725
10329TIP3    H252479   4.313   5.440   4.410  1.4314 -0.8575  1.1603
10330TIP3   OH252480   4.265   6.234   2.604  0.1902 -0.6418  0.0376
10330TIP3    H152481   4.346   6.212   2.558 -0.2713 -0.9389 -0.6489
10330TIP3    H252482   4.267   6.180   2.683 -0.3153 -2.2486 -0.9954
10331TIP3   OH252483   1.349   2.885   3.393  0.1387 -0.2096 -0.0479
10331TIP3    H152484   1.334   2.853   3.482  0.8832  1.0798  0.5629
10331TIP3    H252485   1.346   2.806   3.339  2.5022 -1.4768  1.4630
10332TIP3   OH252486   3.244   0.465   5.348 -0.0639 -0.0273  0.0158
10332TIP3    H152487   3.318   0.509   5.392  1.2647 -1.3474 -0.7990
10332TIP3    H252488   3.256   0.372   5.368 -3.2428 -0.0922  2.3443
10333TIP3   OH252489   2.115   1.955  16.148  0.0518  0.2181 -0.3137
10333TIP3    H152490   2.064   1.908  16.083  0.7075  0.2118 -0.8383
10333TIP3    H252491   2.073   1.935  16.231 -1.8079  1.5771 -0.8776
10334TIP3   OH252492   5.980   5.248  13.715 -0.6313 -0.2586  0.4093
10334TIP3    H152493   6.036   5.235  13.791  1.4273 -0.3799 -1.0406
10334TIP3    H252494   5.910   5.305  13.745  0.1461 -0.2699  2.3553
10335TIP3   OH252495   4.777   3.524   3.473  0.3531 -0.0042 -0.6298
10335TIP3    H152496   4.694   3.508   3.429 -0.8455  0.1996  1.4242
10335TIP3    H252497   4.798   3.615   3.452 -0.7785  0.4417  0.0880
10336TIP3   OH252498   0.644   3.652   2.098 -0.2745  0.5362 -0.1686
10336TIP3    H152499   0.611   3.742   2.101  1.7069  1.3355 -0.5796
10336TIP3    H252500   0.722   3.653   2.153  0.8941 -0.4107 -1.7062
10337TIP3   OH252501   6.743   1.989   0.173  0.2162 -0.3496  0.3087
10337TIP3    H152502   6.813   2.037   0.129  0.9004 -0.6558  1.0363
10337TIP3    H252503   6.663   2.035   0.149  0.5815 -0.3942 -1.0843
10338TIP3   OH252504   3.221   4.397  12.984  0.1371 -0.5936  0.2826
10338TIP3    H152505   3.239   4.465  12.919 -0.2302  0.4734  1.2580
10338TIP3    H252506   3.166   4.440  13.050  1.7300 -1.1747  2.0952
10339TIP3   OH252507   4.605   3.128   1.903  0.4979 -0.3706 -0.1878
10339TIP3    H152508   4.565   3.054   1.949 -0.6253 -0.1799 -0.8218
10339TIP3    H252509   4.620   3.096   1.814  0.6560 -0.0519 -0.2793
10340TIP3   OH252510   6.272   0.779   2.221  0.8350  0.1603  0.5598
10340TIP3    H152511   6.192   0.822   2.251  1.0402 -0.3018  1.8700
10340TIP3    H252512   6.260   0.687   2.246  0.9915 -0.2880 -0.9412
10341TIP3   OH252513   1.298   4.889  16.366  0.4303 -0.5308 -0.1199
10341TIP3    H152514   1.385   4.876  16.329  0.5305 -1.7668  0.4852
10341TIP3    H252515   1.298   4.979  16.400  1.0814 -0.1506 -1.0989
10342TIP3   OH252516   2.505   2.822  11.617 -0.3515  0.1049 -0.6380
10342TIP3    H152517   2.487   2.728  11.623  1.6663 -0.2409  1.4000
10342TIP3    H252518   2.428   2.864  11.655 -0.5701 -0.8218 -0.0160
10343TIP3   OH252519   1.004   6.166   5.020 -0.3390  0.2460  0.1649
10343TIP3    H152520   1.092   6.150   5.054 -0.5402 -1.2027  0.0646
10343TIP3    H252521   0.961   6.080   5.022 -1.5852  0.8290 -0.2684
10344TIP3   OH252522   6.392   6.126   2.600 -0.0167  0.6166 -0.1912
10344TIP3    H152523   6.395   6.041   2.645 -1.0742  0.9463  0.5421
10344TIP3    H252524   6.311   6.122   2.549  0.3503  0.8779 -0.8045
10345TIP3   OH252525   0.303   0.715  15.263  0.8047  0.1134  0.4083
10345TIP3    H152526   0.231   0.778  15.255  1.1915  0.4958 -0.1287
10345TIP3    H252527   0.342   0.733  15.348  0.4264  0.0787  0.5893
10346TIP3   OH252528   6.310   0.209   1.104 -0.1711  0.9485  0.4301
10346TIP3    H152529   6.383   0.214   1.166  0.2004  0.7940  0.0135
10346TIP3    H252530   6.274   0.297   1.101 -0.5453  0.8344  1.2814
10347TIP3   OH252531   1.742   1.102   1.719  0.4649 -0.7202  0.4418
10347TIP3    H152532   1.667   1.065   1.766 -0.4011 -0.2548 -0.5428
10347TIP3    H252533   1.703   1.148   1.645  1.5788  1.2085  0.9928
10348TIP3   OH252534   4.939   0.153   4.604  0.1222 -0.3122 -0.3024
10348TIP3    H152535   4.987   0.080   4.565 -1.3690 -0.6541 -1.5988
10348TIP3    H252536   4.900   0.117   4.683  2.5416  0.1798  1.2265
10349TIP3   OH252537   1.249   5.774   6.259 -0.1730 -0.1424  0.2930
10349TIP3    H152538   1.186   5.724   6.311 -1.3569 -0.7562 -1.6249
10349TIP3    H252539   1.328   5.721   6.260 -0.6159 -0.8169  0.3487
10350TIP3   OH252540   3.203   2.809   1.413 -0.2725 -0.2449 -0.0057
10350TIP3    H152541   3.233   2.896   1.439 -1.5900  0.0740  0.5178
10350TIP3    H252542   3.132   2.826   1.352 -0.3491 -0.9654 -0.1224
10351TIP3   OH252543   2.701   3.644  14.160  0.2384 -0.2781  0.0407
10351TIP3    H152544   2.785   3.633  14.204 -0.5650  0.4074  1.8531
10351TIP3    H252545   2.684   3.559  14.120  1.8223 -0.4013 -0.4524
10352TIP3   OH252546   4.736   2.461  17.107  0.0184  0.1280 -0.3831
10352TIP3    H152547   4.683   2.382  17.107  1.8238 -1.1333 -0.1761
10352TIP3    H252548   4.807   2.443  17.045  0.7643  1.3679  0.0725
10353TIP3   OH252549   0.659   4.127   1.171 -0.4196 -0.4269 -0.4066
10353TIP3    H152550   0.616   4.132   1.257 -1.5503  0.9432 -0.9954
10353TIP3    H252551   0.670   4.034   1.154  1.1454 -0.7191  1.8290
10354TIP3   OH252552   1.984   2.218  13.882  0.1918 -0.4939 -0.2740
10354TIP3    H152553   1.913   2.158  13.858 -0.5332 -0.4776  1.6184
10354TIP3    H252554   2.019   2.182  13.964  0.2339  1.2346  0.5133
10355TIP3   OH252555   3.727   4.830   4.238 -0.2240 -0.2077 -0.2148
10355TIP3    H152556   3.641   4.788   4.236 -0.7397  0.7970  0.2680
10355TIP3    H252557   3.725   4.892   4.165  0.1345 -0.2600 -0.2683
10356TIP3   OH252558   0.064   5.308   2.940 -0.5307 -0.6816  0.4640
10356TIP3    H152559   0.145   5.304   2.888 -1.2882 -0.2710 -0.7710
10356TIP3    H252560  -0.006   5.294   2.877 -1.6772  2.5271  0.8480
10357TIP3   OH252561   5.177   1.847   2.164  0.0728  0.3416  0.1885
10357TIP3    H152562   5.258   1.864   2.115  0.0567  0.4977  0.2152
10357TIP3    H252563   5.181   1.908   2.238  0.5469 -0.5424  0.9080
10358TIP3   OH252564   6.349   0.058   4.703  0.4210  0.3749  0.1257
10358TIP3    H152565   6.429   0.035   4.750  1.1898  0.7800 -0.9457
10358TIP3    H252566   6.353   0.007   4.622 -0.5832  0.1391  0.2096
10359TIP3   OH252567   3.131   5.832  13.850  0.1202  0.1767 -0.0882
10359TIP3    H152568   3.044   5.818  13.887  0.0939 -0.4270 -0.3818
10359TIP3    H252569   3.125   5.800  13.760  0.8024 -0.3863  0.0646
10360TIP3   OH252570   1.204   3.590  11.381  0.0997 -0.0183  0.6507
10360TIP3    H152571   1.122   3.638  11.387 -0.2142  0.1184 -2.7527
10360TIP3    H252572   1.179   3.498  11.381 -0.1091  0.0259 -0.5155
10361TIP3   OH252573   1.914   3.865  11.824 -0.2770  0.5207 -0.3323
10361TIP3    H152574   1.892   3.892  11.735 -0.5226 -1.2103 -0.8204
10361TIP3    H252575   1.831   3.862  11.870 -0.2674  0.4295 -0.3216
10362TIP3   OH252576   4.330   3.763   1.227  0.1915  0.2438 -0.3043
10362TIP3    H152577   4.373   3.681   1.202 -0.7628 -0.4333  0.1974
10362TIP3    H252578   4.256   3.736   1.281  0.1616  1.4757  0.3113
10363TIP3   OH252579   3.899   5.312  16.210  0.3088  0.1970 -0.0632
10363TIP3    H152580   3.806   5.318  16.187  0.5019 -0.1332 -0.9656
10363TIP3    H252581   3.915   5.388  16.266  0.1795  2.0409 -2.3425
10364TIP3   OH252582   5.596   0.035  14.441 -0.6701 -0.1284  0.7760
10364TIP3    H152583   5.585  -0.024  14.366 -1.4608  0.2916  0.5495
10364TIP3    H252584   5.656  -0.012  14.499  0.4747 -0.1898 -0.3932
10365TIP3   OH252585   2.313   4.440  16.787 -0.6930  0.1920 -0.7742
10365TIP3    H152586   2.387   4.388  16.820  0.7092  1.7136 -1.3481
10365TIP3    H252587   2.292   4.499  16.859 -1.1863 -0.0528 -0.7127
10366TIP3   OH252588   6.247   6.619  15.510  0.0576  0.0860 -0.4880
10366TIP3    H152589   6.210   6.565  15.439  0.1664  1.4625 -1.6422
10366TIP3    H252590   6.272   6.700  15.467  0.6559  0.7524  1.0593
10367TIP3   OH252591   0.315   6.264   0.912  0.0542 -0.1533 -0.0095
10367TIP3    H152592   0.404   6.228   0.910  0.3006  0.2713  1.6992
10367TIP3    H252593   0.323   6.345   0.964 -1.3270 -0.1053  0.1755
10368TIP3   OH252594   2.228   6.472   1.105  0.0647  0.2490  1.0612
10368TIP3    H152595   2.310   6.480   1.057 -0.7091  0.8585 -0.2404
10368TIP3    H252596   2.219   6.555   1.151 -0.1518  0.4770  0.6193
10369TIP3   OH252597   1.839   5.379   1.695 -0.5962  0.5909  0.8777
10369TIP3    H152598   1.907   5.394   1.760  2.4471 -1.0344 -1.6909
10369TIP3    H252599   1.820   5.467   1.660  2.4320  0.8742 -0.3353
10370TIP3   OH252600   4.338   6.043   0.670  0.0314 -0.2714 -0.0757
10370TIP3    H152601   4.426   6.058   0.636  0.1688 -0.9707 -0.0529
10370TIP3    H252602   4.282   6.036   0.592  0.0515 -0.1561 -0.1001
10371TIP3   OH252603   0.702   1.909   4.214 -0.7233  1.0740 -0.8805
10371TIP3    H152604   0.667   1.973   4.275 -3.0576 -1.9737  1.3286
10371TIP3    H252605   0.795   1.904   4.235 -0.6610  2.9939 -0.4916
10372TIP3   OH252606   3.138   2.388   2.134  0.8482 -0.1008  0.4203
10372TIP3    H152607   3.050   2.396   2.096  1.3411  0.1685 -0.7199
10372TIP3    H252608   3.125   2.401   2.228 -0.3931 -0.5398  0.3293
10373TIP3   OH252609   2.183   2.319  13.542 -0.0819 -0.1220  0.2533
10373TIP3    H152610   2.249   2.319  13.611 -0.8100  1.4276  1.0014
10373TIP3    H252611   2.234   2.320  13.461  0.7865 -0.9420  0.7639
10374TIP3   OH252612   0.274   1.942  10.860  0.1987  0.3380  0.1205
10374TIP3    H152613   0.244   2.017  10.809 -0.7254  0.7839  1.2747
10374TIP3    H252614   0.207   1.875  10.846 -0.0651  0.4667  0.7359
10375TIP3   OH252615   1.105   3.124   0.435  0.0705  0.3463  0.1688
10375TIP3    H152616   1.136   3.093   0.349 -2.9278 -2.2046 -0.1615
10375TIP3    H252617   1.053   3.201   0.415 -0.2814  0.0006 -0.2645
10376TIP3   OH252618   0.409   5.664   0.023  0.4679 -0.3980 -0.2352
10376TIP3    H152619   0.421   5.737   0.084 -0.8798  0.1078 -0.5339
10376TIP3    H252620   0.497   5.643  -0.008  0.9890  0.4062  0.6556
10377TIP3   OH252621   3.804   4.221   0.038 -0.5128 -0.4258 -0.2683
10377TIP3    H152622   3.810   4.308  -0.002 -0.0778  0.0481  0.7626
10377TIP3    H252623   3.824   4.237   0.131  0.7503 -1.8017 -0.2725
10378TIP3   OH252624   2.205   3.540   3.331  0.2450  0.9556 -0.0444
10378TIP3    H152625   2.253   3.612   3.372 -0.6051  0.9396  1.0097
10378TIP3    H252626   2.198   3.565   3.239 -0.4997  2.5043  0.4061
10379TIP3   OH252627   4.037   3.522   0.911  0.0350 -0.1983 -0.5452
10379TIP3    H152628   4.132   3.513   0.914  0.1661  1.1127 -0.4333
10379TIP3    H252629   4.008   3.450   0.854  0.8297 -2.1759  1.3899
10380TIP3   OH252630   1.398   0.614  14.804 -0.0323 -0.1924  0.2170
10380TIP3    H152631   1.463   0.630  14.735  0.0896 -0.7137  0.2084
10380TIP3    H252632   1.362   0.527  14.783 -1.3683  0.4422 -0.2960
10381TIP3   OH252633   6.778   1.291  12.810  0.0754 -0.5472  0.0152
10381TIP3    H152634   6.869   1.295  12.840  0.2174  1.8696 -0.5363
10381TIP3    H252635   6.781   1.235  12.733  0.7413 -1.9268  0.9864
10382TIP3   OH252636   0.462   3.563  10.342  0.3027  0.5995  0.0157
10382TIP3    H152637   0.398   3.496  10.318 -1.0323  1.3079  1.3700
10382TIP3    H252638   0.523   3.518  10.400 -0.3602  0.4372  0.6094
10383TIP3   OH252639   6.471   3.204  11.197 -0.2738 -0.5503 -0.1085
10383TIP3    H152640   6.433   3.170  11.279 -1.6446  0.7601 -0.1490
10383TIP3    H252641   6.565   3.200  11.211 -0.3994 -2.6548  0.5559
10384TIP3   OH252642   6.144   6.084  14.152  0.7183  0.3137 -0.5779
10384TIP3    H152643   6.117   6.077  14.243  0.7086 -1.5669 -0.6761
10384TIP3    H252644   6.210   6.153  14.151  0.0420  0.9962  0.6752
10385TIP3   OH252645   1.774   0.780   3.858 -0.5401 -0.3170 -0.4736
10385TIP3    H152646   1.738   0.862   3.824 -0.7662 -0.6432 -1.0459
10385TIP3    H252647   1.733   0.768   3.943 -0.1079  0.4314 -0.1557
10386TIP3   OH252648   0.701   0.129   1.939  0.1872  0.8866 -0.2330
10386TIP3    H152649   0.760   0.173   1.999  0.9561  0.2694 -0.5154
10386TIP3    H252650   0.614   0.163   1.960  0.1885 -0.4630  2.3286
10387TIP3   OH252651   4.147   1.194   3.140  0.5587  0.3637 -0.1213
10387TIP3    H152652   4.203   1.264   3.106 -0.3603  0.7149 -0.9727
10387TIP3    H252653   4.093   1.236   3.207  0.4272  0.3327 -0.2067
10388TIP3   OH252654   4.327   3.002   2.283  0.8494 -0.5873 -0.8271
10388TIP3    H152655   4.263   2.955   2.230 -0.3010 -0.7929  0.6784
10388TIP3    H252656   4.326   3.091   2.249 -0.9699 -0.3461 -0.2333
10389TIP3   OH252657   3.820   0.303   0.037  0.1643 -0.9450  0.3252
10389TIP3    H152658   3.787   0.220   0.005  2.4629 -2.6827  2.1060
10389TIP3    H252659   3.905   0.313  -0.005  0.0617  0.3603  0.3786
10390TIP3   OH252660   5.314   3.038  15.389 -0.6001 -0.4790 -0.1477
10390TIP3    H152661   5.367   3.037  15.309 -1.5300 -1.2693 -0.7683
10390TIP3    H252662   5.377   3.020  15.459 -0.3312 -3.6563 -1.0702
10391TIP3   OH252663   4.716   6.546   6.431 -0.3592 -0.4498  0.0341
10391TIP3    H152664   4.719   6.476   6.496 -1.5229 -0.8430 -0.3122
10391TIP3    H252665   4.806   6.552   6.398  0.1016 -0.6810  1.2089
10392TIP3   OH252666   4.915   1.316   1.944  0.4259  0.3731  0.1205
10392TIP3    H152667   4.885   1.227   1.965 -0.3182 -0.0561 -2.4370
10392TIP3    H252668   5.003   1.320   1.980  1.0969 -2.0187 -1.0330
10393TIP3   OH252669   5.054   2.699  11.803 -0.2242  0.2523  0.4309
10393TIP3    H152670   5.080   2.708  11.711 -0.4321  2.1538  0.5147
10393TIP3    H252671   4.961   2.676  11.800 -0.9329  2.8470  0.1007
10394TIP3   OH252672   1.669   1.154  16.659  0.6143 -0.0809 -0.1545
10394TIP3    H152673   1.716   1.235  16.640  1.0090 -0.5087 -1.0752
10394TIP3    H252674   1.588   1.161  16.609  0.6921 -0.2921 -0.3120
10395TIP3   OH252675   4.058   0.289  15.095  0.2765  1.2030  0.3076
10395TIP3    H152676   4.012   0.342  15.029 -0.8708 -1.9557 -1.6348
10395TIP3    H252677   4.150   0.292  15.068 -0.1335  0.2290 -1.3503
10396TIP3   OH252678   1.718   1.461  15.706  0.2575 -0.8960  0.0360
10396TIP3    H152679   1.664   1.524  15.657  0.2379 -0.2491  0.8621
10396TIP3    H252680   1.799   1.510  15.725 -0.3130 -0.6216  1.8960
10397TIP3   OH252681   1.934   1.510  14.220 -0.0269 -0.4113 -0.5624
10397TIP3    H152682   1.849   1.492  14.179 -0.2128 -0.5827 -0.1094
10397TIP3    H252683   1.937   1.451  14.295  1.0421 -1.3321 -1.2957
10398TIP3   OH252684   5.295   5.523   1.235 -0.1289 -0.1066  0.1257
10398TIP3    H152685   5.249   5.492   1.157  0.2076  0.4748 -0.3138
10398TIP3    H252686   5.280   5.455   1.301  0.7100 -1.2572 -0.8501
10399TIP3   OH252687   4.164   0.538   4.705  0.6969  0.7490 -0.1799
10399TIP3    H152688   4.151   0.590   4.626  0.7580  0.7315 -0.2019
10399TIP3    H252689   4.238   0.480   4.684  0.6004  0.6216 -0.1725
10400TIP3   OH252690   3.083   6.760  15.629 -0.5065 -0.1811 -0.1955
10400TIP3    H152691   3.020   6.732  15.563 -1.6852 -1.4335  1.4108
10400TIP3    H252692   3.044   6.839  15.667  0.2100  0.5852 -1.0061
10401TIP3   OH252693   6.803   1.011  13.832 -0.5101 -0.5384 -0.9209
10401TIP3    H152694   6.853   0.984  13.909  0.4374  2.6183 -0.2764
10401TIP3    H252695   6.713   0.987  13.852 -0.2367 -0.0836  1.0994
10402TIP3   OH252696   2.574   0.484  12.445 -0.6964 -0.3507 -0.1034
10402TIP3    H152697   2.605   0.573  12.461  0.2517 -0.9228  1.5088
10402TIP3    H252698   2.573   0.475  12.350 -0.5021  1.2658 -0.2841
10403TIP3   OH252699   1.559   3.809   0.475 -0.1145  0.1413 -0.3474
10403TIP3    H152700   1.575   3.897   0.509 -1.9772  0.0700  0.8455
10403TIP3    H252701   1.583   3.751   0.547  0.4799 -0.3246 -0.9006
10404TIP3   OH252702   4.330   6.621  12.835 -0.2872  0.5154 -0.4614
10404TIP3    H152703   4.408   6.593  12.787 -0.7938  1.9346 -2.2325
10404TIP3    H252704   4.293   6.540  12.870  0.8319 -0.4265 -1.3838
10405TIP3   OH252705   1.151   1.471  15.780 -0.2185  0.2325 -0.4302
10405TIP3    H152706   1.057   1.481  15.795 -0.3491 -1.3888  0.0496
10405TIP3    H252707   1.187   1.559  15.790 -1.5751  0.7356  0.2089
10406TIP3   OH252708   5.063   3.354  13.193 -0.3742  0.2800 -0.0288
10406TIP3    H152709   4.983   3.364  13.141 -1.6335 -0.4596  1.6784
10406TIP3    H252710   5.073   3.259  13.203  1.7108  0.2506 -1.6115
10407TIP3   OH252711   1.159   1.780   2.813  0.2905 -0.3343  0.1683
10407TIP3    H152712   1.068   1.781   2.784  0.8503 -0.1200 -1.6726
10407TIP3    H252713   1.154   1.789   2.909 -1.5957 -0.1114  0.0772
10408TIP3   OH252714   1.032   2.331  11.996 -0.1411 -0.0876  0.2821
10408TIP3    H152715   1.041   2.296  12.084 -1.1865 -0.7260  0.1566
10408TIP3    H252716   0.959   2.393  12.002  0.4795  0.6773  0.0887
10409TIP3   OH252717   1.574   1.506   6.109  0.1726  0.1132  0.3324
10409TIP3    H152718   1.524   1.429   6.081 -0.9379  0.7529  0.4738
10409TIP3    H252719   1.507   1.573   6.123  0.9704  0.6102  1.8795
10410TIP3   OH252720   0.480   5.033   2.164  0.4557  0.0832  0.1712
10410TIP3    H152721   0.422   5.095   2.119 -0.7122 -0.8874  0.3082
10410TIP3    H252722   0.431   4.951   2.166  1.4742 -0.5257  1.1007
10411TIP3   OH252723   0.779   3.549   1.117  0.0296 -0.2600 -0.0142
10411TIP3    H152724   0.787   3.593   1.202 -0.8116 -0.3002  0.0952
10411TIP3    H252725   0.689   3.517   1.116 -0.0360 -0.0609 -1.0156
10412TIP3   OH252726   1.927   4.010  15.239 -0.2050  0.1815  0.0928
10412TIP3    H152727   1.896   3.984  15.152  1.0833  1.4027 -0.7634
10412TIP3    H252728   1.951   3.927  15.281 -1.8780 -0.5306 -0.2639
10413TIP3   OH252729   4.629   1.643   4.074  0.1333 -0.7673 -0.1443
10413TIP3    H152730   4.708   1.692   4.096  0.3428 -1.5366  0.8665
10413TIP3    H252731   4.563   1.711   4.059  0.8573 -0.1324 -0.5662
10414TIP3   OH252732   4.443   2.145  10.438  0.1952  0.0872 -0.2324
10414TIP3    H152733   4.487   2.096  10.369 -0.3390 -0.5971 -0.0965
10414TIP3    H252734   4.385   2.205  10.392 -0.3494 -0.5446 -0.3874
10415TIP3   OH252735   2.583   2.769   4.953 -0.3519 -0.4175 -0.1306
10415TIP3    H152736   2.494   2.748   4.924 -0.6289  0.8244 -0.2430
10415TIP3    H252737   2.596   2.860   4.925  0.8225 -0.4720  0.2014
10416TIP3   OH252738   6.699   5.546  12.264 -0.1178  0.0272 -0.8475
10416TIP3    H152739   6.660   5.462  12.288 -1.3182 -0.1097 -3.0817
10416TIP3    H252740   6.791   5.526  12.249  0.0251 -0.4639  0.5178
10417TIP3   OH252741   5.580   6.424  14.349  0.4894  0.5298 -0.4922
10417TIP3    H152742   5.499   6.391  14.389 -0.5510  3.0545 -0.3464
10417TIP3    H252743   5.648   6.403  14.413 -0.2031 -0.5859 -0.0835
10418TIP3   OH252744   4.519   6.385   5.279  0.1926 -0.0378  0.2573
10418TIP3    H152745   4.558   6.333   5.349 -0.2303 -1.1575 -0.3177
10418TIP3    H252746   4.451   6.329   5.242  0.0643  0.7316 -0.7271
10419TIP3   OH252747   2.251   1.448  10.954 -0.1039  0.1062 -1.1274
10419TIP3    H152748   2.247   1.536  10.916 -0.6999  0.2423 -0.7667
10419TIP3    H252749   2.185   1.449  11.024 -1.1560 -1.0859 -2.0561
10420TIP3   OH252750   3.394   2.054  12.525 -0.2427 -0.4020  0.1818
10420TIP3    H152751   3.478   2.030  12.486  0.0895 -1.7877  1.6318
10420TIP3    H252752   3.330   1.999  12.479 -0.4070  0.7536 -1.0183
10421TIP3   OH252753   6.794   2.281  12.787  1.1322 -0.1019  0.0547
10421TIP3    H152754   6.882   2.278  12.749  1.3490 -2.3481  0.5784
10421TIP3    H252755   6.754   2.360  12.750  2.6090 -0.2010 -1.9036
10422TIP3   OH252756   1.139   6.703   4.973  0.3603 -0.2084  0.7801
10422TIP3    H152757   1.075   6.632   4.966 -0.9201  1.0437 -1.2955
10422TIP3    H252758   1.093   6.772   5.021  0.2246  0.5696 -0.4207
10423TIP3   OH252759   2.739   2.657  14.743  0.2272  0.2263  0.4060
10423TIP3    H152760   2.815   2.689  14.790  0.7256  1.2160 -1.0010
10423TIP3    H252761   2.742   2.701  14.658 -1.2060 -0.6807 -0.1736
10424TIP3   OH252762   6.414   1.902   1.247 -0.2592 -0.2651  0.0379
10424TIP3    H152763   6.500   1.871   1.277 -0.0349 -0.0802 -0.4086
10424TIP3    H252764   6.356   1.826   1.257 -0.0000 -0.4522  0.1408
10425TIP3   OH252765   0.681   0.175  10.400  0.1813 -0.0786  0.3115
10425TIP3    H152766   0.720   0.149  10.484  0.3474  1.8949  0.8849
10425TIP3    H252767   0.589   0.147  10.407  0.2799 -0.2459  1.0135
10426TIP3   OH252768   1.532   3.473   0.397  0.2133 -0.0932 -0.2938
10426TIP3    H152769   1.437   3.474   0.405  0.2462 -1.6618  0.8265
10426TIP3    H252770   1.563   3.524   0.472  0.2558 -0.0978 -0.3083
10427TIP3   OH252771   0.773   1.960   1.395 -0.5908 -0.2334 -0.2719
10427TIP3    H152772   0.791   1.868   1.376  0.3644 -0.0835 -0.1347
10427TIP3    H252773   0.812   2.008   1.322 -0.6675  0.0903 -0.1012
10428TIP3   OH252774   0.275   2.836   6.177 -0.5101 -0.2791  0.2634
10428TIP3    H152775   0.236   2.782   6.245 -1.9459 -0.1479 -0.4228
10428TIP3    H252776   0.205   2.849   6.113 -0.4763  3.1222  0.7875
10429TIP3   OH252777   0.554   1.808  14.593  0.4258  0.6838  0.4541
10429TIP3    H152778   0.505   1.773  14.519  0.0407  0.7657  0.6671
10429TIP3    H252779   0.487   1.834  14.656  0.7826 -0.7676  1.4759
10430TIP3   OH252780   3.215   3.084  15.390 -0.7124  0.3990 -0.4770
10430TIP3    H152781   3.167   3.119  15.465  0.1837 -0.7553  0.6892
10430TIP3    H252782   3.301   3.127  15.394  0.1335 -1.2606  0.5286
10431TIP3   OH252783   2.437   5.241   3.077 -0.0168 -0.6291 -0.1665
10431TIP3    H152784   2.390   5.250   3.160 -1.4904 -0.8254 -0.9481
10431TIP3    H252785   2.381   5.284   3.013  1.2448 -0.2084 -1.0349
10432TIP3   OH252786   5.346   5.815   3.225 -0.0271  0.3378 -0.3040
10432TIP3    H152787   5.265   5.843   3.268 -1.5509 -0.5845 -2.3568
10432TIP3    H252788   5.333   5.721   3.210  1.0789  0.3287 -1.3490
10433TIP3   OH252789   0.867   1.956   3.426 -0.1337 -0.0663  0.0115
10433TIP3    H152790   0.939   1.903   3.459 -0.3753 -1.8569 -2.1083
10433TIP3    H252791   0.893   2.046   3.443  3.1163 -0.5734 -1.5440
10434TIP3   OH252792   4.361   6.206  11.988  0.1832 -0.1322 -0.1723
10434TIP3    H152793   4.317   6.124  12.007  1.3824 -0.4301  1.5797
10434TIP3    H252794   4.347   6.220  11.894 -1.3291 -1.5285 -0.1959
10435TIP3   OH252795   6.181   1.537   0.509 -0.0420 -0.3531 -0.0566
10435TIP3    H152796   6.274   1.562   0.507 -0.3685  1.0284 -2.3791
10435TIP3    H252797   6.137   1.612   0.548 -0.3384 -0.2751 -0.5342
10436TIP3   OH252798   1.897   1.316   1.213 -0.1096  0.0029  0.1296
10436TIP3    H152799   1.816   1.366   1.202 -1.0421 -1.3426  0.6504
10436TIP3    H252800   1.929   1.302   1.124 -1.4696 -1.0408 -0.2282
10437TIP3   OH252801   4.069   0.524  16.975 -0.0180 -0.3012 -0.3614
10437TIP3    H152802   4.018   0.530  16.894  0.3762  1.2206 -0.5260
10437TIP3    H252803   4.160   0.520  16.946  0.0678 -1.1165 -0.0122
10438TIP3   OH252804   6.649   0.031   6.216  0.2855 -0.5932 -0.6505
10438TIP3    H152805   6.705   0.098   6.257  1.5248 -1.3938 -0.9674
10438TIP3    H252806   6.598  -0.005   6.289  0.3315  0.0055 -0.3115
10439TIP3   OH252807   0.645   6.640   2.472 -0.1658 -0.0010 -0.1014
10439TIP3    H152808   0.648   6.615   2.380 -1.0910 -0.9929  0.1239
10439TIP3    H252809   0.736   6.637   2.501  0.0451 -0.4358 -0.7869
10440TIP3   OH252810   4.024   0.010   4.417  0.0694  0.4901 -0.2831
10440TIP3    H152811   3.968  -0.020   4.489  0.5431 -1.2691 -0.5911
10440TIP3    H252812   4.083   0.074   4.457  0.7625 -0.9388  1.0776
10441TIP3   OH252813   3.327   3.926   3.832  0.5257  0.4079  0.2369
10441TIP3    H152814   3.286   3.874   3.763 -1.0110  0.6626  0.9122
10441TIP3    H252815   3.412   3.885   3.847 -1.5520 -3.6159  2.5272
10442TIP3   OH252816   4.815   4.485  12.060 -0.1375  0.5324  0.2631
10442TIP3    H152817   4.753   4.484  11.988  0.7361 -1.8372 -0.5566
10442TIP3    H252818   4.763   4.461  12.137 -0.9931  2.6729  0.4192
10443TIP3   OH252819   1.397   4.569  13.805 -0.2945 -0.1170 -0.0540
10443TIP3    H152820   1.362   4.657  13.791 -2.5038 -1.2839 -2.8476
10443TIP3    H252821   1.401   4.530  13.718  1.8428 -2.4043  0.9402
10444TIP3   OH252822   3.940   1.317   2.841  0.2010  0.0192  0.0519
10444TIP3    H152823   3.878   1.266   2.789  0.1882  0.7178 -0.6494
10444TIP3    H252824   4.006   1.346   2.777  0.7230  0.0834  0.6119
10445TIP3   OH252825   1.406   0.257  11.639  0.2555 -0.4662  0.4650
10445TIP3    H152826   1.367   0.267  11.726  0.0436 -3.8290  0.8822
10445TIP3    H252827   1.348   0.308  11.582  0.8762  2.5474  2.2777
10446TIP3   OH252828   0.805   1.225   0.271  0.1010  0.2511 -0.6232
10446TIP3    H152829   0.878   1.277   0.238  0.5960  0.1235  0.2556
10446TIP3    H252830   0.843   1.139   0.288  0.4762  0.9413  2.5689
10447TIP3   OH252831   2.181   5.583   0.912  0.1200 -0.6157  0.5704
10447TIP3    H152832   2.190   5.544   0.825  0.3073 -0.7766  0.6616
10447TIP3    H252833   2.198   5.676   0.897 -1.2481 -0.3997  0.1930
10448TIP3   OH252834   0.705   1.212  14.899  0.3704 -0.5202  0.5299
10448TIP3    H152835   0.663   1.255  14.973 -1.0721 -0.4892 -0.2821
10448TIP3    H252836   0.665   1.125  14.895 -0.7495  0.0373 -1.1654
10449TIP3   OH252837   3.758   4.489   4.820 -0.0504 -0.2653  0.5703
10449TIP3    H152838   3.828   4.478   4.884 -1.1420 -1.5838  1.5743
10449TIP3    H252839   3.799   4.542   4.750  1.8668 -0.8050  1.2097
10450TIP3   OH252840   6.814   1.261   3.453 -0.0682  0.1019  0.8279
10450TIP3    H152841   6.731   1.222   3.480 -0.4270  0.4086  0.1941
10450TIP3    H252842   6.851   1.198   3.391 -0.9455  1.0084 -0.6829
10451TIP3   OH252843   5.616   4.944  16.380 -0.0093  0.0255  0.1901
10451TIP3    H152844   5.525   4.920  16.363  0.1666 -0.6297  0.1121
10451TIP3    H252845   5.618   5.039  16.372 -0.9556  0.1831  1.5029
10452TIP3   OH252846   3.514   1.675  15.944 -0.0403  0.1852  0.0322
10452TIP3    H152847   3.463   1.754  15.958  0.9185  0.7694  0.3085
10452TIP3    H252848   3.567   1.693  15.866  0.5136  0.0089  0.3542
10453TIP3   OH252849   3.946   6.388   4.623  0.4258  0.7655 -0.0073
10453TIP3    H152850   3.924   6.403   4.531  0.2698  0.5103 -0.0127
10453TIP3    H252851   4.040   6.406   4.628  1.0374 -1.7897 -0.7946
10454TIP3   OH252852   4.168   2.520  14.556 -0.1880 -0.3995  0.1220
10454TIP3    H152853   4.135   2.546  14.470 -1.5786  1.5111  1.1575
10454TIP3    H252854   4.246   2.573  14.569  0.2585 -0.9930 -0.1293
10455TIP3   OH252855   4.587   2.558   5.135  0.1127  0.7008  0.6699
10455TIP3    H152856   4.510   2.522   5.090  0.1813 -0.1196  1.1960
10455TIP3    H252857   4.656   2.557   5.068 -0.2759  1.2524  0.2532
10456TIP3   OH252858   1.794   3.944   3.120 -0.7780  0.3789 -0.0333
10456TIP3    H152859   1.799   3.966   3.213  0.3887 -0.7788  0.2040
10456TIP3    H252860   1.832   3.857   3.114 -1.0342  0.3443 -1.5809
10457TIP3   OH252861   5.256   3.745   4.589  0.1966  0.1380  0.3270
10457TIP3    H152862   5.190   3.681   4.614 -0.8196  0.6497 -0.9078
10457TIP3    H252863   5.221   3.829   4.620  0.0342  0.4700 -0.7225
10458TIP3   OH252864   0.707   4.706  16.084  0.2732 -0.4705 -0.0457
10458TIP3    H152865   0.636   4.735  16.142 -1.2493 -1.4120 -1.3429
10458TIP3    H252866   0.764   4.782  16.075 -2.3028  1.4309 -1.4829
10459TIP3   OH252867   5.461   3.022  14.447  0.0947  0.2607 -0.1616
10459TIP3    H152868   5.472   2.941  14.398  1.3164  0.6556 -0.5868
10459TIP3    H252869   5.474   3.091  14.382 -0.4106  0.8002  0.2975
10460TIP3   OH252870   2.151   1.495   0.973 -0.0167 -0.6126  0.0338
10460TIP3    H152871   2.214   1.517   1.042  1.0311 -0.9901 -0.7743
10460TIP3    H252872   2.113   1.579   0.947 -1.9096 -0.6351  2.3837
10461TIP3   OH252873   2.707   5.524   5.090  0.3719  0.3720 -0.5050
10461TIP3    H152874   2.735   5.459   5.025 -0.1633 -0.2189 -0.1590
10461TIP3    H252875   2.703   5.607   5.041 -0.7504 -0.1946 -1.4211
10462TIP3   OH252876   4.993   5.961  11.125 -0.0096  0.4993 -0.6869
10462TIP3    H152877   5.042   5.920  11.054  1.6718  0.9496  0.1668
10462TIP3    H252878   5.052   6.028  11.160 -1.8385  2.1945 -0.6206
10463TIP3   OH252879   6.598   2.701  15.696 -0.1353  0.2439 -0.3947
10463TIP3    H152880   6.651   2.663  15.766 -0.4658  2.4846  1.1694
10463TIP3    H252881   6.658   2.760  15.650 -0.8680  1.7135  0.4869
10464TIP3   OH252882   0.690   4.427   5.637 -0.0828 -0.0467 -0.8771
10464TIP3    H152883   0.684   4.443   5.543 -1.9258  0.5771 -0.6956
10464TIP3    H252884   0.699   4.514   5.676 -2.2623  0.0191 -0.3539
10465TIP3   OH252885   1.393   2.629  12.795 -0.4210 -0.1898  0.3178
10465TIP3    H152886   1.392   2.685  12.718  0.3424  0.1586  0.5506
10465TIP3    H252887   1.320   2.569  12.782 -0.5864  0.1651 -0.4495
10466TIP3   OH252888   1.490   5.363  13.801  0.2849 -0.0022  0.2905
10466TIP3    H152889   1.550   5.352  13.727  0.3031  0.7304  0.1824
10466TIP3    H252890   1.533   5.427  13.857 -0.2417  0.2816  0.3780
10467TIP3   OH252891   6.439   0.456   1.788  0.2562  0.0462 -0.1021
10467TIP3    H152892   6.520   0.428   1.744  1.2939  3.4012 -0.6368
10467TIP3    H252893   6.469   0.489   1.873 -0.5287  1.4105 -0.3420
10468TIP3   OH252894   6.297   3.060   5.714  0.2336 -0.0863  0.1799
10468TIP3    H152895   6.268   3.033   5.801  1.1565 -2.5292 -0.1703
10468TIP3    H252896   6.218   3.057   5.660 -0.0788 -0.0043  0.6284
10469TIP3   OH252897   3.273   4.923  14.274  0.1650 -0.3420  0.0555
10469TIP3    H152898   3.186   4.943  14.307  0.4790  0.7975  0.2392
10469TIP3    H252899   3.281   4.828  14.283 -0.5161 -0.2996  1.3674
10470TIP3   OH252900   6.589   0.590   2.100  0.4176 -0.7853 -0.2963
10470TIP3    H152901   6.592   0.616   2.192 -0.3276 -1.5809 -0.0306
10470TIP3    H252902   6.577   0.495   2.102  2.2150 -1.0833 -1.2266
10471TIP3   OH252903   3.433   2.052   2.755  0.1428 -0.1805 -0.1254
10471TIP3    H152904   3.386   1.984   2.707  0.4346 -0.6334  0.2233
10471TIP3    H252905   3.514   2.065   2.706 -0.7476  1.3121 -1.2999
10472TIP3   OH252906   4.695   3.423  14.547  0.7063 -0.1125  0.4179
10472TIP3    H152907   4.650   3.505  14.526  0.0991 -0.7539 -0.9350
10472TIP3    H252908   4.679   3.410  14.641  0.0122  0.8281  0.4442
10473TIP3   OH252909   1.250   3.545  13.522 -0.2622  0.9278 -0.2775
10473TIP3    H152910   1.307   3.603  13.472 -0.0541 -0.1846 -1.3868
10473TIP3    H252911   1.309   3.482  13.563 -0.6438 -0.2814 -1.4999
10474TIP3   OH252912   5.957   1.574   3.436 -0.1604  0.0219  0.2788
10474TIP3    H152913   5.973   1.657   3.391  0.3880  0.0970  0.6147
10474TIP3    H252914   5.879   1.539   3.393 -0.1198  0.4852 -0.1823
10475TIP3   OH252915   1.937   2.517  14.138  0.1058 -0.6896 -0.8653
10475TIP3    H152916   1.988   2.598  14.125  1.3623 -1.2395  0.3994
10475TIP3    H252917   1.898   2.527  14.224 -1.6015 -0.4994 -1.6166
10476TIP3   OH252918   6.258   2.500   2.263  0.8434 -0.2955  0.0961
10476TIP3    H152919   6.163   2.498   2.273  0.8641  1.2074  0.8242
10476TIP3    H252920   6.276   2.435   2.195 -0.5522 -1.5895  0.9019
10477TIP3   OH252921   1.914   0.589  14.702  0.1522 -0.7177 -0.5648
10477TIP3    H152922   1.995   0.584  14.754 -0.8605 -4.1209  0.9628
10477TIP3    H252923   1.858   0.649  14.751  0.3302 -1.4990  0.6437
10478TIP3   OH252924   5.638   5.230   1.877 -0.0900 -0.1879  0.2579
10478TIP3    H152925   5.551   5.205   1.909  0.4949  0.1173  2.2719
10478TIP3    H252926   5.671   5.291   1.943  1.6406 -0.2669 -0.4785
10479TIP3   OH252927   5.151   3.282  13.683 -0.1959 -0.6476  0.2483
10479TIP3    H152928   5.071   3.243  13.648 -1.4366  0.6466  1.5369
10479TIP3    H252929   5.155   3.254  13.774  0.3796 -0.0468  0.4192
10480TIP3   OH252930   4.987   0.372  12.024 -0.2086  0.5622  0.1419
10480TIP3    H152931   4.906   0.357  11.974  0.3169 -0.0110 -0.5504
10480TIP3    H252932   5.041   0.296  12.006  0.1144  0.4781  1.3810
10481TIP3   OH252933   4.695   2.144   5.154  0.0112 -0.0202 -0.0742
10481TIP3    H152934   4.730   2.070   5.203 -0.4386  0.8430  1.6538
10481TIP3    H252935   4.613   2.166   5.198 -0.7118  0.4761 -1.5903
10482TIP3   OH252936   3.820   2.553  13.950  0.0096  0.2870  0.2774
10482TIP3    H152937   3.738   2.562  13.998  0.2388 -0.6215  0.8520
10482TIP3    H252938   3.872   2.492  14.002  0.8103  0.3713 -0.4056
10483TIP3   OH252939   6.037   3.570  11.477 -0.0022 -0.6546  0.7221
10483TIP3    H152940   6.108   3.551  11.538  1.2404 -0.5100 -0.6165
10483TIP3    H252941   6.018   3.663  11.490  2.6436  0.3227 -1.3787
10484TIP3   OH252942   2.894   6.054   1.435 -0.0125  0.4460 -0.1067
10484TIP3    H152943   2.944   6.042   1.354  1.4716  0.6612  0.7555
10484TIP3    H252944   2.850   5.970   1.448 -0.4106  0.4553 -1.1951
10485TIP3   OH252945   5.538   4.984  15.888 -0.6375 -0.1142 -0.5113
10485TIP3    H152946   5.512   5.073  15.864 -1.5301 -0.5000 -1.0451
10485TIP3    H252947   5.483   4.928  15.833 -0.8768 -1.0116  0.6116
10486TIP3   OH252948   1.434   3.807  16.458 -0.2499 -0.0792 -0.6087
10486TIP3    H152949   1.503   3.773  16.514  0.8095  0.1321 -1.7559
10486TIP3    H252950   1.475   3.878  16.408 -1.3291  0.1639 -1.1974
10487TIP3   OH252951   2.952   6.359   3.760 -0.7042 -0.5304  0.3937
10487TIP3    H152952   2.869   6.400   3.783  0.2807  2.3753 -0.7891
10487TIP3    H252953   2.955   6.361   3.664  2.1693  3.0919  0.2938
10488TIP3   OH252954   4.806   3.772  13.972  0.2058 -0.0833 -0.8570
10488TIP3    H152955   4.791   3.768  13.877  0.3915 -1.5691 -0.8380
10488TIP3    H252956   4.803   3.866  13.992 -1.6213  0.1691 -2.0471
10489TIP3   OH252957   3.180   0.868  13.701  0.7333  0.2347  0.4082
10489TIP3    H152958   3.245   0.877  13.771  1.3619  2.0938 -0.3336
10489TIP3    H252959   3.222   0.909  13.625 -0.0749 -1.3998 -0.9694
10490TIP3   OH252960   5.737   6.658  11.925 -0.0317 -0.0247  0.2390
10490TIP3    H152961   5.829   6.677  11.907 -0.1952  1.1248  0.5798
10490TIP3    H252962   5.701   6.632  11.839  0.1800  1.3283 -0.2760
10491TIP3   OH252963   2.455   6.677   5.738  0.0686 -0.2847  0.1086
10491TIP3    H152964   2.450   6.584   5.715 -0.9821 -0.5609  1.3467
10491TIP3    H252965   2.396   6.720   5.676 -0.0070 -0.5513 -0.0068
10492TIP3   OH252966   2.020   1.826   6.030  0.0838 -0.6278  0.1786
10492TIP3    H152967   1.942   1.790   5.988 -1.0003  1.5180  0.2642
10492TIP3    H252968   2.014   1.798   6.121 -1.5608  0.9435  0.6042
10493TIP3   OH252969   5.033   0.421  14.388  0.3283 -0.0236 -0.3478
10493TIP3    H152970   5.072   0.383  14.466  3.0734 -1.5390 -2.2575
10493TIP3    H252971   5.070   0.509  14.383 -0.3657  0.3187  0.3527
10494TIP3   OH252972   2.028   2.471   2.624  0.2956 -0.1409  0.5679
10494TIP3    H152973   2.003   2.441   2.537  1.4236  3.6637 -1.2828
10494TIP3    H252974   1.951   2.452   2.678 -1.8817  0.4065 -2.0749
10495TIP3   OH252975   4.570   4.123   1.525 -0.0865  0.1171  0.0467
10495TIP3    H152976   4.577   4.158   1.436 -1.2412 -0.2261 -0.1998
10495TIP3    H252977   4.522   4.041   1.514  1.7310 -1.1016  0.7154
10496TIP3   OH252978   3.358   1.365   3.056 -0.4097  0.5779 -0.4111
10496TIP3    H152979   3.309   1.287   3.082 -1.0213  0.8393 -0.7556
10496TIP3    H252980   3.440   1.331   3.020  0.5177  0.2095  1.9003
10497TIP3   OH252981   2.418   2.601   1.486  0.0868  0.8745 -0.1539
10497TIP3    H152982   2.370   2.574   1.564  4.0022 -1.0956  1.8781
10497TIP3    H252983   2.428   2.695   1.496 -2.8855  1.3219 -0.5340
10498TIP3   OH252984   5.691   6.458   3.254 -0.1956  0.0710 -0.1314
10498TIP3    H152985   5.643   6.515   3.314 -0.8060  0.1783 -0.7074
10498TIP3    H252986   5.780   6.456   3.289 -0.8539 -1.0278  1.6093
10499TIP3   OH252987   5.131   0.845   3.520  0.7024 -0.0864 -0.4576
10499TIP3    H152988   5.086   0.781   3.465  0.5313  0.3033 -0.7782
10499TIP3    H252989   5.140   0.922   3.464 -3.1659  1.8859  1.1932
10500TIP3   OH252990   3.978   0.261   0.258  0.5149 -0.4465  0.5117
10500TIP3    H152991   3.931   0.264   0.175  1.5425 -0.2855 -0.0862
10500TIP3    H252992   4.044   0.329   0.251  2.0406 -1.8399  0.5627
10501TIP3   OH252993   5.181   3.562   2.244  0.6457 -0.1697 -0.0407
10501TIP3    H152994   5.234   3.623   2.193  1.1512  0.7973  1.5475
10501TIP3    H252995   5.238   3.486   2.256  0.6347 -0.2770 -0.6563
10502TIP3   OH252996   2.782   1.063  15.754 -0.2999  0.0107  0.4975
10502TIP3    H152997   2.695   1.029  15.735  0.0024 -0.0284 -0.9380
10502TIP3    H252998   2.805   1.025  15.839 -0.6902 -2.0121 -0.2357
10503TIP3   OH252999   5.824   2.874  13.250 -0.6435  0.3149  0.0788
10503TIP3    H153000   5.864   2.812  13.189 -1.0504  0.8018 -0.6997
10503TIP3    H253001   5.732   2.877  13.224 -0.7575  0.7691  0.5214
10504TIP3   OH253002   1.664   6.579   3.293 -0.1070 -0.2599 -0.1529
10504TIP3    H153003   1.684   6.495   3.253 -0.4595 -0.0965 -0.6876
10504TIP3    H253004   1.570   6.578   3.306  0.2082 -1.1665  2.6708
10505TIP3   OH253005   1.369   6.324   5.455  0.1676  0.0120 -0.4705
10505TIP3    H153006   1.291   6.289   5.497  0.0201  1.2748  0.3627
10505TIP3    H253007   1.402   6.251   5.401 -1.0254 -0.8420 -0.0943
10506TIP3   OH253008   4.322   2.684   1.181 -0.0468  0.4376 -1.1019
10506TIP3    H153009   4.366   2.746   1.238  0.0084  0.9288 -1.6683
10506TIP3    H253010   4.243   2.659   1.229  0.1175  0.6553 -0.7116
10507TIP3   OH253011   0.778   5.349  11.822  0.2107 -0.0684  0.1990
10507TIP3    H153012   0.698   5.352  11.769  0.7522 -0.1163 -0.6457
10507TIP3    H253013   0.758   5.404  11.898 -1.2692 -1.5871  0.9575
10508TIP3   OH253014   5.083   3.820   5.589  0.3143  0.0099  0.6104
10508TIP3    H153015   5.177   3.806   5.593  0.2025 -1.0755 -0.1077
10508TIP3    H253016   5.073   3.915   5.576  1.3733 -0.0599 -1.0511
10509TIP3   OH253017   0.043   4.954  13.325 -0.1160 -0.8633  0.1725
10509TIP3    H153018   0.059   4.860  13.317  1.8581 -0.6813  1.3513
10509TIP3    H253019   0.115   4.987  13.380 -0.2792  1.4754 -0.8770
10510TIP3   OH253020   4.767   0.890   1.759 -0.0439 -0.0535 -0.3661
10510TIP3    H153021   4.734   0.897   1.670 -1.3049  1.8262  0.1871
10510TIP3    H253022   4.776   0.796   1.774 -1.9054 -0.5031 -1.7419
10511TIP3   OH253023   2.993   2.706  14.583 -0.3381  0.3653  0.6683
10511TIP3    H153024   2.946   2.668  14.509 -1.0026 -0.0022  1.2606
10511TIP3    H253025   3.023   2.630  14.633  2.1093  0.5479 -0.4027
10512TIP3   OH253026   3.053   2.111   5.771  0.7541 -0.1404 -0.6015
10512TIP3    H153027   3.094   2.069   5.847  0.9399  0.2088 -0.5099
10512TIP3    H253028   3.108   2.187   5.752  0.1784  0.3115 -0.5033
10513TIP3   OH253029   3.290   3.022   2.043  0.6055 -0.1998 -0.2176
10513TIP3    H153030   3.237   2.943   2.056 -2.2448  1.5057 -0.6735
10513TIP3    H253031   3.273   3.048   1.952 -0.6709  2.3272  0.6614
10514TIP3   OH253032   5.332   2.654   5.653  0.0981  0.1800 -0.0924
10514TIP3    H153033   5.404   2.699   5.698 -0.0962  1.1293 -0.7118
10514TIP3    H253034   5.257   2.712   5.665 -0.4501 -0.5641  0.1169
10515TIP3   OH253035   3.621   5.321  14.353  0.2241  0.0560  0.0960
10515TIP3    H153036   3.529   5.297  14.341  0.2472 -0.1391  0.2894
10515TIP3    H253037   3.627   5.411  14.322  0.2474 -0.3520 -1.1659
10516TIP3   OH253038   6.803   0.064  16.850 -1.0555 -0.1148  0.8318
10516TIP3    H153039   6.870   0.106  16.795 -1.9115 -0.6357 -0.6729
10516TIP3    H253040   6.850   0.038  16.929  0.9105 -1.7699 -0.7658
10517TIP3   OH253041   4.292   5.664  13.431 -0.1271 -0.3003  0.2791
10517TIP3    H153042   4.336   5.694  13.511  0.3698 -0.2674 -0.0039
10517TIP3    H253043   4.304   5.570  13.430 -0.6600 -0.3765  0.5528
10518TIP3   OH253044   5.906   1.521  10.695  0.1041 -0.2827  0.1013
10518TIP3    H153045   5.840   1.453  10.679 -0.7558  0.3983  0.6724
10518TIP3    H253046   5.977   1.500  10.635 -0.4571 -1.2760 -0.2316
10519TIP3   OH253047   0.006   1.834  12.364 -0.3400  0.2544  0.5662
10519TIP3    H153048   0.067   1.891  12.317 -1.4642  1.4596  0.4644
10519TIP3    H253049  -0.056   1.806  12.297 -0.6641  0.1491  0.9063
10520TIP3   OH253050   0.151   5.901  14.133 -0.2352  0.4288 -0.8105
10520TIP3    H153051   0.190   5.823  14.172 -0.1999 -0.3970 -2.4251
10520TIP3    H253052   0.223   5.963  14.126  0.1344 -0.0261 -1.0862
10521TIP3   OH253053   1.516   4.429   1.056  0.2789 -0.1331 -0.1804
10521TIP3    H153054   1.422   4.432   1.078  0.1528 -1.2431 -0.5004
10521TIP3    H253055   1.560   4.432   1.140 -0.0651 -0.2464  0.0074
10522TIP3   OH253056   1.495   5.783  17.112  0.2782  0.2043  0.3408
10522TIP3    H153057   1.518   5.702  17.157 -1.4055 -0.2611  0.4105
10522TIP3    H253058   1.555   5.848  17.149  2.7776 -1.2484 -0.8616
10523TIP3   OH253059   4.362   1.568   3.436  0.6357  0.5463 -0.6418
10523TIP3    H153060   4.362   1.621   3.356  0.4170  0.8511 -0.4405
10523TIP3    H253061   4.377   1.630   3.507  2.4321  0.0791 -0.5566
10524TIP3   OH253062   2.682   5.281   1.205 -0.3277  0.3808  0.1882
10524TIP3    H153063   2.600   5.304   1.162 -0.9331 -0.4587  0.8448
10524TIP3    H253064   2.705   5.195   1.170  0.5605  0.8332 -0.3776
10525TIP3   OH253065   5.143   3.166   4.094  0.4113  0.3114  0.2738
10525TIP3    H153066   5.186   3.124   4.019 -0.9258  1.4185 -1.1814
10525TIP3    H253067   5.051   3.172   4.069 -0.1188  0.5690  2.0995
10526TIP3   OH253068   0.375   3.595   3.023 -0.1594 -0.2692 -0.1575
10526TIP3    H153069   0.316   3.660   2.985 -0.4161 -0.5802 -0.2991
10526TIP3    H253070   0.327   3.560   3.098  0.4185  0.4717  0.5842
10527TIP3   OH253071   6.431   3.836   1.922  0.0955 -0.4311 -0.1363
10527TIP3    H153072   6.480   3.861   1.844 -0.2738 -0.4564 -0.3785
10527TIP3    H253073   6.427   3.915   1.975 -1.9222  0.3520 -1.3474
10528TIP3   OH253074   0.768   2.838   5.684  0.0500 -0.5555 -0.1316
10528TIP3    H153075   0.735   2.839   5.774  1.9531  1.1577  0.6473
10528TIP3    H253076   0.779   2.931   5.662  1.7951 -0.9713 -1.2411
10529TIP3   OH253077   1.002   2.793   5.165  0.2385 -0.7299  0.2787
10529TIP3    H153078   1.037   2.853   5.099  0.7959 -1.6144 -0.2469
10529TIP3    H253079   0.988   2.847   5.243  0.9897  0.0199 -0.1025
10530TIP3   OH253080   6.007   0.580   6.705  0.1841  0.3757  0.0938
10530TIP3    H153081   6.036   0.583   6.797 -0.9272 -1.8576  0.5767
10530TIP3    H253082   6.072   0.526   6.661  0.8497  1.6454 -0.5418
10531TIP3   OH253083   4.988   5.415  15.384  0.3175  0.6915  0.0418
10531TIP3    H153084   4.996   5.481  15.315  1.6022  0.1131 -0.3855
10531TIP3    H253085   5.022   5.335  15.345  1.1661  0.3736  1.3605
10532TIP3   OH253086   3.341   2.930  16.191 -0.2044 -0.4433 -0.1744
10532TIP3    H153087   3.395   2.882  16.253  0.8789  0.0679 -0.7025
10532TIP3    H253088   3.327   3.015  16.232  0.1539 -0.2574 -0.4303
10533TIP3   OH253089   2.201   1.304  10.388 -0.0847 -0.0151  0.1913
10533TIP3    H153090   2.193   1.398  10.375 -1.1290 -0.0681  0.3895
10533TIP3    H253091   2.269   1.295  10.456  1.4724  0.4828 -1.2225
10534TIP3   OH253092   2.570   6.426   5.969  0.6785  0.8661 -0.7061
10534TIP3    H153093   2.566   6.330   5.968  0.7641  0.8502 -2.2690
10534TIP3    H253094   2.659   6.447   5.940  0.2208  1.4064 -1.7775
10535TIP3   OH253095   4.184   0.960  12.703  0.1783  0.0515  0.2412
10535TIP3    H153096   4.219   1.001  12.782 -0.1115  1.9751 -0.5621
10535TIP3    H253097   4.143   1.032  12.655 -0.3493 -1.2058 -1.2863
10536TIP3   OH253098   3.908   0.989  13.195  0.4621 -0.3718 -0.1168
10536TIP3    H153099   3.901   1.057  13.128 -0.4738 -2.1001 -1.8792
10536TIP3    H253100   3.937   0.912  13.147  0.3055 -1.5530  1.6014
10537TIP3   OH253101   4.626   1.408   0.355 -0.0118  0.3116 -0.0516
10537TIP3    H153102   4.615   1.501   0.373  1.3518  0.5262 -0.1788
10537TIP3    H253103   4.589   1.364   0.432 -1.6617  0.8947 -0.4791
10538TIP3   OH253104   3.931   4.584   2.091  0.2038  0.2505 -0.7322
10538TIP3    H153105   3.984   4.539   2.025  2.6811  2.6601 -0.5752
10538TIP3    H253106   3.991   4.601   2.163 -1.2948  1.5052  0.2894
10539TIP3   OH253107   1.673   5.511   1.272 -0.4540 -0.3251  0.3997
10539TIP3    H153108   1.751   5.559   1.300  0.0370 -1.4705  1.0658
10539TIP3    H253109   1.686   5.495   1.179  0.4411 -1.1044  0.6523
10540TIP3   OH253110   3.789   0.633  16.893 -0.1926  0.2359  0.2708
10540TIP3    H153111   3.696   0.656  16.885 -0.1691 -0.0804 -1.1291
10540TIP3    H253112   3.828   0.662  16.811  0.9287  0.2581  0.8060
10541TIP3   OH253113   3.246   1.593   0.426 -0.6142  0.4271 -0.0897
10541TIP3    H153114   3.207   1.651   0.491 -1.4250 -0.3394  0.1195
10541TIP3    H253115   3.213   1.626   0.342 -0.9461  0.3706  0.0162
10542TIP3   OH253116   0.342   0.633   0.901  0.3771  0.6437 -0.2571
10542TIP3    H153117   0.344   0.564   0.835 -0.2772  0.7991 -0.4495
10542TIP3    H253118   0.403   0.699   0.869 -0.3593  0.9749 -1.0042
10543TIP3   OH253119   2.359   4.966  12.998  0.8212 -0.3307 -0.0740
10543TIP3    H153120   2.310   4.958  12.915 -0.0202 -0.1225  0.3884
10543TIP3    H253121   2.295   4.944  13.065  1.8501 -1.7657  0.4663
10544TIP3   OH253122   4.455   3.004   4.795  0.2931 -0.0648  0.2936
10544TIP3    H153123   4.524   3.061   4.760  0.2268 -0.6677 -0.8667
10544TIP3    H253124   4.377   3.027   4.744  0.1022 -0.6893  0.2928
10545TIP3   OH253125   1.798   4.803  15.938  0.2905  0.3358 -0.0637
10545TIP3    H153126   1.826   4.754  16.016 -2.1935  0.5545  1.0688
10545TIP3    H253127   1.754   4.739  15.883 -0.0585  0.6421 -0.1459
10546TIP3   OH253128   6.586   0.803   0.476 -0.5714  0.6693  0.5079
10546TIP3    H153129   6.633   0.791   0.394 -2.5729  0.5070 -0.6907
10546TIP3    H253130   6.520   0.869   0.456 -0.5712  1.2292  2.2408
10547TIP3   OH253131   5.514   5.571   6.131  0.2691  0.3112 -0.3031
10547TIP3    H153132   5.418   5.572   6.141  0.2178  0.0104 -0.7234
10547TIP3    H253133   5.542   5.657   6.164 -0.0506  0.0573  0.6662
10548TIP3   OH253134   2.560   5.172   4.801  0.0690  0.1887 -0.5301
10548TIP3    H153135   2.484   5.167   4.859  1.3259 -2.0133  1.0791
10548TIP3    H253136   2.546   5.104   4.736  1.4253 -1.5376  0.8828
10549TIP3   OH253137   3.352   6.470   6.616 -0.5669 -0.5098  0.7507
10549TIP3    H153138   3.353   6.566   6.618  0.1564 -0.5204  1.1418
10549TIP3    H253139   3.429   6.446   6.565 -0.4487 -0.8902  1.1041
10550TIP3   OH253140   0.757   5.840   2.915 -0.3088  0.0840 -0.1748
10550TIP3    H153141   0.714   5.896   2.851 -1.5146 -0.3245  0.2576
10550TIP3    H253142   0.851   5.848   2.895 -0.6469  0.0230 -1.9273
10551TIP3   OH253143   6.438   4.971  15.040  0.4868  0.4899 -0.0746
10551TIP3    H153144   6.403   5.055  15.011 -0.3544  0.4021  0.6537
10551TIP3    H253145   6.397   4.907  14.982 -0.0015  0.4507  0.3160
10552TIP3   OH253146   3.280   0.196   5.452 -0.0666 -0.0146 -0.4624
10552TIP3    H153147   3.356   0.169   5.505 -0.2184  0.9691  0.2887
10552TIP3    H253148   3.281   0.136   5.377  1.7404  0.2783 -0.7258
10553TIP3   OH253149   4.917   3.631  14.308 -1.0396  0.4291  0.0165
10553TIP3    H153150   4.998   3.582  14.297 -1.1960  0.6046 -2.3240
10553TIP3    H253151   4.943   3.711  14.354  0.3036  0.8979 -1.4791
10554TIP3   OH253152   4.248   0.389   3.588 -0.1232 -0.1914  0.0356
10554TIP3    H153153   4.155   0.390   3.568  0.3071 -0.8376 -2.3064
10554TIP3    H253154   4.269   0.296   3.598  0.1343 -0.0073  1.5250
10555TIP3   OH253155   1.497   1.339  15.052 -0.2901  0.3480  0.5308
10555TIP3    H153156   1.578   1.345  15.001  0.8149  0.0925  2.1792
10555TIP3    H253157   1.518   1.280  15.124 -1.8996  0.4303  1.1172
10556TIP3   OH253158   6.693   2.483  16.419 -0.3172 -0.1903  0.4331
10556TIP3    H153159   6.659   2.410  16.367 -0.7159  2.4985 -3.4914
10556TIP3    H253160   6.618   2.540  16.432  0.5696  0.9095  0.8688
10557TIP3   OH253161   3.089   5.097   0.709  0.0618 -0.4670  0.4458
10557TIP3    H153162   3.079   5.080   0.615  0.5220 -3.3836  0.8143
10557TIP3    H253163   3.001   5.082   0.745 -0.1911  0.9887  0.4632
10558TIP3   OH253164   1.699   5.726   0.465  0.2384  0.1937  0.5798
10558TIP3    H153165   1.648   5.743   0.544  0.5748  3.0649  0.2905
10558TIP3    H253166   1.766   5.664   0.492 -0.7799 -0.3131  2.0538
10559TIP3   OH253167   0.812   3.157  11.234  0.0796  0.1784  0.7708
10559TIP3    H153168   0.787   3.127  11.147  1.9785  0.5919  0.0359
10559TIP3    H253169   0.735   3.139  11.288 -1.4802  0.7046 -1.1396
10560TIP3   OH253170   0.148   3.675  13.429 -0.3039 -0.0459 -0.3292
10560TIP3    H153171   0.174   3.712  13.514  1.8899 -1.3278 -0.3784
10560TIP3    H253172   0.081   3.611  13.450  0.6193 -0.7556  0.5290
10561TIP3   OH253173   4.305   0.059  17.087  0.1980 -0.1175 -0.1963
10561TIP3    H153174   4.335   0.068  16.997  0.8702  0.7439  0.1025
10561TIP3    H253175   4.253  -0.022  17.087 -1.8697  1.1208 -1.8872
10562TIP3   OH253176   2.561   1.727  15.585 -0.1540 -0.7056  0.0135
10562TIP3    H153177   2.571   1.782  15.507  2.3233 -1.2968 -0.1615
10562TIP3    H253178   2.533   1.642  15.550 -0.0162 -0.6935 -0.1277
10563TIP3   OH253179   2.038   5.165   3.450 -1.0848  0.7502 -0.2616
10563TIP3    H153180   2.085   5.230   3.398 -0.1112  1.1295  1.0236
10563TIP3    H253181   1.953   5.204   3.467 -0.3792  1.8903  0.8061
10564TIP3   OH253182   4.334   1.294  13.851  0.2236 -0.5975  0.0282
10564TIP3    H153183   4.285   1.357  13.798  0.6216  0.0313  0.3981
10564TIP3    H253184   4.311   1.209  13.814 -1.9746 -0.4154  0.8789
10565TIP3   OH253185   1.943   3.499  15.475 -0.2739 -0.0097  0.6900
10565TIP3    H153186   2.011   3.504  15.408 -0.4451  0.6533  0.5631
10565TIP3    H253187   1.890   3.424  15.449  1.3248 -1.5721  1.6764
10566TIP3   OH253188   1.390   3.766  13.075  0.3609 -0.1120  0.1559
10566TIP3    H153189   1.463   3.741  13.132  1.6789  1.5263 -0.7163
10566TIP3    H253190   1.315   3.773  13.133  1.0034 -1.2866  1.1754
10567TIP3   OH253191   1.743   0.311   0.581 -0.0131  0.3719  0.1461
10567TIP3    H153192   1.835   0.303   0.607 -0.1958 -2.9791  0.2049
10567TIP3    H253193   1.742   0.382   0.517  2.1364  2.1730  1.9091
10568TIP3   OH253194   3.173   0.208  16.020 -0.1727 -0.5484 -0.1194
10568TIP3    H153195   3.084   0.221  15.986 -0.3249 -0.3246  0.3534
10568TIP3    H253196   3.178   0.266  16.096  0.6838  0.1203 -0.6670
10569TIP3   OH253197   0.584   6.483  17.077 -0.2730  0.0664 -0.3695
10569TIP3    H153198   0.660   6.523  17.120  0.0570  0.2926 -1.1358
10569TIP3    H253199   0.513   6.490  17.141  0.4694 -0.5896  0.5449
10570TIP3   OH253200   2.249   4.495   1.644 -0.1402  0.0402 -0.7087
10570TIP3    H153201   2.314   4.504   1.575  1.0490  0.5387  0.4344
10570TIP3    H253202   2.200   4.578   1.642  0.9895  0.7668  0.0829
10571TIP3   OH253203   3.157   4.050   4.921  0.1075 -0.3549  0.1640
10571TIP3    H153204   3.235   4.105   4.928 -0.6922  1.0631 -1.4590
10571TIP3    H253205   3.189   3.966   4.888  0.7852  0.8491 -2.4877
10572TIP3   OH253206   1.344   3.910  12.757  0.2625 -0.1641 -0.0091
10572TIP3    H153207   1.341   3.887  12.664 -1.9386  2.0074 -0.5711
10572TIP3    H253208   1.262   3.876  12.793  0.9473 -0.7019  1.1065
10573TIP3   OH253209   6.358   3.003  11.034 -0.7647  0.1327 -0.5935
10573TIP3    H153210   6.385   3.062  11.105 -0.7802  1.0804 -1.3448
10573TIP3    H253211   6.439   2.982  10.988 -0.6993 -0.7989 -0.0813
10574TIP3   OH253212   2.564   5.308  13.343  0.4410 -0.2039 -0.4391
10574TIP3    H153213   2.557   5.217  13.316  1.7970 -0.6006  0.4642
10574TIP3    H253214   2.622   5.348  13.279  1.1829 -0.3957  0.1012
10575TIP3   OH253215   3.354   4.808  16.197 -0.2277 -0.1955 -0.0564
10575TIP3    H153216   3.348   4.867  16.121  2.1219 -0.4545 -0.5348
10575TIP3    H253217   3.380   4.865  16.269 -1.1596 -0.1595  0.2592
10576TIP3   OH253218   4.063   4.021   1.454  0.6304 -0.0194  0.3227
10576TIP3    H153219   4.130   4.050   1.392  2.3571 -0.6455  1.8107
10576TIP3    H253220   4.026   3.942   1.414  1.9142 -0.5722  0.1493
10577TIP3   OH253221   1.586   6.355  12.390  0.0921 -0.3855  0.7760
10577TIP3    H153222   1.567   6.421  12.323  0.2936 -1.3265 -0.2313
10577TIP3    H253223   1.502   6.341  12.433 -0.4063 -0.9026 -0.3329
10578TIP3   OH253224   5.181   0.562  11.995 -0.3780  0.8658  0.0504
10578TIP3    H153225   5.119   0.494  12.019  0.0241  0.8116  0.9786
10578TIP3    H253226   5.243   0.565  12.068 -0.5923  2.4619  0.2030
10579TIP3   OH253227   1.747   5.453   2.344 -0.7090 -0.0054 -0.0509
10579TIP3    H153228   1.805   5.496   2.407 -0.0125 -0.5735 -0.2951
10579TIP3    H253229   1.693   5.524   2.308 -0.0110  0.5626  0.0108
10580TIP3   OH253230   3.032   4.490   1.079 -0.4906 -0.2787 -0.0699
10580TIP3    H153231   3.000   4.523   0.995  0.2325 -2.7964 -1.4546
10580TIP3    H253232   2.956   4.448   1.119 -0.5937  0.0377  0.0709
10581TIP3   OH253233   4.844   3.669  10.120 -0.0088 -0.2929  0.4243
10581TIP3    H153234   4.860   3.583  10.161  0.1504 -0.5567 -0.1875
10581TIP3    H253235   4.919   3.722  10.147  0.0701 -0.4480  0.5138
10582TIP3   OH253236   5.577   5.600  15.034  0.2615 -0.1908  0.0401
10582TIP3    H153237   5.510   5.623  14.969 -0.6363 -0.0271  0.9940
10582TIP3    H253238   5.641   5.549  14.985 -0.0422  0.5027 -1.1219
10583TIP3   OH253239   2.158   5.823   1.273  0.1569  0.2756 -0.8140
10583TIP3    H153240   2.107   5.850   1.197  1.1997  1.0824 -1.2534
10583TIP3    H253241   2.238   5.875   1.268  0.4398  0.0252  0.5979
10584TIP3   OH253242   6.603   5.804  12.908 -0.6220 -0.9362 -0.3224
10584TIP3    H153243   6.518   5.771  12.939  0.4478 -1.7560  1.9829
10584TIP3    H253244   6.646   5.727  12.871 -0.0826 -1.0177  0.4544
10585TIP3   OH253245   6.107   6.513  16.281  0.2837 -0.1273  0.4957
10585TIP3    H153246   6.181   6.574  16.288  1.0763 -0.9823 -0.1213
10585TIP3    H253247   6.074   6.526  16.191 -0.7207  0.6705  0.9544
10586TIP3   OH253248   0.247   2.394   0.588 -0.0947 -0.5138  0.0119
10586TIP3    H153249   0.201   2.457   0.643  0.6628 -0.6371  0.8126
10586TIP3    H253250   0.302   2.345   0.649  1.7998  0.2448 -1.0023
10587TIP3   OH253251   5.089   5.697  16.311  0.0783 -0.4445 -0.1929
10587TIP3    H153252   5.079   5.792  16.304 -0.3195 -0.4861 -0.2392
10587TIP3    H253253   5.012   5.662  16.266  0.3729 -0.7939 -0.4312
10588TIP3   OH253254   4.465   2.006   0.128  0.0399  0.2615  0.5696
10588TIP3    H153255   4.422   2.014   0.043  0.7441 -1.0204  0.0508
10588TIP3    H253256   4.487   1.913   0.134  0.3401  0.4064  1.9909
10589TIP3   OH253257   0.410   2.174   0.064 -0.0496 -0.3522 -0.1411
10589TIP3    H153258   0.446   2.175  -0.025  3.9607  0.6589  1.2512
10589TIP3    H253259   0.407   2.267   0.090 -1.6391 -0.5891  0.6513
10590TIP3   OH253260   1.112   3.487   5.625  0.0176 -0.1655 -0.1862
10590TIP3    H153261   1.048   3.494   5.554 -1.6486  0.3033  1.2612
10590TIP3    H253262   1.194   3.517   5.588 -0.8424  0.2446 -1.8455
10591TIP3   OH253263   3.561   2.898   3.691 -0.2119 -0.3075 -0.5371
10591TIP3    H153264   3.586   2.853   3.610 -0.2252  0.5567 -1.0367
10591TIP3    H253265   3.468   2.915   3.682 -0.3416 -0.7567 -0.0608
10592TIP3   OH253266   5.521   4.709  15.459  0.3261  0.3756  0.3858
10592TIP3    H153267   5.590   4.651  15.493 -0.6750 -0.0440  1.8242
10592TIP3    H253268   5.568   4.784  15.424  1.5384  0.1885  1.5074
10593TIP3   OH253269   6.556   2.325   2.875  0.2134 -0.1808  0.0256
10593TIP3    H153270   6.516   2.253   2.825  0.5964 -1.0345  0.9102
10593TIP3    H253271   6.482   2.377   2.905 -0.0179  0.3649 -1.4418
10594TIP3   OH253272   2.835   1.088  17.121 -0.3068  0.2281 -0.1974
10594TIP3    H153273   2.891   1.110  17.047  2.6278  0.8404  1.9952
10594TIP3    H253274   2.869   1.141  17.193 -2.4403 -0.9612  1.8130
10595TIP3   OH253275   0.971   4.552   2.351  0.3024  0.3352 -0.1506
10595TIP3    H153276   0.908   4.535   2.421 -0.0483  1.2017 -0.2490
10595TIP3    H253277   1.009   4.637   2.373 -0.1142  0.8126 -1.2287
10596TIP3   OH253278   0.175   6.201  12.513  0.3914  0.5433  0.0356
10596TIP3    H153279   0.161   6.296  12.510 -0.3116  0.4457  0.0940
10596TIP3    H253280   0.100   6.167  12.563 -0.0930 -0.1786 -1.1535
10597TIP3   OH253281   0.421   3.387   0.134  0.6207  0.4517  0.2771
10597TIP3    H153282   0.514   3.407   0.132  0.1657  2.8007 -0.4256
10597TIP3    H253283   0.381   3.465   0.174 -1.1296 -0.0511 -0.4248
10598TIP3   OH253284   0.106   5.274  11.756 -0.5815 -0.0897 -0.2081
10598TIP3    H153285   0.134   5.331  11.684 -1.8966 -0.7280 -1.2734
10598TIP3    H253286   0.053   5.207  11.713 -1.9101 -0.1426  1.4442
10599TIP3   OH253287   5.581   4.077   3.402 -0.4325  0.5150 -0.6320
10599TIP3    H153288   5.548   4.030   3.478 -1.3567  1.2764 -0.5376
10599TIP3    H253289   5.504   4.119   3.365  0.2507  1.3943 -1.1023
10600TIP3   OH253290   4.810   4.077   2.535 -0.1563 -0.6380 -0.0595
10600TIP3    H153291   4.887   4.023   2.553 -0.9653 -2.1408 -0.9928
10600TIP3    H253292   4.743   4.016   2.506 -1.2102  0.8333 -0.8608
10601TIP3   OH253293   4.550   3.057   2.602 -0.0962 -1.3074 -0.3531
10601TIP3    H153294   4.583   3.022   2.520  1.0341 -0.7030 -0.1756
10601TIP3    H253295   4.572   2.990   2.667  2.1079 -0.3224 -0.0052
10602TIP3   OH253296   3.519   0.150   0.969 -0.0145  0.6506  0.9475
10602TIP3    H153297   3.522   0.086   1.040 -1.4837 -0.5834 -0.0268
10602TIP3    H253298   3.572   0.112   0.899 -1.5690  0.0063  0.0478
10603TIP3   OH253299   0.718   6.662  14.660 -0.4452  0.3300  0.2335
10603TIP3    H153300   0.752   6.574  14.644 -0.3502  0.4432 -0.1891
10603TIP3    H253301   0.687   6.659  14.751 -0.4543 -0.1414  0.2201
10604TIP3   OH253302   3.813   3.955   4.340  0.2701 -0.2277 -0.0674
10604TIP3    H153303   3.844   3.891   4.405 -1.7812  1.4856  2.8378
10604TIP3    H253304   3.722   3.931   4.324 -0.1062  1.0834 -0.0158
10605TIP3   OH253305   1.457   4.845   4.557 -0.1033 -0.1797 -0.0362
10605TIP3    H153306   1.424   4.910   4.619  1.8436  0.9411 -0.0968
10605TIP3    H253307   1.437   4.881   4.471  1.0646  0.4232 -0.0709
10606TIP3   OH253308   1.653   2.480   2.404  0.4195 -0.2618 -0.3292
10606TIP3    H153309   1.619   2.567   2.383 -2.7628 -1.1694  0.5393
10606TIP3    H253310   1.637   2.470   2.498  0.6049 -1.8288 -0.4468
10607TIP3   OH253311   2.253   0.884   0.558  0.1238  0.5534 -0.2394
10607TIP3    H153312   2.313   0.943   0.513  0.0506  1.0992  0.3679
10607TIP3    H253313   2.276   0.797   0.525 -1.2529  1.0797 -2.8612
10608TIP3   OH253314   2.401   5.839   3.853 -0.4668 -0.3646 -0.0733
10608TIP3    H153315   2.352   5.885   3.922 -1.4524 -0.5689 -0.6117
10608TIP3    H253316   2.341   5.839   3.778  0.2418 -0.9243 -0.6475
10609TIP3   OH253317   5.895   2.452   6.124  0.0175 -0.0229 -0.1285
10609TIP3    H153318   5.981   2.488   6.103  0.4725  0.9508  2.8719
10609TIP3    H253319   5.915   2.367   6.166 -0.5068 -0.0406  0.0865
10610TIP3   OH253320   5.707   1.452   3.974 -0.2393 -0.4614  0.3203
10610TIP3    H153321   5.684   1.382   4.035  0.0744  0.0904  1.0933
10610TIP3    H253322   5.625   1.474   3.930 -0.8368  0.2142  1.6966
10611TIP3   OH253323   1.934   1.870  12.572  0.1058 -0.1982  0.1221
10611TIP3    H153324   2.021   1.837  12.593  1.1059  0.2751 -2.8185
10611TIP3    H253325   1.924   1.853  12.478 -1.8986  2.1082 -0.1711
10612TIP3   OH253326   1.447   6.635  12.334 -0.0261 -0.1369  0.1742
10612TIP3    H153327   1.363   6.647  12.290 -0.1685 -2.2087 -0.2294
10612TIP3    H253328   1.457   6.712  12.389 -0.6549  1.7477 -2.1829
10613TIP3   OH253329   2.471   4.696  11.867 -0.2256 -0.1934 -0.6293
10613TIP3    H153330   2.517   4.615  11.889 -0.5746 -0.4407 -0.7937
10613TIP3    H253331   2.540   4.757  11.844  0.1118 -0.1246  0.5001
10614TIP3   OH253332   6.547   6.405  14.862  0.5281  0.3060 -0.5160
10614TIP3    H153333   6.556   6.500  14.877  1.5068  0.0978  0.2572
10614TIP3    H253334   6.625   6.381  14.812  0.1618 -0.0651 -0.9218
10615TIP3   OH253335   3.023   6.058   6.183 -0.5652 -0.7106 -0.3585
10615TIP3    H153336   3.025   6.001   6.260  1.9889  0.0850  0.2459
10615TIP3    H253337   3.114   6.076   6.164 -1.2387  1.5833 -1.7545
10616TIP3   OH253338   3.506   2.456  15.113  0.0609 -0.0762 -0.7503
10616TIP3    H153339   3.470   2.522  15.172 -0.0251 -0.3640 -0.4823
10616TIP3    H253340   3.485   2.372  15.154 -2.3995 -0.4077 -2.4929
10617TIP3   OH253341   3.722   0.105   4.289 -0.5570 -0.1915  0.8524
10617TIP3    H153342   3.713   0.012   4.271  0.2293  0.0470 -0.9741
10617TIP3    H253343   3.813   0.116   4.316 -0.7227  0.0271  1.3508
10618TIP3   OH253344   3.736   5.065   0.908  0.1944  0.1419 -0.0119
10618TIP3    H153345   3.802   5.049   0.975 -0.5430 -1.4222  0.4040
10618TIP3    H253346   3.767   5.142   0.860  1.3018  0.6068  1.4043
10619TIP3   OH253347   1.419   3.859  15.945  0.1050  0.5068 -0.0470
10619TIP3    H153348   1.349   3.898  15.996 -0.2718  0.7530 -0.7422
10619TIP3    H253349   1.486   3.836  16.009 -1.5833 -1.9686  0.9763
10620TIP3   OH253350   4.930   1.304  11.999  0.0149 -0.4929 -0.3137
10620TIP3    H153351   4.979   1.373  11.955  0.0166 -0.2688  0.0463
10620TIP3    H253352   4.951   1.313  12.091 -1.8570  0.5659  0.0704
10621TIP3   OH253353   1.901   0.364  15.460 -0.0387  0.1743 -0.1434
10621TIP3    H153354   1.991   0.374  15.428 -0.8849  1.7569 -2.2906
10621TIP3    H253355   1.897   0.422  15.536  0.7752 -0.0265  0.0674
10622TIP3   OH253356   5.284   6.134  16.991 -0.7534  0.2840 -0.6758
10622TIP3    H153357   5.328   6.055  17.023 -0.7703  0.4678 -0.1928
10622TIP3    H253358   5.286   6.195  17.066 -0.9258  0.6630 -0.9757
10623TIP3   OH253359   6.582   0.318  16.120 -0.2732 -0.4875  0.1714
10623TIP3    H153360   6.558   0.237  16.076 -1.8828  0.5287 -0.9131
10623TIP3    H253361   6.561   0.387  16.057 -0.4329  0.8845  1.6618
10624TIP3   OH253362   2.471   5.270  12.039 -0.1909  0.3850 -0.1467
10624TIP3    H153363   2.479   5.253  12.133 -1.3097 -1.8948 -0.3974
10624TIP3    H253364   2.489   5.364  12.031  3.5348  0.0635  1.8498
10625TIP3   OH253365   5.827   4.002   2.955  0.2348 -0.1095 -0.8460
10625TIP3    H153366   5.914   4.017   2.991  0.6150 -0.4006 -1.6181
10625TIP3    H253367   5.842   3.943   2.880 -0.5634  0.2321 -1.2870
10626TIP3   OH253368   6.512   0.956  14.327 -0.3931 -0.8026 -0.8237
10626TIP3    H153369   6.551   0.975  14.412 -0.6284  1.5680 -1.1780
10626TIP3    H253370   6.564   0.883  14.293  1.0083 -0.4791  0.5031
10627TIP3   OH253371   0.033   3.741  15.155  0.0849 -0.2487 -0.2612
10627TIP3    H153372   0.080   3.823  15.142 -2.3400  1.5430  1.3506
10627TIP3    H253373   0.101   3.674  15.157  2.3665  1.9411  0.2053
10628TIP3   OH253374   3.820   4.177  16.465  0.7957 -0.3459  0.5236
10628TIP3    H153375   3.743   4.223  16.500  0.3102 -0.7505  0.0110
10628TIP3    H253376   3.860   4.137  16.542  1.9312  1.8919  1.1865
10629TIP3   OH253377   6.053   5.349   3.878 -0.1696  0.0924  0.0731
10629TIP3    H153378   6.111   5.324   3.805 -1.6428 -2.9984 -0.1889
10629TIP3    H253379   6.109   5.343   3.956  0.8443  1.1531 -0.5511
10630TIP3   OH253380   0.988   3.250   4.427  0.1398 -0.3326  0.2271
10630TIP3    H153381   0.985   3.190   4.501  1.0030  0.1416  0.6622
10630TIP3    H253382   1.059   3.217   4.371 -1.1423 -1.2635 -0.9201
10631TIP3   OH253383   1.616   4.607   5.531 -0.2565 -0.0290  0.2311
10631TIP3    H153384   1.591   4.698   5.548  0.2362 -0.2427  2.4036
10631TIP3    H253385   1.538   4.566   5.494  0.0147  1.6323 -2.4764
10632TIP3   OH253386   5.762   2.379   2.060 -0.2470 -0.0281 -0.0140
10632TIP3    H153387   5.806   2.375   1.975 -1.8557  1.1618 -0.9788
10632TIP3    H253388   5.692   2.314   2.054  0.2680 -0.6744  0.8209
10633TIP3   OH253389   0.394   3.817  16.084 -0.4244  0.0474  0.3250
10633TIP3    H153390   0.321   3.767  16.048 -0.6053  0.4662  0.1140
10633TIP3    H253391   0.409   3.778  16.170  0.6938 -1.6792 -0.5821
10634TIP3   OH253392   3.818   5.645   0.380 -0.1299  0.2461  0.3672
10634TIP3    H153393   3.873   5.567   0.377 -0.8509 -0.2927  0.6688
10634TIP3    H253394   3.729   5.610   0.383 -0.4830  1.0928 -0.0107
10635TIP3   OH253395   4.449   5.253  11.125 -0.2645  0.6946 -0.2207
10635TIP3    H153396   4.488   5.282  11.042 -0.5796  0.6069 -0.4012
10635TIP3    H253397   4.521   5.258  11.188 -0.4137  2.2633 -0.1480
10636TIP3   OH253398   0.335   2.634   1.395 -0.0864  0.2007  0.2119
10636TIP3    H153399   0.421   2.607   1.425 -1.2399 -1.5668  2.2030
10636TIP3    H253400   0.276   2.610   1.467 -2.1518  2.0119 -0.7685
10637TIP3   OH253401   2.760   0.502   2.262 -0.5280  0.5614 -0.2693
10637TIP3    H153402   2.744   0.548   2.180 -1.7145  1.9162  0.6675
10637TIP3    H253403   2.694   0.433   2.265 -0.5362  0.5638 -0.4157
10638TIP3   OH253404   0.834   3.898  13.606  0.0947 -0.2027  0.2341
10638TIP3    H153405   0.845   3.938  13.692 -0.2516 -2.3221  1.3453
10638TIP3    H253406   0.746   3.924  13.578  0.3214  0.7331  0.3712
10639TIP3   OH253407   5.878   3.337   4.538 -0.0539 -0.4991  0.2689
10639TIP3    H153408   5.786   3.361   4.527  0.0900  0.4316  0.9468
10639TIP3    H253409   5.919   3.360   4.454  0.0766  1.7441  0.8793
10640TIP3   OH253410   2.444   0.857   0.183 -0.1875  0.3988 -0.1331
10640TIP3    H153411   2.415   0.784   0.128  1.2455 -0.2913 -0.0212
10640TIP3    H253412   2.460   0.928   0.122 -1.8079  0.7185 -0.2220
10641TIP3   OH253413   6.701   1.352  15.322 -0.0927  0.0559 -0.3201
10641TIP3    H153414   6.649   1.390  15.392 -1.0413 -1.1002 -0.3736
10641TIP3    H253415   6.712   1.424  15.259 -1.1410  0.4750 -0.0462
10642TIP3   OH253416   4.776   6.327  13.158 -0.7572 -0.0592  0.5524
10642TIP3    H153417   4.813   6.410  13.128 -3.7597  1.0887 -0.3509
10642TIP3    H253418   4.830   6.303  13.233  0.6282  2.3599  0.4456
10643TIP3   OH253419   2.056   2.689   2.319  0.1220  0.3977  0.0207
10643TIP3    H153420   1.965   2.715   2.328 -0.2658 -0.0726 -2.0692
10643TIP3    H253421   2.097   2.762   2.272  0.8966  0.7271  1.1838
10644TIP3   OH253422   1.853   2.731  15.428  0.2194 -0.5418  0.3463
10644TIP3    H153423   1.820   2.816  15.400  1.0230  0.2653  1.6973
10644TIP3    H253424   1.934   2.718  15.377  0.4734 -0.1500  0.6431
10645TIP3   OH253425   6.386   1.072   5.065 -0.7501  0.3842 -0.0698
10645TIP3    H153426   6.320   1.058   4.997  0.7468  0.2256 -1.5651
10645TIP3    H253427   6.467   1.039   5.027  0.1768  0.3712  1.7896
10646TIP3   OH253428   6.823   2.014  15.711 -0.3038  0.0995 -0.5182
10646TIP3    H153429   6.808   2.015  15.616 -0.1652 -1.6536 -0.5991
10646TIP3    H253430   6.908   2.057  15.722  0.3316 -0.8811 -1.3571
10647TIP3   OH253431   6.066   1.265  13.641  0.1854 -0.4075  0.1779
10647TIP3    H153432   6.058   1.272  13.546  2.0864 -0.5262 -0.0322
10647TIP3    H253433   6.034   1.178  13.662 -0.3128 -0.3525 -0.3485
10648TIP3   OH253434   3.697   2.915  11.795  0.6503  0.5552 -0.1123
10648TIP3    H153435   3.746   2.909  11.876  0.1202 -0.1844  0.1627
10648TIP3    H253436   3.757   2.884  11.727  0.6289 -0.1538  0.1908
10649TIP3   OH253437   0.999   3.599   3.415  0.1502  0.2270 -0.2036
10649TIP3    H153438   0.967   3.531   3.356 -1.0577  1.2716 -0.8063
10649TIP3    H253439   0.927   3.614   3.477  0.3512  1.0308 -0.1495
10650TIP3   OH253440   0.556   5.564   1.123 -1.1230  0.8529 -0.1498
10650TIP3    H153441   0.595   5.562   1.211  2.0441 -0.3598 -1.4277
10650TIP3    H253442   0.513   5.479   1.114 -2.5630  1.4682  0.6136
10651TIP3   OH253443   5.862   5.170   0.081 -0.0638  0.6326  0.0836
10651TIP3    H153444   5.810   5.246   0.109  0.7469  0.4713  2.2402
10651TIP3    H253445   5.952   5.203   0.077  0.0869  0.1670 -0.6142
10652TIP3   OH253446   6.614   6.248  11.191 -0.5357 -0.1730 -0.0691
10652TIP3    H153447   6.645   6.269  11.279 -4.8895 -2.0552  2.2215
10652TIP3    H253448   6.648   6.319  11.136  1.2039  1.9013  3.3670
10653TIP3   OH253449   3.476   4.100   1.370 -0.3326  0.0699  0.0727
10653TIP3    H153450   3.448   4.147   1.449 -2.8352 -1.5479  0.2497
10653TIP3    H253451   3.544   4.040   1.401 -0.6825  0.0591  0.8586
10654TIP3   OH253452   4.993   0.119   5.652  0.1311  0.2807 -0.5424
10654TIP3    H153453   4.999   0.030   5.686  1.2732  0.3636 -0.4721
10654TIP3    H253454   5.082   0.154   5.663 -0.6415  1.9624  0.9022
10655TIP3   OH253455   0.132   4.404   1.027 -0.5577  0.5327 -0.0529
10655TIP3    H153456   0.163   4.445   1.107  0.3035 -0.1609 -0.0181
10655TIP3    H253457   0.079   4.471   0.985  1.2354  1.8848 -0.2681
10656TIP3   OH253458   2.856   6.128  12.865  0.0215  0.2898 -0.2889
10656TIP3    H153459   2.935   6.100  12.819 -0.6862 -0.3630 -1.1547
10656TIP3    H253460   2.874   6.108  12.957  0.4207 -0.9560 -0.6168
10657TIP3   OH253461   5.997   5.457   2.198 -0.1230  0.1485 -0.3099
10657TIP3    H153462   6.087   5.456   2.166  0.3398  0.5738  0.9201
10657TIP3    H253463   5.981   5.368   2.228  0.3742  0.3991  0.7337
10658TIP3   OH253464   0.610   2.462   4.539 -0.1944 -0.1499  0.3660
10658TIP3    H153465   0.661   2.535   4.576  1.2221 -1.3387  0.8616
10658TIP3    H253466   0.662   2.434   4.463 -1.3736  0.1276 -0.5749
10659TIP3   OH253467   3.345   2.288  11.583 -0.0663  0.0053 -0.1307
10659TIP3    H153468   3.274   2.344  11.551 -0.0195 -0.3753 -0.9108
10659TIP3    H253469   3.383   2.250  11.505  0.6264 -0.2558  0.3253
10660TIP3   OH253470   2.252   1.143  12.911  0.1068  0.0498  0.0428
10660TIP3    H153471   2.161   1.140  12.941  0.9352 -1.6461  2.6857
10660TIP3    H253472   2.251   1.205  12.838 -2.8451  1.3415  1.0416
10661TIP3   OH253473   5.926   0.097   3.027 -0.5370  0.0301 -0.0242
10661TIP3    H153474   5.962   0.167   3.082 -0.5171  0.9464 -1.1613
10661TIP3    H253475   5.907   0.140   2.944  1.3052 -1.7142 -1.4474
10662TIP3   OH253476   2.303   2.540  11.127  0.3897 -0.1112  0.3520
10662TIP3    H153477   2.256   2.465  11.164  0.3084 -1.1559 -1.7160
10662TIP3    H253478   2.235   2.606  11.112  0.0681 -0.4915  0.1060
10663TIP3   OH253479   1.500   2.378  15.955 -0.6561  0.3350  0.4278
10663TIP3    H153480   1.566   2.419  16.012  0.3293  1.1392 -1.2091
10663TIP3    H253481   1.549   2.352  15.877 -2.1932  0.4931 -0.6304
10664TIP3   OH253482   4.362   6.253   0.870 -0.3019 -0.2225 -0.4455
10664TIP3    H153483   4.448   6.214   0.854  0.2388  0.8914 -0.3992
10664TIP3    H253484   4.300   6.194   0.828  0.4904 -1.0359 -0.4965
10665TIP3   OH253485   4.893   1.645  13.003  0.2866  0.3832 -0.2782
10665TIP3    H153486   4.885   1.648  13.099 -1.7984 -2.2452 -0.2636
10665TIP3    H253487   4.834   1.714  12.972 -0.2663  0.1806  0.3059
10666TIP3   OH253488   0.613   3.069  15.306 -0.1396 -0.0079  0.1479
10666TIP3    H153489   0.668   3.057  15.228  0.5149 -0.8940  0.7255
10666TIP3    H253490   0.676   3.080  15.377 -0.7352  0.4780  0.6068
10667TIP3   OH253491   1.409   1.396   3.915 -0.1592 -0.1110  0.5631
10667TIP3    H153492   1.377   1.481   3.947  1.9966  0.1137  2.3421
10667TIP3    H253493   1.489   1.417   3.867  0.4518 -1.1215  1.1012
10668TIP3   OH253494   5.018   4.503   6.057 -0.3446  0.6769  0.2016
10668TIP3    H153495   5.039   4.411   6.069 -1.3867  0.2423 -1.1637
10668TIP3    H253496   5.103   4.546   6.047  0.1003 -0.3282 -0.4585
10669TIP3   OH253497   2.369   5.008  14.777 -0.4096 -0.2659 -0.1378
10669TIP3    H153498   2.412   5.005  14.691  0.0403 -0.0582  0.0759
10669TIP3    H253499   2.407   4.934  14.825  0.5697  0.5913  0.4466
10670TIP3   OH253500   0.126   1.400  11.395  0.1450  0.3170  0.3203
10670TIP3    H153501   0.199   1.423  11.337  0.7022 -0.1767  0.8129
10670TIP3    H253502   0.049   1.401  11.339  0.5634  0.6066 -0.2596
10671TIP3   OH253503   6.259   1.297  15.335  0.5667 -0.5786  0.1644
10671TIP3    H153504   6.282   1.367  15.274 -0.7685 -1.0211 -0.8795
10671TIP3    H253505   6.339   1.245  15.342  1.6890  1.1727  1.2014
10672TIP3   OH253506   2.478   6.832   0.756 -0.4632 -0.3155 -0.1218
10672TIP3    H153507   2.552   6.893   0.747 -0.6109  0.0213  0.8461
10672TIP3    H253508   2.500   6.759   0.698  0.4160 -0.0113 -0.1888
10673TIP3   OH253509   1.610   1.510   5.743 -0.4325  0.5894  0.3882
10673TIP3    H153510   1.639   1.430   5.787  1.4322  1.2094  0.3742
10673TIP3    H253511   1.627   1.493   5.650  0.3986  1.1345  0.4258
10674TIP3   OH253512   1.823   5.100  12.858  0.4439  0.4939 -0.3690
10674TIP3    H153513   1.768   5.081  12.781  0.8922  1.7660 -1.0411
10674TIP3    H253514   1.872   5.178  12.833  4.1994 -1.7294 -0.6751
10675TIP3   OH253515   2.690   4.524  16.589 -0.2296 -0.2178  0.3006
10675TIP3    H153516   2.764   4.575  16.555 -0.3312 -1.0954 -1.3239
10675TIP3    H253517   2.700   4.438  16.549 -1.3114 -0.7986  1.2391
10676TIP3   OH253518   1.182   0.278  16.639  0.1203  0.1709 -0.1514
10676TIP3    H153519   1.227   0.267  16.556  0.0554  1.8675 -0.4475
10676TIP3    H253520   1.248   0.313  16.698 -0.5501  1.8046 -0.3371
10677TIP3   OH253521   3.166   2.227  13.321 -0.0465 -0.0613 -0.2187
10677TIP3    H153522   3.080   2.237  13.362 -0.0521  1.0448 -0.4723
10677TIP3    H253523   3.226   2.212  13.394 -0.6127 -2.3032 -0.1218
10678TIP3   OH253524   3.441   5.689   0.931 -0.1836  0.3074  0.6319
10678TIP3    H153525   3.533   5.678   0.904 -0.3549 -0.1619  0.2278
10678TIP3    H253526   3.413   5.601   0.958 -0.4180  0.5139  1.0637
10679TIP3   OH253527   4.869   3.379   1.298 -0.2810  0.0398  0.1407
10679TIP3    H153528   4.952   3.419   1.270  0.5626 -1.7853 -0.1131
10679TIP3    H253529   4.895   3.312   1.362 -1.7887  0.9662  1.8173
10680TIP3   OH253530   0.907   0.364   6.896  0.3863 -0.2592 -0.4636
10680TIP3    H153531   0.976   0.423   6.927 -0.1906 -0.3338  1.0719
10680TIP3    H253532   0.843   0.422   6.854  0.7839 -0.0443 -0.7778
10681TIP3   OH253533   3.693   3.200  11.346 -0.0735 -0.1759  0.0656
10681TIP3    H153534   3.752   3.247  11.286  0.3763  2.0497  2.0988
10681TIP3    H253535   3.730   3.216  11.433 -1.0610 -2.7437  1.0486
10682TIP3   OH253536   6.177   2.739  13.163  0.5499  0.8533  0.2493
10682TIP3    H153537   6.170   2.666  13.101  0.3920  0.6389  0.5177
10682TIP3    H253538   6.204   2.698  13.245  1.4534  1.2270  0.1501
10683TIP3   OH253539   6.519   6.130   0.172  0.2547  0.2190  0.1522
10683TIP3    H153540   6.537   6.038   0.154 -0.1955  0.4458 -1.6737
10683TIP3    H253541   6.423   6.138   0.169  0.3214  0.8883 -0.5397
10684TIP3   OH253542   6.305   1.368   4.877  0.4452 -0.1117 -0.3288
10684TIP3    H153543   6.339   1.286   4.841 -0.8054 -0.6495 -0.3325
10684TIP3    H253544   6.271   1.415   4.802 -1.6482 -0.9823  0.0143
10685TIP3   OH253545   2.485   6.235   2.550 -0.2212 -0.1870 -0.0584
10685TIP3    H153546   2.416   6.271   2.494 -0.3074 -0.5356 -0.1743
10685TIP3    H253547   2.463   6.143   2.560  0.4458 -0.3918 -0.4214
10686TIP3   OH253548   0.460   1.627   3.524 -0.6989  0.8949 -0.5327
10686TIP3    H153549   0.389   1.684   3.553 -1.4727 -0.8154  1.1406
10686TIP3    H253550   0.460   1.636   3.429 -1.5706  2.7477 -0.3915
10687TIP3   OH253551   1.337   0.135  15.794  0.2899 -0.5556 -0.4931
10687TIP3    H153552   1.280   0.061  15.811 -0.7282  0.7691  2.4728
10687TIP3    H253553   1.376   0.157  15.879 -0.0329  2.7078 -1.0342
10688TIP3   OH253554   1.259   3.198   5.782 -0.1229  0.4043  0.0555
10688TIP3    H153555   1.295   3.189   5.871  0.8571  0.1918 -0.3539
10688TIP3    H253556   1.221   3.286   5.781  2.2626  1.5260 -0.1170
10689TIP3   OH253557   0.054   0.634  14.583  0.1059 -0.2704 -0.2495
10689TIP3    H153558   0.053   0.655  14.676 -0.6546  0.9345 -0.5122
10689TIP3    H253559   0.100   0.707  14.542  0.0811 -0.5904 -0.8618
10690TIP3   OH253560   5.719   0.298  13.290  0.5138  0.1144 -0.1462
10690TIP3    H153561   5.773   0.377  13.282  1.6491 -0.2206  2.8741
10690TIP3    H253562   5.779   0.226  13.270 -0.2754 -0.0961 -1.9559
10691TIP3   OH253563   1.161   5.986   1.022  0.4063 -0.3540  0.1473
10691TIP3    H153564   1.240   5.955   0.978  0.7499 -0.2744  0.6964
10691TIP3    H253565   1.102   6.011   0.951  1.0097 -0.0776 -0.2668
10692TIP3   OH253566   1.119   3.480   1.498 -0.5278 -0.4419 -0.0750
10692TIP3    H153567   1.058   3.433   1.441 -1.3936  0.5122  0.0391
10692TIP3    H253568   1.065   3.510   1.572 -0.0208  0.7807 -0.1800
10693TIP3   OH253569   6.192   1.787  12.397 -1.3368  0.2482 -0.1420
10693TIP3    H153570   6.225   1.820  12.481 -0.6345 -1.8439  0.4882
10693TIP3    H253571   6.219   1.852  12.333 -1.5320  1.7061  1.1951
10694TIP3   OH253572   0.310   5.940  14.961 -0.0761 -0.3202  0.0522
10694TIP3    H153573   0.254   5.939  15.039  0.0337 -1.6667  0.1298
10694TIP3    H253574   0.302   6.030  14.927 -2.4310 -0.5029 -0.0542
10695TIP3   OH253575   4.840   1.077   2.034 -0.6089  0.5735  0.3139
10695TIP3    H153576   4.822   1.032   1.951  0.7780  1.2495 -0.3933
10695TIP3    H253577   4.810   1.017   2.101  0.1327 -0.9103 -0.6320
10696TIP3   OH253578   4.639   4.716   1.238  0.2194 -0.1482  0.0040
10696TIP3    H153579   4.584   4.701   1.161 -1.1378  1.6896  0.5435
10696TIP3    H253580   4.597   4.665   1.308 -0.7583  1.1113  0.3721
10697TIP3   OH253581   4.270   4.719   4.023  0.0055 -0.6361 -0.1033
10697TIP3    H153582   4.220   4.659   3.968 -1.9933  0.1763  0.7142
10697TIP3    H253583   4.264   4.803   3.978  0.8838 -0.5671 -0.1133
10698TIP3   OH253584   2.197   1.074  15.905 -0.0579  0.6431 -0.7330
10698TIP3    H153585   2.129   1.068  15.838  0.2699  0.1647 -1.0290
10698TIP3    H253586   2.159   1.032  15.982  0.6180 -1.4489 -1.4900
10699TIP3   OH253587   5.337   4.371  13.953 -0.0213  0.1413  0.1003
10699TIP3    H153588   5.425   4.365  13.918  0.4263  0.4537  1.1239
10699TIP3    H253589   5.349   4.391  14.046 -1.1656  1.7664 -0.0392
10700TIP3   OH253590   3.761   6.056  14.122 -0.0058 -0.0941  0.6026
10700TIP3    H153591   3.784   5.965  14.102 -0.6197 -0.7965  2.8333
10700TIP3    H253592   3.800   6.106  14.051  1.1923 -1.9973 -0.1713
10701TIP3   OH253593   1.753   6.840   4.859  0.2238  0.2812 -0.7374
10701TIP3    H153594   1.825   6.896   4.829  0.1597  1.0228  0.3907
10701TIP3    H253595   1.762   6.840   4.955 -0.7599 -0.3164 -0.6324
10702TIP3   OH253596   4.777   3.656  16.629  0.2103 -0.4105  0.1227
10702TIP3    H153597   4.839   3.655  16.702  1.4515  1.8798 -0.8104
10702TIP3    H253598   4.824   3.614  16.557  0.8699  1.6344 -0.6853
10703TIP3   OH253599   0.388   5.600  12.153  0.3674  0.0763 -0.2493
10703TIP3    H153600   0.416   5.595  12.062  0.9717 -0.9918 -0.0223
10703TIP3    H253601   0.410   5.689  12.181 -1.7991  1.1835 -1.7492
10704TIP3   OH253602   1.276   2.461  13.966 -0.1729 -0.3193 -0.7301
10704TIP3    H153603   1.204   2.470  14.029  0.5652  1.6137 -0.0937
10704TIP3    H253604   1.250   2.515  13.892  1.0595  1.3408 -0.0193
10705TIP3   OH253605   1.264   0.818  14.922  0.2924  0.0128  0.2621
10705TIP3    H153606   1.282   0.809  15.016 -0.7472 -2.0478  0.3209
10705TIP3    H253607   1.335   0.772  14.879  1.1917  1.6085 -0.0544
10706TIP3   OH253608   6.678   4.335   2.414 -0.8214 -0.3810  0.3823
10706TIP3    H153609   6.659   4.428   2.426 -0.7555 -0.1558 -1.0836
10706TIP3    H253610   6.599   4.298   2.375 -2.0544 -1.6527  3.6548
10707TIP3   OH253611   5.750   6.132  14.751  0.3677 -0.1199  0.5706
10707TIP3    H153612   5.673   6.188  14.740 -0.1021 -0.2502  2.7435
10707TIP3    H253613   5.824   6.188  14.727 -0.3329  0.1467 -1.1233
10708TIP3   OH253614   6.321   5.270  17.070 -0.8202 -0.4493 -0.1784
10708TIP3    H153615   6.282   5.240  16.988  1.1247 -0.8253 -1.0271
10708TIP3    H253616   6.356   5.190  17.110 -0.6236 -0.0854  0.3845
10709TIP3   OH253617   4.379   6.789  16.765 -0.1840  0.2975  0.5125
10709TIP3    H153618   4.296   6.748  16.739  0.3993  0.0145 -1.0452
10709TIP3    H253619   4.438   6.715  16.779  0.1160  0.5259  0.4518
10710TIP3   OH253620   5.632   5.800   1.998 -0.1180 -0.1690  0.1600
10710TIP3    H153621   5.721   5.792   1.964 -0.4363 -3.0714 -0.3146
10710TIP3    H253622   5.639   5.776   2.091 -0.3328  0.0862  0.2436
10711TIP3   OH253623   5.769   1.434  11.057  0.1257 -0.7290 -0.3273
10711TIP3    H153624   5.833   1.503  11.073  1.5825 -1.6465 -1.8431
10711TIP3    H253625   5.687   1.481  11.039 -0.1171  0.4257  3.1404
10712TIP3   OH253626   5.579   3.017  15.520 -0.1255 -0.2365 -0.0987
10712TIP3    H153627   5.578   3.047  15.611  1.4916 -0.3668 -0.0108
10712TIP3    H253628   5.630   2.936  15.521  2.6486  1.3254 -1.5170
10713TIP3   OH253629   0.570   2.908  12.042  0.1363 -0.1124 -0.1981
10713TIP3    H153630   0.499   2.867  12.093  0.4798 -0.3824  0.0660
10713TIP3    H253631   0.526   2.945  11.966 -0.0773 -1.7546 -0.9183
10714TIP3   OH253632   5.730   1.326  12.536  0.6468 -0.1257 -0.1494
10714TIP3    H153633   5.761   1.318  12.626 -0.5261  4.2356  0.9108
10714TIP3    H253634   5.639   1.297  12.539  1.5011 -3.2106 -0.8743
10715TIP3   OH253635   0.985   5.286   0.847 -0.3722 -0.1006  0.2458
10715TIP3    H153636   1.020   5.315   0.931 -0.5068  2.0592 -0.3929
10715TIP3    H253637   1.057   5.296   0.785 -0.7037 -0.2792 -0.1785
10716TIP3   OH253638   4.086   2.331   3.773  0.0824 -0.7298  0.5500
10716TIP3    H153639   4.002   2.319   3.818 -0.1583 -1.1236  0.0107
10716TIP3    H253640   4.098   2.249   3.725 -0.1293  0.0416 -0.8511
10717TIP3   OH253641   3.830   6.369  11.379  0.0698  0.0133 -0.8218
10717TIP3    H153642   3.889   6.308  11.334  0.3386 -0.2765 -0.0857
10717TIP3    H253643   3.754   6.375  11.321  0.4840 -0.2154 -1.4025
10718TIP3   OH253644   1.176   1.205  13.959  0.2374 -0.1362 -0.4894
10718TIP3    H153645   1.252   1.264  13.959  0.9646 -1.0320  0.5018
10718TIP3    H253646   1.125   1.232  14.036  0.2243 -0.3769 -0.4138
10719TIP3   OH253647   4.092   1.574   0.541 -0.5819  0.0004 -0.7230
10719TIP3    H153648   4.174   1.557   0.588 -0.5272  0.8126 -0.5037
10719TIP3    H253649   4.027   1.519   0.584 -0.4308  0.3731  0.0018
10720TIP3   OH253650   0.695   4.453  13.006 -0.1041 -0.2675  0.3542
10720TIP3    H153651   0.786   4.457  12.976 -0.2809 -1.7611 -0.4615
10720TIP3    H253652   0.694   4.506  13.086  1.2479  0.5882 -0.1596
10721TIP3   OH253653   3.590   6.349   0.062 -0.6943  0.7933 -0.4586
10721TIP3    H153654   3.538   6.368  -0.016 -0.1353 -0.6572 -1.2121
10721TIP3    H253655   3.526   6.318   0.126 -0.9342  0.2631 -0.9469
10722TIP3   OH253656   3.163   0.704  11.100  0.0386  0.0253  0.8673
10722TIP3    H153657   3.241   0.754  11.123  0.3948 -0.4450  0.7027
10722TIP3    H253658   3.149   0.723  11.007  0.2602 -0.2838  0.7671
10723TIP3   OH253659   3.259   3.170   1.039 -0.0610 -0.3470 -0.1704
10723TIP3    H153660   3.216   3.163   0.954 -1.4107  0.0841  0.4549
10723TIP3    H253661   3.187   3.170   1.102  0.7352  1.9074  0.8342
10724TIP3   OH253662   1.746   5.152  11.703  0.3555  0.0434 -0.2211
10724TIP3    H153663   1.755   5.216  11.632  0.6944 -0.1891 -0.3871
10724TIP3    H253664   1.771   5.201  11.782  0.2620  0.2188 -0.2978
10725TIP3   OH253665   2.426   2.312  11.765 -0.0751  0.1574  0.1922
10725TIP3    H153666   2.428   2.268  11.850  1.5353  2.1490  1.2665
10725TIP3    H253667   2.517   2.326  11.743 -0.4762 -0.2672 -1.8797
10726TIP3   OH253668   6.059   3.735  12.251 -0.4585 -0.5064 -0.0161
10726TIP3    H153669   5.986   3.674  12.266 -0.2341 -0.8893 -0.4795
10726TIP3    H253670   6.023   3.801  12.192 -0.3000 -0.9503 -0.6173
10727TIP3   OH253671   3.519   4.816   2.133  0.0408  0.3267  0.3156
10727TIP3    H153672   3.439   4.848   2.176 -0.1049  0.0198  0.2714
10727TIP3    H253673   3.535   4.731   2.173  1.0370  0.9181  1.2185
10728TIP3   OH253674   2.791   6.726  17.131 -0.6337 -0.1634  0.0289
10728TIP3    H153675   2.698   6.709  17.143 -0.5713  0.1858  1.0316
10728TIP3    H253676   2.823   6.651  17.080 -1.6119  0.1084 -1.0125
10729TIP3   OH253677   0.715   5.570  12.023 -0.5718  0.4827  0.2898
10729TIP3    H153678   0.632   5.532  11.995 -0.1663 -0.9503  0.9649
10729TIP3    H253679   0.711   5.570  12.119  0.6067 -0.5807  0.3639
10730TIP3   OH253680   6.267   3.433  16.676 -0.1043  0.9289  0.0310
10730TIP3    H153681   6.343   3.390  16.713 -0.2327 -0.2747 -1.0575
10730TIP3    H253682   6.301   3.486  16.604 -0.0657  2.0079  0.8056
10731TIP3   OH253683   2.465   5.570  13.468 -0.2362 -0.0596  0.0620
10731TIP3    H153684   2.486   5.486  13.428  0.4253 -1.1291  2.4703
10731TIP3    H253685   2.537   5.628  13.444 -0.1189 -0.4993 -0.6682
10732TIP3   OH253686   6.550   4.904  15.390 -0.7669 -0.2902  0.8279
10732TIP3    H153687   6.514   4.989  15.416 -1.0949 -0.9530  2.6969
10732TIP3    H253688   6.631   4.896  15.440  0.5310 -0.1166 -1.1064
10733TIP3   OH253689   3.171   6.384  16.646  0.0077  0.0714 -0.2503
10733TIP3    H153690   3.215   6.376  16.561  1.4426 -2.0251  0.5898
10733TIP3    H253691   3.215   6.319  16.701 -2.3519 -0.1737  1.4716
10734TIP3   OH253692   0.425   2.169   1.811 -0.2437  0.2454 -0.6832
10734TIP3    H153693   0.517   2.195   1.816 -0.0919 -0.3192 -0.4271
10734TIP3    H253694   0.426   2.075   1.826 -1.0757  0.5271  1.5284
10735TIP3   OH253695   0.834   5.535  10.457  0.2444 -0.0309  0.4351
10735TIP3    H153696   0.741   5.523  10.477  0.0982 -2.3006 -1.1434
10735TIP3    H253697   0.862   5.607  10.514 -2.0005 -0.5374  2.3591
10736TIP3   OH253698   4.250   6.430  13.942 -0.2012  0.2490  0.3879
10736TIP3    H153699   4.225   6.500  13.882 -0.3488  0.2472  0.4465
10736TIP3    H253700   4.338   6.404  13.913 -0.1514  0.4453  0.3544
10737TIP3   OH253701   4.219   0.276  15.843  0.3344 -0.1752 -0.2268
10737TIP3    H153702   4.255   0.302  15.758 -1.7857  0.7816 -0.8903
10737TIP3    H253703   4.146   0.217  15.821 -0.6012  0.5384  0.8845
10738TIP3   OH253704   6.690   6.817   3.851  0.0964  0.0461  0.1179
10738TIP3    H153705   6.638   6.737   3.837  0.6414 -0.2509 -0.2509
10738TIP3    H253706   6.641   6.867   3.916 -0.5599 -0.3142 -0.0923
10739TIP3   OH253707   2.598   1.170  13.571  0.1857  0.1028 -0.3496
10739TIP3    H153708   2.621   1.077  13.573 -0.1440 -0.0000 -1.0737
10739TIP3    H253709   2.526   1.176  13.508 -2.0956  0.3577  2.0601
10740TIP3   OH253710   3.588   1.121  11.171  0.0353 -0.0537 -0.6569
10740TIP3    H153711   3.498   1.156  11.169 -0.2455 -0.6428  0.6237
10740TIP3    H253712   3.579   1.029  11.148 -0.0867 -0.7747  1.9399
10741TIP3   OH253713   4.926   0.146  16.069  0.4098 -0.0845  0.0037
10741TIP3    H153714   4.938   0.051  16.070  0.0542 -0.1554 -1.1770
10741TIP3    H253715   5.001   0.179  16.020 -1.9871 -0.2474 -4.2828
10742TIP3   OH253716   0.275   6.734  14.267  0.0200 -0.2715 -0.4851
10742TIP3    H153717   0.289   6.643  14.291  1.0323 -0.3249 -1.1913
10742TIP3    H253718   0.223   6.770  14.338  0.3484 -1.1781  0.2376
10743TIP3   OH253719   1.606   1.287   6.573  0.1017  0.0581 -0.1360
10743TIP3    H153720   1.525   1.296   6.523  1.1458  1.6438 -1.6292
10743TIP3    H253721   1.640   1.376   6.580  1.3236 -0.4793  1.1706
10744TIP3   OH253722   3.433   4.637  10.957  0.1379  0.1359 -0.5259
10744TIP3    H153723   3.477   4.553  10.948 -0.7841 -0.3655 -0.5591
10744TIP3    H253724   3.503   4.702  10.958  0.7779 -0.4704 -2.4036
10745TIP3   OH253725   0.276   4.115   5.187 -0.1179  0.1812  0.0103
10745TIP3    H153726   0.251   4.186   5.247 -0.9132  0.5095 -0.6918
10745TIP3    H253727   0.235   4.037   5.224  0.8254  0.0603  0.8309
10746TIP3   OH253728   0.281   1.023  17.021 -0.1411 -0.1580  1.0148
10746TIP3    H153729   0.360   1.001  16.972 -0.0207  0.7306  0.8019
10746TIP3    H253730   0.313   1.052  17.107 -0.1887  0.9292  0.6688
10747TIP3   OH253731   1.880   5.941   2.441  0.0114 -0.0151  0.0298
10747TIP3    H153732   1.924   5.978   2.364 -1.4750  1.6423 -0.0916
10747TIP3    H253733   1.943   5.951   2.512  0.3807  1.0386 -0.4185
10748TIP3   OH253734   1.304   4.091   0.324  0.4600 -0.1832 -0.8818
10748TIP3    H153735   1.347   4.080   0.409  0.9785  2.4737 -0.7239
10748TIP3    H253736   1.227   4.034   0.329  0.6368 -0.3285  1.2666
10749TIP3   OH253737   6.278   2.952  10.770 -0.1725  0.1195  0.2680
10749TIP3    H153738   6.278   2.859  10.745  1.1188  0.3586 -0.7096
10749TIP3    H253739   6.261   2.950  10.864  0.7157 -1.1947  0.4446
10750TIP3   OH253740   5.264   1.907   0.441  0.7009 -0.3247  0.4767
10750TIP3    H153741   5.171   1.893   0.458  0.3605 -0.3485 -1.2447
10750TIP3    H253742   5.302   1.819   0.438  0.4824 -0.3947 -0.3288
10751TIP3   OH253743   1.016   0.073  16.470  0.1502  0.1642  0.7268
10751TIP3    H153744   1.000  -0.020  16.483  2.1136 -0.1066  1.4399
10751TIP3    H253745   1.012   0.111  16.558 -0.3566  0.7190  0.4714
10752TIP3   OH253746   3.289   0.370  13.759 -0.4351 -0.0676  0.5718
10752TIP3    H153747   3.346   0.316  13.814 -0.3103  1.8404  2.4184
10752TIP3    H253748   3.318   0.460  13.775 -0.4204  0.5965 -2.6630
10753TIP3   OH253749   5.489   4.044   4.450  0.1255  0.1358 -0.4949
10753TIP3    H153750   5.574   4.086   4.438  0.2250 -0.2331 -1.1159
10753TIP3    H253751   5.496   4.000   4.534  1.1581 -1.2823 -1.2827
10754TIP3   OH253752   2.559   0.469   1.850  0.3312  0.4366  0.3593
10754TIP3    H153753   2.620   0.507   1.913  0.9312  0.9328 -0.5094
10754TIP3    H253754   2.612   0.449   1.773 -0.0490 -1.7224  0.5780
10755TIP3   OH253755   2.220   0.920  16.869 -0.7022  0.1580  0.1619
10755TIP3    H153756   2.159   0.878  16.929 -0.0920 -0.0028  0.6825
10755TIP3    H253757   2.249   0.849  16.810  1.9783 -0.7709  2.3705
10756TIP3   OH253758   2.907   4.845   2.142  0.1755  0.3211  0.0421
10756TIP3    H153759   2.988   4.796   2.156  1.0772  1.5377 -0.7531
10756TIP3    H253760   2.842   4.778   2.121  1.1548 -0.6189 -0.0797
10757TIP3   OH253761   0.351   0.357  11.921  0.5324  0.4127  0.1637
10757TIP3    H153762   0.290   0.367  11.848 -0.1751  1.6089  0.8878
10757TIP3    H253763   0.388   0.444  11.933  0.7111  0.2079  1.1651
10758TIP3   OH253764   4.524   2.167  11.490 -0.3784  0.3224  0.4177
10758TIP3    H153765   4.482   2.096  11.538 -2.1489  2.0369  1.5992
10758TIP3    H253766   4.544   2.232  11.558 -3.6068  3.1686 -0.9944
10759TIP3   OH253767   3.019   1.010   3.265  0.2994  0.0382 -0.0100
10759TIP3    H153768   2.970   1.085   3.232  1.6505  0.0962 -2.0896
10759TIP3    H253769   2.959   0.936   3.258 -1.0125  0.8232  1.9733
10760TIP3   OH253770   4.214   4.168  10.722  0.1981  0.4796 -0.4724
10760TIP3    H153771   4.249   4.095  10.670 -0.1473  1.6779 -2.5238
10760TIP3    H253772   4.132   4.192  10.678  0.0640  1.7835  0.4231
10761TIP3   OH253773   3.262   3.436   6.418  0.1795  0.1854  0.7398
10761TIP3    H153774   3.294   3.526   6.414 -1.7520  0.8868 -0.4598
10761TIP3    H253775   3.300   3.393   6.342  1.5056 -0.2156  1.5821
10762TIP3   OH253776   6.656   4.998  11.712 -0.1990 -0.0473  0.4551
10762TIP3    H153777   6.573   5.024  11.674 -0.9304  1.2347  2.7282
10762TIP3    H253778   6.722   5.046  11.661 -1.1563  1.9637  1.0320
10763TIP3   OH253779   6.837   0.955  15.868  0.3143  0.6256 -0.4944
10763TIP3    H153780   6.926   0.965  15.832 -0.2385  0.4881 -1.9676
10763TIP3    H253781   6.802   1.044  15.869  1.1702  1.0250  2.1430
10764TIP3   OH253782   5.527   2.446   4.095 -0.6623 -0.1695 -0.3770
10764TIP3    H153783   5.455   2.429   4.035 -2.0117  1.9634  0.5193
10764TIP3    H253784   5.512   2.535   4.126  2.4436  0.4000 -0.2112
10765TIP3   OH253785   3.022   3.373   5.603  0.2464 -0.0914 -0.0996
10765TIP3    H153786   3.115   3.372   5.625 -0.0103 -1.5280  1.0497
10765TIP3    H253787   2.980   3.421   5.675 -0.0338 -0.5380  0.0408
10766TIP3   OH253788   6.686   2.564   0.699  0.2448 -1.1999 -0.2812
10766TIP3    H153789   6.752   2.540   0.634  0.7193 -1.0287  0.1432
10766TIP3    H253790   6.650   2.480   0.729 -0.6093 -1.2666 -1.4034
10767TIP3   OH253791   5.587   3.176   1.886  0.3276  0.4053  0.9384
10767TIP3    H153792   5.666   3.163   1.833 -0.6931 -1.5002 -0.2320
10767TIP3    H253793   5.549   3.088   1.894 -2.5766  1.4537 -0.0518
10768TIP3   OH253794   5.182   4.294  17.045  0.3965 -0.0821  0.1768
10768TIP3    H153795   5.142   4.368  16.998 -0.1337 -0.5995 -0.2038
10768TIP3    H253796   5.253   4.265  16.987  0.7245  0.2459  0.4148
10769TIP3   OH253797   6.791   2.954  14.505  0.0829 -0.7081  0.4299
10769TIP3    H153798   6.708   3.002  14.507  0.3354 -0.0886 -1.7797
10769TIP3    H253799   6.771   2.873  14.457  0.3133 -1.5688  1.7156
10770TIP3   OH253800   2.045   1.416  10.671 -0.8111 -0.3436  0.1294
10770TIP3    H153801   2.066   1.482  10.737 -2.3406  0.1048  0.2123
10770TIP3    H253802   1.990   1.463  10.608 -0.5601 -1.1382 -0.6995
10771TIP3   OH253803   0.889   2.664   5.938  0.7932  0.1086  0.2646
10771TIP3    H153804   0.817   2.721   5.912 -0.1243 -0.5492  1.3000
10771TIP3    H253805   0.948   2.665   5.863 -0.8910 -0.3145 -1.1400
10772TIP3   OH253806   1.847   5.096   5.624  0.5132 -0.5925 -0.1588
10772TIP3    H153807   1.782   5.033   5.655 -1.0667  0.3933 -1.3198
10772TIP3    H253808   1.913   5.043   5.579 -0.8065 -1.4345 -1.1579
10773TIP3   OH253809   0.426   6.167   5.332  0.4081  0.4749 -0.4077
10773TIP3    H153810   0.510   6.154   5.287  0.3359  0.9894 -0.6977
10773TIP3    H253811   0.442   6.140   5.422  1.1762  1.5327 -0.2107
10774TIP3   OH253812   5.040   2.985  14.443 -0.3962  0.3138 -0.4270
10774TIP3    H153813   5.086   3.036  14.510 -1.5733  1.3823 -0.3929
10774TIP3    H253814   4.994   2.917  14.491  1.1949 -0.8271 -0.4714
10775TIP3   OH253815   4.423   5.223   1.659  0.6465  0.1736  0.0757
10775TIP3    H153816   4.357   5.182   1.602  0.6575 -1.5058  1.2074
10775TIP3    H253817   4.409   5.317   1.647 -0.7363 -0.1400 -1.1016
10776TIP3   OH253818   2.401   3.708   3.759  0.0517  0.2914  0.2643
10776TIP3    H153819   2.359   3.643   3.814 -0.7300 -1.1542 -1.8900
10776TIP3    H253820   2.467   3.749   3.815  1.0208 -2.7961  1.5862
10777TIP3   OH253821   2.271   2.299   3.886 -0.3603 -0.1915  0.1447
10777TIP3    H153822   2.235   2.247   3.958  1.1413 -1.0692  0.3077
10777TIP3    H253823   2.359   2.322   3.916  0.3597 -0.7189 -1.4827
10778TIP3   OH253824   3.822   0.761  16.254  0.4419  0.3767  0.3502
10778TIP3    H153825   3.741   0.748  16.303  0.7687 -1.1851  0.5482
10778TIP3    H253826   3.881   0.803  16.316  0.8538 -1.5887  1.3692
10779TIP3   OH253827   4.649   2.019   4.306  0.1946 -0.5119  0.0038
10779TIP3    H153828   4.689   1.963   4.373 -0.9800 -1.5650 -0.1305
10779TIP3    H253829   4.624   2.098   4.353  1.5551 -0.2089  0.2777
10780TIP3   OH253830   0.414   0.435  14.312  0.0214  0.5160 -0.3445
10780TIP3    H153831   0.427   0.341  14.310  0.9375  0.6350 -1.3623
10780TIP3    H253832   0.351   0.452  14.242  0.0467  0.6797 -0.3287
10781TIP3   OH253833   0.701   2.679  16.521  0.2165 -0.3931  0.0247
10781TIP3    H153834   0.774   2.620  16.504  1.9894  0.8401  2.6698
10781TIP3    H253835   0.742   2.763  16.541 -1.9193  0.4357  1.2599
10782TIP3   OH253836   3.327   6.353  13.195  0.6553 -0.2432  0.0025
10782TIP3    H153837   3.342   6.343  13.101 -1.5393  1.1120 -0.5782
10782TIP3    H253838   3.255   6.293  13.214 -0.1966  0.8581  0.3692
10783TIP3   OH253839   4.455   3.786  15.583 -0.3460 -0.5217 -0.1055
10783TIP3    H153840   4.525   3.745  15.634  1.3620  3.0195  0.6617
10783TIP3    H253841   4.472   3.760  15.493  2.8744  1.2226 -0.1383
10784TIP3   OH253842   4.291   5.249  11.418  0.2920 -0.3801  0.5146
10784TIP3    H153843   4.338   5.323  11.457  0.5031 -0.8095  1.0865
10784TIP3    H253844   4.269   5.193  11.493  0.6022 -1.1602  0.0296
10785TIP3   OH253845   3.436   2.726   5.800 -0.3962 -0.7105  0.1318
10785TIP3    H153846   3.344   2.722   5.827 -0.1038 -1.3661  1.0870
10785TIP3    H253847   3.472   2.800   5.849 -0.1931 -1.0525  0.5080
10786TIP3   OH253848   2.518   6.250  11.098  0.4932 -0.0210 -0.4412
10786TIP3    H153849   2.606   6.288  11.097 -0.2991  1.8890 -1.2181
10786TIP3    H253850   2.476   6.287  11.175 -0.0971  0.2263 -0.8735
10787TIP3   OH253851   1.224   5.533  14.963 -0.0899 -0.8296 -0.0972
10787TIP3    H153852   1.244   5.484  15.043 -2.2159  0.2057  1.1562
10787TIP3    H253853   1.143   5.494  14.931 -1.1809  1.0142  0.2756
10788TIP3   OH253854   1.711   3.392   1.099  0.6890 -0.2752  0.0401
10788TIP3    H153855   1.689   3.408   1.191 -0.3654 -1.3849  0.0082
10788TIP3    H253856   1.678   3.304   1.082  1.8267 -0.4975 -1.1158
10789TIP3   OH253857   1.809   5.275  15.766  0.3626 -0.1122 -0.0227
10789TIP3    H153858   1.857   5.194  15.778 -0.8694 -0.7561  0.8203
10789TIP3    H253859   1.720   5.255  15.795  0.3283  1.8912  1.5175
10790TIP3   OH253860   4.063   4.337   1.119 -0.6653 -0.0983  0.3447
10790TIP3    H153861   4.070   4.372   1.030 -0.2501 -0.2262  0.3243
10790TIP3    H253862   4.052   4.243   1.107 -1.1185 -0.0548  0.4167
10791TIP3   OH253863   5.907   6.330   0.306 -0.3195  0.0389  0.3387
10791TIP3    H153864   5.891   6.241   0.275  1.0201 -0.7198  1.6946
10791TIP3    H253865   5.821   6.362   0.333 -0.6278 -1.3377  1.0614
10792TIP3   OH253866   3.092   1.980   2.573 -0.0607  0.4127  0.9528
10792TIP3    H153867   3.048   2.051   2.526 -0.5008 -0.5782 -0.1607
10792TIP3    H253868   3.027   1.950   2.637 -0.8722 -0.6991 -0.3373
10793TIP3   OH253869   2.272   2.333   4.673 -0.3231  0.1300 -0.1317
10793TIP3    H153870   2.271   2.265   4.605  2.3836  2.1279 -2.4196
10793TIP3    H253871   2.241   2.412   4.628 -0.0145  1.1783  1.4298
10794TIP3   OH253872   4.526   5.798   4.775  0.9444 -0.5493  0.2291
10794TIP3    H153873   4.571   5.721   4.739  2.2103  0.1121  0.3394
10794TIP3    H253874   4.586   5.831   4.842 -0.4729 -0.5928  1.5763
10795TIP3   OH253875   0.383   5.441   0.966 -0.3932 -0.1179  0.2090
10795TIP3    H153876   0.397   5.507   0.898 -1.8164 -0.1014 -0.0820
10795TIP3    H253877   0.416   5.360   0.927 -0.0767  0.1151 -0.0187
10796TIP3   OH253878   1.190   6.408   6.205  0.4848 -0.1188 -0.1455
10796TIP3    H153879   1.240   6.478   6.164 -0.4852  0.2112 -0.8156
10796TIP3    H253880   1.253   6.338   6.220  0.9785 -0.0359 -1.7123
10797TIP3   OH253881   5.846   6.555  16.461  0.1496  0.2745 -0.1411
10797TIP3    H153882   5.828   6.621  16.394  0.3550 -0.0774 -0.5491
10797TIP3    H253883   5.875   6.478  16.412  2.6451  0.7460  0.4495
10798TIP3   OH253884   2.881   6.819  16.133 -0.1506  0.3205  0.4062
10798TIP3    H153885   2.888   6.901  16.182  0.6992  1.3263 -1.3151
10798TIP3    H253886   2.868   6.846  16.042 -1.1318 -1.4792 -0.0533
10799TIP3   OH253887   5.109   2.716  12.630 -0.1984  0.1596 -0.2169
10799TIP3    H153888   5.099   2.679  12.542  1.9955  0.6011 -0.7147
10799TIP3    H253889   5.158   2.797  12.616  0.4177  0.1062  1.4332
10800TIP3   OH253890   0.791   6.626   3.738  0.2897  0.5102  0.5798
10800TIP3    H153891   0.871   6.632   3.791  0.6608 -0.6234  0.1862
10800TIP3    H253892   0.797   6.540   3.696 -0.3341  1.1009 -0.7637
10801TIP3   OH253893   1.745   1.459   4.970  0.4222 -0.2099 -0.2708
10801TIP3    H153894   1.835   1.490   4.981  0.8658 -0.8542 -1.7729
10801TIP3    H253895   1.753   1.381   4.914 -1.0800 -0.2183 -0.5272
10802TIP3   OH253896   1.959   1.600  12.298  0.0750 -0.2327  0.3631
10802TIP3    H153897   1.942   1.535  12.366 -0.0761 -0.1939  0.3643
10802TIP3    H253898   2.039   1.570  12.255 -0.2812 -0.7071  0.0191
10803TIP3   OH253899   5.309   4.488  15.037 -0.1633  0.2472 -0.0107
10803TIP3    H153900   5.249   4.420  15.069  0.5380 -0.0839  0.6200
10803TIP3    H253901   5.252   4.563  15.020 -0.7111  0.0692  0.9459
10804TIP3   OH253902   3.132   3.224   3.681  0.1150 -0.3874  0.4852
10804TIP3    H153903   3.142   3.233   3.776 -0.6167 -2.6340  0.8482
10804TIP3    H253904   3.195   3.156   3.657  0.1784  0.0456 -0.6234
10805TIP3   OH253905   0.761   3.309   1.668  0.0237  0.3186 -0.3817
10805TIP3    H153906   0.826   3.376   1.646  0.0197  0.2310 -0.6668
10805TIP3    H253907   0.776   3.290   1.761  0.6655  0.0111 -0.5435
10806TIP3   OH253908   1.554   4.888   2.807  0.1216 -0.2742  0.6510
10806TIP3    H153909   1.602   4.946   2.866  1.3198  2.9580 -3.0934
10806TIP3    H253910   1.618   4.861   2.742 -1.8437 -0.6597 -1.2323
10807TIP3   OH253911   6.669   0.274  13.771  0.1686  0.4106 -0.0011
10807TIP3    H153912   6.723   0.202  13.804  1.4652  1.1240 -0.5007
10807TIP3    H253913   6.639   0.319  13.850 -1.0552 -0.9034  0.3456
10808TIP3   OH253914   5.454   2.468  11.515  0.1828  0.0378  0.3532
10808TIP3    H153915   5.492   2.520  11.444 -0.1717  0.5441  0.5290
10808TIP3    H253916   5.499   2.384  11.510 -1.5802 -0.9133 -2.1286
10809TIP3   OH253917   6.621   0.801  15.942  0.1912 -0.0876 -0.2000
10809TIP3    H153918   6.696   0.857  15.922 -0.7464  0.9513 -0.9645
10809TIP3    H253919   6.656   0.712  15.940  1.6429  0.4245  0.6575
10810TIP3   OH253920   2.611   6.209  16.652 -0.0871 -0.3769 -0.0188
10810TIP3    H153921   2.574   6.123  16.672  0.1008 -0.2873  0.7622
10810TIP3    H253922   2.555   6.271  16.700  1.1455 -0.2551  1.3346
10811TIP3   OH253923   5.570   1.983  15.178 -0.4886 -0.0614  0.3979
10811TIP3    H153924   5.664   1.968  15.171 -0.5556 -0.1324 -0.5217
10811TIP3    H253925   5.562   2.074  15.205 -0.1566 -0.0398  0.4262
10812TIP3   OH253926   4.425   2.857   1.748  0.0350  0.1790 -0.3886
10812TIP3    H153927   4.359   2.906   1.698 -0.3934  0.8461  0.8019
10812TIP3    H253928   4.508   2.901   1.727 -0.2440  0.9536  0.0694
10813TIP3   OH253929   1.410   0.506   5.306  0.4309  0.3308 -0.5739
10813TIP3    H153930   1.407   0.512   5.402 -1.0012  0.9891 -0.6437
10813TIP3    H253931   1.437   0.593   5.278  1.0457  0.0808 -0.7790
10814TIP3   OH253932   3.935   6.271  11.617  0.1002 -0.2564 -0.6438
10814TIP3    H153933   3.980   6.353  11.639 -0.3480  0.0710 -0.9506
10814TIP3    H253934   3.878   6.294  11.544 -0.4915 -0.6974 -0.3203
10815TIP3   OH253935   1.068   1.077   2.655 -0.1711 -0.4551  0.1939
10815TIP3    H153936   1.071   0.984   2.676 -0.9856 -0.9063 -1.5168
10815TIP3    H253937   1.075   1.081   2.560 -0.3203  1.2254  0.2162
10816TIP3   OH253938   6.382   4.189  12.187 -0.4677  0.1985  0.4155
10816TIP3    H153939   6.444   4.130  12.230 -0.2594 -0.3297 -0.5789
10816TIP3    H253940   6.425   4.214  12.105 -1.6582 -0.3520 -0.4014
10817TIP3   OH253941   0.511   2.704   6.129 -0.0100 -0.0515 -0.3868
10817TIP3    H153942   0.427   2.750   6.124  0.2375  0.4388 -0.0621
10817TIP3    H253943   0.487   2.612   6.140 -0.5091  0.1390  0.1822
10818TIP3   OH253944   1.994   5.014  14.765  0.1995  0.4431 -0.0736
10818TIP3    H153945   1.901   5.031  14.747  0.5192  0.4601 -1.8613
10818TIP3    H253946   2.025   5.094  14.807 -0.3565  0.8676 -0.4576
10819TIP3   OH253947   0.860   3.526  16.113  0.3666 -0.2529 -0.5947
10819TIP3    H153948   0.863   3.594  16.045 -1.9835  0.6952  0.1367
10819TIP3    H253949   0.865   3.574  16.195 -2.9958 -0.6624 -0.0157
10820TIP3   OH253950   0.530   1.765   1.560 -0.5532  0.4570  0.2539
10820TIP3    H153951   0.576   1.738   1.640 -0.1883 -1.0377 -0.4266
10820TIP3    H253952   0.555   1.857   1.549  1.3280  0.0388  0.5859
10821TIP3   OH253953   1.582   5.410  10.711 -1.0390 -0.4777 -0.0948
10821TIP3    H153954   1.539   5.496  10.708 -1.4113 -0.6875 -0.9037
10821TIP3    H253955   1.552   5.372  10.794 -0.9554  0.1253  0.2197
10822TIP3   OH253956   2.683   5.660   3.381  0.7121  0.1999  0.0343
10822TIP3    H153957   2.761   5.610   3.406 -0.1955 -0.5292  1.5248
10822TIP3    H253958   2.707   5.751   3.398  0.9629 -0.0860  1.3391
10823TIP3   OH253959   3.914   6.036   3.146  0.8216 -0.2246  0.1592
10823TIP3    H153960   3.853   6.104   3.175 -0.4963 -1.5325  0.5803
10823TIP3    H253961   3.986   6.084   3.105  0.0204  1.4194  0.5969
10824TIP3   OH253962   6.052   2.199  12.654 -0.2185  0.0725 -0.3550
10824TIP3    H153963   6.016   2.143  12.586  0.1820 -0.4970 -0.1134
10824TIP3    H253964   6.041   2.148  12.735  0.9583 -0.0544 -0.2549
10825TIP3   OH253965   3.920   6.264  13.391  0.3299  0.6017  0.2470
10825TIP3    H153966   3.933   6.359  13.392 -1.9684  1.0014 -0.7019
10825TIP3    H253967   3.826   6.253  13.381  0.6734 -1.7782 -1.2271
10826TIP3   OH253968   1.949   0.929   0.020 -0.0943  0.5386 -0.6246
10826TIP3    H153969   1.865   0.884   0.010 -0.7876  2.2446 -3.8011
10826TIP3    H253970   1.931   0.998   0.085  0.0518 -1.4536  1.6727
10827TIP3   OH253971   5.530   1.974   3.686  0.5302 -0.0034  0.1477
10827TIP3    H153972   5.488   2.056   3.711  3.3332  2.1768 -1.6487
10827TIP3    H253973   5.565   1.939   3.768  0.8153  1.5618  0.7246
10828TIP3   OH253974   3.212   2.532   4.092 -0.2370 -0.3584 -0.0839
10828TIP3    H153975   3.268   2.607   4.108 -2.6817  1.6672 -0.3681
10828TIP3    H253976   3.209   2.485   4.175  1.4734 -0.2918  0.0458
10829TIP3   OH253977   5.347   4.949   3.371 -0.5440 -0.1420  0.3525
10829TIP3    H153978   5.386   5.018   3.426 -1.9353  0.7781  0.2406
10829TIP3    H253979   5.309   4.997   3.297 -2.1310 -0.9439  0.6101
10830TIP3   OH253980   2.628   5.219   5.517  0.0472 -0.1237  0.3802
10830TIP3    H153981   2.593   5.130   5.522 -0.0803 -0.0455  0.9773
10830TIP3    H253982   2.579   5.267   5.584  0.1384  0.3857  0.0791
10831TIP3   OH253983   3.321   6.126  14.001 -0.6015  0.4917  0.0340
10831TIP3    H153984   3.333   6.136  14.095 -2.8200  0.0792  0.4022
10831TIP3    H253985   3.360   6.040  13.982 -2.6219 -0.7376  1.1331
10832TIP3   OH253986   6.520   2.036   4.971  0.0571  0.7760 -0.2573
10832TIP3    H153987   6.518   2.051   5.065 -2.8426  0.8173 -0.2412
10832TIP3    H253988   6.510   1.941   4.961  2.7886  0.4350 -0.5783
10833TIP3   OH253989   2.334   6.558  16.999 -0.6808  0.0262 -0.1322
10833TIP3    H153990   2.255   6.601  16.966 -0.7457  0.7219  0.8916
10833TIP3    H253991   2.307   6.514  17.079  0.0178  0.4892  0.3709
10834TIP3   OH253992   3.152   5.010  13.530  0.3837  0.1778  0.0221
10834TIP3    H153993   3.182   5.075  13.466 -1.0550  2.5275  1.5563
10834TIP3    H253994   3.071   5.048  13.566  1.6026 -0.4796  3.9085
10835TIP3   OH253995   5.430   6.099  10.814  0.0086  0.1607  0.3142
10835TIP3    H153996   5.345   6.117  10.854  0.5057  1.0777  0.9944
10835TIP3    H253997   5.410   6.043  10.739 -1.5001  2.2317 -0.9411
10836TIP3   OH253998   0.873   4.357   0.720 -0.0139  0.3291 -0.2438
10836TIP3    H153999   0.895   4.446   0.749  0.0321  0.1829  0.1761
10836TIP3    H254000   0.902   4.301   0.792 -1.1914  0.0760  0.0584
10837TIP3   OH254001   2.502   1.421  15.685 -0.1630 -0.1911  0.1250
10837TIP3    H154002   2.480   1.417  15.592 -1.1206 -0.5464  0.3555
10837TIP3    H254003   2.419   1.441  15.729  0.6160  1.9488  0.7667
10838TIP3   OH254004   0.587   0.925   5.592  0.4696  0.9370 -0.7076
10838TIP3    H154005   0.578   0.990   5.522  0.2304  0.2541 -1.3202
10838TIP3    H254006   0.656   0.866   5.561  1.7241  1.6961  0.4878
10839TIP3   OH254007   2.335   1.707   0.746 -0.6272 -0.0376 -0.4756
10839TIP3    H154008   2.244   1.703   0.777 -0.5473 -0.6013 -0.3104
10839TIP3    H254009   2.338   1.788   0.694 -1.1278  0.1758 -0.1884
10840TIP3   OH254010   1.310   3.324   0.634  0.5256 -0.0375 -0.0907
10840TIP3    H154011   1.254   3.335   0.711 -1.3005 -0.4655 -1.3045
10840TIP3    H254012   1.399   3.324   0.669 -0.2563 -0.3007  2.0281
10841TIP3   OH254013   4.368   3.448   4.681  0.1555  0.0704  0.0971
10841TIP3    H154014   4.284   3.414   4.712 -0.7723 -2.2245 -4.1065
10841TIP3    H254015   4.351   3.540   4.663 -1.9174 -0.5292 -1.5318
10842TIP3   OH254016   0.302   6.158  13.566 -0.5962 -0.4922  0.2826
10842TIP3    H154017   0.256   6.208  13.498 -0.5106 -1.2059 -0.3107
10842TIP3    H254018   0.266   6.070  13.560  3.6070 -2.3321 -3.0695
10843TIP3   OH254019   0.291   5.842  14.592  0.0589 -0.0992 -0.3003
10843TIP3    H154020   0.246   5.922  14.565  0.1080  0.0516  0.0648
10843TIP3    H254021   0.384   5.866  14.595  0.0170 -0.0120  0.3699
10844TIP3   OH254022   0.602   5.538  16.354 -0.1687 -0.0067 -0.1026
10844TIP3    H154023   0.659   5.610  16.328  0.9213  0.2253  2.5769
10844TIP3    H254024   0.516   5.562  16.320  0.2816  2.2985  0.2300
10845TIP3   OH254025   2.101   2.115  15.612  0.1863 -0.9612 -0.1379
10845TIP3    H154026   2.071   2.028  15.638 -1.6673 -0.0245  1.1272
10845TIP3    H254027   2.024   2.156  15.573  0.8171  0.3257 -0.1008
10846TIP3   OH254028   2.136   6.167  16.317  0.3070 -0.4799 -0.6953
10846TIP3    H154029   2.205   6.164  16.384 -0.5027 -1.1477  0.1263
10846TIP3    H254030   2.057   6.138  16.362 -1.1314  2.6941 -0.9068
10847TIP3   OH254031   3.361   4.655  14.296  0.1684 -0.2604 -0.3605
10847TIP3    H154032   3.429   4.696  14.243  0.9550 -0.2373  0.6272
10847TIP3    H254033   3.368   4.561  14.277  0.9561 -0.3376  0.2333
10848TIP3   OH254034   4.338   5.679   1.849  0.0456  0.6176 -0.2125
10848TIP3    H154035   4.262   5.694   1.905 -0.2011  0.4687 -0.5074
10848TIP3    H254036   4.393   5.618   1.899 -0.3734  0.1516 -0.3143
10849TIP3   OH254037   5.077   0.288  11.613  0.6594 -0.2962  0.1380
10849TIP3    H154038   5.131   0.266  11.537 -2.5170 -1.1635 -2.1297
10849TIP3    H254039   5.058   0.381  11.603  0.7515 -0.2716  0.2001
10850TIP3   OH254040   1.654   3.721  11.788  0.2909 -0.6712 -0.6794
10850TIP3    H154041   1.690   3.633  11.783 -0.1235 -1.0037  1.3234
10850TIP3    H254042   1.563   3.709  11.816  0.2835  0.3827 -0.1972
10851TIP3   OH254043   0.175   3.548  16.500 -0.3374 -0.2464  0.5592
10851TIP3    H154044   0.193   3.457  16.474  1.2001 -0.4531  2.1436
10851TIP3    H254045   0.152   3.542  16.593 -1.3729  0.8855  0.3979
10852TIP3   OH254046   2.946   4.062  15.082 -0.2656  0.0788  0.0352
10852TIP3    H154047   2.990   3.989  15.038 -4.3824 -1.2477 -2.3386
10852TIP3    H254048   2.928   4.125  15.012  0.1732  1.8541  1.4306
10853TIP3   OH254049   4.495   4.997   5.818 -0.4192 -0.7766  0.3334
10853TIP3    H154050   4.425   5.062   5.824  0.0834 -0.2200  0.1696
10853TIP3    H254051   4.512   4.972   5.909  1.0639  1.1280  0.6306
10854TIP3   OH254052   0.690   6.019   3.685 -0.2041 -0.2430 -0.0751
10854TIP3    H154053   0.649   5.935   3.665 -0.5863 -0.4090  1.2812
10854TIP3    H254054   0.754   5.998   3.754  1.9126  0.0797 -1.8084
10855TIP3   OH254055   2.511   5.553  15.939  0.2924  0.6545 -0.0556
10855TIP3    H154056   2.543   5.530  15.852  0.6433 -1.7007  0.6325
10855TIP3    H254057   2.564   5.628  15.965  1.0551  0.5874 -1.3529
10856TIP3   OH254058   1.953   3.091   4.319  0.2414 -0.3195 -0.0509
10856TIP3    H154059   1.971   3.174   4.274 -3.4856  0.5452 -0.2291
10856TIP3    H254060   2.005   3.027   4.270  2.9756  1.7551 -0.1278
10857TIP3   OH254061   2.276   6.583  15.316 -0.4101  0.2411 -0.4926
10857TIP3    H154062   2.320   6.553  15.396 -1.2029  2.0711  0.6951
10857TIP3    H254063   2.297   6.516  15.251 -0.8348 -2.0192  1.5596
10858TIP3   OH254064   1.352   5.551   5.500  0.1124  0.3762 -0.1013
10858TIP3    H154065   1.422   5.486   5.497  0.0752  0.3037  0.4704
10858TIP3    H254066   1.323   5.559   5.409 -0.5381 -1.1380 -0.0607
10859TIP3   OH254067   6.607   1.600   2.442 -0.1406  0.3057  0.0293
10859TIP3    H154068   6.658   1.599   2.523  1.7095  2.3179 -1.0088
10859TIP3    H254069   6.632   1.519   2.397  0.9065  0.4749  0.2802
10860TIP3   OH254070   5.977   6.298   0.814  0.2006 -0.1526 -0.2749
10860TIP3    H154071   5.992   6.204   0.814 -1.8796 -0.5823  1.4953
10860TIP3    H254072   5.985   6.324   0.906  0.8976  1.4657 -0.7434
10861TIP3   OH254073   3.763   6.174  11.052 -0.3039 -0.7348 -0.2833
10861TIP3    H154074   3.702   6.237  11.014  0.6059  1.6938  1.9641
10861TIP3    H254075   3.817   6.145  10.978 -0.0796  1.9871 -1.3001
10862TIP3   OH254076   3.679   2.951  13.335 -0.0091 -0.1899 -0.1074
10862TIP3    H154077   3.653   2.928  13.424  1.2351  1.4270  0.7282
10862TIP3    H254078   3.726   2.875  13.303 -1.2583 -1.1471  0.2440
10863TIP3   OH254079   4.221   6.832  14.313 -0.6684 -0.3637  0.1337
10863TIP3    H154080   4.292   6.787  14.266 -1.3591 -2.1289  0.6961
10863TIP3    H254081   4.152   6.766  14.321 -2.3041  1.2307 -0.1809
10864TIP3   OH254082   3.545   2.474  10.714  0.0540  0.6882  0.4430
10864TIP3    H154083   3.466   2.436  10.675  0.5643 -0.7512  0.7495
10864TIP3    H254084   3.529   2.473  10.808 -0.1699  1.8242  0.4233
10865TIP3   OH254085   4.042   1.496  14.616  0.0905 -0.0076 -0.3112
10865TIP3    H154086   4.129   1.508  14.654 -0.3119  0.9902  0.3290
10865TIP3    H254087   4.006   1.584  14.609 -0.5106 -0.3148 -1.4656
10866TIP3   OH254088   0.973   0.493   5.622  0.1293  0.1481 -0.1940
10866TIP3    H154089   1.008   0.520   5.706  0.0893  2.2613 -0.8007
10866TIP3    H254090   1.030   0.421   5.594 -0.8704 -1.7844  2.3247
10867TIP3   OH254091   3.759   5.087  13.312  0.5869  0.2809  0.1623
10867TIP3    H154092   3.783   5.103  13.403  1.3785 -0.6944  0.1363
10867TIP3    H254093   3.719   5.000  13.312  0.1353  0.4826 -0.3440
10868TIP3   OH254094   2.537   4.253   2.302 -0.2957 -0.2150  0.4078
10868TIP3    H154095   2.462   4.311   2.285  0.6755  0.4876 -1.8089
10868TIP3    H254096   2.601   4.310   2.345  0.8716  0.6395 -2.2546
10869TIP3   OH254097   1.613   6.590  17.106 -0.1635  0.0933  0.3133
10869TIP3    H154098   1.610   6.598  17.011  1.0966 -0.8294  0.1640
10869TIP3    H254099   1.654   6.504  17.121 -2.9068 -1.1230  1.6821
10870TIP3   OH254100   5.061   2.951   2.482 -0.4589 -0.5886 -0.7421
10870TIP3    H154101   5.091   3.013   2.415  1.2200 -0.7068 -0.1449
10870TIP3    H254102   5.125   2.880   2.480 -0.7156 -0.8835  0.5898
10871TIP3   OH254103   1.612   6.443   6.208 -0.1503  0.1353  0.3181
10871TIP3    H154104   1.672   6.382   6.251 -0.0364 -1.5288 -2.0069
10871TIP3    H254105   1.669   6.511   6.171 -0.0697  0.4737  1.0406
10872TIP3   OH254106   1.418   4.769  14.206  0.1668 -0.1921  0.3201
10872TIP3    H154107   1.363   4.716  14.264  0.4905  0.1014  0.9112
10872TIP3    H254108   1.383   4.857  14.214 -1.1090 -0.4787 -1.5571
10873TIP3   OH254109   4.868   0.160  16.995  0.1720 -0.3690 -0.3143
10873TIP3    H154110   4.927   0.232  16.973  0.4179  0.1906  1.9332
10873TIP3    H254111   4.919   0.081  16.978  0.7543  0.0508 -0.5471
10874TIP3   OH254112   2.817   0.378   5.858 -1.0316  0.3431 -0.0983
10874TIP3    H154113   2.823   0.451   5.920 -1.6126  0.0621  0.3038
10874TIP3    H254114   2.845   0.302   5.909 -1.3300  0.1414 -0.2343
10875TIP3   OH254115   5.522   1.539   2.078  0.0151 -0.2320 -0.1850
10875TIP3    H154116   5.609   1.500   2.086  0.2026  0.1791 -0.1591
10875TIP3    H254117   5.519   1.606   2.147 -0.0093  0.3122 -0.7033
10876TIP3   OH254118   4.307   3.952  13.474 -0.6989  0.0480 -0.0026
10876TIP3    H154119   4.330   4.039  13.440 -1.9661  0.4530  0.1229
10876TIP3    H254120   4.357   3.891  13.420  0.5581  0.8673  0.1940
10877TIP3   OH254121   2.277   1.497   1.996  0.1275  0.6661 -0.2046
10877TIP3    H154122   2.244   1.415   2.032  1.5040  0.2554  0.1823
10877TIP3    H254123   2.199   1.543   1.966 -0.5964 -1.2797 -1.5204
10878TIP3   OH254124   0.669   6.223  12.935  0.5290 -0.0133  0.3933
10878TIP3    H154125   0.686   6.291  12.870  0.1233  1.1306  1.4352
10878TIP3    H254126   0.579   6.194  12.918  0.9013 -0.7567 -0.4290
10879TIP3   OH254127   0.976   2.090   5.141  0.1573 -0.1413  0.0077
10879TIP3    H154128   0.989   1.998   5.165  0.8478 -0.2418 -0.7440
10879TIP3    H254129   0.880   2.100   5.135  0.0403 -0.5751  0.9586
10880TIP3   OH254130   1.731   1.589  15.124 -1.2092  0.4816  0.5564
10880TIP3    H154131   1.782   1.512  15.100 -1.3203  1.0490 -1.7927
10880TIP3    H254132   1.656   1.555  15.172 -0.6651 -0.7448  0.5667
10881TIP3   OH254133   6.732   3.035  13.417  0.4025  0.3745  0.0735
10881TIP3    H154134   6.751   3.071  13.330 -0.7210 -0.7618 -0.6665
10881TIP3    H254135   6.789   3.085  13.476 -1.4422  3.8540 -0.7648
10882TIP3   OH254136   3.479   3.677  13.450 -0.2969 -0.1732  0.2418
10882TIP3    H154137   3.513   3.752  13.499 -0.4632 -0.2928  0.5394
10882TIP3    H254138   3.514   3.600  13.496 -0.0821 -0.2789 -0.0950
10883TIP3   OH254139   2.215   2.205   0.586 -0.7389  0.0135  0.3038
10883TIP3    H154140   2.212   2.283   0.529  0.7256  1.2702  1.8245
10883TIP3    H254141   2.242   2.239   0.671 -0.2563 -2.1568  1.0801
10884TIP3   OH254142   4.861   6.652   3.360  0.0332 -0.0668 -0.0798
10884TIP3    H154143   4.931   6.717   3.372  0.3346 -0.1800 -1.1495
10884TIP3    H254144   4.789   6.685   3.413  1.1614 -0.3998  1.7784
10885TIP3   OH254145   0.354   0.363   5.558 -0.0820 -0.8426 -0.3723
10885TIP3    H154146   0.296   0.416   5.614 -1.9946 -1.8889 -1.2835
10885TIP3    H254147   0.435   0.414   5.554 -0.9185  0.7093  0.9219
10886TIP3   OH254148   0.036   4.846  15.033 -0.1280 -0.2626  0.4733
10886TIP3    H154149   0.074   4.785  15.096 -0.6546  0.0462  1.1189
10886TIP3    H254150  -0.019   4.903  15.087 -0.7055 -0.0779 -0.2933
10887TIP3   OH254151   3.643   0.499  15.014  0.2909 -0.3536  0.1817
10887TIP3    H154152   3.594   0.435  15.066  0.5025 -0.4141  0.3084
10887TIP3    H254153   3.723   0.515  15.064  0.2792 -0.0524  0.1077
10888TIP3   OH254154   4.533   4.027  14.316  0.2327 -0.0944 -0.6225
10888TIP3    H154155   4.560   3.935  14.326 -0.6196 -0.3796 -0.7858
10888TIP3    H254156   4.481   4.045  14.394  0.7634  0.3925 -0.3799
10889TIP3   OH254157   4.676   4.173  11.135 -0.0980  0.0843  0.4592
10889TIP3    H154158   4.640   4.243  11.190  1.6349  1.2074  0.2294
10889TIP3    H254159   4.769   4.171  11.157  0.3837 -0.3497 -1.4814
10890TIP3   OH254160   0.728   5.945  12.083  0.4230 -0.0787  0.5594
10890TIP3    H154161   0.658   5.891  12.120 -0.3748  1.4081  1.3038
10890TIP3    H254162   0.685   5.998  12.016  1.0561  0.1139  0.2971
10891TIP3   OH254163   2.272   3.375   4.517 -0.4509 -0.4241  0.1253
10891TIP3    H154164   2.344   3.411   4.465  0.1922 -0.2907  1.0801
10891TIP3    H254165   2.280   3.418   4.602 -1.1385 -1.0538  0.5214
10892TIP3   OH254166   3.344   5.387  15.700 -1.1410 -0.4517 -0.7790
10892TIP3    H154167   3.371   5.366  15.790 -0.4497  0.6141 -0.7119
10892TIP3    H254168   3.425   5.419  15.659 -2.1262  2.3405 -0.7489
10893TIP3   OH254169   1.967   5.636  13.318  0.3860  0.3502  0.5815
10893TIP3    H154170   1.993   5.689  13.243 -1.7723  0.6910 -0.0082
10893TIP3    H254171   1.952   5.549  13.282  0.8035  0.1283  0.9287
10894TIP3   OH254172   1.378   2.903  13.577 -0.2495 -0.0146 -0.6059
10894TIP3    H154173   1.301   2.852  13.554 -0.2175 -1.4136  1.9789
10894TIP3    H254174   1.378   2.904  13.673  2.8986 -0.0511 -0.4969
10895TIP3   OH254175   4.700   6.564   3.161  0.2724 -0.1533 -0.4212
10895TIP3    H154176   4.776   6.559   3.220 -0.4481 -0.4496  0.5027
10895TIP3    H254177   4.682   6.472   3.138  0.0983 -0.0930 -0.5251
10896TIP3   OH254178   5.095   2.780   3.867 -0.2060  0.8336 -0.7172
10896TIP3    H154179   5.169   2.780   3.806  3.3625  3.6436  3.0527
10896TIP3    H254180   5.048   2.861   3.848  0.5979  1.4513 -0.1244
10897TIP3   OH254181   3.333   3.015  12.157  0.2616 -0.4721 -0.6032
10897TIP3    H154182   3.366   3.099  12.188  0.5580 -0.9899  0.5104
10897TIP3    H254183   3.268   3.038  12.090 -1.1181  0.7064  1.0732
10898TIP3   OH254184   4.175   3.710   1.796 -0.6926  0.1115  0.5114
10898TIP3    H154185   4.121   3.783   1.768 -0.1001  1.0725  1.7731
10898TIP3    H254186   4.112   3.642   1.821 -1.2780  0.7098  0.6833
10899TIP3   OH254187   4.120   1.002   5.282 -0.2241 -0.5506 -0.2226
10899TIP3    H154188   4.166   0.992   5.198  2.2494 -0.2717  0.9961
10899TIP3    H254189   4.180   0.963   5.346  0.0605  3.0274  1.9476
10900TIP3   OH254190   3.346   5.614   5.422 -0.2332 -0.2534 -0.3704
10900TIP3    H154191   3.347   5.612   5.326 -1.4823 -0.7507 -0.3934
10900TIP3    H254192   3.316   5.527   5.448 -0.8668  0.1853  0.4395
10901TIP3   OH254193   6.810   6.092  16.014 -0.4733 -0.0974  0.0598
10901TIP3    H154194   6.864   6.032  16.065  0.3027 -0.4557 -1.1510
10901TIP3    H254195   6.873   6.147  15.966 -1.1772  0.1288 -0.6257
10902TIP3   OH254196   1.461   0.965   1.436  0.1708 -0.9146  0.3479
10902TIP3    H154197   1.538   0.960   1.493  2.7345  0.0132 -2.6894
10902TIP3    H254198   1.474   0.895   1.372 -0.2314  0.6552 -1.5681
10903TIP3   OH254199   0.016   4.888   0.123 -0.1255  0.7577 -0.6205
10903TIP3    H154200   0.013   4.846   0.037 -2.4410 -3.2539  1.1095
10903TIP3    H254201   0.085   4.841   0.170 -0.6672  1.0137  0.4669
10904TIP3   OH254202   0.987   0.513  13.576  0.1588 -0.0636  0.5333
10904TIP3    H154203   1.026   0.599  13.558  2.8578 -1.1049  0.8474
10904TIP3    H254204   1.034   0.482  13.653  1.5500 -3.0743 -1.3605
10905TIP3   OH254205   6.609   1.518   3.156 -0.0033  0.2507 -0.6398
10905TIP3    H154206   6.597   1.554   3.243  1.6442 -1.6403  0.4657
10905TIP3    H254207   6.599   1.423   3.168  2.1658 -0.2356 -2.0892
10906TIP3   OH254208   2.845   6.438   2.121  0.2885  0.6205 -0.0311
10906TIP3    H154209   2.754   6.462   2.138  0.2041  1.0173 -0.9763
10906TIP3    H254210   2.863   6.472   2.033  1.2177  0.1732 -0.0290
10907TIP3   OH254211   3.218   1.177   2.166  0.0624  0.2022  0.1744
10907TIP3    H154212   3.221   1.242   2.096 -0.7801  0.4801  0.3743
10907TIP3    H254213   3.127   1.148   2.167  0.6503 -1.8422 -0.6680
10908TIP3   OH254214   1.997   6.173   5.356  0.3265 -0.1114 -0.7247
10908TIP3    H154215   1.915   6.222   5.361  0.0811 -0.4827 -1.0703
10908TIP3    H254216   2.012   6.145   5.446  1.0365  1.4935 -0.3107
10909TIP3   OH254217   3.616   6.603   2.721 -0.2818 -0.1376  0.7604
10909TIP3    H154218   3.536   6.614   2.670 -0.1714 -0.3274  0.5426
10909TIP3    H254219   3.682   6.576   2.657  0.7426  2.9648  0.3583
10910TIP3   OH254220   2.370   4.643  10.895 -0.1139  0.2098 -0.3188
10910TIP3    H154221   2.291   4.628  10.946  0.0246  1.1910  0.2104
10910TIP3    H254222   2.439   4.596  10.943 -0.1971  0.1686 -0.2402
10911TIP3   OH254223   0.459   0.495  12.444  0.5863 -0.0441 -1.1160
10911TIP3    H154224   0.370   0.461  12.435 -0.1601  1.1127  1.0645
10911TIP3    H254225   0.515   0.422  12.419 -0.9617 -1.6242 -0.2473
10912TIP3   OH254226   3.254   5.267   6.180  0.3686  0.2433  0.1180
10912TIP3    H154227   3.181   5.210   6.153  0.2351  0.2109  0.5356
10912TIP3    H254228   3.225   5.304   6.264  0.0067  1.7440 -0.6266
10913TIP3   OH254229   2.512   4.630   3.397 -0.3742  0.0672  0.2864
10913TIP3    H154230   2.606   4.648   3.388 -0.1040 -0.1451  2.2310
10913TIP3    H254231   2.496   4.558   3.336  0.6955  0.1795 -0.1602
10914TIP3   OH254232   6.248   5.836  15.248  0.2738  0.3290 -0.0668
10914TIP3    H154233   6.278   5.801  15.331  0.2413  0.5355  0.0321
10914TIP3    H254234   6.176   5.894  15.271  0.7127  0.9192 -0.1778
10915TIP3   OH254235   0.881   1.148   1.515 -0.1260  0.9366  0.3375
10915TIP3    H154236   0.832   1.220   1.475  0.3778  0.9064 -0.3439
10915TIP3    H254237   0.894   1.085   1.444  1.5919  1.3064  0.2963
10916TIP3   OH254238   5.391   5.697  15.871  0.2269 -0.0126  0.6186
10916TIP3    H154239   5.388   5.654  15.956  1.1457  1.0349  1.2079
10916TIP3    H254240   5.406   5.790  15.891  2.6112 -0.0176 -0.6936
10917TIP3   OH254241   3.859   1.855  11.594  0.1883  0.1448 -0.1077
10917TIP3    H154242   3.919   1.781  11.597  0.4066  0.2464 -1.6091
10917TIP3    H254243   3.832   1.862  11.503 -1.1435  0.8839  0.3063
10918TIP3   OH254244   6.098   2.682  11.576  0.1476 -0.1053  0.0665
10918TIP3    H154245   6.019   2.699  11.525  0.3652  0.0404 -0.2208
10918TIP3    H254246   6.098   2.587  11.589  0.6449 -0.2760 -1.1002
10919TIP3   OH254247   0.981   6.473  11.037  0.1998 -0.1241  0.5942
10919TIP3    H154248   1.069   6.453  11.069  0.7625 -0.1837 -0.9159
10919TIP3    H254249   0.995   6.516  10.952 -1.1789  1.4646  1.1242
10920TIP3   OH254250   3.924   0.534   0.438 -0.6529 -0.1920 -0.6368
10920TIP3    H154251   3.918   0.448   0.397  3.1781 -0.9434  0.0157
10920TIP3    H254252   3.888   0.520   0.526 -0.2244 -1.1161 -0.5885
10921TIP3   OH254253   2.240   0.273   0.939 -0.0083  0.6084 -0.1364
10921TIP3    H154254   2.308   0.328   0.900 -1.0275  0.4104 -2.3483
10921TIP3    H254255   2.160   0.296   0.892 -1.4370  0.5219  2.0930
10922TIP3   OH254256   5.427   0.389  14.386 -0.0827 -0.3301 -0.3003
10922TIP3    H154257   5.427   0.423  14.475  0.8497 -0.0263 -0.4046
10922TIP3    H254258   5.376   0.308  14.391 -0.5614  0.0056  0.3743
10923TIP3   OH254259   2.808   3.671  12.300  0.1971 -0.2081 -0.3333
10923TIP3    H154260   2.807   3.743  12.238 -3.6139 -0.6250 -0.9901
10923TIP3    H254261   2.778   3.709  12.383  4.6558  0.2156  1.3415
10924TIP3   OH254262   5.854   2.230  14.525 -0.0771  0.3231 -0.3112
10924TIP3    H154263   5.914   2.266  14.591 -0.8609  2.2468 -0.5720
10924TIP3    H254264   5.910   2.213  14.449  0.5636 -0.4407  0.3128
10925TIP3   OH254265   3.033   4.772  12.828 -0.1914 -0.2436  0.0955
10925TIP3    H154266   3.057   4.681  12.811  0.2945 -0.1191  0.1042
10925TIP3    H254267   2.940   4.777  12.807 -0.4696 -0.9981  1.0629
10926TIP3   OH254268   1.094   5.852  14.950  1.1061  0.2719 -0.1821
10926TIP3    H154269   1.035   5.849  14.875  1.6790  0.1683 -0.6375
10926TIP3    H254270   1.117   5.760  14.966  0.4636  0.2268  0.5496
10927TIP3   OH254271   2.071   6.716   5.507 -0.2160  0.0788  0.2383
10927TIP3    H154272   1.990   6.682   5.470  0.0263  0.6011 -0.7979
10927TIP3    H254273   2.057   6.712   5.602 -0.8604 -1.2452  0.1184
10928TIP3   OH254274   5.610   2.352  14.721 -0.0749  0.7194  0.1713
10928TIP3    H154275   5.579   2.404  14.647 -2.0321  0.5511  0.8186
10928TIP3    H254276   5.561   2.386  14.796  1.3565  0.4159  1.2833
10929TIP3   OH254277   1.062   5.844   5.097 -0.7717  0.4531  0.1235
10929TIP3    H154278   1.050   5.751   5.080  0.2600  0.4427 -0.6987
10929TIP3    H254279   1.155   5.859   5.078 -1.0843  1.7871 -0.4375
10930TIP3   OH254280   4.846   2.883   4.525 -0.4883 -0.2634  0.3853
10930TIP3    H154281   4.760   2.841   4.516 -0.3488 -0.3636 -0.6838
10930TIP3    H254282   4.871   2.868   4.616 -1.7177 -0.0043  0.7974
10931TIP3   OH254283   3.586   1.101   1.286  0.3308  0.4404  0.5894
10931TIP3    H154284   3.564   1.191   1.263  1.0634  1.3014  2.9058
10931TIP3    H254285   3.677   1.091   1.257 -0.0168  0.1438 -0.4210
10932TIP3   OH254286   3.253   0.072  11.767  0.5424  0.2669  0.2015
10932TIP3    H154287   3.209   0.009  11.710  0.1472  1.9525 -1.4773
10932TIP3    H254288   3.200   0.152  11.760  2.8870  1.8752 -0.6218
10933TIP3   OH254289   3.825   2.886   2.766 -0.3895  0.0514  0.1186
10933TIP3    H154290   3.754   2.914   2.824 -0.6867 -0.6426  0.1018
10933TIP3    H254291   3.830   2.955   2.700 -0.9491  0.1851  0.2107
10934TIP3   OH254292   3.709   2.108   3.709  0.0578 -0.0717 -0.4752
10934TIP3    H154293   3.800   2.097   3.684 -0.2499  1.1974 -2.2853
10934TIP3    H254294   3.662   2.039   3.660 -0.0324 -0.4236  0.0910
10935TIP3   OH254295   4.947   5.887   1.787 -0.0544  0.0214  0.4537
10935TIP3    H154296   5.036   5.856   1.804  0.2901 -0.4137 -1.7745
10935TIP3    H254297   4.959   5.962   1.730 -1.0505  2.0620  2.7611
10936TIP3   OH254298   5.216   1.114  14.747  0.1079 -0.9092  0.1780
10936TIP3    H154299   5.214   1.179  14.818  1.2535 -0.9896  0.2971
10936TIP3    H254300   5.265   1.157  14.676 -0.1768 -1.1974 -0.1978
10937TIP3   OH254301   6.255   1.089  11.122  0.1930  0.1539 -0.1277
10937TIP3    H154302   6.232   1.005  11.159  0.6414  0.6700  1.3902
10937TIP3    H254303   6.349   1.098  11.139  0.3305  0.5852 -1.0466
10938TIP3   OH254304   2.225   1.968   2.830  0.1147 -0.3346 -0.2984
10938TIP3    H154305   2.144   1.965   2.779  0.0633  3.5005 -0.7973
10938TIP3    H254306   2.292   1.932   2.771 -0.6773 -0.0763 -1.3856
10939TIP3   OH254307   3.956   1.381   2.387 -0.2495  0.0970 -0.3004
10939TIP3    H154308   3.892   1.450   2.373  0.8144  1.3379  0.7449
10939TIP3    H254309   3.904   1.304   2.409 -1.4033  0.8727 -0.2634
10940TIP3   OH254310   4.319   2.927  15.273 -0.0205 -0.3192 -0.2567
10940TIP3    H154311   4.290   2.996  15.213  2.0984  0.5518 -0.3635
10940TIP3    H254312   4.296   2.845  15.227 -1.3943  0.2899 -0.7164
10941TIP3   OH254313   4.372   3.283  16.308 -0.0371 -0.3628 -0.4026
10941TIP3    H154314   4.465   3.260  16.308 -0.0672 -0.5451 -1.7085
10941TIP3    H254315   4.371   3.378  16.322  0.3786 -0.2834 -0.8719
10942TIP3   OH254316   3.385   4.262  16.399 -0.0651 -0.3356  0.4558
10942TIP3    H154317   3.352   4.260  16.488  1.1884  0.2413  0.9468
10942TIP3    H254318   3.431   4.345  16.391 -0.7679 -0.0333 -0.9686
10943TIP3   OH254319   0.563   3.673  13.977  0.3415  0.5282  0.0075
10943TIP3    H154320   0.544   3.727  14.053 -2.3598  0.5024 -0.5500
10943TIP3    H254321   0.538   3.727  13.902 -0.4108 -0.6987 -0.6584
10944TIP3   OH254322   6.201   4.394   4.852  0.5612  0.0603 -0.4919
10944TIP3    H154323   6.161   4.311   4.825 -0.2016 -0.1334  1.0794
10944TIP3    H254324   6.295   4.380   4.841  0.4451 -1.0151 -0.2752
10945TIP3   OH254325   6.164   5.232   5.393 -0.5077  0.5846  1.0704
10945TIP3    H154326   6.222   5.255   5.466  0.9280 -0.1177  0.1968
10945TIP3    H254327   6.123   5.150   5.419 -1.7147  1.4479  2.0049
10946TIP3   OH254328   3.887   0.594  14.390  0.3068  0.1859  0.0306
10946TIP3    H154329   3.807   0.550  14.417 -0.4353 -0.2595 -2.5689
10946TIP3    H254330   3.917   0.641  14.468 -2.2082 -0.0275  1.2203
10947TIP3   OH254331   2.910   2.822   5.334  0.5320  0.3888 -0.1894
10947TIP3    H154332   2.869   2.773   5.263 -0.2151  0.1776  0.3769
10947TIP3    H254333   3.001   2.834   5.306  0.7356 -1.2998 -0.3495
10948TIP3   OH254334   2.054   3.086   0.980 -0.1209  0.3509 -0.1267
10948TIP3    H154335   1.998   3.061   1.054  0.7052 -0.4263  0.2593
10948TIP3    H254336   2.129   3.129   1.020  0.4872 -0.3651 -0.4707
10949TIP3   OH254337   4.463   5.760   3.587  0.1641  0.0382 -0.1032
10949TIP3    H154338   4.484   5.690   3.648 -1.0833 -1.0906 -0.9222
10949TIP3    H254339   4.438   5.834   3.643  1.3058 -0.2026  0.7632
10950TIP3   OH254340   4.310   2.640   0.398  0.2737  0.7094 -0.1114
10950TIP3    H154341   4.262   2.661   0.478  1.4330  1.0091  0.5392
10950TIP3    H254342   4.402   2.656   0.421  0.8089 -0.9670 -0.9354
10951TIP3   OH254343   2.780   6.190   5.017 -0.2331  0.2306  0.1716
10951TIP3    H154344   2.788   6.284   5.003 -1.4647  0.2237 -0.6934
10951TIP3    H254345   2.688   6.171   5.000  0.1259 -1.2239 -0.2579
10952TIP3   OH254346   5.949   6.396  14.408  0.8490 -0.5738 -0.0112
10952TIP3    H154347   5.921   6.305  14.414 -0.9353 -0.1835 -1.6581
10952TIP3    H254348   6.017   6.396  14.341  1.0610 -0.7326  0.2033
10953TIP3   OH254349   6.512   1.152  13.801 -0.1701  0.2382 -0.1669
10953TIP3    H154350   6.461   1.103  13.737  0.4022  1.1033 -1.3289
10953TIP3    H254351   6.555   1.221  13.750  0.3775  0.9069  1.1402
10954TIP3   OH254352   5.190   3.097   4.985  0.3216 -0.6337 -0.1039
10954TIP3    H154353   5.131   3.114   4.912 -0.1128 -0.7784  0.2112
10954TIP3    H254354   5.132   3.075   5.058  0.7321 -0.1198  0.3845
10955TIP3   OH254355   3.100   5.028   5.285 -0.2254  0.1516  0.7089
10955TIP3    H154356   3.098   5.000   5.377  0.9010  0.4532  0.8463
10955TIP3    H254357   3.067   5.118   5.287  0.1996  0.3046  0.8822
10956TIP3   OH254358   1.684   5.944   0.018 -0.3217 -0.2202 -0.3929
10956TIP3    H154359   1.779   5.955   0.007 -0.3586 -0.0777 -0.5667
10956TIP3    H254360   1.653   6.032   0.042 -0.4281 -0.2412 -0.4542
10957TIP3   OH254361   3.456   4.976   5.893  0.1403  0.1042  0.2176
10957TIP3    H154362   3.414   5.011   5.971 -3.0677 -0.2469 -1.1986
10957TIP3    H254363   3.474   5.052   5.838 -0.7226  0.0741 -0.1071
10958TIP3   OH254364   3.126   1.812  14.566  0.8480  0.2773 -0.3790
10958TIP3    H154365   3.163   1.730  14.534 -2.7149 -1.1489 -1.2754
10958TIP3    H254366   3.111   1.864  14.487 -2.9348 -1.0301 -0.7039
10959TIP3   OH254367   1.002   4.134   2.349 -0.1992  0.0347  0.6312
10959TIP3    H154368   0.932   4.170   2.404 -0.8063  0.3756 -0.3375
10959TIP3    H254369   1.032   4.209   2.298  0.3701 -0.2793  0.4979
10960TIP3   OH254370   5.899   6.425  14.854  0.1911  0.8806 -0.6756
10960TIP3    H154371   5.956   6.355  14.822 -1.3186 -0.1547 -1.2370
10960TIP3    H254372   5.877   6.475  14.776  1.1504  1.9425 -0.2965
10961TIP3   OH254373   0.928   2.879  12.559  0.4924 -0.3291 -0.2755
10961TIP3    H154374   0.960   2.834  12.637  0.6630  0.6799  0.2546
10961TIP3    H254375   0.867   2.945  12.593 -0.4089 -0.7181 -1.0960
10962TIP3   OH254376   5.889   4.889  16.131  0.5813 -0.1092 -0.2295
10962TIP3    H154377   5.932   4.874  16.047 -0.4427 -1.5046 -0.5391
10962TIP3    H254378   5.936   4.832  16.192  3.4816  3.2410  0.9800
10963TIP3   OH254379   1.820   5.136   0.286  0.0870 -0.2031 -0.7701
10963TIP3    H154380   1.846   5.147   0.195 -0.9425  0.3160 -1.0269
10963TIP3    H254381   1.892   5.173   0.337 -0.5643  2.2152 -1.4775
10964TIP3   OH254382   5.024   2.686   2.864 -0.5915  0.2609  0.3651
10964TIP3    H154383   4.994   2.682   2.773  2.9636  0.5606 -0.9963
10964TIP3    H254384   5.002   2.774   2.893  0.4520  1.0664 -1.1669
10965TIP3   OH254385   3.465   0.132  11.365 -0.0108 -0.2576 -0.4196
10965TIP3    H154386   3.526   0.177  11.424  0.2148 -0.6442 -0.3541
10965TIP3    H254387   3.453   0.046  11.405 -0.5360 -0.2128 -0.4782
10966TIP3   OH254388   5.518   6.017  16.403  0.0502  0.4711  0.4922
10966TIP3    H154389   5.447   5.971  16.446 -1.0728  2.3223  0.7291
10966TIP3    H254390   5.596   5.998  16.456 -0.3135 -1.2644  0.4480
10967TIP3   OH254391   6.575   3.050  16.898 -0.3696 -0.3183 -0.3895
10967TIP3    H154392   6.664   3.031  16.868  0.7094  1.5168  1.4371
10967TIP3    H254393   6.586   3.090  16.984 -2.9978 -0.2582  0.0094
10968TIP3   OH254394   2.086   1.654  15.009 -0.1895  0.1531 -0.3532
10968TIP3    H154395   2.082   1.600  15.089 -1.1494  2.3084  1.1531
10968TIP3    H254396   2.179   1.673  14.998  0.2206 -1.9965 -1.1200
10969TIP3   OH254397   3.987   3.741  14.056 -0.3484 -0.2262  0.1947
10969TIP3    H154398   4.064   3.760  14.110  1.2106 -0.1983 -1.8951
10969TIP3    H254399   4.022   3.728  13.968 -2.6674 -1.1193 -0.6854
10970TIP3   OH254400   2.575   0.800  14.872 -0.3048 -0.0533  0.0271
10970TIP3    H154401   2.537   0.860  14.808  0.8305  1.0290  0.3266
10970TIP3    H254402   2.532   0.824  14.955  0.9062  1.1160  0.3505
10971TIP3   OH254403   1.143   1.173   4.622  0.3200  0.2233  0.0391
10971TIP3    H154404   1.170   1.091   4.581 -0.6939 -0.8207  1.3503
10971TIP3    H254405   1.125   1.149   4.713  0.0464  1.9196  0.4614
10972TIP3   OH254406   2.664   3.654   1.086  0.3353  0.4908 -0.5021
10972TIP3    H154407   2.620   3.598   1.149 -0.4466  0.9368 -0.6307
10972TIP3    H254408   2.617   3.639   1.003  1.1409  0.1475 -0.9074
10973TIP3   OH254409   6.747   1.735  12.117  0.5043  0.0292  0.8920
10973TIP3    H154410   6.656   1.742  12.088  1.0619 -0.8939 -1.3097
10973TIP3    H254411   6.791   1.807  12.071  0.8603  0.6607  2.1881
10974TIP3   OH254412   6.436   6.130  16.905  0.0452  0.3633 -0.3804
10974TIP3    H154413   6.510   6.183  16.936 -0.6050  1.4492 -0.6325
10974TIP3    H254414   6.474   6.045  16.886  1.2781  0.9720 -0.7210
10975TIP3   OH254415   6.317   2.901  13.595 -0.4222  0.0637 -0.4068
10975TIP3    H154416   6.298   2.812  13.626  1.2423 -0.7623 -1.5690
10975TIP3    H254417   6.232   2.943  13.589 -1.1561 -1.0304  1.3408
10976TIP3   OH254418   2.747   2.685  11.592 -0.4865 -0.2083 -0.4355
10976TIP3    H154419   2.768   2.651  11.679 -0.1998  0.9678 -0.0219
10976TIP3    H254420   2.676   2.748  11.608 -1.4784 -1.0858 -1.2667
10977TIP3   OH254421   3.459   1.839  14.111  0.8465  0.1129  0.3404
10977TIP3    H154422   3.456   1.745  14.129  0.7710  0.2642  1.1599
10977TIP3    H254423   3.407   1.879  14.181 -1.3847  0.5993 -1.4578
10978TIP3   OH254424   5.099   0.510  16.690  0.2819 -0.1209 -0.2445
10978TIP3    H154425   5.185   0.530  16.654  0.2813  2.3284  0.8687
10978TIP3    H254426   5.046   0.588  16.671 -1.4457 -1.2216 -0.1739
10979TIP3   OH254427   3.843   3.771   2.037 -0.1651 -0.1695 -0.1498
10979TIP3    H154428   3.851   3.862   2.010  2.1580 -0.5737 -1.0455
10979TIP3    H254429   3.796   3.729   1.965 -1.7650  0.3877  0.5306
10980TIP3   OH254430   1.573   5.369  11.763  0.1458  0.1620  0.1632
10980TIP3    H154431   1.628   5.441  11.733  0.5518 -0.0812  0.3119
10980TIP3    H254432   1.598   5.295  11.708 -2.2522  0.7971 -1.9429
10981TIP3   OH254433   5.803   3.614  16.469 -0.3056  0.7773  0.0935
10981TIP3    H154434   5.895   3.636  16.462 -0.4023  1.4289  0.7351
10981TIP3    H254435   5.802   3.538  16.528 -0.2033  1.0021  0.3885
10982TIP3   OH254436   1.267   2.698   4.418  0.2338  0.2386 -0.8152
10982TIP3    H154437   1.265   2.742   4.333  1.3474  0.7391 -0.5997
10982TIP3    H254438   1.181   2.716   4.455 -0.3870 -0.2521 -1.9571
10983TIP3   OH254439   3.211   0.289   5.116 -0.5952  0.3954 -0.3817
10983TIP3    H154440   3.146   0.314   5.051  1.0047  0.5181 -2.0146
10983TIP3    H254441   3.273   0.362   5.117  0.2799 -0.3327  0.0744
10984TIP3   OH254442   4.999   2.023  13.318  0.4909  0.5728 -0.1510
10984TIP3    H154443   4.912   2.026  13.358  0.6756  0.5852  0.2510
10984TIP3    H254444   4.996   2.090  13.249 -0.0700  0.0328 -0.6614
10985TIP3   OH254445   5.227   6.636  16.546  0.2178  0.5832  0.7610
10985TIP3    H154446   5.290   6.588  16.600 -0.1244 -0.5361  0.1995
10985TIP3    H254447   5.174   6.568  16.504 -0.8082  1.4762  0.5486
10986TIP3   OH254448   0.852   0.396  14.833 -0.4834  0.1174 -0.4256
10986TIP3    H154449   0.931   0.376  14.883 -1.0194 -0.3862  0.2368
10986TIP3    H254450   0.801   0.453  14.890 -1.1682 -0.5797 -0.3195
10987TIP3   OH254451   4.295   5.571  15.601  0.2676  0.6932 -0.1665
10987TIP3    H154452   4.358   5.501  15.584 -1.6253 -1.1255 -0.1196
10987TIP3    H254453   4.334   5.649  15.561  2.4545 -0.3495 -0.2241
10988TIP3   OH254454   3.861   4.391  12.249 -0.0205 -1.1995 -0.9021
10988TIP3    H154455   3.835   4.301  12.265  0.2808 -1.7125 -2.9004
10988TIP3    H254456   3.873   4.429  12.335 -1.3600 -2.7042 -0.0024
10989TIP3   OH254457   2.678   6.386   5.608 -0.3066 -0.0282 -0.0550
10989TIP3    H154458   2.741   6.331   5.563 -0.5812 -0.1300 -0.3136
10989TIP3    H254459   2.654   6.453   5.544 -0.9199 -0.3460 -0.1697
10990TIP3   OH254460   1.097   4.053  16.348  0.0732  0.9827  0.3593
10990TIP3    H154461   1.064   3.963  16.351 -0.4807  1.2107  1.4811
10990TIP3    H254462   1.027   4.104  16.308  0.1469  1.0102  0.2653
10991TIP3   OH254463   4.694   2.370  13.315 -0.3168  0.3905 -0.1784
10991TIP3    H154464   4.611   2.401  13.351 -0.4833  0.1087 -0.3174
10991TIP3    H254465   4.761   2.422  13.361 -0.5246  0.0675  0.4975
10992TIP3   OH254466   1.190   0.784   6.457  0.5931  0.1970 -0.0217
10992TIP3    H154467   1.201   0.690   6.472  0.1010  0.3617  1.5352
10992TIP3    H254468   1.099   0.793   6.428 -0.2520  0.4127  2.4454
10993TIP3   OH254469   3.454   0.555  16.440  0.1161 -0.1446  0.1034
10993TIP3    H154470   3.415   0.471  16.416 -0.0235  0.0734 -0.4390
10993TIP3    H254471   3.382   0.604  16.480  0.3383 -0.4922  0.9466
10994TIP3   OH254472   0.462   5.456  15.468  0.3611 -0.0952  0.6554
10994TIP3    H154473   0.437   5.365  15.485  0.1900 -0.4202 -1.1566
10994TIP3    H254474   0.535   5.450  15.406  0.4950  1.0007  0.6823
10995TIP3   OH254475   2.582   3.317   2.117  0.3486  0.3100 -0.9444
10995TIP3    H154476   2.592   3.357   2.204  1.5368  0.4798 -1.1364
10995TIP3    H254477   2.561   3.391   2.060  0.4862  0.3496 -0.9464
10996TIP3   OH254478   5.240   5.085   3.137 -0.7586  0.1387 -0.2660
10996TIP3    H154479   5.163   5.049   3.183 -1.2003 -1.1820 -1.9459
10996TIP3    H254480   5.250   5.030   3.060  0.1424  2.0765 -1.6210
10997TIP3   OH254481   2.837   5.341   5.792  0.5884 -1.0187 -0.2599
10997TIP3    H154482   2.930   5.358   5.804  0.2880 -0.0226  0.8627
10997TIP3    H254483   2.796   5.427   5.801 -0.6361 -1.7243  1.2835
10998TIP3   OH254484   4.008   4.015  13.657  0.3612 -0.0868  0.3026
10998TIP3    H154485   4.032   3.953  13.588  0.5350 -0.1250  0.3975
10998TIP3    H254486   3.960   4.084  13.611 -0.4193 -0.6296  0.2959
10999TIP3   OH254487   4.116   3.467  12.090  0.2454 -0.0884 -0.5683
10999TIP3    H154488   4.027   3.467  12.055  0.4655 -1.0507 -1.1372
10999TIP3    H254489   4.161   3.396  12.044  0.8014 -0.7870  0.9916
11000TIP3   OH254490   2.550   1.426  15.415 -0.3022 -0.0260 -0.0038
11000TIP3    H154491   2.638   1.455  15.392 -0.0870 -1.4735 -1.0573
11000TIP3    H254492   2.500   1.433  15.334 -0.7596 -0.6928  0.2144
11001TIP3   OH254493   2.729   2.748   6.449 -0.3147 -0.5026 -0.5005
11001TIP3    H154494   2.710   2.655   6.459  1.7496 -0.9297 -0.2191
11001TIP3    H254495   2.822   2.756   6.469 -0.6157  1.7538  0.2788
11002TIP3   OH254496   1.140   4.748   1.551 -0.4839  0.2199  0.0462
11002TIP3    H154497   1.192   4.778   1.476  0.1703 -1.3730 -0.1761
11002TIP3    H254498   1.199   4.755   1.626 -0.6277  0.3246  0.1506
11003TIP3   OH254499   6.144   2.422   3.760  0.1232 -0.4903  0.0643
11003TIP3    H154500   6.213   2.370   3.801  0.2250 -1.5862 -1.4070
11003TIP3    H254501   6.104   2.362   3.696 -0.5999  0.8596 -0.7932
11004TIP3   OH254502   1.954   0.109   1.410  0.3610 -0.3067  0.5471
11004TIP3    H154503   2.008   0.102   1.489 -0.9584  2.7187  1.9089
11004TIP3    H254504   1.891   0.037   1.418  0.9987 -0.7781  1.6203
11005TIP3   OH254505   6.664   6.165  10.616 -0.6606  0.1398  0.0211
11005TIP3    H154506   6.747   6.189  10.576 -1.1012 -1.1120 -1.7497
11005TIP3    H254507   6.597   6.202  10.559 -1.3086 -1.1563 -0.1059
11006TIP3   OH254508   6.584   3.824  12.517 -0.1133  0.0756 -0.3000
11006TIP3    H154509   6.543   3.873  12.446 -0.9864  0.0836  0.1850
11006TIP3    H254510   6.521   3.830  12.589  0.7075 -0.0151  0.4405
11007TIP3   OH254511   6.066   4.135  14.780  0.1430  0.4724  0.0770
11007TIP3    H154512   6.007   4.142  14.856  0.1407 -0.5543  0.1855
11007TIP3    H254513   6.021   4.182  14.710 -1.2607 -1.0370 -0.0980
11008TIP3   OH254514   5.703   0.791  17.077 -0.3796  0.0802  0.5026
11008TIP3    H154515   5.660   0.775  17.161 -2.2620  0.6000 -0.3119
11008TIP3    H254516   5.744   0.707  17.055 -2.2165 -0.9064  0.6687
11009TIP3   OH254517   2.941   5.001  11.832  0.4641  0.0918  0.3050
11009TIP3    H154518   2.960   5.053  11.754  0.0402 -0.1393  0.0455
11009TIP3    H254519   3.014   4.940  11.838  0.0924 -0.4239 -0.3701
11010TIP3   OH254520   1.053   1.803  11.621  0.2166 -0.2098  0.2576
11010TIP3    H154521   1.081   1.801  11.529  0.1483 -1.6914  0.2525
11010TIP3    H254522   1.134   1.820  11.669  0.2258  0.7521 -0.0657
11011TIP3   OH254523   3.390   5.760  11.219 -0.3510 -0.6479  0.0664
11011TIP3    H154524   3.425   5.840  11.257  1.4597 -0.4437 -1.8620
11011TIP3    H254525   3.312   5.788  11.170 -0.4705 -0.2912  0.4582
11012TIP3   OH254526   0.889   6.763   4.733  0.1103  0.3081 -0.3075
11012TIP3    H154527   0.847   6.770   4.819  0.0595  1.1412 -0.3991
11012TIP3    H254528   0.967   6.818   4.740 -0.3370  1.0540 -1.0595
11013TIP3   OH254529   0.920   0.574  16.476  0.3326 -0.4577 -0.1370
11013TIP3    H154530   0.942   0.484  16.454  0.0839 -0.4991 -0.2127
11013TIP3    H254531   0.886   0.569  16.565 -2.4771 -0.8823 -1.1262
11014TIP3   OH254532   2.439   6.239  14.215  0.2828 -0.5327  0.2434
11014TIP3    H154533   2.405   6.267  14.130 -1.0462 -2.0747  0.2135
11014TIP3    H254534   2.504   6.172  14.194 -1.8373 -2.7916  0.3932
11015TIP3   OH254535   1.525   2.060   0.104 -0.9763  0.1748  0.1250
11015TIP3    H154536   1.443   2.025   0.069 -0.0690  0.4002 -2.4273
11015TIP3    H254537   1.593   2.024   0.048  0.4786  1.6975  0.8216
11016TIP3   OH254538   4.086   1.436  13.701  0.0013 -0.3809  0.1991
11016TIP3    H154539   4.041   1.385  13.768 -0.1755 -0.4524  0.0272
11016TIP3    H254540   4.048   1.407  13.618  0.3078 -0.3827  0.0564
11017TIP3   OH254541   5.703   6.259  11.662 -0.3771  0.3444  0.1274
11017TIP3    H154542   5.654   6.261  11.580  0.3382  1.0756 -0.2915
11017TIP3    H254543   5.754   6.178  11.657  0.3042  0.8015 -0.5425
11018TIP3   OH254544   4.262   2.901   4.456 -0.9151 -0.4223 -0.4406
11018TIP3    H154545   4.206   2.961   4.406  1.6763  2.6115 -0.0216
11018TIP3    H254546   4.301   2.956   4.524  2.5452 -2.2961 -0.6976
11019TIP3   OH254547   6.085   4.234   1.703 -0.2185  0.3534  0.1622
11019TIP3    H154548   6.107   4.300   1.769 -0.5729  1.7450 -1.0438
11019TIP3    H254549   5.991   4.219   1.715 -0.2381  0.4416  0.1215
11020TIP3   OH254550   5.015   5.617   3.210  0.2942  0.0765 -0.1833
11020TIP3    H154551   4.931   5.581   3.236  1.0109 -0.4223  1.5581
11020TIP3    H254552   4.997   5.666   3.129 -1.8062  0.6775  0.6032
11021TIP3   OH254553   0.722   2.723  11.361 -0.0775  0.2234  0.3410
11021TIP3    H154554   0.665   2.736  11.437  0.2471 -0.1549  0.6529
11021TIP3    H254555   0.701   2.635  11.330 -0.6441  0.6051 -0.3832
11022TIP3   OH254556   0.318   4.573  16.938  1.0326 -0.3271  0.1665
11022TIP3    H154557   0.366   4.655  16.928 -0.6624  0.6123 -0.7368
11022TIP3    H254558   0.304   4.564  17.032 -0.0214  1.2034  0.1815
11023TIP3   OH254559   6.025   2.450  12.757  0.1149  0.7033 -0.0281
11023TIP3    H154560   6.114   2.477  12.778  0.3988 -0.9942  1.2665
11023TIP3    H254561   6.035   2.361  12.722 -1.0420  0.4755  0.1765
11024TIP3   OH254562   5.298   3.035   2.202 -0.1705 -0.0528 -0.0986
11024TIP3    H154563   5.233   3.068   2.140  1.0526  1.1676 -0.7917
11024TIP3    H254564   5.283   3.086   2.282  0.4104  0.7837 -0.5106
11025TIP3   OH254565   1.178   1.790   1.574  0.0554  0.0307 -0.3001
11025TIP3    H154566   1.089   1.826   1.575  0.3856  0.9008 -0.6082
11025TIP3    H254567   1.231   1.860   1.535  0.8012 -0.6520 -0.5268
11026TIP3   OH254568   6.161   3.155  11.127  0.1827 -0.1861 -0.0328
11026TIP3    H154569   6.227   3.201  11.074 -0.1565 -0.2736 -0.5399
11026TIP3    H254570   6.161   3.066  11.093 -0.5545 -0.0605 -0.3827
11027TIP3   OH254571   3.169   2.131  16.559  0.0379 -0.1987  0.0870
11027TIP3    H154572   3.243   2.192  16.557  1.7229 -2.0539  1.3974
11027TIP3    H254573   3.138   2.135  16.649 -0.9285 -0.0586 -0.2465
11028TIP3   OH254574   5.728   1.954   1.136  0.1315 -0.6467 -0.1845
11028TIP3    H154575   5.685   1.906   1.207 -0.3460  0.9916  0.6878
11028TIP3    H254576   5.657   1.996   1.088  0.5449 -0.7109 -0.8701
11029TIP3   OH254577   1.574   3.275   1.349 -0.5410 -0.3576  0.4290
11029TIP3    H154578   1.662   3.237   1.349 -0.2296  0.3472  1.1002
11029TIP3    H254579   1.556   3.295   1.440 -1.0469  0.3198  0.1889
11030TIP3   OH254580   4.660   4.496   4.056  0.1999  0.5414 -0.3889
11030TIP3    H154581   4.653   4.497   3.961 -1.3398  1.6312 -0.3133
11030TIP3    H254582   4.583   4.447   4.085  0.1098  1.0688  0.2996
11031TIP3   OH254583   1.056   0.263  12.784  0.8424 -0.6412 -0.1956
11031TIP3    H154584   0.982   0.262  12.845 -0.3555  1.3281 -1.5112
11031TIP3    H254585   1.133   0.256  12.840 -0.2363  0.3850  1.5141
11032TIP3   OH254586   1.430   3.770   5.948  0.0526 -0.2271  0.2574
11032TIP3    H154587   1.342   3.762   5.986 -0.1687 -1.2908 -0.4239
11032TIP3    H254588   1.438   3.862   5.925 -0.4649  0.1000  1.3064
11033TIP3   OH254589   6.263   5.396  15.210  0.1206  0.4491 -0.4494
11033TIP3    H154590   6.321   5.385  15.286  0.8667  1.7578 -0.8022
11033TIP3    H254591   6.175   5.405  15.249  0.3445  0.0134  0.1809
11034TIP3   OH254592   4.612   0.392  16.722 -0.0696 -0.6284  0.3547
11034TIP3    H154593   4.695   0.382  16.675 -0.9118  0.5474 -1.5173
11034TIP3    H254594   4.605   0.486  16.740 -1.7501 -0.4132 -1.1174
11035TIP3   OH254595   1.270   1.154   1.363  0.6999 -0.1305  0.2133
11035TIP3    H154596   1.338   1.098   1.402 -0.5962  0.1957  3.2546
11035TIP3    H254597   1.318   1.225   1.322  2.2305 -0.7692  0.8250
11036TIP3   OH254598   4.674   5.490  13.092  0.5661  0.0991 -0.4395
11036TIP3    H154599   4.633   5.557  13.147 -0.6148 -0.1154 -1.0347
11036TIP3    H254600   4.616   5.482  13.016  0.5136 -1.8129 -0.2401
11037TIP3   OH254601   4.440   5.510  10.929  0.3592  0.0982  0.4876
11037TIP3    H154602   4.371   5.469  10.878 -0.1258 -0.8636  1.8428
11037TIP3    H254603   4.514   5.517  10.869 -0.6651  0.4995 -0.7847
11038TIP3   OH254604   0.532   2.146  14.934  0.6585  0.1903 -0.2186
11038TIP3    H154605   0.617   2.162  14.895 -0.0399  1.6247 -1.2484
11038TIP3    H254606   0.481   2.103  14.865  0.0455  0.8997 -0.2304
11039TIP3   OH254607   5.321   2.906  12.210 -0.5217 -0.1444 -0.2869
11039TIP3    H154608   5.342   2.955  12.289 -1.8238  1.7681 -1.0416
11039TIP3    H254609   5.387   2.934  12.146 -1.3845  0.8482 -0.7768
11040TIP3   OH254610   0.957   4.253   3.855  0.0815 -0.4650 -0.0627
11040TIP3    H154611   0.983   4.270   3.764 -2.0710  3.1106 -0.2258
11040TIP3    H254612   0.865   4.230   3.850  0.1795 -1.2223  1.1881
11041TIP3   OH254613   4.356   4.974  16.852 -0.1790 -0.2538  0.2315
11041TIP3    H154614   4.274   5.023  16.850  0.6839  1.3507  1.9355
11041TIP3    H254615   4.360   4.937  16.940  1.0467 -0.0767  0.2649
11042TIP3   OH254616   3.579   5.495   5.292 -0.1131 -0.0532  0.2842
11042TIP3    H154617   3.673   5.505   5.273 -0.2124 -0.8939 -0.6829
11042TIP3    H254618   3.535   5.529   5.215 -0.5688 -1.2853 -0.0209
11043TIP3   OH254619   0.306   4.798   0.943  0.1807  0.5796 -0.4719
11043TIP3    H154620   0.394   4.784   0.908  0.2160 -0.0000 -0.1633
11043TIP3    H254621   0.313   4.773   1.035 -0.6620 -0.9646 -0.7962
11044TIP3   OH254622   3.426   1.436   0.591 -0.5930 -0.0147 -0.3050
11044TIP3    H154623   3.363   1.458   0.523 -0.6218 -0.7087 -0.5112
11044TIP3    H254624   3.380   1.375   0.648 -0.0815 -0.6237 -0.5265
11045TIP3   OH254625   3.070   1.731   5.629  0.2911 -0.1660 -0.1655
11045TIP3    H154626   3.079   1.700   5.720  0.9757  0.0080 -0.1665
11045TIP3    H254627   3.092   1.655   5.576  0.0437 -0.2231 -0.1884
11046TIP3   OH254628   1.786   0.875  12.895 -0.2545  0.0385  0.5039
11046TIP3    H154629   1.718   0.942  12.905  0.8365  0.8700  3.2322
11046TIP3    H254630   1.793   0.862  12.800 -2.6555  1.4965  0.0439
11047TIP3   OH254631   0.054   6.376   5.639  0.0020 -0.4005  0.3960
11047TIP3    H154632   0.122   6.341   5.697 -2.2202 -1.7142  2.3649
11047TIP3    H254633   0.023   6.300   5.590 -0.8264 -0.0376  0.3463
11048TIP3   OH254634   5.758   3.743  12.062  0.0112 -0.6523 -0.1819
11048TIP3    H154635   5.732   3.834  12.045 -1.0724 -0.9420 -0.0913
11048TIP3    H254636   5.769   3.738  12.157 -1.7449 -1.0722  0.0264
11049TIP3   OH254637   0.814   0.576  16.738  0.1456  0.4692  0.0060
11049TIP3    H154638   0.823   0.558  16.831 -0.2845  1.1442  0.1836
11049TIP3    H254639   0.738   0.525  16.710  0.9086 -0.5798 -0.2207
11050TIP3   OH254640   3.284   1.333   1.690 -0.0552 -0.3742 -0.1185
11050TIP3    H154641   3.244   1.409   1.647  0.0402 -0.1331  0.2212
11050TIP3    H254642   3.378   1.354   1.693 -0.0551 -0.4194  0.1551
11051TIP3   OH254643   5.095   3.883   5.159  0.7242  0.3108 -0.1304
11051TIP3    H154644   5.185   3.880   5.125  0.3262  1.4112 -1.3798
11051TIP3    H254645   5.091   3.813   5.224  2.4740  0.2187 -0.0804
11052TIP3   OH254646   1.645   2.265   5.600  0.1171  0.5925 -0.3450
11052TIP3    H154647   1.724   2.314   5.579  2.3027 -1.5704  2.1935
11052TIP3    H254648   1.595   2.324   5.657  1.0155  1.1164 -0.0793
11053TIP3   OH254649   3.596   5.575  14.230  0.0780 -0.3231  0.2469
11053TIP3    H154650   3.529   5.634  14.267  0.5861  0.3349  0.1420
11053TIP3    H254651   3.664   5.634  14.198 -0.9123 -0.7486 -2.9825
11054TIP3   OH254652   2.180   6.746  10.939 -0.6203 -0.1061  0.2128
11054TIP3    H154653   2.182   6.669  10.997 -0.9675  1.0670  1.8480
11054TIP3    H254654   2.089   6.775  10.942 -0.5666  0.1712 -0.6734
11055TIP3   OH254655   4.728   0.458   1.933 -0.0615 -0.0018 -0.0294
11055TIP3    H154656   4.686   0.520   1.993  1.8522  0.5598  0.7898
11055TIP3    H254657   4.712   0.372   1.972  1.0247  0.3488  1.2382
11056TIP3   OH254658   3.603   1.764   1.563  0.4552 -0.3039  0.4034
11056TIP3    H154659   3.629   1.844   1.519  3.5069 -1.5223 -0.2217
11056TIP3    H254660   3.602   1.697   1.494 -0.4856 -1.1322  1.1817
11057TIP3   OH254661   5.003   0.433  11.120  0.3139 -0.2143 -0.1686
11057TIP3    H154662   5.095   0.406  11.127  0.4510 -0.5531 -2.3709
11057TIP3    H254663   4.994   0.503  11.184  1.0240 -2.6710  2.8358
11058TIP3   OH254664   5.211   6.813  11.423 -0.0514  0.3267  0.2283
11058TIP3    H154665   5.243   6.902  11.409  1.7301 -0.0796  1.4495
11058TIP3    H254666   5.158   6.820  11.503 -2.0774  0.7296 -1.0592
11059TIP3   OH254667   1.922   2.091  16.688  0.1471 -0.2636  0.4169
11059TIP3    H154668   1.901   2.042  16.768  0.9096 -2.6935 -0.7629
11059TIP3    H254669   1.848   2.073  16.629 -2.4190  4.6047  1.6161
11060TIP3   OH254670   1.817   4.767   5.390 -0.2566  0.1025 -0.1355
11060TIP3    H154671   1.875   4.762   5.466  0.3600 -1.2913 -0.6562
11060TIP3    H254672   1.742   4.712   5.413  0.4564 -1.2715 -0.9198
11061TIP3   OH254673   0.720   0.776   3.351  0.0010  0.5501 -0.0651
11061TIP3    H154674   0.742   0.861   3.387  1.5833 -0.3849  1.3340
11061TIP3    H254675   0.733   0.785   3.256  3.0591  1.1051  0.3269
11062TIP3   OH254676   3.031   6.291   4.299  0.3370 -0.0036  0.3464
11062TIP3    H154677   3.066   6.366   4.348 -0.7245  1.9912 -1.7322
11062TIP3    H254678   2.942   6.317   4.276  0.8302 -0.6498 -2.7487
11063TIP3   OH254679   2.302   2.564  15.807  0.0644 -0.2519 -0.9562
11063TIP3    H154680   2.226   2.598  15.854  2.3305  0.4334  2.5307
11063TIP3    H254681   2.307   2.472  15.832  0.7182 -0.1366 -0.6493
11064TIP3   OH254682   4.832   1.946  15.111 -0.3624  0.2287  1.0842
11064TIP3    H154683   4.747   1.976  15.078 -0.7717 -0.0306  1.8834
11064TIP3    H254684   4.877   2.026  15.136  0.5786  0.5997 -1.4391
11065TIP3   OH254685   6.261   1.657   5.834 -0.0065  0.6635  0.4104
11065TIP3    H154686   6.235   1.693   5.749 -0.7909 -2.7886 -0.9810
11065TIP3    H254687   6.180   1.652   5.884 -0.7173 -2.5616 -0.8800
11066TIP3   OH254688   0.253   5.395   1.893  0.0040  0.2167  0.2748
11066TIP3    H154689   0.171   5.373   1.848  0.6339  0.3899 -0.9967
11066TIP3    H254690   0.322   5.370   1.832  0.8680  1.4884  0.6855
11067TIP3   OH254691   1.016   3.568   6.082 -0.6924  0.7679  0.0408
11067TIP3    H154692   0.931   3.580   6.125 -2.5411 -2.0934 -2.3661
11067TIP3    H254693   1.067   3.517   6.145 -2.2672 -0.8262  0.1407
11068TIP3   OH254694   2.135   4.191  15.160  0.0318  0.3034  0.2943
11068TIP3    H154695   2.209   4.144  15.198 -0.5769 -0.6306  0.3560
11068TIP3    H254696   2.059   4.136  15.179 -0.7625  1.5090  0.7006
11069TIP3   OH254697   0.326   4.204   2.036 -0.4380  0.3383  0.3905
11069TIP3    H154698   0.257   4.270   2.029 -1.9466 -1.3549 -2.4029
11069TIP3    H254699   0.402   4.244   1.995 -1.1149  0.6297 -0.6010
11070TIP3   OH254700   5.820   6.721   1.235  0.1485 -0.4647 -0.0136
11070TIP3    H154701   5.849   6.807   1.206 -2.5386  0.1327 -1.2992
11070TIP3    H254702   5.828   6.724   1.331  0.8586  0.8893 -0.0961
11071TIP3   OH254703   1.661   0.985   6.019 -0.0961  0.3925  0.7443
11071TIP3    H154704   1.711   0.928   6.078 -0.4705 -0.7404 -0.0006
11071TIP3    H254705   1.673   0.945   5.933 -0.0427  1.6871  0.1362
11072TIP3   OH254706   3.617   3.078   5.096 -0.6771 -0.5317  0.4094
11072TIP3    H154707   3.659   3.159   5.126  1.0268 -1.7808  1.5321
11072TIP3    H254708   3.632   3.077   5.002 -0.5559  0.3603  0.4087
11073TIP3   OH254709   1.215   4.141   4.888 -0.1188 -0.6484  0.2149
11073TIP3    H154710   1.131   4.184   4.875 -0.2380 -0.8171  0.4110
11073TIP3    H254711   1.211   4.107   4.978  0.6901  0.5147  0.7210
11074TIP3   OH254712   1.506   2.649   2.570 -0.3195  0.5207  0.3197
11074TIP3    H154713   1.412   2.630   2.564 -0.3491  0.0642  1.8374
11074TIP3    H254714   1.510   2.743   2.585 -0.5101  0.5958 -0.0765
11075TIP3   OH254715   3.022   4.299   2.061 -0.3768 -0.0733  0.0311
11075TIP3    H154716   2.969   4.305   2.140 -2.7917 -1.4046 -1.3435
11075TIP3    H254717   2.986   4.366   2.003  1.0166  0.5340 -0.1669
11076TIP3   OH254718   0.674   4.657  16.894 -0.4919  0.6815  0.0388
11076TIP3    H154719   0.718   4.713  16.957  4.2447  0.6371 -2.7431
11076TIP3    H254720   0.625   4.717  16.838  0.6108  1.5143 -0.0532
11077TIP3   OH254721   3.666   4.793   0.853  0.4370 -0.1946 -0.3454
11077TIP3    H154722   3.735   4.761   0.795 -1.0070  1.7861 -3.4101
11077TIP3    H254723   3.696   4.879   0.882 -0.3124  0.2688 -0.9163
11078TIP3   OH254724   1.345   3.522   5.469  0.2607 -0.1842  0.8561
11078TIP3    H154725   1.397   3.598   5.497 -0.6980  0.0340  2.1392
11078TIP3    H254726   1.335   3.534   5.374  2.7871 -0.4191  0.4729
11079TIP3   OH254727   2.102   2.720   3.724  0.6896 -0.1280 -0.0324
11079TIP3    H154728   2.156   2.793   3.756 -2.4061  1.6547  1.5822
11079TIP3    H254729   2.079   2.744   3.635  0.6987  0.2207  0.0597
11080TIP3   OH254730   4.225   4.081  14.716 -0.2105 -0.1987 -0.8429
11080TIP3    H154731   4.208   4.158  14.661  0.0045  0.3963 -0.0855
11080TIP3    H254732   4.149   4.075  14.773  0.7272  0.7439  0.5617
11081TIP3   OH254733   6.085   5.075   5.714 -0.3344 -0.2518  0.2095
11081TIP3    H154734   6.109   5.106   5.801  0.4951 -1.3129  0.3804
11081TIP3    H254735   5.997   5.040   5.725 -0.7483  0.7890  0.3122
11082TIP3   OH254736   3.751   3.849  14.169 -0.0724 -0.3062  0.2967
11082TIP3    H154737   3.835   3.831  14.128 -0.6210 -3.2158  0.2492
11082TIP3    H254738   3.739   3.944  14.158  0.9408 -0.4596 -4.0800
11083TIP3   OH254739   1.838   4.069  16.368 -0.2092  0.6284  0.0385
11083TIP3    H154740   1.867   4.160  16.361  0.6657  0.3099 -0.5840
11083TIP3    H254741   1.806   4.060  16.458 -1.1328  1.7813 -0.1485
11084TIP3   OH254742   4.844   1.747   4.473 -0.0528 -0.0457 -0.7020
11084TIP3    H154743   4.763   1.712   4.510 -0.6370  1.1438 -0.8215
11084TIP3    H254744   4.911   1.726   4.538 -0.3666 -1.3405 -0.7585
11085TIP3   OH254745   1.041   6.832  14.362 -0.0029 -0.7804 -0.4733
11085TIP3    H154746   1.094   6.837  14.442 -2.4120 -3.0316  1.4286
11085TIP3    H254747   0.987   6.911  14.365  0.3779 -0.5197 -0.2563
11086TIP3   OH254748   1.745   5.458   4.801  0.3309 -0.2700 -0.2280
11086TIP3    H154749   1.726   5.421   4.715 -0.7859 -2.1463  0.7618
11086TIP3    H254750   1.833   5.426   4.822 -0.2592 -1.6748  0.2188
11087TIP3   OH254751   6.835   2.592   2.647 -0.0746  0.3224 -0.0406
11087TIP3    H154752   6.827   2.497   2.659  2.5429  0.1618  1.0197
11087TIP3    H254753   6.814   2.605   2.554  1.0274 -1.5592 -0.6306
11088TIP3   OH254754   6.776   1.049  17.041  0.4080  0.0528  0.2745
11088TIP3    H154755   6.715   1.116  17.011  0.9492  0.5691  0.3026
11088TIP3    H254756   6.798   0.999  16.962  0.2756  0.1335  0.1883
11089TIP3   OH254757   3.981   1.789  12.576 -0.1482 -0.2349 -0.5402
11089TIP3    H154758   4.018   1.714  12.530  0.4935  1.2226 -2.5102
11089TIP3    H254759   3.964   1.854  12.508  0.9307  2.0898  1.2583
11090TIP3   OH254760   4.680   1.307   2.196 -0.3298 -0.1077 -0.0588
11090TIP3    H154761   4.750   1.362   2.161 -0.4864  0.5352  0.6020
11090TIP3    H254762   4.615   1.303   2.125 -0.4613  0.8426 -0.0140
11091TIP3   OH254763   4.225   6.376  12.973 -0.4030  0.2869  0.7373
11091TIP3    H154764   4.195   6.287  12.959 -1.1057  0.6205  0.0601
11091TIP3    H254765   4.256   6.377  13.064 -1.5817 -0.3195  1.1676
11092TIP3   OH254766   5.021   6.732  11.873  0.2751 -0.2823 -0.5979
11092TIP3    H154767   5.095   6.702  11.926  0.1518 -0.5260 -0.5633
11092TIP3    H254768   4.961   6.772  11.936 -0.7862 -2.3081 -0.2469
11093TIP3   OH254769   4.361   3.970  16.159 -0.4958 -0.3689 -0.0855
11093TIP3    H154770   4.318   3.884  16.161  1.0040 -1.1420  0.3930
11093TIP3    H254771   4.348   4.001  16.069  0.9560 -2.1986 -0.9873
11094TIP3   OH254772   4.534   5.881   2.092  0.3065 -0.1505 -0.2579
11094TIP3    H154773   4.585   5.855   2.015 -0.2896  0.2008 -0.7745
11094TIP3    H254774   4.512   5.798   2.134  1.8543 -0.2921  0.3541
11095TIP3   OH254775   2.624   0.366  13.624 -0.0854  0.4348 -0.4237
11095TIP3    H154776   2.556   0.324  13.678 -0.3119  2.4319  0.9474
11095TIP3    H254777   2.705   0.323  13.649 -0.5094 -0.2579 -0.2215
11096TIP3   OH254778   0.888   5.687   1.189  0.2519  0.3130 -0.1208
11096TIP3    H154779   0.842   5.768   1.166  1.0489  0.2100 -2.3097
11096TIP3    H254780   0.820   5.632   1.228 -0.7348  1.3415 -0.3202
11097TIP3   OH254781   6.835   2.772  16.088 -0.2966 -0.7415 -0.8602
11097TIP3    H154782   6.875   2.832  16.025 -0.7297 -0.6969 -1.0931
11097TIP3    H254783   6.909   2.734  16.135 -0.0325  0.9281  0.1712
11098TIP3   OH254784   4.156   1.548   6.626 -0.0915 -0.0491  0.1581
11098TIP3    H154785   4.185   1.527   6.537  1.1215  2.1057 -0.0215
11098TIP3    H254786   4.063   1.526   6.626 -0.0286 -0.4624 -1.5226
11099TIP3   OH254787   4.967   0.877  12.449  0.3409  0.3316  0.5490
11099TIP3    H154788   5.025   0.893  12.374  0.1480 -0.1426  0.2951
11099TIP3    H254789   4.974   0.783  12.465 -0.9150  0.1457  0.0654
11100TIP3   OH254790   6.732   2.287   0.065 -0.2304  0.6675 -0.3181
11100TIP3    H154791   6.818   2.327   0.069  0.7928 -0.8847 -3.2065
11100TIP3    H254792   6.675   2.355   0.030  0.1067  1.3284  0.4065
11101TIP3   OH254793   3.536   4.376  12.268  0.4365 -0.0334 -0.2640
11101TIP3    H154794   3.540   4.446  12.333 -0.0716  0.4575 -0.7561
11101TIP3    H254795   3.624   4.373  12.231  1.2783 -1.5340  1.6876
11102TIP3   OH254796   4.339   1.418  16.544 -0.0636 -0.8086  0.1710
11102TIP3    H154797   4.283   1.416  16.621  1.4492 -0.1181  1.3459
11102TIP3    H254798   4.427   1.437  16.578  0.6873 -0.6566 -1.7006
11103TIP3   OH254799   6.569   1.315  16.280  0.3096 -0.7143  0.2424
11103TIP3    H154800   6.619   1.247  16.326 -1.3201 -1.8711  0.4124
11103TIP3    H254801   6.609   1.321  16.194  1.6116 -0.5845  0.8373
11104TIP3   OH254802   4.185   5.843  16.738  0.0068  0.6828 -0.0262
11104TIP3    H154803   4.108   5.899  16.737 -0.4575  0.1118  1.4976
11104TIP3    H254804   4.150   5.754  16.743  0.7518  0.3943  0.1823
11105TIP3   OH254805   2.200   0.090  16.831  0.0216 -0.1220 -0.0423
11105TIP3    H154806   2.288   0.096  16.794  0.1944  0.5719  0.4660
11105TIP3    H254807   2.175   0.181  16.848  0.3911 -0.4383  2.5895
11106TIP3   OH254808   1.702   0.074   1.168 -0.6426  0.1391  0.1229
11106TIP3    H154809   1.763   0.111   1.231  1.4292 -3.2835  0.3848
11106TIP3    H254810   1.635   0.030   1.221  1.4714 -3.3305  0.2200
11107TIP3   OH254811   2.929   5.579   6.322 -0.4920  0.2287 -0.5775
11107TIP3    H154812   3.020   5.582   6.352 -0.3801 -2.5077 -0.3984
11107TIP3    H254813   2.885   5.648   6.372  0.8899 -0.2985  1.4990
11108TIP3   OH254814   5.108   0.316   0.559  0.1861  0.4326 -0.5588
11108TIP3    H154815   5.122   0.310   0.464 -1.8140 -1.5254 -0.8060
11108TIP3    H254816   5.013   0.313   0.569  0.3792  0.2470  1.5423
11109TIP3   OH254817   4.844   3.800   3.730  0.3887 -0.5174  0.4805
11109TIP3    H154818   4.783   3.756   3.671 -0.6919  0.7732  0.5968
11109TIP3    H254819   4.790   3.864   3.777  2.0286  1.5201 -0.2810
11110TIP3   OH254820   6.645   6.258   4.285 -0.4662  0.3913  0.1278
11110TIP3    H154821   6.625   6.213   4.203  0.5894  0.7588 -0.3362
11110TIP3    H254822   6.561   6.258   4.333 -0.1859 -3.8164  1.0456
11111TIP3   OH254823   0.374   5.744   3.377 -0.2483  0.4760 -0.4225
11111TIP3    H154824   0.355   5.835   3.353  0.4415  0.4798 -0.9934
11111TIP3    H254825   0.467   5.733   3.357 -0.7655 -0.9539 -2.3878
11112TIP3   OH254826   0.178   1.005   4.276  0.0272  0.3136 -0.2147
11112TIP3    H154827   0.233   1.082   4.293  0.4735  0.3658 -1.7182
11112TIP3    H254828   0.089   1.038   4.277  0.2125  0.8500 -0.7626
11113TIP3   OH254829   0.384   5.129   3.121 -0.0862  0.1497  0.6354
11113TIP3    H154830   0.342   5.062   3.175 -0.7090 -0.0743 -0.1023
11113TIP3    H254831   0.336   5.210   3.141  0.3325  0.2756  1.1466
11114TIP3   OH254832   4.082   1.440   5.747 -0.4700 -0.1096  0.8294
11114TIP3    H154833   4.068   1.531   5.720 -1.2528 -0.1126  1.1863
11114TIP3    H254834   4.003   1.394   5.719 -0.3588 -0.5465  1.2221
11115TIP3   OH254835   1.462   0.617  16.601  0.3922 -0.6125 -0.1787
11115TIP3    H154836   1.491   0.567  16.524  2.2335 -1.9482  1.3059
11115TIP3    H254837   1.505   0.701  16.592 -2.0050  0.5496 -2.2250
11116TIP3   OH254838   1.112   3.017  14.826  0.0692 -0.0296  0.1991
11116TIP3    H154839   1.196   3.047  14.860  0.7269  0.1664 -1.4729
11116TIP3    H254840   1.053   3.091  14.841  1.1812  1.4551 -2.0559
11117TIP3   OH254841   5.731   4.412   0.296 -0.1680  0.5209 -0.8534
11117TIP3    H154842   5.670   4.484   0.284  0.6315  0.9600 -2.6560
11117TIP3    H254843   5.807   4.451   0.339 -1.2807 -0.1485  1.9753
11118TIP3   OH254844   1.891   0.327   4.519  0.1392  0.2290 -0.3851
11118TIP3    H154845   1.986   0.321   4.521  0.0701 -2.7300 -1.5547
11118TIP3    H254846   1.868   0.322   4.427 -1.1923 -3.1740 -0.0237
11119TIP3   OH254847   0.504   5.789  13.216  0.4473  0.1027 -0.3913
11119TIP3    H154848   0.567   5.840  13.267 -0.0834  0.3974 -0.0313
11119TIP3    H254849   0.419   5.810  13.254  0.1524 -0.4960 -0.7075
11120TIP3   OH254850   6.462   5.194   0.920  0.2822 -0.5614  0.2187
11120TIP3    H154851   6.409   5.116   0.936 -0.6433 -0.2806 -1.2933
11120TIP3    H254852   6.480   5.230   1.008 -0.6314 -1.5767  0.8344
11121TIP3   OH254853   2.383   3.766  14.597  0.1914 -0.4469  0.6718
11121TIP3    H154854   2.458   3.734  14.547  0.3320  0.5969  0.1964
11121TIP3    H254855   2.355   3.845  14.551 -1.2045 -0.8068  0.8333
11122TIP3   OH254856   5.551   2.803  10.283 -0.5816 -0.1736  0.0010
11122TIP3    H154857   5.489   2.746  10.237  0.4802 -0.7821 -0.7451
11122TIP3    H254858   5.623   2.745  10.307  0.8931  0.9479 -1.4656
11123TIP3   OH254859   4.458   2.674  13.195  0.3141 -0.1171 -0.3907
11123TIP3    H154860   4.444   2.602  13.257 -0.7028  0.9842  0.7007
11123TIP3    H254861   4.537   2.648  13.147 -0.6113 -2.4618 -0.7933
11124TIP3   OH254862   2.179   6.217  13.384 -0.3087  0.4068 -0.4535
11124TIP3    H154863   2.115   6.278  13.347 -1.2824 -0.3901 -0.1236
11124TIP3    H254864   2.150   6.131  13.356 -0.7525 -0.1864  1.6175
11125TIP3   OH254865   3.114   1.213  13.369  0.8116 -0.5526 -0.1605
11125TIP3    H154866   3.031   1.195  13.412  2.0247 -0.7926  2.1912
11125TIP3    H254867   3.100   1.184  13.278 -1.5504 -0.8326  0.2234
11126TIP3   OH254868   6.245   5.113  11.935 -0.1518 -0.0050  0.1053
11126TIP3    H154869   6.281   5.202  11.924 -0.6159  0.0199 -1.5264
11126TIP3    H254870   6.309   5.056  11.891  0.9412 -0.7200  2.4662
11127TIP3   OH254871   4.971   6.807   1.264  0.2797 -0.1204  0.2172
11127TIP3    H154872   4.918   6.827   1.340  0.3732 -0.8357  0.4706
11127TIP3    H254873   5.038   6.746   1.296 -0.5695 -1.6028 -0.7376
11128TIP3   OH254874   3.554   0.848  12.307 -0.2206  0.2021  0.0029
11128TIP3    H154875   3.471   0.801  12.301  0.2617 -0.5925 -0.9082
11128TIP3    H254876   3.596   0.833  12.222  1.3890 -0.4741  0.8651
11129TIP3   OH254877   1.316   6.819  13.915  0.1599  0.5417  0.3351
11129TIP3    H154878   1.391   6.762  13.899  0.7293  0.9159  1.6000
11129TIP3    H254879   1.303   6.818  14.009  0.1981  2.5016  0.4126
11130TIP3   OH254880   0.363   3.741  14.978  0.3896 -0.3546  0.1850
11130TIP3    H154881   0.428   3.671  14.983  2.0548  1.0559 -0.6748
11130TIP3    H254882   0.305   3.714  14.906  1.2282 -0.6797 -0.3867
11131TIP3   OH254883   3.392   3.671   4.255 -0.6716  0.2879 -0.3871
11131TIP3    H154884   3.365   3.636   4.170  1.0851  1.2367 -1.3956
11131TIP3    H254885   3.420   3.594   4.305 -1.1699 -0.2205 -0.8835
11132TIP3   OH254886   0.417   5.256   6.173 -0.2400 -0.2199 -0.0880
11132TIP3    H154887   0.487   5.214   6.224 -1.3473 -2.2895 -0.1520
11132TIP3    H254888   0.461   5.287   6.094  0.6021 -1.7763 -0.2781
11133TIP3   OH254889   5.272   3.363  14.828  0.1860  0.0765 -0.0683
11133TIP3    H154890   5.240   3.402  14.909  1.2386  0.3527  0.2322
11133TIP3    H254891   5.334   3.428  14.794 -0.2966 -0.0001 -1.1356
11134TIP3   OH254892   4.448   6.319  13.478  0.0185  0.0428  0.2637
11134TIP3    H154893   4.460   6.310  13.383  1.3040  0.2087  0.4013
11134TIP3    H254894   4.455   6.413  13.494  0.4297 -0.0478  0.6097
11135TIP3   OH254895   4.250   5.699  11.372 -0.1409  0.4698 -0.0643
11135TIP3    H154896   4.220   5.763  11.307 -0.5948 -1.0208 -1.3846
11135TIP3    H254897   4.323   5.654  11.330 -0.2030 -0.2741  0.5985
11136TIP3   OH254898   0.812   0.972  12.083  0.1350  0.2663  0.7332
11136TIP3    H154899   0.824   1.034  12.154  0.7665  0.7546  0.2118
11136TIP3    H254900   0.728   0.996  12.043 -0.1759  0.0480  1.2450
11137TIP3   OH254901   6.718   5.700   4.006 -0.1652 -0.7424  0.0727
11137TIP3    H154902   6.629   5.721   3.978  0.4195  0.7810 -0.7785
11137TIP3    H254903   6.770   5.777   3.981  1.5510 -1.9281 -0.2377
11138TIP3   OH254904   1.426   3.882   3.437  0.0430 -0.3215 -0.0976
11138TIP3    H154905   1.410   3.823   3.363 -0.5111  0.8607 -0.9429
11138TIP3    H254906   1.460   3.962   3.397  0.2271  0.1628  0.9843
11139TIP3   OH254907   2.551   4.661   4.803  0.1075 -0.2361  0.4022
11139TIP3    H154908   2.603   4.715   4.863  1.7270 -2.2977  0.9569
11139TIP3    H254909   2.511   4.595   4.859 -0.8514 -0.3966 -0.4308
11140TIP3   OH254910   6.374   5.839  14.866 -0.4058 -0.4639  0.0919
11140TIP3    H154911   6.415   5.856  14.951 -0.4855  0.5957 -0.0639
11140TIP3    H254912   6.446   5.842  14.803 -0.5614  0.3149 -0.0559
11141TIP3   OH254913   1.148   6.265  13.977 -0.2796  0.7181 -0.1813
11141TIP3    H154914   1.065   6.222  14.000  0.6563 -0.7842  0.5904
11141TIP3    H254915   1.153   6.341  14.035 -0.9111  0.5557  0.0916
11142TIP3   OH254916   5.622   3.494   3.530  0.1971  0.2294  0.0192
11142TIP3    H154917   5.717   3.503   3.529  0.1311  0.9790 -0.3704
11142TIP3    H254918   5.602   3.440   3.454  0.4048 -1.0957  0.8811
11143TIP3   OH254919   2.504   4.214   0.853 -0.3734  0.6904  0.0730
11143TIP3    H154920   2.411   4.201   0.872 -0.1506  0.6513  1.2286
11143TIP3    H254921   2.535   4.271   0.923  0.8667 -0.7422  0.7531
11144TIP3   OH254922   0.532   6.139  14.821  0.5376  0.2055 -0.1743
11144TIP3    H154923   0.496   6.171  14.904  1.9440  0.5836  0.3211
11144TIP3    H254924   0.623   6.169  14.822  0.5001  0.4617 -1.9935
11145TIP3   OH254925   0.688   0.821   4.077  0.7446 -0.6449  0.5431
11145TIP3    H154926   0.647   0.891   4.128 -3.2768 -2.4568  0.1691
11145TIP3    H254927   0.624   0.800   4.009  3.4974 -2.1247 -1.7776
11146TIP3   OH254928   3.252   1.646  14.230 -0.0812  0.8728 -0.2968
11146TIP3    H154929   3.166   1.666  14.192 -1.7953 -0.7002  2.4042
11146TIP3    H254930   3.285   1.731  14.261 -0.7668  1.4559 -1.1212
11147TIP3   OH254931   1.746   3.626   5.478 -0.3192  0.4941 -0.7128
11147TIP3    H154932   1.713   3.540   5.505  1.2178 -0.0744 -0.5750
11147TIP3    H254933   1.667   3.678   5.467 -1.2804 -0.8502 -0.5355
11148TIP3   OH254934   0.193   1.965   4.375  0.1122  0.2933 -0.0137
11148TIP3    H154935   0.229   2.016   4.447  0.7612  1.9317 -1.4465
11148TIP3    H254936   0.184   1.876   4.411 -1.2690  1.3751  2.6315
11149TIP3   OH254937   6.075   3.691  16.436 -0.1671 -0.3058 -0.1081
11149TIP3    H154938   6.160   3.697  16.479 -0.2216  2.3048 -0.2295
11149TIP3    H254939   6.088   3.734  16.352 -1.0717 -1.9076 -1.1277
11150TIP3   OH254940   0.655   4.804   0.991  0.1570 -0.3065  0.6838
11150TIP3    H154941   0.668   4.858   1.069 -0.6847  2.4963 -1.0052
11150TIP3    H254942   0.659   4.865   0.918 -0.0028 -2.6897 -1.4534
11151TIP3   OH254943   5.955   0.762  13.418  0.1030 -0.5484 -0.3316
11151TIP3    H154944   6.003   0.746  13.337 -0.4539  2.1187 -1.3195
11151TIP3    H254945   5.863   0.750  13.394 -0.0082 -0.6904  0.1620
11152TIP3   OH254946   6.679   1.592  15.099 -0.2632 -0.3842  0.2584
11152TIP3    H154947   6.606   1.569  15.042  0.8014  0.3341 -1.4698
11152TIP3    H254948   6.743   1.633  15.041  1.1289 -0.1424  1.8822
11153TIP3   OH254949   2.973   1.712   0.015 -0.2237 -0.2232 -0.8129
11153TIP3    H154950   2.985   1.775  -0.056  0.9832 -0.1810 -0.5958
11153TIP3    H254951   2.926   1.761   0.083  2.4619  1.1457  0.1864
11154TIP3   OH254952   5.398   4.402  13.322  0.1477 -0.0153 -0.1706
11154TIP3    H154953   5.313   4.444  13.308  0.0519  0.0051  0.4450
11154TIP3    H254954   5.377   4.309  13.332  0.3027 -0.1470 -0.9647
11155TIP3   OH254955   2.744   2.279  14.474  0.2212  0.1352 -0.1109
11155TIP3    H154956   2.728   2.346  14.539 -0.2346  0.8516 -0.9442
11155TIP3    H254957   2.729   2.322  14.390  1.3646 -0.6031 -0.7224
11156TIP3   OH254958   4.756   2.666   2.027  0.1912  0.4530 -0.3132
11156TIP3    H154959   4.675   2.617   2.010  0.6212  0.5555 -2.9743
11156TIP3    H254960   4.731   2.758   2.017  0.2495  0.6114  0.8206
11157TIP3   OH254961   1.260   0.221   3.302  0.1757 -0.2045 -0.1588
11157TIP3    H154962   1.266   0.166   3.380 -1.3172 -0.3643 -0.1269
11157TIP3    H254963   1.166   0.238   3.292  0.5917  2.9551  0.2620
11158TIP3   OH254964   1.843   3.988  12.089 -0.1609  0.1445 -0.1684
11158TIP3    H154965   1.819   3.903  12.126  0.2077  0.3817  0.6623
11158TIP3    H254966   1.925   3.971  12.042  0.4785  0.2087  0.8607
11159TIP3   OH254967   2.926   4.720  13.393  0.5460  0.1038  0.2167
11159TIP3    H154968   2.905   4.743  13.484 -0.9224  1.2968 -0.3799
11159TIP3    H254969   2.901   4.797  13.343  0.8571 -0.7273 -1.2605
11160TIP3   OH254970   3.525   1.125  12.266  0.4012 -0.1475 -0.2401
11160TIP3    H154971   3.549   1.038  12.298  0.0593 -0.3374 -0.4976
11160TIP3    H254972   3.585   1.184  12.312  1.1011 -0.5787 -0.5794
11161TIP3   OH254973   0.991   0.093   4.077 -0.0977  0.4523 -0.6123
11161TIP3    H154974   1.044   0.032   4.129 -0.7822  0.9823  0.7682
11161TIP3    H254975   0.982   0.051   3.991  2.0821  0.1092 -0.7122
11162TIP3   OH254976   0.556   4.162  11.186 -0.4811 -0.3789 -0.9397
11162TIP3    H154977   0.587   4.072  11.196 -1.8772 -0.9731 -1.7182
11162TIP3    H254978   0.528   4.188  11.273 -1.5826 -1.2970 -0.9974
11163TIP3   OH254979   6.195   3.373  16.361 -0.1637  0.4643 -0.0088
11163TIP3    H154980   6.221   3.456  16.401 -2.4372  1.9515 -1.3512
11163TIP3    H254981   6.272   3.344  16.312  0.3265  2.4722 -0.5072
11164TIP3   OH254982   4.344   2.658  12.538 -0.5119  0.3449  0.2593
11164TIP3    H154983   4.323   2.618  12.623 -4.6869 -0.4740 -0.9193
11164TIP3    H254984   4.304   2.745  12.543 -0.3632  0.4767 -0.6791
11165TIP3   OH254985   5.537   1.617   4.878  0.4516  0.2498  0.0553
11165TIP3    H154986   5.529   1.709   4.903 -2.5864  0.0584  0.1902
11165TIP3    H254987   5.485   1.609   4.798  1.7522 -1.1295 -0.7045
11166TIP3   OH254988   0.688   2.532  10.917  0.1633  0.5899  0.0451
11166TIP3    H154989   0.744   2.540  10.994 -0.1735 -0.1226  0.3754
11166TIP3    H254990   0.749   2.512  10.845  0.5627  2.0380 -0.0405
11167TIP3   OH254991   5.147   1.969   1.593 -1.1375 -0.5655 -0.6852
11167TIP3    H154992   5.199   2.048   1.578 -2.0113  0.2583  0.4353
11167TIP3    H254993   5.201   1.917   1.653 -1.7506  0.5005  0.8558
11168TIP3   OH254994   4.383   5.531  15.899 -0.7256  0.6015 -0.3369
11168TIP3    H154995   4.343   5.509  15.815 -0.9275 -0.5466  0.0446
11168TIP3    H254996   4.311   5.525  15.962 -0.2104 -0.2676  0.1764
11169TIP3   OH254997   3.058   5.710   0.787  0.1520  0.4779  0.0276
11169TIP3    H154998   3.034   5.786   0.840 -1.1528 -0.6555  1.1149
11169TIP3    H254999   3.032   5.635   0.839  0.1848 -0.7141 -1.6050
11170TIP3   OH255000   1.651   0.645   3.223 -0.8032  0.4252 -0.4794
11170TIP3    H155001   1.593   0.594   3.166 -0.6473  0.0350 -0.2908
11170TIP3    H255002   1.592   0.686   3.286 -0.8025 -0.6801  0.2617
11171TIP3   OH255003   4.621   5.890  13.122 -0.3581  0.1942  0.5829
11171TIP3    H155004   4.617   5.816  13.183 -3.0008 -0.8224 -0.6741
11171TIP3    H255005   4.553   5.950  13.153 -0.7957  0.3026 -0.5477
11172TIP3   OH255006   5.021   4.875  15.047 -0.0930 -0.7204 -0.3679
11172TIP3    H155007   5.029   4.945  15.112  2.4629 -0.1509 -1.1614
11172TIP3    H255008   4.950   4.819  15.079 -0.0404  0.4651  1.9770
11173TIP3   OH255009   6.520   4.950   3.994 -0.3323 -1.2224 -0.6430
11173TIP3    H155010   6.572   4.871   4.005 -0.4711 -1.7086 -2.9990
11173TIP3    H255011   6.476   4.939   3.910 -0.9998  0.9972 -0.6603
11174TIP3   OH255012   1.902   6.703  13.728  0.3401  0.0891  0.5857
11174TIP3    H155013   1.850   6.657  13.662  0.4078  0.1758  0.4722
11174TIP3    H255014   1.976   6.739  13.680 -0.2007  1.1157  0.4877
11175TIP3   OH255015   0.252   1.729  13.603  0.0808 -0.2839 -0.1782
11175TIP3    H155016   0.203   1.810  13.601  0.2936 -0.1580 -1.2899
11175TIP3    H255017   0.201   1.668  13.550  0.0808 -0.7864  0.3838
11176TIP3   OH255018   4.901   2.079  11.848 -0.4855  0.4642 -0.1032
11176TIP3    H155019   4.855   2.001  11.819 -1.8643  1.5062 -0.8538
11176TIP3    H255020   4.876   2.146  11.784  1.5889  1.2515 -0.1738
11177TIP3   OH255021   4.966   6.331  11.982 -0.1085 -0.0302  0.0678
11177TIP3    H155022   4.905   6.385  12.033 -0.8602 -0.2004 -0.6288
11177TIP3    H255023   4.912   6.294  11.912  0.8555  0.0387 -0.7321
11178TIP3   OH255024   2.347   2.022   2.252 -0.8361  0.5600  0.2051
11178TIP3    H155025   2.397   2.055   2.177 -2.0243 -1.6386 -1.6838
11178TIP3    H255026   2.270   2.077   2.256 -0.7496  0.7132 -0.1886
11179TIP3   OH255027   3.869   6.778  16.768  0.5057 -0.0470  0.1300
11179TIP3    H155028   3.854   6.771  16.673 -1.7055  0.9316  0.3363
11179TIP3    H255029   3.824   6.702  16.805  1.1727 -0.3038  0.4125
11180TIP3   OH255030   3.157   2.659  11.189 -0.2448 -0.0917 -0.2178
11180TIP3    H155031   3.115   2.668  11.274  1.7955 -0.3585  0.8753
11180TIP3    H255032   3.125   2.734  11.138 -0.4744  0.8258  1.2299
11181TIP3   OH255033   6.082   0.811  15.364 -0.3726  0.4948  0.0351
11181TIP3    H155034   6.118   0.765  15.288 -0.9679 -1.5668  0.9330
11181TIP3    H255035   5.987   0.809  15.350 -0.5132 -0.2327  0.9821
11182TIP3   OH255036   1.460   6.236   3.107 -0.5317  0.0270  0.3597
11182TIP3    H155037   1.444   6.192   3.190  3.4065  1.1204  1.9173
11182TIP3    H255038   1.407   6.315   3.110 -3.2249 -1.6522  0.0732
11183TIP3   OH255039   5.304   3.757   2.680 -0.0415 -0.0471 -0.4419
11183TIP3    H155040   5.327   3.848   2.700 -1.8980  0.1986  0.9289
11183TIP3    H255041   5.319   3.710   2.762  0.4029 -0.8697 -0.9916
11184TIP3   OH255042   3.125   1.169  15.425 -0.6848 -0.8376  0.4374
11184TIP3    H155043   3.109   1.098  15.363  0.4832 -0.5825 -0.1931
11184TIP3    H255044   3.212   1.202  15.402 -0.9344  0.3802  1.1298
11185TIP3   OH255045   1.215   0.372   1.161 -0.3573  0.1512  0.1209
11185TIP3    H155046   1.275   0.339   1.094 -0.4666  0.9075 -0.3640
11185TIP3    H255047   1.272   0.406   1.230 -0.2197  0.9556 -0.3820
11186TIP3   OH255048   1.376   3.153  14.436 -0.2318 -0.0519 -0.1270
11186TIP3    H155049   1.448   3.206  14.403 -0.2042 -0.2052 -0.3110
11186TIP3    H255050   1.309   3.217  14.461 -1.4702  0.0461 -3.1763
11187TIP3   OH255051   3.694   3.642   1.851  0.2509  0.3061 -0.0347
11187TIP3    H155052   3.611   3.608   1.884  0.8976 -0.5688  0.7346
11187TIP3    H255053   3.707   3.599   1.766 -1.3133  2.4003 -1.4406
11188TIP3   OH255054   0.602   4.793   2.992  0.1463 -0.1120 -0.0410
11188TIP3    H155055   0.661   4.724   2.961  1.1217  1.0463 -0.8842
11188TIP3    H255056   0.660   4.867   3.008 -0.8926  0.5521  0.7227
11189TIP3   OH255057   5.273   1.043  12.503  0.2190 -0.1712  0.0266
11189TIP3    H155058   5.339   1.001  12.557 -0.8718 -1.0127  0.7403
11189TIP3    H255059   5.198   1.056  12.561 -0.2270  0.8524 -0.7315
11190TIP3   OH255060   6.135   1.637  11.616 -0.3050 -0.0507 -0.5079
11190TIP3    H155061   6.196   1.681  11.676 -0.3994 -0.3170 -0.2118
11190TIP3    H255062   6.164   1.664  11.529 -1.0520  1.5142 -0.3096
11191TIP3   OH255063   2.347   2.484   2.893 -0.3592 -0.2265  0.2199
11191TIP3    H155064   2.305   2.406   2.857 -0.4942  0.3050 -0.8322
11191TIP3    H255065   2.368   2.461   2.984 -0.2014 -1.5475 -0.1279
11192TIP3   OH255066   0.652   5.349   1.944  0.2638 -0.2811 -0.7661
11192TIP3    H155067   0.696   5.265   1.933  0.4566 -0.2908  0.0297
11192TIP3    H255068   0.723   5.413   1.942  0.4231 -0.3544  1.2785
11193TIP3   OH255069   4.968   6.670   4.422 -0.5311 -0.2039 -0.4783
11193TIP3    H155070   4.944   6.623   4.502 -1.8808 -0.4716 -0.9947
11193TIP3    H255071   5.040   6.727   4.447 -1.3683  0.2115  1.0900
11194TIP3   OH255072   0.225   1.412  14.562 -0.1723 -0.2710  0.0395
11194TIP3    H155073   0.158   1.406  14.493 -0.4477  0.1246  0.2727
11194TIP3    H255074   0.184   1.463  14.631  0.7110  0.8024 -0.2083
11195TIP3   OH255075   5.104   2.276  11.982  0.1495  0.9069  0.7261
11195TIP3    H155076   5.136   2.212  11.919  1.0181  1.0486  1.0099
11195TIP3    H255077   5.012   2.253  11.995 -0.3855  1.5895 -1.4679
11196TIP3   OH255078   3.224   3.811  17.059 -0.3035  0.0196  0.2418
11196TIP3    H155079   3.304   3.843  17.100 -0.8872  0.0521  1.3975
11196TIP3    H255080   3.231   3.839  16.968  1.5202 -0.9775  0.0287
11197TIP3   OH255081   5.138   4.106   1.971  0.3118  0.3011 -0.0795
11197TIP3    H155082   5.189   4.036   1.928  0.5443 -0.4975  1.4034
11197TIP3    H255083   5.064   4.121   1.913 -2.2104 -4.2974  1.4426
11198TIP3   OH255084   3.658   1.126   4.986  0.1126  0.1013  0.2052
11198TIP3    H155085   3.646   1.205   4.933  0.3231  0.6686  0.9826
11198TIP3    H255086   3.574   1.113   5.030 -0.0723 -0.3852 -0.2846
11199TIP3   OH255087   3.134   5.380  15.078  0.5977 -0.4059  0.0163
11199TIP3    H155088   3.221   5.365  15.043  0.1075  1.5508 -2.2729
11199TIP3    H255089   3.074   5.350  15.009 -0.4800  0.3694  0.5750
11200TIP3   OH255090   6.788   3.170   3.853  0.0563 -0.4321  0.4544
11200TIP3    H155091   6.763   3.186   3.944  0.3864 -0.4555  0.5505
11200TIP3    H255092   6.709   3.134   3.812  0.4929 -2.4606  1.2774
11201TIP3   OH255093   5.858   3.181  12.293  0.3735  0.2012  0.3031
11201TIP3    H155094   5.781   3.167  12.238  0.3873 -0.4377  0.4471
11201TIP3    H255095   5.884   3.094  12.322  0.0633  0.5744  1.7441
11202TIP3   OH255096   2.988   4.632   0.849  0.2290  0.1145 -0.9464
11202TIP3    H155097   3.019   4.694   0.783  1.7923  1.2352  0.7468
11202TIP3    H255098   2.945   4.687   0.915  1.5564 -0.5582  0.5410
11203TIP3   OH255099   0.339   3.801   3.325 -0.1995  0.2332 -0.5120
11203TIP3    H155100   0.410   3.862   3.307  0.1365 -0.5887 -2.1375
11203TIP3    H255101   0.382   3.715   3.332 -0.5141  0.2138  2.8174
11204TIP3   OH255102   3.459   3.410  14.825 -0.6529  0.0099  0.3618
11204TIP3    H155103   3.371   3.373  14.819  0.3643 -2.6095  0.4545
11204TIP3    H255104   3.463   3.451  14.912 -0.9156 -2.4138  1.5920
11205TIP3   OH255105   3.251   3.065  14.087  0.1344 -0.7230  0.2896
11205TIP3    H155106   3.260   2.977  14.050 -0.4288 -0.1787 -1.2416
11205TIP3    H255107   3.300   3.062  14.169  2.2983 -1.7305 -0.9582
11206TIP3   OH255108   1.944   2.672  11.781 -0.5069  0.1352 -0.1208
11206TIP3    H155109   1.902   2.675  11.867 -1.0797  0.9519 -0.4243
11206TIP3    H255110   1.872   2.663  11.718 -0.2623  1.6450 -0.6459
11207TIP3   OH255111   3.275   2.047  11.704 -0.1584 -0.0087  0.1410
11207TIP3    H155112   3.271   2.142  11.693  1.8421  0.0482 -0.3679
11207TIP3    H255113   3.215   2.012  11.638 -2.1498  0.8894  1.3639
11208TIP3   OH255114   0.903   5.610  14.344 -0.2466 -0.0761 -0.1682
11208TIP3    H155115   0.854   5.549  14.290  1.3755 -1.4653 -0.1683
11208TIP3    H255116   0.989   5.615  14.303  0.5426  0.0079  1.3964
11209TIP3   OH255117   2.592   5.059  12.237 -0.0444 -0.3634  0.3644
11209TIP3    H155118   2.685   5.051  12.216 -0.4450 -1.5049 -1.1838
11209TIP3    H255119   2.548   5.012  12.166 -1.7404 -0.9985  1.7674
11210TIP3   OH255120   3.336   0.525  14.711 -0.0831 -0.8902  0.8496
11210TIP3    H155121   3.423   0.488  14.720  0.0007 -1.4048 -1.5123
11210TIP3    H255122   3.276   0.452  14.728 -0.0329 -0.8861  1.0466
11211TIP3   OH255123   0.785   1.799  15.750 -0.4749  0.4596 -0.1107
11211TIP3    H155124   0.802   1.728  15.687  2.1957  1.7581 -1.0250
11211TIP3    H255125   0.782   1.755  15.835  0.5892 -0.8269 -0.7001
11212TIP3   OH255126   2.149   0.129  14.587  0.8093 -0.1226 -0.2920
11212TIP3    H155127   2.092   0.066  14.544  1.8903 -0.7764 -0.7944
11212TIP3    H255128   2.089   0.185  14.638 -0.0869 -2.3080  1.1978
11213TIP3   OH255129   1.475   1.026   3.554  0.0295 -0.4470 -0.2327
11213TIP3    H155130   1.412   0.971   3.601 -0.7877  1.0288  0.4606
11213TIP3    H255131   1.546   1.040   3.616 -1.0039  1.4193  0.6438
11214TIP3   OH255132   0.732   1.133  16.738 -0.4829  0.0028  0.0199
11214TIP3    H155133   0.641   1.116  16.711 -0.4236 -0.2457 -0.0191
11214TIP3    H255134   0.748   1.071  16.809  0.4592 -1.6813 -1.5828
11215TIP3   OH255135   0.229   6.206  11.084 -0.5901 -0.0998 -0.1297
11215TIP3    H155136   0.249   6.113  11.093  2.7432  0.4256 -0.7873
11215TIP3    H255137   0.281   6.249  11.152 -1.7355  1.3233 -0.1086
11216TIP3   OH255138   6.115   0.656  15.827 -0.2782 -0.2124 -0.3821
11216TIP3    H155139   6.197   0.703  15.839 -0.2211  0.0238 -1.5075
11216TIP3    H255140   6.048   0.725  15.826 -0.5806 -0.4524  1.1215
11217TIP3   OH255141   5.433   0.538  16.741  0.1686 -0.4425 -0.0934
11217TIP3    H155142   5.476   0.618  16.772  1.3801  0.2646 -3.1839
11217TIP3    H255143   5.483   0.513  16.664 -2.0249 -2.4867 -0.9739
11218TIP3   OH255144   2.971   5.401   3.202 -0.0750 -0.1194 -0.4691
11218TIP3    H155145   2.950   5.413   3.109  1.8480 -1.9301 -1.2000
11218TIP3    H255146   2.959   5.488   3.240 -0.9495  0.6645 -2.3878
11219TIP3   OH255147   3.419   5.959  15.883 -0.8363  0.0549 -0.4233
11219TIP3    H155148   3.488   5.924  15.827 -2.4080 -3.5549 -0.3480
11219TIP3    H255149   3.355   5.995  15.821 -1.2970 -1.4380 -0.8481
11220TIP3   OH255150   0.597   5.573   5.178 -0.7271 -0.1793  0.4903
11220TIP3    H155151   0.617   5.658   5.139 -2.0086  0.1642  0.5400
11220TIP3    H255152   0.604   5.588   5.272 -0.7697 -0.1766  0.4931
11221TIP3   OH255153   4.808   1.150  11.147  0.6850 -0.6355  0.9574
11221TIP3    H155154   4.768   1.122  11.064 -1.3437  1.5349  1.1040
11221TIP3    H255155   4.896   1.177  11.123  0.5882 -1.2877 -0.2339
11222TIP3   OH255156   4.490   4.865   3.358  0.2048  0.4294  0.1019
11222TIP3    H155157   4.536   4.904   3.284 -0.4074 -0.3670 -0.7054
11222TIP3    H255158   4.445   4.789   3.322 -0.5257  0.3261  1.1848
11223TIP3   OH255159   4.076   6.651  11.190  0.3941 -0.1146  0.5734
11223TIP3    H155160   4.165   6.622  11.170 -0.0310 -2.3737  1.6383
11223TIP3    H255161   4.086   6.703  11.269  1.1459  2.7245 -1.2538
11224TIP3   OH255162   0.773   1.013  15.181  0.1614 -0.3808  0.2859
11224TIP3    H155163   0.865   0.984  15.180 -0.5123 -2.7460 -0.4237
11224TIP3    H255164   0.730   0.954  15.243 -1.0581  0.0577 -0.1249
11225TIP3   OH255165   0.861   1.330  11.798 -0.1565  0.3217  0.6566
11225TIP3    H155166   0.859   1.326  11.702 -0.9590  0.2061  0.6683
11225TIP3    H255167   0.769   1.330  11.823 -0.0360 -2.5847  1.5496
11226TIP3   OH255168   3.048   5.631  10.606 -0.7234 -0.6537  0.4127
11226TIP3    H155169   3.049   5.544  10.565  1.8972 -0.5942  0.1712
11226TIP3    H255170   3.137   5.664  10.594 -1.7870  2.3431 -0.0081
11227TIP3   OH255171   2.649   3.868   3.803  0.0791 -0.1018 -0.7527
11227TIP3    H155172   2.682   3.948   3.763  0.4219  0.9130  1.4488
11227TIP3    H255173   2.698   3.859   3.885 -2.5474 -0.5012  0.8996
11228TIP3   OH255174   3.105   1.180   0.415 -0.4190  0.5365 -0.4174
11228TIP3    H155175   3.191   1.207   0.448 -0.5878  0.8877 -0.2595
11228TIP3    H255176   3.106   1.084   0.422  0.0564  0.5228 -0.6580
11229TIP3   OH255177   5.595   6.790  12.500  0.2799 -0.3221  0.4024
11229TIP3    H155178   5.570   6.740  12.578 -0.8830 -1.7191 -0.8070
11229TIP3    H255179   5.681   6.755  12.476  0.5310 -0.0614  0.9110
11230TIP3   OH255180   2.382   0.938  11.624 -0.2009 -0.2229  0.3679
11230TIP3    H155181   2.468   0.957  11.660 -0.3086 -1.0953  1.1056
11230TIP3    H255182   2.378   0.991  11.544  0.9666 -0.0832  0.3813
11231TIP3   OH255183   3.232   3.691  12.453  0.3029 -0.2138  0.1339
11231TIP3    H155184   3.248   3.643  12.372  0.9456 -1.2228  0.8381
11231TIP3    H255185   3.208   3.780  12.424 -0.8394 -0.9110 -1.1993
11232TIP3   OH255186   4.794   0.866   2.199  0.2937  0.1682  0.2765
11232TIP3    H155187   4.730   0.822   2.144  2.1202 -0.1061 -1.7860
11232TIP3    H255188   4.861   0.799   2.215  2.1324  1.5255 -1.2376
11233TIP3   OH255189   4.530   1.002  11.061 -0.4425  0.0464 -0.5123
11233TIP3    H155190   4.523   0.990  10.967  1.3291 -0.1442 -0.6612
11233TIP3    H255191   4.528   1.097  11.073 -0.9103  0.0628 -0.7171
11234TIP3   OH255192   0.417   0.788  14.122 -0.3378 -0.2839  0.5721
11234TIP3    H155193   0.429   0.864  14.064 -0.1978 -1.3712 -0.8717
11234TIP3    H255194   0.498   0.739  14.114  0.0376 -0.0120  2.4225
11235TIP3   OH255195   0.156   4.824  14.146 -0.0031  0.1780  0.7210
11235TIP3    H155196   0.132   4.838  14.054  1.1957 -1.9248  0.0126
11235TIP3    H255197   0.252   4.827  14.146  0.0096  0.3180  1.9676
11236TIP3   OH255198   4.316   0.164   5.411  0.2405  0.2109 -0.4061
11236TIP3    H155199   4.303   0.258   5.424  1.3596  0.1450  1.4351
11236TIP3    H255200   4.285   0.148   5.321  0.0863  2.3275 -0.7759
11237TIP3   OH255201   0.425   2.283   4.441  0.6135 -0.0744 -0.1086
11237TIP3    H155202   0.391   2.223   4.508  0.9949 -0.1950 -0.0151
11237TIP3    H255203   0.488   2.337   4.489  1.7555 -0.9256 -0.5948
11238TIP3   OH255204   2.541   1.237  14.247 -0.5796 -0.1225  0.2060
11238TIP3    H155205   2.464   1.292  14.233 -0.5404 -0.0022  0.4491
11238TIP3    H255206   2.515   1.150  14.215 -0.9878 -0.2030  0.7315
11239TIP3   OH255207   6.336   0.362   4.373  0.5982 -1.0467 -0.1201
11239TIP3    H155208   6.356   0.324   4.459 -1.3703 -0.4615  0.6556
11239TIP3    H255209   6.355   0.455   4.383  0.1815 -0.9457 -0.2443
11240TIP3   OH255210   5.319   0.414   2.683  0.1505  0.3341 -0.3583
11240TIP3    H155211   5.303   0.508   2.688 -1.0693  0.2855 -2.3950
11240TIP3    H255212   5.289   0.380   2.767 -0.4623  1.6153 -0.0321
11241TIP3   OH255213   6.459   5.728   3.840 -0.1046 -0.0777  0.0769
11241TIP3    H155214   6.468   5.720   3.745 -1.4474  0.8946 -0.1468
11241TIP3    H255215   6.423   5.644   3.868  1.1558 -0.7203 -0.1168
11242TIP3   OH255216   0.522   6.326   5.034 -0.5962 -0.3918 -0.2675
11242TIP3    H155217   0.545   6.395   5.096  0.1429  0.6785 -1.6687
11242TIP3    H255218   0.531   6.366   4.948 -2.6110 -1.5111 -1.0928
11243TIP3   OH255219   2.263   1.853  15.461 -0.7721 -0.2605 -0.1544
11243TIP3    H155220   2.295   1.915  15.396 -0.4699  0.6265  0.8262
11243TIP3    H255221   2.168   1.866  15.462 -0.6836  0.3632  0.2288
11244TIP3   OH255222   4.200   3.754  16.097  0.3299  0.4198 -0.4031
11244TIP3    H155223   4.206   3.708  16.013  1.3912 -0.2971  0.0418
11244TIP3    H255224   4.118   3.803  16.092 -0.3388 -0.7443 -1.2826
11245TIP3   OH255225   5.589   0.559   4.799  0.1080 -0.4022  0.5811
11245TIP3    H155226   5.629   0.640   4.831  2.1630 -0.0565 -2.4166
11245TIP3    H255227   5.654   0.491   4.820 -1.6272 -1.4222  3.1337
11246TIP3   OH255228   0.239   4.729   4.195 -0.3260  0.1703  0.7677
11246TIP3    H155229   0.316   4.703   4.144 -0.8597 -0.1241  0.0911
11246TIP3    H255230   0.275   4.772   4.272  0.4974  1.6241 -0.3749
11247TIP3   OH255231   0.253   1.572  11.199 -0.2720  0.4724 -0.1137
11247TIP3    H155232   0.166   1.555  11.161  0.1763 -0.7100 -0.6717
11247TIP3    H255233   0.305   1.603  11.125 -0.4381  2.1042  0.4148
11248TIP3   OH255234   3.755   0.713   1.601  0.4191 -0.3593  0.3060
11248TIP3    H155235   3.788   0.732   1.689  1.9397  0.0072 -0.3177
11248TIP3    H255236   3.781   0.789   1.548 -2.7373  0.6633  0.0375
11249TIP3   OH255237   0.838   2.537  12.039 -0.0077  0.1864  0.5479
11249TIP3    H155238   0.908   2.602  12.045 -0.6407  0.9275  0.1477
11249TIP3    H255239   0.758   2.589  12.027 -0.6023 -0.6480  0.7988
11250TIP3   OH255240   4.704   1.021   4.707 -0.2058 -0.2458 -0.3634
11250TIP3    H155241   4.791   1.059   4.691 -0.4835  0.0623 -1.2571
11250TIP3    H255242   4.720   0.927   4.715  0.2819 -0.1296  0.0939
11251TIP3   OH255243   1.354   1.116  11.820  0.1008  0.2737  0.4070
11251TIP3    H155244   1.332   1.169  11.743 -0.5135 -0.0485  0.3606
11251TIP3    H255245   1.290   1.141  11.886  0.6965  0.6296  0.8539
11252TIP3   OH255246   4.048   2.749   5.122 -0.1165 -0.0831 -0.4277
11252TIP3    H155247   3.972   2.805   5.137 -0.5184 -0.8113  0.3470
11252TIP3    H255248   4.089   2.785   5.044 -0.4356  1.2060 -0.0265
11253TIP3   OH255249   3.787   3.333   1.244  0.3215 -0.5582 -0.4385
11253TIP3    H155250   3.765   3.383   1.166  1.0902 -1.0965 -1.0272
11253TIP3    H255251   3.839   3.259   1.211 -2.4973 -2.9712  0.1052
11254TIP3   OH255252   4.715   1.372  15.144 -0.1006 -0.0130  0.5531
11254TIP3    H155253   4.704   1.422  15.063  0.5619  1.0480  1.0819
11254TIP3    H255254   4.630   1.376  15.187 -0.0180  0.8676  0.6721
11255TIP3   OH255255   5.441   1.167  14.575  0.2304 -0.4329 -0.4635
11255TIP3    H155256   5.440   1.072  14.586 -1.0103 -0.6862 -2.2665
11255TIP3    H255257   5.429   1.180  14.481 -0.9656  1.5169 -0.0860
11256TIP3   OH255258   2.800   4.762   5.309  0.3476 -0.2162  0.1348
11256TIP3    H155259   2.807   4.747   5.404 -1.5400  1.3440  0.5936
11256TIP3    H255260   2.808   4.857   5.300 -0.3825 -0.2605 -1.1533
11257TIP3   OH255261   4.252   6.655  12.432 -0.0075 -0.2781  0.4553
11257TIP3    H155262   4.261   6.560  12.430  0.4889 -0.3039  2.2695
11257TIP3    H255263   4.331   6.686  12.476 -0.7101  0.8701  0.9627
11258TIP3   OH255264   1.259   4.550   6.172  0.0722  0.0599 -0.8670
11258TIP3    H155265   1.202   4.477   6.197  0.1138  0.8753  1.9274
11258TIP3    H255266   1.240   4.618   6.236  0.8461  2.1390 -2.7214
11259TIP3   OH255267   0.909   2.634   2.249  0.4421 -0.0052 -0.3615
11259TIP3    H155268   0.969   2.598   2.315  0.6295 -1.0750 -1.1063
11259TIP3    H255269   0.858   2.699   2.298  1.6509  0.3677  0.4740
11260TIP3   OH255270   1.103   6.279  15.826 -0.0496  0.0457  0.4991
11260TIP3    H155271   1.133   6.276  15.735  0.5935  1.3062  0.6545
11260TIP3    H255272   1.121   6.191  15.860  1.2234  0.0364 -0.1374
11261TIP3   OH255273   0.711   6.212  15.509 -0.2930  0.4297 -0.0880
11261TIP3    H155274   0.673   6.160  15.438  1.2518 -0.8766 -0.0186
11261TIP3    H255275   0.737   6.294  15.467  0.4862 -0.2731 -1.0330
11262TIP3   OH255276   0.538   3.179   4.564 -0.1114  0.2394 -0.2409
11262TIP3    H155277   0.571   3.182   4.474  0.7434 -3.1824 -0.1837
11262TIP3    H255278   0.613   3.151   4.616 -0.7417  1.5818  1.4987
11263TIP3   OH255279   4.698   5.631  15.631  0.5729 -0.4455  0.0595
11263TIP3    H155280   4.723   5.554  15.683  0.4488 -1.4943 -1.3573
11263TIP3    H255281   4.653   5.594  15.555  3.1607  0.7854 -2.2443
11264TIP3   OH255282   4.735   2.513   0.215  0.1495 -0.2708  0.2821
11264TIP3    H155283   4.743   2.426   0.253  1.1158  0.3423  1.5248
11264TIP3    H255284   4.736   2.498   0.120  0.0899 -1.6214  0.4837
11265TIP3   OH255285   0.894   3.004  10.191 -0.3252 -0.9075 -0.8003
11265TIP3    H155286   0.814   2.994  10.243  0.4522  2.2395  1.2862
11265TIP3    H255287   0.914   2.915  10.162 -4.0850 -1.9439 -0.7698
11266TIP3   OH255288   2.341   1.522   1.486  0.1183 -0.2338 -0.3810
11266TIP3    H155289   2.306   1.602   1.447 -0.5772  0.2386  1.1223
11266TIP3    H255290   2.436   1.531   1.479  0.0298 -0.5565 -2.6255
11267TIP3   OH255291   4.275   5.145  12.944  0.0351  0.0501  0.0436
11267TIP3    H155292   4.315   5.216  12.893  0.9085 -1.2219 -1.0870
11267TIP3    H255293   4.199   5.118  12.892 -1.1177  0.9964  1.1322
11268TIP3   OH255294   1.544   0.561   4.508  0.7448  0.1834 -0.4277
11268TIP3    H155295   1.550   0.466   4.502  1.3806  0.1687  0.3833
11268TIP3    H255296   1.461   0.577   4.554  1.1105 -0.0153  0.3159
11269TIP3   OH255297   4.072   5.516   0.717  0.7867  0.1678  0.3206
11269TIP3    H155298   4.010   5.448   0.740 -2.0757  1.7715 -1.8792
11269TIP3    H255299   4.045   5.592   0.768  1.7083  0.5993  0.1923
11270TIP3   OH255300   0.238   3.675   5.421  0.8458 -0.2636 -0.1445
11270TIP3    H155301   0.323   3.715   5.439  1.6351 -1.7849 -0.3067
11270TIP3    H255302   0.260   3.590   5.383 -0.7503 -0.9481  0.4049
11271TIP3   OH255303   2.225   5.941   0.851  0.0750  0.6200 -0.3961
11271TIP3    H155304   2.175   5.929   0.932  1.4858 -1.8583  0.2132
11271TIP3    H255305   2.161   5.925   0.782 -0.4180 -0.7429  0.3289
11272TIP3   OH255306   1.318   2.871  15.912 -0.0467 -0.4833  0.3052
11272TIP3    H155307   1.398   2.826  15.884 -1.0305 -2.3847  0.3517
11272TIP3    H255308   1.337   2.902  16.001  0.8688 -0.2339  0.0352
11273TIP3   OH255309   6.654   5.628   2.453 -0.1786 -0.6344  0.5238
11273TIP3    H155310   6.721   5.675   2.403 -0.1061  2.2393  3.0004
11273TIP3    H255311   6.703   5.571   2.512 -0.0554 -0.8065  0.2533
11274TIP3   OH255312   6.507   5.810   5.655 -0.2831  0.6384  0.4772
11274TIP3    H155313   6.501   5.718   5.681 -0.7287  0.3397 -0.6183
11274TIP3    H255314   6.456   5.815   5.574  0.6289  1.6216 -0.0573
11275TIP3   OH255315   5.067   5.790   5.925  0.6059  0.0721  0.1093
11275TIP3    H155316   4.985   5.838   5.918  1.3241  1.2619 -0.5498
11275TIP3    H255317   5.062   5.745   6.009 -1.9384 -2.2997 -1.1795
11276TIP3   OH255318   3.994   3.156   1.163  0.0872 -0.0690 -0.1612
11276TIP3    H155319   4.074   3.207   1.148 -0.0348  0.1452 -0.0798
11276TIP3    H255320   4.026   3.067   1.179  0.2776 -0.0938 -0.6698
11277TIP3   OH255321   1.327   3.144  14.939 -0.0777 -0.3767  0.2508
11277TIP3    H155322   1.324   3.225  14.990  0.7773  0.7808 -1.4120
11277TIP3    H255323   1.412   3.148  14.894  0.5537 -2.8378  1.0727
11278TIP3   OH255324   2.762   0.582   5.089 -0.5012  0.0964 -0.5491
11278TIP3    H155325   2.829   0.619   5.031 -0.8350  2.2254  0.3415
11278TIP3    H255326   2.679   0.605   5.046 -0.7053 -0.3381 -0.3838
11279TIP3   OH255327   2.944   3.823   0.242  0.3846 -0.3227 -0.1113
11279TIP3    H155328   3.001   3.900   0.243  2.8168 -2.0042  0.9490
11279TIP3    H255329   2.962   3.782   0.158  2.3966 -1.8899  0.9822
11280TIP3   OH255330   1.318   5.296   5.105 -0.6472  0.2882  0.3894
11280TIP3    H155331   1.398   5.315   5.058 -1.1802  1.1604 -0.1846
11280TIP3    H255332   1.323   5.350   5.184  0.2196 -1.1304  1.3532
11281TIP3   OH255333   1.242   3.827  10.669 -0.0386  0.2500  0.3521
11281TIP3    H155334   1.272   3.865  10.752  0.4928 -0.3915  0.4629
11281TIP3    H255335   1.148   3.844  10.667  0.0011  0.5498  0.9405
11282TIP3   OH255336   3.829   2.026   1.841 -0.4890  0.3404  0.5918
11282TIP3    H155337   3.808   2.081   1.765 -0.1085  1.0253  0.9647
11282TIP3    H255338   3.859   2.089   1.907  0.9810 -0.4192  0.6765
11283TIP3   OH255339   1.818   4.899   0.005  0.3215 -0.0833 -0.1738
11283TIP3    H155340   1.831   4.805   0.012 -0.4275 -0.2892 -1.2455
11283TIP3    H255341   1.873   4.936   0.074  0.5162 -1.3023  0.3558
11284TIP3   OH255342   4.112   2.732  14.344  0.4112  0.3501  0.2929
11284TIP3    H155343   4.063   2.774  14.273  1.1739 -0.8676 -1.0079
11284TIP3    H255344   4.099   2.789  14.419 -2.1305  0.6166 -0.2670
11285TIP3   OH255345   3.751   6.788  15.709  0.5003 -0.0147 -1.0538
11285TIP3    H155346   3.703   6.788  15.627 -0.7419 -2.0661 -0.4032
11285TIP3    H255347   3.683   6.793  15.777  1.4940  1.7588 -0.1165
11286TIP3   OH255348   6.310   6.325   3.976  0.4098 -0.3264 -0.5766
11286TIP3    H155349   6.384   6.265   3.973 -0.4594 -1.4025 -1.4059
11286TIP3    H255350   6.247   6.288   3.915 -0.3627  1.1787 -0.7280
11287TIP3   OH255351   1.753   6.489   2.222  0.2709  0.4161  0.2095
11287TIP3    H155352   1.846   6.486   2.245  0.5419  1.0572 -0.7337
11287TIP3    H255353   1.752   6.506   2.127 -0.8112  0.8036  0.2740
11288TIP3   OH255354   4.805   0.969   3.333  0.0661  0.3129  0.1136
11288TIP3    H155355   4.850   0.935   3.255  1.1582 -0.7140  1.1452
11288TIP3    H255356   4.776   0.890   3.379  1.2881  0.7760  1.7825
11289TIP3   OH255357   4.871   2.700  13.195  0.0848  0.2091  0.2967
11289TIP3    H155358   4.795   2.758  13.185  0.6203  0.6598 -1.4059
11289TIP3    H255359   4.848   2.621  13.146  0.4234  0.0448  0.4014
11290TIP3   OH255360   3.910   4.899   2.671  0.2977  0.3631  0.1881
11290TIP3    H155361   3.862   4.882   2.752  1.1432 -0.4477  0.5331
11290TIP3    H255362   3.949   4.986   2.684  1.0798 -0.0950  0.9836
11291TIP3   OH255363   3.430   1.831   4.232  0.5972 -0.2007  0.6762
11291TIP3    H155364   3.496   1.892   4.200 -0.0562  0.6211  0.8341
11291TIP3    H255365   3.420   1.852   4.325  1.9509 -2.0709  1.2919
11292TIP3   OH255366   0.139   2.420  12.112 -0.4911  0.5060  0.2655
11292TIP3    H155367   0.169   2.366  12.039  1.5374  2.0217 -0.1200
11292TIP3    H255368   0.208   2.413  12.178 -1.4750  0.5241  1.3308
11293TIP3   OH255369   3.722   3.172   3.769 -0.5296 -0.6070 -0.0693
11293TIP3    H155370   3.699   3.259   3.802 -2.3619 -1.1777  0.2745
11293TIP3    H255371   3.641   3.139   3.730  0.2143 -2.0578 -0.4649
11294TIP3   OH255372   4.135   2.588   4.244 -0.6389 -0.5853  0.4414
11294TIP3    H155373   4.090   2.658   4.197  0.6309 -1.0923 -1.6968
11294TIP3    H255374   4.224   2.620   4.255  0.0240 -1.9079 -0.7789
11295TIP3   OH255375   5.935   3.360   5.573 -0.0544 -0.3546 -0.0847
11295TIP3    H155376   5.862   3.380   5.632  0.6600  0.5367  0.5350
11295TIP3    H255377   5.958   3.270   5.594 -1.2718 -0.8163 -0.6310
11296TIP3   OH255378   0.590   1.446  12.017 -0.0454 -0.3955 -0.4429
11296TIP3    H155379   0.609   1.503  11.943 -0.6545  0.5262  0.0825
11296TIP3    H255380   0.526   1.382  11.983  1.0116 -1.0997 -1.1657
11297TIP3   OH255381   0.476   5.039   5.558 -0.7774  0.3845  0.4656
11297TIP3    H155382   0.424   5.082   5.490 -0.1106  2.2792  1.0888
11297TIP3    H255383   0.420   5.039   5.635 -0.7752  0.0925  0.4702
11298TIP3   OH255384   6.462   3.279   3.090 -0.6706 -0.5070 -0.3922
11298TIP3    H155385   6.400   3.311   3.155  1.1074 -1.2701  1.8200
11298TIP3    H255386   6.457   3.184   3.097  0.0279 -0.5889 -0.8884
11299TIP3   OH255387   3.700   6.668  13.111  0.0723 -0.2808 -0.0316
11299TIP3    H155388   3.705   6.693  13.203 -2.2944 -2.8472  0.9106
11299TIP3    H255389   3.791   6.662  13.083  0.8736 -0.0937  2.3288
11300TIP3   OH255390   6.040   3.945   4.895  0.5307 -0.2078  0.3699
11300TIP3    H155391   6.078   3.862   4.867  0.8266  0.2859 -0.7612
11300TIP3    H255392   5.967   3.921   4.951  0.1908 -1.2545 -0.4858
11301TIP3   OH255393   3.200   6.798  11.016 -0.0227 -0.2739 -0.2812
11301TIP3    H155394   3.151   6.878  11.033 -0.4735 -0.6472  0.2148
11301TIP3    H255395   3.275   6.826  10.964 -1.4130  0.1546 -2.1864
11302TIP3   OH255396   6.837   2.100  15.449  0.5047 -0.1966 -0.5634
11302TIP3    H155397   6.763   2.059  15.403  2.0180 -1.2875 -2.1737
11302TIP3    H255398   6.812   2.191  15.459 -0.6003 -0.2839 -2.1382
11303TIP3   OH255399   6.392   6.754   4.181 -0.4053  0.8034 -0.2833
11303TIP3    H155400   6.344   6.671   4.183 -1.4802  1.3872  1.9508
11303TIP3    H255401   6.483   6.728   4.192 -0.7557 -0.0848  0.7538
11304TIP3   OH255402   5.475   6.787  17.155 -0.4476 -0.0915  0.3217
11304TIP3    H155403   5.544   6.732  17.193 -1.1790 -0.4688  1.1425
11304TIP3    H255404   5.408   6.791  17.223 -1.4619 -0.1345 -0.6479
11305TIP3   OH255405   0.158   6.554  17.067  0.1178  0.0570 -0.3750
11305TIP3    H155406   0.102   6.478  17.051  0.4240  0.2074 -2.3186
11305TIP3    H255407   0.219   6.525  17.134  0.4883 -1.5565 -1.3628
11306TIP3   OH255408   0.293   4.406  16.515 -0.1059  0.0543 -0.1979
11306TIP3    H155409   0.290   4.380  16.607  2.2475  0.3777  0.0406
11306TIP3    H255410   0.366   4.468  16.510  0.0243 -0.1891 -2.3211
11307TIP3   OH255411   1.559   5.620   3.914  0.1081  0.6223  0.0085
11307TIP3    H155412   1.586   5.615   3.822  1.9114 -0.6826  0.5670
11307TIP3    H255413   1.576   5.711   3.938  1.3905  0.5332 -0.4656
11308TIP3   OH255414   6.661   2.628   4.463  0.1629  0.9353  0.0596
11308TIP3    H155415   6.680   2.535   4.477  1.5401  1.4519  2.1031
11308TIP3    H255416   6.583   2.629   4.407  0.1989 -1.4297 -0.1188
11309TIP3   OH255417   4.502   2.319   4.351 -0.0816  0.0701 -0.4407
11309TIP3    H155418   4.574   2.351   4.405 -1.9508  1.7820  1.1901
11309TIP3    H255419   4.424   2.331   4.405 -1.4555 -3.8770 -1.1932
11310TIP3   OH255420   3.072   6.660   1.433  0.3932 -0.2487 -0.3405
11310TIP3    H155421   3.166   6.644   1.428  0.6261  0.3007  1.5397
11310TIP3    H255422   3.033   6.573   1.418  1.1920 -0.5621 -0.7068
11311TIP3   OH255423   2.677   2.502  16.534 -0.1982 -0.3085  0.2706
11311TIP3    H155424   2.672   2.598  16.536 -1.0536 -0.3456  0.3452
11311TIP3    H255425   2.693   2.477  16.625  1.0950 -0.2024  0.0955
11312TIP3   OH255426   4.500   1.238   2.800 -0.2914  0.4426 -0.0272
11312TIP3    H155427   4.584   1.227   2.847  0.1164  1.4903 -0.4910
11312TIP3    H255428   4.464   1.149   2.796  1.3520 -0.2318 -0.8469
11313TIP3   OH255429   1.486   4.044  13.957  0.1962 -0.1714 -0.4244
11313TIP3    H155430   1.503   3.956  13.990  1.1535 -0.3734 -1.4121
11313TIP3    H255431   1.544   4.100  14.008 -1.3532  0.1048  1.1320
11314TIP3   OH255432   3.304   5.841   3.526  0.6783 -0.4344 -0.7105
11314TIP3    H155433   3.372   5.797   3.474  2.1947 -0.1683  0.9713
11314TIP3    H255434   3.281   5.777   3.593  1.3483  0.5042  0.4507
11315TIP3   OH255435   3.505   4.467   1.872 -0.1244  0.8872 -0.4474
11315TIP3    H155436   3.579   4.467   1.812 -0.7771 -1.9388 -1.4419
11315TIP3    H255437   3.428   4.476   1.815 -0.6326  1.3282  0.2952
11316TIP3   OH255438   0.668   3.381  14.418 -0.3387 -0.3458  0.0898
11316TIP3    H155439   0.606   3.426  14.360 -0.2479 -1.1620 -0.6648
11316TIP3    H255440   0.630   3.294  14.429  0.4244 -0.6877  0.0264
11317TIP3   OH255441   1.413   5.338  13.318 -0.1979 -0.0535  0.1873
11317TIP3    H155442   1.395   5.260  13.265 -0.3078 -0.7065  1.1784
11317TIP3    H255443   1.363   5.326  13.398 -0.1797  1.0246  0.3791
11318TIP3   OH255444   1.079   4.708  14.849 -0.1055 -0.1586  0.4238
11318TIP3    H155445   1.119   4.773  14.791  0.6602 -2.0004 -1.2161
11318TIP3    H255446   1.153   4.668  14.895 -0.0947 -2.4312 -1.3927
11319TIP3   OH255447   6.807   1.810   6.228 -0.0031  0.4193 -0.2912
11319TIP3    H155448   6.833   1.896   6.194  0.0932  0.5971  0.2168
11319TIP3    H255449   6.740   1.779   6.167  2.6123 -0.8576 -2.6914
11320TIP3   OH255450   4.656   4.872  12.289  0.1572  0.0287 -0.0858
11320TIP3    H155451   4.592   4.909  12.228  1.3731 -1.7226 -2.5464
11320TIP3    H255452   4.602   4.827  12.355 -1.1795  1.9214  0.2054
11321TIP3   OH255453   6.665   5.988  11.208 -0.4334 -0.0115 -0.1019
11321TIP3    H155454   6.719   5.987  11.287  0.3626 -0.3815 -0.6420
11321TIP3    H255455   6.641   6.080  11.197  0.8927  0.3174 -0.3846
11322TIP3   OH255456   4.660   3.364   0.580  0.0960 -0.3883  0.0234
11322TIP3    H155457   4.709   3.298   0.530 -1.6304 -1.9370  0.2905
11322TIP3    H255458   4.619   3.419   0.512  1.2115  0.2174 -0.1969
11323TIP3   OH255459   5.318   1.876   2.969  0.1377 -0.0715  0.5314
11323TIP3    H155460   5.253   1.849   3.034  0.3222  3.0885  2.2262
11323TIP3    H255461   5.399   1.888   3.019  0.5087  1.6396 -0.3922
11324TIP3   OH255462   1.797   6.800   5.798  0.1145  0.1895  0.3521
11324TIP3    H155463   1.803   6.857   5.875  1.6070 -2.2622  2.2318
11324TIP3    H255464   1.746   6.850   5.734  0.9530  3.3798  1.9692
11325TIP3   OH255465   4.613   3.155  12.854  0.1556  0.0362  0.7005
11325TIP3    H155466   4.551   3.148  12.927 -0.5041  0.3028  0.1765
11325TIP3    H255467   4.561   3.189  12.781  0.0789 -2.9531 -0.7969
11326TIP3   OH255468   2.700   3.605   5.210  0.2327 -0.6212 -0.0680
11326TIP3    H155469   2.683   3.540   5.278  1.5984 -0.9548 -0.0105
11326TIP3    H255470   2.753   3.672   5.254  2.1168 -1.3952 -1.0239
11327TIP3   OH255471   0.067   5.117  11.155 -0.3349  0.0871  0.5714
11327TIP3    H155472   0.100   5.123  11.066 -0.4333  0.1385  0.5388
11327TIP3    H255473   0.034   5.204  11.175  1.0966  0.5272  1.2114
11328TIP3   OH255474   2.417   5.878  14.750  0.0874  0.3639 -0.2567
11328TIP3    H155475   2.452   5.871  14.661 -0.7524 -1.1147 -0.5121
11328TIP3    H255476   2.353   5.949  14.745  0.2737  0.5031 -0.7509
11329TIP3   OH255477   4.505   6.469   4.555 -0.1232  0.1574 -0.1325
11329TIP3    H155478   4.483   6.523   4.631  0.7393  0.0371  0.2116
11329TIP3    H255479   4.548   6.529   4.494  0.0374  0.0466 -0.1281
11330TIP3   OH255480   1.641   3.520  12.569 -0.5606  0.0691  0.2484
11330TIP3    H155481   1.571   3.462  12.538 -0.2856  0.1746 -0.5852
11330TIP3    H255482   1.704   3.462  12.611  1.6026 -0.8825 -3.8055
11331TIP3   OH255483   4.640   0.686  11.447 -0.8669 -0.7284  0.0009
11331TIP3    H155484   4.609   0.747  11.379 -0.5401 -0.4347  0.1116
11331TIP3    H255485   4.562   0.638  11.473 -1.4972  0.7704  1.0710
11332TIP3   OH255486   1.102   1.347  14.839 -0.1972  0.5428  0.3263
11332TIP3    H155487   1.128   1.257  14.859  1.7689  0.9242 -0.2602
11332TIP3    H255488   1.165   1.376  14.772  0.7883  3.1197  2.1848
11333TIP3   OH255489   1.211   3.796  12.056 -0.0666 -0.4030 -0.1400
11333TIP3    H155490   1.216   3.778  11.962  0.6790  0.6084 -0.3198
11333TIP3    H255491   1.299   3.780  12.088 -0.2535 -0.4861  0.3317
11334TIP3   OH255492   4.504   4.857   4.951  0.0373 -0.6236  0.3364
11334TIP3    H155493   4.531   4.898   4.869 -0.2586 -2.4741 -0.7514
11334TIP3    H255494   4.463   4.927   5.001  0.2039  0.5506 -1.1148
11335TIP3   OH255495   5.472   0.506  11.154  0.1435 -0.3917  0.2101
11335TIP3    H155496   5.502   0.416  11.165  0.7468 -0.1678  0.4432
11335TIP3    H255497   5.383   0.506  11.190  0.0681 -0.9331  0.0350
11336TIP3   OH255498   0.239   6.011   2.820 -0.0039 -0.1765 -0.6622
11336TIP3    H155499   0.302   6.017   2.892  0.2379  0.1682 -0.8987
11336TIP3    H255500   0.200   5.924   2.828 -0.2583  0.0017  0.1196
11337TIP3   OH255501   3.405   1.027  12.738 -0.1873 -0.1176  0.1544
11337TIP3    H155502   3.327   1.058  12.693 -0.9000 -1.6220  0.2962
11337TIP3    H255503   3.422   1.094  12.804 -1.1550  0.4006 -0.0937
11338TIP3   OH255504   2.984   2.965  14.518 -0.5545  0.3659  0.4068
11338TIP3    H155505   3.042   2.889  14.523 -1.0419 -0.1085 -0.9040
11338TIP3    H255506   2.896   2.928  14.515 -0.8991  1.0546  1.3933
11339TIP3   OH255507   4.629   6.108  11.454 -0.5051  0.2885 -0.0361
11339TIP3    H155508   4.569   6.177  11.426 -2.6468 -2.1792 -2.0865
11339TIP3    H255509   4.571   6.035  11.478  1.6450 -1.9810 -1.3712
11340TIP3   OH255510   1.034   4.993  16.202  0.5530  0.4381 -0.1402
11340TIP3    H155511   1.070   5.071  16.242  0.6363  1.1717 -1.5644
11340TIP3    H255512   1.109   4.947  16.165  0.6041 -0.7611  1.3728
11341TIP3   OH255513   5.915   5.793   1.883 -0.0998 -0.6588 -0.0952
11341TIP3    H155514   5.964   5.872   1.861  0.6850 -1.3133 -0.7397
11341TIP3    H255515   5.962   5.722   1.840  0.7571 -1.8670  2.6129
11342TIP3   OH255516   3.779   6.460   3.668 -0.3074 -0.2210  0.2763
11342TIP3    H155517   3.869   6.441   3.642 -0.7173 -0.2748 -1.1840
11342TIP3    H255518   3.750   6.382   3.715 -0.4789 -1.4007 -1.6791
11343TIP3   OH255519   4.737   6.151  12.405  0.1217  0.4829 -0.1507
11343TIP3    H155520   4.690   6.114  12.480  0.7058 -0.1470 -0.0885
11343TIP3    H255521   4.670   6.161  12.338  0.1988 -2.2943 -0.7639
11344TIP3   OH255522   3.776   6.284   3.296  0.6133  0.1443 -0.1848
11344TIP3    H155523   3.791   6.369   3.256  2.8208  0.3605  0.9349
11344TIP3    H255524   3.841   6.278   3.366 -1.6328 -1.0825  1.9907
11345TIP3   OH255525   1.325   2.041  13.312  0.1632  0.2244  0.6291
11345TIP3    H155526   1.402   2.068  13.364  0.5800  0.5861 -0.1636
11345TIP3    H255527   1.339   2.081  13.226 -0.2886 -0.7665  0.0877
11346TIP3   OH255528   4.972   0.913   4.801  0.1718 -0.8593 -0.5087
11346TIP3    H155529   5.052   0.919   4.853 -0.3722 -0.6653  0.3415
11346TIP3    H255530   4.971   0.991   4.747 -0.3877  0.1738  0.9130
11347TIP3   OH255531   3.167   0.835  10.851  0.0010 -0.0669  0.1516
11347TIP3    H155532   3.254   0.833  10.810 -0.0752 -0.4991  0.0097
11347TIP3    H255533   3.110   0.873  10.784  0.1525  0.6052  0.3914
11348TIP3   OH255534   5.577   2.602   0.281  0.0828 -0.4019 -0.0520
11348TIP3    H155535   5.668   2.623   0.300 -0.5908  2.2214  0.8231
11348TIP3    H255536   5.534   2.599   0.367 -0.5289 -2.6334 -0.3691
11349TIP3   OH255537   4.990   1.587   3.756 -0.2452 -0.0006 -0.0540
11349TIP3    H155538   5.085   1.596   3.754  0.1515 -1.5459  3.7431
11349TIP3    H255539   4.961   1.653   3.818 -1.3802 -0.9358  0.4472
11350TIP3   OH255540   6.238   3.042   4.599  0.2135  0.1517 -0.0942
11350TIP3    H155541   6.200   3.032   4.686 -1.0739  1.1953 -0.5054
11350TIP3    H255542   6.168   3.016   4.539  1.5776 -2.0665 -0.8491
11351TIP3   OH255543   5.444   0.646  15.873 -0.3696  0.4492  0.0071
11351TIP3    H155544   5.393   0.625  15.794 -1.2227 -0.0882  0.6859
11351TIP3    H255545   5.448   0.742  15.873 -2.1921  0.5690  0.4037
11352TIP3   OH255546   3.914   1.783   2.026 -0.0673  0.4396 -1.0303
11352TIP3    H155547   3.887   1.786   1.934 -0.4307  0.4401 -0.9242
11352TIP3    H255548   3.904   1.873   2.057 -0.2049  0.3837 -0.9142
11353TIP3   OH255549   2.545   4.970   0.135  0.0005  0.1111 -0.6246
11353TIP3    H155550   2.455   4.952   0.109  0.2802  1.3266 -2.6105
11353TIP3    H255551   2.580   4.884   0.161 -1.3606 -0.5886 -1.0183
11354TIP3   OH255552   1.620   1.095   5.121  0.0101  0.1922  0.5856
11354TIP3    H155553   1.649   1.073   5.032 -0.7620  2.0708 -0.1791
11354TIP3    H255554   1.538   1.047   5.132 -0.3032  0.5736 -0.0373
11355TIP3   OH255555   6.117   3.964  14.260  0.4701 -0.2168  0.4026
11355TIP3    H155556   6.178   3.931  14.193 -0.9962  1.2257 -1.7743
11355TIP3    H255557   6.130   4.059  14.259 -1.2085  0.0454  0.4360
11356TIP3   OH255558   3.291   6.675   1.918  0.0244  0.0997  0.1306
11356TIP3    H155559   3.322   6.738   1.853 -2.1732  0.2503 -0.8745
11356TIP3    H255560   3.366   6.617   1.934  1.4744  1.7520 -0.4029
11357TIP3   OH255561   5.605   0.276   2.824 -0.1487 -0.2506 -0.6178
11357TIP3    H155562   5.592   0.289   2.918 -0.7737 -0.8680 -0.6061
11357TIP3    H255563   5.556   0.196   2.805 -1.4158  0.7684 -1.7856
11358TIP3   OH255564   1.530   6.267   2.813 -0.3009 -0.2740  0.2080
11358TIP3    H155565   1.501   6.231   2.896 -1.0812 -1.1929 -0.4375
11358TIP3    H255566   1.580   6.196   2.772 -0.3187  0.0054 -0.3095
11359TIP3   OH255567   0.125   6.180   4.111 -0.2009 -0.4557 -0.2953
11359TIP3    H155568   0.106   6.250   4.174 -0.0290 -0.6015 -0.0788
11359TIP3    H255569   0.179   6.221   4.044 -1.3470 -0.0063 -0.9788
11360TIP3   OH255570   4.853   5.980   3.309  0.2554  0.4865  0.4413
11360TIP3    H155571   4.845   5.903   3.364 -4.7605  0.7548  0.4828
11360TIP3    H255572   4.836   6.054   3.367  1.9657  1.4621 -0.2016
11361TIP3   OH255573   2.848   1.291   3.408  0.4234 -0.2668 -0.3398
11361TIP3    H155574   2.789   1.362   3.384  1.0231  1.0585  1.7708
11361TIP3    H255575   2.799   1.241   3.473  0.5071 -0.9815 -0.8240
11362TIP3   OH255576   5.854   5.865   4.503 -0.4167 -0.0654  0.2050
11362TIP3    H155577   5.910   5.907   4.568 -2.4586 -0.4324  2.3463
11362TIP3    H255578   5.834   5.934   4.440 -0.2673  0.9969  1.2787
11363TIP3   OH255579   2.328   5.621   0.198  0.3650  0.3591 -0.4880
11363TIP3    H155580   2.393   5.580   0.141  0.4134 -0.2838  0.0283
11363TIP3    H255581   2.249   5.628   0.143 -0.2611 -2.2056 -0.0160
11364TIP3   OH255582   5.878   6.364   6.360  0.5731 -0.3845  0.9543
11364TIP3    H155583   5.787   6.392   6.363  0.8609  0.6504  0.7237
11364TIP3    H255584   5.905   6.381   6.270  1.5857  1.3966  1.5406
11365TIP3   OH255585   3.565   4.297  11.903  0.1559  0.0860  0.0153
11365TIP3    H155586   3.605   4.234  11.963  0.7121 -1.2657 -1.6538
11365TIP3    H255587   3.616   4.377  11.915  0.7334 -0.3821  0.8007
11366TIP3   OH255588   1.570   2.267   2.921  0.0171  0.2105 -0.5695
11366TIP3    H155589   1.626   2.305   2.989 -0.0761  0.1157 -0.4419
11366TIP3    H255590   1.524   2.195   2.964  0.6238 -0.4225 -0.9599
11367TIP3   OH255591   4.802   5.655  13.810 -0.1512  0.1559  0.2837
11367TIP3    H155592   4.707   5.656  13.808 -0.1505  1.7835  0.3799
11367TIP3    H255593   4.824   5.583  13.869 -1.2960 -0.5788 -0.1516
11368TIP3   OH255594   6.514   4.954  14.027  0.1485  0.0690 -0.5943
11368TIP3    H155595   6.589   5.001  14.063 -0.1568  1.3673 -1.5880
11368TIP3    H255596   6.543   4.863  14.024  1.2502  0.3691  0.1245
11369TIP3   OH255597   3.137   0.061   5.780  0.0556  0.3115 -0.5791
11369TIP3    H155598   3.077   0.022   5.716 -0.5511  3.2718 -1.9542
11369TIP3    H255599   3.223   0.055   5.738  0.2774 -1.1006  0.0228
11370TIP3   OH255600   2.992   1.830   3.426 -0.0114 -0.3638  0.5234
11370TIP3    H155601   2.986   1.783   3.510  0.7549 -0.1361  0.7163
11370TIP3    H255602   3.018   1.763   3.363  0.7419 -0.2844  0.7345
11371TIP3   OH255603   4.856   1.284   2.790  0.2767  0.4168  0.3964
11371TIP3    H155604   4.945   1.307   2.763  0.1741  0.8189  0.3956
11371TIP3    H255605   4.861   1.274   2.885 -0.0100  2.0212  0.6075
11372TIP3   OH255606   6.566   0.850   1.742 -0.3446 -0.6563  0.0386
11372TIP3    H155607   6.517   0.802   1.808 -0.5556 -0.6992 -0.1464
11372TIP3    H255608   6.647   0.800   1.730  0.1937 -0.0625  1.0488
11373TIP3   OH255609   2.606   2.897  17.165  0.5805 -0.0162 -0.1242
11373TIP3    H155610   2.555   2.829  17.121 -2.7700  2.0872  0.1416
11373TIP3    H255611   2.639   2.951  17.094 -0.9312  0.7642 -0.2850
11374TIP3   OH255612   1.327   4.728   2.892 -0.3635  0.1078  0.4874
11374TIP3    H155613   1.298   4.749   2.981 -0.4004 -1.0356  0.7622
11374TIP3    H255614   1.399   4.788   2.876  0.9968 -0.9936  2.0876
11375TIP3   OH255615   5.580   6.711  11.282  0.2362 -0.1459  0.0474
11375TIP3    H155616   5.650   6.746  11.227 -0.7899 -0.1918 -1.3283
11375TIP3    H255617   5.559   6.782  11.343  0.2914  0.4987 -0.6726
11376TIP3   OH255618   0.742   1.148   3.921  0.9644  0.0222  0.5739
11376TIP3    H155619   0.766   1.222   3.976  2.1131  0.6736 -0.7320
11376TIP3    H255620   0.652   1.128   3.945  0.1770  2.6557  0.0968
11377TIP3   OH255621   2.837   3.541  15.349 -0.0290  0.2437 -0.0912
11377TIP3    H155622   2.849   3.574  15.260 -2.0173  2.0515  0.2178
11377TIP3    H255623   2.809   3.617  15.400  0.3596 -0.8782  1.9541
11378TIP3   OH255624   3.361   3.164  11.413 -0.0761  0.0249 -0.6671
11378TIP3    H155625   3.340   3.252  11.383  0.5066 -0.2730 -2.0507
11378TIP3    H255626   3.437   3.175  11.471 -1.1842  0.6110  0.7177
11379TIP3   OH255627   5.283   3.530  13.655 -0.0005 -0.1969  0.1038
11379TIP3    H155628   5.334   3.472  13.711 -2.3095  0.2524  2.9562
11379TIP3    H255629   5.220   3.473  13.611 -0.3651 -0.2109  0.6320
11380TIP3   OH255630   6.839   6.018  11.434  0.2504 -0.1618 -0.3619
11380TIP3    H155631   6.852   6.111  11.412 -0.9792  0.1347  0.0789
11380TIP3    H255632   6.874   6.010  11.523  0.2460 -0.0920 -0.3536
11381TIP3   OH255633   4.649   4.584   5.094  0.2395 -0.4262  0.1600
11381TIP3    H155634   4.589   4.521   5.134 -0.0383 -0.9981 -1.1087
11381TIP3    H255635   4.592   4.651   5.057  0.3891 -0.7241 -0.6309
11382TIP3   OH255636   2.169   2.938   4.801  0.0141  0.3811 -0.0460
11382TIP3    H155637   2.081   2.934   4.839 -0.1353  0.3920 -0.3861
11382TIP3    H255638   2.158   2.906   4.711  0.5891 -0.8988  0.3041
11383TIP3   OH255639   6.560   3.699  16.948 -0.6232 -0.2799  0.1802
11383TIP3    H155640   6.480   3.646  16.948  0.8858 -2.7085  0.4099
11383TIP3    H255641   6.597   3.686  17.035 -0.5458  1.8350  0.5137
11384TIP3   OH255642   1.452   4.413  13.214 -0.1182 -0.1730  0.1572
11384TIP3    H155643   1.519   4.446  13.154 -1.1340 -0.4125 -1.1255
11384TIP3    H255644   1.417   4.492  13.255 -0.6367  0.1517 -0.8805
11385TIP3   OH255645   3.457   4.284   2.797 -0.4719  0.1184  0.2134
11385TIP3    H155646   3.506   4.205   2.776  0.0143 -0.0586  1.8499
11385TIP3    H255647   3.377   4.278   2.746 -0.2021 -1.1826 -0.0704
11386TIP3   OH255648   4.037   2.253   1.893 -0.0951 -0.2085  0.6550
11386TIP3    H155649   4.061   2.244   1.985 -0.0636  2.1681  0.9274
11386TIP3    H255650   4.119   2.242   1.845 -0.1262 -1.5411  0.8760
11387TIP3   OH255651   5.858   0.361   0.305  0.4146  0.2155 -0.0615
11387TIP3    H155652   5.914   0.292   0.270  0.8881  1.0224 -0.9599
11387TIP3    H255653   5.912   0.440   0.303 -0.0963  0.6124  0.9891
11388TIP3   OH255654   3.667   1.653   4.286 -0.4080 -0.1174  0.1103
11388TIP3    H155655   3.621   1.713   4.227  0.3086  0.3985  0.0642
11388TIP3    H255656   3.759   1.673   4.273 -0.2067 -0.5607  0.8207
11389TIP3   OH255657   0.629   6.303   2.613  0.2820  0.2366  0.0254
11389TIP3    H155658   0.641   6.323   2.520 -0.1930 -0.4052 -0.1770
11389TIP3    H255659   0.564   6.366   2.643  1.5130  1.4344  0.2948
11390TIP3   OH255660   3.748   5.747  12.732  0.4242 -0.2890  0.1031
11390TIP3    H155661   3.757   5.698  12.813 -2.3063  1.1084  1.3962
11390TIP3    H255662   3.808   5.821  12.741 -0.2569  0.1604  1.1499
11391TIP3   OH255663   2.762   5.029   4.157 -0.1910 -0.6078  0.0764
11391TIP3    H155664   2.700   4.994   4.092  1.9161 -0.5738 -2.0845
11391TIP3    H255665   2.793   4.953   4.205 -1.1382 -0.7384  0.5066
11392TIP3   OH255666   0.383   5.264  15.135  0.2278  0.6132  0.2962
11392TIP3    H155667   0.300   5.226  15.165 -0.1818  0.0458 -1.4397
11392TIP3    H255668   0.450   5.203  15.165  0.0707  1.1132  1.7773
11393TIP3   OH255669   6.592   5.339  14.126  0.4483 -0.0652  0.7896
11393TIP3    H155670   6.676   5.360  14.084  1.8864 -1.8000  2.5879
11393TIP3    H255671   6.526   5.367  14.063  2.3708  1.0158 -0.8734
11394TIP3   OH255672   3.605   6.397   4.568  0.3509  0.1857  0.5767
11394TIP3    H155673   3.648   6.419   4.651 -0.7726 -1.2633  1.6013
11394TIP3    H255674   3.526   6.350   4.594  0.9206 -2.0077 -1.3555
11395TIP3   OH255675   5.462   4.090   0.135 -0.6691  0.5097  0.3465
11395TIP3    H155676   5.537   4.150   0.136  0.8866 -1.3146 -1.1226
11395TIP3    H255677   5.426   4.097   0.047  0.0459 -1.2563 -0.1261
11396TIP3   OH255678   4.015   0.652  11.836  0.1315  0.1458  0.1432
11396TIP3    H155679   3.925   0.629  11.815 -0.0247  1.5930 -0.9519
11396TIP3    H255680   4.064   0.571  11.823 -0.5123  0.0796 -2.5606
11397TIP3   OH255681   3.038   4.520  11.576 -0.5845  0.0035 -0.1895
11397TIP3    H155682   3.024   4.614  11.565 -0.5820 -0.1280 -1.5530
11397TIP3    H255683   3.127   4.505  11.543 -0.4705 -0.4333  0.3058
11398TIP3   OH255684   6.404   1.592   0.252 -0.0795  0.4127  0.6297
11398TIP3    H155685   6.462   1.566   0.180  0.2014 -1.3731  1.4292
11398TIP3    H255686   6.427   1.683   0.270  3.2387 -0.4637  1.5390
11399TIP3   OH255687   1.192   6.755  15.775 -0.5204 -0.3416  0.2624
11399TIP3    H155688   1.239   6.685  15.730 -2.3319 -1.3755 -0.1099
11399TIP3    H255689   1.135   6.710  15.838 -1.2269  0.8319  0.5097
11400TIP3   OH255690   5.927   6.843  15.470  0.0903  0.0818  0.0063
11400TIP3    H155691   5.990   6.912  15.489  0.8812 -0.7897  0.6310
11400TIP3    H255692   5.906   6.805  15.555 -0.1529 -0.6022 -0.3497
11401TIP3   OH255693   5.067   0.004  16.368  0.0734  0.4977 -0.3520
11401TIP3    H155694   4.973  -0.004  16.354  0.0224 -0.2461  0.3555
11401TIP3    H255695   5.106  -0.044  16.295 -0.1165  0.0028 -0.1333
11402TIP3   OH255696   3.156   3.917   0.680 -0.2656  0.4852 -0.5093
11402TIP3    H155697   3.172   3.825   0.702  2.5564  0.3945 -2.3315
11402TIP3    H255698   3.226   3.965   0.725 -1.2383  1.6483 -0.2005
11403TIP3   OH255699   1.304   2.271   0.510  0.0412  0.0459  0.0411
11403TIP3    H155700   1.346   2.268   0.424  0.8396  1.3811  0.3567
11403TIP3    H255701   1.299   2.364   0.531 -1.3823 -0.1888  0.8601
11404TIP3   OH255702   3.268   0.262  15.613 -0.3584 -0.1812  0.3809
11404TIP3    H155703   3.284   0.189  15.553 -0.5429 -1.3974  1.7422
11404TIP3    H255704   3.259   0.339  15.557 -1.2047 -1.3760 -1.1915
11405TIP3   OH255705   2.762   2.463  13.246 -0.1558 -0.4764  0.0112
11405TIP3    H155706   2.796   2.542  13.202  0.8373 -0.8550  0.0772
11405TIP3    H255707   2.670   2.460  13.220 -0.8341  1.9391  1.7938
11406TIP3   OH255708   3.624   2.023  13.740 -0.4175 -0.0036 -0.1969
11406TIP3    H155709   3.570   2.081  13.793 -0.1490  1.9571 -1.9321
11406TIP3    H255710   3.713   2.036  13.773 -0.4082  0.2579 -0.3297
11407TIP3   OH255711   5.630   0.204   1.934  0.2905  0.1424 -0.1472
11407TIP3    H155712   5.608   0.264   1.864 -0.7659  0.2958  0.2948
11407TIP3    H255713   5.552   0.204   1.991  0.7063 -0.7819  0.4457
11408TIP3   OH255714   5.039   0.642   5.103  0.7090  0.0738  0.2049
11408TIP3    H155715   5.086   0.725   5.100  2.3917 -0.7662  1.6774
11408TIP3    H255716   5.018   0.622   5.012  0.5651  1.9214 -0.2017
11409TIP3   OH255717   1.898   4.909   3.141 -0.0962  0.3368  0.2644
11409TIP3    H155718   1.849   4.961   3.079 -0.5128  0.9160  1.0583
11409TIP3    H255719   1.975   4.963   3.162 -0.1915  0.3528  0.5865
11410TIP3   OH255720   0.290   1.200   3.561 -0.5608 -0.3803  0.4894
11410TIP3    H155721   0.360   1.263   3.579 -0.7567 -0.8719  3.5387
11410TIP3    H255722   0.217   1.253   3.529  0.5767  0.3544 -1.0067
11411TIP3   OH255723   0.396   4.697   4.597 -0.5073 -0.1782 -0.2001
11411TIP3    H155724   0.477   4.649   4.611 -1.3369 -1.2290  1.3390
11411TIP3    H255725   0.345   4.642   4.537 -0.3773  0.1224 -0.5888
11412TIP3   OH255726   4.375   2.248   5.808 -0.9411 -0.1381  0.6211
11412TIP3    H155727   4.310   2.314   5.783 -2.7919 -2.1303 -0.1339
11412TIP3    H255728   4.387   2.195   5.729  0.4633 -0.7543  1.2096
11413TIP3   OH255729   6.285   0.291  14.907 -0.1195  0.7237  0.1607
11413TIP3    H155730   6.262   0.235  14.981 -0.7458 -0.4477 -0.8768
11413TIP3    H255731   6.201   0.307  14.863  0.5332 -0.7591 -1.7532
11414TIP3   OH255732   1.651   6.448   1.036 -0.0081 -0.1199 -0.4372
11414TIP3    H155733   1.590   6.434   0.965  1.7112 -0.0409 -2.0089
11414TIP3    H255734   1.729   6.485   0.994  2.3338 -3.0778  0.8909
11415TIP3   OH255735   5.000   2.928  15.935  0.4139  0.6343 -0.4536
11415TIP3    H155736   4.910   2.904  15.957  0.2630  0.7041 -0.9814
11415TIP3    H255737   5.054   2.861  15.976  0.0271 -0.3465 -1.5049
11416TIP3   OH255738   1.613   6.686  12.707  0.4223 -0.1379  0.7153
11416TIP3    H155739   1.635   6.776  12.684 -1.9969  0.7910  1.7136
11416TIP3    H255740   1.631   6.681  12.801  1.4473 -1.0191  0.4882
11417TIP3   OH255741   5.376   1.335   4.176  0.2023 -0.7666 -0.2246
11417TIP3    H155742   5.392   1.289   4.094 -2.0032  0.3328 -1.3279
11417TIP3    H255743   5.303   1.393   4.158 -0.6967 -0.8455  2.6530
11418TIP3   OH255744   2.084   2.091  11.873 -0.1834 -0.4584  0.5133
11418TIP3    H155745   2.066   2.150  11.946  3.9144  1.3691  0.3636
11418TIP3    H255746   2.058   2.141  11.795  0.6724  0.0690  0.5398
11419TIP3   OH255747   6.456   3.369   2.827  0.2215  0.2590  0.2799
11419TIP3    H155748   6.374   3.384   2.779  0.5124  0.0784 -0.2711
11419TIP3    H255749   6.429   3.369   2.919 -0.2796  0.9999  0.1494
11420TIP3   OH255750   3.031   4.335   1.780 -0.0967 -0.1215 -0.3076
11420TIP3    H155751   2.968   4.353   1.710 -0.8079 -0.7668  0.1499
11420TIP3    H255752   3.090   4.269   1.742 -1.2639 -1.4494  0.1124
11421TIP3   OH255753   1.417   0.379  13.707  0.5265  0.0361  0.3364
11421TIP3    H155754   1.506   0.397  13.735  0.7665  0.2957 -0.5737
11421TIP3    H255755   1.378   0.465  13.690 -0.3340  0.0135  1.9713
11422TIP3   OH255756   2.625   3.543  14.857  0.5909  0.0922  0.6661
11422TIP3    H155757   2.618   3.491  14.937 -2.4039  1.1504  1.2206
11422TIP3    H255758   2.542   3.591  14.852  0.3426 -0.3683 -3.4183
11423TIP3   OH255759   5.427   4.179   5.043 -0.2476 -0.1598  0.0590
11423TIP3    H155760   5.477   4.139   5.114 -1.7000  0.2578  1.3624
11423TIP3    H255761   5.438   4.273   5.056 -0.6090 -0.0792 -0.2182
11424TIP3   OH255762   6.595   2.452  13.507  0.5454 -0.6343 -0.8324
11424TIP3    H155763   6.619   2.370  13.551  1.9804 -0.0532 -0.4729
11424TIP3    H255764   6.640   2.448  13.423  1.7901  0.3728 -0.2449
11425TIP3   OH255765   5.246   1.230   4.694 -0.1388 -0.9252 -0.2423
11425TIP3    H155766   5.270   1.139   4.715  0.7195 -0.8992 -1.0232
11425TIP3    H255767   5.212   1.265   4.776  0.5888 -1.6165  0.3777
11426TIP3   OH255768   4.459   2.517   4.024 -0.8829  0.3798 -0.4529
11426TIP3    H155769   4.511   2.577   3.970  1.1983 -0.2224  0.7751
11426TIP3    H255770   4.458   2.557   4.111 -0.8060 -0.6051  0.0137
11427TIP3   OH255771   6.352   6.424   2.189 -0.7268  0.0407 -0.5908
11427TIP3    H155772   6.357   6.355   2.123  1.3894 -1.7341  1.2734
11427TIP3    H255773   6.263   6.417   2.223 -0.4841 -2.0802 -0.2279
11428TIP3   OH255774   1.956   0.586  13.854 -0.3898  0.0111 -0.6218
11428TIP3    H155775   2.035   0.535  13.872 -0.2317  0.6852  0.7739
11428TIP3    H255776   1.891   0.552  13.916 -0.4088  1.1802  0.0368
11429TIP3   OH255777   4.441   6.208  15.854 -0.0259  0.0909  0.3305
11429TIP3    H155778   4.395   6.189  15.936  2.0334  2.1575  2.1243
11429TIP3    H255779   4.424   6.132  15.798  1.8726 -3.5739  4.2009
11430TIP3   OH255780   1.927   4.967   1.670  0.2267  0.7819  0.2450
11430TIP3    H155781   1.880   4.918   1.737 -0.4191 -1.9009 -1.9980
11430TIP3    H255782   1.859   4.996   1.609  1.1505 -1.7805 -2.1993
11431TIP3   OH255783   6.135   4.487  12.098 -0.6465 -0.4954 -0.3252
11431TIP3    H155784   6.204   4.462  12.037 -0.1114 -1.5442  0.6875
11431TIP3    H255785   6.181   4.519  12.175 -1.3176  0.1538 -0.1776
11432TIP3   OH255786   4.607   6.320  15.104 -0.2000  0.2703 -0.2111
11432TIP3    H155787   4.570   6.239  15.140 -0.7677  0.1574 -1.0252
11432TIP3    H255788   4.574   6.324  15.015 -0.0253  1.3161 -0.2406
11433TIP3   OH255789   4.553   0.858   5.469 -0.1443  0.2904 -0.5597
11433TIP3    H155790   4.596   0.814   5.396  0.4434  0.1667 -0.1469
11433TIP3    H255791   4.564   0.951   5.450  1.3111  0.2889  0.0842
11434TIP3   OH255792   6.638   6.118  10.881  0.4384  0.1548  0.1225
11434TIP3    H155793   6.640   6.130  10.786  1.7333  0.0588  0.1284
11434TIP3    H255794   6.714   6.166  10.914  0.3885 -0.3669  1.0467
11435TIP3   OH255795   6.301   4.142  13.118  0.3373  0.4642  0.2158
11435TIP3    H155796   6.289   4.231  13.150  0.2869  0.6656 -0.3560
11435TIP3    H255797   6.212   4.105  13.115  0.2494  0.7105 -0.4381
11436TIP3   OH255798   5.163   1.607   5.082 -0.4896 -0.4721  0.3740
11436TIP3    H155799   5.087   1.656   5.114 -0.7742 -0.9466  0.4391
11436TIP3    H255800   5.189   1.652   5.002 -0.1113  0.3995  0.9759
11437TIP3   OH255801   3.530   0.835  15.441 -0.0612 -0.2840  0.3460
11437TIP3    H155802   3.535   0.756  15.387  1.0437  0.1058 -0.1664
11437TIP3    H255803   3.553   0.806  15.529  0.5280 -0.5072  0.1215
11438TIP3   OH255804   1.439   3.773   3.135 -0.0957 -0.4407 -0.0353
11438TIP3    H155805   1.351   3.762   3.171 -1.7102  0.1449 -3.3622
11438TIP3    H255806   1.447   3.868   3.120  1.2518 -0.4495  0.4912
11439TIP3   OH255807   2.742   4.124   5.172  0.5789  0.0039  0.1855
11439TIP3    H155808   2.729   4.186   5.099 -0.0088  1.1846  1.2572
11439TIP3    H255809   2.812   4.066   5.141  0.9155  0.9838 -1.0014
11440TIP3   OH255810   6.833   1.176   1.662  0.0404  0.4103  0.7176
11440TIP3    H155811   6.738   1.186   1.667  0.1954  1.3593  2.6410
11440TIP3    H255812   6.867   1.235   1.729  1.8468 -2.2206  2.2947
11441TIP3   OH255813   6.793   0.689  10.929 -0.5492  0.3124 -0.6893
11441TIP3    H155814   6.784   0.604  10.972 -1.6057  1.5842  1.7721
11441TIP3    H255815   6.728   0.687  10.858 -2.2323 -0.1392  0.7907
11442TIP3   OH255816   4.845   1.505   1.216  0.3357  0.3924 -0.1970
11442TIP3    H155817   4.821   1.542   1.301 -0.0634  0.0883 -0.1728
11442TIP3    H255818   4.769   1.523   1.160  0.0559 -0.5322 -0.1355
11443TIP3   OH255819   6.275   4.728   2.050  0.1861 -0.2947 -0.4169
11443TIP3    H155820   6.359   4.735   2.095  0.3286 -1.1947 -0.5273
11443TIP3    H255821   6.253   4.635   2.054 -2.0944  0.2103  1.9876
11444TIP3   OH255822   4.863   4.829  14.731 -0.4095  0.1583  0.5409
11444TIP3    H155823   4.895   4.920  14.734 -0.1851  0.0934  0.2008
11444TIP3    H255824   4.850   4.812  14.637 -0.1747 -0.2550  0.5812
11445TIP3   OH255825   3.510   1.499  14.850  0.1208 -0.4097 -0.0358
11445TIP3    H155826   3.583   1.555  14.827  1.2794 -1.8341  0.0062
11445TIP3    H255827   3.432   1.551  14.831  1.1229  1.6499  1.2132
11446TIP3   OH255828   4.741   1.881   2.340  0.0326  0.3196 -0.1215
11446TIP3    H155829   4.771   1.969   2.363  2.7607 -0.4091 -0.6404
11446TIP3    H255830   4.798   1.853   2.269  0.4582 -2.5382  1.1951
11447TIP3   OH255831   0.279   3.237  16.719  0.0181 -0.2196  0.0943
11447TIP3    H155832   0.312   3.147  16.724 -0.1934 -0.2631  0.7798
11447TIP3    H255833   0.186   3.229  16.743 -0.0107  0.1815  0.1159
11448TIP3   OH255834   6.444   1.903  16.344 -0.1572 -0.1766 -0.1769
11448TIP3    H155835   6.537   1.881  16.339  0.2343  1.5520 -1.8924
11448TIP3    H255836   6.406   1.864  16.265  0.2985  3.6316 -2.5450
11449TIP3   OH255837   5.601   1.481  16.689 -0.0942 -0.1548 -0.3581
11449TIP3    H155838   5.691   1.447  16.691 -0.0193  0.0473 -0.1350
11449TIP3    H255839   5.583   1.504  16.780  0.6685  2.4486 -0.7729
11450TIP3   OH255840   1.729   2.275  15.344  0.1733 -0.1042 -0.3422
11450TIP3    H155841   1.726   2.272  15.439 -0.6294  1.8454 -0.2642
11450TIP3    H255842   1.805   2.221  15.320 -0.9544 -2.5689  1.2278
11451TIP3   OH255843   5.314   2.905   0.506  0.3439 -0.4387  0.4028
11451TIP3    H155844   5.280   2.976   0.560 -2.2666 -1.4257  0.2261
11451TIP3    H255845   5.254   2.901   0.431  1.6691 -1.4937 -0.6658
11452TIP3   OH255846   4.641   2.557  11.319  0.3189  0.5646  0.4572
11452TIP3    H155847   4.705   2.611  11.366  0.1527 -0.7554  2.3067
11452TIP3    H255848   4.561   2.565  11.372 -0.0890 -0.3872 -0.0083
11453TIP3   OH255849   4.931   3.495  13.401  0.4702 -0.1687 -0.2907
11453TIP3    H155850   4.999   3.459  13.344  0.6220  0.5923 -0.5994
11453TIP3    H255851   4.964   3.480  13.489  1.2153  0.4893 -0.4404
11454TIP3   OH255852   1.335   5.188  16.861 -0.6010  0.0808 -0.8047
11454TIP3    H155853   1.280   5.262  16.838 -0.0912 -0.0179 -2.4442
11454TIP3    H255854   1.398   5.223  16.924 -0.3365  1.0673 -1.5926
11455TIP3   OH255855   3.859   4.665   6.668 -0.3083 -0.1532  0.2606
11455TIP3    H155856   3.882   4.729   6.736  0.2525 -0.9641  0.8558
11455TIP3    H255857   3.841   4.585   6.716 -0.3659 -0.6169 -0.5219
11456TIP3   OH255858   1.714   6.486   0.469 -0.4155 -0.4729  0.2521
11456TIP3    H155859   1.765   6.421   0.517  1.0539  0.9022  0.6307
11456TIP3    H255860   1.732   6.467   0.377 -0.0527 -0.6440  0.3580
11457TIP3   OH255861   5.549   6.006  14.351 -0.0349  0.7684  0.5250
11457TIP3    H155862   5.610   5.985  14.421  0.3456 -1.5284 -0.4308
11457TIP3    H255863   5.597   6.065  14.293  0.1582  1.4732  1.3839
11458TIP3   OH255864   2.656   2.395   4.356 -0.2441 -0.2100  0.5026
11458TIP3    H155865   2.588   2.329   4.370  0.2739 -0.5557  1.4608
11458TIP3    H255866   2.612   2.465   4.308 -0.3861 -2.0062 -2.1970
11459TIP3   OH255867   1.854   1.824   3.057  0.3678  0.6563 -0.7460
11459TIP3    H155868   1.933   1.789   3.097  0.2271  1.1995  0.0481
11459TIP3    H255869   1.883   1.861   2.974  1.1166  1.6221 -0.0749
11460TIP3   OH255870   0.449   1.295  15.319  0.4278 -0.2810 -0.5935
11460TIP3    H155871   0.379   1.359  15.329  0.2149 -0.1803 -2.4247
11460TIP3    H255872   0.529   1.344  15.338  0.1221 -0.0308  0.0791
11461TIP3   OH255873   5.532   3.804   5.779 -0.7341  0.0319 -0.1575
11461TIP3    H155874   5.443   3.839   5.775 -1.5802 -2.0308 -0.5673
11461TIP3    H255875   5.534   3.750   5.858 -0.4726 -1.4316 -1.1248
11462TIP3   OH255876   2.678   5.281   0.429 -0.3879 -0.3680 -0.4978
11462TIP3    H155877   2.722   5.315   0.508  0.6166  1.2963 -1.7134
11462TIP3    H255878   2.584   5.287   0.450 -0.1866  1.4276  0.0618
11463TIP3   OH255879   1.361   4.390  16.602  0.1098  0.2966 -0.5186
11463TIP3    H155880   1.268   4.393  16.578  0.3409  0.8363 -1.4327
11463TIP3    H255881   1.367   4.441  16.682 -0.2887  0.8667 -0.8419
11464TIP3   OH255882   2.917   4.954  15.914 -0.4372  0.2705  0.3897
11464TIP3    H155883   2.910   4.923  15.824  0.2613 -1.4607  0.8960
11464TIP3    H255884   2.891   5.046  15.910 -1.4734 -0.0662 -1.3777
11465TIP3   OH255885   2.206   0.674  11.343  0.1447  0.1009  0.5700
11465TIP3    H155886   2.146   0.636  11.279 -1.2265  2.1916  0.5312
11465TIP3    H255887   2.265   0.729  11.291 -0.5024  1.2131  0.9728
11466TIP3   OH255888   4.966   5.397   5.440 -0.2427 -0.3942 -0.5604
11466TIP3    H155889   4.953   5.303   5.430  0.6017 -0.5592 -0.2486
11466TIP3    H255890   5.001   5.426   5.356  1.0911 -0.6790 -0.1313
11467TIP3   OH255891   6.249   6.568  14.210  0.1372  0.4240  0.0931
11467TIP3    H155892   6.296   6.500  14.258  0.6569  0.7457  0.0519
11467TIP3    H255893   6.186   6.520  14.156  0.3672 -0.0108  0.2017
11468TIP3   OH255894   4.484   6.729  12.544 -0.4027  0.2698 -0.1943
11468TIP3    H155895   4.575   6.707  12.523 -0.7432 -0.2493 -1.2259
11468TIP3    H255896   4.484   6.748  12.638  0.9321  1.1910 -0.3675
11469TIP3   OH255897   4.570   6.569  16.767 -0.5869  0.2252 -0.0695
11469TIP3    H155898   4.530   6.484  16.748  0.2190  0.0068 -0.8831
11469TIP3    H255899   4.660   6.560  16.736  1.0434 -0.2719  4.1112
11470TIP3   OH255900   3.672   1.638   0.256 -0.1967 -0.1557 -0.3033
11470TIP3    H155901   3.614   1.714   0.259  0.1703  0.0772  1.2787
11470TIP3    H255902   3.756   1.670   0.288  0.8470 -0.5091 -2.4861
11471TIP3   OH255903   3.428   2.201  14.130  0.1934  0.4031  0.3996
11471TIP3    H155904   3.337   2.198  14.160  0.7632  0.0870  2.2594
11471TIP3    H255905   3.469   2.267  14.186  0.7470  1.8234 -1.5908
11472TIP3   OH255906   5.477   0.485  14.638  0.0683 -0.5202  0.2306
11472TIP3    H155907   5.414   0.504  14.707 -0.0242  0.0771 -0.0090
11472TIP3    H255908   5.562   0.511  14.675  0.1748 -1.3068  0.5455
11473TIP3   OH255909   4.048   0.112   0.677  0.1358  0.0615  0.6087
11473TIP3    H155910   4.091   0.188   0.639 -0.8520  0.8206  0.9526
11473TIP3    H255911   4.020   0.060   0.602 -0.9647  1.0730  0.2781
11474TIP3   OH255912   1.845   4.946   0.590 -0.0204  0.2924  0.5946
11474TIP3    H155913   1.893   4.905   0.662  3.7826  1.1849 -1.1747
11474TIP3    H255914   1.847   4.880   0.520 -0.0352  0.9182 -0.0033
11475TIP3   OH255915   0.730   1.669   5.888  0.5625 -0.0968 -0.2596
11475TIP3    H155916   0.681   1.642   5.966 -1.5012 -0.3544 -1.5954
11475TIP3    H255917   0.774   1.589   5.859  0.8264 -0.1444  0.2501
11476TIP3   OH255918   5.254   0.169  14.331  0.6492  0.5036 -0.6595
11476TIP3    H155919   5.232   0.215  14.250  0.2290  0.1342 -0.7650
11476TIP3    H255920   5.267   0.078  14.304 -2.6043 -0.3185  0.0651
11477TIP3   OH255921   3.106   0.795   1.211 -0.0605 -0.6964 -0.2859
11477TIP3    H155922   3.105   0.890   1.206  1.6822 -0.6950 -1.0644
11477TIP3    H255923   3.016   0.769   1.189  0.0702  0.6779 -2.7658
11478TIP3   OH255924   6.096   5.293  16.503 -0.0906 -0.1663 -0.0499
11478TIP3    H155925   6.042   5.270  16.579  0.6505  0.8156  0.8111
11478TIP3    H255926   6.057   5.246  16.430 -0.7444 -1.2497  0.9722
11479TIP3   OH255927   3.171   2.779   2.080 -0.4097  0.2243 -0.5092
11479TIP3    H155928   3.156   2.694   2.037 -1.5975  0.4599 -0.6065
11479TIP3    H255929   3.203   2.757   2.167 -2.8008 -0.4479  0.2882
11480TIP3   OH255930   2.014   3.309  14.207  0.0885 -0.0364  0.2792
11480TIP3    H155931   2.009   3.334  14.299  1.2025 -0.2081  0.3998
11480TIP3    H255932   1.983   3.387  14.160 -0.6640 -0.0125  0.7901
11481TIP3   OH255933   1.693   1.291   4.003  0.1402 -0.2439  0.1743
11481TIP3    H155934   1.673   1.236   4.078 -0.4907 -0.0725  0.1354
11481TIP3    H255935   1.658   1.377   4.026  0.1057 -0.1461 -0.2418
11482TIP3   OH255936   4.364   5.461   0.998  0.5904  0.5500 -0.5411
11482TIP3    H155937   4.284   5.489   1.043  0.4545 -0.1522 -0.3365
11482TIP3    H255938   4.434   5.488   1.057  0.3563 -1.7587  0.9397
11483TIP3   OH255939   4.448   6.574  16.099  0.4131  0.1778  0.2749
11483TIP3    H155940   4.451   6.568  16.004  1.3853 -0.1412  0.3183
11483TIP3    H255941   4.531   6.613  16.125  0.0876  0.4319  0.9840
11484TIP3   OH255942   2.018   2.989   2.415  0.5086  0.2185 -0.9393
11484TIP3    H155943   2.091   2.972   2.474  0.7677  0.5824 -1.1498
11484TIP3    H255944   1.952   2.923   2.438  0.2808  0.8532  0.3026
11485TIP3   OH255945   4.490   5.415   0.674 -0.2901  0.0482  0.2009
11485TIP3    H155946   4.419   5.371   0.720 -0.9125 -1.5481 -2.1632
11485TIP3    H255947   4.447   5.482   0.621  0.4047  1.7581  1.6919
11486TIP3   OH255948   3.441   3.178   0.585 -0.3540 -0.0166  0.1060
11486TIP3    H155949   3.431   3.252   0.646 -1.3437 -0.2827  0.2849
11486TIP3    H255950   3.436   3.217   0.498 -1.1701  0.1032  0.1993
11487TIP3   OH255951   2.863   2.891   2.874  0.5087 -0.6145  0.5134
11487TIP3    H155952   2.835   2.894   2.965 -0.4950  0.9401  0.1966
11487TIP3    H255953   2.781   2.880   2.824  0.8523  0.1569 -0.2550
11488TIP3   OH255954   1.626   5.116   6.168 -0.2535 -0.6667  0.3606
11488TIP3    H155955   1.721   5.118   6.175 -0.2381 -2.3414  1.2151
11488TIP3    H255956   1.599   5.208   6.172  1.3043 -0.1798  0.2189
11489TIP3   OH255957   1.749   5.777  15.883 -0.3596  0.0654  0.6386
11489TIP3    H155958   1.673   5.753  15.936  0.6894 -1.8828  1.3385
11489TIP3    H255959   1.768   5.700  15.830  1.6274  0.1637  1.1157
11490TIP3   OH255960   4.668   6.629   0.906  0.3346 -0.3178 -0.4737
11490TIP3    H155961   4.750   6.658   0.947  0.1585 -0.4756 -0.0077
11490TIP3    H255962   4.641   6.703   0.852  0.6659 -0.1808 -0.4560
11491TIP3   OH255963   6.312   1.482  11.797  0.4310  0.0599  0.4306
11491TIP3    H155964   6.359   1.541  11.738  0.4759  1.0008  1.3882
11491TIP3    H255965   6.359   1.398  11.788  1.5206  0.6484  0.4213
11492TIP3   OH255966   6.355   4.658  15.944 -0.8165 -0.1715  0.3920
11492TIP3    H155967   6.413   4.667  16.020  0.7168  1.7381 -0.9049
11492TIP3    H255968   6.382   4.576  15.902  1.1641  0.7802 -0.2982
11493TIP3   OH255969   5.832   6.424  11.171 -0.1711  0.0685  0.0403
11493TIP3    H155970   5.894   6.413  11.244  0.2778 -0.8252 -0.4621
11493TIP3    H255971   5.793   6.337  11.160 -1.2467  0.5299  0.0999
11494TIP3   OH255972   2.297   3.678   0.500  0.5923  0.1296  0.3634
11494TIP3    H155973   2.274   3.599   0.548  1.9439 -1.5726 -1.5986
11494TIP3    H255974   2.214   3.713   0.469  0.0192 -0.9493  0.6412
11495TIP3   OH255975   4.889   4.514   2.026 -0.0353 -0.1289  0.2017
11495TIP3    H155976   4.972   4.496   1.982 -0.2685  0.5219 -0.5235
11495TIP3    H255977   4.829   4.539   1.956 -1.0756 -1.3304  0.6131
11496TIP3   OH255978   4.052   6.395   0.842 -0.3625  0.0985 -0.9291
11496TIP3    H155979   4.075   6.360   0.928 -1.1518  0.5973 -0.5036
11496TIP3    H255980   4.128   6.375   0.787  0.6413  0.7624  0.1625
11497TIP3   OH255981   5.891   2.814  14.310 -0.1365  0.6571  0.4122
11497TIP3    H155982   5.869   2.881  14.375  2.8280  1.6018  0.5822
11497TIP3    H255983   5.928   2.862  14.237 -1.1952 -0.5890 -1.0054
11498TIP3   OH255984   6.414   1.691   0.988  0.0311 -0.1562  0.1349
11498TIP3    H155985   6.422   1.781   1.021 -3.1868  1.1062 -2.0265
11498TIP3    H255986   6.451   1.695   0.899  0.8554 -1.3169  0.4002
11499TIP3   OH255987   5.228   2.302  13.927 -0.0193  0.5462  0.2756
11499TIP3    H155988   5.323   2.310  13.925 -0.0493  0.9132  0.1808
11499TIP3    H255989   5.197   2.377  13.876 -0.3505  0.2606  0.0541
11500TIP3   OH255990   3.969   5.025   2.278 -0.6210 -0.6729 -0.2624
11500TIP3    H155991   4.053   4.979   2.280 -0.5718 -0.6242  2.1195
11500TIP3    H255992   3.916   4.975   2.217  0.9185 -1.0870 -1.3282
11501TIP3   OH255993   5.123   3.475   1.254 -0.2491 -0.7151 -0.5490
11501TIP3    H155994   5.115   3.517   1.168  0.1019 -2.2482 -1.3767
11501TIP3    H255995   5.104   3.544   1.317  0.7427  0.7712 -1.8230
11502TIP3   OH255996   3.413   4.193   3.736 -0.3110 -0.1511 -0.7947
11502TIP3    H155997   3.340   4.253   3.753  0.7933  0.9011  0.4328
11502TIP3    H255998   3.375   4.106   3.749 -1.3493  0.3772 -0.1482
11503TIP3   OH255999   0.948   1.526  12.408 -0.5305 -0.2755 -0.0650
11503TIP3    H156000   1.039   1.544  12.430 -0.6665  0.4003 -0.0261
11503TIP3    H256001   0.915   1.472  12.479  0.1694 -1.5515 -0.6711
11504TIP3   OH256002   4.706   5.881   5.270 -0.1665 -0.2529 -0.6960
11504TIP3    H156003   4.795   5.907   5.249 -0.0120 -0.3453 -0.1780
11504TIP3    H256004   4.716   5.817   5.341 -0.6560 -0.0728 -0.4616
11505TIP3   OH256005   1.613   3.145   1.043 -0.3093 -1.0687  0.7020
11505TIP3    H156006   1.679   3.083   1.012 -2.2534 -2.8179 -0.2409
11505TIP3    H256007   1.581   3.108   1.125 -1.0371 -0.9771  0.4702
11506TIP3   OH256008   4.962   6.109  12.999 -0.6013  0.3094 -0.3482
11506TIP3    H156009   5.007   6.175  13.052  4.0576 -1.9083 -1.0394
11506TIP3    H256010   4.959   6.032  13.056  1.0444 -0.9990 -1.9355
11507TIP3   OH256011   5.784   4.571  13.759  0.3849 -0.3677 -0.1142
11507TIP3    H156012   5.737   4.623  13.694  1.1571 -0.3189 -0.6515
11507TIP3    H256013   5.864   4.543  13.714  0.1008 -1.8223  0.2421
11508TIP3   OH256014   2.059   4.650   5.319 -0.0400 -0.0306 -0.1589
11508TIP3    H156015   2.055   4.556   5.336  1.3136  0.1398  1.3405
11508TIP3    H256016   1.970   4.680   5.331 -0.0896 -0.7939  1.6184
11509TIP3   OH256017   6.260   5.997   0.280 -0.0468  0.0420  0.0441
11509TIP3    H156018   6.190   5.966   0.338 -1.5493  0.9899 -1.1741
11509TIP3    H256019   6.241   5.955   0.196  0.7295  0.5147 -0.3754
11510TIP3   OH256020   6.398   5.696  15.779  0.0746  0.0740  0.2729
11510TIP3    H156021   6.486   5.674  15.809  0.1926 -0.5899 -0.5328
11510TIP3    H256022   6.348   5.615  15.788 -0.8598  0.7675  2.0238
11511TIP3   OH256023   2.428   6.550   3.324 -0.9594 -0.0362  0.2473
11511TIP3    H156024   2.340   6.578   3.346 -0.5968  0.0952  1.5845
11511TIP3    H256025   2.485   6.594   3.387  0.1001  0.1002 -0.7592
11512TIP3   OH256026   2.652   1.247   1.269  0.0312 -0.2480  0.0979
11512TIP3    H156027   2.598   1.305   1.322 -0.1852 -0.6190  0.2887
11512TIP3    H256028   2.699   1.305   1.210  3.5643  0.7057  3.4563
11513TIP3   OH256029   3.564   0.949   1.055 -0.5286  0.3101 -0.0489
11513TIP3    H156030   3.494   0.884   1.046 -2.3236  2.1313 -0.1966
11513TIP3    H256031   3.537   1.002   1.131  0.6916  1.0916 -0.1316
11514TIP3   OH256032   2.608   6.479   1.279 -0.2715  0.0174 -0.0171
11514TIP3    H156033   2.538   6.462   1.343  0.2767 -0.1197  0.5534
11514TIP3    H256034   2.582   6.562   1.238 -1.2657 -0.5099 -0.4988
11515TIP3   OH256035   2.042   2.596   0.522 -0.5995  0.0275  0.0981
11515TIP3    H156036   1.981   2.602   0.596 -0.6662  0.9650 -0.0109
11515TIP3    H256037   2.023   2.674   0.469  1.8566  1.3576  0.9987
11516TIP3   OH256038   1.451   3.607   4.914  0.5020 -0.4497  0.1988
11516TIP3    H156039   1.509   3.613   4.989  0.9974  2.0268 -0.2931
11516TIP3    H256040   1.457   3.693   4.872 -2.2911 -0.6442 -0.7939
11517TIP3   OH256041   0.538   1.570  10.029 -0.6572  0.3472 -0.0826
11517TIP3    H156042   0.468   1.536   9.974 -0.7510 -0.2825  0.4068
11517TIP3    H256043   0.504   1.563  10.118  0.2815 -0.6229  0.2169
11518TIP3   OH256044   2.785   6.398  11.537 -0.2030 -0.2552 -0.1345
11518TIP3    H156045   2.715   6.412  11.601 -0.2271  1.4691 -0.5104
11518TIP3    H256046   2.742   6.406  11.452  0.3236  0.0951 -0.3706
11519TIP3   OH256047   4.842   2.723   0.653 -0.1619 -0.2447  0.4862
11519TIP3    H156048   4.883   2.677   0.580 -0.7513 -1.5153  0.9225
11519TIP3    H256049   4.781   2.784   0.612  0.5915  0.1294 -0.1057
11520TIP3   OH256050   6.772   6.024  16.356  0.7566  0.1112 -0.1254
11520TIP3    H156051   6.856   6.035  16.311  0.9998 -1.7519 -0.2189
11520TIP3    H256052   6.768   5.930  16.376 -1.6352 -0.0080 -0.8159
11521TIP3   OH256053   1.118   5.379  13.144 -0.0451  0.6645  0.2952
11521TIP3    H156054   1.171   5.300  13.155  1.7919  1.5192 -1.7639
11521TIP3    H256055   1.123   5.398  13.050  0.1153  3.5960  0.8186
11522TIP3   OH256056   1.383   1.628   6.533  0.2334 -0.0988  0.0620
11522TIP3    H156057   1.463   1.677   6.554  0.3927 -0.5556  0.5419
11522TIP3    H256058   1.312   1.684   6.564  0.3073  0.7139 -1.1593
11523TIP3   OH256059   2.245   2.839   4.522  0.0131 -0.1208 -0.0936
11523TIP3    H156060   2.221   2.926   4.488 -0.2796 -0.1555  0.0204
11523TIP3    H256061   2.341   2.841   4.527  0.1479 -0.4762 -1.8856
11524TIP3   OH256062   4.066   6.650   3.771 -0.2280 -0.8574 -0.0297
11524TIP3    H156063   4.014   6.730   3.769  0.5769 -0.1401  2.8187
11524TIP3    H256064   4.109   6.651   3.857  4.3737 -1.4859 -2.0247
11525TIP3   OH256065   0.413   1.429   2.166  0.2363 -0.1471 -0.5707
11525TIP3    H156066   0.427   1.520   2.138  1.1989  0.4277  1.5790
11525TIP3    H256067   0.323   1.428   2.199  0.5271  0.2823  0.2559
11526TIP3   OH256068   5.017   5.476   5.144 -0.3505 -0.1347  0.5825
11526TIP3    H156069   4.979   5.409   5.087 -0.3672  0.2351  0.1493
11526TIP3    H256070   5.006   5.558   5.094 -0.4980  0.2153  1.1820
11527TIP3   OH256071   5.983   4.583  13.429  0.1456 -0.4422 -0.0199
11527TIP3    H156072   6.021   4.663  13.392 -1.3108  0.4864  0.3957
11527TIP3    H256073   5.933   4.545  13.357 -1.4921  0.5829  0.5276
11528TIP3   OH256074   2.619   1.365  14.984 -0.3151 -0.9117  0.0084
11528TIP3    H156075   2.648   1.411  15.064  1.1861 -1.1740 -0.3483
11528TIP3    H256076   2.566   1.430  14.938 -0.7910 -0.5870  0.9807
11529TIP3   OH256077   2.927   4.437   0.674  0.3934 -0.2759 -0.5845
11529TIP3    H156078   2.921   4.524   0.714 -1.2025  0.7081 -2.7154
11529TIP3    H256079   2.960   4.454   0.585  1.4148 -2.0478 -0.5916
11530TIP3   OH256080   0.861   0.668  15.436  0.3884 -0.2587 -0.6413
11530TIP3    H156081   0.864   0.588  15.489 -0.3695 -0.2215 -0.5261
11530TIP3    H256082   0.911   0.646  15.357 -0.0862 -0.9677 -0.7590
11531TIP3   OH256083   6.298   0.794  12.926  0.2209  0.1320 -0.1624
11531TIP3    H156084   6.315   0.839  13.008 -4.3145  0.3961  0.8887
11531TIP3    H256085   6.334   0.852  12.859  2.6595  0.6500  1.4533
11532TIP3   OH256086   1.706   5.337  11.517  0.2128 -0.3181 -0.5127
11532TIP3    H156087   1.636   5.315  11.456 -0.1394 -1.5880  0.3016
11532TIP3    H256088   1.723   5.430  11.502 -1.4859 -0.0342 -0.8954
11533TIP3   OH256089   2.060   1.645  13.670  0.2344  0.3314  0.2505
11533TIP3    H156090   2.127   1.713  13.683  0.0525  0.0912  3.0233
11533TIP3    H256091   1.991   1.667  13.733 -0.7369 -1.3427 -0.1612
11534TIP3   OH256092   3.746   4.842   1.631  0.5048  0.3443  0.2686
11534TIP3    H156093   3.688   4.765   1.636  0.9434 -0.3495 -3.0098
11534TIP3    H256094   3.819   4.819   1.688  0.4242 -1.5298 -0.2893
11535TIP3   OH256095   0.195   0.896   5.785 -0.2343  0.0784  0.0552
11535TIP3    H156096   0.290   0.909   5.781 -0.3729  0.7898 -1.1881
11535TIP3    H256097   0.162   0.975   5.826 -0.0802 -1.4357  3.4780
11536TIP3   OH256098   6.131   3.458   4.986 -0.9959 -0.2359  0.7291
11536TIP3    H156099   6.075   3.413   4.923  2.6525 -1.6939 -1.8203
11536TIP3    H256100   6.152   3.391   5.052 -0.3769 -0.4531  0.3199
11537TIP3   OH256101   2.690   0.238   3.201 -0.2300 -0.0324 -0.3124
11537TIP3    H156102   2.612   0.183   3.194  0.5363 -1.7959  3.0192
11537TIP3    H256103   2.702   0.252   3.295  3.7769 -0.3213 -0.5939
11538TIP3   OH256104   5.676   0.122   3.312  0.0462  0.4419 -0.1262
11538TIP3    H156105   5.620   0.116   3.389 -1.0970 -1.5684 -1.0451
11538TIP3    H256106   5.765   0.118   3.346 -0.4419 -1.5678  1.0698
11539TIP3   OH256107   1.228   2.815   6.440 -0.1668 -0.1799 -0.1726
11539TIP3    H156108   1.253   2.728   6.471 -0.8262  0.0718  1.1757
11539TIP3    H256109   1.210   2.803   6.347 -1.0006 -1.6819  0.1353
11540TIP3   OH256110   4.050   1.192  16.303 -0.1351  0.5644 -0.1629
11540TIP3    H156111   4.093   1.193  16.218  0.3090  1.4999  0.0587
11540TIP3    H256112   4.101   1.130  16.355 -0.7614 -0.4579 -0.7402
11541TIP3   OH256113   6.402   4.725  14.466  0.1680  0.2737  0.3319
11541TIP3    H156114   6.497   4.727  14.464  0.1813  0.5433  1.0826
11541TIP3    H256115   6.377   4.806  14.511 -0.4016  0.0221  0.4798
11542TIP3   OH256116   5.279   0.133  15.013 -0.0766  0.5653 -0.0704
11542TIP3    H156117   5.187   0.132  15.039  0.2175  0.6506  1.0192
11542TIP3    H256118   5.305   0.225  15.018  0.4203  0.3830  0.9673
11543TIP3   OH256119   0.059   3.471  16.220  0.1079  0.1545  0.0978
11543TIP3    H156120  -0.014   3.513  16.174  0.2653  0.4729  0.1397
11543TIP3    H256121   0.048   3.498  16.311  0.7538  0.8854 -0.0311
11544TIP3   OH256122   5.670   5.237  16.886 -0.1494 -0.2357  0.2769
11544TIP3    H156123   5.683   5.274  16.799  0.0978 -0.0559  0.3871
11544TIP3    H256124   5.594   5.284  16.921 -1.4258 -1.6142 -0.5480
11545TIP3   OH256125   2.603   1.041  12.558 -0.5283 -0.0217  0.4555
11545TIP3    H156126   2.520   1.088  12.565 -0.6218  0.0659 -0.9206
11545TIP3    H256127   2.634   1.060  12.469  1.8642  1.3874  1.4897
11546TIP3   OH256128   0.840   3.504   1.932  0.0516 -0.5331 -0.2603
11546TIP3    H156129   0.887   3.459   2.002  2.8890  0.6363 -1.2575
11546TIP3    H256130   0.798   3.578   1.976  0.0343 -0.9950  0.5169
11547TIP3   OH256131   5.927   4.375   3.801 -0.0415 -0.2184 -0.9471
11547TIP3    H156132   5.988   4.305   3.776  0.0129  0.0229 -1.5021
11547TIP3    H256133   5.856   4.330   3.847  1.4676 -0.3121  1.4680
11548TIP3   OH256134   2.716   4.424  13.329  0.4259  0.1455 -0.0932
11548TIP3    H156135   2.719   4.421  13.425 -0.9748 -1.1111 -0.0497
11548TIP3    H256136   2.628   4.453  13.308  0.9533  1.1290 -1.0207
11549TIP3   OH256137   4.667   3.580  12.828 -0.8830 -0.5208  0.1472
11549TIP3    H156138   4.716   3.602  12.907  1.8292 -2.0676 -0.9321
11549TIP3    H256139   4.613   3.656  12.811  0.6752  1.0886  1.8588
11550TIP3   OH256140   5.938   6.294  12.614 -0.3182 -0.1555  0.2695
11550TIP3    H156141   5.861   6.270  12.666  0.4324 -1.2945  0.8887
11550TIP3    H256142   5.941   6.390  12.620 -2.9096  0.1532 -1.5683
11551TIP3   OH256143   2.204   5.153  15.709 -0.7851 -0.2409  0.2860
11551TIP3    H156144   2.285   5.198  15.684 -0.7066 -0.2938  0.4501
11551TIP3    H256145   2.192   5.175  15.801 -0.1509 -1.4584  0.6805
11552TIP3   OH256146   3.898   3.963   3.144 -0.3810 -0.0804 -0.2373
11552TIP3    H156147   3.847   3.940   3.066 -0.3060  0.5829 -0.4883
11552TIP3    H256148   3.914   3.879   3.188 -2.2543 -0.2476  0.2140
11553TIP3   OH256149   6.019   1.935   2.295 -0.6856  0.1058  0.1005
11553TIP3    H156150   5.989   1.898   2.378  0.9510 -0.7576  0.3495
11553TIP3    H256151   6.001   1.867   2.230  0.1757 -0.1837  0.1564
11554TIP3   OH256152   1.783   3.761  12.240 -0.2074 -0.0001 -0.4395
11554TIP3    H156153   1.861   3.760  12.296  0.6573  1.1600 -1.5505
11554TIP3    H256154   1.764   3.669  12.223  0.1632 -0.3322  0.8460
11555TIP3   OH256155   0.644   3.089   0.175  0.5555 -0.2383  0.4813
11555TIP3    H156156   0.650   3.107   0.082 -1.4825 -0.5528  0.2368
11555TIP3    H256157   0.713   3.025   0.193  0.0925 -1.2310 -1.1087
11556TIP3   OH256158   0.926   6.459  11.676 -0.2600  0.2732 -0.4219
11556TIP3    H156159   1.016   6.429  11.665  0.3584  1.8495  0.1328
11556TIP3    H256160   0.934   6.546  11.715 -2.0262  0.4630 -0.4108
11557TIP3   OH256161   2.690   5.750   4.954  0.0828  0.2108 -0.2526
11557TIP3    H156162   2.632   5.698   4.898  0.6559 -0.2719 -0.4014
11557TIP3    H256163   2.761   5.779   4.896  0.0999  0.6402 -0.0269
11558TIP3   OH256164   4.042   4.064   1.117 -0.3155  0.8311 -0.8439
11558TIP3    H156165   4.054   4.007   1.041  0.3033 -0.3113  0.0674
11558TIP3    H256166   4.126   4.061   1.163 -0.4729  2.0254 -0.4584
11559TIP3   OH256167   0.935   4.994   2.127 -0.0231 -0.0096 -0.2007
11559TIP3    H156168   1.023   4.984   2.090  0.3899 -0.1554  0.7941
11559TIP3    H256169   0.948   4.990   2.222 -1.1461 -0.3322 -0.0478
11560TIP3   OH256170   4.063   0.309   4.127 -0.5778  0.0009  0.0683
11560TIP3    H156171   4.012   0.370   4.181  0.4081  1.2543 -0.3561
11560TIP3    H256172   3.997   0.259   4.079 -1.4358  1.2046 -0.0562
11561TIP3   OH256173   0.676   2.054   2.817 -0.0263  0.1631 -0.2632
11561TIP3    H156174   0.605   1.989   2.817  1.0831 -1.1386  1.1338
11561TIP3    H256175   0.649   2.119   2.881 -0.0434 -0.2614  0.1711
11562TIP3   OH256176   4.656   6.030   0.581  0.0661  0.1553  0.3685
11562TIP3    H156177   4.740   6.053   0.542  0.7218 -0.7143  1.2250
11562TIP3    H256178   4.664   6.056   0.673 -0.9937  1.0276  0.2325
11563TIP3   OH256179   3.712   2.950  17.153  0.0544 -0.3264  0.3354
11563TIP3    H156180   3.708   2.885  17.224 -0.2633 -0.7696 -0.0796
11563TIP3    H256181   3.666   2.908  17.081 -0.1250  0.3578  0.0501
11564TIP3   OH256182   0.907   1.297  12.607 -0.2713 -0.4170  0.2105
11564TIP3    H156183   0.913   1.208  12.572  1.8421 -0.8933  1.5588
11564TIP3    H256184   0.880   1.285  12.698  1.2352  0.1779  0.7674
11565TIP3   OH256185   3.104   6.584  12.016 -0.0973 -0.0161 -0.3426
11565TIP3    H156186   3.020   6.544  11.994 -1.0464  1.1581  0.9400
11565TIP3    H256187   3.168   6.537  11.963 -1.3568 -1.9783 -0.2114
11566TIP3   OH256188   6.068   5.801   2.181  0.0501  0.1341  0.1026
11566TIP3    H156189   6.159   5.801   2.211  0.6942 -3.3562 -1.4054
11566TIP3    H256190   6.053   5.713   2.147 -3.8944  0.5942  0.1144
11567TIP3   OH256191   0.065   4.801  11.497 -0.3324  0.4145 -0.2980
11567TIP3    H156192  -0.028   4.782  11.510 -0.5167  1.4484 -0.0542
11567TIP3    H256193   0.108   4.771  11.577 -0.8047  2.2285  0.6710
11568TIP3   OH256194   5.723   3.683  14.794 -0.0394  0.0184 -0.2589
11568TIP3    H156195   5.652   3.622  14.813  1.2847 -1.3268  0.6672
11568TIP3    H256196   5.781   3.635  14.736 -0.1332  1.2990 -1.4539
11569TIP3   OH256197   4.023   5.150  12.847 -0.0755  0.2917 -0.0595
11569TIP3    H156198   4.016   5.236  12.888 -0.4057  0.6892 -0.9204
11569TIP3    H256199   3.964   5.094  12.897  0.8516  0.3230  1.1019
11570TIP3   OH256200   3.436   6.135  14.447 -0.4648  0.0190  0.2750
11570TIP3    H156201   3.462   6.152  14.537 -0.3163 -0.6288  0.3602
11570TIP3    H256202   3.386   6.053  14.451  0.5108 -0.6351 -0.3800
11571TIP3   OH256203   0.565   4.331   1.999 -0.0049  0.0482  0.3735
11571TIP3    H156204   0.571   4.411   2.052 -0.0268  0.3172 -0.0261
11571TIP3    H256205   0.591   4.261   2.059 -0.6114  0.2760  0.9095
11572TIP3   OH256206   3.500   1.663  12.503 -0.1307  0.0135 -0.0556
11572TIP3    H156207   3.545   1.685  12.421 -1.4932  0.2347 -0.7614
11572TIP3    H256208   3.567   1.678  12.571  0.3423  2.0842 -0.9040
11573TIP3   OH256209   1.098   6.773   2.043  0.0237  0.2445  0.3480
11573TIP3    H156210   1.144   6.856   2.031 -0.0007  0.2230  0.0905
11573TIP3    H256211   1.146   6.728   2.112  0.2792  0.3001  0.2057
11574TIP3   OH256212   0.838   5.826   0.056 -0.6496 -0.0329 -0.0011
11574TIP3    H156213   0.797   5.757   0.109 -1.8250  0.5452 -0.1374
11574TIP3    H256214   0.900   5.779   0.000  1.4882 -0.5787  2.6049
11575TIP3   OH256215   0.044   5.843  14.772  0.5840  0.5146 -0.5792
11575TIP3    H156216   0.136   5.842  14.797  0.6862 -0.2531 -0.9535
11575TIP3    H256217  -0.002   5.805  14.847  0.6655  0.1110 -0.7332
11576TIP3   OH256218   4.470   1.524  12.974 -0.4194  0.0755  0.8842
11576TIP3    H156219   4.527   1.507  12.899 -1.1221 -0.1844  0.3929
11576TIP3    H256220   4.436   1.613  12.959 -1.1155 -0.2450  0.5113
11577TIP3   OH256221   3.525   0.037  13.101 -0.5822 -0.5193 -0.0643
11577TIP3    H156222   3.494   0.040  13.191 -0.8018 -0.1122 -0.1502
11577TIP3    H256223   3.589  -0.034  13.099  0.5182  0.4223  0.7562
11578TIP3   OH256224   5.257   6.054  16.227 -1.1532 -0.0726  0.3740
11578TIP3    H156225   5.178   6.046  16.281 -0.2043 -0.2765  1.8198
11578TIP3    H256226   5.329   6.032  16.287  0.0859  1.0589 -0.6210
11579TIP3   OH256227   5.734   5.835   0.091 -0.7041 -0.0611 -0.1361
11579TIP3    H156228   5.750   5.853  -0.002 -0.9200 -3.7460 -1.0410
11579TIP3    H256229   5.819   5.807   0.125  0.3545  4.7833  1.9826
11580TIP3   OH256230   1.198   0.419   2.270  0.0674 -0.1935 -0.4568
11580TIP3    H156231   1.133   0.414   2.340  1.0047  1.7473  0.6072
11580TIP3    H256232   1.156   0.471   2.202  0.3781  0.8468  0.1270
11581TIP3   OH256233   2.432   1.809   4.526  0.6891 -0.3149  0.1152
11581TIP3    H156234   2.380   1.827   4.448  1.8317 -0.3679 -0.6826
11581TIP3    H256235   2.370   1.819   4.599 -0.3857 -0.2219 -0.7803
11582TIP3   OH256236   4.278   1.866  16.443  1.2553 -0.6710  0.5087
11582TIP3    H156237   4.187   1.842  16.427  0.8129  0.9210  0.4978
11582TIP3    H256238   4.281   1.887  16.536  1.2273  0.7711  0.2048
11583TIP3   OH256239   1.757   5.104  15.412 -0.2058  0.1618  0.4896
11583TIP3    H156240   1.844   5.134  15.385 -0.7109  2.0939  0.8218
11583TIP3    H256241   1.744   5.021  15.366  0.9171  0.9373 -1.3352
11584TIP3   OH256242   1.671   3.821   2.128 -0.5073 -0.5494 -0.3593
11584TIP3    H156243   1.614   3.850   2.056  0.3479  0.0411 -0.8200
11584TIP3    H256244   1.695   3.731   2.104 -0.6148 -0.5252 -0.5662
11585TIP3   OH256245   5.456   2.297   0.905 -0.0203  0.5027  0.1112
11585TIP3    H156246   5.484   2.327   0.818  1.0830 -2.1440 -0.5315
11585TIP3    H256247   5.362   2.311   0.906  0.3024  3.3390 -0.3148
11586TIP3   OH256248   5.134   3.296  10.563 -0.3192  0.3620  0.3000
11586TIP3    H156249   5.040   3.302  10.577 -0.1336  2.0154  1.0771
11586TIP3    H256250   5.153   3.361  10.496  0.1523 -0.7149 -0.6494
11587TIP3   OH256251   2.699   4.352  16.354 -1.0332 -0.2318 -0.0901
11587TIP3    H156252   2.689   4.443  16.323 -0.7816  0.5330  1.9471
11587TIP3    H256253   2.611   4.314  16.344 -1.2860  0.4140 -0.4026
11588TIP3   OH256254   1.496   6.714   4.516 -0.3364  0.4226  0.3767
11588TIP3    H156255   1.442   6.641   4.544  1.5891 -0.8105  1.0440
11588TIP3    H256256   1.529   6.753   4.597  2.1837 -0.7676  0.0045
11589TIP3   OH256257   1.141   3.494  14.851  0.0427  0.3160 -0.6869
11589TIP3    H156258   1.132   3.589  14.845  0.6711  0.5007  0.9233
11589TIP3    H256259   1.235   3.479  14.863  0.0842 -0.5897 -1.8662
11590TIP3   OH256260   1.257   0.506   6.075  0.1977  0.3558  0.1427
11590TIP3    H156261   1.307   0.586   6.090 -0.6388  1.0235 -0.5393
11590TIP3    H256262   1.219   0.486   6.161  2.1356 -0.5511  0.8428
11591TIP3   OH256263   3.906   4.397   6.802 -0.5280 -0.0978 -0.0610
11591TIP3    H156264   3.846   4.330   6.836 -0.4993 -0.4491 -0.6929
11591TIP3    H256265   3.922   4.372   6.711  0.4667  0.0670  0.0518
11592TIP3   OH256266   3.832   3.393  13.575  0.1265 -0.7661 -0.4899
11592TIP3    H156267   3.824   3.298  13.582  0.5344 -0.8379 -0.9479
11592TIP3    H256268   3.745   3.426  13.599 -0.3328 -1.3132 -1.3575
11593TIP3   OH256269   4.952   5.608  12.613  1.0564  0.1695 -0.4466
11593TIP3    H156270   4.920   5.528  12.655  1.4422  0.2921  0.0819
11593TIP3    H256271   4.904   5.678  12.657  1.8477  0.3342  0.1655
11594TIP3   OH256272   4.005   6.206   2.521  0.3118  0.3679 -0.6454
11594TIP3    H156273   3.994   6.245   2.434  0.2362  2.4349  0.2225
11594TIP3    H256274   4.100   6.203   2.534  0.3171  2.1482  0.0199
11595TIP3   OH256275   4.482   2.103  13.487 -0.0370 -0.2293 -0.1635
11595TIP3    H156276   4.533   2.140  13.558  1.7801 -0.1475 -1.4378
11595TIP3    H256277   4.421   2.042  13.530 -1.0068  1.9118  1.6767
11596TIP3   OH256278   2.288   1.353  14.292 -0.5102  0.4787  0.0418
11596TIP3    H156279   2.217   1.331  14.231  0.2379 -0.6014 -0.4826
11596TIP3    H256280   2.336   1.423  14.248  0.6378 -0.9877 -1.1647
11597TIP3   OH256281   5.824   2.702   2.474 -0.0696 -0.3680  0.2744
11597TIP3    H156282   5.776   2.771   2.521  0.2888  0.1135 -0.0473
11597TIP3    H256283   5.758   2.637   2.451 -0.5720  0.2900 -0.1792
11598TIP3   OH256284   2.357   2.956  16.098 -0.5027  0.2370 -0.2014
11598TIP3    H156285   2.388   2.932  16.010  1.2032  0.6029  0.2598
11598TIP3    H256286   2.331   3.048  16.089 -1.6622 -0.1024 -0.6155
11599TIP3   OH256287   2.602   1.610  16.090 -0.4701  0.3015 -0.5340
11599TIP3    H156288   2.640   1.523  16.097 -0.1877  0.3975 -0.7970
11599TIP3    H256289   2.517   1.604  16.132 -0.5736 -0.1735 -0.8063
11600TIP3   OH256290   4.971   0.283  10.596 -0.4195  0.0108 -0.0706
11600TIP3    H156291   5.056   0.309  10.632 -0.2321 -0.5453 -0.0952
11600TIP3    H256292   4.971   0.319  10.507 -0.7651  1.1406  0.3702
11601TIP3   OH256293   0.823   0.638   1.978  0.4312  0.1321 -0.0268
11601TIP3    H156294   0.804   0.647   2.071 -0.4073  0.8597 -0.2574
11601TIP3    H256295   0.846   0.727   1.949  0.2217  0.0019 -0.6136
11602TIP3   OH256296   1.366   4.573  15.195  0.1774 -0.4025 -0.5748
11602TIP3    H156297   1.297   4.506  15.194 -2.1913  1.9081 -1.1997
11602TIP3    H256298   1.353   4.620  15.277  1.7677 -0.5708 -0.1874
11603TIP3   OH256299   0.550   1.049   1.898 -0.0442 -0.4120  0.1726
11603TIP3    H156300   0.595   1.057   1.814 -0.9733 -0.2426 -0.3152
11603TIP3    H256301   0.619   1.024   1.960  0.2963 -2.4653 -0.9836
11604TIP3   OH256302   2.997   3.761  16.689  0.2133 -0.3807 -0.0949
11604TIP3    H156303   3.062   3.816  16.733  1.1018  0.2711 -2.1346
11604TIP3    H256304   2.966   3.814  16.616 -0.8163 -1.6219 -0.5880
11605TIP3   OH256305   1.877   5.055  13.277  0.3072  0.9449 -0.7701
11605TIP3    H156306   1.885   4.966  13.313  1.1737  0.7934 -1.3132
11605TIP3    H256307   1.812   5.046  13.207  0.0766  0.8317 -0.5428
11606TIP3   OH256308   3.054   4.888  15.545 -0.0467  0.2870 -0.5754
11606TIP3    H156309   2.982   4.939  15.507 -0.5984  0.1597  0.2591
11606TIP3    H256310   3.025   4.870  15.635  0.6785 -0.4583 -0.4817
11607TIP3   OH256311   3.321   0.636  13.080 -0.1497  0.3695  0.5194
11607TIP3    H156312   3.295   0.659  12.991  1.1216  0.0838  0.0639
11607TIP3    H256313   3.251   0.577  13.110  0.6830 -1.6184 -1.2411
11608TIP3   OH256314   3.357   5.418   1.019 -0.5302 -0.9497 -0.5225
11608TIP3    H156315   3.430   5.356   1.006 -0.0669 -0.7626  1.0495
11608TIP3    H256316   3.293   5.392   0.953  0.2974 -2.1377 -0.9080
11609TIP3   OH256317   5.512   1.419  15.415 -0.3184 -0.1926  0.0328
11609TIP3    H156318   5.516   1.458  15.503 -0.5556  0.1226 -0.0955
11609TIP3    H256319   5.585   1.458  15.368 -0.0677 -0.5144  0.1469
11610TIP3   OH256320   1.238   6.318   1.592 -1.0521  0.2977 -0.1522
11610TIP3    H156321   1.295   6.386   1.628  2.5181 -2.4172 -0.1695
11610TIP3    H256322   1.270   6.303   1.503 -0.0583 -2.8977  0.6049
11611TIP3   OH256323   0.725   0.686   3.728 -0.0071 -0.1795 -0.0114
11611TIP3    H156324   0.814   0.703   3.758 -0.0940 -0.3139  0.3246
11611TIP3    H256325   0.669   0.741   3.783 -0.2987 -1.5755  1.1455
11612TIP3   OH256326   2.607   5.223  11.640  0.2237 -0.0718  0.1653
11612TIP3    H156327   2.621   5.197  11.549  0.1127 -1.0557  0.4243
11612TIP3    H256328   2.542   5.293  11.636  0.6533  0.2977 -0.5525
11613TIP3   OH256329   2.871   5.746  17.070  0.6597  0.4307  0.8111
11613TIP3    H156330   2.909   5.663  17.042 -0.4503 -0.6132  2.2866
11613TIP3    H256331   2.777   5.732  17.070  0.3128  2.3002 -0.6701
11614TIP3   OH256332   0.645   4.433   0.264  0.8518 -0.2119  0.3172
11614TIP3    H156333   0.649   4.399   0.174 -0.7354 -0.7208  0.4073
11614TIP3    H256334   0.717   4.388   0.310  0.5978 -1.2683 -0.2767
11615TIP3   OH256335   0.674   3.645   2.458 -0.0091 -0.6030  0.2211
11615TIP3    H156336   0.591   3.604   2.437 -0.3235  0.2366 -0.2374
11615TIP3    H256337   0.740   3.587   2.422 -0.4529 -0.5922 -0.6203
11616TIP3   OH256338   3.686   2.354  11.158 -0.7149 -0.6027  0.1957
11616TIP3    H156339   3.596   2.335  11.132 -0.6649  0.2969 -0.6671
11616TIP3    H256340   3.722   2.269  11.183 -0.6467 -1.6584 -3.0859
11617TIP3   OH256341   4.749   6.040  13.997 -0.0843  0.2241 -0.2478
11617TIP3    H156342   4.801   6.078  13.926  1.5026  0.7232  1.1114
11617TIP3    H256343   4.664   6.081  13.988  0.2452  0.6919 -1.5244
11618TIP3   OH256344   3.748   1.454  16.972  0.4743 -0.2985  0.3905
11618TIP3    H156345   3.660   1.437  16.937  0.0139  2.7714 -0.2032
11618TIP3    H256346   3.733   1.479  17.064  0.9798 -1.5629  0.8476
11619TIP3   OH256347   5.529   2.134  14.419  0.4925 -0.1512  0.2305
11619TIP3    H156348   5.451   2.184  14.397  0.9963  0.2648 -0.6766
11619TIP3    H256349   5.510   2.045  14.390  0.6007  0.0916 -0.6067
11620TIP3   OH256350   2.488   5.934   4.209 -0.4249 -0.4891 -0.6251
11620TIP3    H156351   2.486   5.869   4.139 -1.1637  0.1705 -1.2290
11620TIP3    H256352   2.443   5.893   4.283 -3.3782  0.2885 -1.8698
11621TIP3   OH256353   1.677   5.168   1.854 -0.2212  0.2400 -0.1331
11621TIP3    H156354   1.674   5.255   1.815  1.4325 -0.2334 -1.3965
11621TIP3    H256355   1.770   5.148   1.864 -0.5552 -1.3855  0.1409
11622TIP3   OH256356   6.392   0.061   0.184 -0.2739 -0.6815  0.2875
11622TIP3    H156357   6.308   0.032   0.220  1.0272 -1.5361  2.8584
11622TIP3    H256358   6.407   0.146   0.225  0.0641 -0.4355 -0.3250
11623TIP3   OH256359   4.057   5.327   4.556 -0.3911 -0.6653  0.2919
11623TIP3    H156360   4.144   5.323   4.516 -0.2782  1.4223  0.2282
11623TIP3    H256361   4.061   5.403   4.614 -1.8197 -1.2508  1.2010
11624TIP3   OH256362   1.781   3.563  16.348  0.7805 -0.0319 -0.0632
11624TIP3    H156363   1.690   3.542  16.327  0.5809  0.5205  0.2246
11624TIP3    H256364   1.822   3.578  16.263  1.0523 -1.9797 -0.3225
11625TIP3   OH256365   4.669   2.790  14.721  0.3056 -0.2822 -0.3407
11625TIP3    H156366   4.676   2.885  14.711  0.0911 -0.0995  1.1013
11625TIP3    H256367   4.638   2.777  14.810  1.3857 -1.7414 -0.1388
11626TIP3   OH256368   6.521   5.917  10.624 -0.3494  0.5817  0.0753
11626TIP3    H156369   6.577   5.881  10.555  0.1288  0.9560  0.2620
11626TIP3    H256370   6.540   6.011  10.623 -0.3035  0.5791  0.7504
11627TIP3   OH256371   2.348   0.825   4.699  0.3953  0.3745 -0.4594
11627TIP3    H156372   2.338   0.914   4.731  0.4461 -0.1941  1.2285
11627TIP3    H256373   2.261   0.785   4.709  0.8211 -0.3272  0.6859
11628TIP3   OH256374   1.667   5.853  16.909 -0.0386 -0.1359  0.2503
11628TIP3    H156375   1.607   5.818  16.975 -0.5610 -1.0916 -0.6856
11628TIP3    H256376   1.653   5.947  16.909 -0.2225 -0.1617  1.3042
11629TIP3   OH256377   6.368   0.781  15.822 -0.5222 -0.0567  0.3213
11629TIP3    H156378   6.454   0.802  15.857 -1.2147  1.5263  1.1742
11629TIP3    H256379   6.382   0.774  15.727  0.3255  1.4689  0.3044
11630TIP3   OH256380   4.207   3.695  11.593 -0.5891 -0.4420 -0.0800
11630TIP3    H156381   4.209   3.646  11.511  0.1882 -0.6346  0.0427
11630TIP3    H256382   4.215   3.787  11.567 -0.2332 -0.5096 -0.2217
11631TIP3   OH256383   0.143   1.678   5.684  0.5799 -0.0511  0.8474
11631TIP3    H156384   0.119   1.702   5.595  1.4334 -1.4790  0.2041
11631TIP3    H256385   0.065   1.696   5.736 -0.1799  0.0763 -0.3163
11632TIP3   OH256386   0.581   1.999   3.396 -0.0523 -0.1323  0.8129
11632TIP3    H156387   0.676   1.996   3.401  0.1096  0.1952 -1.3330
11632TIP3    H256388   0.551   1.943   3.468  1.7374 -0.3690  1.4135
11633TIP3   OH256389   4.137   2.139   2.113  0.0660  0.3194  0.1715
11633TIP3    H156390   4.226   2.150   2.145  0.3327 -2.2011  0.4748
11633TIP3    H256391   4.083   2.135   2.192  0.0797 -0.8949  0.1442
11634TIP3   OH256392   3.625   5.140   4.322  0.5393 -0.2965  0.1904
11634TIP3    H156393   3.541   5.168   4.358  1.3665  0.8678  1.2891
11634TIP3    H256394   3.611   5.139   4.227 -0.5081  0.6535  0.3118
11635TIP3   OH256395   0.232   6.198  11.551 -0.2174 -0.1005  0.0434
11635TIP3    H156396   0.209   6.189  11.643 -0.0121  0.0458  0.1103
11635TIP3    H256397   0.320   6.161  11.545 -0.2315 -0.1119 -0.0938
11636TIP3   OH256398   3.436   3.106   0.117 -0.4521  0.5480 -0.0786
11636TIP3    H156399   3.380   3.165   0.066  0.1910  1.0813 -0.1864
11636TIP3    H256400   3.492   3.064   0.051 -0.9420 -0.2213 -0.0049
11637TIP3   OH256401   2.813   4.551  15.136 -0.3607 -0.2630 -0.2836
11637TIP3    H156402   2.736   4.496  15.121  0.6067 -1.8599  0.3320
11637TIP3    H256403   2.876   4.494  15.180  1.2190  0.9735 -0.8032
11638TIP3   OH256404   2.478   2.973  13.762  0.3848 -0.1218  0.3038
11638TIP3    H156405   2.428   3.053  13.777 -0.4962 -0.5988 -0.0278
11638TIP3    H256406   2.482   2.964  13.667  0.3629 -0.5368  0.3366
11639TIP3   OH256407   5.420   1.862   1.630 -0.1062  0.3479  0.2982
11639TIP3    H156408   5.466   1.812   1.562  0.9252  1.2754  0.2706
11639TIP3    H256409   5.463   1.837   1.711 -1.7790 -1.2628  0.7489
11640TIP3   OH256410   6.061   0.861   5.512  0.1518  0.6361 -0.2494
11640TIP3    H156411   5.971   0.887   5.533 -0.4173 -0.4217 -1.2503
11640TIP3    H256412   6.098   0.833   5.595 -1.2034 -1.0357 -0.1610
11641TIP3   OH256413   6.677   0.216   0.478  0.1702 -0.2719 -0.3471
11641TIP3    H156414   6.625   0.297   0.482  1.2812  0.4558 -0.0839
11641TIP3    H256415   6.613   0.146   0.487 -0.8399  0.5774 -0.7126
11642TIP3   OH256416   6.746   4.883  15.567  0.2310  0.1569  0.4917
11642TIP3    H156417   6.666   4.892  15.619 -0.0440 -0.5526  0.2063
11642TIP3    H256418   6.810   4.845  15.627 -0.0713 -0.6158  0.3314
11643TIP3   OH256419   0.052   6.808  17.088  0.0729 -0.6485 -0.4134
11643TIP3    H156420  -0.000   6.782  17.163 -0.3231  2.2696  0.4789
11643TIP3    H256421   0.098   6.729  17.060 -1.1485 -2.2018  1.7718
11644TIP3   OH256422   1.649   4.532  13.089 -0.2394  0.1817 -0.3190
11644TIP3    H156423   1.695   4.526  13.006 -0.7276 -0.9208 -0.5337
11644TIP3    H256424   1.705   4.587  13.144 -0.5481  2.0911 -1.7768
11645TIP3   OH256425   0.513   1.921   3.103 -0.4066  0.4236 -0.3548
11645TIP3    H156426   0.486   1.972   3.179  0.8755  2.2826 -1.0852
11645TIP3    H256427   0.463   1.958   3.031 -0.4949 -0.3116 -0.6793
11646TIP3   OH256428   4.924   5.613   2.652 -0.4136  0.5510 -0.3960
11646TIP3    H156429   4.907   5.668   2.729 -1.4081  0.4016 -0.4932
11646TIP3    H256430   4.944   5.676   2.582 -2.4210  0.9123 -0.7328
11647TIP3   OH256431   2.625   4.683  12.282 -0.4170 -0.0994  0.3294
11647TIP3    H156432   2.629   4.777  12.263 -2.4473 -0.2537 -1.2428
11647TIP3    H256433   2.715   4.658  12.301  0.0931  2.2684  1.3930
11648TIP3   OH256434   2.346   3.242  16.102 -0.4209 -0.2619 -0.1169
11648TIP3    H156435   2.289   3.314  16.075 -0.0422 -0.2425 -0.8990
11648TIP3    H256436   2.411   3.283  16.159 -2.4048 -0.6322  2.6053
11649TIP3   OH256437   4.929   2.526   4.148 -0.5401 -0.0548 -0.4245
11649TIP3    H156438   4.884   2.444   4.169  1.6376 -1.4013 -0.6580
11649TIP3    H256439   4.952   2.563   4.233 -0.2415 -0.4724 -0.3188
11650TIP3   OH256440   3.093   3.003  16.768  0.0992 -0.3957  0.7532
11650TIP3    H156441   3.104   3.066  16.697 -1.9116 -0.2253  0.5391
11650TIP3    H256442   3.044   3.050  16.835 -3.4068 -2.2209 -0.2895
11651TIP3   OH256443   6.792   0.235   6.341  0.6188  0.4158  0.4020
11651TIP3    H156444   6.870   0.206   6.387 -0.4712  0.5630  2.4651
11651TIP3    H256445   6.781   0.327   6.367 -1.3521 -0.1649  1.9019
11652TIP3   OH256446   2.215   0.378   1.705  0.2874  0.3380 -0.4965
11652TIP3    H156447   2.268   0.455   1.687  2.3725 -1.2837 -1.8778
11652TIP3    H256448   2.265   0.330   1.771 -1.7071  0.7896  1.4500
11653TIP3   OH256449   6.507   5.560  15.031 -0.0006 -0.5816  0.0075
11653TIP3    H156450   6.561   5.487  15.061  0.7340 -0.4707 -1.0148
11653TIP3    H256451   6.418   5.538  15.061  0.0398 -2.3338 -1.0232
11654TIP3   OH256452   5.593   1.013   5.392  0.2759  0.1394 -0.2970
11654TIP3    H156453   5.552   0.969   5.467  0.2928  0.8293  0.1362
11654TIP3    H256454   5.540   1.092   5.380  1.2203  0.8392  0.0059
11655TIP3   OH256455   0.599   2.825  16.866  0.7907 -0.1884  0.1469
11655TIP3    H156456   0.667   2.880  16.826 -0.0446  0.1548 -0.8420
11655TIP3    H256457   0.608   2.740  16.822 -0.3655  0.2955 -1.0907
11656TIP3   OH256458   6.805   4.053  14.842  0.1704  0.0838 -0.0936
11656TIP3    H156459   6.857   4.132  14.829  0.5730  0.0177  0.9701
11656TIP3    H256460   6.833   4.020  14.928 -0.9570 -0.4686  0.0831
11657TIP3   OH256461   2.181   2.792  16.246 -0.1069  0.1516 -0.1016
11657TIP3    H156462   2.233   2.761  16.320 -2.6321 -2.1219  0.8990
11657TIP3    H256463   2.240   2.850  16.198  1.3389  2.9096  4.3382
11658TIP3   OH256464   2.301   4.042  11.292  0.4108  0.1614 -0.1300
11658TIP3    H156465   2.374   4.055  11.353  0.3860  0.0233 -0.0710
11658TIP3    H256466   2.336   3.983  11.225 -0.1651 -1.3057  0.8165
11659TIP3   OH256467   6.829   4.693   5.563 -0.2491  0.7253 -0.0123
11659TIP3    H156468   6.919   4.681   5.595 -0.2415 -0.0197 -0.2976
11659TIP3    H256469   6.834   4.674   5.469 -1.2198 -2.2336  0.4281
11660TIP3   OH256470   0.674   6.448   4.796 -0.1600 -0.5240 -0.3834
11660TIP3    H156471   0.751   6.501   4.816  0.9139 -1.7647 -1.0692
11660TIP3    H256472   0.606   6.512   4.774  1.2743  0.5761 -1.8817
11661TIP3   OH256473   5.867   5.534   3.643  0.2253 -0.4250 -0.2292
11661TIP3    H156474   5.959   5.546   3.664  0.3111  1.0869 -1.3189
11661TIP3    H256475   5.866   5.509   3.551 -0.4856  0.3030 -0.4292
11662TIP3   OH256476   3.179   2.153   4.238 -0.3803  0.3925 -0.0457
11662TIP3    H156477   3.256   2.134   4.185  1.5304  0.6878  2.4275
11662TIP3    H256478   3.143   2.066   4.260  0.0970  0.1904 -0.0504
11663TIP3   OH256479   6.518   5.995   1.700  0.1583  0.3454 -0.5282
11663TIP3    H156480   6.558   5.967   1.617  0.0699  1.4075 -0.9460
11663TIP3    H256481   6.593   6.014   1.756  0.2212 -0.7029 -0.2308
11664TIP3   OH256482   0.312   5.172   2.863  0.0041 -0.4482  0.0670
11664TIP3    H156483   0.352   5.172   2.950  0.3106 -1.6541 -0.0521
11664TIP3    H256484   0.251   5.098   2.865 -1.1654  0.4826 -0.2363
11665TIP3   OH256485   3.227   2.555  12.943  0.1691 -0.1097 -0.4177
11665TIP3    H156486   3.177   2.523  13.018  0.0136 -1.7402 -1.1641
11665TIP3    H256487   3.160   2.579  12.878  0.3087 -0.9825 -0.9036
11666TIP3   OH256488   2.981   4.571   3.479  0.3354  0.3879 -0.7550
11666TIP3    H156489   2.981   4.608   3.567 -0.7391  0.2877 -0.6982
11666TIP3    H256490   3.073   4.571   3.453  0.8472 -0.8596  0.8993
11667TIP3   OH256491   1.620   5.891  13.980  0.6660 -0.1438 -0.1205
11667TIP3    H156492   1.601   5.982  13.956 -0.3451 -0.3127 -0.0098
11667TIP3    H256493   1.613   5.889  14.075 -1.4692 -0.7609 -0.2352
11668TIP3   OH256494   4.596   6.163  17.116  0.1854 -0.1411  0.2149
11668TIP3    H156495   4.582   6.083  17.065  0.2978 -0.2027  0.2800
11668TIP3    H256496   4.670   6.143  17.173 -0.3532 -0.3137  0.8835
11669TIP3   OH256497   1.813   4.517  14.144  0.1120  0.3594 -0.3784
11669TIP3    H156498   1.838   4.606  14.169  0.3035  0.2987 -0.3506
11669TIP3    H256499   1.752   4.528  14.071 -0.0157  0.5193 -0.2448
11670TIP3   OH256500   0.954   3.923   2.208 -0.2219  0.0275  0.2627
11670TIP3    H156501   0.985   3.836   2.233 -2.1088 -0.9813 -0.6723
11670TIP3    H256502   0.997   3.983   2.269 -0.1400 -1.7076  1.9937
11671TIP3   OH256503   3.589   3.594   3.346 -0.0385  0.5373 -0.5090
11671TIP3    H156504   3.535   3.575   3.269  0.7919 -0.8031 -0.7859
11671TIP3    H256505   3.587   3.690   3.353 -1.8812  0.5661 -0.8914
11672TIP3   OH256506   6.460   5.555   1.901 -0.4395 -0.3884  0.1229
11672TIP3    H156507   6.555   5.568   1.896 -0.1122 -2.5314 -0.2749
11672TIP3    H256508   6.423   5.640   1.877  1.3727 -0.0090 -1.5991
11673TIP3   OH256509   1.406   1.542  16.323  0.5983 -0.5566  0.2624
11673TIP3    H156510   1.392   1.636  16.333  1.2089 -0.3025 -1.0758
11673TIP3    H256511   1.401   1.507  16.412 -1.7998  0.4099  0.5803
11674TIP3   OH256512   3.810   2.626  17.067 -0.1647 -0.0150 -0.1404
11674TIP3    H156513   3.856   2.542  17.062 -1.8447 -1.1920  2.2685
11674TIP3    H256514   3.781   2.643  16.977 -0.7647 -2.6425 -0.5219
11675TIP3   OH256515   5.109   3.767   3.665  0.2423  0.0263  0.1552
11675TIP3    H156516   5.038   3.796   3.722  1.4781  2.4562  0.5974
11675TIP3    H256517   5.182   3.748   3.724  1.1186  1.2713 -0.4747
11676TIP3   OH256518   1.140   5.948   3.674  0.2170  0.4573  0.1141
11676TIP3    H156519   1.060   5.959   3.623 -0.0496  1.5490  0.7416
11676TIP3    H256520   1.160   5.855   3.667 -1.5573 -0.0071  0.6039
11677TIP3   OH256521   5.762   5.944  14.495 -0.4714  0.3786 -0.2452
11677TIP3    H156522   5.734   5.940  14.587  1.7020  1.2155  0.5153
11677TIP3    H256523   5.784   5.854  14.473 -0.6603  0.2277  0.1639
11678TIP3   OH256524   5.182   5.461   1.885 -0.0275 -0.0119 -0.4019
11678TIP3    H156525   5.259   5.509   1.914  1.2125 -2.7072  1.1026
11678TIP3    H256526   5.119   5.471   1.957 -0.3764  0.5878 -0.7788
11679TIP3   OH256527   0.368   1.273  15.772  0.1885 -0.1594  0.6303
11679TIP3    H156528   0.450   1.249  15.729 -0.2298 -1.4882  0.5418
11679TIP3    H256529   0.319   1.191  15.779 -2.5585  1.0026 -2.3186
11680TIP3   OH256530   4.667   3.433   1.524 -0.3794  0.0110  0.1619
11680TIP3    H156531   4.656   3.345   1.487  1.0933 -0.7803  1.4366
11680TIP3    H256532   4.616   3.431   1.605 -0.6309  0.4628  0.0164
11681TIP3   OH256533   6.460   5.844   2.696  0.0359 -0.2231 -0.2465
11681TIP3    H156534   6.389   5.802   2.744  0.8407 -0.8645  0.4192
11681TIP3    H256535   6.538   5.824   2.747  0.4764  2.0206  0.0342
11682TIP3   OH256536   1.284   4.761  15.703 -0.1203 -0.8320  0.1531
11682TIP3    H156537   1.364   4.781  15.752  1.3906 -2.2060 -1.6281
11682TIP3    H256538   1.244   4.846  15.686  0.5981 -0.1629  1.6249
11683TIP3   OH256539   2.785   2.485  16.283 -0.1016 -0.0325  0.2134
11683TIP3    H156540   2.738   2.498  16.365  2.6952  1.1874  1.7602
11683TIP3    H256541   2.778   2.391  16.267 -1.9871 -0.0687  0.9838
11684TIP3   OH256542   5.114   5.084   1.923 -0.4771  0.2341  0.5321
11684TIP3    H156543   5.093   5.026   1.997  1.6968  0.3482  1.3144
11684TIP3    H256544   5.048   5.063   1.857 -2.2227 -0.2077  2.3029
11685TIP3   OH256545   0.054   2.812  10.835  0.0414 -0.1137 -0.3842
11685TIP3    H156546   0.013   2.751  10.773  0.7073 -0.1605 -0.7934
11685TIP3    H256547   0.002   2.892  10.827 -2.8227 -1.4879  2.4210
11686TIP3   OH256548   6.278   6.095   1.744  0.0405 -0.2535 -0.1021
11686TIP3    H156549   6.252   6.079   1.653 -1.3034 -0.6392  0.3275
11686TIP3    H256550   6.368   6.061   1.749 -0.4205 -1.6990 -0.8990
11687TIP3   OH256551   5.188   1.424  11.295 -0.8096  0.6187 -0.1755
11687TIP3    H156552   5.217   1.448  11.207  0.3987 -0.7760 -0.1952
11687TIP3    H256553   5.161   1.332  11.287 -0.1120  0.2901  1.0248
11688TIP3   OH256554   4.057   4.873   4.179 -0.9925 -0.0307  0.0276
11688TIP3    H156555   4.044   4.924   4.259  0.3486 -1.3052  1.1260
11688TIP3    H256556   4.143   4.833   4.190 -1.0745 -0.7869 -1.7598
11689TIP3   OH256557   4.185   4.612   4.295  0.0409  0.0526 -0.0713
11689TIP3    H156558   4.151   4.528   4.326 -1.2057 -0.3950 -2.4748
11689TIP3    H256559   4.225   4.593   4.211  1.2476  1.6136  0.0963
11690TIP3   OH256560   2.525   0.409  16.530 -0.4374 -0.2830 -0.0695
11690TIP3    H156561   2.438   0.369  16.539 -0.4052 -1.0025 -2.3669
11690TIP3    H256562   2.569   0.387  16.612 -1.5859 -2.0976  0.1328
11691TIP3   OH256563   2.359   0.160   4.177 -0.2846 -0.1394 -0.1229
11691TIP3    H156564   2.268   0.134   4.187 -0.6319  1.1645  0.2335
11691TIP3    H256565   2.364   0.202   4.091 -0.0879  0.0571 -0.0185
11692TIP3   OH256566   2.642   2.372  15.725  0.0318 -0.1071  0.5436
11692TIP3    H156567   2.728   2.369  15.766  0.6725  3.6615 -0.1128
11692TIP3    H256568   2.584   2.404  15.794  0.1206  1.5485 -0.1012
11693TIP3   OH256569   1.022   1.931   2.116  0.8367  0.2991 -0.5098
11693TIP3    H156570   0.962   1.881   2.172 -2.6629  2.3661 -2.0725
11693TIP3    H256571   1.018   1.886   2.032  1.4472  0.5246 -0.6617
11694TIP3   OH256572   1.471   1.864   4.038 -0.4478  0.1545  0.1156
11694TIP3    H156573   1.443   1.774   4.024 -3.9548  0.9057  1.2342
11694TIP3    H256574   1.446   1.910   3.958  2.7073  0.0271 -1.1048
11695TIP3   OH256575   4.311   2.298   1.188 -0.2871 -0.4941  0.3583
11695TIP3    H156576   4.250   2.298   1.114 -0.4682 -1.0052  0.5054
11695TIP3    H256577   4.396   2.279   1.148 -0.3076 -0.3108  0.2233
11696TIP3   OH256578   6.006   6.313   2.924  0.1155 -0.1127  0.3731
11696TIP3    H156579   5.972   6.255   2.993  0.8035 -2.3499 -1.0855
11696TIP3    H256580   5.928   6.347   2.881 -0.3094  0.6898  1.6962
11697TIP3   OH256581   1.553   3.343   3.689  0.2441 -0.0110  0.3980
11697TIP3    H156582   1.590   3.258   3.666 -0.3606 -0.3611  0.7198
11697TIP3    H256583   1.531   3.383   3.605 -0.8324 -0.7832  0.2996
11698TIP3   OH256584   4.714   1.051   0.450  0.1050 -0.3526 -0.2266
11698TIP3    H156585   4.657   1.072   0.525  0.7859 -1.1843  0.5523
11698TIP3    H256586   4.803   1.051   0.487  0.3974 -1.4029 -0.8837
11699TIP3   OH256587   6.278   6.815   5.313 -0.1105 -0.3190  0.0543
11699TIP3    H156588   6.269   6.737   5.368  2.3218  0.2696  1.4517
11699TIP3    H256589   6.371   6.816   5.290 -0.5418  1.0006 -1.7807
11700TIP3   OH256590   2.176   3.435   1.763 -0.3237  0.0908 -0.5277
11700TIP3    H156591   2.185   3.374   1.837 -0.8080  0.5426 -0.0963
11700TIP3    H256592   2.191   3.521   1.801 -0.8340  0.3509 -0.9109
11701TIP3   OH256593   3.726   3.438   3.791  0.2504 -0.1669 -0.5891
11701TIP3    H156594   3.658   3.469   3.731  0.8895 -3.2242 -3.1631
11701TIP3    H256595   3.805   3.483   3.763  0.0125  0.5917 -0.0675
11702TIP3   OH256596   3.516   2.974  14.677  0.3779  0.0761 -0.2588
11702TIP3    H156597   3.444   2.964  14.739 -0.5612  0.7913 -1.1920
11702TIP3    H256598   3.506   3.063  14.643  0.9913 -0.2283 -1.2818
11703TIP3   OH256599   1.305   5.657  13.831  0.5298  0.0323 -0.0888
11703TIP3    H156600   1.384   5.604  13.830 -0.0921 -0.9275 -0.6697
11703TIP3    H256601   1.336   5.747  13.825  1.5963 -0.2943  0.3270
11704TIP3   OH256602   1.479   0.944  17.125  0.3219  0.1484 -0.1827
11704TIP3    H156603   1.403   0.953  17.183  0.5017 -0.8000  0.2142
11704TIP3    H256604   1.443   0.947  17.037  0.0403  1.5911 -0.0441
11705TIP3   OH256605   4.269   1.598   2.681  0.1286  0.0865  0.1497
11705TIP3    H156606   4.259   1.505   2.700  0.5345 -0.2913 -1.3594
11705TIP3    H256607   4.180   1.631   2.677 -0.3295 -1.1968 -3.5870
11706TIP3   OH256608   5.547   0.061  15.046  0.1933 -0.4943  0.0006
11706TIP3    H156609   5.464   0.108  15.042  0.1391 -0.3457  1.8494
11706TIP3    H256610   5.529  -0.014  15.102  1.7890  0.7278  2.3320
11707TIP3   OH256611   2.995   6.088   2.353  0.0734 -0.3758  0.6048
11707TIP3    H156612   3.067   6.069   2.413  0.3308  1.0203  0.7694
11707TIP3    H256613   3.005   6.025   2.282  2.4803  0.8598 -0.2351
11708TIP3   OH256614   2.226   6.307  15.914  0.1002 -0.1201  0.0151
11708TIP3    H156615   2.265   6.294  15.828 -0.4350 -1.2122 -0.0799
11708TIP3    H256616   2.192   6.221  15.938  0.2367  0.1707  1.3167
11709TIP3   OH256617   2.004   4.053   0.979 -0.1860  0.2352 -0.5987
11709TIP3    H156618   2.015   4.046   0.884  0.1566 -1.5902 -0.4550
11709TIP3    H256619   1.922   4.101   0.991 -0.4462  0.1085 -1.8106
11710TIP3   OH256620   2.788   3.366   0.104 -1.1465  0.6349 -0.2818
11710TIP3    H156621   2.746   3.281   0.115  1.3314 -0.6193  0.2805
11710TIP3    H256622   2.875   3.355   0.141  0.2561  2.6088 -2.6419
11711TIP3   OH256623   0.166   2.973  11.928  0.0368  1.1456 -0.8800
11711TIP3    H156624   0.087   2.967  11.981  0.1354  2.9340 -0.4849
11711TIP3    H256625   0.134   2.981  11.838 -0.1354 -1.4004 -1.1265
11712TIP3   OH256626   4.957   4.589   4.396 -0.0745  0.1977  0.4212
11712TIP3    H156627   4.951   4.546   4.481 -0.7133 -1.1148 -0.2455
11712TIP3    H256628   4.968   4.517   4.333  0.6767  1.1491 -0.5865
11713TIP3   OH256629   4.728   6.468   5.747 -0.1759 -0.0941 -0.2415
11713TIP3    H156630   4.691   6.553   5.722  1.1667  0.4256 -0.5294
11713TIP3    H256631   4.679   6.443   5.826 -0.9842  0.6563 -0.4921
11714TIP3   OH256632   5.138   2.833  14.790 -0.0918 -0.2857 -0.7017
11714TIP3    H156633   5.230   2.810  14.777  0.2311  1.0012 -0.9069
11714TIP3    H256634   5.095   2.806  14.708  0.1856 -0.4918 -0.7821
11715TIP3   OH256635   0.565   3.919   4.421  0.0050  0.1679 -0.4217
11715TIP3    H156636   0.475   3.891   4.402  0.2624 -0.5865 -0.5390
11715TIP3    H256637   0.556   4.012   4.442 -0.6894  0.3015 -1.2456
11716TIP3   OH256638   3.366   3.350  13.866 -0.0543 -0.1032  0.2052
11716TIP3    H156639   3.282   3.307  13.846  0.6450 -1.7348  0.5821
11716TIP3    H256640   3.431   3.298  13.820  0.9297 -0.0437  1.4703
11717TIP3   OH256641   3.664   3.111  12.179 -0.0435 -0.2290  0.2884
11717TIP3    H156642   3.588   3.163  12.203 -0.4641 -0.3390 -0.7457
11717TIP3    H256643   3.667   3.041  12.243 -0.2744  0.2913  0.8756
11718TIP3   OH256644   4.857   1.645   1.833  0.2919  0.4058 -1.2405
11718TIP3    H156645   4.936   1.688   1.867  0.2498  0.0843 -0.7204
11718TIP3    H256646   4.881   1.619   1.744  1.5179 -1.5015 -0.4345
11719TIP3   OH256647   3.307   2.080   0.843  0.5466  0.3222 -0.0399
11719TIP3    H156648   3.371   2.020   0.805 -0.0272 -1.1034  1.1232
11719TIP3    H256649   3.272   2.032   0.919 -1.7533  1.1229 -0.5209
11720TIP3   OH256650   5.946   1.550   2.389 -0.2922  0.1819 -0.5607
11720TIP3    H156651   6.021   1.491   2.381 -0.6422 -0.3568  0.0301
11720TIP3    H256652   5.941   1.594   2.304  0.7341  0.2814 -0.5861
11721TIP3   OH256653   5.857   3.642  11.241 -0.4773 -0.0453 -0.1193
11721TIP3    H156654   5.941   3.667  11.278 -1.1828  1.3598  0.6328
11721TIP3    H256655   5.793   3.667  11.308 -1.5333 -0.6220 -0.8829
11722TIP3   OH256656   1.815   6.587  14.369 -0.5931 -0.7010 -0.7861
11722TIP3    H156657   1.815   6.492  14.357 -0.0550 -0.8098  0.0330
11722TIP3    H256658   1.764   6.620  14.295  0.3239 -1.5315 -1.8249
11723TIP3   OH256659   1.551   6.314   3.576  0.2923  0.0624  0.3250
11723TIP3    H156660   1.629   6.287   3.528  0.9222  1.3215  0.6050
11723TIP3    H256661   1.482   6.254   3.546  0.4984  1.1700 -2.5793
11724TIP3   OH256662   3.458   6.821   6.375  0.3249  0.1816 -0.3155
11724TIP3    H156663   3.538   6.860   6.409 -0.0915  2.1010 -1.3907
11724TIP3    H256664   3.407   6.800   6.453  1.3197  0.1431  0.3454
11725TIP3   OH256665   0.258   2.106  15.076  0.0590 -0.0044 -0.0112
11725TIP3    H156666   0.288   2.096  14.986  0.4929 -2.9548  0.3838
11725TIP3    H256667   0.177   2.057  15.081 -1.3069  2.1665  0.6798
11726TIP3   OH256668   6.014   2.188   6.249 -0.2188 -0.0904  0.2510
11726TIP3    H156669   5.992   2.124   6.317  0.2165  0.4340  0.9040
11726TIP3    H256670   6.110   2.188   6.246 -0.2314 -0.0371 -0.3040
11727TIP3   OH256671   0.794   1.664  11.329  0.0640 -0.1700  0.1747
11727TIP3    H156672   0.813   1.669  11.235  0.5866 -2.3718  0.1006
11727TIP3    H256673   0.729   1.595  11.336  1.5443 -1.5069  1.5931
11728TIP3   OH256674   1.563   4.854  16.215 -0.2943  0.4399  0.6123
11728TIP3    H156675   1.553   4.778  16.158  0.3850 -0.2938  1.4532
11728TIP3    H256676   1.621   4.913  16.166 -0.1266  0.0457  0.3332
11729TIP3   OH256677   5.730   2.846   4.839 -0.3053  0.1150 -0.3579
11729TIP3    H156678   5.767   2.775   4.787  0.0273  0.4893 -0.6317
11729TIP3    H256679   5.703   2.804   4.921  1.2946 -0.0525  0.1052
11730TIP3   OH256680   3.752   2.915  11.393 -1.0526 -0.0752 -0.2532
11730TIP3    H156681   3.724   3.004  11.411 -1.8399 -0.6894  2.0020
11730TIP3    H256682   3.677   2.861  11.419 -0.0181 -1.4561 -0.0087
11731TIP3   OH256683   1.413   1.194   4.772 -0.0518  0.4033 -0.1392
11731TIP3    H156684   1.405   1.277   4.727 -0.6090 -1.0534 -2.9355
11731TIP3    H256685   1.325   1.176   4.806  0.3666  1.4958  1.6313
11732TIP3   OH256686   4.833   1.421  16.520  0.1346 -0.5514 -0.0012
11732TIP3    H156687   4.773   1.456  16.454 -1.7875  0.7799  2.2780
11732TIP3    H256688   4.912   1.399  16.472 -0.0742  3.0125 -2.3527
11733TIP3   OH256689   4.778   6.219   3.449  0.0719  0.2632 -0.0137
11733TIP3    H156690   4.691   6.257   3.463 -0.1090 -0.4578  0.8819
11733TIP3    H256691   4.838   6.283   3.488 -0.3885 -1.4705  4.0090
11734TIP3   OH256692   4.985   5.532  11.835 -0.1643 -0.1960 -0.2021
11734TIP3    H156693   5.003   5.466  11.902 -1.1010  1.9363  2.3229
11734TIP3    H256694   5.062   5.590  11.838 -0.0040 -0.3295 -1.3608
11735TIP3   OH256695   1.764   5.466   2.877 -0.2908  0.5321 -0.2169
11735TIP3    H156696   1.857   5.487   2.868  0.2653 -1.0359  1.2659
11735TIP3    H256697   1.733   5.524   2.946  0.3028 -0.7883  1.2111
11736TIP3   OH256698   1.539   0.696   0.461 -0.3332 -0.2105 -0.0659
11736TIP3    H156699   1.451   0.699   0.423 -0.5282  0.3842  0.4132
11736TIP3    H256700   1.543   0.772   0.519  0.7829  0.2289 -0.6930
11737TIP3   OH256701   5.745   0.465  12.788  0.0140 -0.7126 -0.2330
11737TIP3    H156702   5.706   0.391  12.836 -2.1131 -0.9504 -2.1307
11737TIP3    H256703   5.818   0.427  12.740 -0.2343 -1.2880 -0.1619
11738TIP3   OH256704   4.827   4.306   1.535 -0.3120  0.1662 -0.0595
11738TIP3    H156705   4.821   4.360   1.456 -0.1819 -0.8104 -0.7532
11738TIP3    H256706   4.740   4.311   1.575  0.0787  1.9970  0.6520
11739TIP3   OH256707   3.062   6.043   5.588 -0.6228 -0.5753 -0.1382
11739TIP3    H156708   3.013   5.981   5.641 -1.4397  1.9289  2.2612
11739TIP3    H256709   3.012   6.051   5.507 -1.0246 -2.2199 -0.0841
11740TIP3   OH256710   0.432   2.082   2.179 -0.4333  0.0980 -0.0574
11740TIP3    H156711   0.402   2.141   2.109 -0.2809  0.0936 -0.1276
11740TIP3    H256712   0.526   2.077   2.166 -0.3800  0.2447  0.2669
11741TIP3   OH256713   1.762   5.231   5.270  0.1058  0.4338  0.3383
11741TIP3    H156714   1.810   5.311   5.292  0.7502  0.9502 -2.5468
11741TIP3    H256715   1.730   5.246   5.181  0.7079 -2.7289 -0.5244
11742TIP3   OH256716   6.499   6.527  15.224 -0.8583  0.2384  0.5535
11742TIP3    H156717   6.481   6.620  15.241 -2.2576  0.2172 -0.6055
11742TIP3    H256718   6.588   6.526  15.188 -1.0836  1.2127 -0.0715
11743TIP3   OH256719   6.140   4.730   4.425  0.2269  0.8108  0.3674
11743TIP3    H156720   6.221   4.681   4.436  0.2126  0.2642 -1.6275
11743TIP3    H256721   6.160   4.818   4.458  1.5440  0.5977  0.1710
11744TIP3   OH256722   0.981   0.203  14.020  0.5702 -0.7011 -0.0341
11744TIP3    H156723   0.964   0.278  14.077  1.2372 -0.0667 -0.6398
11744TIP3    H256724   0.930   0.131  14.058  0.2656 -0.0551  0.8077
11745TIP3   OH256725   2.865   4.769  16.832 -0.1598 -0.3227 -0.1880
11745TIP3    H156726   2.796   4.802  16.773 -1.1038 -1.2445  0.3723
11745TIP3    H256727   2.821   4.703  16.885  0.6258  0.5570  1.6514
11746TIP3   OH256728   5.217   1.239  15.534  0.1732 -0.4309  0.0324
11746TIP3    H156729   5.296   1.287  15.509 -0.5382  0.0803 -1.2877
11746TIP3    H256730   5.171   1.298  15.593  0.9777 -0.9177  1.1862
11747TIP3   OH256731   3.389   2.612  15.310  0.2886 -0.7157 -0.4124
11747TIP3    H156732   3.407   2.595  15.402 -1.3387 -1.6558 -0.2141
11747TIP3    H256733   3.386   2.708  15.303 -1.7313 -0.5918  1.0421
11748TIP3   OH256734   3.786   5.542  11.558 -0.2897 -0.1350 -0.5343
11748TIP3    H156735   3.727   5.508  11.626  0.8896 -1.0876  0.0574
11748TIP3    H256736   3.838   5.609  11.603  0.5682 -0.8455 -0.4435
11749TIP3   OH256737   4.463   3.478   0.371  0.7905 -0.4738  0.4257
11749TIP3    H156738   4.398   3.510   0.309  2.5037  0.4224 -1.0036
11749TIP3    H256739   4.536   3.540   0.364  1.7156 -1.2742  2.1562
11750TIP3   OH256740   3.839   2.002   2.166  0.4686  0.3975 -0.2283
11750TIP3    H156741   3.917   2.020   2.218  0.2410 -1.3892  0.8061
11750TIP3    H256742   3.787   2.083   2.171  2.5926  1.9684 -1.7121
11751TIP3   OH256743   0.073   1.219   4.034  0.4009 -0.3330  0.5642
11751TIP3    H156744   0.129   1.282   4.079  2.7249 -1.7549 -0.1260
11751TIP3    H256745   0.006   1.196   4.098  0.1864  1.8849  1.2264
11752TIP3   OH256746   6.808   5.534   4.192  0.3833 -0.7134 -0.4675
11752TIP3    H156747   6.771   5.555   4.277  0.1563 -2.4252 -0.1108
11752TIP3    H256748   6.765   5.594   4.131 -0.3339 -0.2833  0.4450
11753TIP3   OH256749   0.735   3.485   0.831  0.4677 -0.2741  0.1280
11753TIP3    H156750   0.653   3.450   0.864  0.5412  0.4674  1.1334
11753TIP3    H256751   0.788   3.502   0.909  0.7432  1.2692 -0.3476
11754TIP3   OH256752   3.234   3.899  16.800 -0.0594  0.3309 -0.3277
11754TIP3    H156753   3.279   3.833  16.747  1.3386  0.7748  0.2463
11754TIP3    H256754   3.225   3.975  16.742  1.3572  0.7736 -0.0133
11755TIP3   OH256755   0.078   3.413   2.610 -0.2729  0.5503  0.2931
11755TIP3    H156756  -0.012   3.424   2.640 -0.4650  1.2805 -0.4840
11755TIP3    H256757   0.070   3.355   2.533  0.3965 -2.7775  2.5285
11756TIP3   OH256758   3.269   4.618   0.489 -0.4395  0.2627 -0.3198
11756TIP3    H156759   3.239   4.608   0.580 -1.0791  0.0868 -0.5478
11756TIP3    H256760   3.194   4.592   0.436 -0.9815  2.7221 -0.9207
11757TIP3   OH256761   0.727   2.219  15.152 -0.6947 -0.0665  0.2471
11757TIP3    H156762   0.686   2.133  15.155 -0.8393 -0.0517 -0.9182
11757TIP3    H256763   0.717   2.247  15.062 -0.6258  1.1734  0.6097
11758TIP3   OH256764   1.418   6.477  12.700 -0.1797 -0.0673 -0.5159
11758TIP3    H156765   1.338   6.526  12.718 -0.0310  0.3047 -0.8606
11758TIP3    H256766   1.483   6.544  12.679  0.2291 -0.3653 -0.2166
11759TIP3   OH256767   0.143   1.258  17.067 -0.3139  0.3553 -0.1961
11759TIP3    H156768   0.079   1.192  17.093 -1.8962  1.3349 -1.3804
11759TIP3    H256769   0.205   1.211  17.011  0.2432 -0.6798  1.2366
11760TIP3   OH256770   3.028   0.132   0.116  0.4839 -0.6840  0.0297
11760TIP3    H156771   3.110   0.181   0.115 -0.0451  0.2585  0.5706
11760TIP3    H256772   3.013   0.107   0.024  0.1072  1.3681 -0.5261
11761TIP3   OH256773   1.523   1.588  12.760  0.3036 -0.1094  0.1428
11761TIP3    H156774   1.438   1.620  12.729  0.6389  0.1841 -0.4887
11761TIP3    H256775   1.516   1.591  12.855  0.3698  2.0775  0.1414
11762TIP3   OH256776   3.335   3.021   1.485 -0.0603  0.0577 -0.0758
11762TIP3    H156777   3.326   3.114   1.462  2.4343  0.9017  1.8916
11762TIP3    H256778   3.412   3.018   1.542 -1.3407 -2.9212  1.7175
11763TIP3   OH256779   5.997   0.397   5.791 -0.1315  0.5602  0.3478
11763TIP3    H156780   6.032   0.309   5.777  0.9435  0.9388  0.5584
11763TIP3    H256781   6.033   0.424   5.876 -0.9622  0.9688  0.5869
11764TIP3   OH256782   2.701   0.681  16.166  0.1426 -0.2786  0.5779
11764TIP3    H156783   2.737   0.663  16.080  0.7164 -1.3271  1.0161
11764TIP3    H256784   2.654   0.601  16.190  0.0388 -0.0279  1.2555
11765TIP3   OH256785   6.166   4.475  14.948 -0.0813  0.0016  0.1702
11765TIP3    H156786   6.257   4.505  14.940 -0.0797 -0.1397 -0.3961
11765TIP3    H256787   6.168   4.385  14.915  0.1852 -1.1965  3.1389
11766TIP3   OH256788   4.863   1.917   5.264  0.2397  0.0840  0.3747
11766TIP3    H156789   4.907   1.990   5.308  0.6772 -0.9522  1.7013
11766TIP3    H256790   4.843   1.855   5.333  1.3819 -1.8210 -0.9123
11767TIP3   OH256791   2.375   0.956   4.423 -0.0179 -0.1152 -0.6105
11767TIP3    H156792   2.454   0.923   4.465 -1.2983  0.8896  2.8949
11767TIP3    H256793   2.390   1.050   4.414 -0.9132  0.1516  0.4698
11768TIP3   OH256794   6.136   2.830   2.521  0.0918  0.1856  0.1262
11768TIP3    H156795   6.180   2.749   2.547 -0.6491  0.1392  1.2961
11768TIP3    H256796   6.206   2.895   2.518  0.3797 -0.0337  1.3247
11769TIP3   OH256797   1.700   4.981   4.611  0.3528  0.6170  0.3059
11769TIP3    H156798   1.770   4.918   4.625 -0.7447 -0.4852  1.0622
11769TIP3    H256799   1.633   4.932   4.563  0.6858  2.0808 -1.8423
11770TIP3   OH256800   4.494   4.978  14.334  0.2645 -0.4333  0.3416
11770TIP3    H156801   4.467   5.024  14.254  0.0001  0.4187  0.9069
11770TIP3    H256802   4.585   5.004  14.347  0.4143 -0.8460  0.1358
11771TIP3   OH256803   4.395   2.438  16.924  0.2270  0.1285 -0.0538
11771TIP3    H156804   4.410   2.364  16.865  1.0091  0.3353 -0.1187
11771TIP3    H256805   4.364   2.399  17.005 -0.2118 -0.2055 -0.3787
11772TIP3   OH256806   5.756   3.608  13.597 -0.1570  0.2055 -0.4832
11772TIP3    H156807   5.837   3.660  13.605 -0.3274  0.3193  0.8559
11772TIP3    H256808   5.728   3.596  13.688 -0.8335 -1.1258 -0.8556
11773TIP3   OH256809   4.798   4.341  17.105 -0.4171  0.8815  0.3915
11773TIP3    H156810   4.870   4.279  17.100  0.0886  1.4709  0.1295
11773TIP3    H256811   4.773   4.341  17.198  1.6281  2.5172  1.0434
11774TIP3   OH256812   4.260   3.688   2.713  0.0070  0.2797  0.1468
11774TIP3    H156813   4.178   3.639   2.706  0.2058 -0.0261 -0.0692
11774TIP3    H256814   4.236   3.778   2.690  0.1662 -0.2280 -2.2244
11775TIP3   OH256815   2.195   2.209   2.631  0.2510 -0.2309 -0.2691
11775TIP3    H156816   2.170   2.184   2.720  1.1257 -3.0774 -0.7420
11775TIP3    H256817   2.150   2.293   2.617 -0.6208 -0.1243  2.5029
11776TIP3   OH256818   4.449   5.089   5.091  0.3759  0.2333 -0.2100
11776TIP3    H156819   4.451   5.156   5.023  1.6060  0.1968 -0.2259
11776TIP3    H256820   4.521   5.111   5.150  0.1163 -0.4606  0.3882
11777TIP3   OH256821   1.912   5.235   2.179  0.6082  0.5456 -0.4331
11777TIP3    H156822   1.960   5.291   2.118  1.1350 -0.5313 -1.0251
11777TIP3    H256823   1.856   5.296   2.228  1.8963  1.7260 -0.3495
11778TIP3   OH256824   1.000   2.942  10.460 -0.0629 -0.2929  0.4077
11778TIP3    H156825   1.012   2.909  10.371  0.3156  0.2990  0.2312
11778TIP3    H256826   0.917   2.904  10.489  0.0326 -0.8560 -0.0255
11779TIP3   OH256827   3.782   4.281   4.464 -0.2458 -0.4557  0.0369
11779TIP3    H156828   3.732   4.362   4.469  0.8403  0.3412 -1.3793
11779TIP3    H256829   3.723   4.219   4.420 -0.9484 -0.3362  0.8029
11780TIP3   OH256830   6.546   2.129  16.092 -0.7540  0.1268 -0.1017
11780TIP3    H156831   6.549   2.130  15.996 -2.3584 -0.7692 -0.1863
11780TIP3    H256832   6.486   2.057  16.113 -0.0830  0.0311  1.5925
11781TIP3   OH256833   3.716   3.576  14.546  0.1022 -0.4409  0.6046
11781TIP3    H156834   3.810   3.590  14.557  0.2339 -0.8633  0.0029
11781TIP3    H256835   3.706   3.549  14.455 -0.8028  1.4046  0.1047
11782TIP3   OH256836   6.015   3.175  15.457  0.0984  0.7898 -0.5189
11782TIP3    H156837   6.071   3.197  15.382 -0.5627 -0.3859 -1.4080
11782TIP3    H256838   5.966   3.098  15.427  0.5645 -0.3476  1.5079
11783TIP3   OH256839   5.799   6.804  13.852 -0.2184 -0.5844  0.3871
11783TIP3    H156840   5.821   6.806  13.945  0.8604  0.1284  0.1379
11783TIP3    H256841   5.703   6.806  13.849 -0.2453  0.4576  1.4537
11784TIP3   OH256842   0.310   0.286  15.781  0.3358 -0.2102  0.0624
11784TIP3    H156843   0.282   0.221  15.846  1.6185  0.0449  0.9098
11784TIP3    H256844   0.330   0.234  15.703  1.1407 -0.8195  0.6594
11785TIP3   OH256845   3.640   6.028   3.433  0.1467  1.0407  0.0197
11785TIP3    H156846   3.735   6.038   3.421  0.3067  0.2505  0.5278
11785TIP3    H256847   3.632   5.960   3.499 -0.7820  1.2618  0.1422
11786TIP3   OH256848   2.261   0.678  14.694 -0.4522  0.3846 -0.0873
11786TIP3    H156849   2.342   0.661  14.646 -0.7545  0.6941 -0.7309
11786TIP3    H256850   2.256   0.774  14.699  0.1112  0.3473  1.5208
11787TIP3   OH256851   1.176   2.039  15.983 -0.0808 -0.0761  0.1599
11787TIP3    H156852   1.192   2.117  16.035 -1.1979 -0.0266  0.4629
11787TIP3    H256853   1.160   2.071  15.895  1.2922 -0.1212 -0.1296
11788TIP3   OH256854   6.716   2.045   0.859 -0.1660  0.4565 -0.6024
11788TIP3    H156855   6.665   2.024   0.937  0.5983  0.7287 -0.0078
11788TIP3    H256856   6.689   2.133   0.835  1.4137  1.4081  0.9032
11789TIP3   OH256857   4.998   1.040  15.493  0.2905 -0.3828 -0.0639
11789TIP3    H156858   5.062   1.111  15.490 -1.1027  1.0851  1.8973
11789TIP3    H256859   4.965   1.032  15.404  0.6720  1.2744 -0.3774
11790TIP3   OH256860   4.119   0.171   5.202 -0.7569  0.0724 -0.2335
11790TIP3    H156861   4.165   0.250   5.174 -0.8362  1.0992  2.2485
11790TIP3    H256862   4.043   0.204   5.250 -1.8356 -1.5524 -0.7696
11791TIP3   OH256863   3.583   5.301  10.904  0.1002  0.3270 -0.2260
11791TIP3    H156864   3.557   5.211  10.922  1.5160  0.2342  1.6950
11791TIP3    H256865   3.655   5.294  10.842 -2.8106  0.4936 -3.9983
11792TIP3   OH256866   0.408   2.843  14.840  0.0514 -0.2829 -0.2262
11792TIP3    H156867   0.407   2.908  14.770 -0.0077 -0.9966 -0.9066
11792TIP3    H256868   0.431   2.761  14.797  1.5012 -0.4776  0.8456
11793TIP3   OH256869   5.540   6.590   0.716 -0.2298 -0.0062 -0.0569
11793TIP3    H156870   5.624   6.588   0.762 -0.6363 -0.6452  0.6874
11793TIP3    H256871   5.541   6.672   0.666  0.9282 -0.1252 -0.2511
11794TIP3   OH256872   4.110   6.805  15.528  0.7273 -0.0058 -0.1985
11794TIP3    H156873   4.153   6.885  15.496 -0.7353  0.4651 -1.0973
11794TIP3    H256874   4.068   6.831  15.610  1.4412 -0.2526  0.2568
11795TIP3   OH256875   2.280   1.579  15.504 -0.5896 -0.3067 -0.1755
11795TIP3    H156876   2.263   1.673  15.490 -0.9550 -0.0936  1.5585
11795TIP3    H256877   2.246   1.561  15.591 -0.5528 -2.0820 -0.5008
11796TIP3   OH256878   2.328   4.253   4.885 -0.2661  0.2098 -0.7053
11796TIP3    H156879   2.269   4.202   4.941 -0.5597  0.5489 -0.7017
11796TIP3    H256880   2.272   4.285   4.814 -0.4063  1.6921  0.0382
11797TIP3   OH256881   3.171   5.053   4.717 -0.3547  0.0807  0.1213
11797TIP3    H156882   3.213   5.088   4.796 -2.8670 -0.1961  1.7020
11797TIP3    H256883   3.099   4.999   4.750 -0.6198 -1.2413 -2.3674
11798TIP3   OH256884   2.735   4.043  13.265  0.2997 -0.2612  0.0169
11798TIP3    H156885   2.685   3.985  13.208 -0.8860 -0.2636  1.0348
11798TIP3    H256886   2.826   4.015  13.252  0.0285 -0.5367 -1.5382
11799TIP3   OH256887   0.004   2.063  13.846  0.3587 -0.3175 -0.4248
11799TIP3    H156888  -0.054   1.991  13.822 -0.2392 -0.1446  0.4341
11799TIP3    H256889   0.008   2.118  13.768  0.9245 -1.3352 -1.1248
11800TIP3   OH256890   1.851   1.164   3.549 -0.4025  0.5289 -0.0019
11800TIP3    H156891   1.872   1.221   3.476 -0.8602  0.3967 -0.2413
11800TIP3    H256892   1.936   1.135   3.582 -0.1810  1.0313 -0.1268
11801TIP3   OH256893   5.543   0.676   1.851  0.5797 -0.0742  0.3451
11801TIP3    H156894   5.510   0.758   1.813  2.9708  1.3060  1.0517
11801TIP3    H256895   5.504   0.672   1.938  0.2563  0.1969  0.2131
11802TIP3   OH256896   6.526   1.513   0.051 -0.2637  0.1805 -0.9729
11802TIP3    H156897   6.600   1.456   0.030 -0.1518  0.7717 -2.3783
11802TIP3    H256898   6.450   1.471   0.010 -0.5090  0.1143 -0.4532
11803TIP3   OH256899   3.118   0.673   3.268 -0.0197 -0.2323 -0.6386
11803TIP3    H156900   3.181   0.685   3.196 -0.4638  1.3980 -0.7897
11803TIP3    H256901   3.048   0.735   3.249 -1.5139 -1.7332 -0.2603
11804TIP3   OH256902   1.934   3.023  14.540 -0.1625  0.2329  0.2101
11804TIP3    H156903   1.870   2.988  14.601 -0.3122  0.5777  0.2511
11804TIP3    H256904   1.948   3.114  14.568  0.7982 -0.0103  0.5844
11805TIP3   OH256905   5.853   0.831   2.112  0.2320 -0.2346 -0.0807
11805TIP3    H156906   5.782   0.870   2.060 -1.0263  2.1357  3.0966
11805TIP3    H256907   5.893   0.767   2.053 -4.0660 -1.2436 -2.3308
11806TIP3   OH256908   3.474   4.021   5.640  0.2383 -0.0937  0.1902
11806TIP3    H156909   3.387   4.008   5.603  0.0605 -1.8698  1.1153
11806TIP3    H256910   3.494   3.938   5.683  2.1029  0.5254  0.6009
11807TIP3   OH256911   5.342   0.300  13.856  0.1105 -0.1591  0.2701
11807TIP3    H156912   5.340   0.395  13.870 -2.5194 -0.3904  2.1407
11807TIP3    H256913   5.435   0.277  13.860  0.7039  2.1357  1.2930
11808TIP3   OH256914   3.038   5.010  14.378 -0.0562 -0.3630  0.8158
11808TIP3    H156915   3.018   5.009  14.472 -1.8043  0.4855  0.4864
11808TIP3    H256916   2.963   4.968  14.337  0.1209  0.3586 -0.2989
11809TIP3   OH256917   4.010   2.917  14.580 -0.1781 -0.4782 -0.2474
11809TIP3    H156918   4.079   2.887  14.638  0.4448 -1.3268 -1.3717
11809TIP3    H256919   3.934   2.932  14.637  1.1185  1.2439  1.1279
11810TIP3   OH256920   2.061   2.718  15.262 -0.2713  0.0711  0.1942
11810TIP3    H156921   2.143   2.720  15.311 -0.7257  0.1965  0.9528
11810TIP3    H256922   2.089   2.715  15.170  0.5963 -1.8622  0.4740
11811TIP3   OH256923   2.936   0.984  13.122  0.1741 -0.7244 -0.5622
11811TIP3    H156924   3.024   0.999  13.087 -0.4296 -0.4166 -1.9878
11811TIP3    H256925   2.887   1.063  13.099 -0.8422 -1.4599 -0.9906
11812TIP3   OH256926   0.855   0.323  10.190 -0.2430  0.1888  0.2056
11812TIP3    H156927   0.934   0.269  10.188  1.3905  2.3492  1.5201
11812TIP3    H256928   0.805   0.289  10.265  0.9508  0.6947  1.2649
11813TIP3   OH256929   2.503   3.810   2.157  0.6182 -0.4617 -0.0850
11813TIP3    H156930   2.588   3.810   2.201  0.0800 -2.0897  1.0346
11813TIP3    H256931   2.501   3.727   2.109 -0.3628 -0.4566 -0.0644
11814TIP3   OH256932   0.524   1.404   1.102 -0.0096  0.3430 -0.2938
11814TIP3    H156933   0.527   1.440   1.190 -3.1361  0.0665  0.0450
11814TIP3    H256934   0.585   1.458   1.052  1.1568  1.0840  1.8233
11815TIP3   OH256935   6.540   4.055  11.160  0.1074 -0.2198  0.4329
11815TIP3    H156936   6.633   4.031  11.160  0.6406  1.4391 -2.3626
11815TIP3    H256937   6.498   3.990  11.104 -0.1451 -0.0432  0.4162
11816TIP3   OH256938   3.997   0.440   3.463 -0.1236  0.3775 -0.1979
11816TIP3    H156939   3.973   0.473   3.376  0.8901  0.9661 -0.2726
11816TIP3    H256940   3.944   0.491   3.524 -0.3986  0.3821 -0.4388
11817TIP3   OH256941   0.715   0.687  14.157  0.3476 -0.4332  0.1903
11817TIP3    H156942   0.699   0.671  14.251  2.4413 -2.6801  0.2686
11817TIP3    H256943   0.772   0.763  14.154 -1.4072  0.9456  0.5605
11818TIP3   OH256944   5.248   0.959  13.706  0.3673 -0.1795  0.0753
11818TIP3    H156945   5.195   0.912  13.641  1.0196 -0.7598 -0.0512
11818TIP3    H256946   5.332   0.914  13.705  0.5189  0.0679  1.0393
11819TIP3   OH256947   6.358   2.329  15.664 -0.3589 -0.2308 -0.3389
11819TIP3    H156948   6.416   2.269  15.618 -0.5811  0.3052 -1.3579
11819TIP3    H256949   6.279   2.278  15.682  0.2746 -0.8662  0.7634
11820TIP3   OH256950   3.031   5.400  10.473  0.2278  0.2843 -0.1787
11820TIP3    H156951   3.074   5.370  10.393 -1.1886  1.1337 -1.3181
11820TIP3    H256952   3.003   5.320  10.517  0.3817 -0.1807 -0.9144
11821TIP3   OH256953   5.307   3.372  16.296  0.1164 -0.1854  0.4348
11821TIP3    H156954   5.299   3.357  16.202 -1.5463  0.1731  0.4830
11821TIP3    H256955   5.338   3.463  16.304  0.3466 -0.2466  0.2347
11822TIP3   OH256956   1.875   1.550  14.836  0.4269  0.3716  0.0900
11822TIP3    H156957   1.846   1.612  14.769  1.2724  0.6410 -0.0394
11822TIP3    H256958   1.928   1.603  14.896 -2.4737  0.7360  2.5318
11823TIP3   OH256959   3.634   4.913   5.572 -0.1351 -0.0293  0.5489
11823TIP3    H156960   3.717   4.876   5.601  0.0953 -0.5942 -0.7456
11823TIP3    H256961   3.619   4.988   5.629  0.8171 -0.4571  1.3761
11824TIP3   OH256962   5.609   0.897   0.405  0.2624 -0.0883  0.1762
11824TIP3    H156963   5.675   0.885   0.473  0.6583  1.1785  0.0368
11824TIP3    H256964   5.558   0.816   0.407  1.2133 -0.6920  0.9390
11825TIP3   OH256965   3.195   4.213  13.257  0.9365  0.0796 -0.0526
11825TIP3    H156966   3.234   4.273  13.193 -0.1226 -1.0419 -1.8581
11825TIP3    H256967   3.127   4.265  13.300  1.0677  0.6176 -0.4749
11826TIP3   OH256968   4.493   0.850   0.340  0.1445  0.3209  0.2702
11826TIP3    H156969   4.426   0.918   0.334 -1.0240 -0.6744  1.2906
11826TIP3    H256970   4.576   0.896   0.329 -0.6719  1.6695 -0.5467
11827TIP3   OH256971   0.692   5.399  14.225 -0.9801 -0.4510  0.1398
11827TIP3    H156972   0.630   5.327  14.234 -1.0288 -0.3560  0.5535
11827TIP3    H256973   0.675   5.456  14.299  0.7581 -1.3137  1.2853
11828TIP3   OH256974   5.928   0.765  12.609 -0.1207  0.1794 -0.3914
11828TIP3    H156975   5.933   0.700  12.679 -2.7163 -0.5628 -0.8192
11828TIP3    H256976   6.016   0.805  12.608  0.3459 -0.5292  2.5077
11829TIP3   OH256977   2.531   6.208   4.935 -0.0872 -0.4537 -0.1330
11829TIP3    H156978   2.500   6.286   4.980  1.2352  0.6247 -0.9893
11829TIP3    H256979   2.455   6.176   4.886 -1.0039 -0.5229  1.2756
11830TIP3   OH256980   4.902   1.784  16.302  0.0201 -0.0987 -0.0048
11830TIP3    H156981   4.815   1.758  16.332  0.0917 -0.4853 -0.1228
11830TIP3    H256982   4.942   1.702  16.272  0.5044  0.0409  0.2541
11831TIP3   OH256983   1.999   0.864   5.623  0.6891 -0.4742 -0.6052
11831TIP3    H156984   2.001   0.854   5.718  3.1238 -0.5445 -0.5893
11831TIP3    H256985   2.028   0.779   5.589  0.1531 -0.3508 -1.4026
11832TIP3   OH256986   0.795   1.265   2.417  0.2103 -0.6122 -0.1824
11832TIP3    H156987   0.868   1.309   2.373 -1.3029  1.7180 -0.4974
11832TIP3    H256988   0.823   1.258   2.509  1.4298 -1.1694 -0.5751
11833TIP3   OH256989   6.660   1.058   5.130  0.0238  0.0582  0.2490
11833TIP3    H156990   6.635   0.967   5.114 -0.7777  0.1619  0.8432
11833TIP3    H256991   6.646   1.070   5.224 -0.4206  0.9589  0.0736
11834TIP3   OH256992   4.032   6.757   0.118 -0.1721  0.7243 -0.1730
11834TIP3    H156993   4.023   6.772   0.024 -0.6193  1.9619  0.0553
11834TIP3    H256994   3.953   6.793   0.157 -0.7008 -1.0935  0.5781
11835TIP3   OH256995   5.262   0.155   0.220  0.3903  0.2846  0.2510
11835TIP3    H156996   5.208   0.127   0.146  0.7334 -1.5692  0.6564
11835TIP3    H256997   5.225   0.110   0.296  0.8634  1.1092  0.9861
11836TIP3   OH256998   2.045   3.755  12.410  0.5094  0.6362 -0.0389
11836TIP3    H156999   2.102   3.827  12.437  0.8357  0.6328 -0.6935
11836TIP3    H257000   1.989   3.738  12.486  0.9286  1.0876  0.3742
11837TIP3   OH257001   1.839   4.745   3.561  0.3855 -0.4163  0.4607
11837TIP3    H157002   1.834   4.719   3.469 -1.0350 -1.4953  0.8162
11837TIP3    H257003   1.932   4.762   3.576  0.7069 -0.7713 -1.0176
11838TIP3   OH257004   0.973   4.792  10.857 -0.1779  0.7672  0.5759
11838TIP3    H157005   0.983   4.887  10.847  2.9657  0.4652 -0.1218
11838TIP3    H257006   0.980   4.757  10.769 -0.9043 -0.1689  0.8718
11839TIP3   OH257007   3.858   0.213  13.766 -0.2768  0.1586  0.3574
11839TIP3    H157008   3.782   0.155  13.764 -0.9001  0.8969  1.6368
11839TIP3    H257009   3.919   0.171  13.827  1.3155 -1.5161 -2.1932
11840TIP3   OH257010   3.827   2.683  11.178 -0.1714  0.1485  0.4018
11840TIP3    H157011   3.739   2.676  11.215 -0.5571  0.2549 -0.4575
11840TIP3    H257012   3.855   2.592  11.168 -0.9221  0.0383 -0.9768
11841TIP3   OH257013   5.143   1.243   3.574  0.0042 -0.0603 -0.3492
11841TIP3    H157014   5.182   1.220   3.658 -0.8281  1.2732  0.4358
11841TIP3    H257015   5.071   1.181   3.564 -0.6476  0.5350  0.5203
11842TIP3   OH257016   0.438   1.748  17.066 -0.1395 -0.2917 -0.5575
11842TIP3    H157017   0.506   1.733  17.132 -1.5688 -0.0279  1.0282
11842TIP3    H257018   0.404   1.661  17.047 -0.2419 -0.2883 -0.3873
11843TIP3   OH257019   3.543   3.782   3.823  0.2308 -0.1060 -0.0392
11843TIP3    H157020   3.540   3.708   3.762 -0.9391 -0.4697  0.4351
11843TIP3    H257021   3.600   3.752   3.894 -1.9730 -1.4833  1.2628
11844TIP3   OH257022   5.976   6.195   5.372  0.2641 -0.0887 -0.4135
11844TIP3    H157023   6.045   6.154   5.424 -0.1224 -0.2681 -0.0425
11844TIP3    H257024   6.009   6.283   5.354  2.1349 -1.2164 -3.1476
11845TIP3   OH257025   2.031   2.916  11.511  0.1449  0.0798 -0.3062
11845TIP3    H157026   2.044   2.986  11.576  2.4571  1.5040 -2.1231
11845TIP3    H257027   1.996   2.962  11.435 -0.3644 -1.1604 -0.8337
11846TIP3   OH257028   1.237   3.952  16.999  0.0532 -0.0951 -0.3776
11846TIP3    H157029   1.145   3.930  17.016  0.2566 -0.4090  0.3862
11846TIP3    H257030   1.253   3.920  16.910 -0.5063 -0.2754 -0.4220
11847TIP3   OH257031   6.580   4.853  16.872  0.2513  0.0601 -0.0540
11847TIP3    H157032   6.632   4.796  16.929  0.3263 -0.1610 -0.3393
11847TIP3    H257033   6.493   4.855  16.913 -0.2132 -1.5228 -0.8586
11848TIP3   OH257034   3.908   6.750   1.751  0.0575 -0.3121 -0.4889
11848TIP3    H157035   3.912   6.760   1.846 -2.6018 -0.6127 -0.2892
11848TIP3    H257036   3.931   6.836   1.716  0.3756 -0.0222  0.4221
11849TIP3   OH257037   0.105   0.465   6.164  0.0549  0.1882 -0.5464
11849TIP3    H157038   0.023   0.480   6.210 -0.2557 -0.5232 -0.8594
11849TIP3    H257039   0.150   0.399   6.218  0.6515  0.9372 -0.1030
11850TIP3   OH257040   3.452   4.979   1.596  0.0671  0.5002  0.0907
11850TIP3    H157041   3.491   4.956   1.681  2.9487 -0.9514 -1.5071
11850TIP3    H257042   3.373   4.925   1.591 -0.0972  0.5143  1.7435
11851TIP3   OH257043   1.533   5.424   1.959  0.3377  0.1407 -0.3034
11851TIP3    H157044   1.565   5.498   2.011  0.3353 -1.7905  2.7202
11851TIP3    H257045   1.439   5.421   1.977 -0.1116  0.7848 -2.3636
11852TIP3   OH257046   0.169   2.486   3.100  0.5347  0.6688  0.2640
11852TIP3    H157047   0.161   2.477   3.005 -0.3428  1.3295  0.2621
11852TIP3    H257048   0.245   2.543   3.113 -0.2866  1.8894 -0.1184
11853TIP3   OH257049   4.888   0.232   2.780 -0.7570 -0.1729  0.3993
11853TIP3    H157050   4.972   0.273   2.802 -0.1032 -0.5754 -1.2256
11853TIP3    H257051   4.842   0.299   2.729 -0.6350 -0.6404 -0.3247
11854TIP3   OH257052   2.759   6.493   0.978  0.6794 -0.0481  0.2740
11854TIP3    H157053   2.677   6.525   1.016  1.6559  0.6346  1.9327
11854TIP3    H257054   2.787   6.563   0.920 -0.9727 -1.2187 -2.1126
11855TIP3   OH257055   3.187   2.899   4.122  0.0567 -0.0333 -0.2165
11855TIP3    H157056   3.155   2.811   4.143 -0.3813  0.6495  2.3365
11855TIP3    H257057   3.109   2.954   4.130  0.6625  0.8127 -0.1375
11856TIP3   OH257058   3.987   1.707  13.282 -0.4496 -0.2918  0.5242
11856TIP3    H157059   4.080   1.684  13.286 -0.7482 -1.5159  0.9831
11856TIP3    H257060   3.942   1.623  13.289 -1.6107  0.3602  1.1319
11857TIP3   OH257061   5.407   5.635  11.378 -0.1271 -0.2552  0.1556
11857TIP3    H157062   5.426   5.595  11.463  0.1438  1.0829  0.7560
11857TIP3    H257063   5.472   5.597  11.319 -1.9471 -3.1836 -0.1217
11858TIP3   OH257064   0.879   4.595   3.925 -0.2924 -0.1593 -0.2282
11858TIP3    H157065   0.966   4.572   3.894  0.9463  0.3508  2.5522
11858TIP3    H257066   0.864   4.684   3.894  0.2148 -0.2197 -0.6446
11859TIP3   OH257067   6.759   2.357   1.467  0.8479 -0.1509  0.2318
11859TIP3    H157068   6.756   2.426   1.534  1.1783  1.5276 -1.4203
11859TIP3    H257069   6.682   2.371   1.413  0.9908 -1.0036 -0.2163
11860TIP3   OH257070   1.919   3.977  16.850 -0.0805  0.3104 -0.8274
11860TIP3    H157071   1.917   4.064  16.891 -0.2071 -1.4799  3.4975
11860TIP3    H257072   2.007   3.943  16.868 -1.3376 -2.0128  1.6294
11861TIP3   OH257073   1.464   3.833   0.239  0.1242 -0.3887  0.3514
11861TIP3    H157074   1.496   3.921   0.219  0.1562 -0.4242  0.2456
11861TIP3    H257075   1.495   3.815   0.328  0.3116 -0.3834  0.2862
11862TIP3   OH257076   3.660   2.057   5.301  0.9078 -0.1344  0.1452
11862TIP3    H157077   3.603   1.987   5.268  0.0454  0.3400  0.5974
11862TIP3    H257078   3.723   2.013   5.358  0.4045 -0.5525  0.3819
11863TIP3   OH257079   6.688   4.074   1.800  0.1167 -0.6342 -0.7676
11863TIP3    H157080   6.687   4.086   1.895 -2.1911 -0.3297 -0.7987
11863TIP3    H257081   6.781   4.082   1.777  1.0708 -2.8824  1.7070
11864TIP3   OH257082   2.773   2.544   4.674 -0.5258  0.3865  0.5666
11864TIP3    H157083   2.725   2.627   4.672 -0.1609  0.6049  0.7798
11864TIP3    H257084   2.863   2.569   4.694 -0.4315 -0.0700  0.7154
11865TIP3   OH257085   5.103   5.799  13.370  0.6131  0.8679  1.1544
11865TIP3    H157086   5.123   5.822  13.461  1.0787  2.2930  0.7146
11865TIP3    H257087   5.166   5.730  13.350  0.2535  0.2658  2.0285
11866TIP3   OH257088   2.069   0.378  13.983 -0.4706 -0.7345 -0.2234
11866TIP3    H157089   2.050   0.290  13.951 -0.3658 -1.4535  1.5517
11866TIP3    H257090   2.076   0.368  14.078  1.8410  0.7784 -0.1611
11867TIP3   OH257091   2.314   6.024   4.029 -0.5307  0.5252 -0.3458
11867TIP3    H157092   2.264   6.090   4.077 -1.6412  0.6896 -1.6677
11867TIP3    H257093   2.406   6.044   4.049 -0.9298  1.0016  1.1286
11868TIP3   OH257094   1.283   6.187  16.679 -0.3263  0.3878 -0.3910
11868TIP3    H157095   1.228   6.160  16.605  1.5121 -0.1405 -1.6173
11868TIP3    H257096   1.286   6.111  16.736 -0.1504  0.1094 -0.7683
11869TIP3   OH257097   5.935   5.001   3.413 -0.2586 -0.7074 -0.6093
11869TIP3    H157098   5.922   4.918   3.366 -1.3515  0.3359 -2.2575
11869TIP3    H257099   6.025   4.997   3.444  0.2660 -1.8337 -2.1253
11870TIP3   OH257100   4.330   5.350   0.290  0.3943  0.0863 -0.0459
11870TIP3    H157101   4.338   5.353   0.195  2.3786 -0.9227  0.0487
11870TIP3    H257102   4.271   5.422   0.311 -1.1235 -0.4460 -2.1164
11871TIP3   OH257103   0.140   1.094  14.777  0.2729 -0.0789  0.5389
11871TIP3    H157104   0.086   1.122  14.703 -1.8334 -0.4638  1.8388
11871TIP3    H257105   0.230   1.115  14.751 -0.5369  1.1634 -1.4761
11872TIP3   OH257106   2.599   2.417  12.283  0.0502  0.1754 -0.2779
11872TIP3    H157107   2.661   2.346  12.300 -1.7427 -0.9246  2.1892
11872TIP3    H257108   2.649   2.480  12.231  3.3827 -0.4842  1.8150
11873TIP3   OH257109   1.353   5.711  13.375 -0.6562 -0.1823  0.2064
11873TIP3    H157110   1.325   5.734  13.286  0.1799  3.8309  0.7716
11873TIP3    H257111   1.441   5.675  13.365  0.1572  1.8671 -0.6010
11874TIP3   OH257112   5.791   6.111   2.928 -0.4334 -0.3816 -0.0817
11874TIP3    H157113   5.778   6.028   2.883 -1.6195  0.4648 -1.3855
11874TIP3    H257114   5.706   6.129   2.969  0.1497 -0.3422  1.1455
11875TIP3   OH257115   0.228   0.936   0.275  0.9083 -1.1140  0.5082
11875TIP3    H157116   0.172   0.867   0.241 -1.5947  1.8971 -2.1672
11875TIP3    H257117   0.182   0.967   0.353  0.7641 -0.9693  0.3669
11876TIP3   OH257118   6.469   5.441   5.252  0.1599 -0.0557  0.3726
11876TIP3    H157119   6.546   5.383   5.250 -0.0216 -0.2920 -2.2242
11876TIP3    H257120   6.500   5.524   5.218 -0.3748  0.3515  0.8610
11877TIP3   OH257121   0.882   1.562  16.714  0.0430  0.0929  0.2693
11877TIP3    H157122   0.954   1.534  16.657  2.3667  1.6894  2.2345
11877TIP3    H257123   0.815   1.594  16.654  0.6573 -1.9998 -1.6689
11878TIP3   OH257124   4.637   1.017   3.678  0.4235  0.5017  0.0542
11878TIP3    H157125   4.668   1.105   3.655  1.1076  0.3868  0.5045
11878TIP3    H257126   4.717   0.965   3.686 -0.0113 -0.2907 -0.7242
11879TIP3   OH257127   6.698   0.422   5.184 -0.3995  0.0761 -0.2498
11879TIP3    H157128   6.638   0.436   5.257  0.9989 -1.6440  1.3279
11879TIP3    H257129   6.763   0.492   5.193 -0.7767  0.4484 -0.4335
11880TIP3   OH257130   1.328   1.974  12.098 -0.1964  0.1476  0.0871
11880TIP3    H157131   1.368   1.993  12.013  0.7310 -0.8154  0.2815
11880TIP3    H257132   1.319   2.060  12.139  1.6792  0.4382  0.0034
11881TIP3   OH257133   6.447   5.609  13.088 -0.0102  0.3759 -0.5386
11881TIP3    H157134   6.485   5.650  13.166  1.1888 -0.2819 -0.7493
11881TIP3    H257135   6.479   5.519  13.091 -0.8600  0.0406 -1.2142
11882TIP3   OH257136   1.109   6.155  12.333 -0.0371  0.2992 -0.1285
11882TIP3    H157137   1.158   6.074  12.346  0.3042  0.5388  0.0919
11882TIP3    H257138   1.044   6.134  12.266  0.1419 -0.1154 -0.1711
11883TIP3   OH257139   4.963   4.092  13.755  0.5086 -0.4914 -0.1622
11883TIP3    H157140   4.961   4.051  13.841  0.1951 -2.2724 -0.9909
11883TIP3    H257141   5.040   4.055  13.712  0.1716 -0.2750 -0.9740
11884TIP3   OH257142   0.479   0.122  11.847 -0.0215  0.4937  0.1320
11884TIP3    H157143   0.426   0.045  11.869  0.0858 -0.0068 -1.2699
11884TIP3    H257144   0.444   0.192  11.902 -0.9667 -0.2490  0.4978
11885TIP3   OH257145   0.209   3.350  14.760  0.6136  0.4254  0.1635
11885TIP3    H157146   0.124   3.370  14.721  1.1011  0.5068 -0.8977
11885TIP3    H257147   0.241   3.434  14.793  0.7950  0.6224 -0.4978
11886TIP3   OH257148   6.103   3.431   6.362  0.5131  0.4270 -0.2122
11886TIP3    H157149   6.091   3.482   6.442  0.4669 -0.3826  0.3194
11886TIP3    H257150   6.018   3.391   6.346 -0.0100  2.0756 -1.7580
11887TIP3   OH257151   3.526   1.732  16.307 -0.1736  0.1806  0.4533
11887TIP3    H157152   3.440   1.695  16.287  0.4406 -0.9249 -0.2362
11887TIP3    H257153   3.588   1.670  16.270  0.9372  2.3548 -1.5549
11888TIP3   OH257154   5.649   4.710   5.493 -0.4579 -0.8026 -0.1537
11888TIP3    H157155   5.565   4.672   5.466 -1.0919 -0.8821  1.7730
11888TIP3    H257156   5.660   4.682   5.584  2.1354 -1.5750 -0.6081
11889TIP3   OH257157   1.266   1.335  15.574  0.4041 -0.5177 -0.0836
11889TIP3    H157158   1.228   1.247  15.582 -2.2501  0.2124 -3.0165
11889TIP3    H257159   1.230   1.384  15.648  0.1621 -1.3201  0.3398
11890TIP3   OH257160   2.946   3.510  14.680  0.1534  0.1010  0.2017
11890TIP3    H157161   2.976   3.516  14.590 -2.3093  1.3313 -0.6366
11890TIP3    H257162   2.879   3.442  14.679 -0.6669  0.8738  0.8398
11891TIP3   OH257163   1.313   4.231  16.978  0.2372 -0.2116 -0.2135
11891TIP3    H157164   1.283   4.140  16.987 -1.2734  0.3625  0.8423
11891TIP3    H257165   1.340   4.256  17.066 -1.0703  0.9131 -0.0976
11892TIP3   OH257166   1.774   4.614   4.532  0.1470  0.2550 -0.4840
11892TIP3    H157167   1.716   4.579   4.465  0.3047  0.9907 -1.0104
11892TIP3    H257168   1.733   4.590   4.615 -0.7770  0.5630 -0.8498
11893TIP3   OH257169   2.344   4.655  14.262  0.2356  0.0267  0.2860
11893TIP3    H157170   2.396   4.735  14.267 -0.1881  0.2979  0.3712
11893TIP3    H257171   2.295   4.652  14.344  0.5444 -0.5263  0.4576
11894TIP3   OH257172   5.679   4.964  11.101 -0.4539  0.2426 -0.1557
11894TIP3    H157173   5.644   4.875  11.102 -0.5302  0.2641 -0.7587
11894TIP3    H257174   5.604   5.019  11.081 -0.1782  0.3307 -0.9990
11895TIP3   OH257175   0.164   2.722  12.972 -0.2137 -0.4005  0.1051
11895TIP3    H157176   0.206   2.691  12.891  0.0220  0.4953 -0.1290
11895TIP3    H257177   0.185   2.654  13.037 -0.3360 -1.0882 -0.5606
11896TIP3   OH257178   3.121   0.532  11.293  0.2258  0.4690  0.1819
11896TIP3    H157179   3.121   0.580  11.375  3.1693  0.6505  0.1928
11896TIP3    H257180   3.122   0.600  11.225 -1.9433  0.3201 -0.0796
11897TIP3   OH257181   5.880   1.122   2.115  0.6442 -0.2731 -0.0449
11897TIP3    H157182   5.849   1.101   2.203  1.2737 -1.1709 -0.0241
11897TIP3    H257183   5.808   1.096   2.057  0.7950 -1.0389  0.1047
11898TIP3   OH257184   4.615   4.175   1.793  0.6428 -0.0155 -0.1311
11898TIP3    H157185   4.626   4.190   1.699 -1.3652 -0.4391 -0.4727
11898TIP3    H257186   4.581   4.086   1.799  0.8785 -0.0387  1.0234
11899TIP3   OH257187   4.554   5.572   3.135 -0.1411 -0.3914  0.2373
11899TIP3    H157188   4.517   5.616   3.059 -0.0110  0.6615  0.7656
11899TIP3    H257189   4.637   5.535   3.104 -1.9383 -3.6101 -1.2272
11900TIP3   OH257190   3.502   1.344  16.933  0.2930  0.1759 -0.1976
11900TIP3    H157191   3.482   1.262  16.978  1.8870  0.4648  1.1418
11900TIP3    H257192   3.425   1.398  16.947 -1.0183 -1.2383 -1.5784
11901TIP3   OH257193   6.544   1.085  13.420 -0.1648  0.1831 -0.4749
11901TIP3    H157194   6.539   1.012  13.358 -0.8792  0.5374 -0.8406
11901TIP3    H257195   6.481   1.062  13.488 -0.0630  0.2459 -0.3601
11902TIP3   OH257196   1.514   4.840  15.251 -0.4880  0.6129 -0.0005
11902TIP3    H157197   1.586   4.883  15.206  0.8894 -0.4759  1.0927
11902TIP3    H257198   1.465   4.795  15.182  1.0045 -0.2112 -0.5606
11903TIP3   OH257199   3.677   2.726   4.965  0.2816 -0.2083  0.4076
11903TIP3    H157200   3.741   2.713   5.036  0.9989  1.2312  0.0681
11903TIP3    H257201   3.684   2.819   4.944 -0.8841 -0.3394 -0.6632
11904TIP3   OH257202   1.698   1.310  10.333  0.1859 -0.4277  0.8767
11904TIP3    H157203   1.772   1.257  10.302  1.5001  0.7341  1.8952
11904TIP3    H257204   1.737   1.394  10.358 -1.2075 -0.3278  2.9852
11905TIP3   OH257205   0.720   5.394   0.395  0.4691  0.2143  0.4707
11905TIP3    H157206   0.802   5.351   0.418  0.9099  0.5057 -0.5458
11905TIP3    H257207   0.709   5.379   0.301 -0.5898  0.2636  0.5683
11906TIP3   OH257208   4.051   3.495  16.955 -0.1706 -0.1078 -0.2243
11906TIP3    H157209   4.011   3.409  16.940 -0.9328  0.1264  0.4102
11906TIP3    H257210   4.108   3.508  16.879 -1.1532 -0.5364 -1.0625
11907TIP3   OH257211   1.211   1.493   5.663  0.4629  0.2504 -0.0598
11907TIP3    H157212   1.261   1.511   5.583 -1.1905  1.5779 -0.8637
11907TIP3    H257213   1.219   1.574   5.715 -1.9726  1.0931 -0.8782
11908TIP3   OH257214   5.697   6.362   6.121 -0.4001 -0.3289  0.0510
11908TIP3    H157215   5.665   6.402   6.203 -0.0947 -1.5341  0.7833
11908TIP3    H257216   5.678   6.269   6.131 -2.1571 -0.2931 -2.1061
11909TIP3   OH257217   0.437   5.648   4.846  0.5413 -0.3780  0.1185
11909TIP3    H157218   0.483   5.613   4.770 -0.7507 -1.9176 -0.0025
11909TIP3    H257219   0.461   5.590   4.918  1.3701  0.7854  0.8132
11910TIP3   OH257220   0.300   1.232   1.393 -0.3855 -0.1568  0.0705
11910TIP3    H157221   0.319   1.142   1.419  1.2226 -0.1057 -0.8083
11910TIP3    H257222   0.328   1.237   1.302  0.8175  1.5826  0.4905
11911TIP3   OH257223   1.672   1.857  17.101  0.1846  0.0490 -0.2608
11911TIP3    H157224   1.708   1.769  17.097  0.9220  0.2987  0.5542
11911TIP3    H257225   1.585   1.849  17.062  1.5633 -0.2910 -3.6795
11912TIP3   OH257226   1.150   1.077  14.840  0.4497  0.0547 -0.2850
11912TIP3    H157227   1.170   1.003  14.897 -1.2103 -0.6439 -0.5526
11912TIP3    H257228   1.210   1.068  14.766  1.2510 -0.1766  0.3870
11913TIP3   OH257229   4.941   2.379  14.989 -0.0942 -0.2687 -0.4641
11913TIP3    H157230   4.853   2.383  15.028 -0.5467  0.9543 -1.5337
11913TIP3    H257231   4.989   2.450  15.031 -0.4675  0.8034 -1.7660
11914TIP3   OH257232   5.735   1.307  16.959  0.1447  0.2921  0.5310
11914TIP3    H157233   5.762   1.310  17.051 -0.1705 -1.7500  0.7289
11914TIP3    H257234   5.640   1.297  16.961  0.0846  0.6907 -0.0230
11915TIP3   OH257235   1.993   5.342  16.727 -0.6600 -0.2263 -0.1794
11915TIP3    H157236   2.032   5.279  16.667 -0.7088 -2.2803  1.8079
11915TIP3    H257237   2.038   5.327  16.810 -2.2367  0.8362  0.9195
11916TIP3   OH257238   4.955   5.211  12.883 -0.1551 -0.4517  0.2350
11916TIP3    H157239   5.022   5.181  12.822 -1.1490  0.8044 -1.5843
11916TIP3    H257240   4.958   5.148  12.955  2.1843 -1.0602 -0.3060
11917TIP3   OH257241   6.347   3.494   3.653 -0.3450  0.2657  0.3089
11917TIP3    H157242   6.372   3.557   3.585  1.4898 -0.2405  0.4627
11917TIP3    H257243   6.319   3.549   3.726  2.1784  1.0132  0.8042
11918TIP3   OH257244   3.492   3.852  17.163  0.0825 -0.1568 -0.4267
11918TIP3    H157245   3.506   3.938  17.203  0.3166 -0.9637  1.3601
11918TIP3    H257246   3.576   3.808  17.171 -0.4290 -1.0748  0.0719
11919TIP3   OH257247   5.007   4.171   2.209  0.2966  0.2415  0.1465
11919TIP3    H157248   5.061   4.160   2.131  1.0699  0.7973  0.5927
11919TIP3    H257249   5.019   4.089   2.258  1.0209  0.5038  0.4142
11920TIP3   OH257250   1.987   1.839  11.734 -0.1167  0.0358  0.3881
11920TIP3    H157251   2.050   1.909  11.715  0.9411 -1.1795 -0.7793
11920TIP3    H257252   2.000   1.818  11.826  2.1914 -1.0812 -0.1157
11921TIP3   OH257253   1.085   6.456  12.150  0.6802 -0.1860  0.0972
11921TIP3    H157254   1.160   6.408  12.115  1.1540  0.4223  0.2508
11921TIP3    H257255   1.075   6.424  12.240 -1.4354 -2.8082 -0.9521
11922TIP3   OH257256   4.993   3.992   0.478 -0.2497 -0.1130 -0.0733
11922TIP3    H157257   4.981   3.897   0.473 -0.1192 -0.1973  0.9604
11922TIP3    H257258   5.058   4.012   0.410  0.3348 -0.8852  0.2421
11923TIP3   OH257259   3.417   4.693  11.960 -0.0109  0.3702 -0.3634
11923TIP3    H157260   3.373   4.668  11.878  0.6427 -0.0980 -0.5810
11923TIP3    H257261   3.389   4.627  12.023 -0.7827  0.9255 -0.1132
11924TIP3   OH257262   3.122   3.134   5.714 -0.0839 -0.5311 -0.2188
11924TIP3    H157263   3.074   3.216   5.728 -1.4119 -1.3905  0.5374
11924TIP3    H257264   3.192   3.136   5.779  1.9056  1.3936 -2.2731
11925TIP3   OH257265   6.194   3.946  13.397  0.0687 -0.5958  0.4524
11925TIP3    H157266   6.157   3.933  13.484 -2.5932 -0.4862 -0.5704
11925TIP3    H257267   6.261   4.013  13.409 -0.5408 -0.2794  2.3393
11926TIP3   OH257268   0.007   1.947   5.025 -0.2989  0.0147  0.1506
11926TIP3    H157269  -0.070   1.934   5.080  1.5507 -0.7739  2.7662
11926TIP3    H257270   0.062   2.009   5.073  0.9193  0.2015 -1.3833
11927TIP3   OH257271   3.364   5.231  15.043 -0.6487  0.2726 -0.1091
11927TIP3    H157272   3.431   5.164  15.053  1.1374  1.9176 -0.4322
11927TIP3    H257273   3.406   5.300  14.991 -3.6738 -0.0138 -3.3077
11928TIP3   OH257274   6.832   2.300   4.052 -0.8960  0.2890 -0.0694
11928TIP3    H157275   6.788   2.220   4.081 -0.6095  0.2677  0.3185
11928TIP3    H257276   6.856   2.283   3.961 -1.0797  0.0402 -0.0711
11929TIP3   OH257277   3.872   4.640   4.360 -0.2583 -0.4051  0.1656
11929TIP3    H157278   3.788   4.686   4.359 -0.1300 -0.1779 -0.7573
11929TIP3    H257279   3.933   4.699   4.315  0.3800 -0.6128  0.7246
11930TIP3   OH257280   3.599   4.190  13.932  0.0763 -0.1977  0.4882
11930TIP3    H157281   3.520   4.244  13.931  0.2433  0.1368 -2.0300
11930TIP3    H257282   3.658   4.234  13.993 -1.4077 -0.1205  1.9606
11931TIP3   OH257283   2.919   6.501   0.674  0.0762 -0.3703  0.5475
11931TIP3    H157284   2.964   6.536   0.750  0.5070  1.0972 -0.3509
11931TIP3    H257285   2.965   6.419   0.655 -1.5694 -2.0717  3.2544
11932TIP3   OH257286   3.530   1.659  11.189  0.3600  0.0635  0.0430
11932TIP3    H157287   3.465   1.614  11.134  0.8554 -1.6968  0.8271
11932TIP3    H257288   3.501   1.750  11.190 -1.5918 -0.4960 -0.3731
11933TIP3   OH257289   0.288   2.932   2.137  0.3506  0.2621 -0.1179
11933TIP3    H157290   0.369   2.973   2.167  0.8568 -1.2710  0.7398
11933TIP3    H257291   0.315   2.876   2.064  0.0981 -0.3308  0.2337
11934TIP3   OH257292   1.748   6.269  16.267  0.0123  0.2528  0.2267
11934TIP3    H157293   1.679   6.295  16.206 -0.2029 -2.3787 -0.8053
11934TIP3    H257294   1.820   6.329  16.250 -1.6356  2.4815  0.6832
11935TIP3   OH257295   5.062   5.618   0.526  0.0170 -0.5088 -0.2206
11935TIP3    H157296   5.041   5.595   0.435 -2.0848  0.5147 -0.0546
11935TIP3    H257297   5.156   5.635   0.525 -0.2516  1.4927 -2.6946
11936TIP3   OH257298   5.302   0.111   4.218 -0.6826  0.4098 -0.0494
11936TIP3    H157299   5.347   0.129   4.300 -1.8982  0.5477  0.6100
11936TIP3    H257300   5.310   0.016   4.207  2.2557  0.7068 -1.4722
11937TIP3   OH257301   1.806   1.174  14.180  0.2682 -0.3668 -0.2064
11937TIP3    H157302   1.900   1.194  14.188  0.4949  0.4652 -3.6542
11937TIP3    H257303   1.804   1.082  14.151 -0.1764 -1.1445  2.0774
11938TIP3   OH257304   4.730   6.606   0.335  0.1032  0.4192  0.1708
11938TIP3    H157305   4.809   6.594   0.284 -0.9227 -0.3075 -1.3206
11938TIP3    H257306   4.738   6.695   0.371  1.8570  0.1180  0.5877
11939TIP3   OH257307   5.039   0.021   3.656  0.4961 -0.6656 -0.1892
11939TIP3    H157308   4.951   0.007   3.690  0.0500 -0.2420 -1.1637
11939TIP3    H257309   5.096  -0.025   3.719 -0.5114 -2.2225 -0.3598
11940TIP3   OH257310   1.337   2.254  14.231  0.1547 -0.3805 -0.1015
11940TIP3    H157311   1.254   2.278  14.272 -0.5886  0.1339 -1.8185
11940TIP3    H257312   1.312   2.195  14.159  1.3411 -0.7627 -0.2179
11941TIP3   OH257313   0.531   0.831  13.816  0.4423  0.3747 -0.5672
11941TIP3    H157314   0.549   0.888  13.741  1.7142  0.4587 -0.2308
11941TIP3    H257315   0.521   0.892  13.890 -0.7833  0.2931 -0.6559
11942TIP3   OH257316   6.248   4.237   3.697 -0.1365  0.3037  0.7367
11942TIP3    H157317   6.304   4.306   3.660 -1.5452  2.0829  1.7598
11942TIP3    H257318   6.262   4.243   3.791  0.6527 -1.7083  0.7949
11943TIP3   OH257319   5.219   3.108   5.682  0.7295  0.3267  0.1291
11943TIP3    H157320   5.294   3.096   5.624 -0.1485  0.4687 -1.0824
11943TIP3    H257321   5.147   3.061   5.639  0.1961 -0.1212  1.4415
11944TIP3   OH257322   5.781   5.578  16.558  0.4703  0.0338 -0.4194
11944TIP3    H157323   5.706   5.632  16.532  0.1709 -0.1473  0.0709
11944TIP3    H257324   5.770   5.496  16.509 -1.3258 -1.2134  1.9091
11945TIP3   OH257325   6.336   1.246  12.254  0.0309 -0.3983  0.3285
11945TIP3    H157326   6.432   1.252  12.246  0.3051 -2.1297  1.7639
11945TIP3    H257327   6.314   1.314  12.317  0.3969 -0.4344  0.5018
11946TIP3   OH257328   0.949   0.170  13.746  0.0372 -0.2385  0.0448
11946TIP3    H157329   1.000   0.214  13.813  1.0285  0.6596 -1.2419
11946TIP3    H257330   0.868   0.221  13.740 -0.5726 -1.0191  1.3357
11947TIP3   OH257331   5.939   5.849   1.523 -0.4432 -0.2652  0.0622
11947TIP3    H157332   5.925   5.944   1.520 -1.4605 -0.4047 -0.1167
11947TIP3    H257333   5.902   5.818   1.440  0.2108 -0.7854 -0.0407
11948TIP3   OH257334   3.269   3.569  13.214  0.4067 -0.0300  0.2475
11948TIP3    H157335   3.240   3.571  13.122 -0.5565 -0.8325  0.5166
11948TIP3    H257336   3.337   3.636  13.218  1.0447 -0.5334 -1.2461
11949TIP3   OH257337   0.567   1.900  11.171  0.0624 -0.3051 -0.0044
11949TIP3    H157338   0.648   1.900  11.119  0.9998 -1.0518  1.3926
11949TIP3    H257339   0.552   1.992  11.192  0.6188 -0.1661 -0.1861
11950TIP3   OH257340   6.612   4.431  14.524  0.3625 -0.1355 -0.5438
11950TIP3    H157341   6.587   4.406  14.613 -1.5508  1.2217 -0.6600
11950TIP3    H257342   6.668   4.507  14.535  0.6523 -0.3527 -0.4905
11951TIP3   OH257343   5.935   2.626   4.398  0.0130  0.9774 -0.3673
11951TIP3    H157344   5.907   2.577   4.321 -0.6923  0.4297  0.2226
11951TIP3    H257345   5.869   2.695   4.408 -0.7173  0.1646  0.5699
11952TIP3   OH257346   6.685   6.186  13.797 -0.5727  0.9335 -0.1366
11952TIP3    H157347   6.688   6.106  13.850  0.4910  1.4805  0.6792
11952TIP3    H257348   6.777   6.209  13.784 -0.8663  2.0833 -0.2519
11953TIP3   OH257349   3.813   4.071  10.743 -0.0613  0.1071 -0.0793
11953TIP3    H157350   3.851   4.156  10.765 -1.3678  0.4864  0.7909
11953TIP3    H257351   3.802   4.074  10.648  0.4501  0.6618 -0.1292
11954TIP3   OH257352   6.242   4.797  11.712 -0.5806  0.3991 -0.2007
11954TIP3    H157353   6.223   4.779  11.619  0.3820 -0.3705 -0.2706
11954TIP3    H257354   6.183   4.739  11.760  0.5341 -0.9646 -0.3934
11955TIP3   OH257355   1.587   6.827   3.883 -0.4369  0.3271 -0.4519
11955TIP3    H157356   1.517   6.818   3.818 -0.1675 -0.0487 -0.6919
11955TIP3    H257357   1.668   6.828   3.832 -0.3196  1.9999 -0.2807
11956TIP3   OH257358   4.337   1.551  14.095 -0.6166  0.1358  0.0077
11956TIP3    H157359   4.419   1.545  14.145  0.0606 -0.0074 -1.0962
11956TIP3    H257360   4.311   1.643  14.103 -0.6263  0.0783  0.7701
11957TIP3   OH257361   5.504   6.612   3.510  0.0312 -0.2706 -0.3869
11957TIP3    H157362   5.471   6.549   3.575 -1.8593 -0.3149 -1.3022
11957TIP3    H257363   5.571   6.662   3.557 -1.0842 -0.4636  1.5324
11958TIP3   OH257364   0.415   4.779   5.829 -0.2424  0.3114  0.6275
11958TIP3    H157365   0.400   4.866   5.866 -0.2094 -0.1146  1.6780
11958TIP3    H257366   0.331   4.755   5.790 -1.1744 -0.3502  2.8599
11959TIP3   OH257367   2.756   3.970   0.401 -0.0650  0.0031 -0.0122
11959TIP3    H157368   2.803   4.010   0.474 -0.0629  0.6402 -0.3593
11959TIP3    H257369   2.824   3.926   0.350 -0.3416 -2.6097  1.6932
11960TIP3   OH257370   3.187   1.354  17.171  0.5064  0.0479 -0.7779
11960TIP3    H157371   3.181   1.414  17.096  0.3951  0.6373 -0.2987
11960TIP3    H257372   3.237   1.402  17.236  1.2177 -0.7446 -0.7333
11961TIP3   OH257373   4.521   0.223  16.230 -0.4156 -0.6675  0.2110
11961TIP3    H157374   4.556   0.292  16.286 -2.7591  0.5158  0.3545
11961TIP3    H257375   4.542   0.142  16.275  0.9465  0.0332  0.8935
11962TIP3   OH257376   1.191   1.692  16.785  0.9593 -0.7420 -0.0682
11962TIP3    H157377   1.177   1.638  16.708 -2.7019  0.0559 -0.1360
11962TIP3    H257378   1.220   1.776  16.751  2.2861 -1.2600 -0.2814
11963TIP3   OH257379   2.651   1.449  13.259  0.4963  0.3103 -0.6025
11963TIP3    H157380   2.648   1.519  13.325  2.2605 -1.1093  1.1091
11963TIP3    H257381   2.666   1.494  13.176  2.8172  1.9288  0.5964
11964TIP3   OH257382   1.347   0.229  12.840  0.2564 -0.1300  0.0744
11964TIP3    H157383   1.381   0.262  12.923  0.7694 -0.5542  0.0353
11964TIP3    H257384   1.363   0.135  12.843  0.3309 -0.1395 -0.5272
11965TIP3   OH257385   3.014   0.101  16.999 -0.2572 -0.1116 -0.6295
11965TIP3    H157386   3.097   0.143  16.976 -0.4726  0.3740 -0.5424
11965TIP3    H257387   2.982   0.063  16.917 -0.3093  0.3425 -0.8216
11966TIP3   OH257388   3.220   5.059   1.136  0.3270 -0.2312  0.0744
11966TIP3    H157389   3.281   5.050   1.062 -2.0046 -0.9403 -1.8944
11966TIP3    H257390   3.153   4.992   1.120 -0.4025 -0.2763  2.7823
11967TIP3   OH257391   4.051   0.198  13.576 -0.2261  0.1923 -0.2338
11967TIP3    H157392   3.990   0.228  13.643 -0.7017 -1.9437  0.3786
11967TIP3    H257393   4.005   0.213  13.493 -0.7980  0.3093  0.1006
11968TIP3   OH257394   2.190   4.248  11.445 -0.0849 -0.5013  0.3099
11968TIP3    H157395   2.205   4.168  11.394 -1.4056 -0.1872 -0.6115
11968TIP3    H257396   2.102   4.276  11.421  0.3360  1.2286  0.6193
11969TIP3   OH257397   0.792   5.824  10.960  0.0798  0.0257  0.0808
11969TIP3    H157398   0.869   5.858  10.915  1.1780 -1.3432  0.8376
11969TIP3    H257399   0.721   5.881  10.933  1.3802  1.4157 -0.5495
11970TIP3   OH257400   6.416   0.318   0.272 -0.6237 -0.5592  0.7802
11970TIP3    H157401   6.454   0.393   0.318  0.5361 -1.6456  1.6770
11970TIP3    H257402   6.353   0.357   0.211 -0.2148  1.1183  1.3592
11971TIP3   OH257403   1.137   2.391   2.983  0.4824  0.1057 -0.1678
11971TIP3    H157404   1.227   2.416   2.964  1.1242 -1.2322  0.9407
11971TIP3    H257405   1.085   2.432   2.914  1.7945  1.8379 -0.1717
11972TIP3   OH257406   4.840   2.255  13.991  0.2953  0.2849  1.1325
11972TIP3    H157407   4.893   2.316  14.043 -1.1629  1.5868  1.1713
11972TIP3    H257408   4.752   2.293  13.992 -0.1269 -0.5004 -0.9837
11973TIP3   OH257409   0.341   2.452  16.567 -0.0206  0.1564 -0.0595
11973TIP3    H157410   0.248   2.429  16.564  0.4570 -1.9380 -2.0991
11973TIP3    H257411   0.364   2.467  16.475  1.7056  0.3663  0.3909
11974TIP3   OH257412   2.906   1.241   3.140  0.4667  0.4703 -0.3228
11974TIP3    H157413   2.873   1.279   3.221 -0.4633  0.3550 -0.6369
11974TIP3    H257414   2.850   1.278   3.072  2.3862  2.0197 -1.1648
11975TIP3   OH257415   1.388   6.304   1.339  0.0423 -0.1263  0.2728
11975TIP3    H157416   1.431   6.234   1.387  1.0504 -0.0497 -0.5002
11975TIP3    H257417   1.455   6.371   1.329 -0.5143  0.3694 -0.1983
11976TIP3   OH257418   2.438   6.005  13.976 -0.0881  0.2865 -0.4626
11976TIP3    H157419   2.510   6.048  13.931  1.3643 -0.1961  1.2671
11976TIP3    H257420   2.360   6.054  13.949  0.7115  0.2997 -3.0505
11977TIP3   OH257421   2.233   5.863   5.930  0.2713  0.0103 -0.0521
11977TIP3    H157422   2.276   5.904   6.005 -2.0712 -1.4879  2.2962
11977TIP3    H257423   2.260   5.772   5.934  2.6470  0.4364 -3.1001
11978TIP3   OH257424   5.860   0.748  11.079  0.1166 -0.0484 -0.0978
11978TIP3    H157425   5.802   0.729  11.153 -0.9176  1.2685 -0.5212
11978TIP3    H257426   5.812   0.814  11.028  1.5986  0.3945 -0.9706
11979TIP3   OH257427   5.203   5.250  15.233 -0.3627  0.0479 -0.0470
11979TIP3    H157428   5.227   5.295  15.152 -0.7928 -0.2947 -0.3687
11979TIP3    H257429   5.279   5.262  15.290 -0.3662  0.9523 -0.2164
11980TIP3   OH257430   3.782   2.919  14.731 -0.4243  0.8433  0.1024
11980TIP3    H157431   3.692   2.930  14.699 -0.4286  0.5378  0.0092
11980TIP3    H257432   3.772   2.896  14.823 -0.4726  0.0151 -0.1025
11981TIP3   OH257433   3.385   5.691   6.008  0.1205  0.4163 -0.6247
11981TIP3    H157434   3.393   5.609   5.958  0.6294 -0.0852  0.2408
11981TIP3    H257435   3.298   5.725   5.986 -0.7809 -1.2050  0.2236
11982TIP3   OH257436   1.200   2.521  14.561 -0.4350  0.3419 -0.6548
11982TIP3    H157437   1.108   2.513  14.586 -0.0007 -1.3921  0.5680
11982TIP3    H257438   1.229   2.431  14.548  1.7123  0.6157  1.4493
11983TIP3   OH257439   6.689   3.856   0.510  0.4526 -0.1167 -0.0409
11983TIP3    H157440   6.594   3.844   0.510  0.4881 -0.4163  0.0369
11983TIP3    H257441   6.721   3.789   0.571  0.6512  0.4950  0.5421
11984TIP3   OH257442   6.361   1.431  16.992  0.0524  0.3157 -0.1350
11984TIP3    H157443   6.366   1.374  16.916 -1.7767 -0.3949  0.2247
11984TIP3    H257444   6.392   1.516  16.960 -0.7047  0.0416 -1.6922
11985TIP3   OH257445   6.307   5.514  10.417  0.1165 -0.0251  0.0641
11985TIP3    H157446   6.314   5.467  10.333  0.5652  0.5762 -0.2392
11985TIP3    H257447   6.299   5.606  10.392 -0.6689  0.0785  0.6620
11986TIP3   OH257448   5.426   0.561   5.508  0.7515  0.3746 -0.4566
11986TIP3    H157449   5.365   0.634   5.513  1.2428  0.7448  0.3973
11986TIP3    H257450   5.468   0.559   5.594  0.7700 -0.8971 -0.4729
11987TIP3   OH257451   6.011   6.766   6.336  0.1162  0.4417  0.0007
11987TIP3    H157452   6.034   6.722   6.418 -0.3810  0.2108  0.0193
11987TIP3    H257453   6.095   6.799   6.302  0.5950 -0.9869 -0.2924
11988TIP3   OH257454   2.515   5.747   2.552 -0.9378 -0.2121 -0.8793
11988TIP3    H157455   2.553   5.661   2.532 -1.2586 -0.0326 -2.3466
11988TIP3    H257456   2.590   5.807   2.547 -0.9877 -0.1916 -1.3783
11989TIP3   OH257457   2.558   0.617   4.890  0.5147 -0.0519  0.5186
11989TIP3    H157458   2.557   0.638   4.797  1.6016  0.3764  0.5849
11989TIP3    H257459   2.535   0.524   4.894 -4.2366  0.8577  0.2109
11990TIP3   OH257460   1.490   0.535  12.839 -0.7349  0.8568  0.1229
11990TIP3    H157461   1.565   0.587  12.867  1.1409 -0.7536 -1.5521
11990TIP3    H257462   1.460   0.490  12.918 -0.0048  1.6250  0.8553
11991TIP3   OH257463   6.398   4.183   6.430  0.5601  0.0551  0.7109
11991TIP3    H157464   6.364   4.259   6.382  2.0006  0.0306 -0.4520
11991TIP3    H257465   6.384   4.204   6.522  0.3068  1.4384  0.3774
11992TIP3   OH257466   0.074   5.107   4.405 -0.0090 -0.8490 -0.7187
11992TIP3    H157467   0.048   5.141   4.319 -1.1391 -1.9209 -0.8179
11992TIP3    H257468   0.142   5.043   4.386 -0.1457 -0.9705 -0.7982
11993TIP3   OH257469   2.774   3.711   6.100  0.2355  0.4841  0.4589
11993TIP3    H157470   2.712   3.645   6.131  0.4447 -0.5672 -1.2377
11993TIP3    H257471   2.859   3.681   6.133  0.0702  1.0906  1.4808
11994TIP3   OH257472   3.098   2.211   3.970 -0.0987  0.0444  0.2345
11994TIP3    H157473   3.084   2.173   4.056  0.4811 -0.3363  0.1625
11994TIP3    H257474   3.187   2.187   3.947 -0.4639 -0.4355 -0.7537
11995TIP3   OH257475   2.001   1.849  15.422  0.9315 -0.6068 -0.2528
11995TIP3    H157476   1.947   1.846  15.500 -0.2269  2.6188 -0.7871
11995TIP3    H257477   1.947   1.810  15.353  0.4234 -0.0040 -0.1991
11996TIP3   OH257478   6.692   4.568   4.560  0.6726  0.8363  0.2439
11996TIP3    H157479   6.620   4.542   4.504  1.1948 -1.1834  0.4461
11996TIP3    H257480   6.650   4.602   4.639 -0.1741 -2.1533  1.2152
11997TIP3   OH257481   3.291   2.785  15.794 -0.0758 -0.2151  0.3922
11997TIP3    H157482   3.222   2.749  15.738 -0.8421 -0.5005  1.4979
11997TIP3    H257483   3.357   2.715  15.799  1.2452  0.7118 -2.1512
11998TIP3   OH257484   4.365   0.624  11.022 -0.4893  0.1971 -0.2187
11998TIP3    H157485   4.374   0.664  10.935 -1.8671 -0.5377 -0.7404
11998TIP3    H257486   4.454   0.622  11.057  0.7547 -2.5305 -3.0262
11999TIP3   OH257487   2.512   1.984  14.300  0.0996 -0.3855  0.0006
11999TIP3    H157488   2.424   1.949  14.312  0.0644 -0.3948 -0.2743
11999TIP3    H257489   2.539   2.012  14.388 -1.0095  1.5759 -0.2059
12000TIP3   OH257490   3.615   6.082   4.897 -0.0895  0.6237 -0.5630
12000TIP3    H157491   3.641   6.173   4.915  0.0042  0.6064 -0.6103
12000TIP3    H257492   3.692   6.043   4.855  0.0019  0.4180 -0.2079
12001TIP3   OH257493   3.395   2.908  13.281 -0.4056 -0.8855  0.4172
12001TIP3    H157494   3.398   2.896  13.186  2.6479  0.9485  0.1135
12001TIP3    H257495   3.468   2.968  13.299 -0.1034 -2.1036  4.0616
12002TIP3   OH257496   6.364   3.290   5.573 -0.1868  0.3413  0.1403
12002TIP3    H157497   6.440   3.338   5.606 -0.4182 -0.8580  2.6429
12002TIP3    H257498   6.343   3.228   5.643 -1.8638 -1.1766 -1.6107
12003TIP3   OH257499   5.839   5.514  13.329  0.1973  0.1572 -0.5017
12003TIP3    H157500   5.847   5.606  13.304 -1.1629 -0.1542 -2.2630
12003TIP3    H257501   5.775   5.514  13.401  1.5784  0.7219  0.7834
12004TIP3   OH257502   3.357   2.327   1.544  0.2726 -0.1770  0.0886
12004TIP3    H157503   3.301   2.403   1.561 -0.0559 -0.4135  0.0951
12004TIP3    H257504   3.443   2.351   1.578  0.7007  0.9554 -1.6709
12005TIP3   OH257505   6.161   3.057   4.860 -0.1420  0.5211 -0.2765
12005TIP3    H157506   6.078   3.096   4.835  0.3437  1.4131 -0.5619
12005TIP3    H257507   6.204   3.125   4.913  0.8961  0.5480 -1.1215
12006TIP3   OH257508   1.146   3.553   2.607  0.5314  0.4818 -0.0058
12006TIP3    H157509   1.176   3.484   2.548  2.8372  0.2193  1.3545
12006TIP3    H257510   1.055   3.531   2.625  0.5409 -0.8929 -1.3971
12007TIP3   OH257511   2.225   0.196   0.664 -0.1659 -0.1663  0.0630
12007TIP3    H157512   2.255   0.190   0.573 -0.5377 -2.0596  0.0287
12007TIP3    H257513   2.305   0.204   0.716  0.0214  1.8983 -0.4383
12008TIP3   OH257514   3.099   6.796  15.130  0.1884 -0.3875 -0.7318
12008TIP3    H157515   3.060   6.841  15.205  1.5419 -0.6265  0.1432
12008TIP3    H257516   3.024   6.772  15.075 -0.6825  1.6742 -0.5429
12009TIP3   OH257517   2.742   5.888   4.602 -0.2890  0.0776  0.6836
12009TIP3    H157518   2.794   5.821   4.557  0.9991  1.4429  0.0559
12009TIP3    H257519   2.793   5.911   4.679  1.1204  2.7613 -0.8913
12010TIP3   OH257520   6.177   2.661   4.291 -0.0452  0.2773 -0.8077
12010TIP3    H157521   6.097   2.670   4.343  0.3229  1.9635 -0.4629
12010TIP3    H257522   6.159   2.711   4.212 -0.2187 -1.4248 -1.8935
12011TIP3   OH257523   0.008   6.720  12.498 -0.4934  0.1531 -0.2917
12011TIP3    H157524  -0.023   6.810  12.499 -1.1683 -0.0767 -0.0422
12011TIP3    H257525  -0.070   6.667  12.513  0.2141 -0.3820  1.9097
12012TIP3   OH257526   2.377   1.453  15.169 -0.9127  0.2641  0.3175
12012TIP3    H157527   2.314   1.399  15.216 -0.0659  1.4481  3.0363
12012TIP3    H257528   2.323   1.504  15.107 -1.9616 -2.0027 -0.7444
12013TIP3   OH257529   3.878   5.777   4.060  0.0064  0.3820 -0.5717
12013TIP3    H157530   3.908   5.717   4.128 -0.9262  0.1466 -0.3547
12013TIP3    H257531   3.955   5.831   4.040  0.4455  0.0833  0.2603
12014TIP3   OH257532   6.682   2.574  15.230 -0.2401  0.1880  0.0663
12014TIP3    H157533   6.778   2.574  15.241 -0.3195 -1.7344  1.4352
12014TIP3    H257534   6.654   2.656  15.269  0.8113  0.4309  0.3609
12015TIP3   OH257535   6.410   1.572  16.034  0.6103 -0.0376 -0.1107
12015TIP3    H157536   6.493   1.524  16.034 -0.3064 -1.7309 -0.0429
12015TIP3    H257537   6.432   1.658  15.999  3.0387  0.8104  3.0632
12016TIP3   OH257538   4.128   6.567   1.134  0.1184  0.3128 -0.2731
12016TIP3    H157539   4.105   6.475   1.122 -1.9372  0.9871 -2.1639
12016TIP3    H257540   4.155   6.573   1.226 -1.3017 -1.8716  0.3768
12017TIP3   OH257541   1.480   6.819   0.964 -0.4219 -0.3142  0.2308
12017TIP3    H157542   1.457   6.830   1.056 -3.1554 -1.2367 -0.2635
12017TIP3    H257543   1.464   6.905   0.925 -2.6433 -0.7523  0.0381
12018TIP3   OH257544   2.175   0.070  13.783  0.0250  0.5324 -0.2829
12018TIP3    H157545   2.094   0.118  13.766 -0.2353  0.8904  1.7227
12018TIP3    H257546   2.194   0.024  13.701 -2.7926 -0.4447 -0.4768
12019TIP3   OH257547   6.009   5.986   4.868 -0.8782  0.0565  0.2640
12019TIP3    H157548   6.035   5.975   4.959 -2.0847 -1.3649  0.4687
12019TIP3    H257549   6.055   5.916   4.821 -1.8227 -0.4890  0.1250
12020TIP3   OH257550   4.588   6.091   0.844 -0.2143  0.0325  0.1229
12020TIP3    H157551   4.547   6.025   0.899 -2.3805  0.0289 -1.3868
12020TIP3    H257552   4.670   6.112   0.890 -0.5351 -2.0092  1.8082
12021TIP3   OH257553   5.061   4.438  11.229  0.1409 -0.2458  0.2603
12021TIP3    H157554   5.006   4.477  11.297  1.6855 -0.2650  1.5790
12021TIP3    H257555   5.013   4.360  11.202 -1.3425  0.6919  0.0360
12022TIP3   OH257556   5.910   0.232   3.421  0.2105  0.0728 -0.0019
12022TIP3    H157557   5.933   0.232   3.514 -0.4034 -2.1643  0.2024
12022TIP3    H257558   5.989   0.265   3.377  1.8315 -2.1445  1.0730
12023TIP3   OH257559   4.465   2.572  11.667  0.3504  0.0401  0.4416
12023TIP3    H157560   4.459   2.491  11.718 -0.5152  0.2862  0.7582
12023TIP3    H257561   4.400   2.561  11.597  2.1866 -0.7011 -1.2481
12024TIP3   OH257562   5.813   6.358  14.050 -0.0601 -0.7432 -0.3133
12024TIP3    H157563   5.744   6.294  14.069  0.7663 -2.0130 -1.3834
12024TIP3    H257564   5.798   6.383  13.959 -0.0203  0.1496 -0.0806
12025TIP3   OH257565   1.659   3.806  11.527 -0.1527 -0.2604  0.6312
12025TIP3    H157566   1.651   3.794  11.621  1.2319 -1.7627  0.5878
12025TIP3    H257567   1.745   3.846  11.515  1.3272 -3.4336 -0.1764
12026TIP3   OH257568   2.209   6.410  14.259  0.3774  0.2556  0.0273
12026TIP3    H157569   2.229   6.503  14.265  1.0516  0.0860  0.7541
12026TIP3    H257570   2.295   6.369  14.245  0.0556 -0.2341 -0.5265
12027TIP3   OH257571   6.316   3.371  10.899  0.1390 -0.0214  0.2718
12027TIP3    H157572   6.302   3.464  10.880 -0.4619  0.0730  1.1289
12027TIP3    H257573   6.405   3.368  10.935  0.0621  0.2627  0.4924
12028TIP3   OH257574   4.699   6.123  13.400 -0.2996  0.0434  0.4088
12028TIP3    H157575   4.719   6.211  13.432  0.7628 -0.0534  0.0302
12028TIP3    H257576   4.762   6.066  13.444  0.0942 -0.3106 -0.5757
12029TIP3   OH257577   2.744   5.547  14.851 -0.3148 -0.1092  0.5001
12029TIP3    H157578   2.694   5.559  14.931 -1.7067  0.0044 -0.3635
12029TIP3    H257579   2.688   5.580  14.781  0.6770 -0.6168 -0.5833
12030TIP3   OH257580   5.217   0.558   0.400  0.4165 -0.2236 -0.0510
12030TIP3    H157581   5.124   0.536   0.391 -0.2186  1.0251  2.5602
12030TIP3    H257582   5.223   0.606   0.482  3.5839 -1.2778  0.4785
12031TIP3   OH257583   6.454   1.576  14.657  0.5057  0.4338  0.0611
12031TIP3    H157584   6.441   1.517  14.583 -0.8089 -0.6456  1.0935
12031TIP3    H257585   6.543   1.609  14.646  1.0377 -1.1976 -0.9554
12032TIP3   OH257586   0.006   0.804   4.508 -0.2418  0.1080  0.0985
12032TIP3    H157587  -0.005   0.876   4.569  1.1952  0.3351  0.1411
12032TIP3    H257588  -0.058   0.821   4.439 -1.6468  0.0316  1.3385
12033TIP3   OH257589   5.186   3.903   0.677  0.1525  0.6048 -0.2797
12033TIP3    H157590   5.208   3.828   0.621 -0.9492 -0.0919  0.1877
12033TIP3    H257591   5.128   3.957   0.623 -2.7513 -1.1694  0.7840
12034TIP3   OH257592   1.765   2.102  11.988  0.2229  0.0644 -0.0653
12034TIP3    H157593   1.842   2.141  12.029 -0.5091  1.1138  0.3543
12034TIP3    H257594   1.732   2.169  11.929 -0.3633 -0.3705 -0.2414
12035TIP3   OH257595   5.732   3.497  14.369  0.4830  0.5995  0.1998
12035TIP3    H157596   5.678   3.536  14.300  1.6008  1.1036 -0.4148
12035TIP3    H257597   5.754   3.570  14.426 -0.9129  0.0877  1.4610
12036TIP3   OH257598   5.526   5.625   3.377  0.1633 -0.6941  0.0024
12036TIP3    H157599   5.488   5.575   3.449  0.0757  1.7169  1.7489
12036TIP3    H257600   5.455   5.682   3.348  0.8740  0.0025 -0.4061
12037TIP3   OH257601   5.902   1.821  15.014  0.2838  0.2078 -0.0663
12037TIP3    H157602   5.978   1.850  14.964  1.1903  0.5101  1.4395
12037TIP3    H257603   5.913   1.726  15.022  0.2455  0.1872 -0.2470
12038TIP3   OH257604   0.382   6.415   5.586 -0.1225 -0.1011 -0.2788
12038TIP3    H157605   0.455   6.357   5.565 -0.8577 -0.8967 -0.6604
12038TIP3    H257606   0.331   6.367   5.651  0.1959  0.8550  0.7057
12039TIP3   OH257607   3.717   1.040  15.377 -0.0933 -0.3970  0.5551
12039TIP3    H157608   3.632   0.996  15.381 -1.4477  2.0056  0.3212
12039TIP3    H257609   3.740   1.058  15.468 -0.6199  0.2870  0.5628
12040TIP3   OH257610   3.620   0.864  14.030  0.4680 -0.0400 -0.6581
12040TIP3    H157611   3.675   0.923  14.081  1.3085 -0.2443 -1.2987
12040TIP3    H257612   3.601   0.912  13.950  0.2638 -0.2271 -0.7225
12041TIP3   OH257613   1.084   3.095  11.241  0.0930 -0.0416 -0.0101
12041TIP3    H157614   0.992   3.120  11.235 -0.1908 -0.7826  0.9781
12041TIP3    H257615   1.110   3.078  11.150 -0.8380 -0.1339 -0.2710
12042TIP3   OH257616   5.572   4.173   6.016  0.3067  0.1290 -0.0706
12042TIP3    H157617   5.559   4.147   6.107  0.3191  1.3473  0.2855
12042TIP3    H257618   5.510   4.245   6.002  1.9518  1.5425 -0.3257
12043TIP3   OH257619   4.238   3.866   5.824 -0.5058 -0.1108  0.0101
12043TIP3    H157620   4.182   3.851   5.901 -1.5225 -1.2954 -0.9128
12043TIP3    H257621   4.201   3.944   5.782 -0.8403 -0.2976 -0.0457
12044TIP3   OH257622   2.133   4.244   2.710  0.2377 -0.0822 -0.5378
12044TIP3    H157623   2.220   4.281   2.695  1.6470 -3.0537 -0.5548
12044TIP3    H257624   2.115   4.261   2.802  0.8129  0.5879 -0.5398
12045TIP3   OH257625   5.849   4.512   2.293 -0.0620  0.1658  0.4627
12045TIP3    H157626   5.839   4.463   2.212  0.9774  0.1439  0.3368
12045TIP3    H257627   5.774   4.486   2.346 -0.3961 -0.3170 -0.2333
12046TIP3   OH257628   3.996   1.320   4.364  0.6667 -0.2121 -0.1049
12046TIP3    H157629   3.973   1.406   4.398 -0.0416 -0.2174 -0.5674
12046TIP3    H257630   4.092   1.319   4.366  0.7314  1.0792 -1.3019
12047TIP3   OH257631   6.838   5.816   1.320  0.0435  0.2324  0.0225
12047TIP3    H157632   6.825   5.907   1.295  1.0163  0.3945  0.0734
12047TIP3    H257633   6.875   5.775   1.242  1.7326  0.4078  0.6959
12048TIP3   OH257634   3.473   1.279  12.874  0.4509  0.1811  0.4344
12048TIP3    H157635   3.447   1.326  12.953 -0.1847  0.0887  0.2864
12048TIP3    H257636   3.553   1.323  12.845 -0.6725  1.8677 -0.2866
12049TIP3   OH257637   3.548   5.814   5.335  0.0565  0.1422 -0.3686
12049TIP3    H157638   3.606   5.800   5.410 -1.0332  0.1719  0.5210
12049TIP3    H257639   3.481   5.746   5.343 -1.6663  1.8011  0.3349
12050TIP3   OH257640   3.167   0.615   4.278  0.6024  0.0704  0.1140
12050TIP3    H157641   3.234   0.611   4.347  0.6391  0.2963  0.0911
12050TIP3    H257642   3.100   0.552   4.306  0.4437  0.4227  0.5387
12051TIP3   OH257643   0.096   3.947   1.708 -0.2555 -0.4402  0.2180
12051TIP3    H157644   0.085   3.861   1.667 -0.6246  0.7683 -2.5168
12051TIP3    H257645   0.135   3.929   1.793  0.8668 -3.2228 -0.7615
12052TIP3   OH257646   5.520   4.915  11.438 -0.2485 -1.0305  0.5840
12052TIP3    H157647   5.436   4.879  11.412 -0.5389 -0.6558  0.9965
12052TIP3    H257648   5.553   4.854  11.504  0.0728 -1.4842  0.0234
12053TIP3   OH257649   1.681   2.417   3.143 -0.0411 -0.1240 -0.5875
12053TIP3    H157650   1.717   2.493   3.189 -1.8909  0.6076 -0.2549
12053TIP3    H257651   1.678   2.348   3.208  0.5858 -0.1502 -0.5796
12054TIP3   OH257652   6.752   6.209   0.050  0.2519  0.1847 -0.1330
12054TIP3    H157653   6.821   6.232   0.112  0.5152 -2.1020  0.5473
12054TIP3    H257654   6.681   6.174   0.104 -0.8376  1.0951 -0.9234
12055TIP3   OH257655   0.016   3.786   5.751  0.5466 -0.3931 -0.1030
12055TIP3    H157656  -0.068   3.832   5.755  0.3862 -0.7013  0.1242
12055TIP3    H257657   0.067   3.822   5.823  0.2946 -0.8102  0.2905
12056TIP3   OH257658   2.816   2.081  15.913 -0.3817 -0.4155 -0.6239
12056TIP3    H157659   2.799   1.992  15.945 -0.2784 -0.3218 -0.3066
12056TIP3    H257660   2.729   2.118  15.900 -0.4820  0.2153  1.4166
12057TIP3   OH257661   6.472   0.243  11.775  0.3326  0.6503 -0.0138
12057TIP3    H157662   6.419   0.322  11.777 -0.9527 -0.1855  0.1160
12057TIP3    H257663   6.462   0.209  11.685  1.7269  1.1829 -0.3844
12058TIP3   OH257664   4.953   0.145  15.378  0.4137 -0.5630  0.5518
12058TIP3    H157665   4.883   0.135  15.442  0.6636 -2.4095  0.5945
12058TIP3    H257666   5.023   0.190  15.426  0.5574 -1.8223  1.5605
12059TIP3   OH257667   5.314   6.741   1.544  0.4474  0.0155  0.0628
12059TIP3    H157668   5.255   6.785   1.605  0.8206  0.4687  0.1001
12059TIP3    H257669   5.256   6.689   1.487  0.1567 -1.2195  1.4292
12060TIP3   OH257670   6.254   3.718   1.144 -0.9135 -0.6363 -0.4321
12060TIP3    H157671   6.206   3.676   1.214 -0.9883 -1.0684 -0.7383
12060TIP3    H257672   6.303   3.647   1.102  2.1211  0.1301  1.4936
12061TIP3   OH257673   5.925   5.855  11.822  0.7232  0.3904 -0.5660
12061TIP3    H157674   5.854   5.914  11.796  0.1228  0.0066  0.1304
12061TIP3    H257675   5.883   5.769  11.826  0.5045  0.5262  2.4584
12062TIP3   OH257676   3.606   6.116   1.515 -0.0225  0.1722 -0.1790
12062TIP3    H157677   3.607   6.207   1.545  0.1862  0.4072 -0.8705
12062TIP3    H257678   3.679   6.111   1.453 -0.7421 -0.1606 -1.0224
12063TIP3   OH257679   6.840   0.905  16.149  0.4853 -0.0444 -0.0563
12063TIP3    H157680   6.836   0.935  16.058 -2.5697 -1.4307 -0.4869
12063TIP3    H257681   6.893   0.825  16.146  1.4589  0.5818 -0.3268
12064TIP3   OH257682   2.319   2.125   6.064 -0.0937 -0.4285 -0.0956
12064TIP3    H157683   2.308   2.032   6.042  1.4508 -1.0252  1.4286
12064TIP3    H257684   2.361   2.124   6.149 -0.8846  1.7175  0.3681
12065TIP3   OH257685   2.293   6.184  11.675 -0.1636 -0.5049  0.2385
12065TIP3    H157686   2.232   6.155  11.607 -0.1159  0.7417 -0.3668
12065TIP3    H257687   2.257   6.147  11.756 -1.3479 -0.3677 -0.1962
12066TIP3   OH257688   0.545   1.224   2.309  0.0123  0.3830 -0.5318
12066TIP3    H157689   0.517   1.285   2.240  0.7788  1.9008  0.4660
12066TIP3    H257690   0.636   1.247   2.325  0.2313 -0.8678  0.0642
12067TIP3   OH257691   2.322   1.490   4.519 -0.3283 -0.0630  0.1016
12067TIP3    H157692   2.355   1.577   4.496  0.5157 -0.2376  0.6277
12067TIP3    H257693   2.251   1.474   4.457 -0.4815  0.9953 -0.0077
12068TIP3   OH257694   0.405   0.163  13.742  0.3344 -0.3606  0.1982
12068TIP3    H157695   0.410   0.256  13.717 -0.6395  0.4497  2.6482
12068TIP3    H257696   0.360   0.121  13.669  0.7732  1.0954 -0.9602
12069TIP3   OH257697   2.817   1.697  14.561  0.4398 -0.5862 -0.2784
12069TIP3    H157698   2.798   1.606  14.537 -0.6120 -0.6071  0.5407
12069TIP3    H257699   2.812   1.745  14.479  0.2450 -1.1560 -0.6046
12070TIP3   OH257700   3.813   2.600   3.330  0.3159  0.1515 -0.3051
12070TIP3    H157701   3.881   2.533   3.331  1.1497  0.9873 -0.3599
12070TIP3    H257702   3.788   2.609   3.238  1.2528  0.9432 -0.5011
12071TIP3   OH257703   1.702   1.629   2.029  0.1940  0.1320  0.8201
12071TIP3    H157704   1.606   1.628   2.027  0.1010  0.0818  2.7086
12071TIP3    H257705   1.723   1.631   2.123  2.0474 -3.0464  0.6065
12072TIP3   OH257706   2.214   3.293  11.419  0.1411  0.2878 -0.3752
12072TIP3    H157707   2.248   3.211  11.384 -0.5991 -0.0875 -0.2419
12072TIP3    H257708   2.216   3.353  11.344 -0.8192 -0.3210 -0.9190
12073TIP3   OH257709   6.273   6.728  16.276 -0.3907  0.1809  0.2583
12073TIP3    H157710   6.218   6.806  16.272 -1.0586 -0.3255 -0.9934
12073TIP3    H257711   6.287   6.713  16.370 -0.9536  1.2985  0.5403
12074TIP3   OH257712   2.820   4.544   3.955  1.3461 -0.2559  0.1136
12074TIP3    H157713   2.783   4.488   4.022  0.5333  0.7333  0.5207
12074TIP3    H257714   2.915   4.529   3.960  1.1351 -1.7763 -0.0008
12075TIP3   OH257715   2.217   1.341   0.505  0.2624 -0.0342 -0.6401
12075TIP3    H157716   2.195   1.434   0.493 -0.7896 -0.2972 -0.8425
12075TIP3    H257717   2.244   1.335   0.597  0.7222  0.5389 -0.7314
12076TIP3   OH257718   5.709   3.294  14.652  0.8501  0.0127  0.0270
12076TIP3    H157719   5.658   3.214  14.660 -0.3309  0.7573  0.2349
12076TIP3    H257720   5.701   3.319  14.560  1.4798 -0.2751 -0.1064
12077TIP3   OH257721   1.174   6.432  13.411  0.3859 -0.1462  0.0104
12077TIP3    H157722   1.118   6.392  13.345  2.1002 -1.8261 -0.5031
12077TIP3    H257723   1.120   6.434  13.490 -0.9112 -0.2590 -0.8525
12078TIP3   OH257724   2.552   2.252  12.762  0.0735 -0.0730 -0.5625
12078TIP3    H157725   2.486   2.205  12.814  0.5133  0.3573  0.4164
12078TIP3    H257726   2.604   2.300  12.827 -0.0415  1.3621 -1.4758
12079TIP3   OH257727   4.305   2.882  13.053 -0.1514  0.2395  0.3796
12079TIP3    H157728   4.256   2.921  13.126 -0.2450 -1.4708  1.2703
12079TIP3    H257729   4.357   2.812  13.092  0.6192 -0.0365 -1.0422
12080TIP3   OH257730   0.519   3.904   2.120 -0.3910 -1.1752 -0.5126
12080TIP3    H157731   0.521   3.918   2.026 -1.4056 -0.4855 -0.4420
12080TIP3    H257732   0.529   3.991   2.159 -0.9147 -1.3321 -0.0019
12081TIP3   OH257733   0.278   2.112  13.826 -0.3808 -0.0376  0.2512
12081TIP3    H157734   0.191   2.076  13.841 -0.1135 -0.3734  1.0309
12081TIP3    H257735   0.334   2.066  13.888  0.0684  1.3793  0.9470
12082TIP3   OH257736   3.619   4.642   2.319 -0.0262  0.2266  0.3777
12082TIP3    H157737   3.662   4.559   2.300  0.7258  0.6647  0.1468
12082TIP3    H257738   3.627   4.652   2.414 -1.0648 -0.4755  0.5492
12083TIP3   OH257739   4.893   3.497  10.910 -0.1383  0.1620  0.2161
12083TIP3    H157740   4.832   3.487  10.983  0.2009  3.1929  1.0236
12083TIP3    H257741   4.959   3.430  10.925 -1.1704 -0.6097  1.5308
12084TIP3   OH257742   6.261   1.095  15.756 -0.8409  0.2406  0.3039
12084TIP3    H157743   6.254   1.010  15.712 -0.5768  0.1916  0.3541
12084TIP3    H257744   6.331   1.140  15.709 -0.4110  0.1067  0.7982
12085TIP3   OH257745   0.136   2.205  14.319 -0.0595  0.0727 -0.0178
12085TIP3    H157746   0.183   2.194  14.236  1.0287 -3.4677  0.9056
12085TIP3    H257747   0.198   2.175  14.386 -2.6184 -2.2230  1.5154
12086TIP3   OH257748   3.315   2.344  10.857  0.0177  0.0216 -0.0111
12086TIP3    H157749   3.290   2.279  10.792 -1.5941  0.6692 -0.0935
12086TIP3    H257750   3.240   2.347  10.917  0.5934  0.9064  0.6781
12087TIP3   OH257751   1.709   2.043  10.556 -0.4073 -0.4520 -0.0211
12087TIP3    H157752   1.654   2.097  10.500 -1.2792 -2.4612 -1.1683
12087TIP3    H257753   1.739   2.104  10.624 -0.5187  1.7090 -1.7672
12088TIP3   OH257754   3.435   6.815  12.402 -0.1123  0.1581  0.1039
12088TIP3    H157755   3.442   6.900  12.359  1.2623  0.4169  0.7724
12088TIP3    H257756   3.482   6.755  12.345  0.7463  0.2841  0.6508
12089TIP3   OH257757   1.714   1.650  14.565 -0.1949  0.0293 -0.7742
12089TIP3    H157758   1.654   1.576  14.555 -0.6632  0.4584 -1.1949
12089TIP3    H257759   1.659   1.720  14.600  0.4809 -0.1338  0.7165
12090TIP3   OH257760   0.754   4.934  12.159  0.0601  0.3554  0.3579
12090TIP3    H157761   0.846   4.908  12.166 -0.0215 -0.3690 -0.9148
12090TIP3    H257762   0.735   4.930  12.065 -1.0661  1.2475  0.5219
12091TIP3   OH257763   3.263   6.421   4.070  0.2997 -0.1765 -0.0593
12091TIP3    H157764   3.265   6.433   3.975  1.8892 -1.3721 -0.1986
12091TIP3    H257765   3.347   6.454   4.101  0.0408 -0.3477  0.8695
12092TIP3   OH257766   4.765   3.225  10.817  0.3992 -0.0881  0.3173
12092TIP3    H157767   4.829   3.229  10.747  0.0465  1.7244  0.0609
12092TIP3    H257768   4.682   3.247  10.775  0.0597  0.2721  1.1522
12093TIP3   OH257769   2.959   2.854   1.940  0.2638 -0.2688 -0.2085
12093TIP3    H157770   3.041   2.838   1.986 -0.0994  0.0871  0.5719
12093TIP3    H257771   2.915   2.768   1.938  1.2052 -0.7663 -1.7816
12094TIP3   OH257772   3.509   1.161  14.320  0.0411  0.4488 -0.2408
12094TIP3    H157773   3.527   1.223  14.250  1.3223 -1.1369 -1.4021
12094TIP3    H257774   3.434   1.110  14.288 -2.9877  3.0470  1.9305
12095TIP3   OH257775   2.743   4.102   0.801 -0.5369 -0.0044 -0.2888
12095TIP3    H157776   2.733   4.042   0.876 -0.9216  1.4656  0.8917
12095TIP3    H257777   2.671   4.164   0.811  2.1271  3.1823  1.0317
12096TIP3   OH257778   1.818   1.496  13.185 -0.5027  0.2823 -0.4761
12096TIP3    H157779   1.773   1.473  13.267  0.1404  2.8124  0.7084
12096TIP3    H257780   1.911   1.494  13.208 -0.3696  2.8527 -0.5104
12097TIP3   OH257781   6.023   1.206   3.690  0.0344 -0.6312  0.3306
12097TIP3    H157782   6.006   1.265   3.764  1.5476  1.0292 -0.5834
12097TIP3    H257783   5.943   1.209   3.638  0.5718  1.8439 -0.4608
12098TIP3   OH257784   1.073   1.229   1.170  0.7697  0.1224 -0.0333
12098TIP3    H157785   1.022   1.284   1.229  0.4292  0.4660 -0.6282
12098TIP3    H257786   1.145   1.196   1.223 -0.3271 -0.7496  0.9478
12099TIP3   OH257787   1.145   3.415   5.886 -0.0209 -0.5921  0.2179
12099TIP3    H157788   1.152   3.460   5.802  2.0991 -1.0174  0.1075
12099TIP3    H257789   1.149   3.485   5.951 -0.1392 -0.3752 -0.0070
12100TIP3   OH257790   6.086   1.910  16.033 -0.5827  0.3449 -0.4944
12100TIP3    H157791   6.110   1.846  15.967 -0.1903  1.9135 -1.9599
12100TIP3    H257792   5.994   1.893  16.052 -0.5667 -0.4293 -1.0995
12101TIP3   OH257793   5.811   6.831   5.116 -0.2448 -0.4754  0.2266
12101TIP3    H157794   5.866   6.783   5.054  1.9688  0.9144  1.0296
12101TIP3    H257795   5.838   6.922   5.108 -2.3690  0.2672  0.7734
12102TIP3   OH257796   3.836   2.427  15.703  0.1147 -0.0675 -0.4985
12102TIP3    H157797   3.792   2.378  15.633 -0.6485  0.0066 -0.0857
12102TIP3    H257798   3.778   2.417  15.779  0.2982  0.8812 -0.2184
12103TIP3   OH257799   1.651   2.830   1.033 -0.2575  0.1976 -0.3772
12103TIP3    H157800   1.641   2.776   1.111 -1.1985 -1.2401 -1.4408
12103TIP3    H257801   1.598   2.787   0.966  0.9452  1.0680 -1.9863
12104TIP3   OH257802   1.853   4.860   3.829  0.1089  0.1732 -0.5351
12104TIP3    H157803   1.923   4.862   3.895  1.2108 -0.0996 -1.6510
12104TIP3    H257804   1.899   4.843   3.747 -1.4025 -1.1956 -1.1498
12105TIP3   OH257805   0.541   2.191  10.199  0.2202 -0.4358 -0.2650
12105TIP3    H157806   0.626   2.211  10.237  0.2976 -0.6839 -0.3103
12105TIP3    H257807   0.551   2.104  10.161  0.3178  0.0336 -1.3617
12106TIP3   OH257808   4.574   4.835  15.149 -0.0235  0.2019 -0.0390
12106TIP3    H157809   4.613   4.817  15.063  1.4852  0.5109  0.5553
12106TIP3    H257810   4.495   4.886  15.129  0.9670  1.3583 -1.1973
12107TIP3   OH257811   5.410   5.154  14.277 -0.3259  0.0996  0.4555
12107TIP3    H157812   5.452   5.082  14.229  1.0229  0.0709  1.6179
12107TIP3    H257813   5.324   5.163  14.236 -0.5252 -2.1583  0.2701
12108TIP3   OH257814   1.147   6.235   0.219 -0.6731  0.0972 -0.0590
12108TIP3    H157815   1.119   6.278   0.300 -0.2751  0.3888 -0.0755
12108TIP3    H257816   1.117   6.144   0.229  0.4748 -0.2033  0.9869
12109TIP3   OH257817   1.674   5.959  12.960  0.3976  0.1800  0.3055
12109TIP3    H157818   1.639   5.990  12.877 -0.7840 -0.2284  0.6253
12109TIP3    H257819   1.617   5.997  13.027  1.2842  0.4428  0.9384
12110TIP3   OH257820   4.951   6.439   3.519  0.2352 -0.5676  0.3283
12110TIP3    H157821   4.906   6.512   3.477 -2.1508 -1.7981  0.5198
12110TIP3    H257822   5.043   6.464   3.521  0.1067  0.6989 -3.1601
12111TIP3   OH257823   1.659   5.383   4.408 -0.0611  0.3396 -0.2364
12111TIP3    H157824   1.602   5.440   4.461 -0.7903 -0.2306 -0.3979
12111TIP3    H257825   1.693   5.318   4.470  0.0084  0.3681 -0.2442
12112TIP3   OH257826   6.686   2.752   5.840  0.1363  0.2779 -0.0999
12112TIP3    H157827   6.627   2.711   5.777  0.1872 -0.5947  0.4043
12112TIP3    H257828   6.703   2.684   5.905  0.8150  0.8707  0.3630
12113TIP3   OH257829   0.191   4.966   5.643  0.9226 -0.1946  0.0426
12113TIP3    H157830   0.148   4.978   5.728 -1.3822 -1.3918 -0.8740
12113TIP3    H257831   0.221   4.875   5.643 -1.1574 -0.9395 -1.2325
12114TIP3   OH257832   5.192   0.914   6.144  0.0316 -0.0681 -0.3330
12114TIP3    H157833   5.158   0.827   6.162  0.8701 -0.5443 -0.9695
12114TIP3    H257834   5.273   0.920   6.196 -0.2665  0.5159  0.0789
12115TIP3   OH257835   3.025   6.618  12.893 -0.1425  0.1845 -0.1842
12115TIP3    H157836   2.976   6.622  12.976  1.0301 -1.0276  0.6152
12115TIP3    H257837   2.998   6.535  12.853  1.4108 -0.6662  0.4260
12116TIP3   OH257838   2.060   6.083   4.568 -0.2157  0.4663 -0.1005
12116TIP3    H157839   2.143   6.084   4.617 -0.1472  1.3213 -0.2253
12116TIP3    H257840   2.005   6.147   4.612 -1.3150 -1.0288  0.7941
12117TIP3   OH257841   4.469   2.847   1.384 -0.0912  0.3436 -0.0093
12117TIP3    H157842   4.546   2.843   1.328  0.4291 -1.1631  0.7466
12117TIP3    H257843   4.439   2.937   1.379  0.5489  0.4754 -1.8644
12118TIP3   OH257844   0.195   5.476  16.980  0.0550  0.6749  0.2482
12118TIP3    H157845   0.287   5.450  16.977 -0.2984 -0.5564 -1.7462
12118TIP3    H257846   0.153   5.412  17.038  0.4739  1.4359  1.4258
12119TIP3   OH257847   1.790   6.102   0.340  0.0239  0.8910  0.5417
12119TIP3    H157848   1.860   6.038   0.347  0.0568  0.9168  0.4445
12119TIP3    H257849   1.811   6.168   0.406  0.9333  1.7101 -0.5351
12120TIP3   OH257850   2.257   0.369  12.900  0.0781 -0.3147 -0.2745
12120TIP3    H157851   2.252   0.433  12.829  1.0661 -0.1435 -0.2040
12120TIP3    H257852   2.189   0.396  12.962  0.9170  1.0879  0.0820
12121TIP3   OH257853   0.238   3.798  16.563 -1.2176 -0.2447 -0.1047
12121TIP3    H157854   0.152   3.834  16.542 -0.8971  0.0632 -0.9159
12121TIP3    H257855   0.232   3.706  16.539 -1.3225 -0.2221 -0.1678
12122TIP3   OH257856   1.205   4.472   4.416  0.5980 -0.6697  0.2671
12122TIP3    H157857   1.221   4.393   4.365 -0.9925  0.4263 -2.0877
12122TIP3    H257858   1.272   4.534   4.387  0.3647 -0.3908  0.3200
12123TIP3   OH257859   4.092   1.074   5.644  0.1609  0.1244  0.4196
12123TIP3    H157860   4.135   1.009   5.587  2.0620  1.4298  0.2819
12123TIP3    H257861   4.162   1.105   5.701 -1.1885  0.5939  1.8762
12124TIP3   OH257862   0.528   6.593   5.134 -0.2930 -0.4389  0.5490
12124TIP3    H157863   0.570   6.547   5.207 -1.4924 -0.0300  1.5262
12124TIP3    H257864   0.435   6.592   5.155 -0.7689 -1.0123 -1.3977
12125TIP3   OH257865   1.553   1.112   2.686 -0.2622  0.1784 -0.1092
12125TIP3    H157866   1.601   1.187   2.719 -0.3627  0.2575 -0.1408
12125TIP3    H257867   1.608   1.077   2.616 -0.0304 -0.0158  0.1724
12126TIP3   OH257868   6.345   5.493   3.870  0.5593 -0.0296  0.0259
12126TIP3    H157869   6.404   5.425   3.837  2.1490  0.0768  2.3783
12126TIP3    H257870   6.296   5.450   3.940  0.0783  0.6908  0.1358
12127TIP3   OH257871   4.176   4.300   4.169  0.1415  0.8773 -0.1400
12127TIP3    H157872   4.152   4.313   4.078  0.6428  1.3600 -0.2084
12127TIP3    H257873   4.125   4.224   4.197  1.0778 -0.2144 -1.2486
12128TIP3   OH257874   2.234   2.692   0.752  0.0344 -0.1420 -0.4410
12128TIP3    H157875   2.181   2.698   0.672 -2.3623 -0.0278  1.0712
12128TIP3    H257876   2.272   2.780   0.761 -2.4572  0.9361  0.2955
12129TIP3   OH257877   4.324   6.805   3.040  0.2754  0.0573  0.0094
12129TIP3    H157878   4.240   6.776   3.074  0.6002 -0.8296  0.0585
12129TIP3    H257879   4.389   6.760   3.093  0.8161  1.8911  0.9861
12130TIP3   OH257880   5.816   2.656  16.429 -0.4228  0.4469 -0.2913
12130TIP3    H157881   5.741   2.715  16.421 -0.1640  0.6947 -1.0134
12130TIP3    H257882   5.849   2.648  16.339  1.7359  2.1013  0.2652
12131TIP3   OH257883   4.835   0.533   0.542  0.4014  0.3374 -0.1224
12131TIP3    H157884   4.750   0.531   0.584  1.0413 -1.9989  1.2753
12131TIP3    H257885   4.862   0.625   0.545 -1.4889  0.9067  0.5718
12132TIP3   OH257886   4.925   3.118  11.253  0.0800 -0.3117 -0.4366
12132TIP3    H157887   4.922   3.146  11.344 -0.4223  0.4116 -0.6735
12132TIP3    H257888   5.014   3.082  11.242  0.0115 -0.7615  0.4325
12133TIP3   OH257889   5.124   6.797   2.732  0.0932  0.0969  0.0859
12133TIP3    H157890   5.201   6.744   2.749 -0.8509 -1.5668 -0.5418
12133TIP3    H257891   5.092   6.823   2.818  0.2607 -0.8657  0.4468
12134TIP3   OH257892   0.181   0.048   1.983  0.1257  0.1569 -0.6496
12134TIP3    H157893   0.111  -0.002   1.941  0.6767  0.1777 -1.6104
12134TIP3    H257894   0.145   0.071   2.069 -0.8634 -0.2299 -0.9433
12135TIP3   OH257895   6.824   5.948   2.149  0.1174 -0.1999  0.0986
12135TIP3    H157896   6.748   5.949   2.091  0.1168  1.7616  0.0594
12135TIP3    H257897   6.845   6.041   2.162  1.9245 -0.6757  0.8687
12136TIP3   OH257898   0.587   2.273  13.194 -0.3346 -0.6562  0.1738
12136TIP3    H157899   0.632   2.342  13.145  1.2925 -1.5397  0.3742
12136TIP3    H257900   0.576   2.202  13.131 -3.4011  0.2389 -0.4962
12137TIP3   OH257901   4.084   2.906  14.954  0.2562 -0.3715  0.3255
12137TIP3    H157902   4.094   2.998  14.979  2.5887 -0.5967  0.3791
12137TIP3    H257903   4.054   2.862  15.033 -1.3264  0.3705  0.1825
12138TIP3   OH257904   4.767   0.384  15.336 -0.2696  0.9382  0.0369
12138TIP3    H157905   4.855   0.357  15.363 -1.3562 -1.0851  1.8879
12138TIP3    H257906   4.719   0.302  15.326 -2.6706  2.0401  1.7346
12139TIP3   OH257907   6.357   0.407  14.163 -0.2780 -0.0459 -0.5927
12139TIP3    H157908   6.418   0.470  14.124 -0.5927  0.3970 -0.3914
12139TIP3    H257909   6.277   0.458  14.177  0.0214 -0.0044  1.2285
12140TIP3   OH257910   4.084   6.200  14.471 -0.5479  0.5815 -0.3780
12140TIP3    H157911   4.058   6.184  14.380 -0.6177  2.4970 -0.7388
12140TIP3    H257912   4.006   6.179  14.522 -0.3965 -0.8577 -0.6977
12141TIP3   OH257913   1.014   0.825   6.162 -0.3068 -0.1671 -0.2588
12141TIP3    H157914   0.991   0.906   6.116 -0.9983 -1.7413 -2.9190
12141TIP3    H257915   0.971   0.833   6.248 -0.5694  2.1281 -0.5482
12142TIP3   OH257916   2.065   4.990  15.558  0.5601  0.0793 -0.0938
12142TIP3    H157917   2.099   5.058  15.615 -0.6087  0.8680 -0.2901
12142TIP3    H257918   2.059   5.031  15.472  1.5735 -0.8575 -0.6415
12143TIP3   OH257919   2.456   4.043   0.317  0.4737  0.5431 -0.6084
12143TIP3    H157920   2.506   4.029   0.398 -0.4975 -0.7696 -0.1949
12143TIP3    H257921   2.475   3.965   0.265 -1.1613 -0.0209 -0.4125
12144TIP3   OH257922   0.790   4.921  14.723  0.4452  0.3400 -0.2836
12144TIP3    H157923   0.820   4.987  14.786 -0.5506  0.5135  0.0279
12144TIP3    H257924   0.859   4.918  14.657  0.2906  2.0825 -0.5902
12145TIP3   OH257925   0.451   2.681   5.000 -0.7606 -0.2775  0.2678
12145TIP3    H157926   0.519   2.749   5.005 -2.7284  1.9745 -1.4473
12145TIP3    H257927   0.445   2.647   5.089  1.6956  0.3202  0.7445
12146TIP3   OH257928   6.058   4.910  15.237  0.4931 -0.1248  0.3927
12146TIP3    H157929   6.100   4.849  15.175 -0.9187  0.1124 -0.8597
12146TIP3    H257930   6.092   4.884  15.322  1.6138 -1.2398 -0.3503
12147TIP3   OH257931   0.712   3.904   2.400 -0.6664  0.1372 -0.0926
12147TIP3    H157932   0.718   3.814   2.431 -1.1650 -0.4065 -1.4864
12147TIP3    H257933   0.787   3.914   2.342  1.0464  1.5694  2.2007
12148TIP3   OH257934   4.791   2.171   0.290  0.1474 -0.1784  0.1209
12148TIP3    H157935   4.858   2.189   0.355  0.6599 -0.0489 -0.4400
12148TIP3    H257936   4.733   2.108   0.332  1.0376 -0.8622  0.3358
12149TIP3   OH257937   5.659   6.150   5.268 -0.5373 -0.1582 -0.5916
12149TIP3    H157938   5.602   6.201   5.210 -0.8242 -0.4509 -0.5725
12149TIP3    H257939   5.609   6.070   5.287 -1.6905  1.1065  2.3145
12150TIP3   OH257940   2.214   2.521  13.299  0.0366  0.2612 -0.0918
12150TIP3    H157941   2.263   2.497  13.378  1.0282 -0.1338 -0.8161
12150TIP3    H257942   2.262   2.480  13.227 -0.3106  1.4110 -1.0077
12151TIP3   OH257943   4.742   0.639   5.840  0.6827 -0.5832 -0.1503
12151TIP3    H157944   4.792   0.714   5.873 -0.5491  1.3647 -2.3488
12151TIP3    H257945   4.728   0.584   5.917  1.3360  1.6461  1.6962
12152TIP3   OH257946   6.270   0.865   0.605  0.0725 -0.0747 -0.0910
12152TIP3    H157947   6.332   0.907   0.664 -0.9099  1.4400 -0.0785
12152TIP3    H257948   6.272   0.773   0.630 -0.9881  0.6066  3.0096
12153TIP3   OH257949   4.352   1.298   3.446 -0.7122  0.2351  0.9818
12153TIP3    H157950   4.424   1.255   3.399 -1.4220 -0.5490  0.5970
12153TIP3    H257951   4.378   1.390   3.449  0.4029 -0.0626  1.0244
12154TIP3   OH257952   4.400   4.525   0.739 -0.0322 -0.6481  0.2652
12154TIP3    H157953   4.329   4.522   0.676  0.3224  0.3464 -0.2164
12154TIP3    H257954   4.358   4.546   0.822 -0.4332 -1.3407  0.2366
12155TIP3   OH257955   0.019   3.871  14.643 -0.4624  0.3053  0.2080
12155TIP3    H157956  -0.007   3.938  14.579 -1.3117 -0.4748 -0.2898
12155TIP3    H257957   0.022   3.918  14.726  0.1364  1.2216 -0.3165
12156TIP3   OH257958   2.837   1.552  16.990  0.4426  0.1249 -0.2103
12156TIP3    H157959   2.824   1.470  17.039  2.8275  0.1938  0.6404
12156TIP3    H257960   2.877   1.611  17.053  0.0103  1.5338 -1.2122
12157TIP3   OH257961   0.711   3.849   4.634  0.0338  0.5660 -0.2621
12157TIP3    H157962   0.658   3.909   4.685  0.0084  1.5513 -1.4048
12157TIP3    H257963   0.683   3.862   4.543  0.9962 -0.1701 -0.6918
12158TIP3   OH257964   0.044   3.391   5.251  0.0920  0.1735  0.0621
12158TIP3    H157965  -0.013   3.338   5.307  2.4759 -0.9261  1.6257
12158TIP3    H257966   0.015   3.481   5.266 -1.0277 -0.3261  1.0315
12159TIP3   OH257967   4.151   1.854   2.259 -0.8051  0.5703  0.2251
12159TIP3    H157968   4.165   1.825   2.169  2.0911  0.8606  0.4624
12159TIP3    H257969   4.126   1.775   2.307  0.1892 -0.1361 -0.3883
12160TIP3   OH257970   2.734   4.484  14.534  0.0551 -0.6039 -0.0980
12160TIP3    H157971   2.763   4.394  14.516  2.9970  0.4997 -1.3504
12160TIP3    H257972   2.731   4.488  14.630  1.4913 -1.5947  0.0236
12161TIP3   OH257973   0.819   6.680   2.762  0.1632  0.1093  0.1927
12161TIP3    H157974   0.824   6.621   2.687  0.0486  0.7552 -0.3319
12161TIP3    H257975   0.909   6.686   2.794  0.3123  0.2950 -0.2576
12162TIP3   OH257976   6.753   6.784  16.131  0.0555 -0.0616 -0.4779
12162TIP3    H157977   6.746   6.698  16.089  0.7200 -0.1863 -0.3489
12162TIP3    H257978   6.692   6.780  16.205 -0.9883  0.0973 -1.3114
12163TIP3   OH257979   1.421   5.355   1.014 -0.3520 -0.2186 -0.3847
12163TIP3    H157980   1.352   5.421   1.025 -0.0219 -0.1058  1.3831
12163TIP3    H257981   1.492   5.402   0.971 -1.2728 -0.2862 -2.0636
12164TIP3   OH257982   2.795   1.328  14.076 -0.8867  0.1399  0.5343
12164TIP3    H157983   2.794   1.381  13.996  0.0417 -1.1591 -0.3787
12164TIP3    H257984   2.705   1.296  14.084 -0.1917 -3.0305 -2.3623
12165TIP3   OH257985   5.193   3.979  16.269 -0.2241  0.5891 -0.6169
12165TIP3    H157986   5.220   4.070  16.277  0.8059  0.2119  0.5675
12165TIP3    H257987   5.275   3.929  16.273 -0.8931 -0.4830  1.0099
12166TIP3   OH257988   1.058   4.410  12.393  0.1142  0.2425  0.6018
12166TIP3    H157989   0.973   4.439  12.425 -1.6834 -2.1932 -1.5802
12166TIP3    H257990   1.103   4.491  12.369 -1.8327  1.5623  1.1396
12167TIP3   OH257991   4.333   3.029   0.633 -0.2332 -0.0399 -0.2492
12167TIP3    H157992   4.424   3.047   0.655 -0.1997 -0.5111 -0.0086
12167TIP3    H257993   4.327   3.052   0.540  0.4178 -1.0817 -0.5597
12168TIP3   OH257994   1.417   5.368  16.566 -0.4927 -0.4672 -0.6341
12168TIP3    H157995   1.512   5.382  16.573 -0.7175  0.2336  1.8856
12168TIP3    H257996   1.409   5.275  16.545  0.7410 -0.3914 -1.5946
12169TIP3   OH257997   4.197   2.891  12.621 -0.5131 -0.5410 -0.0443
12169TIP3    H157998   4.227   2.951  12.689  1.5293 -1.5923  0.0478
12169TIP3    H257999   4.212   2.937  12.539  3.9793 -1.8495 -0.2147
12170TIP3   OH258000   1.835   3.331   2.596 -0.3384  0.2820 -0.1409
12170TIP3    H158001   1.814   3.274   2.670 -0.4129 -0.1569 -0.4933
12170TIP3    H258002   1.772   3.305   2.528  0.8937 -0.5947 -0.9917
12171TIP3   OH258003   3.632   5.845   5.868 -0.4826 -1.0033 -0.0173
12171TIP3    H158004   3.574   5.836   5.792  0.1452  2.5579 -1.0776
12171TIP3    H258005   3.582   5.897   5.930  0.6590  0.0067  0.0730
12172TIP3   OH258006   4.809   0.491  13.934  0.0315  0.1908 -0.0869
12172TIP3    H158007   4.826   0.436  14.011  2.3926  1.4097  0.3445
12172TIP3    H258008   4.763   0.567  13.970 -2.4813 -0.9872 -0.5642
12173TIP3   OH258009   0.454   6.103   1.809  0.3323  0.0053  0.0969
12173TIP3    H158010   0.389   6.162   1.770 -1.0470 -1.1488  0.5680
12173TIP3    H258011   0.410   6.018   1.811  2.4294 -1.1658 -0.9850
12174TIP3   OH258012   5.290   0.522  17.022  0.5324 -0.1477 -0.3145
12174TIP3    H158013   5.366   0.507  16.966  1.4855  2.4095  0.1528
12174TIP3    H258014   5.308   0.606  17.065 -2.4671  0.4418 -0.0043
12175TIP3   OH258015   0.559   1.553  16.447 -0.0531  0.3093 -0.1292
12175TIP3    H158016   0.496   1.624  16.436  0.3847  0.4820 -1.8522
12175TIP3    H258017   0.606   1.549  16.364  2.6751  0.6014  1.2678
12176TIP3   OH258018   1.390   0.934  12.147 -0.0551 -0.4470 -0.1934
12176TIP3    H158019   1.400   0.867  12.079 -0.4666  0.9542 -1.6817
12176TIP3    H258020   1.323   0.993  12.113 -0.6783 -0.0043  1.7094
12177TIP3   OH258021   6.273   4.325   2.703  0.0656 -0.2729 -0.6154
12177TIP3    H158022   6.273   4.258   2.635  1.7210 -0.6863 -0.2454
12177TIP3    H258023   6.250   4.279   2.783  0.8850 -0.3682 -0.4200
12178TIP3   OH258024   3.180   3.019  11.922  0.3706  0.3256 -0.3207
12178TIP3    H158025   3.133   2.936  11.911 -0.1603  0.5900 -0.1255
12178TIP3    H258026   3.110   3.083  11.937  0.7800  0.7968 -0.4225
12179TIP3   OH258027   2.783   4.799   3.833 -0.3943  0.3502 -0.0290
12179TIP3    H158028   2.842   4.863   3.875  1.0491  1.1862 -3.0615
12179TIP3    H258029   2.802   4.717   3.878  0.1370  1.3813  1.7461
12180TIP3   OH258030   5.228   3.261   1.128 -0.1702  0.3529  0.2217
12180TIP3    H158031   5.172   3.329   1.166  0.4464 -0.0643  1.9436
12180TIP3    H258032   5.244   3.200   1.199  0.7663 -0.6619 -0.8156
12181TIP3   OH258033   6.261   5.518   3.260  0.0276  0.5001 -0.3952
12181TIP3    H158034   6.210   5.473   3.327 -0.1701  1.6182  0.2327
12181TIP3    H258035   6.330   5.564   3.309  0.3571  0.7010 -1.0298
12182TIP3   OH258036   2.363   6.766   2.540 -0.1601 -0.0305  0.0409
12182TIP3    H158037   2.327   6.744   2.454 -0.3100  0.9072 -0.1514
12182TIP3    H258038   2.429   6.698   2.557 -0.3675 -0.4134 -0.6634
12183TIP3   OH258039   4.384   1.960  11.615  0.0379  0.0649 -0.2252
12183TIP3    H158040   4.434   1.880  11.631  0.7011  0.5096 -0.0337
12183TIP3    H258041   4.317   1.960  11.683 -1.1372 -1.2469 -1.3232
12184TIP3   OH258042   5.934   2.051   4.228  0.5456 -0.7139 -0.7921
12184TIP3    H158043   5.960   2.143   4.234 -0.6068 -0.4140 -0.0493
12184TIP3    H258044   5.911   2.027   4.318 -0.1518 -1.4319 -1.1489
12185TIP3   OH258045   0.090   6.436  16.429 -0.4875  0.4929  0.7261
12185TIP3    H158046   0.122   6.507  16.485  0.6404  1.6780 -1.3063
12185TIP3    H258047  -0.005   6.439  16.438 -0.4890  2.4392  0.5389
12186TIP3   OH258048   5.110   4.520  13.390  0.9879  0.5524 -0.1707
12186TIP3    H158049   5.059   4.533  13.310  0.3492  1.0009  0.3003
12186TIP3    H258050   5.054   4.466  13.446  1.8281 -0.5841 -0.3873
12187TIP3   OH258051   6.804   6.577  12.996 -0.2697  0.5393 -0.3843
12187TIP3    H158052   6.710   6.565  13.009 -0.7704  1.3265 -2.7406
12187TIP3    H258053   6.828   6.511  12.932  0.7573  0.5024  0.0222
12188TIP3   OH258054   5.239   1.181   0.655 -0.1017  0.3527  0.3981
12188TIP3    H158055   5.154   1.226   0.661 -0.3151 -0.1471  1.6382
12188TIP3    H258056   5.303   1.252   0.652 -0.5454  0.7388 -0.2251
12189TIP3   OH258057   3.297   1.414   1.294 -0.1400 -0.0009  0.1004
12189TIP3    H158058   3.383   1.443   1.326 -1.0545  2.2663  0.7107
12189TIP3    H258059   3.282   1.465   1.215 -0.9798 -0.2967  0.0599
12190TIP3   OH258060   4.973   1.298  13.959  0.7706  0.7263  0.1487
12190TIP3    H158061   4.921   1.224  13.928  2.7390 -0.6212 -0.1152
12190TIP3    H258062   5.032   1.260  14.025  1.7723  2.0772  0.0695
12191TIP3   OH258063   2.839   0.383  11.494 -0.2669 -0.2847 -1.1178
12191TIP3    H158064   2.891   0.462  11.508  0.9736 -0.9923 -1.5177
12191TIP3    H258065   2.751   0.415  11.473 -0.0239  0.9481 -0.3466
12192TIP3   OH258066   5.916   0.178  14.559 -0.2331 -0.1613 -0.7161
12192TIP3    H158067   5.929   0.129  14.640 -0.4314  0.8176 -0.0741
12192TIP3    H258068   5.934   0.115  14.489 -0.4723 -1.1382  0.0827
12193TIP3   OH258069   2.728   6.780   5.760 -1.0440 -0.5227 -0.1708
12193TIP3    H158070   2.714   6.871   5.734  0.4020  0.6043  2.6175
12193TIP3    H258071   2.642   6.739   5.751 -1.9203  1.3428 -0.6773
12194TIP3   OH258072   1.597   3.758  16.192  0.4841 -0.5220 -0.7025
12194TIP3    H158073   1.570   3.828  16.251 -1.9050 -1.7564 -0.2199
12194TIP3    H258074   1.691   3.772  16.180  0.6669  0.9438  1.7923
12195TIP3   OH258075   6.840   2.571  13.449  0.1467  0.3019 -0.2097
12195TIP3    H158076   6.901   2.628  13.497  0.4619  0.8458 -1.2198
12195TIP3    H258077   6.864   2.482  13.476  2.0062  0.4366 -1.2434
12196TIP3   OH258078   3.628   0.569   2.148 -0.0203 -0.1536 -0.5436
12196TIP3    H158079   3.715   0.609   2.144  0.6485 -1.4574  0.2803
12196TIP3    H258080   3.639   0.484   2.107 -1.1724  0.0645 -1.3370
12197TIP3   OH258081   1.644   0.717  16.829  0.0842 -0.3739  0.9483
12197TIP3    H158082   1.585   0.697  16.902 -1.1818  0.0325  0.0746
12197TIP3    H258083   1.687   0.634  16.810 -1.0180 -0.9565  0.9123
12198TIP3   OH258084   0.567   4.562   0.958  0.1518  0.3869  0.1020
12198TIP3    H158085   0.628   4.635   0.968 -0.1078  0.7319 -0.7540
12198TIP3    H258086   0.584   4.527   0.871 -0.4192  0.0716  0.1078
12199TIP3   OH258087   6.803   1.216  13.624 -0.0655 -0.1372 -0.2186
12199TIP3    H158088   6.863   1.259  13.684 -0.6234 -0.4259  0.5726
12199TIP3    H258089   6.784   1.132  13.666 -2.1594  0.5418  0.3098
12200TIP3   OH258090   1.946   3.498  11.952 -0.0133  0.3440  0.0163
12200TIP3    H158091   1.997   3.417  11.943 -3.2567 -1.8906 -0.1113
12200TIP3    H258092   1.958   3.524  12.043  2.0889  0.5157 -0.2676
12201TIP3   OH258093   0.363   0.316   5.945  0.0733  0.5076 -0.1689
12201TIP3    H158094   0.378   0.306   6.039  0.5240  1.8547 -0.0774
12201TIP3    H258095   0.450   0.314   5.906  0.0085  1.5021 -0.3833
12202TIP3   OH258096   0.533   6.622  11.962  0.6592 -0.0604 -0.4340
12202TIP3    H158097   0.445   6.613  11.925 -1.2114  0.2990  3.3927
12202TIP3    H258098   0.566   6.533  11.967 -0.4688 -0.4714  0.0717
12203TIP3   OH258099   0.999   2.944   6.489 -0.3025 -0.0762  0.0853
12203TIP3    H158100   1.025   2.995   6.566  0.6775 -0.1150 -0.2051
12203TIP3    H258101   1.082   2.913   6.452 -0.7822 -0.3233 -0.8064
12204TIP3   OH258102   5.164   5.125  14.662 -0.5337 -0.0765 -0.2645
12204TIP3    H158103   5.180   5.182  14.587 -1.4588  1.9434  0.9773
12204TIP3    H258104   5.073   5.144  14.687 -0.0171 -0.1110  1.8016
12205TIP3   OH258105   2.962   6.769  16.723  0.1038 -0.2464  0.1942
12205TIP3    H158106   2.868   6.782  16.738  0.1177  2.1770 -1.1832
12205TIP3    H258107   2.967   6.725  16.639  0.2077 -1.0107  0.5956
12206TIP3   OH258108   3.492   5.669  12.788  0.2875  0.5806  0.5932
12206TIP3    H158109   3.518   5.659  12.879  1.4915  0.0850  0.2066
12206TIP3    H258110   3.572   5.656  12.738 -0.1397  1.8841 -0.5015
12207TIP3   OH258111   0.424   0.251   1.229  0.3021 -0.3253 -0.7429
12207TIP3    H158112   0.425   0.196   1.151  2.1226  1.5656 -2.1637
12207TIP3    H258113   0.374   0.328   1.204 -0.4282 -0.3637  0.5123
12208TIP3   OH258114   3.008   2.729   5.566 -0.3736 -0.1741 -0.1547
12208TIP3    H158115   3.075   2.796   5.578 -2.4666  1.9608  0.2971
12208TIP3    H258116   2.960   2.757   5.488 -0.3962 -2.0287 -0.8656
12209TIP3   OH258117   6.390   4.476   3.341  0.1063  0.1114  0.3018
12209TIP3    H158118   6.434   4.457   3.258 -0.2315  2.4622 -0.4848
12209TIP3    H258119   6.408   4.568   3.357 -0.5385 -0.0844  2.4550
12210TIP3   OH258120   6.832   6.328   1.295 -0.3401 -0.0218 -0.2480
12210TIP3    H158121   6.922   6.361   1.298  0.1573 -1.3997  0.7775
12210TIP3    H258122   6.798   6.344   1.384 -0.0259 -2.3282  0.3440
12211TIP3   OH258123   1.872   2.051   5.598 -0.1175 -0.1434  0.2779
12211TIP3    H158124   1.878   2.132   5.547  0.2336 -0.3491 -0.0114
12211TIP3    H258125   1.941   2.058   5.663 -1.3759  0.6977  1.5798
12212TIP3   OH258126   0.454   2.668   0.404 -0.2102  0.4012  0.1421
12212TIP3    H158127   0.435   2.749   0.356 -1.8881  0.3731  0.6718
12212TIP3    H258128   0.536   2.685   0.450 -1.3755  2.4886  1.6139
12213TIP3   OH258129   3.933   6.485  13.073 -0.0734  0.4121  0.4072
12213TIP3    H158130   4.007   6.488  13.134 -0.3953 -0.6712  0.8706
12213TIP3    H258131   3.967   6.442  12.995 -0.3422 -0.5817  0.8255
12214TIP3   OH258132   0.864   5.822   4.472  0.0226  0.0384  0.0219
12214TIP3    H158133   0.837   5.894   4.416 -0.5006  1.3518  1.8484
12214TIP3    H258134   0.936   5.858   4.525  1.0856 -1.4212 -0.3729
12215TIP3   OH258135   2.992   4.472  16.669 -0.3612  0.4406 -0.0658
12215TIP3    H158136   2.952   4.557  16.649 -0.6426 -0.2269 -2.7755
12215TIP3    H258137   2.984   4.463  16.764 -2.6724  2.3142  0.0133
12216TIP3   OH258138   1.163   4.207  15.969  0.0819  0.5047 -0.4438
12216TIP3    H158139   1.180   4.129  16.022  0.5100  0.3323 -0.8218
12216TIP3    H258140   1.244   4.258  15.976 -0.6370  1.5157  0.7931
12217TIP3   OH258141   3.657   1.423   2.342 -0.2707 -0.0827 -0.1199
12217TIP3    H158142   3.658   1.327   2.332  0.9219 -0.0087 -1.0033
12217TIP3    H258143   3.613   1.455   2.263  0.9651  0.1505 -0.7382
12218TIP3   OH258144   3.083   3.444  14.422 -0.3215 -0.0604  0.0571
12218TIP3    H158145   3.092   3.368  14.481 -0.0885  0.4558  0.6942
12218TIP3    H258146   3.034   3.410  14.347 -1.8338 -0.4070  1.1611
12219TIP3   OH258147   0.265   0.464   2.836 -0.1551 -0.7454 -1.0426
12219TIP3    H158148   0.224   0.397   2.890  1.0654 -0.4221  0.3525
12219TIP3    H258149   0.197   0.488   2.772 -1.7479 -0.9868  0.4716
12220TIP3   OH258150   3.603   6.525   3.400  0.2406 -0.0711  0.5433
12220TIP3    H158151   3.642   6.438   3.390 -0.8323 -0.7821  2.1499
12220TIP3    H258152   3.566   6.544   3.314 -1.7388 -2.3670  0.7598
12221TIP3   OH258153   1.303   1.337   0.612 -0.2631  0.3553  0.2454
12221TIP3    H158154   1.230   1.388   0.576 -2.7059 -0.2960  3.7787
12221TIP3    H258155   1.272   1.247   0.612  2.2330 -0.6444 -1.7301
12222TIP3   OH258156   0.900   1.573  13.475  0.1219 -0.9085  0.1512
12222TIP3    H158157   0.918   1.508  13.407 -0.7619 -1.3625  0.3389
12222TIP3    H258158   0.806   1.590  13.467  0.3583  0.4690 -0.0018
12223TIP3   OH258159   1.012   2.184  11.773 -0.2534  0.2576  0.4458
12223TIP3    H158160   0.963   2.111  11.810  1.3678 -0.5430  1.1087
12223TIP3    H258161   1.008   2.252  11.840  0.0443 -0.0456  0.7819
12224TIP3   OH258162   2.573   3.401  11.301  0.3622 -0.0680  0.2355
12224TIP3    H158163   2.660   3.440  11.305 -0.4984  2.1809 -0.7757
12224TIP3    H258164   2.539   3.427  11.215 -1.8780  0.5700  1.2188
12225TIP3   OH258165   2.123   4.205   4.682  0.0175  0.1594 -0.0441
12225TIP3    H158166   2.091   4.119   4.709 -2.9659  1.5452  1.2843
12225TIP3    H258167   2.057   4.238   4.621 -0.3250  2.4712  1.4386
12226TIP3   OH258168   4.383   1.474  10.613 -0.1889 -0.0550  0.5178
12226TIP3    H158169   4.299   1.501  10.650 -0.0648 -0.4399  1.0927
12226TIP3    H258170   4.373   1.489  10.518 -1.2120 -0.8850  0.4664
12227TIP3   OH258171   3.390   0.330   1.992 -0.2235 -0.0154  0.1705
12227TIP3    H158172   3.393   0.425   1.992  1.1567 -0.0373  1.1304
12227TIP3    H258173   3.304   0.308   2.029  0.2682  0.8704  1.9339
12228TIP3   OH258174   6.676   6.036   4.658 -0.3073  0.1186 -0.0468
12228TIP3    H158175   6.730   5.958   4.647  0.4024  0.6026 -0.0779
12228TIP3    H258176   6.708   6.076   4.739 -2.7110 -1.2110  1.6960
12229TIP3   OH258177   5.944   1.641  11.138 -0.4372  0.1246  0.2660
12229TIP3    H158178   5.940   1.723  11.187  0.8876 -0.3858  1.2839
12229TIP3    H258179   5.986   1.579  11.197  2.3543 -0.2251 -1.8204
12230TIP3   OH258180   6.469   6.161   4.994 -0.4506  0.4487 -0.2338
12230TIP3    H158181   6.440   6.235   5.047  1.7481  2.9346 -2.2839
12230TIP3    H258182   6.400   6.150   4.929 -1.4994 -0.3811  0.9567
12231TIP3   OH258183   5.212   2.986  14.985 -0.2146 -0.3176  0.0641
12231TIP3    H158184   5.182   2.929  14.914  1.0146 -1.4415  0.3989
12231TIP3    H258185   5.148   3.057  14.988 -0.0013  0.0747 -2.5268
12232TIP3   OH258186   3.460   2.686  14.523  0.0230 -0.0022 -0.0611
12232TIP3    H158187   3.453   2.679  14.618 -0.4888  1.4042  0.0216
12232TIP3    H258188   3.389   2.746  14.498  0.8344  0.5151 -1.2112
12233TIP3   OH258189   4.889   5.845  12.751 -0.1922  0.4107  0.5952
12233TIP3    H158190   4.934   5.921  12.715  0.4681  0.9473  2.4798
12233TIP3    H258191   4.803   5.878  12.777 -1.1046 -0.2297 -1.4195
12234TIP3   OH258192   0.973   5.180  14.362 -0.2341 -0.7454 -0.0067
12234TIP3    H158193   1.063   5.207  14.343 -0.7045  1.5724  0.7537
12234TIP3    H258194   0.920   5.224  14.297 -1.1243  0.9589  1.7712
12235TIP3   OH258195   6.671   3.283   5.379  0.0988  0.0952  0.0235
12235TIP3    H158196   6.617   3.336   5.437  0.3510  0.8509 -0.4152
12235TIP3    H258197   6.609   3.239   5.321 -0.0486  1.7178 -1.1290
12236TIP3   OH258198   6.782   6.301   1.009  0.0056  0.2646  0.7057
12236TIP3    H158199   6.839   6.374   1.032  0.2521  0.0766  0.6940
12236TIP3    H258200   6.835   6.223   1.022 -0.1079  0.1079  0.2807
12237TIP3   OH258201   0.616   5.093   3.864 -0.2055  0.6152  0.3283
12237TIP3    H158202   0.530   5.121   3.835 -0.6869 -2.0036 -1.0355
12237TIP3    H258203   0.678   5.140   3.807 -0.9733 -1.0090 -1.9821
12238TIP3   OH258204   2.097   2.440  12.887 -0.6127  0.9416 -0.0128
12238TIP3    H158205   2.185   2.475  12.875 -0.0596  0.2377  1.7681
12238TIP3    H258206   2.060   2.490  12.959 -1.1114  0.2441  0.2319
12239TIP3   OH258207   4.289   2.624   0.932  0.0897  0.4463 -0.0354
12239TIP3    H158208   4.300   2.637   1.026  1.3229  2.7801 -0.4130
12239TIP3    H258209   4.207   2.670   0.911  0.2471  0.6597 -0.1975
12240TIP3   OH258210   3.100   2.012  11.263 -0.0785  0.1738  0.4279
12240TIP3    H158211   3.032   2.071  11.230  0.2291  0.3071  0.0253
12240TIP3    H258212   3.125   1.959  11.188 -0.6609 -0.7902  0.8893
12241TIP3   OH258213   1.225   4.710  16.606  0.1863 -0.0389  0.9381
12241TIP3    H158214   1.293   4.777  16.608  0.8840 -0.7186  0.4970
12241TIP3    H258215   1.149   4.754  16.568  0.5730  0.5497  0.8271
12242TIP3   OH258216   2.317   3.627  14.312  0.1061  0.0109  0.4570
12242TIP3    H158217   2.379   3.557  14.291  0.9264  0.6437  0.7120
12242TIP3    H258218   2.338   3.697  14.250  0.5266  0.7285  1.3831
12243TIP3   OH258219   1.714   5.693   3.044 -0.4112  0.7387  0.1562
12243TIP3    H158220   1.684   5.697   3.135 -0.1703 -2.0997  0.4480
12243TIP3    H258221   1.636   5.710   2.992 -0.9083  0.7628  0.9030
12244TIP3   OH258222   6.475   2.918   3.668  0.4145  0.4909  0.1502
12244TIP3    H158223   6.451   2.868   3.746  0.4372  0.5507  0.1959
12244TIP3    H258224   6.392   2.935   3.624  0.2258  1.6584  0.8901
12245TIP3   OH258225   1.226   6.813  11.206 -0.0029  0.6686  0.3807
12245TIP3    H158226   1.162   6.752  11.243  0.3667  0.6075  0.9255
12245TIP3    H258227   1.309   6.789  11.247  0.3404  0.8629 -0.1917
12246TIP3   OH258228   5.912   1.962  14.298 -0.1258 -0.2677 -0.3834
12246TIP3    H158229   5.843   1.970  14.232 -2.8591 -1.5287  2.0854
12246TIP3    H258230   5.975   1.902  14.258  0.3407  1.8767 -3.2148
12247TIP3   OH258231   1.990   1.938  16.403  0.3522 -0.0189  0.5921
12247TIP3    H158232   1.941   2.014  16.434 -0.0475 -0.4144  0.9560
12247TIP3    H258233   1.976   1.871  16.470 -0.9852 -1.0882 -0.6788
12248TIP3   OH258234   0.562   6.280  13.407 -0.3829 -0.4792  0.1335
12248TIP3    H158235   0.576   6.197  13.453 -0.2217  0.2867  1.5129
12248TIP3    H258236   0.520   6.255  13.324  0.9003 -2.0501 -0.0919
12249TIP3   OH258237   6.066   6.572  16.013 -0.4274  0.0504  0.7757
12249TIP3    H158238   6.079   6.577  15.919  2.5150  0.6434  1.1083
12249TIP3    H258239   6.020   6.652  16.036  0.4277  0.7727  0.0327
12250TIP3   OH258240   3.016   0.288  13.776  0.4842  0.4769  0.0662
12250TIP3    H158241   3.003   0.314  13.685  2.5822  0.0322 -0.4135
12250TIP3    H258242   3.105   0.317  13.797  0.4231 -0.3569  1.6423
12251TIP3   OH258243   3.868   5.660   5.976 -0.4952 -0.1524 -0.1848
12251TIP3    H158244   3.900   5.580   5.933 -1.5734 -0.7500  0.0854
12251TIP3    H258245   3.810   5.700   5.911  0.0815  0.4479 -0.3372
12252TIP3   OH258246   3.106   3.326   6.038 -0.0816 -0.6802 -0.1625
12252TIP3    H158247   3.157   3.258   5.994  1.1431  0.3964 -0.4493
12252TIP3    H258248   3.148   3.337   6.123  0.4141  0.4632 -0.5397
12253TIP3   OH258249   4.148   6.825  12.710 -0.5452  0.1078  0.1975
12253TIP3    H158250   4.084   6.797  12.645  0.7816  0.3542 -1.2868
12253TIP3    H258251   4.218   6.759  12.705 -0.2116  0.3785  1.0610
12254TIP3   OH258252   4.774   0.927   4.993  0.6247  0.8902 -0.6957
12254TIP3    H158253   4.715   0.870   4.944  0.0478  0.3778  0.5418
12254TIP3    H258254   4.848   0.942   4.935  0.4716 -0.5887 -1.3059
12255TIP3   OH258255   4.202   2.792   0.651  0.9418 -0.1101  0.1272
12255TIP3    H158256   4.163   2.778   0.737  0.5695  0.4929  0.0598
12255TIP3    H258257   4.243   2.878   0.656 -1.4132  1.1887 -1.1161
12256TIP3   OH258258   1.776   4.842  15.101 -0.0639  0.4008 -0.4818
12256TIP3    H158259   1.789   4.778  15.031 -0.0895 -1.7549  1.3660
12256TIP3    H258260   1.862   4.853  15.141 -0.2253  0.8889 -0.2614
12257TIP3   OH258261   1.658   3.168  16.213 -0.5587 -0.4635  0.5082
12257TIP3    H158262   1.637   3.098  16.275  3.9081 -0.3830  2.5674
12257TIP3    H258263   1.645   3.249  16.264  0.8611 -0.2731  0.6259
12258TIP3   OH258264   3.965   5.744   0.895 -0.0851  0.0385  0.4831
12258TIP3    H158265   3.973   5.758   0.989 -0.8653 -0.1763  0.5924
12258TIP3    H258266   4.003   5.823   0.855  1.5246 -0.4876  0.9305
12259TIP3   OH258267   5.141   2.490  13.743  0.1508  0.7087 -0.1488
12259TIP3    H158268   5.051   2.522  13.742  0.4938  1.6957 -1.6729
12259TIP3    H258269   5.134   2.399  13.715 -0.4309  0.5903  0.3564
12260TIP3   OH258270   4.488   0.221  16.879  0.0300 -0.1884 -0.1150
12260TIP3    H158271   4.441   0.163  16.819 -1.7053  0.1746  0.7974
12260TIP3    H258272   4.540   0.277  16.823 -0.7155 -0.5562 -1.2147
12261TIP3   OH258273   0.354   1.260   1.962 -0.7240 -0.3597 -0.2398
12261TIP3    H158274   0.370   1.288   2.052  0.0091  0.9223 -0.7489
12261TIP3    H258275   0.419   1.190   1.947 -0.6433 -0.3647  0.1217
12262TIP3   OH258276   2.600   1.045   4.202 -0.3169 -0.3087 -0.2830
12262TIP3    H158277   2.518   1.089   4.221  0.1523  0.3414  0.2958
12262TIP3    H258278   2.615   1.062   4.109 -0.8848 -0.5269 -0.4187
12263TIP3   OH258279   0.524   5.336  11.711 -0.4067 -0.2769 -0.2888
12263TIP3    H158280   0.494   5.255  11.750  0.8777 -1.0698 -0.8770
12263TIP3    H258281   0.483   5.337  11.624 -0.7364 -0.0917 -0.1325
12264TIP3   OH258282   5.154   0.882   5.395 -0.1068 -0.2188  0.1759
12264TIP3    H158283   5.228   0.857   5.340  0.3412  0.2283  0.5736
12264TIP3    H258284   5.077   0.860   5.342  0.2311 -2.3773  0.4719
12265TIP3   OH258285   6.524   1.516  12.714 -0.0441  0.1459  0.1844
12265TIP3    H158286   6.456   1.481  12.656 -1.4707  1.8666  0.6966
12265TIP3    H258287   6.488   1.504  12.802 -0.5146  2.5081  0.3984
12266TIP3   OH258288   4.643   3.236  15.257 -0.8008  0.2413 -0.4475
12266TIP3    H158289   4.616   3.184  15.181  0.0097  0.1369 -0.6672
12266TIP3    H258290   4.568   3.231  15.316 -1.2824 -0.0124 -1.0656
12267TIP3   OH258291   4.211   2.177  14.812 -0.1096 -0.3773 -0.3501
12267TIP3    H158292   4.253   2.161  14.727  0.8809  0.2325  0.0119
12267TIP3    H258293   4.232   2.098  14.863  0.3958 -0.1825 -0.2514
12268TIP3   OH258294   5.519   5.636   0.003  0.2320  0.0935 -1.1479
12268TIP3    H158295   5.544   5.627  -0.089  0.6480 -1.9356 -0.8871
12268TIP3    H258296   5.589   5.688   0.042 -0.2200  1.4342 -2.0567
12269TIP3   OH258297   2.906   5.261  12.143  0.4119 -0.3319 -0.4658
12269TIP3    H158298   2.848   5.335  12.161  1.8746  0.5459  0.9467
12269TIP3    H258299   2.968   5.295  12.077  0.2597 -0.7481 -0.8246
12270TIP3   OH258300   5.122   6.397  13.064 -0.2906  0.3505 -0.0326
12270TIP3    H158301   5.154   6.487  13.055 -0.7341  0.5441  0.2780
12270TIP3    H258302   5.082   6.395  13.151  0.5234 -0.4051  0.3291
12271TIP3   OH258303   6.357   2.798  15.422 -0.1146 -0.4829 -0.9265
12271TIP3    H158304   6.373   2.724  15.481 -0.1624 -0.4976 -0.9322
12271TIP3    H258305   6.436   2.803  15.368  0.3961  0.2042 -0.1430
12272TIP3   OH258306   4.714   3.852  16.997 -0.4207 -0.1873 -0.5533
12272TIP3    H158307   4.774   3.890  17.061  0.3899 -0.6635 -1.0128
12272TIP3    H258308   4.749   3.879  16.912 -1.1632 -0.0300 -0.8187
12273TIP3   OH258309   5.444   6.666   1.792 -0.0180 -0.0660  0.3486
12273TIP3    H158310   5.404   6.649   1.707 -1.6425  0.8967  0.8834
12273TIP3    H258311   5.528   6.706   1.771 -0.4035  0.1813 -0.7953
12274TIP3   OH258312   5.558   3.988  13.247  0.5451 -0.2624 -0.8389
12274TIP3    H158313   5.499   4.026  13.311 -0.9368 -0.4775 -2.0399
12274TIP3    H258314   5.616   3.932  13.299 -0.4908 -0.2782  0.3463
12275TIP3   OH258315   4.358   1.216  12.250  0.0740  0.1662 -0.7050
12275TIP3    H158316   4.349   1.182  12.339  0.4034 -0.3914 -0.8771
12275TIP3    H258317   4.381   1.308  12.261 -0.2805  0.1984 -0.2162
12276TIP3   OH258318   3.849   5.421  12.089  0.1394 -0.4134  0.3984
12276TIP3    H158319   3.888   5.334  12.089 -0.3344 -0.6287  0.3992
12276TIP3    H258320   3.911   5.476  12.040  2.2756  0.1042  3.4346
12277TIP3   OH258321   6.572   3.459  12.137 -0.0632 -0.2926  0.3192
12277TIP3    H158322   6.628   3.397  12.184 -0.9807 -2.1782 -0.9544
12277TIP3    H258323   6.508   3.404  12.092  0.1660  1.4650 -2.3550
12278TIP3   OH258324   5.894   5.312  12.970 -0.0257 -0.5870  0.5698
12278TIP3    H158325   5.867   5.224  13.000  0.0624 -1.0508 -0.6667
12278TIP3    H258326   5.980   5.299  12.931 -0.9544 -0.4231 -1.6911
12279TIP3   OH258327   3.607   6.722   2.283  0.0555  0.3242  0.5613
12279TIP3    H158328   3.531   6.666   2.301 -2.6477  3.2748 -0.7855
12279TIP3    H258329   3.615   6.722   2.188  0.3714  1.7006  0.5679
12280TIP3   OH258330   1.279   4.378  15.498  0.6279 -0.0945 -0.1413
12280TIP3    H158331   1.315   4.291  15.481 -2.3392 -1.6771  0.9459
12280TIP3    H258332   1.222   4.395  15.422  0.7464  0.6726 -0.0687
12281TIP3   OH258333   2.511   0.067   2.043 -0.1094  0.9970 -0.2586
12281TIP3    H158334   2.589   0.014   2.028 -0.9922 -0.4710  0.0656
12281TIP3    H258335   2.490   0.054   2.135 -0.7340  1.3456 -0.3449
12282TIP3   OH258336   3.040   6.556   4.126  0.1342  0.2645 -0.3466
12282TIP3    H158337   3.033   6.504   4.206 -0.6113 -2.3201 -1.9883
12282TIP3    H258338   3.115   6.519   4.079  0.0519  1.1794 -1.2431
12283TIP3   OH258339   5.258   0.575   1.244 -0.3141  0.0046  0.8006
12283TIP3    H158340   5.196   0.601   1.176  0.6094  0.0748 -0.0304
12283TIP3    H258341   5.248   0.642   1.312  0.1924  1.0884 -0.1651
12284TIP3   OH258342   4.951   2.211   4.025 -0.3441 -0.1395 -0.0907
12284TIP3    H158343   4.873   2.256   4.058 -0.6764 -0.6913 -0.1202
12284TIP3    H258344   4.938   2.209   3.930 -0.8440 -1.2333 -0.0102
12285TIP3   OH258345   0.489   2.501  11.902 -0.7080  0.1279 -1.1134
12285TIP3    H158346   0.558   2.515  11.837  1.8725 -1.2598  1.1032
12285TIP3    H258347   0.420   2.562  11.878  1.4997  1.9926 -3.2114
12286TIP3   OH258348   6.710   0.554   2.990  0.0707  0.0137 -0.1817
12286TIP3    H158349   6.682   0.462   2.990  1.8681 -0.5709  0.3815
12286TIP3    H258350   6.789   0.555   3.043 -0.4946  2.1017  0.7083
12287TIP3   OH258351   0.279   2.610   3.996  0.4340  0.1323 -0.4118
12287TIP3    H158352   0.225   2.684   4.025 -0.3455  0.1686 -1.8579
12287TIP3    H258353   0.273   2.612   3.901  0.9329 -1.4142 -0.5020
12288TIP3   OH258354   0.784   5.774  11.556 -0.5781 -0.1981 -0.5330
12288TIP3    H158355   0.720   5.803  11.491  0.5238  2.2778 -0.6374
12288TIP3    H258356   0.801   5.682  11.534  0.3162  0.6748 -4.3005
12289TIP3   OH258357   4.411   0.805   5.190 -0.1221 -0.7544 -0.1530
12289TIP3    H158358   4.354   0.877   5.166 -0.0600 -0.6282  0.0700
12289TIP3    H258359   4.360   0.726   5.174 -0.6871 -0.6156  0.8864
12290TIP3   OH258360   6.000   1.843   3.366 -0.3785 -0.0339  0.5305
12290TIP3    H158361   6.043   1.900   3.303 -0.2157 -0.2040  0.4879
12290TIP3    H258362   5.990   1.897   3.445 -1.2866  0.4335  0.1126
12291TIP3   OH258363   5.080   6.642  14.298 -0.5637  0.2786  0.2643
12291TIP3    H158364   5.142   6.686  14.241  0.6517  0.2715  1.5269
12291TIP3    H258365   5.044   6.571  14.244 -1.8730  2.1683 -1.4969
12292TIP3   OH258366   1.584   1.450   1.643 -0.8916 -0.5497 -0.4962
12292TIP3    H158367   1.530   1.504   1.701 -0.4524  0.7500 -1.2611
12292TIP3    H258368   1.659   1.505   1.622  0.2712 -1.9787 -0.2155
12293TIP3   OH258369   2.528   0.971  13.317 -0.5443 -0.1965  0.4396
12293TIP3    H158370   2.439   0.937  13.332 -0.6928  0.0849  0.2007
12293TIP3    H258371   2.516   1.065  13.306 -0.2576 -0.2077  0.0299
12294TIP3   OH258372   6.416   6.148  13.381 -0.3945 -0.2014  0.2624
12294TIP3    H158373   6.433   6.135  13.474 -2.1660 -0.7438  0.5578
12294TIP3    H258374   6.395   6.060  13.348 -1.4935  0.2235 -0.2377
12295TIP3   OH258375   0.821   0.144   2.760  0.1275 -0.0570 -0.1776
12295TIP3    H158376   0.732   0.176   2.749  0.1532  0.0358 -0.1182
12295TIP3    H258377   0.827   0.068   2.702 -0.2276 -0.5351  0.3952
12296TIP3   OH258378   4.609   0.270  15.558  0.4223  0.6550  0.2079
12296TIP3    H158379   4.648   0.318  15.485 -0.3685  1.6231  0.4027
12296TIP3    H258380   4.663   0.191  15.566  1.7730  1.5100 -0.1007
12297TIP3   OH258381   4.199   1.092  16.535  0.6855 -0.5427  0.0092
12297TIP3    H158382   4.271   1.052  16.584  1.1426 -0.4793 -0.6043
12297TIP3    H258383   4.202   1.184  16.559 -0.0226 -0.7636  0.9977
12298TIP3   OH258384   4.668   1.136   4.317 -0.1872 -0.1777 -0.3326
12298TIP3    H158385   4.636   1.184   4.240 -1.3722  0.3681  0.4739
12298TIP3    H258386   4.588   1.103   4.359  0.5356 -1.7931 -0.1781
12299TIP3   OH258387   0.212   6.531  12.226 -1.0912 -0.6121  0.1633
12299TIP3    H158388   0.182   6.496  12.142  0.3419  0.7638 -0.9735
12299TIP3    H258389   0.174   6.618  12.231 -0.0648 -0.1543  0.2814
12300TIP3   OH258390   4.921   1.498  14.595  0.0762  0.1889  0.1351
12300TIP3    H158391   4.931   1.408  14.563  0.7178 -0.2414  1.4509
12300TIP3    H258392   4.968   1.498  14.679 -1.6058  1.2190  1.1258
12301TIP3   OH258393   3.107   5.529  13.972  0.2375  0.5460  0.6830
12301TIP3    H158394   3.046   5.459  13.947 -0.6223  0.9157  1.6559
12301TIP3    H258395   3.184   5.514  13.918 -0.3318 -0.5377  0.1308
12302TIP3   OH258396   1.652   0.902  14.376  0.6445  0.2838  0.1512
12302TIP3    H158397   1.580   0.962  14.353 -0.4833 -0.7607  0.8585
12302TIP3    H258398   1.656   0.841  14.302  0.8292  0.3522  0.1043
12303TIP3   OH258399   5.140   5.630   3.871 -0.3308 -0.4010  0.1170
12303TIP3    H158400   5.132   5.535   3.872 -0.5693 -0.3777  0.4888
12303TIP3    H258401   5.088   5.657   3.795  0.1691 -0.6004 -0.3026
12304TIP3   OH258402   6.521   0.773   2.858  0.3955  0.3179 -0.0853
12304TIP3    H158403   6.589   0.796   2.922 -0.2556  3.1049 -0.2778
12304TIP3    H258404   6.544   0.684   2.830  2.3067  0.0856  1.9260
12305TIP3   OH258405   1.388   3.336  15.139  0.1143 -0.3467 -0.0977
12305TIP3    H158406   1.338   3.404  15.185  1.0313  0.8965 -0.8672
12305TIP3    H258407   1.466   3.324  15.192  0.6839  0.3445 -0.7538
12306TIP3   OH258408   3.872   1.810  11.866  0.1031 -0.5509 -0.1625
12306TIP3    H158409   3.929   1.788  11.792 -1.1225 -2.9009 -0.5000
12306TIP3    H258410   3.805   1.742  11.866 -2.6787  1.9591  0.2786
12307TIP3   OH258411   4.044   5.507   2.381  0.2194  0.2462 -0.0520
12307TIP3    H158412   3.970   5.475   2.433  0.9508 -1.4144  0.0295
12307TIP3    H258413   4.121   5.462   2.419  0.7948 -0.9572 -2.4563
12308TIP3   OH258414   6.234   2.074   4.929  0.1391 -0.2508 -0.1189
12308TIP3    H158415   6.324   2.065   4.962  0.8329  1.1178 -1.4441
12308TIP3    H258416   6.180   2.082   5.007  1.2869 -0.2850  0.7088
12309TIP3   OH258417   4.210   4.594   2.569  0.8332  0.0465 -0.2193
12309TIP3    H158418   4.242   4.599   2.659 -0.5049  0.0639  0.2726
12309TIP3    H258419   4.116   4.578   2.577  0.9382 -1.6383 -1.6323
12310TIP3   OH258420   5.095   1.842   1.355 -0.5283 -0.2996 -0.5259
12310TIP3    H158421   5.104   1.904   1.427  0.5495 -0.5729 -0.4006
12310TIP3    H258422   5.109   1.756   1.395 -1.7002 -0.6095 -0.7519
12311TIP3   OH258423   0.645   2.148   1.123  0.5043 -0.1452  0.0665
12311TIP3    H158424   0.594   2.103   1.190  1.3568 -1.2626 -0.0098
12311TIP3    H258425   0.736   2.123   1.140  0.9843  1.3478 -0.1476
12312TIP3   OH258426   6.263   6.412   4.817 -0.1920 -0.3553 -0.0264
12312TIP3    H158427   6.313   6.400   4.898  1.8434 -0.0602 -1.1761
12312TIP3    H258428   6.296   6.493   4.780 -0.1044 -1.1647 -1.8172
12313TIP3   OH258429   2.013   6.387   1.236  0.4111 -0.1219  0.0792
12313TIP3    H158430   1.973   6.471   1.261 -0.5527 -0.3840 -0.5325
12313TIP3    H258431   2.095   6.411   1.194 -0.7239  0.6494 -1.8076
12314TIP3   OH258432   3.582   5.577  12.541 -0.5553 -0.3307  0.0988
12314TIP3    H158433   3.636   5.501  12.565  0.8313 -0.0567 -1.9224
12314TIP3    H258434   3.633   5.653  12.570 -0.8585 -0.1136  0.0669
12315TIP3   OH258435   2.627   3.411   5.376  0.1198  0.0101 -0.3717
12315TIP3    H158436   2.629   3.366   5.461 -0.6227 -0.6530 -0.6914
12315TIP3    H258437   2.562   3.362   5.325 -1.6809  2.2125 -0.3182
12316TIP3   OH258438   5.074   1.883   5.510  0.1193 -0.2179 -0.2771
12316TIP3    H158439   5.025   1.932   5.575  0.6651  0.2479 -0.2054
12316TIP3    H258440   5.130   1.824   5.561 -0.9139 -1.3067 -0.3713
12317TIP3   OH258441   0.490   1.719   6.290 -0.1127  0.6466 -0.0897
12317TIP3    H158442   0.470   1.789   6.352 -0.8811  0.2084  0.1688
12317TIP3    H258443   0.452   1.641   6.329 -0.0684  0.2536 -0.8203
12318TIP3   OH258444   3.124   2.882   2.921 -0.0967 -0.0434 -0.1541
12318TIP3    H158445   3.134   2.933   3.002 -0.0308  1.2059 -0.9331
12318TIP3    H258446   3.030   2.868   2.914  0.0102 -1.8594  1.1262
12319TIP3   OH258447   5.184   2.251  13.607 -0.4566 -0.1328  0.3726
12319TIP3    H158448   5.160   2.162  13.583 -0.7369 -0.1816  0.8027
12319TIP3    H258449   5.268   2.242  13.651  0.0927 -0.0329 -0.6469
12320TIP3   OH258450   3.474   2.472   5.672 -0.5637  0.3408  0.6758
12320TIP3    H158451   3.511   2.441   5.589 -0.4491  1.9771  0.0893
12320TIP3    H258452   3.487   2.567   5.671  0.9363  0.2851  3.2897
12321TIP3   OH258453   4.339   6.804  16.221  0.0643  0.1210 -0.8571
12321TIP3    H158454   4.324   6.787  16.314 -0.2748  0.5466 -0.8288
12321TIP3    H258455   4.382   6.725  16.188 -0.0335 -0.1301 -0.3915
12322TIP3   OH258456   6.303   5.720   1.141  0.6969  0.4684  0.0509
12322TIP3    H158457   6.314   5.759   1.228  4.1856 -1.0708  0.4681
12322TIP3    H258458   6.385   5.740   1.096  0.0900 -1.1316 -1.8761
12323TIP3   OH258459   4.019   4.751   0.387  0.3770  0.1864 -0.4832
12323TIP3    H158460   4.035   4.657   0.383 -0.4356 -0.0474  1.0765
12323TIP3    H258461   4.037   4.775   0.478 -2.5973  0.9047  0.0290
12324TIP3   OH258462   5.724   5.202  14.933 -0.0656 -0.4931  0.2671
12324TIP3    H158463   5.808   5.183  14.891 -1.4981 -0.3542 -2.9534
12324TIP3    H258464   5.701   5.121  14.979  1.3436 -0.8567  0.3824
12325TIP3   OH258465   4.136   2.831   2.767 -0.1295  0.1138  0.5663
12325TIP3    H158466   4.041   2.841   2.778 -0.0090 -0.2967  2.3020
12325TIP3    H258467   4.173   2.912   2.803  0.1323  1.9280 -3.2849
12326TIP3   OH258468   6.253   4.802  14.054 -0.0774 -0.1383  0.5015
12326TIP3    H158469   6.297   4.736  14.001  2.4349  1.2519  0.6783
12326TIP3    H258470   6.302   4.883  14.036 -2.4185  1.4871  0.9963
12327TIP3   OH258471   5.560   4.495   3.551  0.0042 -0.1795 -0.1156
12327TIP3    H158472   5.622   4.444   3.498  1.0302  2.0544 -1.2147
12327TIP3    H258473   5.593   4.489   3.640  0.5696 -0.7625 -0.3579
12328TIP3   OH258474   4.800   1.821  15.912 -0.1266  0.2177  0.2673
12328TIP3    H158475   4.844   1.738  15.930  1.3619  0.8176 -0.4517
12328TIP3    H258476   4.868   1.887  15.923 -1.2187  1.3264  0.5405
12329TIP3   OH258477   5.286   1.696  15.485  0.2528  0.0243  0.0456
12329TIP3    H158478   5.271   1.646  15.405 -1.5892  1.4860 -0.5994
12329TIP3    H258479   5.326   1.778  15.455 -0.8463  0.7627  0.5322
12330TIP3   OH258480   3.862   5.566  14.843 -0.7711  0.0882 -0.2061
12330TIP3    H158481   3.927   5.533  14.906 -0.4533  1.4659  0.2237
12330TIP3    H258482   3.911   5.574  14.761 -0.5473  0.5401 -0.0336
12331TIP3   OH258483   4.826   4.243  11.469  0.1614 -0.2738 -0.5062
12331TIP3    H158484   4.769   4.301  11.420  2.1084  1.0002 -1.4108
12331TIP3    H258485   4.779   4.225  11.551 -0.5020  2.6952 -0.1159
12332TIP3   OH258486   4.083   2.373  10.597  0.0102  0.4559 -0.6226
12332TIP3    H158487   4.127   2.403  10.517 -0.8801 -0.2063 -1.3701
12332TIP3    H258488   4.009   2.433  10.607 -1.3394 -0.9685 -1.7065
12333TIP3   OH258489   4.732   1.821   5.919  0.0451  0.2133  0.6089
12333TIP3    H158490   4.760   1.907   5.887 -0.8374  0.1102 -0.4601
12333TIP3    H258491   4.664   1.840   5.983  0.5479  0.3357  1.1222
12334TIP3   OH258492   2.782   4.098   4.109  0.0238 -0.1796  0.1962
12334TIP3    H158493   2.780   4.087   4.204  0.7698 -1.6047  0.0835
12334TIP3    H258494   2.811   4.188   4.095  1.5426 -0.4593  1.3271
12335TIP3   OH258495   6.541   0.053   3.591  0.8647  0.3724  0.2509
12335TIP3    H158496   6.605   0.032   3.659  2.6017 -0.0492 -1.4318
12335TIP3    H258497   6.588   0.109   3.529 -1.0666  1.8580  0.0402
12336TIP3   OH258498   1.514   4.409   0.513  0.1455  0.1192  0.0854
12336TIP3    H158499   1.440   4.409   0.453  0.3610 -0.1103 -0.1852
12336TIP3    H258500   1.568   4.336   0.483 -0.0898 -0.4416  0.9760
12337TIP3   OH258501   0.353   4.064  13.284 -0.0880 -0.2331 -0.4560
12337TIP3    H158502   0.370   3.970  13.291  1.5888  0.0481 -0.3995
12337TIP3    H258503   0.342   4.079  13.190 -0.5718 -0.5131 -0.4468
12338TIP3   OH258504   6.803   0.559   0.663 -0.2907 -0.1581  0.2814
12338TIP3    H158505   6.859   0.481   0.660  0.3449  0.2282  1.3560
12338TIP3    H258506   6.844   0.620   0.601 -0.4313 -0.4564 -0.1031
12339TIP3   OH258507   2.598   2.574   1.304  0.3601 -0.0110  0.0709
12339TIP3    H158508   2.601   2.663   1.270 -1.1279 -0.9361 -2.8358
12339TIP3    H258509   2.522   2.572   1.362 -0.6893  0.2373 -1.2518
12340TIP3   OH258510   0.327   6.676   0.691 -0.1318 -0.4284  0.1556
12340TIP3    H158511   0.406   6.637   0.653 -0.0046  1.3226 -1.5712
12340TIP3    H258512   0.356   6.712   0.775  0.4579 -1.3588  0.3622
12341TIP3   OH258513   5.739   4.110   3.918  0.0787 -0.0469  0.1790
12341TIP3    H158514   5.732   4.044   3.986 -1.7303  0.4745  0.5727
12341TIP3    H258515   5.820   4.089   3.871  0.6192 -1.2619  1.5813
12342TIP3   OH258516   5.340   2.447  14.663 -0.2447  0.1439  0.0131
12342TIP3    H158517   5.252   2.485  14.672  0.2477  1.7521 -1.3642
12342TIP3    H258518   5.381   2.462  14.748 -1.8536 -2.3097  1.3295
12343TIP3   OH258519   0.189   0.447  12.435 -0.1363 -0.0604  0.1115
12343TIP3    H158520   0.149   0.525  12.474 -1.1843  0.5853 -2.0952
12343TIP3    H258521   0.157   0.446  12.345  1.9647 -1.5852 -0.7094
12344TIP3   OH258522   6.772   1.033   1.175  0.8523 -0.0363 -0.0009
12344TIP3    H158523   6.730   1.106   1.219  0.5957  0.1934 -0.6233
12344TIP3    H258524   6.774   1.058   1.083  0.7057 -0.8393 -0.2284
12345TIP3   OH258525   4.063   5.780   1.319  0.1865  0.1220  0.4247
12345TIP3    H158526   3.972   5.773   1.290  0.0771  1.3865  0.3706
12345TIP3    H258527   4.099   5.852   1.267  1.3856 -0.7211  0.0583
12346TIP3   OH258528   6.206   6.616   0.486 -0.6469  0.1211  0.4073
12346TIP3    H158529   6.138   6.552   0.507 -1.3851  1.3537  1.9283
12346TIP3    H258530   6.263   6.616   0.563 -0.4413  1.0252  0.2598
12347TIP3   OH258531   2.371   3.166   0.299  0.5638  0.0253 -0.3399
12347TIP3    H158532   2.347   3.099   0.363 -0.2223 -0.5827 -1.2269
12347TIP3    H258533   2.446   3.211   0.337 -0.2037  0.0177  1.2167
12348TIP3   OH258534   1.439   1.840  11.026 -0.4998  0.1819  0.1362
12348TIP3    H158535   1.444   1.905  10.955 -0.5496 -1.6147 -1.5907
12348TIP3    H258536   1.486   1.881  11.098 -0.6027  2.1785 -0.8455
12349TIP3   OH258537   5.374   1.896   1.930 -0.3929 -0.0382 -0.1192
12349TIP3    H158538   5.350   1.964   1.868 -0.6288 -0.3449 -0.3635
12349TIP3    H258539   5.431   1.941   1.994 -0.0756  0.2547 -0.6009
12350TIP3   OH258540   5.951   6.335   1.923 -0.0444 -0.6053 -0.2142
12350TIP3    H158541   5.940   6.335   2.018  2.2076 -1.9281  0.1272
12350TIP3    H258542   5.995   6.418   1.904  0.5493 -0.8537  0.0620
12351TIP3   OH258543   3.129   0.120  14.317  0.2199 -0.3500  0.4734
12351TIP3    H158544   3.079   0.198  14.340 -1.0333 -0.8185 -0.5093
12351TIP3    H258545   3.196   0.152  14.256  0.8739  0.2149  1.4615
12352TIP3   OH258546   4.924   6.140  11.555 -0.4268  0.1050  0.3769
12352TIP3    H158547   4.835   6.125  11.522 -1.3472  1.9011  1.8825
12352TIP3    H258548   4.913   6.152  11.649  1.5897 -0.7332  0.7772
12353TIP3   OH258549   2.804   5.513   1.124  0.0242  0.4663 -0.2471
12353TIP3    H158550   2.723   5.550   1.089 -0.0556 -0.0925 -0.6645
12353TIP3    H258551   2.778   5.429   1.162  0.6681 -0.5662 -1.9565
12354TIP3   OH258552   0.995   2.705  13.239 -0.4169 -0.0306  0.0110
12354TIP3    H158553   1.082   2.700  13.279 -0.8078 -0.4588  0.8389
12354TIP3    H258554   0.986   2.622  13.192  0.7312  1.1672 -2.5035
12355TIP3   OH258555   2.217   0.299   2.409 -0.0180  0.5188 -0.4147
12355TIP3    H158556   2.186   0.216   2.374 -0.2661  0.0163  0.9371
12355TIP3    H258557   2.194   0.363   2.342 -1.1927 -0.2980 -0.8295
12356TIP3   OH258558   2.818   5.715   2.903 -0.1958  1.1936  0.1049
12356TIP3    H158559   2.898   5.718   2.955 -1.3034  1.3120  1.9259
12356TIP3    H258560   2.753   5.761   2.957 -1.3808  1.5338 -1.5181
12357TIP3   OH258561   5.097   5.601   0.218  0.1154  0.1544 -0.1841
12357TIP3    H158562   5.091   5.590   0.123 -0.1065  3.5967 -0.7195
12357TIP3    H258563   5.010   5.579   0.250  0.5982 -2.4889 -0.4896
12358TIP3   OH258564   0.660   6.398   1.190  0.2328  0.2960 -0.3718
12358TIP3    H158565   0.740   6.359   1.154 -0.2327 -0.2879 -0.7958
12358TIP3    H258566   0.690   6.477   1.235  1.0369  0.1353 -0.6082
12359TIP3   OH258567   3.279   3.888  13.711 -0.4919  0.8047 -0.3794
12359TIP3    H158568   3.212   3.948  13.745  0.9802  2.8461 -0.8606
12359TIP3    H258569   3.360   3.915  13.754  0.4769  0.0941 -1.6866
12360TIP3   OH258570   1.506   0.837   2.894  0.1386  0.4364  0.6767
12360TIP3    H158571   1.458   0.889   2.830  3.2478  2.1052 -0.4727
12360TIP3    H258572   1.541   0.901   2.956  2.2480 -0.4412  0.4784
12361TIP3   OH258573   6.613   3.127   1.462 -0.0716 -0.2026  0.0003
12361TIP3    H158574   6.542   3.122   1.526 -1.3913  1.1389 -1.2708
12361TIP3    H258575   6.632   3.036   1.440 -0.0217 -0.6619  1.7874
12362TIP3   OH258576   4.164   4.871  15.957  0.0828  0.6000  0.9086
12362TIP3    H158577   4.156   4.882  15.862  2.3673  0.9727  0.7047
12362TIP3    H258578   4.129   4.784  15.974  2.6274 -0.8670 -0.7870
12363TIP3   OH258579   2.185   4.276  11.725 -0.2633 -0.5357 -0.4348
12363TIP3    H158580   2.184   4.277  11.630 -0.2217 -0.2964 -0.4351
12363TIP3    H258581   2.268   4.234  11.749  1.1865  2.0694 -0.5213
12364TIP3   OH258582   0.267   0.161   1.658 -0.1803  0.5463  0.2555
12364TIP3    H158583   0.261   0.253   1.629 -1.0173  1.0045  1.7532
12364TIP3    H258584   0.177   0.130   1.654  0.1585 -0.3528 -0.6104
12365TIP3   OH258585   6.752   3.624   3.040  0.6850  0.3106 -0.0187
12365TIP3    H158586   6.758   3.529   3.046 -1.8147 -0.0025 -0.9575
12365TIP3    H258587   6.718   3.652   3.125  3.2540  0.6653  0.9710
12366TIP3   OH258588   1.640   5.571   0.055  0.3247 -0.1066 -0.1062
12366TIP3    H158589   1.641   5.498   0.117  0.6353  1.3361  1.6894
12366TIP3    H258590   1.708   5.549  -0.009  0.1286 -1.5651  0.1604
12367TIP3   OH258591   6.565   1.133  14.069  1.1944 -0.2068  0.1503
12367TIP3    H158592   6.562   1.130  13.973  0.7401 -0.2802  0.1681
12367TIP3    H258593   6.586   1.043  14.094 -0.8088 -0.7032  0.1986
12368TIP3   OH258594   4.349   1.536   0.570  0.1876  0.6282 -0.1722
12368TIP3    H158595   4.398   1.576   0.499  0.6084  0.9943  0.3130
12368TIP3    H258596   4.360   1.442   0.558  0.9227  0.7072 -0.1232
12369TIP3   OH258597   6.447   5.510  14.494 -0.2215 -0.1268  0.9705
12369TIP3    H158598   6.361   5.469  14.495 -1.1610  1.6063 -1.1222
12369TIP3    H258599   6.477   5.505  14.585 -2.3304 -1.1199  1.6724
12370TIP3   OH258600   1.245   2.848   5.922  0.0201  0.0525 -0.4960
12370TIP3    H158601   1.264   2.759   5.951 -1.8617 -0.0990  0.4441
12370TIP3    H258602   1.330   2.890   5.914  0.8481 -0.6937  2.8307
12371TIP3   OH258603   5.734   0.586   3.833 -0.1276 -0.2378 -0.3867
12371TIP3    H158604   5.728   0.495   3.862  0.5999  0.0764  0.8018
12371TIP3    H258605   5.644   0.617   3.833 -0.2316 -0.4883  0.8130
12372TIP3   OH258606   3.463   4.399   0.439  0.1133  0.2069  0.1128
12372TIP3    H158607   3.395   4.459   0.470 -1.4598 -1.5284  0.1831
12372TIP3    H258608   3.516   4.381   0.516 -0.6369 -0.0457  0.5804
12373TIP3   OH258609   1.524   2.431  14.101  0.5678 -0.1461  0.1185
12373TIP3    H158610   1.458   2.480  14.051  1.6338  1.8436  0.5878
12373TIP3    H258611   1.474   2.362  14.144 -0.6261 -1.0305 -2.4414
12374TIP3   OH258612   0.431   5.633   1.736  0.0679  0.1065 -0.2729
12374TIP3    H158613   0.452   5.542   1.715 -1.5887 -0.2486 -0.5737
12374TIP3    H258614   0.432   5.637   1.832 -0.1188 -0.3119 -0.2530
12375TIP3   OH258615   2.005   1.065   0.646 -0.3922  0.1949  0.2555
12375TIP3    H158616   2.078   1.014   0.610 -1.4743 -1.0434 -0.3007
12375TIP3    H258617   1.994   1.137   0.585  0.0821  0.1403  0.0994
12376TIP3   OH258618   4.381   0.156  13.373 -0.2182 -0.6120 -0.3684
12376TIP3    H158619   4.377   0.204  13.455  0.3702  0.6004 -1.0295
12376TIP3    H258620   4.333   0.210  13.310  0.1152 -1.0781 -1.0421
12377TIP3   OH258621   4.729   2.844   5.717  0.1736  0.7813  0.7018
12377TIP3    H158622   4.802   2.903   5.737 -1.0834  2.0649  1.7059
12377TIP3    H258623   4.651   2.897   5.732 -1.0501 -1.4146  2.5621
12378TIP3   OH258624   6.732   5.941   3.759  0.0203 -0.0950  0.3142
12378TIP3    H158625   6.791   5.959   3.832  1.4869 -1.8677 -0.3583
12378TIP3    H258626   6.780   5.878   3.705 -1.9605 -0.5469 -0.9953
12379TIP3   OH258627   0.619   4.137   2.253 -0.2752 -0.2469  0.0780
12379TIP3    H158628   0.689   4.187   2.211 -0.6551 -1.1709 -1.7374
12379TIP3    H258629   0.663   4.064   2.295 -0.1506 -1.1072 -1.4871
12380TIP3   OH258630   0.020   3.859   1.304 -0.1649 -0.6887  0.0758
12380TIP3    H158631  -0.067   3.822   1.291 -0.1578 -1.0355  0.9708
12380TIP3    H258632   0.045   3.893   1.217 -0.5403 -1.9673 -0.5486
12381TIP3   OH258633   2.743   4.586   1.847 -0.2257  0.0759 -0.4690
12381TIP3    H158634   2.800   4.637   1.905  0.3876 -1.9703  0.8257
12381TIP3    H258635   2.717   4.511   1.899 -2.2942 -0.2153 -1.8242
12382TIP3   OH258636   4.563   2.500   1.223  0.4222  0.5324  0.1038
12382TIP3    H158637   4.623   2.506   1.297  0.1623 -1.2445  0.5046
12382TIP3    H258638   4.485   2.548   1.252 -0.8340 -2.4762  2.2645
12383TIP3   OH258639   4.035   4.473   1.350  0.4411  0.0051 -0.4845
12383TIP3    H158640   3.954   4.521   1.332  1.1897  1.3245 -0.5082
12383TIP3    H258641   4.053   4.426   1.269 -0.8372 -1.1765 -0.1308
12384TIP3   OH258642   5.110   5.463   2.191  0.5930 -0.1479 -0.4609
12384TIP3    H158643   5.196   5.460   2.232  0.2213 -0.2065  0.3478
12384TIP3    H258644   5.082   5.555   2.201  0.1040 -0.3698  0.2799
12385TIP3   OH258645   2.202   3.793   5.436 -0.0906  0.3236  0.2197
12385TIP3    H158646   2.197   3.850   5.359  0.1595  2.1259  1.4756
12385TIP3    H258647   2.126   3.816   5.488  2.3541  3.1555  3.0241
12386TIP3   OH258648   0.479   6.125   0.559  0.3706 -0.0279  0.0656
12386TIP3    H158649   0.501   6.208   0.516  2.2831 -0.5150  0.0441
12386TIP3    H258650   0.531   6.124   0.639 -0.5741 -0.6881  0.7031
12387TIP3   OH258651   1.143   4.080  12.069 -0.2562 -0.0857  0.1256
12387TIP3    H158652   1.226   4.128  12.070 -0.4283  0.2171  0.7942
12387TIP3    H258653   1.166   3.992  12.098  0.1008 -0.4937 -1.3328
12388TIP3   OH258654   4.335   4.407   3.762 -0.0420 -0.5853 -0.1773
12388TIP3    H158655   4.339   4.391   3.856  1.5048  1.6088  0.2096
12388TIP3    H258656   4.269   4.475   3.752  1.3200  0.7639 -0.3620
12389TIP3   OH258657   3.228   4.898  13.278 -0.5841  0.4879  0.0361
12389TIP3    H158658   3.183   4.930  13.356 -0.8644  1.5578 -0.5513
12389TIP3    H258659   3.173   4.926  13.205  0.9137  1.6452 -0.6899
12390TIP3   OH258660   1.506   1.601  11.554  0.1626 -0.7293 -0.0442
12390TIP3    H158661   1.481   1.656  11.628 -0.5236  0.7255 -1.2938
12390TIP3    H258662   1.424   1.581  11.510  0.5343 -1.7681 -0.3069
12391TIP3   OH258663   2.979   5.305  16.676  0.5085 -0.4577  0.5840
12391TIP3    H158664   3.002   5.255  16.597 -1.3110 -2.1910  1.0947
12391TIP3    H258665   3.035   5.268  16.744  1.5949  0.5840  0.2988
12392TIP3   OH258666   2.307   0.097  12.956 -0.4736 -0.7094 -0.4219
12392TIP3    H158667   2.300   0.192  12.955 -2.2191 -0.7996 -0.3331
12392TIP3    H258668   2.330   0.073  12.866  1.3173 -0.1563 -0.1428
12393TIP3   OH258669   5.789   3.765   1.384 -0.1784 -0.3856  0.3043
12393TIP3    H158670   5.864   3.790   1.438  2.2553  0.1150 -3.0252
12393TIP3    H258671   5.792   3.669   1.382 -0.0346 -0.3912  0.6771
12394TIP3   OH258672   5.587   3.786  13.429  0.0354  0.0777 -0.5536
12394TIP3    H158673   5.521   3.834  13.480  0.5417  1.1826 -0.8882
12394TIP3    H258674   5.635   3.735  13.494  0.8572  1.6882  0.1748
12395TIP3   OH258675   5.468   5.520  11.610 -0.3247  0.5292 -0.1336
12395TIP3    H158676   5.415   5.566  11.675 -0.2620  0.4658 -0.0358
12395TIP3    H258677   5.558   5.539  11.635 -0.2979  1.1457 -0.6646
12396TIP3   OH258678   4.201   0.055   4.203  0.4305 -0.3523  0.0126
12396TIP3    H158679   4.167   0.140   4.176  0.4394 -0.0685  0.8785
12396TIP3    H258680   4.181   0.049   4.296  1.6327 -0.7235  0.2663
12397TIP3   OH258681   5.832   4.779   1.382 -0.3478  0.0643  0.1818
12397TIP3    H158682   5.880   4.835   1.444 -0.0048 -1.0999  0.9970
12397TIP3    H258683   5.818   4.697   1.430  1.0651 -1.3578 -1.7054
12398TIP3   OH258684   4.775   4.285  14.091 -0.2846  0.5792  0.3662
12398TIP3    H158685   4.858   4.321  14.059 -2.3323  3.5122 -2.2839
12398TIP3    H258686   4.757   4.211  14.033 -0.2283  0.8687 -0.0210
12399TIP3   OH258687   6.166   0.388  15.753 -0.2863  0.4230  0.0833
12399TIP3    H158688   6.088   0.332  15.750 -0.1005  0.1565  0.2176
12399TIP3    H258689   6.133   0.473  15.783 -0.7183  0.6430 -0.9773
12400TIP3   OH258690   0.226   4.137  16.000 -0.0513 -0.5544  0.4606
12400TIP3    H158691   0.162   4.091  15.945  0.7810 -0.3088 -0.7524
12400TIP3    H258692   0.244   4.077  16.072 -0.3089 -1.3740 -0.1496
12401TIP3   OH258693   5.037   6.161   6.052 -0.3115  0.8450  0.6236
12401TIP3    H158694   4.986   6.228   6.097 -1.3086  0.2571  0.4030
12401TIP3    H258695   5.044   6.089   6.115 -1.1131  0.2978  0.0944
12402TIP3   OH258696   2.466   1.096   2.212  0.3715  0.3345  0.1879
12402TIP3    H158697   2.534   1.163   2.221  0.1660  0.4860  0.6385
12402TIP3    H258698   2.452   1.064   2.301 -1.2306  1.3911  0.3463
12403TIP3   OH258699   2.373   1.530   1.174 -0.2237 -0.0313 -0.4263
12403TIP3    H158700   2.423   1.603   1.136  1.9128 -1.8401 -1.3325
12403TIP3    H258701   2.411   1.519   1.261 -0.7485  0.1292 -0.1780
12404TIP3   OH258702   1.387   4.658   6.412 -0.0497  0.2664  0.4173
12404TIP3    H158703   1.476   4.691   6.418  0.2180 -0.3308 -0.1803
12404TIP3    H258704   1.383   4.587   6.476  0.1121 -0.1678 -0.0550
12405TIP3   OH258705   0.318   4.030  12.003 -0.1756 -0.1943 -0.0572
12405TIP3    H158706   0.349   4.090  11.936  1.6286 -2.2254 -1.1833
12405TIP3    H258707   0.396   3.979  12.027 -1.1400 -0.6841  2.3741
12406TIP3   OH258708   4.795   1.459  17.007  0.2201 -0.4496  0.3201
12406TIP3    H158709   4.738   1.391  16.971 -0.1294  0.5956 -1.2176
12406TIP3    H258710   4.746   1.540  16.996  1.8340  0.4362 -0.7257
12407TIP3   OH258711   6.363   3.089  11.416  0.0008 -0.6403 -0.0292
12407TIP3    H158712   6.282   3.052  11.381 -0.0037  0.5285 -1.3564
12407TIP3    H258713   6.389   3.029  11.486 -2.6360 -0.3964  1.2625
12408TIP3   OH258714   0.373   0.408  16.056  0.1487  0.1108 -0.6143
12408TIP3    H158715   0.343   0.334  16.108  0.9792  0.4169  0.3226
12408TIP3    H258716   0.462   0.426  16.087  0.6835  0.3161 -2.1308
12409TIP3   OH258717   4.411   4.489  12.440  0.1001 -0.0779  0.3029
12409TIP3    H158718   4.424   4.567  12.494  0.2139  1.0278 -1.2773
12409TIP3    H258719   4.467   4.423  12.482 -0.8020  0.3322  2.2824
12410TIP3   OH258720   1.735   0.209   2.537 -0.3179 -0.2732  0.0687
12410TIP3    H158721   1.663   0.221   2.475  2.0539  1.6728 -2.6151
12410TIP3    H258722   1.783   0.134   2.504  0.0510 -0.2614  0.5649
12411TIP3   OH258723   0.136   5.149  15.205 -0.0296 -0.5216  0.9538
12411TIP3    H158724   0.062   5.115  15.154  0.9995 -1.0296 -0.2521
12411TIP3    H258725   0.188   5.072  15.226 -0.0130 -0.2070  2.0919
12412TIP3   OH258726   1.787   3.112   4.975 -0.8837  0.0447  0.2505
12412TIP3    H158727   1.832   3.192   4.947  0.3368 -1.0042 -0.9232
12412TIP3    H258728   1.737   3.084   4.898  1.2062 -1.9820 -0.4935
12413TIP3   OH258729   1.043   3.021   2.120  0.5498 -0.3271 -0.0299
12413TIP3    H158730   0.995   3.076   2.058  1.4584 -1.9139 -2.2905
12413TIP3    H258731   1.122   3.072   2.140 -0.2765  0.6835  0.7750
12414TIP3   OH258732   5.126   3.681  16.600 -0.1652  0.2763  0.0787
12414TIP3    H158733   5.141   3.754  16.660  1.1951 -0.9344  1.2845
12414TIP3    H258734   5.159   3.605  16.647 -2.2303 -1.2625 -0.8372
12415TIP3   OH258735   4.168   5.812  12.939 -0.1636  0.2669  0.6443
12415TIP3    H158736   4.202   5.817  13.028  0.8643 -0.3280  0.2904
12415TIP3    H258737   4.095   5.751  12.944  1.5479 -1.8921  0.6101
12416TIP3   OH258738   2.646   5.509   2.822 -0.0090 -0.0439 -0.0115
12416TIP3    H158739   2.695   5.589   2.841 -0.7247  0.2909  0.4634
12416TIP3    H258740   2.713   5.440   2.822  0.7909  0.6811 -1.5274
12417TIP3   OH258741   2.825   0.724   1.102  0.3865  0.0709  0.7094
12417TIP3    H158742   2.861   0.669   1.171  1.2023  0.2125  0.4121
12417TIP3    H258743   2.881   0.707   1.026  0.0922  0.6313  0.3570
12418TIP3   OH258744   1.196   4.180  12.715  0.3864  0.7342 -0.6365
12418TIP3    H158745   1.259   4.107  12.710 -0.6218 -0.2493  0.4663
12418TIP3    H258746   1.164   4.189  12.625  0.5644 -0.1512 -0.8004
12419TIP3   OH258747   5.021   6.095   3.130 -1.0321  0.3363  0.4857
12419TIP3    H158748   4.950   6.130   3.076 -0.8952 -0.6701 -0.3682
12419TIP3    H258749   4.979   6.026   3.182 -0.5853 -0.6926 -0.4721
12420TIP3   OH258750   3.070   4.808  16.213  0.1217 -0.2640 -0.3438
12420TIP3    H158751   3.165   4.810  16.219  0.0726  1.1757  0.2444
12420TIP3    H258752   3.047   4.882  16.157 -0.5898 -1.5977 -1.8997
12421TIP3   OH258753   5.884   2.433  16.841 -0.8715  0.2966  0.1427
12421TIP3    H158754   5.875   2.526  16.822 -1.7376  0.0081 -0.9593
12421TIP3    H258755   5.952   2.428  16.908  1.2458  1.4950 -1.8097
12422TIP3   OH258756   4.348   1.795   2.859  0.1072 -0.0247  0.3026
12422TIP3    H158757   4.330   1.726   2.795 -0.1096  0.5683 -0.2866
12422TIP3    H258758   4.264   1.812   2.900 -0.0341  0.5252 -0.2036
12423TIP3   OH258759   6.515   5.212  11.545 -0.4546  0.7418  0.5172
12423TIP3    H158760   6.423   5.188  11.552 -0.5575  1.2863  1.0892
12423TIP3    H258761   6.535   5.201  11.452 -0.7292 -0.6567  0.6045
12424TIP3   OH258762   4.312   6.402  15.713 -0.0406 -0.0536 -0.3465
12424TIP3    H158763   4.274   6.471  15.767 -2.4199 -0.4069 -1.4591
12424TIP3    H258764   4.366   6.351  15.774 -0.7673  0.9122  1.1667
12425TIP3   OH258765   6.041   2.489  15.515 -0.4838  0.5178  0.3052
12425TIP3    H158766   6.080   2.560  15.463  1.4200 -2.2849 -2.4806
12425TIP3    H258767   5.957   2.471  15.473 -0.2769  0.1721  0.0301
12426TIP3   OH258768   5.573   4.795  11.680 -0.1570 -0.2420  0.4039
12426TIP3    H158769   5.586   4.838  11.765 -1.9848 -0.7376  0.9633
12426TIP3    H258770   5.528   4.714  11.701  1.3304 -1.4599 -0.8630
12427TIP3   OH258771   4.709   2.847   2.675  0.3383  0.5282 -0.1479
12427TIP3    H158772   4.691   2.845   2.769  0.4766  0.6671 -0.1174
12427TIP3    H258773   4.780   2.785   2.662  0.1751  0.3478 -0.1945
12428TIP3   OH258774   4.178   4.961   6.178  0.0215 -0.3545 -0.0892
12428TIP3    H158775   4.233   4.997   6.109 -0.4610  1.0146  0.2217
12428TIP3    H258776   4.138   4.883   6.138  0.9313 -0.4530 -0.8320
12429TIP3   OH258777   3.436   4.974  15.059  0.1582  0.0928  0.1624
12429TIP3    H158778   3.393   4.978  14.973  0.7617 -1.1057 -0.2176
12429TIP3    H258779   3.485   4.892  15.057 -0.4669 -0.3646  1.9718
12430TIP3   OH258780   3.498   1.008   3.967 -0.6488 -0.4906  0.1038
12430TIP3    H158781   3.511   0.922   4.007  0.5384 -0.0010  0.8229
12430TIP3    H258782   3.502   1.070   4.040  0.2745  0.3106 -0.5979
12431TIP3   OH258783   1.454   5.514  14.809  0.2902 -0.9494  0.2902
12431TIP3    H158784   1.497   5.600  14.807 -0.3133 -0.6480 -0.2080
12431TIP3    H258785   1.380   5.526  14.867 -0.6938 -0.6803 -0.9752
12432TIP3   OH258786   5.710   4.508  14.985  0.6135  0.2397 -0.2069
12432TIP3    H158787   5.697   4.511  14.890 -2.2232  1.6766  0.1204
12432TIP3    H258788   5.689   4.597  15.015 -0.3806 -0.6429  1.9398
12433TIP3   OH258789   3.844   2.796   3.712  0.1063 -0.4104 -0.1453
12433TIP3    H158790   3.773   2.856   3.687 -0.5146 -0.4088  1.4500
12433TIP3    H258791   3.833   2.786   3.807  2.7791  0.2551  0.3008
12434TIP3   OH258792   0.728   3.059  12.918  0.2296  0.1495 -0.3690
12434TIP3    H158793   0.729   3.106  13.002  0.2491 -0.8793  0.2282
12434TIP3    H258794   0.776   2.978  12.936  1.4427  0.5095 -1.7471
12435TIP3   OH258795   3.782   1.846  15.486  0.8361  0.3365  0.5013
12435TIP3    H158796   3.811   1.785  15.418  1.7035  0.5904  0.6423
12435TIP3    H258797   3.832   1.822  15.563  1.1160  1.1691  0.5841
12436TIP3   OH258798   6.128   0.473  11.829 -0.6340  0.5070 -0.5306
12436TIP3    H158799   6.084   0.553  11.858 -0.2472  0.7198 -0.5202
12436TIP3    H258800   6.074   0.441  11.757 -0.5544  1.0212 -0.8260
12437TIP3   OH258801   0.337   3.337  13.515 -0.8198  0.6786  0.6106
12437TIP3    H158802   0.367   3.411  13.568 -0.6819  0.6475  0.5762
12437TIP3    H258803   0.418   3.298  13.480 -0.9871  2.6874 -2.3422
12438TIP3   OH258804   0.171   3.351  13.241  0.5487  0.1832  0.2369
12438TIP3    H158805   0.212   3.265  13.230  3.4123  1.1615  2.0366
12438TIP3    H258806   0.185   3.372  13.333 -1.3369  2.0176  0.1690
12439TIP3   OH258807   5.852   2.782   3.463 -0.1779  0.0169 -0.6916
12439TIP3    H158808   5.841   2.724   3.388 -0.0510  0.6180 -1.1842
12439TIP3    H258809   5.946   2.786   3.478 -0.2876 -2.5405  1.4737
12440TIP3   OH258810   1.254   3.414  13.918 -0.1096 -0.0948  0.0773
12440TIP3    H158811   1.220   3.480  13.978  0.0921 -1.7504  2.1103
12440TIP3    H258812   1.309   3.463  13.857  1.8176  1.4329  2.8457
12441TIP3   OH258813   1.028   5.223   2.804 -0.3307  0.1235  0.4169
12441TIP3    H158814   1.003   5.152   2.746  1.5500 -2.0296  2.0366
12441TIP3    H258815   1.089   5.276   2.753  1.7507 -2.0542  0.4525
12442TIP3   OH258816   4.957   3.974  14.923 -0.1004  0.2164 -0.4392
12442TIP3    H158817   4.974   3.929  15.006 -0.7287 -0.7944 -0.8367
12442TIP3    H258818   5.043   4.010  14.897  0.2471 -0.0654  0.2897
12443TIP3   OH258819   0.640   6.698  13.391  0.2165  0.1963  0.2049
12443TIP3    H158820   0.559   6.647  13.391  0.2163  0.1117 -1.6228
12443TIP3    H258821   0.702   6.644  13.439 -0.5638 -0.1500  0.8506
12444TIP3   OH258822   0.342   0.373   5.040  0.0142 -0.6225 -0.8092
12444TIP3    H158823   0.342   0.346   5.132  1.6076  0.5647 -0.4266
12444TIP3    H258824   0.271   0.436   5.033 -0.8348 -1.5385 -0.6785
12445TIP3   OH258825   0.776   1.261  14.326 -0.0284 -0.6387  0.6601
12445TIP3    H158826   0.813   1.184  14.369 -0.5091 -1.1352  0.2094
12445TIP3    H258827   0.803   1.335  14.381 -0.2601 -1.2067  1.5595
12446TIP3   OH258828   4.490   6.153  13.937 -0.3351 -0.2154  0.1652
12446TIP3    H158829   4.457   6.105  14.013  0.1065 -1.5602 -0.4676
12446TIP3    H258830   4.429   6.130  13.866 -0.3760  0.5296 -0.0565
12447TIP3   OH258831   2.427   3.456  11.546  0.2063  0.2023  0.9220
12447TIP3    H158832   2.338   3.475  11.517  0.5634  2.2680  1.0116
12447TIP3    H258833   2.477   3.444  11.466 -0.1491 -1.1061  0.8740
12448TIP3   OH258834   0.542   3.288  13.180 -0.0845 -0.3881 -0.1874
12448TIP3    H158835   0.513   3.232  13.107  1.0803  0.2247 -1.1663
12448TIP3    H258836   0.488   3.260  13.254  0.7652 -3.1872 -0.4799
12449TIP3   OH258837   1.662   0.345   2.808  0.2391  0.5898 -0.3797
12449TIP3    H158838   1.668   0.414   2.742 -1.5793  2.0120  0.8294
12449TIP3    H258839   1.646   0.265   2.759  1.7091  1.1060 -1.7904
12450TIP3   OH258840   0.748   2.802  15.886  0.8608  0.8760 -0.1144
12450TIP3    H158841   0.785   2.877  15.932  1.2933  1.0863 -0.7849
12450TIP3    H258842   0.704   2.840  15.810  0.7386  0.4883 -0.2415
12451TIP3   OH258843   3.910   4.661  16.905 -0.1298 -0.0427 -0.8953
12451TIP3    H158844   3.909   4.724  16.976 -0.1086 -0.2109 -0.7437
12451TIP3    H258845   3.891   4.577  16.947 -0.7045 -0.0559 -1.1766
12452TIP3   OH258846   5.507   4.763   2.238  0.1768  0.0533 -0.1386
12452TIP3    H158847   5.505   4.699   2.309  1.1321  1.3576  1.1146
12452TIP3    H258848   5.492   4.848   2.281  2.1375  1.0378 -1.2466
12453TIP3   OH258849   0.250   6.482   2.410  0.2274  0.5046  0.1015
12453TIP3    H158850   0.258   6.436   2.326 -1.2487  1.7592 -0.8026
12453TIP3    H258851   0.158   6.469   2.435  0.6131  0.2982  1.4314
12454TIP3   OH258852   1.287   2.904   3.727  0.8313 -0.1294  0.3327
12454TIP3    H158853   1.287   2.999   3.743  1.3205 -0.1274  0.3215
12454TIP3    H258854   1.378   2.877   3.739  0.8161 -0.4936 -0.2960
12455TIP3   OH258855   2.131   2.194   2.346 -0.0579 -0.1872  0.1862
12455TIP3    H158856   2.141   2.186   2.441 -1.0428 -1.5907  0.1952
12455TIP3    H258857   2.088   2.279   2.334 -0.3727 -0.2208  1.0232
12456TIP3   OH258858   3.067   4.712   4.375 -0.1942 -0.7811 -0.3369
12456TIP3    H158859   3.121   4.789   4.397 -1.4437  0.8759 -2.5968
12456TIP3    H258860   3.127   4.654   4.328  0.2752 -0.2531 -0.4073
12457TIP3   OH258861   5.703   0.326  14.749  0.1551 -0.0576 -0.0851
12457TIP3    H158862   5.650   0.247  14.750  0.8736 -0.5703 -0.8804
12457TIP3    H258863   5.708   0.351  14.657 -0.5672  1.2824  0.2041
12458TIP3   OH258864   5.885   4.093  14.364 -0.1500 -0.5488 -0.3252
12458TIP3    H158865   5.969   4.073  14.323  0.2892 -0.2141  0.4023
12458TIP3    H258866   5.851   4.168  14.314 -0.8962 -1.8257 -1.8102
12459TIP3   OH258867   3.601   2.045  11.690  0.1331 -0.2809 -0.3805
12459TIP3    H158868   3.507   2.027  11.691 -0.2179  1.2296 -1.5388
12459TIP3    H258869   3.636   1.986  11.624 -0.0745 -0.5533 -0.2479
12460TIP3   OH258870   5.007   0.355   0.265  0.2173 -0.1396  0.3770
12460TIP3    H158871   5.043   0.387   0.183 -1.0584  2.7249  0.8211
12460TIP3    H258872   4.944   0.288   0.239  1.0336 -0.4758 -0.8175
12461TIP3   OH258873   4.984   1.507   2.946 -0.3802  0.0288  0.0087
12461TIP3    H158874   4.961   1.524   3.038 -3.4574 -0.2326 -0.6021
12461TIP3    H258875   4.901   1.514   2.899  0.6998 -2.1148 -2.4468
12462TIP3   OH258876   6.107   4.126  13.774  0.9400 -0.8626  0.3974
12462TIP3    H158877   6.100   4.187  13.701  1.0692 -0.0366  1.0515
12462TIP3    H258878   6.163   4.055  13.742  1.9444  0.0589  0.0564
12463TIP3   OH258879   1.621   0.242  16.894 -0.2842 -0.7994  0.1076
12463TIP3    H158880   1.588   0.172  16.950  0.2095 -0.0952  1.3144
12463TIP3    H258881   1.661   0.197  16.820  0.9415 -1.8596  1.3688
12464TIP3   OH258882   3.849   4.681   5.610 -0.2011 -0.3061  1.1156
12464TIP3    H158883   3.919   4.658   5.671  0.2739  0.3800  0.8358
12464TIP3    H258884   3.811   4.597   5.585 -0.4659 -0.5969  2.4230
12465TIP3   OH258885   3.870   4.030  17.024 -0.0554  0.0256 -0.0944
12465TIP3    H158886   3.815   4.084  17.080 -1.1460 -2.2334  1.1965
12465TIP3    H258887   3.949   4.015  17.076  0.2403  0.3704 -0.4438
12466TIP3   OH258888   4.271   2.658  11.191  0.7306 -0.1202  0.0369
12466TIP3    H158889   4.227   2.684  11.110  1.8781 -0.0678 -0.6028
12466TIP3    H258890   4.364   2.671  11.172  1.1037 -1.3242  0.9226
12467TIP3   OH258891   1.659   4.131   4.493  0.0824  0.0388 -0.3298
12467TIP3    H158892   1.584   4.162   4.544 -0.8514  0.5554 -1.9421
12467TIP3    H258893   1.621   4.083   4.420  1.3881 -0.9255 -0.4094
12468TIP3   OH258894   3.006   0.212  15.690  0.3764 -0.0146  0.6682
12468TIP3    H158895   3.102   0.212  15.694  0.4228  0.1882 -0.1525
12468TIP3    H258896   2.983   0.298  15.657  0.0665 -0.8542 -1.4985
12469TIP3   OH258897   2.565   4.521   3.812 -0.1468 -0.0207  0.0344
12469TIP3    H158898   2.550   4.453   3.746 -1.1268 -0.5907  0.8079
12469TIP3    H258899   2.654   4.506   3.842 -0.2728 -0.8264  0.0313
12470TIP3   OH258900   2.429   1.848   0.169 -0.3734 -0.6205  0.3833
12470TIP3    H158901   2.432   1.943   0.161  0.4403 -0.7590 -1.1808
12470TIP3    H258902   2.337   1.825   0.157 -0.3412 -0.1449 -0.8737
12471TIP3   OH258903   2.989   0.027  12.511  0.0303  0.4261  0.0274
12471TIP3    H158904   2.935  -0.050  12.528 -3.1258  2.2521 -1.0475
12471TIP3    H258905   2.996   0.070  12.596  0.5502 -0.2140  0.3245
12472TIP3   OH258906   6.261   6.466  16.829 -0.0269  0.4375 -0.2644
12472TIP3    H158907   6.175   6.471  16.787  0.4059 -0.3258 -1.3014
12472TIP3    H258908   6.314   6.532  16.785  0.2874 -0.0142 -0.5773
12473TIP3   OH258909   3.661   1.137   3.552 -0.9843  0.1951  0.3868
12473TIP3    H158910   3.578   1.184   3.544 -1.1721 -0.1151  0.4794
12473TIP3    H258911   3.676   1.132   3.646 -0.4726  0.9183  0.3465
12474TIP3   OH258912   0.747   2.787  14.631  0.3457 -0.3582  0.5541
12474TIP3    H158913   0.662   2.745  14.616  0.2272 -0.7999  2.2445
12474TIP3    H258914   0.782   2.743  14.709  1.6337  0.5670  0.5286
12475TIP3   OH258915   2.808   4.119  15.512 -0.5680  0.8493  0.4878
12475TIP3    H158916   2.854   4.154  15.589  0.2197  1.0532 -0.0630
12475TIP3    H258917   2.874   4.119  15.443 -0.7624 -1.0080  0.2574
12476TIP3   OH258918   0.360   6.655  15.900  0.0394  0.1756  0.1887
12476TIP3    H158919   0.298   6.635  15.970 -1.1600  0.9119 -0.6216
12476TIP3    H258920   0.312   6.638  15.819  1.3398 -0.4863 -0.4770
12477TIP3   OH258921   5.875   6.108  10.866  0.1570 -0.0711 -0.0783
12477TIP3    H158922   5.949   6.051  10.845  1.1305  1.2210 -0.2829
12477TIP3    H258923   5.803   6.073  10.814  1.2271  0.0452 -1.7305
12478TIP3   OH258924   2.554   5.451   6.026  0.2705 -0.1543 -0.1283
12478TIP3    H158925   2.546   5.361   5.995 -0.1205 -0.6766  1.4077
12478TIP3    H258926   2.633   5.484   5.985  0.7545 -1.4079 -0.2388
12479TIP3   OH258927   4.270   3.003   2.948 -0.4906 -0.6149 -0.0339
12479TIP3    H158928   4.283   2.960   3.032  0.6814 -1.7850 -0.7775
12479TIP3    H258929   4.325   2.955   2.887  1.9007  2.6489 -0.7329
12480TIP3   OH258930   4.263   4.542  13.089  0.2605  0.3915  0.1419
12480TIP3    H158931   4.322   4.469  13.108 -1.2933 -2.2587 -3.8300
12480TIP3    H258932   4.219   4.560  13.172  2.6321 -1.2682  1.9004
12481TIP3   OH258933   3.733   5.278  17.095 -0.6490 -0.3974  0.5032
12481TIP3    H158934   3.686   5.314  17.170 -0.1029  2.8843 -0.5677
12481TIP3    H258935   3.683   5.307  17.019  0.2504 -1.3770 -0.5062
12482TIP3   OH258936   3.283   0.919   3.605  0.7468 -0.2499  0.2070
12482TIP3    H158937   3.246   0.943   3.520  4.0012  3.6074 -0.3862
12482TIP3    H258938   3.334   0.840   3.588 -0.3644 -0.7748 -0.8516
12483TIP3   OH258939   4.122   5.987   1.175 -0.1058 -0.0637  0.4037
12483TIP3    H158940   4.074   6.046   1.118  0.7925  0.6522  0.3572
12483TIP3    H258941   4.212   5.989   1.142 -0.1196 -1.7547  0.1699
12484TIP3   OH258942   2.506   2.666  12.389 -0.0494 -0.2425 -0.0194
12484TIP3    H158943   2.514   2.579  12.350 -0.2650  0.1919 -1.0791
12484TIP3    H258944   2.419   2.695  12.361  0.2903  0.5756 -0.2434
12485TIP3   OH258945   1.669   5.902   3.299  0.2020 -0.4936 -0.1569
12485TIP3    H158946   1.700   5.973   3.242 -0.7731 -1.2284 -1.6806
12485TIP3    H258947   1.746   5.877   3.350  0.5677  1.6522  0.4482
12486TIP3   OH258948   6.035   2.896  11.214 -0.0326  0.2088  0.2674
12486TIP3    H158949   5.977   2.820  11.227 -0.3475  0.4601  0.3596
12486TIP3    H258950   6.119   2.868  11.248  0.0116 -0.3109 -0.2472
12487TIP3   OH258951   2.012   1.386   1.715  0.5112  0.7881 -0.1928
12487TIP3    H158952   1.985   1.363   1.626  1.6291 -0.6080 -0.2159
12487TIP3    H258953   1.931   1.385   1.766 -0.0008  0.5142 -0.9900
12488TIP3   OH258954   5.893   2.440   5.816 -0.0206  0.3937  0.7863
12488TIP3    H158955   5.880   2.345   5.812 -1.1985  0.5645 -0.1344
12488TIP3    H258956   5.825   2.471   5.876 -1.2135  0.8731 -0.7527
12489TIP3   OH258957   0.512   4.509   6.311  0.5332 -0.0683 -0.6393
12489TIP3    H158958   0.509   4.573   6.240  1.4183  1.1965  0.4088
12489TIP3    H258959   0.501   4.561   6.391  0.1698 -1.3701  0.2019
12490TIP3   OH258960   6.801   3.732   1.578 -0.1967 -0.1631 -0.6015
12490TIP3    H158961   6.835   3.769   1.496  1.5195  1.0335  0.5773
12490TIP3    H258962   6.807   3.637   1.566  4.7372 -0.1521 -0.2014
12491TIP3   OH258963   3.376   5.866  13.969  0.9355  0.8555  0.6532
12491TIP3    H158964   3.441   5.827  13.911  1.0080 -0.3169  1.4819
12491TIP3    H258965   3.292   5.850  13.926  1.0416  0.6253  0.5312
12492TIP3   OH258966   2.674   2.478   6.507  0.4208  0.6092 -0.1498
12492TIP3    H158967   2.703   2.461   6.596 -0.0433  0.9706  0.0718
12492TIP3    H258968   2.694   2.397   6.459 -0.9421 -0.2692  0.6845
12493TIP3   OH258969   2.086   2.631  14.566 -0.0676 -0.1761  0.5941
12493TIP3    H158970   2.071   2.575  14.490 -1.5166  1.2063 -0.1872
12493TIP3    H258971   2.083   2.571  14.641 -0.3143 -1.3132 -0.2943
12494TIP3   OH258972   3.876   2.302  13.742 -0.4293 -0.4063  0.0468
12494TIP3    H158973   3.800   2.301  13.684 -1.8845 -2.2252  1.8173
12494TIP3    H258974   3.874   2.389  13.783  0.3526  0.7212 -2.1891
12495TIP3   OH258975   0.385   1.799  11.352  0.5511 -0.0088  0.4470
12495TIP3    H158976   0.323   1.733  11.320 -0.3714  0.8174  0.4704
12495TIP3    H258977   0.445   1.812  11.279  0.0948 -0.1017  0.0455
12496TIP3   OH258978   0.725   3.729   1.617 -0.0008  0.6718 -0.7024
12496TIP3    H158979   0.644   3.709   1.663  0.9332  0.8870  1.0861
12496TIP3    H258980   0.736   3.824   1.627  1.1028  0.4715  0.1856
12497TIP3   OH258981   5.364   4.673   1.071 -0.1252  0.6080 -0.4943
12497TIP3    H158982   5.295   4.685   1.136 -0.6664  2.4504 -1.3413
12497TIP3    H258983   5.445   4.688   1.119 -0.2809 -1.2850  0.4453
12498TIP3   OH258984   3.865   6.447   0.180  0.2049 -0.2748 -0.2560
12498TIP3    H158985   3.929   6.470   0.247 -0.0094  0.9337 -0.4321
12498TIP3    H258986   3.786   6.496   0.205 -0.0125 -0.1574 -1.1407
12499TIP3   OH258987   3.815   0.005  13.302 -0.5729 -0.3367  0.4166
12499TIP3    H158988   3.878  -0.043  13.356  0.4389  1.4315  0.9207
12499TIP3    H258989   3.804   0.089  13.348 -1.9613  0.0618 -0.5996
12500TIP3   OH258990   3.408   4.791   0.789  0.1444 -0.1704 -0.2646
12500TIP3    H158991   3.373   4.788   0.878 -0.5280  0.7724 -0.4895
12500TIP3    H258992   3.501   4.810   0.801  0.3669 -1.4810  0.2801
12501TIP3   OH258993   3.914   3.683   5.206  0.0702 -0.4723  0.0931
12501TIP3    H158994   3.987   3.718   5.256  0.7863 -1.6238 -0.1303
12501TIP3    H258995   3.927   3.589   5.205  0.3966 -0.4991 -2.6962
12502TIP3   OH258996   6.821   4.871   3.874 -0.4023  0.0641 -0.5400
12502TIP3    H158997   6.830   4.793   3.819 -1.1614 -1.3476  1.2275
12502TIP3    H258998   6.762   4.843   3.945 -0.9354  2.3547 -0.0133
12503TIP3   OH258999   5.947   3.355  15.134  0.0475  0.6113  0.6939
12503TIP3    H159000   6.030   3.309  15.147  0.8304  2.1749  1.6407
12503TIP3    H259001   5.884   3.287  15.113  1.8757 -0.4735 -1.7428
12504TIP3   OH259002   6.274   3.270   4.440 -1.0153  0.4427  0.6634
12504TIP3    H159003   6.239   3.199   4.494 -1.6133  0.8439  0.8074
12504TIP3    H259004   6.347   3.305   4.490  0.1365 -0.9179  0.0076
12505TIP3   OH259005   6.643   6.818  14.492 -0.1804  0.1371  0.3109
12505TIP3    H159006   6.608   6.783  14.411  1.8694  0.7043 -0.8991
12505TIP3    H259007   6.626   6.912  14.488  1.7587  0.5081 -0.5415
12506TIP3   OH259008   4.716   4.065  12.860 -0.3711  0.2108 -0.0392
12506TIP3    H159009   4.806   4.094  12.849 -0.4863  0.8298  0.5604
12506TIP3    H259010   4.718   4.010  12.939 -0.4121 -0.2688 -0.3682
12507TIP3   OH259011   0.980   3.819   0.792 -0.5976 -0.2255 -0.3605
12507TIP3    H159012   0.938   3.844   0.710  1.4803  2.1510 -0.8319
12507TIP3    H259013   1.049   3.883   0.804  0.3258 -1.5622  2.3825
12508TIP3   OH259014   3.097   0.499   2.741 -1.1171 -0.1332 -0.5701
12508TIP3    H159015   3.051   0.422   2.709 -1.1834 -0.1798 -0.3653
12508TIP3    H259016   3.039   0.535   2.808 -0.8560 -0.1916 -0.3125
12509TIP3   OH259017   2.436   6.754  12.118 -0.8290 -0.4632  0.2617
12509TIP3    H159018   2.500   6.806  12.070 -0.3851 -1.3299 -0.1223
12509TIP3    H259019   2.477   6.667  12.125 -2.0503 -1.0979 -0.1968
12510TIP3   OH259020   6.027   4.699   2.234 -0.2488  0.1393 -0.1576
12510TIP3    H159021   5.968   4.637   2.275 -0.0367 -0.3887 -0.6409
12510TIP3    H259022   5.970   4.756   2.182 -0.2778 -0.8721 -1.2674
12511TIP3   OH259023   2.150   0.574   5.613 -0.0860 -0.0559 -0.2070
12511TIP3    H159024   2.216   0.594   5.680 -0.1845  1.1251 -0.4460
12511TIP3    H259025   2.128   0.482   5.628  2.5575 -0.8955 -0.9478
12512TIP3   OH259026   0.832   3.465  14.164 -0.4478 -0.9743  0.6232
12512TIP3    H159027   0.849   3.549  14.206 -0.6693 -1.9591  2.8038
12512TIP3    H259028   0.799   3.409  14.234 -0.1200 -2.9521 -0.7146
12513TIP3   OH259029   0.548   6.322   1.496  0.1648  0.0605 -0.1236
12513TIP3    H159030   0.623   6.309   1.438  0.6256  2.1084 -0.0344
12513TIP3    H259031   0.485   6.255   1.468  0.8555  0.1819 -2.1481
12514TIP3   OH259032   0.260   2.988   3.633  0.3161 -0.2213  0.6028
12514TIP3    H159033   0.184   2.954   3.680 -0.7197  2.4328  0.9848
12514TIP3    H259034   0.324   2.916   3.636 -0.5148 -0.9771  4.0694
12515TIP3   OH259035   1.600   6.158  13.883  0.3819 -0.3177  0.3344
12515TIP3    H159036   1.584   6.139  13.791 -1.6681 -1.2489  0.8284
12515TIP3    H259037   1.552   6.239  13.900 -1.2376 -1.3675  1.0627
12516TIP3   OH259038   2.672   4.960   2.805  0.1124 -0.4638 -0.0652
12516TIP3    H159039   2.697   4.967   2.897 -1.1607 -2.2055  0.4949
12516TIP3    H259040   2.685   5.047   2.769  0.9780  0.1744  1.6748
12517TIP3   OH259041   3.409   4.933   4.171  0.0662  0.7213 -0.3723
12517TIP3    H159042   3.381   5.019   4.140 -1.0206  2.3576  4.3005
12517TIP3    H259043   3.505   4.940   4.176  0.2102  0.6545 -2.3149
12518TIP3   OH259044   1.010   1.709  14.737  0.7980 -0.6267 -0.4684
12518TIP3    H159045   1.021   1.800  14.763 -0.5653 -0.5149 -0.1695
12518TIP3    H259046   1.050   1.659  14.808 -0.1860 -0.2675  0.3766
12519TIP3   OH259047   0.636   1.031  16.408  0.1651  0.3681 -0.0629
12519TIP3    H159048   0.702   0.972  16.444 -0.6262 -0.6268 -0.1903
12519TIP3    H259049   0.685   1.108  16.381  1.3156 -0.4552 -0.4241
12520TIP3   OH259050   0.110   2.820   3.816  0.1017 -0.2562 -0.0099
12520TIP3    H159051   0.056   2.742   3.830  0.4980 -0.7914 -1.3131
12520TIP3    H259052   0.121   2.858   3.904  0.6062 -2.1459  0.7916
12521TIP3   OH259053   5.636   5.894  13.772 -0.1583  0.5528  0.8235
12521TIP3    H159054   5.698   5.952  13.728 -0.7808  1.1219  0.6610
12521TIP3    H259055   5.687   5.850  13.839  0.9447 -0.6859 -0.7514
12522TIP3   OH259056   0.502   4.151   4.514  0.0426 -0.3914  0.2067
12522TIP3    H159057   0.473   4.221   4.455 -2.9741  0.5436  2.5536
12522TIP3    H259058   0.554   4.195   4.581  0.5154 -0.8787  0.1687
12523TIP3   OH259059   5.169   3.870  16.796 -0.0692 -1.2301  0.0555
12523TIP3    H159060   5.256   3.908  16.803 -0.6539  0.0592  0.5689
12523TIP3    H259061   5.146   3.845  16.886 -1.0874  0.4814  0.3252
12524TIP3   OH259062   1.151   1.134  15.138 -0.5815  0.1913  0.3708
12524TIP3    H159063   1.110   1.053  15.110 -1.4181  0.6890  0.0968
12524TIP3    H259064   1.151   1.190  15.060 -1.1176  0.8803  0.8466
12525TIP3   OH259065   6.258   2.459  11.952  0.4030  0.5008  0.5872
12525TIP3    H159066   6.323   2.399  11.988  2.4520  2.3818  0.2659
12525TIP3    H259067   6.179   2.441  12.003  1.7806 -0.3844  2.5793
12526TIP3   OH259068   4.218   5.270  15.424  0.1659 -0.3226  0.3403
12526TIP3    H159069   4.159   5.201  15.394 -1.8690  1.9993 -1.3917
12526TIP3    H259070   4.270   5.292  15.347 -0.2097  0.9932  0.4406
12527TIP3   OH259071   2.416   2.901  12.175  0.7628 -0.4254 -0.3198
12527TIP3    H159072   2.493   2.847  12.192  3.4430  3.6253  1.9838
12527TIP3    H259073   2.439   2.953  12.098 -0.1880  0.0097 -0.3264
12528TIP3   OH259074   3.637   6.519   5.776  0.1184  0.1334 -0.1894
12528TIP3    H159075   3.689   6.493   5.700  2.9126  0.9959  1.2710
12528TIP3    H259076   3.563   6.567   5.740  0.4143 -0.9988 -2.4154
12529TIP3   OH259077   0.743   3.454  16.452 -0.1843 -0.7988 -0.3978
12529TIP3    H159078   0.820   3.401  16.429 -0.5274 -0.9323 -1.3140
12529TIP3    H259079   0.746   3.461  16.547  2.5700  1.6318 -0.5141
12530TIP3   OH259080   2.648   1.392   1.673 -0.9164 -0.1216  0.0614
12530TIP3    H159081   2.623   1.480   1.701  1.3046  0.6955 -0.3670
12530TIP3    H259082   2.566   1.354   1.639 -1.8537  1.8722 -0.0489
12531TIP3   OH259083   5.740   5.945  12.437  0.5163  0.5819  0.0258
12531TIP3    H159084   5.802   5.925  12.367 -1.1398 -0.4518 -1.2248
12531TIP3    H259085   5.682   5.869  12.440 -1.3050  1.9214  0.4181
12532TIP3   OH259086   5.955   4.344  11.812 -0.6893 -0.6517 -0.1337
12532TIP3    H159087   6.049   4.348  11.831 -0.5538 -0.8946 -0.7177
12532TIP3    H259088   5.945   4.266  11.757 -0.9824  0.2498 -1.3963
12533TIP3   OH259089   5.001   1.001  14.984 -0.2923 -0.6740 -0.1389
12533TIP3    H159090   5.032   0.948  14.910  0.1534 -1.9594  0.9310
12533TIP3    H259091   5.053   1.081  14.979 -0.6073 -0.5313 -1.4857
12534TIP3   OH259092   3.376   3.327   0.335 -0.8499  0.2685 -0.0177
12534TIP3    H159093   3.424   3.270   0.275  0.1166 -0.9398  1.8337
12534TIP3    H259094   3.394   3.416   0.302  0.4001 -0.3007 -0.9784
12535TIP3   OH259095   2.359   3.658  16.962 -0.2391  0.1481  0.0409
12535TIP3    H159096   2.357   3.564  16.981  2.2493  0.4250  2.2987
12535TIP3    H259097   2.416   3.694  17.030  0.5879  3.0059 -2.0237
12536TIP3   OH259098   4.164   5.892  16.450 -0.5352 -0.2804  0.2694
12536TIP3    H159099   4.234   5.830  16.434 -1.3411 -1.6368  1.7912
12536TIP3    H259100   4.174   5.918  16.541 -0.3392  1.7388 -0.2631
12537TIP3   OH259101   4.805   1.892  15.544  0.7337  0.0519  0.1999
12537TIP3    H159102   4.872   1.831  15.575  0.0910 -0.6478  0.2246
12537TIP3    H259103   4.802   1.961  15.611  1.0114 -0.2231  0.4977
12538TIP3   OH259104   2.918   0.477   4.345  0.1002  0.3853 -0.0745
12538TIP3    H159105   2.930   0.447   4.255  1.2400  2.1374 -0.5800
12538TIP3    H259106   2.888   0.400   4.393  2.6535 -1.5096 -1.2649
12539TIP3   OH259107   4.777   4.994   1.207 -0.0090  0.0760 -0.9138
12539TIP3    H159108   4.844   4.991   1.139  1.6807 -0.4177  0.7019
12539TIP3    H259109   4.745   4.904   1.212  0.2078  0.0078 -0.7375
12540TIP3   OH259110   3.050   5.581  13.658  0.2709 -0.0493 -0.0813
12540TIP3    H159111   3.145   5.589  13.668  0.8060 -2.1320 -2.4983
12540TIP3    H259112   3.029   5.498  13.702 -1.0069  1.7084  2.9242
12541TIP3   OH259113   1.828   5.733  12.948  0.4579  0.0339  0.4202
12541TIP3    H159114   1.887   5.782  12.892 -0.3948  0.2292 -0.3288
12541TIP3    H259115   1.754   5.792  12.963  0.4582 -0.1822  1.3886
12542TIP3   OH259116   0.604   4.446   5.369 -0.1206 -0.1829 -0.0169
12542TIP3    H159117   0.543   4.508   5.411 -0.1206  0.1643 -0.5250
12542TIP3    H259118   0.555   4.411   5.295 -0.0501 -0.6557  0.1556
12543TIP3   OH259119   4.258   0.067  13.952  0.4251 -0.4270 -0.0038
12543TIP3    H159120   4.289   0.073  14.043 -0.6526  0.1853  0.3396
12543TIP3    H259121   4.331   0.101  13.900  0.3688  0.9834  0.7849
12544TIP3   OH259122   5.787   2.229   4.985  0.2462  0.0278 -0.3045
12544TIP3    H159123   5.733   2.286   4.931 -1.2107 -0.4644  0.5678
12544TIP3    H259124   5.738   2.147   4.990  1.3535 -0.6363  0.0719
12545TIP3   OH259125   2.712   4.625   2.206  0.1537 -0.6606 -0.1384
12545TIP3    H159126   2.656   4.659   2.136 -0.7244 -1.8989 -0.0649
12545TIP3    H259127   2.657   4.625   2.283  1.4535  1.7918  0.9043
12546TIP3   OH259128   5.580   4.410  16.916 -0.0920 -0.2862  0.3083
12546TIP3    H159129   5.651   4.346  16.909 -2.2748 -2.8654  0.3841
12546TIP3    H259130   5.615   4.477  16.975  2.7477 -0.6752 -0.7529
12547TIP3   OH259131   5.638   2.848  16.060 -0.0836  0.2351  0.7169
12547TIP3    H159132   5.710   2.850  16.124  0.9257 -0.4838 -0.3659
12547TIP3    H259133   5.644   2.762  16.019 -1.0776  0.4672  0.0361
12548TIP3   OH259134   4.759   0.439   2.645  0.0571 -0.0583 -0.3786
12548TIP3    H159135   4.749   0.508   2.580 -1.1108 -0.4255 -0.6049
12548TIP3    H259136   4.682   0.446   2.701  1.2399  0.5213  1.2560
12549TIP3   OH259137   1.765   4.264  13.886 -0.2811  0.3617 -0.0819
12549TIP3    H159138   1.692   4.284  13.826 -0.2013  1.4722  0.1749
12549TIP3    H259139   1.724   4.259  13.972 -0.0708  0.9335  0.0560
12550TIP3   OH259140   3.709   5.634   0.882  0.3812  0.2525 -0.3281
12550TIP3    H159141   3.801   5.661   0.887  0.3975  0.2635 -0.6767
12550TIP3    H259142   3.708   5.565   0.815  0.2100 -0.0689 -0.0012
12551TIP3   OH259143   2.476   1.273   2.504 -0.6301  0.0361  0.2413
12551TIP3    H159144   2.474   1.368   2.494  1.9314  0.3787  2.0371
12551TIP3    H259145   2.528   1.243   2.429 -3.0267 -0.2579 -1.4201
12552TIP3   OH259146   6.734   3.321  11.376 -0.1830 -0.0173 -0.3008
12552TIP3    H159147   6.688   3.276  11.447  0.4903 -1.0768 -0.5140
12552TIP3    H259148   6.741   3.411  11.405 -0.9640 -0.1926  0.4539
12553TIP3   OH259149   2.684   4.801   4.992 -0.1019  0.2426 -0.6594
12553TIP3    H159150   2.747   4.747   5.040 -1.0421 -1.4901 -1.2782
12553TIP3    H259151   2.631   4.843   5.060 -0.4626 -1.0054 -0.1431
12554TIP3   OH259152   1.768   6.059  14.898  0.2798  0.1363  0.1490
12554TIP3    H159153   1.686   6.076  14.851 -0.2971  0.5770  1.2960
12554TIP3    H259154   1.742   6.043  14.988  1.2972 -1.5341  0.1907
12555TIP3   OH259155   6.098   2.880  11.916 -0.0420 -0.0813 -0.0370
12555TIP3    H159156   6.094   2.849  12.007  0.8253  0.0923  0.0702
12555TIP3    H259157   6.032   2.949  11.912  0.0134  0.0110  0.5071
12556TIP3   OH259158   2.690   0.146   6.284  0.5191 -0.0205 -0.3508
12556TIP3    H159159   2.598   0.168   6.269  0.3285 -0.1439  0.5612
12556TIP3    H259160   2.690   0.095   6.365  1.1098 -2.1400 -1.5805
12557TIP3   OH259161   2.760   0.735  14.468 -0.0064 -0.0179  0.5849
12557TIP3    H159162   2.784   0.750  14.560 -0.4832  0.1381  0.6896
12557TIP3    H259163   2.707   0.812  14.445 -0.1078 -0.1833  0.2592
12558TIP3   OH259164   4.764   2.931  11.334 -0.2144 -0.0017 -0.3544
12558TIP3    H159165   4.681   2.974  11.358  0.8259  0.4331  3.0129
12558TIP3    H259166   4.821   3.002  11.307  0.5546  0.5037  2.2965
12559TIP3   OH259167   3.814   5.744  11.332  0.5683 -0.5624  0.4545
12559TIP3    H159168   3.860   5.667  11.300  1.2819  0.4001 -0.9692
12559TIP3    H259169   3.862   5.771  11.410  2.2325  0.1815 -0.7631
12560TIP3   OH259170   5.884   1.993  15.221 -0.0414 -0.2567 -0.7831
12560TIP3    H159171   5.959   2.049  15.201  0.0487 -0.1043 -0.0527
12560TIP3    H259172   5.882   1.930  15.149  0.7734 -0.2415 -0.8380
12561TIP3   OH259173   0.713   5.849   2.541  0.1096  0.5253 -0.3577
12561TIP3    H159174   0.809   5.858   2.544 -0.0014  1.6781  0.8166
12561TIP3    H259175   0.689   5.820   2.629 -0.7043  1.5034 -0.2262
12562TIP3   OH259176   3.829   4.996  12.997  0.1375 -0.3974 -0.3813
12562TIP3    H159177   3.770   5.058  13.040  0.0494 -0.2573 -0.6996
12562TIP3    H259178   3.878   4.956  13.068 -0.8855 -1.0705 -0.0392
12563TIP3   OH259179   6.707   0.164   3.393  0.3106 -0.2910 -0.2953
12563TIP3    H159180   6.727   0.093   3.332 -0.1331 -0.2541 -0.4836
12563TIP3    H259181   6.659   0.228   3.341  0.9680  0.2918 -0.2057
12564TIP3   OH259182   2.157   2.804   5.929 -0.0280 -0.0397 -0.6106
12564TIP3    H159183   2.165   2.776   6.021  0.8932  0.1774 -0.6100
12564TIP3    H259184   2.238   2.773   5.888  0.2481  1.1496 -0.9990
12565TIP3   OH259185   6.156   1.486  12.302 -0.3685  0.1399 -0.7601
12565TIP3    H159186   6.168   1.459  12.211  0.3401 -0.3683 -0.5298
12565TIP3    H259187   6.163   1.581  12.300 -2.6128  0.3424 -1.5474
12566TIP3   OH259188   3.198   0.501  11.733  0.1922  0.2377  0.0891
12566TIP3    H159189   3.209   0.533  11.823 -0.4061 -0.4906  0.4359
12566TIP3    H259190   3.131   0.559  11.696 -0.2307 -0.0256  0.4213
12567TIP3   OH259191   6.286   1.346   1.464 -0.0866 -0.6473  0.0773
12567TIP3    H159192   6.247   1.377   1.546  0.9406  1.8479 -0.3005
12567TIP3    H259193   6.377   1.375   1.469  0.1883 -1.1449 -1.6276
12568TIP3   OH259194   3.562   5.354  12.067  0.5195 -0.3582 -0.1414
12568TIP3    H159195   3.527   5.443  12.071  0.7566 -0.0938 -2.4380
12568TIP3    H259196   3.656   5.364  12.079  0.7106 -0.1004 -1.6636
12569TIP3   OH259197   2.689   6.223   3.050  0.1604  0.0990  0.3307
12569TIP3    H159198   2.749   6.233   2.976 -0.6947 -0.0186 -0.3878
12569TIP3    H259199   2.743   6.241   3.127  1.2242 -0.4096 -0.2718
12570TIP3   OH259200   6.150   6.642   5.117  0.0303 -0.1984 -0.0520
12570TIP3    H159201   6.120   6.692   5.041  3.7525 -0.3470 -1.8486
12570TIP3    H259202   6.210   6.702   5.162 -1.3558 -0.4731  2.3205
12571TIP3   OH259203   2.611   1.982  16.248  0.1488 -0.2548  0.0121
12571TIP3    H159204   2.535   1.955  16.196  0.5330  0.4356 -0.9530
12571TIP3    H259205   2.685   1.937  16.206  0.5510  0.8285 -0.4816
12572TIP3   OH259206   5.487   5.704  13.628 -0.1832  0.5334 -0.2373
12572TIP3    H159207   5.429   5.660  13.690  0.1282  1.0150  0.4106
12572TIP3    H259208   5.536   5.767  13.682  0.6409  0.4246 -0.8419
12573TIP3   OH259209   0.992   3.275  14.845  0.4690 -0.0903 -0.1650
12573TIP3    H159210   1.028   3.362  14.865 -2.8706  1.3288  0.3853
12573TIP3    H259211   0.973   3.278  14.751 -0.0996 -0.0065 -0.0523
12574TIP3   OH259212   6.592   0.529   4.729  0.2721  0.8454 -0.0810
12574TIP3    H159213   6.541   0.449   4.718 -1.2287  1.7610 -0.0999
12574TIP3    H259214   6.614   0.557   4.640 -1.2699  1.6992 -0.2246
12575TIP3   OH259215   5.170   4.942  10.934 -0.3335 -0.2094  0.2781
12575TIP3    H159216   5.125   5.002  10.994 -0.1104 -0.0942  0.3336
12575TIP3    H259217   5.158   4.856  10.974 -0.0391 -0.1131  0.5869
12576TIP3   OH259218   1.442   5.949   3.655 -0.0181  0.3926  0.2767
12576TIP3    H159219   1.493   5.868   3.650 -0.1921  0.3318 -3.1483
12576TIP3    H259220   1.351   5.920   3.658 -0.0539  0.4180 -0.3204
12577TIP3   OH259221   3.252   5.654   4.849 -0.2697 -0.1200 -0.2971
12577TIP3    H159222   3.313   5.581   4.839  0.1078 -0.3740  2.8644
12577TIP3    H259223   3.292   5.726   4.800  1.5247 -0.8652  0.0002
12578TIP3   OH259224   6.054   4.390   0.430  0.0450 -0.0249  0.1598
12578TIP3    H159225   6.046   4.324   0.361  0.0052 -0.8722  0.9612
12578TIP3    H259226   5.973   4.382   0.481  0.0949  0.5628  0.3419
12579TIP3   OH259227   1.426   6.238   5.721 -0.1565  0.4758 -1.3088
12579TIP3    H159228   1.427   6.235   5.626 -0.5157 -1.3911 -1.2815
12579TIP3    H259229   1.503   6.188   5.748 -0.9476 -0.3986 -0.6152
12580TIP3   OH259230   1.595   1.550  13.898 -0.1420 -0.1099 -0.0680
12580TIP3    H159231   1.564   1.589  13.817  1.0645 -1.1321 -1.0682
12580TIP3    H259232   1.689   1.566  13.898 -0.1731  0.2891  1.3958
12581TIP3   OH259233   3.182   2.802   3.768 -0.0340 -0.4851  0.6155
12581TIP3    H159234   3.170   2.769   3.858 -0.1051 -1.6750  0.1925
12581TIP3    H259235   3.156   2.728   3.713 -1.7056  0.8027 -0.4158
12582TIP3   OH259236   5.043   1.763  13.653 -0.1869 -0.1156  0.0498
12582TIP3    H159237   4.949   1.755  13.672 -0.4412  1.3369 -0.4650
12582TIP3    H259238   5.082   1.684  13.689 -1.4718 -0.2472  1.2018
12583TIP3   OH259239   4.389   1.502   2.361  0.6670  0.0878 -0.0168
12583TIP3    H159240   4.363   1.441   2.292  0.0934  0.3102 -0.0021
12583TIP3    H259241   4.424   1.447   2.430  0.0792 -0.2324  0.0278
12584TIP3   OH259242   6.158   2.485  11.244  0.2136  0.1229 -0.0255
12584TIP3    H159243   6.183   2.539  11.169  1.1599 -0.2903 -0.0280
12584TIP3    H259244   6.075   2.522  11.274 -0.1652  0.3276 -1.2448
12585TIP3   OH259245   3.941   4.375   2.560 -0.8289  0.3346 -0.0395
12585TIP3    H159246   3.968   4.349   2.648 -0.6615  1.7576  0.3520
12585TIP3    H259247   3.907   4.463   2.570 -1.1771  0.3719 -1.3465
12586TIP3   OH259248   1.196   3.060   0.691 -0.0978  0.5836  0.1410
12586TIP3    H159249   1.133   3.092   0.626 -0.7380  1.7162  1.2798
12586TIP3    H259250   1.275   3.111   0.675  1.5855 -2.5988 -3.0021
12587TIP3   OH259251   5.106   3.361   3.458 -0.5476 -0.0092  0.0135
12587TIP3    H159252   5.121   3.429   3.393 -3.1288  0.8330  0.1940
12587TIP3    H259253   5.072   3.409   3.534  1.9744 -1.0083  1.9029
12588TIP3   OH259254   0.440   0.059   2.844  0.0348  0.0698 -0.4048
12588TIP3    H159255   0.478   0.109   2.916  2.0255  0.4226 -1.6285
12588TIP3    H259256   0.489   0.086   2.767 -1.2754 -1.1274 -1.7362
12589TIP3   OH259257   6.337   6.231  14.779 -0.2285 -0.0928  0.1687
12589TIP3    H159258   6.407   6.294  14.796 -1.1367  1.3249 -1.1227
12589TIP3    H259259   6.368   6.150  14.820  2.7651  0.0978 -1.4048
12590TIP3   OH259260   0.332   2.509   2.195 -0.1739  0.3829  0.2854
12590TIP3    H159261   0.345   2.440   2.260  0.6325 -0.3299 -0.5902
12590TIP3    H259262   0.242   2.497   2.165  0.2886 -1.0175 -0.6323
12591TIP3   OH259263   2.568   5.212   5.888 -0.4861  0.2823 -0.0350
12591TIP3    H159264   2.569   5.117   5.878 -1.2615  0.0407  1.7479
12591TIP3    H259265   2.523   5.243   5.810 -1.6156 -0.9705  0.0650
12592TIP3   OH259266   1.318   5.128  13.016 -0.1491  0.3576  0.5260
12592TIP3    H159267   1.262   5.052  13.002  1.1165 -0.5825  0.3453
12592TIP3    H259268   1.381   5.100  13.083  1.9563  0.3026 -1.3565
12593TIP3   OH259269   6.061   4.909   4.887  0.1700  0.0733 -0.0295
12593TIP3    H159270   5.967   4.897   4.881 -0.0473  0.1444  2.2425
12593TIP3    H259271   6.098   4.835   4.839 -1.0632 -1.0085  0.6263
12594TIP3   OH259272   3.888   5.430   1.132  0.2202  0.4469 -0.3805
12594TIP3    H159273   3.829   5.495   1.093  1.0119  2.1323  1.0757
12594TIP3    H259274   3.837   5.392   1.203 -0.9182 -2.0086 -2.3548
12595TIP3   OH259275   1.724   0.112  12.690  0.2707 -0.0830  1.0589
12595TIP3    H159276   1.721   0.095  12.784 -1.0027 -0.5374  0.9541
12595TIP3    H259277   1.675   0.193  12.678 -1.1794 -0.9972  0.6060
12596TIP3   OH259278   1.403   6.408  11.814  0.2939 -0.3482  0.2553
12596TIP3    H159279   1.492   6.374  11.824  0.2085 -1.3490 -1.9112
12596TIP3    H259280   1.415   6.503  11.808  1.1677 -0.4375  0.3635
12597TIP3   OH259281   1.799   2.695   3.743  0.9850 -0.0440  0.1351
12597TIP3    H159282   1.891   2.723   3.742  1.2809 -0.9928 -0.5260
12597TIP3    H259283   1.801   2.605   3.775  0.1798  0.2188  0.9697
12598TIP3   OH259284   5.792   5.254  13.331 -0.1100 -0.3122  0.1607
12598TIP3    H159285   5.838   5.338  13.327  0.9221 -0.7088  2.2383
12598TIP3    H259286   5.769   5.235  13.240  0.9540  1.4909 -0.5462
12599TIP3   OH259287   4.116   3.395  14.390 -0.0573  0.2309  0.6639
12599TIP3    H159288   4.100   3.425  14.301 -0.3518 -0.7913  0.3614
12599TIP3    H259289   4.091   3.302  14.390  1.4994 -0.2422  1.3608
12600TIP3   OH259290   0.400   4.262   2.964 -0.0423  0.2825 -0.1724
12600TIP3    H159291   0.426   4.307   2.883  0.2593 -1.3995 -1.0495
12600TIP3    H259292   0.368   4.177   2.935  2.1314 -1.2441  1.6219
12601TIP3   OH259293   6.605   3.458   4.789 -0.3891  0.4508  0.1054
12601TIP3    H159294   6.633   3.548   4.803 -0.8109  0.8989 -1.7141
12601TIP3    H259295   6.644   3.409   4.862  2.1707  1.6164 -0.3722
12602TIP3   OH259296   0.411   2.489   0.018 -0.4610 -0.0613 -0.3802
12602TIP3    H159297   0.392   2.581   0.002  1.4401  0.4136 -0.1290
12602TIP3    H259298   0.501   2.488   0.051 -0.8625 -1.9015  0.7938
12603TIP3   OH259299   2.210   5.010   4.471  0.2899  0.2584  0.3125
12603TIP3    H159300   2.202   4.957   4.550 -0.4870 -2.9129 -1.7003
12603TIP3    H259301   2.120   5.029   4.446  0.1010 -2.9033 -2.1631
12604TIP3   OH259302   3.268   0.976  15.779 -0.2496  0.3340 -0.2958
12604TIP3    H159303   3.295   1.037  15.849  1.0663  0.5559 -0.9777
12604TIP3    H259304   3.198   1.023  15.733  1.0577  1.5870 -1.1012
12605TIP3   OH259305   0.331   1.185   5.714 -0.4738  0.0604  0.1977
12605TIP3    H159306   0.411   1.141   5.685 -1.3419 -1.0275 -0.6194
12605TIP3    H259307   0.346   1.277   5.691 -0.2761 -0.4397 -1.9266
12606TIP3   OH259308   5.032   3.438   6.224 -0.1886  0.2560  0.6899
12606TIP3    H159309   4.943   3.450   6.258 -0.2015  2.3216  0.0784
12606TIP3    H259310   5.019   3.415   6.132 -0.0997 -1.3246  1.0596
12607TIP3   OH259311   6.418   2.192  10.940  0.0104  0.1676 -0.3418
12607TIP3    H159312   6.389   2.282  10.951  1.0157  0.3200  1.4790
12607TIP3    H259313   6.375   2.162  10.860 -1.9933  1.5833  0.1359
12608TIP3   OH259314   5.027   6.540   5.210 -0.7503  0.6472 -0.0465
12608TIP3    H159315   5.004   6.578   5.295 -1.1150  1.7798 -0.6394
12608TIP3    H259316   5.003   6.607   5.146  0.9501  0.4392 -0.9528
12609TIP3   OH259317   4.508   0.701  16.950 -0.1630  0.1730 -0.0424
12609TIP3    H159318   4.519   0.609  16.924 -0.5659  0.2591 -0.5235
12609TIP3    H259319   4.427   0.728  16.908 -0.9652  0.2565  1.4697
12610TIP3   OH259320   6.048   2.478  17.078 -0.0791 -0.3082  0.5926
12610TIP3    H159321   6.000   2.422  17.139 -1.8292 -0.1952 -0.5769
12610TIP3    H259322   6.040   2.566  17.114  0.0231 -0.4152  0.8737
12611TIP3   OH259323   6.135   0.588   2.397 -0.6403  0.1482  0.2219
12611TIP3    H159324   6.040   0.587   2.405 -0.6486 -0.1987  0.0933
12611TIP3    H259325   6.162   0.498   2.416 -0.2782  0.3908  0.9326
12612TIP3   OH259326   5.634   2.855  15.124 -0.7495 -0.7449 -0.5609
12612TIP3    H159327   5.542   2.830  15.119 -0.9744 -0.1549  0.4585
12612TIP3    H259328   5.668   2.809  15.201 -0.7232  0.6121  0.2721
12613TIP3   OH259329   3.643   3.807  16.128  0.4556 -0.5823 -0.2255
12613TIP3    H159330   3.645   3.885  16.184 -2.5043  0.1492 -0.9771
12613TIP3    H259331   3.673   3.838  16.043  1.7839 -0.9421  0.0779
12614TIP3   OH259332   2.022   2.903  16.480  0.3539  0.0361  0.4627
12614TIP3    H159333   2.038   2.940  16.393  2.6367 -1.6473  0.0575
12614TIP3    H259334   2.083   2.950  16.537  0.1381 -0.0832  0.7942
12615TIP3   OH259335   0.956   5.971  10.823 -0.4349 -0.6456 -0.4454
12615TIP3    H159336   1.012   5.997  10.896 -0.7494  0.9851 -0.7454
12615TIP3    H259337   0.987   6.022  10.749 -1.7966 -0.3071 -0.8146
12616TIP3   OH259338   5.516   0.851  15.170 -0.0049 -0.4253 -0.1771
12616TIP3    H159339   5.444   0.827  15.229 -1.1546  3.3283  0.2168
12616TIP3    H259340   5.472   0.886  15.092  1.2667  1.7259 -0.0250
12617TIP3   OH259341   0.198   3.336  14.483 -0.2724 -0.1346 -0.3724
12617TIP3    H159342   0.224   3.350  14.574 -1.1048  0.8949 -0.2705
12617TIP3    H259343   0.176   3.243  14.479  1.0981 -0.4972  0.1132
12618TIP3   OH259344   0.093   0.423  17.161  0.1966  0.5247  0.4694
12618TIP3    H159345   0.016   0.443  17.215 -1.0859 -2.3765 -0.1072
12618TIP3    H259346   0.120   0.336  17.190  1.7449  0.4445 -1.0753
12619TIP3   OH259347   4.488   0.412  15.972  0.2781 -0.0149  0.5047
12619TIP3    H159348   4.557   0.424  15.907  0.1722 -1.1469  0.1681
12619TIP3    H259349   4.415   0.463  15.940  0.2773 -0.4453 -0.1969
12620TIP3   OH259350   1.418   0.841  16.376 -0.3067 -0.1726  0.0735
12620TIP3    H159351   1.470   0.897  16.433 -0.5659  0.2073 -0.0628
12620TIP3    H259352   1.363   0.901  16.326 -0.1620 -0.5083 -0.5011
12621TIP3   OH259353   2.780   2.712   5.132  0.2007 -0.5344  0.5238
12621TIP3    H159354   2.798   2.618   5.136 -0.7299 -0.7474  0.1292
12621TIP3    H259355   2.705   2.719   5.072  1.5086  0.6579 -1.0477
12622TIP3   OH259356   1.817   1.326  16.310  0.4105  0.1097  0.3284
12622TIP3    H159357   1.773   1.245  16.286  2.8518 -0.5301 -2.7448
12622TIP3    H259358   1.877   1.302  16.380  1.3858 -0.9234 -0.8118
12623TIP3   OH259359   4.387   4.479   3.440 -0.3161  0.3865  0.4194
12623TIP3    H159360   4.398   4.502   3.348  0.8702  1.2658  0.7700
12623TIP3    H259361   4.406   4.385   3.444 -2.4245 -0.1387 -0.5489
12624TIP3   OH259362   0.963   6.352  16.039 -0.4133  0.0520  0.0258
12624TIP3    H159363   0.873   6.383  16.027 -0.5055 -0.6888 -1.4465
12624TIP3    H259364   1.003   6.360  15.953  0.5404 -0.8422  0.3620
12625TIP3   OH259365   6.134   2.036   0.066 -0.2359 -0.4064 -0.3467
12625TIP3    H159366   6.123   2.085   0.147  0.8677 -0.2059 -0.3083
12625TIP3    H259367   6.148   2.103  -0.001  0.6348 -0.6312 -0.4004
12626TIP3   OH259368   3.854   0.453   0.972 -0.1292  0.1998 -0.2977
12626TIP3    H159369   3.809   0.387   0.919 -0.1125  0.4737 -0.6544
12626TIP3    H259370   3.785   0.489   1.028  0.4238 -2.3677  2.2653
12627TIP3   OH259371   4.091   6.807   1.463  0.1261  0.0398 -0.0004
12627TIP3    H159372   4.059   6.850   1.541 -2.2419 -0.6848 -0.4774
12627TIP3    H259373   4.186   6.819   1.465 -0.0130  1.1748  2.2508
12628TIP3   OH259374   4.016   5.029   3.103  0.2410 -0.4305  0.0073
12628TIP3    H159375   3.980   4.946   3.134  0.2971 -0.0094  1.2692
12628TIP3    H259376   4.083   5.051   3.167  1.7321 -0.4505 -1.4796
12629TIP3   OH259377   2.130   3.572  15.262 -0.3564  0.0977 -0.1042
12629TIP3    H159378   2.077   3.613  15.194 -0.4037 -0.1606 -0.2263
12629TIP3    H259379   2.212   3.549  15.217 -0.6873 -0.7830 -0.2789
12630TIP3   OH259380   4.305   6.123  16.075 -1.3772 -0.5368 -0.4555
12630TIP3    H159381   4.250   6.047  16.058  1.0321 -2.4311 -0.3130
12630TIP3    H259382   4.323   6.119  16.169 -2.0956  0.8911 -0.2288
12631TIP3   OH259383   0.537   1.886  10.317  0.2235  0.1574 -0.5268
12631TIP3    H159384   0.482   1.808  10.322  0.4883  0.0100  0.2185
12631TIP3    H259385   0.626   1.852  10.312  0.3685  0.4092  0.1999
12632TIP3   OH259386   4.226   5.960   0.000 -0.0740  0.0786 -0.3452
12632TIP3    H159387   4.259   5.876  -0.029 -1.2357  0.5072 -3.2024
12632TIP3    H259388   4.246   5.963   0.094  0.5872 -3.0453 -0.3008
12633TIP3   OH259389   6.656   5.099  14.702 -0.2411 -0.1059 -0.2057
12633TIP3    H159390   6.617   5.177  14.740 -0.7866 -0.0108 -0.9404
12633TIP3    H259391   6.584   5.053  14.659  0.1683 -0.7396 -0.2465
12634TIP3   OH259392   4.890   2.037  13.667  0.5826 -0.0734  0.6274
12634TIP3    H159393   4.931   1.952  13.650 -1.6278 -1.0036 -0.4958
12634TIP3    H259394   4.831   2.050  13.593 -0.7602  1.4009  1.8831
12635TIP3   OH259395   6.755   6.429  10.529  0.1430  0.3040  0.0057
12635TIP3    H159396   6.816   6.498  10.501 -0.1925  0.8504  0.5840
12635TIP3    H259397   6.674   6.449  10.482  0.9084 -1.5774 -2.3367
12636TIP3   OH259398   4.626   2.846   2.964  0.3229  0.0702  0.2595
12636TIP3    H159399   4.532   2.850   2.976  0.3935 -0.2174  0.9987
12636TIP3    H259400   4.656   2.937   2.969  0.0129  0.2400 -0.7373
12637TIP3   OH259401   0.426   2.332  16.117  0.3025  0.0144  0.0389
12637TIP3    H159402   0.331   2.342  16.116  0.2021 -0.8540 -1.4324
12637TIP3    H259403   0.455   2.385  16.192 -1.3990 -0.3675  1.0199
12638TIP3   OH259404   5.467   1.503  16.940 -0.0133  0.1666 -0.6854
12638TIP3    H159405   5.448   1.451  17.018 -0.4422 -2.0026 -2.1320
12638TIP3    H259406   5.384   1.546  16.918 -0.1843 -0.0956 -0.5557
12639TIP3   OH259407   1.860   5.068  16.758 -0.1037 -0.3968  0.4240
12639TIP3    H159408   1.880   5.139  16.697  0.8712 -1.0994 -0.0965
12639TIP3    H259409   1.864   4.989  16.705  1.2354 -1.0738  1.4831
12640TIP3   OH259410   2.788   2.872   3.917 -0.2558  0.0197  0.0337
12640TIP3    H159411   2.802   2.941   3.852 -1.1098 -0.8635 -1.1375
12640TIP3    H259412   2.693   2.857   3.915  0.0478 -2.1710 -0.8327
12641TIP3   OH259413   5.391   1.207   1.114  0.1544 -0.6923  0.0576
12641TIP3    H159414   5.362   1.175   1.029 -1.0313  1.3857 -0.3886
12641TIP3    H259415   5.311   1.219   1.164  0.1761  3.4682 -0.5753
12642TIP3   OH259416   2.490   1.674  10.937  0.4794 -0.1608 -0.8084
12642TIP3    H159417   2.421   1.702  10.996 -0.2914 -0.2173 -1.6598
12642TIP3    H259418   2.487   1.736  10.864  1.0421 -0.4153 -1.0594
12643TIP3   OH259419   2.631   4.418   5.916  0.2505 -0.3513  0.6988
12643TIP3    H159420   2.607   4.510   5.933  1.1901  0.1777 -0.6507
12643TIP3    H259421   2.631   4.377   6.003 -2.0035  0.4403  1.1434
12644TIP3   OH259422   1.370   4.873   0.284  0.3318  0.0506  0.2073
12644TIP3    H159423   1.356   4.799   0.225 -0.6324 -0.2625  0.8250
12644TIP3    H259424   1.403   4.834   0.365  1.8259  0.4958 -0.1352
12645TIP3   OH259425   2.822   0.174  16.291  0.3143  0.1571  0.2559
12645TIP3    H159426   2.873   0.202  16.367 -0.6956 -0.7090  1.2930
12645TIP3    H259427   2.756   0.243  16.279 -0.4317 -0.3889  1.0887
12646TIP3   OH259428   1.756   5.340  17.044  0.3806 -0.2958 -0.2347
12646TIP3    H159429   1.796   5.424  17.017 -1.8655  1.2105  0.8382
12646TIP3    H259430   1.829   5.278  17.041  2.9675  2.3114  1.9642
12647TIP3   OH259431   4.289   3.013   5.151  0.5982  0.7146 -0.0938
12647TIP3    H159432   4.295   2.919   5.130 -0.3938  0.8962 -1.3595
12647TIP3    H259433   4.370   3.033   5.197  0.9227 -0.7212  0.0017
12648TIP3   OH259434   0.836   2.637   2.582 -0.4775  0.1467  0.4655
12648TIP3    H159435   0.859   2.563   2.638 -0.3418 -0.8935 -0.9396
12648TIP3    H259436   0.900   2.705   2.605  2.7433 -1.8939 -1.7212
12649TIP3   OH259437   2.332   0.645  15.037 -0.4369 -0.0032 -0.2209
12649TIP3    H159438   2.295   0.557  15.030  1.2761 -0.7389 -0.6548
12649TIP3    H259439   2.417   0.632  15.078 -1.0176  1.7394  1.7390
12650TIP3   OH259440   5.654   3.294  14.940 -0.2226 -0.1050  0.2950
12650TIP3    H159441   5.575   3.346  14.953  0.2898  0.5656  0.7634
12650TIP3    H259442   5.673   3.302  14.846  0.2165  1.0877  0.4746
12651TIP3   OH259443   0.054   3.226  16.073  0.3748  0.1254  0.0099
12651TIP3    H159444   0.074   3.303  16.126 -2.2456  1.2507 -0.4948
12651TIP3    H259445  -0.017   3.183  16.119 -1.0603  0.3915 -1.8271
12652TIP3   OH259446   4.056   1.408   3.331  0.2226 -0.2631  0.0692
12652TIP3    H159447   3.978   1.360   3.358  0.9548 -0.6624  1.6189
12652TIP3    H259448   4.125   1.375   3.388  1.3601  0.6213 -0.7503
12653TIP3   OH259449   0.645   4.114  12.697 -0.4546 -0.1657 -0.0504
12653TIP3    H159450   0.563   4.067  12.709  0.1806 -0.9581  1.5368
12653TIP3    H259451   0.647   4.136  12.604 -2.2008 -0.5914 -0.2176
12654TIP3   OH259452   5.412   3.754  14.445 -0.2655  0.3874  0.5430
12654TIP3    H159453   5.403   3.674  14.393  0.0057  0.1312  0.8865
12654TIP3    H259454   5.340   3.751  14.508 -1.3843  1.3256 -0.6096
12655TIP3   OH259455   0.618   0.812  14.587 -0.0234  0.3401 -0.9727
12655TIP3    H159456   0.699   0.811  14.638  0.8159  0.6339 -2.2516
12655TIP3    H259457   0.595   0.719  14.576  0.0851  0.2596 -0.5489
12656TIP3   OH259458   6.007   3.671   0.875 -0.6515 -0.2890  0.4780
12656TIP3    H159459   5.923   3.634   0.850 -1.0255  0.8620 -0.0231
12656TIP3    H259460   6.072   3.611   0.839 -1.2402 -1.5959  1.5095
12657TIP3   OH259461   3.493   6.760  11.574 -0.0566 -0.3173  0.1685
12657TIP3    H159462   3.535   6.697  11.632  0.5961 -0.6637 -0.6647
12657TIP3    H259463   3.405   6.772  11.611  0.1885 -0.8828  0.9510
12658TIP3   OH259464   5.571   4.413   1.980  0.1854 -0.0739 -0.6021
12658TIP3    H159465   5.478   4.394   1.965 -0.4686  1.6409  0.9474
12658TIP3    H259466   5.612   4.326   1.984 -1.5330 -0.9124 -0.1961
12659TIP3   OH259467   0.151   6.285  16.692  0.6522  0.0259  0.3209
12659TIP3    H159468   0.207   6.305  16.617  0.7305 -1.1622  0.0448
12659TIP3    H259469   0.107   6.368  16.712  0.5557  0.3360 -1.0875
12660TIP3   OH259470   0.728   0.731  11.870 -0.3895  0.2783  0.6331
12660TIP3    H159471   0.820   0.741  11.896 -0.0749  0.5979 -0.5549
12660TIP3    H259472   0.683   0.803  11.915 -0.3731 -0.8195  2.5109
12661TIP3   OH259473   5.777   3.345  13.516  0.5253 -0.5823 -0.0185
12661TIP3    H159474   5.758   3.303  13.600 -2.5447 -0.0998 -0.3487
12661TIP3    H259475   5.787   3.438  13.538  2.4750 -0.7871  0.1024
12662TIP3   OH259476   4.733   1.843  11.386  0.4351 -0.5476 -0.2233
12662TIP3    H159477   4.751   1.749  11.381 -1.1383 -0.8516 -0.9631
12662TIP3    H259478   4.782   1.873  11.462  1.5152 -1.8337 -0.3755
12663TIP3   OH259479   3.921   6.814   2.981 -0.3270 -0.1551 -0.3342
12663TIP3    H159480   3.970   6.891   3.008  0.0548 -0.8172  0.9470
12663TIP3    H259481   3.982   6.741   2.993 -0.2363 -0.5600 -2.7648
12664TIP3   OH259482   2.813   1.857  10.664 -0.4507 -0.4432  0.2795
12664TIP3    H159483   2.879   1.911  10.622 -0.5747  2.1491  3.0574
12664TIP3    H259484   2.741   1.854  10.602  0.7186  0.0988 -1.1476
12665TIP3   OH259485   1.245   3.849   5.278  0.8781 -0.4045  0.6942
12665TIP3    H159486   1.280   3.938   5.268 -0.6638 -0.0264 -2.3403
12665TIP3    H259487   1.302   3.809   5.344  3.8212  1.7232 -0.3210
12666TIP3   OH259488   5.097   2.838  12.039 -0.2712 -0.2765 -0.3822
12666TIP3    H159489   5.117   2.823  11.947  2.0586  3.0787 -0.5889
12666TIP3    H259490   5.180   2.822  12.085 -0.8512  0.1562  0.8544
12667TIP3   OH259491   3.075   6.034   4.405 -0.3506 -0.5507 -0.1047
12667TIP3    H159492   2.980   6.022   4.405 -0.1243 -2.7267 -0.5011
12667TIP3    H259493   3.088   6.125   4.377 -2.2596 -0.6895 -1.6234
12668TIP3   OH259494   4.833   0.452   4.372 -0.7297 -0.1310 -0.0243
12668TIP3    H159495   4.838   0.409   4.286 -0.6902 -1.5289  0.6503
12668TIP3    H259496   4.745   0.432   4.403 -0.8210  0.5640  0.1822
12669TIP3   OH259497   0.305   5.221  12.075 -0.2403 -0.3736  0.1885
12669TIP3    H159498   0.264   5.241  12.160  1.6359 -1.7258  1.4765
12669TIP3    H259499   0.231   5.213  12.015 -1.7769 -1.0989  2.0624
12670TIP3   OH259500   3.131   5.679   5.705 -1.0224  0.2554 -0.0509
12670TIP3    H159501   3.164   5.606   5.758  1.6503  2.0084  0.9067
12670TIP3    H259502   3.089   5.637   5.630  1.2252 -2.2939 -0.0476
12671TIP3   OH259503   0.389   6.304  16.542  0.0905  0.0638 -0.0734
12671TIP3    H159504   0.452   6.329  16.609 -0.8651 -0.8513  1.2178
12671TIP3    H259505   0.364   6.387  16.500 -0.9441  0.9976  2.2166
12672TIP3   OH259506   6.534   5.242   5.512 -0.2241 -0.3172 -0.1883
12672TIP3    H159507   6.453   5.271   5.554 -0.7146 -0.2239 -1.1951
12672TIP3    H259508   6.524   5.264   5.420  0.6406 -0.9732 -0.4587
12673TIP3   OH259509   5.257   5.738   4.089  0.3238 -0.4042  0.4439
12673TIP3    H159510   5.343   5.716   4.054 -0.0989  0.4220 -1.2416
12673TIP3    H259511   5.195   5.703   4.024 -0.4886  1.4031  0.1866
12674TIP3   OH259512   1.576   3.657   5.141 -0.0004  0.5439  0.2919
12674TIP3    H159513   1.564   3.727   5.205  0.1462 -0.2211  1.1849
12674TIP3    H259514   1.669   3.659   5.120  0.4930 -0.7737  2.0370
12675TIP3   OH259515   0.510   6.679  11.277  0.0517  0.2692  0.1168
12675TIP3    H159516   0.549   6.744  11.336 -0.2902 -1.0987  1.9124
12675TIP3    H259517   0.435   6.725  11.238  0.7794  1.4606  0.0563
12676TIP3   OH259518   3.675   1.322  15.923  0.1505  0.2824  0.0457
12676TIP3    H159519   3.695   1.378  15.848  0.8654 -0.4782 -0.3457
12676TIP3    H259520   3.688   1.378  15.999 -0.0204  0.8956 -0.3716
12677TIP3   OH259521   2.072   2.091  14.109 -0.0935 -0.3487  0.3761
12677TIP3    H159522   2.040   2.131  14.190 -0.8757 -0.4601  0.1283
12677TIP3    H259523   2.140   2.030  14.138  1.1465  1.1642  0.7471
12678TIP3   OH259524   5.158   3.934   0.932  0.3188  0.4686 -0.3020
12678TIP3    H159525   5.172   4.027   0.917  1.0146  0.5231  0.5749
12678TIP3    H259526   5.163   3.894   0.845  0.2157  1.2179 -0.6584
12679TIP3   OH259527   5.938   1.710   2.159  0.7945  0.2008 -0.3169
12679TIP3    H159528   5.860   1.713   2.104 -0.2109 -0.0867  1.0531
12679TIP3    H259529   6.001   1.660   2.107 -0.2704 -0.4349 -1.0451
12680TIP3   OH259530   2.663   0.062   4.106 -0.2458  0.0274  0.1820
12680TIP3    H159531   2.656   0.117   4.028  1.3949 -2.2010 -1.6711
12680TIP3    H259532   2.615  -0.018   4.084 -1.4293  0.0607  2.2885
12681TIP3   OH259533   4.586   0.667  14.392  0.3296  0.5777 -0.5006
12681TIP3    H159534   4.575   0.679  14.486  0.3655  0.1778 -0.4429
12681TIP3    H259535   4.558   0.750  14.353 -2.5504 -0.2220 -0.3576
12682TIP3   OH259536   4.664   6.662   3.727  0.2577 -0.4639 -0.0708
12682TIP3    H159537   4.625   6.713   3.656  1.0745  1.1850  0.6036
12682TIP3    H259538   4.734   6.718   3.761  0.5614 -1.6461  1.3535
12683TIP3   OH259539   4.928   3.320  16.207  0.2288 -0.2645  0.1709
12683TIP3    H159540   4.897   3.239  16.167 -0.5290  0.3102 -0.4389
12683TIP3    H259541   4.985   3.360  16.141 -0.7405  0.5113 -0.2211
12684TIP3   OH259542   3.676   4.619  16.782 -0.1530 -0.2985  0.4732
12684TIP3    H159543   3.770   4.631  16.795 -0.0563  1.7845 -1.5966
12684TIP3    H259544   3.636   4.657  16.859  0.6569  0.8502  0.3494
12685TIP3   OH259545   5.068   2.810  11.058  0.4913  0.2561  0.2923
12685TIP3    H159546   5.154   2.779  11.085  0.0164  0.5832  2.3104
12685TIP3    H259547   5.010   2.735  11.070  0.4018  0.1375 -0.7467
12686TIP3   OH259548   1.262   6.521  15.618  0.4736 -0.0301  0.5212
12686TIP3    H159549   1.214   6.469  15.554 -0.0059  0.8054  0.1986
12686TIP3    H259550   1.341   6.549  15.572  0.9165 -0.7642  0.8118
12687TIP3   OH259551   5.189   6.767  16.144  0.1122 -0.0850  0.4929
12687TIP3    H159552   5.225   6.682  16.118  0.6101 -0.7831  3.1989
12687TIP3    H259553   5.239   6.830  16.091 -1.0126 -1.4015 -2.3870
12688TIP3   OH259554   4.049   2.024  16.879  0.3772  0.4256  0.2047
12688TIP3    H159555   4.003   2.106  16.895  0.0656 -0.0989  2.3783
12688TIP3    H259556   3.980   1.958  16.873  0.6920  0.0227  0.7857
12689TIP3   OH259557   1.830   5.518   5.342  0.7421  0.1485  0.1209
12689TIP3    H159558   1.891   5.557   5.405  0.6456  1.2232 -0.4276
12689TIP3    H259559   1.846   5.566   5.260  0.8041 -1.1572 -0.6617
12690TIP3   OH259560   3.647   1.798   3.692 -0.0178 -0.1675 -0.4678
12690TIP3    H159561   3.696   1.737   3.747 -1.1511 -0.3943  0.3328
12690TIP3    H259562   3.558   1.795   3.727 -0.6709  0.0258 -2.0480
12691TIP3   OH259563   1.067   4.468   3.279 -0.7217 -0.2786 -0.8157
12691TIP3    H159564   0.989   4.437   3.232 -0.9767 -2.6817  1.0105
12691TIP3    H259565   1.140   4.441   3.224 -1.0742 -1.4721 -0.7285
12692TIP3   OH259566   0.657   4.677   5.743 -0.2089  0.0931 -0.4691
12692TIP3    H159567   0.696   4.764   5.757 -0.1142 -0.1657  1.0110
12692TIP3    H259568   0.565   4.689   5.765 -0.5010  0.1340 -1.6485
12693TIP3   OH259569   0.830   2.674  16.227 -0.1581 -0.1060  0.0795
12693TIP3    H159570   0.891   2.731  16.275  0.6387 -0.7898 -0.0845
12693TIP3    H259571   0.760   2.732  16.198  0.6304  0.7917 -0.0857
12694TIP3   OH259572   2.684   1.768   2.459 -0.3370  0.2358 -0.2341
12694TIP3    H159573   2.615   1.783   2.395 -0.8999  0.5712  0.4366
12694TIP3    H259574   2.701   1.853   2.498 -2.8017 -0.4866  2.8365
12695TIP3   OH259575   0.145   5.656   3.780 -0.3055  0.0109  0.1738
12695TIP3    H159576   0.221   5.646   3.722 -0.9579  1.4770 -0.9938
12695TIP3    H259577   0.180   5.647   3.868  0.8133 -1.7306 -0.3992
12696TIP3   OH259578   3.863   0.016  14.256  0.5793  0.1787  0.2482
12696TIP3    H159579   3.903  -0.069  14.278  1.7900  0.6408 -0.1098
12696TIP3    H259580   3.776  -0.007  14.223  1.9719 -1.2176 -2.7750
12697TIP3   OH259581   0.019   5.473   0.048 -0.7714 -0.2496  0.4697
12697TIP3    H159582   0.005   5.406  -0.019 -1.7160  0.6579 -0.2661
12697TIP3    H259583  -0.068   5.508   0.066 -0.2860  0.9125  0.6923
12698TIP3   OH259584   2.562   6.319   6.245 -0.3626  1.0480 -0.1257
12698TIP3    H159585   2.543   6.385   6.180  1.7148  4.6752  2.5677
12698TIP3    H259586   2.497   6.334   6.314 -0.4108 -0.3714  0.1672
12699TIP3   OH259587   5.628   3.800  16.827 -0.2431  0.2316  0.3058
12699TIP3    H159588   5.700   3.740  16.847 -0.5723  0.1341  1.2535
12699TIP3    H259589   5.606   3.839  16.911 -0.6500  0.9958 -0.1482
12700TIP3   OH259590   4.442   0.630   1.699 -0.9191  0.5495  0.6772
12700TIP3    H159591   4.508   0.679   1.651 -0.7792 -0.4994 -0.2316
12700TIP3    H259592   4.361   0.644   1.650 -0.7445 -0.6580  0.0019
12701TIP3   OH259593   4.021   5.104   4.952 -0.2611 -0.2424  0.2746
12701TIP3    H159594   4.019   5.034   4.887  1.2453 -0.2686  0.2269
12701TIP3    H259595   3.969   5.174   4.913 -0.0025 -0.5326 -0.6206
12702TIP3   OH259596   2.744   0.233   2.113 -0.3336 -0.0895 -0.5328
12702TIP3    H159597   2.669   0.234   2.054 -1.0584 -0.2429  0.3605
12702TIP3    H259598   2.819   0.212   2.056 -1.0790 -0.7356 -1.3143
12703TIP3   OH259599   2.048   0.055  16.208 -0.6746  0.4020 -0.5123
12703TIP3    H159600   2.125   0.110  16.197 -0.1866 -0.2440 -0.4216
12703TIP3    H259601   1.980   0.114  16.240 -0.3415  1.0640 -1.0027
12704TIP3   OH259602   5.324   5.607  15.141 -0.2157  0.1006 -0.3987
12704TIP3    H159603   5.304   5.645  15.226 -0.5666 -1.9043  0.4819
12704TIP3    H259604   5.415   5.632  15.124  0.1186 -0.0848  0.9505
12705TIP3   OH259605   2.733   2.946  16.344 -0.1120 -0.2761  0.3212
12705TIP3    H159606   2.804   2.917  16.286 -1.3520  0.1423 -1.4949
12705TIP3    H259607   2.741   3.041  16.345 -1.2212 -0.1408 -0.7508
12706TIP3   OH259608   2.803   0.975   2.249 -0.0976  0.3259 -0.1256
12706TIP3    H159609   2.851   1.055   2.226  0.9045 -0.6845 -1.7173
12706TIP3    H259610   2.787   0.931   2.166 -2.9860  0.1088  0.4432
12707TIP3   OH259611   0.277   5.143   5.380 -0.4892  0.3512 -0.0623
12707TIP3    H159612   0.214   5.184   5.322  0.1959  0.7393 -0.5543
12707TIP3    H259613   0.225   5.091   5.440 -1.2540  0.4940 -0.5944
12708TIP3   OH259614   2.649   5.799  13.911 -0.2407  0.2219  0.1417
12708TIP3    H159615   2.587   5.857  13.955 -0.4080  0.0338  0.1561
12708TIP3    H259616   2.594   5.736  13.863 -0.0704  0.9519 -1.0535
12709TIP3   OH259617   0.879   2.603  16.878  0.3323 -0.2386  0.0260
12709TIP3    H159618   0.916   2.552  16.950  0.5214 -0.4837 -0.2399
12709TIP3    H259619   0.790   2.569  16.868  0.8980 -1.5364 -1.0647
12710TIP3   OH259620   0.773   6.834   0.555 -0.0238 -0.3060 -0.7787
12710TIP3    H159621   0.716   6.762   0.529  1.3537 -1.5316 -0.4777
12710TIP3    H259622   0.843   6.793   0.605 -0.4011  1.5058  1.3783
12711TIP3   OH259623   6.347   2.718   0.838 -0.5713 -0.1039 -0.4841
12711TIP3    H159624   6.262   2.750   0.810 -0.2115  1.8604  0.4483
12711TIP3    H259625   6.408   2.788   0.814  0.3753 -0.3006  1.1583
12712TIP3   OH259626   3.139   2.346  17.141  0.4079 -0.1236 -0.0097
12712TIP3    H159627   3.190   2.403  17.083  0.3500  1.0784  1.0928
12712TIP3    H259628   3.195   2.332  17.217  0.1787 -1.0595  0.0002
12713TIP3   OH259629   6.188   3.712   4.842 -0.4058  0.0430 -0.1634
12713TIP3    H159630   6.182   3.624   4.881  1.4118 -0.6102 -1.2476
12713TIP3    H259631   6.185   3.696   4.748  1.2607  1.0063 -0.4051
12714TIP3   OH259632   2.315   6.157  14.971  0.6389 -0.3567  0.3986
12714TIP3    H159633   2.364   6.169  14.890  0.0231  1.0975  0.2225
12714TIP3    H259634   2.224   6.148  14.944  0.4694 -0.2054  0.9035
12715TIP3   OH259635   5.698   0.667   1.222  0.1934  0.6941 -0.3723
12715TIP3    H159636   5.673   0.732   1.156  0.4167  2.3132  1.0781
12715TIP3    H259637   5.790   0.649   1.204  0.0189  0.4540 -1.0450
12716TIP3   OH259638   5.578   4.931   6.509 -0.9596 -0.6921 -0.1577
12716TIP3    H159639   5.491   4.905   6.478  0.1434  0.5540 -5.1632
12716TIP3    H259640   5.623   4.849   6.527 -1.6089 -1.6903 -2.7285
12717TIP3   OH259641   0.138   6.576   4.468 -0.1715 -0.2951  0.3827
12717TIP3    H159642   0.076   6.568   4.540  0.5725 -0.6224  1.0021
12717TIP3    H259643   0.216   6.617   4.507 -0.2895  0.9184 -0.5683
12718TIP3   OH259644   0.556   0.136  16.444 -0.0433  0.4221  0.1617
12718TIP3    H159645   0.633   0.155  16.390 -0.9614 -0.4671 -1.5528
12718TIP3    H259646   0.591   0.118  16.531  1.6644  0.2138 -0.5350
12719TIP3   OH259647   1.072   3.317  16.151 -0.1280 -0.8083 -0.3610
12719TIP3    H159648   1.034   3.392  16.197  0.9322 -0.4700 -0.0035
12719TIP3    H259649   1.007   3.294  16.085 -0.8184 -0.0763  0.0386
12720TIP3   OH259650   4.204   4.855   1.940 -0.4350  0.7844 -0.4998
12720TIP3    H159651   4.218   4.919   1.870 -0.4170 -0.6148 -1.8353
12720TIP3    H259652   4.236   4.773   1.904  0.2252  0.1270  1.4331
12721TIP3   OH259653   2.416   2.598  14.566  0.3996  0.4245  0.4442
12721TIP3    H159654   2.409   2.583  14.472  1.0887  1.1046  0.2787
12721TIP3    H259655   2.350   2.664  14.585  0.4717  0.5171  0.3770
12722TIP3   OH259656   3.178   4.887   2.026  0.0941 -0.5967  0.6298
12722TIP3    H159657   3.115   4.882   1.954  0.1437 -0.1308  0.5518
12722TIP3    H259658   3.239   4.814   2.010 -1.1798 -1.9109  1.4512
12723TIP3   OH259659   6.574   0.903  13.934  0.2073 -0.2562  0.0322
12723TIP3    H159660   6.480   0.899  13.949  0.2358  2.4405  1.5284
12723TIP3    H259661   6.604   0.813  13.950 -1.6652 -0.4678  3.4555
12724TIP3   OH259662   0.089   5.744  16.008  1.0791 -0.8624 -0.0702
12724TIP3    H159663   0.079   5.820  16.066  1.4713 -0.8093 -0.0688
12724TIP3    H259664   0.183   5.737  15.995  0.9858 -0.7548 -0.8607
12725TIP3   OH259665   4.389   2.392   4.603  0.2390  0.4635 -0.3018
12725TIP3    H159666   4.400   2.486   4.612 -0.0845  0.3715  1.4560
12725TIP3    H259667   4.299   2.375   4.629  0.8337 -0.5030  1.2822
12726TIP3   OH259668   4.976   3.121  16.653  0.5221  0.2503 -0.4899
12726TIP3    H159669   4.912   3.188  16.628  1.2413  1.2177  0.1525
12726TIP3    H259670   5.060   3.157  16.624  0.8883 -0.5022 -0.3691
12727TIP3   OH259671   4.557   0.458  12.728  0.1175 -0.2299  0.1000
12727TIP3    H159672   4.469   0.424  12.745 -0.0020 -0.1437 -0.3298
12727TIP3    H259673   4.604   0.445  12.810  0.0593 -1.3894 -0.0331
12728TIP3   OH259674   5.255   2.580  10.803 -0.3213  0.6828  0.2602
12728TIP3    H159675   5.317   2.599  10.733  1.1827  0.1625  1.4054
12728TIP3    H259676   5.169   2.601  10.765  0.2819 -0.9562 -2.2417
12729TIP3   OH259677   3.238   3.265   1.349 -0.0349  0.2024  0.0641
12729TIP3    H159678   3.298   3.312   1.408  1.3790 -0.3664 -0.8717
12729TIP3    H259679   3.247   3.309   1.265 -1.4283  0.4925  0.0368
12730TIP3   OH259680   0.301   6.156   1.251  0.2324 -0.1745 -0.1833
12730TIP3    H159681   0.246   6.116   1.183 -0.5548  0.5362  0.0144
12730TIP3    H259682   0.270   6.246   1.256 -0.7256 -0.5682  2.1266
12731TIP3   OH259683   1.541   0.268  14.052 -0.3727 -0.2944 -0.3472
12731TIP3    H159684   1.454   0.306  14.043 -0.3258  0.0989  0.6774
12731TIP3    H259685   1.536   0.218  14.133  0.8208  1.1168  0.6562
12732TIP3   OH259686   6.775   2.831  12.050  0.0490  0.5052  0.0515
12732TIP3    H159687   6.689   2.874  12.048  0.4867  1.3571 -0.9809
12732TIP3    H259688   6.765   2.763  12.117 -1.8001 -0.1898 -0.8559
12733TIP3   OH259689   6.626   4.064  15.119 -0.6715  0.0601 -0.0008
12733TIP3    H159690   6.612   3.978  15.160 -2.4434  0.0650 -0.5029
12733TIP3    H259691   6.721   4.077  15.122 -0.5530 -0.8056  2.3179
12734TIP3   OH259692   5.574   3.275  11.728  0.1690 -0.9595  0.2123
12734TIP3    H159693   5.525   3.287  11.647  1.4878  1.9469 -0.2802
12734TIP3    H259694   5.640   3.208  11.706  1.3701  0.7105 -1.6402
12735TIP3   OH259695   5.194   5.246   0.983  0.6244 -0.0922 -0.0274
12735TIP3    H159696   5.284   5.225   0.960  0.1815 -1.1533 -0.9308
12735TIP3    H259697   5.185   5.339   0.966  2.2000  0.5846  2.3877
12736TIP3   OH259698   4.292   1.146  13.467  0.4337  0.0414 -0.3378
12736TIP3    H159699   4.319   1.093  13.391 -2.8513 -0.4606 -1.3009
12736TIP3    H259700   4.281   1.082  13.537  2.5116  0.3830  0.3741
12737TIP3   OH259701   5.549   2.056   2.914  0.6737  0.4125  0.4600
12737TIP3    H159702   5.519   2.020   2.997 -1.2277  1.4444  0.2602
12737TIP3    H259703   5.620   2.115   2.937  0.5301  0.2663  1.2915
12738TIP3   OH259704   4.031   3.432  16.355  0.0508 -0.0974 -0.0613
12738TIP3    H159705   3.967   3.413  16.425  1.4073  2.6048  2.1035
12738TIP3    H259706   3.985   3.490  16.295  0.2848  1.6446  1.3627
12739TIP3   OH259707   3.701   6.286  13.889  0.0450  0.0821  0.3029
12739TIP3    H159708   3.772   6.349  13.903 -0.7024  0.8851  0.5275
12739TIP3    H259709   3.743   6.213  13.844  1.3470 -0.1554  1.8170
12740TIP3   OH259710   1.033   4.653   2.974  0.5738  0.0112  0.0021
12740TIP3    H159711   1.061   4.563   2.993  1.1069  0.3024  0.6077
12740TIP3    H259712   1.095   4.708   3.021 -0.8608  0.6852  1.1814
12741TIP3   OH259713   3.386   4.120  16.888  0.1785 -0.4075  0.7190
12741TIP3    H159714   3.472   4.078  16.875  0.3124  0.2006 -0.5809
12741TIP3    H259715   3.323   4.056  16.855  0.2690 -0.2265  0.1742
12742TIP3   OH259716   6.122   6.118  12.534  0.1911 -0.2038 -0.2998
12742TIP3    H159717   6.082   6.034  12.558  0.9433  0.0462  1.9944
12742TIP3    H259718   6.058   6.184  12.559 -0.6642 -0.0254 -2.6574
12743TIP3   OH259719   5.868   6.765  11.440 -0.0879  0.2596 -0.1196
12743TIP3    H159720   5.816   6.692  11.474 -0.3331 -0.2896 -1.6158
12743TIP3    H259721   5.959   6.739  11.455 -0.1525  1.2140  2.4908
12744TIP3   OH259722   0.537   3.364   5.160  0.3009  0.5307  0.5814
12744TIP3    H159723   0.502   3.453   5.167  0.5751  0.5875  1.4005
12744TIP3    H259724   0.483   3.313   5.221  0.7744  0.3494  0.8610
12745TIP3   OH259725   0.391   1.473  14.039 -0.1325 -0.3209  0.3208
12745TIP3    H159726   0.448   1.428  14.102  1.1570 -1.4779 -1.5859
12745TIP3    H259727   0.312   1.419  14.036  0.0030 -0.5369  0.5649
12746TIP3   OH259728   5.201   0.161  13.689  0.1764 -0.4050 -0.0345
12746TIP3    H159729   5.249   0.210  13.757  1.0582 -0.3468 -0.6826
12746TIP3    H259730   5.149   0.227  13.644 -1.8547 -0.6832  1.6981
12747TIP3   OH259731   0.759   2.005  12.085  0.5189  0.0376  0.4724
12747TIP3    H159732   0.691   1.977  12.023 -1.6995  0.9795  2.3371
12747TIP3    H259733   0.813   1.927  12.097 -1.1915 -1.2654  0.1130
12748TIP3   OH259734   1.106   4.356   2.214  0.3300  0.4391 -0.7900
12748TIP3    H159735   1.174   4.385   2.152  0.4326 -1.1255 -1.4604
12748TIP3    H259736   1.081   4.436   2.260  1.4113  1.3690 -1.7190
12749TIP3   OH259737   6.065   2.425  12.129  0.4514 -0.0910  0.3524
12749TIP3    H159738   6.059   2.395  12.220  2.1341  0.1617  0.5683
12749TIP3    H259739   6.005   2.367  12.082 -1.1465  0.3437  1.7292
12750TIP3   OH259740   4.554   5.312   5.394 -0.6062  0.0965  0.4441
12750TIP3    H159741   4.616   5.292   5.324 -0.2920  0.4032  0.6356
12750TIP3    H259742   4.529   5.403   5.379 -1.1660 -0.0819  0.2496
12751TIP3   OH259743   4.342   4.751   1.696  0.0153  0.1077  0.2022
12751TIP3    H159744   4.435   4.742   1.713  0.0510  0.9377  0.4824
12751TIP3    H259745   4.327   4.845   1.688 -0.9476  0.0469  1.0443
12752TIP3   OH259746   5.782   0.140   4.683  0.5005 -0.1127  0.4554
12752TIP3    H159747   5.875   0.124   4.698  0.6616  2.1522  2.5946
12752TIP3    H259748   5.780   0.195   4.604  1.0868  0.4898  0.8415
12753TIP3   OH259749   0.597   6.057   3.974  0.3787 -0.5256  0.6925
12753TIP3    H159750   0.592   6.057   3.879  1.8655  1.2094  0.5643
12753TIP3    H259751   0.556   6.139   4.001  2.8022  0.5934  1.2714
12754TIP3   OH259752   1.521   0.001  17.022  0.0090  0.0182  0.2534
12754TIP3    H159753   1.578   0.027  17.094 -0.1968 -1.8632  1.1613
12754TIP3    H259754   1.527  -0.095  17.020  0.6388  0.0023 -2.7712
12755TIP3   OH259755   2.705   6.465  12.314 -0.4225 -0.9647 -0.2550
12755TIP3    H159756   2.670   6.382  12.283 -1.2491 -0.9750  0.6743
12755TIP3    H259757   2.629   6.523  12.318  0.1069 -0.2030 -0.7046
12756TIP3   OH259758   1.425   0.702  15.900  0.9042  0.5546  0.1716
12756TIP3    H159759   1.451   0.626  15.953  0.8634  1.3382  1.3588
12756TIP3    H259760   1.330   0.707  15.910  0.7355  0.0096 -0.9797
12757TIP3   OH259761   5.471   1.564  13.590 -0.7548  0.8118  0.0778
12757TIP3    H159762   5.557   1.522  13.599 -1.0388  0.1953 -0.0471
12757TIP3    H259763   5.434   1.527  13.510 -1.8517 -0.2365  1.0285
12758TIP3   OH259764   1.145   1.214   5.709 -0.1105  0.5156  0.1639
12758TIP3    H159765   1.160   1.297   5.662 -0.6363  1.3981  1.4962
12758TIP3    H259766   1.103   1.240   5.791  0.6319 -0.9894  1.0671
12759TIP3   OH259767   1.580   0.186   5.070  0.6180  0.4049 -0.0412
12759TIP3    H159768   1.507   0.171   5.129 -0.7915  0.7667 -1.6125
12759TIP3    H259769   1.653   0.136   5.107 -0.2941  0.3433  1.7646
12760TIP3   OH259770   2.328   3.126  12.574  0.2866  0.3112 -0.4973
12760TIP3    H159771   2.235   3.111  12.556  0.5327 -1.7318 -0.3483
12760TIP3    H259772   2.330   3.204  12.630 -1.0880  2.0665 -2.7359
12761TIP3   OH259773   6.424   1.134   5.640 -0.3011 -0.0323 -0.3338
12761TIP3    H159774   6.425   1.127   5.735 -0.0725 -0.3920 -0.3598
12761TIP3    H259775   6.483   1.206   5.620 -2.0122  1.4917 -0.0966
12762TIP3   OH259776   3.958   4.503  13.312  0.3400  0.7539 -0.1998
12762TIP3    H159777   3.994   4.436  13.253  1.5191  0.4308  0.8290
12762TIP3    H259778   3.871   4.471  13.335  1.1843 -0.8974  0.9159
12763TIP3   OH259779   3.112   6.735   5.566 -0.4381  0.1271 -0.0882
12763TIP3    H159780   3.082   6.762   5.480 -0.4064 -0.1918 -0.1989
12763TIP3    H259781   3.130   6.641   5.558 -2.9082 -0.5139  0.9399
12764TIP3   OH259782   5.787   5.482  15.790 -0.2409  0.7960 -0.5891
12764TIP3    H159783   5.780   5.576  15.776  2.2045  0.9592 -1.3550
12764TIP3    H259784   5.816   5.448  15.705 -0.5533 -0.5709 -0.1729
12765TIP3   OH259785   1.631   1.050  12.314  0.3156 -0.1075 -0.4581
12765TIP3    H159786   1.701   0.985  12.315  0.2877 -0.1373 -0.4536
12765TIP3    H259787   1.565   1.015  12.254  0.6972  0.3325 -1.1508
12766TIP3   OH259788   4.700   3.739  14.577 -0.4672  0.5783  0.9728
12766TIP3    H159789   4.792   3.763  14.583 -0.0491 -0.9320  0.9906
12766TIP3    H259790   4.676   3.714  14.666 -1.2078  1.9284  1.1859
12767TIP3   OH259791   3.532   0.682   5.040  0.5644  0.1827  0.0065
12767TIP3    H159792   3.509   0.719   5.125 -2.6699  0.1845 -0.7408
12767TIP3    H259793   3.534   0.758   4.981  0.3806 -0.0781 -0.3389
12768TIP3   OH259794   4.681   0.733   3.476 -0.3121 -0.1073 -0.3552
12768TIP3    H159795   4.606   0.697   3.428 -1.1801  2.5914 -1.2043
12768TIP3    H259796   4.685   0.681   3.556 -1.5928 -1.8538 -1.3365
12769TIP3   OH259797   4.313   1.157   4.839  0.3161 -0.3314 -0.1356
12769TIP3    H159798   4.329   1.218   4.911  0.6078  1.0236 -1.3049
12769TIP3    H259799   4.394   1.159   4.788 -0.2320 -0.5159 -1.0253
12770TIP3   OH259800   1.406   0.272   3.758  0.1700 -0.1952 -0.0294
12770TIP3    H159801   1.350   0.285   3.834  1.4528 -1.7130  1.2479
12770TIP3    H259802   1.414   0.177   3.749 -1.0531 -0.1483 -2.9680
12771TIP3   OH259803   4.968   2.701  16.978 -0.5102  0.2525  0.3980
12771TIP3    H159804   4.966   2.631  17.044  0.6924  1.0124  1.2957
12771TIP3    H259805   5.004   2.659  16.900  3.2935  0.4527  1.8277
12772TIP3   OH259806   2.596   6.227  12.845 -0.1451 -0.5150 -0.3655
12772TIP3    H159807   2.603   6.309  12.894  0.3218 -1.3829  1.0853
12772TIP3    H259808   2.687   6.197  12.837 -0.4066 -1.4780  0.1802
12773TIP3   OH259809   6.080   3.153   0.809  0.1423 -0.9497  0.1377
12773TIP3    H159810   6.105   3.157   0.717  1.0810  0.3055  0.4156
12773TIP3    H259811   6.153   3.107   0.852  1.8941  2.1804  0.8544
12774TIP3   OH259812   1.401   2.391   6.186 -0.1304 -0.3065 -0.0854
12774TIP3    H159813   1.337   2.320   6.196 -0.4386  0.1722  1.6524
12774TIP3    H259814   1.477   2.362   6.238  0.7064 -0.4314 -1.3388
12775TIP3   OH259815   3.669   6.328   0.925 -0.3307  0.0262 -0.0444
12775TIP3    H159816   3.651   6.383   0.848 -1.7358 -0.2145  0.0880
12775TIP3    H259817   3.619   6.248   0.910 -1.6821  0.4801  1.6730
12776TIP3   OH259818   4.445   2.418  16.092  0.2790  0.5589 -0.5831
12776TIP3    H159819   4.368   2.433  16.148 -0.7414  1.5670 -2.1916
12776TIP3    H259820   4.519   2.425  16.152 -0.8528 -3.2853  1.6543
12777TIP3   OH259821   1.645   1.311  12.680 -0.1155  0.5268 -0.0528
12777TIP3    H159822   1.645   1.235  12.738 -1.0118  1.0052  0.5905
12777TIP3    H259823   1.661   1.386  12.737  1.6881  0.7710 -0.8083
12778TIP3   OH259824   6.295   2.685  10.660  0.8349  0.0243 -0.0203
12778TIP3    H159825   6.385   2.715  10.650  0.4498  0.9176 -1.0396
12778TIP3    H259826   6.252   2.709  10.578 -0.0806 -1.3320  0.0187
12779TIP3   OH259827   5.760   5.111  16.058 -0.8866 -0.1091  0.2814
12779TIP3    H159828   5.785   5.035  16.111  0.7611  0.0608 -0.2162
12779TIP3    H259829   5.688   5.079  16.003 -0.5577 -1.1539  0.4413
12780TIP3   OH259830   5.877   6.674   3.067 -0.6155 -0.2141 -0.0975
12780TIP3    H159831   5.916   6.761   3.058  0.2818 -0.5767  0.1439
12780TIP3    H259832   5.930   6.631   3.134 -1.2781 -0.8244  0.0508
12781TIP3   OH259833   4.915   6.329  11.355  0.5549  0.2139  0.1834
12781TIP3    H159834   4.879   6.394  11.415 -1.3772 -0.4708 -0.1370
12781TIP3    H259835   4.924   6.250  11.407  2.1698  0.5021  0.3847
12782TIP3   OH259836   3.960   4.732   1.775  0.2912 -0.1598  0.6216
12782TIP3    H159837   3.984   4.716   1.866 -0.2429 -0.8589  0.6445
12782TIP3    H259838   4.043   4.726   1.727  0.2955 -1.9448  0.7812
12783TIP3   OH259839   3.116   5.342   1.175  0.7354  0.1873 -0.0742
12783TIP3    H159840   3.145   5.251   1.170  1.7121  0.4238  0.9322
12783TIP3    H259841   3.194   5.393   1.154 -0.3707  0.8448 -3.2168
12784TIP3   OH259842   1.337   2.571   6.502 -0.6635  0.2653 -0.2772
12784TIP3    H159843   1.279   2.511   6.550  0.4539 -0.4272  0.2352
12784TIP3    H259844   1.424   2.552   6.535  0.0142  0.5301 -1.8173
12785TIP3   OH259845   5.265   4.657   2.458  0.0031 -0.4065  0.3406
12785TIP3    H159846   5.354   4.631   2.434 -0.4319 -0.1169 -1.8249
12785TIP3    H259847   5.233   4.585   2.513  1.7258 -0.2405  1.6594
12786TIP3   OH259848   2.789   5.528  11.328  0.4654  0.1146  0.2023
12786TIP3    H159849   2.721   5.553  11.266  0.0153 -1.6497 -0.0731
12786TIP3    H259850   2.858   5.593  11.317 -0.4546  0.9556 -0.7188
12787TIP3   OH259851   3.342   4.324  13.663  0.3455  0.0589  0.4886
12787TIP3    H159852   3.336   4.405  13.613  0.9533 -0.1597  0.0485
12787TIP3    H259853   3.436   4.306  13.669  0.2055 -0.8495  0.1961
12788TIP3   OH259854   5.643   2.267   4.303 -0.2911  0.0120  0.2354
12788TIP3    H159855   5.549   2.250   4.302 -0.7935  2.4375 -0.4287
12788TIP3    H259856   5.656   2.336   4.237  1.7122  0.8318  1.3986
12789TIP3   OH259857   5.884   0.611   2.735 -0.2877 -0.0335  0.1002
12789TIP3    H159858   5.947   0.675   2.700 -0.6362  0.3046  0.0803
12789TIP3    H259859   5.846   0.570   2.658 -0.0212 -0.3148  0.1139
12790TIP3   OH259860   0.636   3.810  13.271  0.1712  0.3997 -0.0130
12790TIP3    H159861   0.543   3.807  13.249  0.2007 -3.3631 -0.2499
12790TIP3    H259862   0.637   3.834  13.364 -1.1937 -0.8571  0.3748
12791TIP3   OH259863   0.316   2.405   3.645  0.9922  0.0729  0.4801
12791TIP3    H159864   0.265   2.440   3.572  0.6003 -1.9484 -0.2596
12791TIP3    H259865   0.382   2.473   3.662 -1.9799  2.9424  1.6826
12792TIP3   OH259866   0.706   2.270   1.530  0.0504  0.1466  0.1196
12792TIP3    H159867   0.695   2.293   1.622 -0.2635 -0.8968  0.3486
12792TIP3    H259868   0.656   2.189   1.518 -1.4737  1.2439 -1.4224
12793TIP3   OH259869   6.715   4.577  15.661 -0.3049  0.5440  0.5063
12793TIP3    H159870   6.799   4.597  15.703  1.3347  1.4453 -2.8590
12793TIP3    H259871   6.660   4.652  15.682  0.5589  1.1173  0.7932
12794TIP3   OH259872   1.258   2.845  10.775  0.3777 -0.5092 -0.6261
12794TIP3    H159873   1.209   2.765  10.790 -1.2381  0.6846  0.9320
12794TIP3    H259874   1.199   2.901  10.725  0.4469  0.6234  0.4887
12795TIP3   OH259875   4.014   5.036  16.173  0.1932  0.1389  0.6311
12795TIP3    H159876   4.004   5.111  16.231  0.9076 -0.1735  1.1623
12795TIP3    H259877   4.107   5.014  16.177 -0.3111 -2.0557  2.0963
12796TIP3   OH259878   0.247   4.561   2.910  0.1814  0.6519 -0.0438
12796TIP3    H159879   0.311   4.613   2.958  0.7904 -0.5769  0.5218
12796TIP3    H259880   0.300   4.507   2.851 -0.2869 -0.5474  0.5975
12797TIP3   OH259881   6.461   1.796  11.036  0.0181  0.1093 -0.5480
12797TIP3    H159882   6.376   1.754  11.026  0.5701 -1.1051 -0.2571
12797TIP3    H259883   6.447   1.863  11.103 -0.3311 -1.2185  0.7721
12798TIP3   OH259884   4.967   2.223   5.088 -0.3149 -0.7735 -0.2778
12798TIP3    H159885   5.025   2.148   5.090  0.5633 -0.1025  0.3811
12798TIP3    H259886   4.880   2.187   5.105 -0.2351 -1.8884 -2.0130
12799TIP3   OH259887   5.036   5.560  15.163 -0.1190 -0.0352 -0.3579
12799TIP3    H159888   5.058   5.647  15.197 -0.7472  0.0470 -0.1501
12799TIP3    H259889   5.104   5.542  15.098 -1.4836  1.7857 -2.4104
12800TIP3   OH259890   4.044   1.869   0.801 -0.1833  0.3417  0.0732
12800TIP3    H159891   4.039   1.925   0.879 -0.0136 -2.2555  2.0990
12800TIP3    H259892   3.991   1.913   0.735 -0.2324  2.7215  1.6083
12801TIP3   OH259893   2.095   2.518   0.895  0.3431  0.0607  0.2319
12801TIP3    H159894   2.015   2.540   0.847  0.0883 -1.4794 -0.1074
12801TIP3    H259895   2.162   2.575   0.857 -0.4424  0.9027  0.0626
12802TIP3   OH259896   1.943   5.794   5.541  0.3840 -0.2086  0.0317
12802TIP3    H159897   2.019   5.840   5.577  0.0093  1.1064 -0.7995
12802TIP3    H259898   1.963   5.786   5.448 -1.1878  1.6716 -0.5312
12803TIP3   OH259899   4.669   1.382   6.048  0.2492 -0.3267  0.0806
12803TIP3    H159900   4.616   1.336   6.113 -1.4643  0.3573 -0.7618
12803TIP3    H259901   4.676   1.471   6.081  4.0690 -1.1293  2.0097
12804TIP3   OH259902   0.364   5.209   4.501 -0.2802 -0.1263  0.0049
12804TIP3    H159903   0.460   5.209   4.499 -0.2155 -2.3707  0.8794
12804TIP3    H259904   0.339   5.198   4.409  0.3383 -1.1517 -0.0489
12805TIP3   OH259905   4.381   3.234   2.123 -0.0539 -0.0411 -0.1660
12805TIP3    H159906   4.328   3.310   2.097 -0.5027  0.2549  1.4623
12805TIP3    H259907   4.390   3.182   2.043  0.3345  1.7576 -1.3443
12806TIP3   OH259908   4.706   3.853   6.104 -0.1850 -0.1800 -0.0857
12806TIP3    H159909   4.722   3.759   6.090 -2.2027 -0.2400 -2.6812
12806TIP3    H259910   4.647   3.878   6.033 -0.3425  2.9163  1.0055
12807TIP3   OH259911   0.478   4.854   2.710  0.3071  0.6250  0.2174
12807TIP3    H159912   0.388   4.879   2.686  0.0304 -1.3058 -0.9227
12807TIP3    H259913   0.479   4.860   2.806 -1.2203  0.1783  0.2994
12808TIP3   OH259914   1.552   0.570  16.336 -0.4108 -0.7120 -0.0595
12808TIP3    H159915   1.534   0.663  16.326 -0.4623 -0.6336  0.6934
12808TIP3    H259916   1.645   0.561  16.313 -0.1864 -0.3303  0.6442
12809TIP3   OH259917   5.755   3.557   4.828 -0.0706 -0.0051 -0.0925
12809TIP3    H159918   5.742   3.473   4.784  0.7904  0.1762 -0.7257
12809TIP3    H259919   5.708   3.548   4.911 -1.0870 -0.6304 -0.7165
12810TIP3   OH259920   5.523   6.795  12.115 -0.2239 -0.7527  0.2488
12810TIP3    H159921   5.544   6.714  12.067  0.8913 -1.0066  1.1213
12810TIP3    H259922   5.604   6.817  12.160 -0.6299  0.6706  0.3168
12811TIP3   OH259923   4.737   2.694   4.834  0.0222 -0.5142  0.1042
12811TIP3    H159924   4.772   2.783   4.827 -0.1602 -0.3432  1.1687
12811TIP3    H259925   4.814   2.637   4.837  0.4229 -0.0392  4.0511
12812TIP3   OH259926   5.147   4.237   5.032 -0.5254 -0.9206  0.0995
12812TIP3    H159927   5.167   4.206   5.120  0.7426 -0.1069  0.1288
12812TIP3    H259928   5.213   4.195   4.976  0.8609  1.1540  0.0614
12813TIP3   OH259929   5.750   0.770   0.605 -0.0043  0.1752  0.3281
12813TIP3    H159930   5.787   0.752   0.692 -2.0953 -0.5602  1.1322
12813TIP3    H259931   5.721   0.685   0.573  1.4292  0.3141 -1.4783
12814TIP3   OH259932   3.566   4.276  11.271 -0.7722  0.0220 -0.2521
12814TIP3    H159933   3.546   4.330  11.348  1.5947  1.6694 -0.7119
12814TIP3    H259934   3.547   4.333  11.196  0.0221 -0.4196 -0.7974
12815TIP3   OH259935   2.679   1.339   1.002  0.0239 -0.1641  0.4879
12815TIP3    H159936   2.742   1.357   0.932 -1.4413 -0.1297 -0.8667
12815TIP3    H259937   2.633   1.422   1.014 -0.9578 -0.6660  0.2224
12816TIP3   OH259938   2.266   6.763   0.077 -0.1001 -0.1102  0.0520
12816TIP3    H159939   2.228   6.740   0.162  1.9550 -0.0197  1.0626
12816TIP3    H259940   2.223   6.845   0.053 -1.4385 -0.6569  0.4833
12817TIP3   OH259941   0.365   0.203  16.642 -0.3461  0.2700  0.2504
12817TIP3    H159942   0.399   0.180  16.556 -0.2139  1.3487  0.0027
12817TIP3    H259943   0.438   0.248  16.686 -0.4682 -0.1131  0.8623
12818TIP3   OH259944   4.512   2.790   3.815 -0.5310 -0.1947  0.1723
12818TIP3    H159945   4.445   2.784   3.747  0.4921 -0.0922 -0.8623
12818TIP3    H259946   4.575   2.722   3.792 -1.0712 -1.4044  2.0582
12819TIP3   OH259947   4.202   5.099   2.459  0.2923  0.3246 -0.1986
12819TIP3    H159948   4.276   5.065   2.509 -1.2440 -1.7235  0.8216
12819TIP3    H259949   4.179   5.028   2.399 -1.1160  0.7399 -0.1803
12820TIP3   OH259950   2.388   3.788   2.435  0.0117  0.6604 -0.1629
12820TIP3    H159951   2.437   3.805   2.354  0.7591  0.4493  0.2397
12820TIP3    H259952   2.353   3.873   2.459 -0.8355  0.5925 -1.1034
12821TIP3   OH259953   3.595   3.912  12.338 -0.2616  0.2888 -0.0277
12821TIP3    H159954   3.673   3.861  12.318 -0.1018 -0.3208  1.9219
12821TIP3    H259955   3.526   3.847  12.351 -0.4905  0.6540  0.6694
12822TIP3   OH259956   4.765   0.971   1.332  0.0408  0.3126 -0.2524
12822TIP3    H159957   4.771   0.978   1.237 -0.5928  1.3480 -0.2252
12822TIP3    H259958   4.675   0.942   1.348  0.5487 -1.2520 -0.0115
12823TIP3   OH259959   0.363   2.987  14.594  0.0489  0.0355 -0.3431
12823TIP3    H159960   0.287   3.020  14.546 -1.0210 -1.4307  0.2355
12823TIP3    H259961   0.376   2.899  14.559  0.6516 -0.2117  0.4795
12824TIP3   OH259962   1.544   3.446   6.687  0.4227 -0.6936 -0.3515
12824TIP3    H159963   1.516   3.403   6.768 -0.4721 -0.0380 -0.2912
12824TIP3    H259964   1.505   3.394   6.617 -5.3119  2.6787 -0.2856
12825TIP3   OH259965   5.022   3.554   4.205 -0.0289 -0.0980 -0.5312
12825TIP3    H159966   5.088   3.490   4.179  1.0550  0.6071  0.3697
12825TIP3    H259967   5.072   3.626   4.242 -1.2052  1.2809 -1.4748
12826TIP3   OH259968   2.814   5.982  13.790 -0.5842 -0.3971  0.3286
12826TIP3    H159969   2.825   6.027  13.874  0.8397  0.5630 -0.3249
12826TIP3    H259970   2.781   5.895  13.813  1.4970 -0.8121  2.0547
12827TIP3   OH259971   1.799   5.882  16.256  0.4091  0.3253 -0.6077
12827TIP3    H159972   1.822   5.818  16.324 -1.3690  1.6181  1.3699
12827TIP3    H259973   1.710   5.857  16.230  0.2622  1.0950 -0.8728
12828TIP3   OH259974   1.474   6.748  14.441 -0.4771 -0.1783 -0.1937
12828TIP3    H159975   1.384   6.776  14.459 -0.6346 -0.5119 -0.4256
12828TIP3    H259976   1.528   6.802  14.497 -0.7071  1.0933 -1.1566
12829TIP3   OH259977   1.363   1.769  16.540  0.1004 -0.1544 -0.0816
12829TIP3    H159978   1.372   1.689  16.593 -0.9919 -0.0992  0.2262
12829TIP3    H259979   1.387   1.840  16.599 -0.0415 -0.1776  0.0056
12830TIP3   OH259980   1.621   4.953   5.772  0.0043 -0.2533 -0.2412
12830TIP3    H159981   1.548   5.012   5.792 -0.0463 -0.3060 -0.2725
12830TIP3    H259982   1.606   4.877   5.829  0.5233  0.1222  0.4160
12831TIP3   OH259983   1.493   2.238   5.355 -0.2954  0.7460  0.5566
12831TIP3    H159984   1.561   2.265   5.294 -1.6523  1.3311 -0.7467
12831TIP3    H259985   1.531   2.253   5.442  0.7403  2.3567 -0.1379
12832TIP3   OH259986   4.769   3.521   4.089 -0.1159  0.1026 -0.7317
12832TIP3    H159987   4.855   3.538   4.126 -0.4849 -0.3296  0.3918
12832TIP3    H259988   4.708   3.567   4.148 -0.6758  0.1003 -1.2950
12833TIP3   OH259989   6.091   0.169   6.132 -0.1272 -0.1052 -0.7293
12833TIP3    H159990   5.997   0.151   6.127 -0.3536  1.0256 -0.9508
12833TIP3    H259991   6.099   0.260   6.104  1.2075 -0.6300 -2.2099
12834TIP3   OH259992   3.260   5.614  16.252  0.2799  0.1353 -0.5445
12834TIP3    H159993   3.254   5.553  16.179 -0.6036  0.3914 -0.6943
12834TIP3    H259994   3.321   5.682  16.222  0.8469 -0.3740 -0.5786
12835TIP3   OH259995   4.448   6.095  10.761  0.3382  0.2169 -0.1668
12835TIP3    H159996   4.541   6.093  10.784  0.4227  0.1993 -0.5162
12835TIP3    H259997   4.406   6.137  10.837  0.6902  0.6814 -0.2246
12836TIP3   OH259998   4.592   3.794  16.489  0.6231  0.3584  0.1989
12836TIP3    H159999   4.630   3.742  16.560 -0.4124 -1.9003 -0.8064
12836TIP3    H260000   4.621   3.750  16.409 -0.1905  1.4379 -0.7157
12837TIP3   OH260001   0.469   3.548  13.603  0.1718 -0.2256 -0.1373
12837TIP3    H160002   0.460   3.640  13.627 -0.5524 -0.2300 -0.3784
12837TIP3    H260003   0.520   3.510  13.675 -0.9760  0.0065  0.8318
12838TIP3   OH260004   2.794   0.872   1.950  0.3158 -0.3613  0.1148
12838TIP3    H160005   2.890   0.868   1.944  0.2917  0.8894 -2.7572
12838TIP3    H260006   2.771   0.956   1.912 -1.9800 -0.9632  0.0349
12839TIP3   OH260007   0.086   5.942  13.636  0.0713 -0.6965  0.4356
12839TIP3    H160008   0.028   5.943  13.712 -0.1887  4.0856  0.4637
12839TIP3    H260009   0.029   5.921  13.562 -0.6015 -1.0199  1.0341
12840TIP3   OH260010   0.346   4.056   0.805 -0.0609  0.3757 -0.5350
12840TIP3    H160011   0.318   4.045   0.715  0.3603  1.1224 -0.7667
12840TIP3    H260012   0.396   3.977   0.825  0.2698  0.4292 -1.1272
12841TIP3   OH260013   4.174   3.763   3.582  0.4429 -0.0394 -0.0399
12841TIP3    H160014   4.181   3.676   3.622  0.2433  0.3888  0.9598
12841TIP3    H260015   4.097   3.757   3.524  0.6676 -0.6383 -0.2811
12842TIP3   OH260016   1.907   2.553  15.629  0.0545  0.0699  0.0241
12842TIP3    H160017   1.869   2.614  15.566 -2.3060 -1.4173 -0.1180
12842TIP3    H260018   1.951   2.488  15.575 -0.0618 -0.0025  0.0159
12843TIP3   OH260019   6.455   5.694   3.375  0.0027 -0.1581  0.0387
12843TIP3    H160020   6.505   5.644   3.440 -0.3626 -1.1015 -0.3897
12843TIP3    H260021   6.429   5.774   3.421  0.5863 -0.3570  0.7403
12844TIP3   OH260022   5.538   6.769   0.275  0.4833  0.0570 -0.6957
12844TIP3    H160023   5.630   6.772   0.249  0.0106 -0.8166 -2.6971
12844TIP3    H260024   5.509   6.859   0.270  1.6124  0.6258  1.6894
12845TIP3   OH260025   5.783   0.722   2.966 -0.2960  0.3057  0.5235
12845TIP3    H160026   5.834   0.656   2.920 -1.5827  0.4220 -1.1493
12845TIP3    H260027   5.692   0.693   2.957 -0.7796  1.6370  0.8698
12846TIP3   OH260028   1.609   3.891   5.306 -0.0793 -0.3950  0.4143
12846TIP3    H160029   1.703   3.874   5.316 -0.1862 -0.7608  0.8085
12846TIP3    H260030   1.604   3.985   5.285  0.3293 -0.1804  1.2334
12847TIP3   OH260031   6.300   0.600  16.748 -0.4833  0.7560 -0.9027
12847TIP3    H160032   6.278   0.531  16.811 -1.0729  2.1471  0.4986
12847TIP3    H260033   6.283   0.561  16.662  3.2668 -2.2785 -0.4937
12848TIP3   OH260034   1.566   6.697  13.846 -0.8940 -0.0190  0.1126
12848TIP3    H160035   1.634   6.633  13.868 -0.2185  0.1624 -1.3390
12848TIP3    H260036   1.540   6.674  13.757  1.3146  3.3225 -1.5891
12849TIP3   OH260037   2.244   5.217   6.243 -0.8445  0.6956  0.1371
12849TIP3    H160038   2.256   5.144   6.182 -3.0293  0.3496  0.0488
12849TIP3    H260039   2.234   5.294   6.187  1.5453  1.1615  0.2323
12850TIP3   OH260040   5.565   0.110   5.211 -0.4209  0.2784  0.3409
12850TIP3    H160041   5.576   0.116   5.306 -1.0488 -0.0679  0.4362
12850TIP3    H260042   5.645   0.066   5.181 -0.8323 -0.8536  0.8658
12851TIP3   OH260043   6.248   4.940  16.634 -0.1910  0.6829  0.7555
12851TIP3    H160044   6.194   4.958  16.711 -1.4036  1.0694 -0.1495
12851TIP3    H260045   6.305   4.868  16.661 -1.1187  0.2989  1.7652
12852TIP3   OH260046   0.178   1.287   1.118  0.2688 -0.2198 -0.4377
12852TIP3    H160047   0.218   1.200   1.119 -0.4491 -0.5572 -0.5167
12852TIP3    H260048   0.085   1.270   1.126  0.1208  0.5456 -0.5113
12853TIP3   OH260049   6.054   3.409   5.893 -0.1895  0.2486 -0.7546
12853TIP3    H160050   5.975   3.363   5.865 -0.2280 -0.5968  0.6345
12853TIP3    H260051   6.112   3.339   5.923 -0.3276  1.0914  1.6380
12854TIP3   OH260052   1.732   1.568  17.111 -0.5885  0.2678  0.2340
12854TIP3    H160053   1.769   1.522  17.187 -0.6894  0.7479  0.5723
12854TIP3    H260054   1.751   1.509  17.037 -0.8391 -0.3920  0.6814
12855TIP3   OH260055   5.623   5.158  13.991 -0.2697 -0.1296 -0.2497
12855TIP3    H160056   5.655   5.111  14.069  0.1318  0.6282  0.0487
12855TIP3    H260057   5.550   5.104  13.960 -0.5460 -0.3661  0.7489
12856TIP3   OH260058   6.669   5.594   1.405  0.4653  0.2377  0.1839
12856TIP3    H160059   6.677   5.502   1.379  3.4539  0.3148  0.4557
12856TIP3    H260060   6.606   5.631   1.343 -0.4101 -1.8415 -0.2626
12857TIP3   OH260061   3.536   0.178  11.105 -0.1524 -0.2138 -0.2607
12857TIP3    H160062   3.536   0.183  11.201  2.8772  1.5327 -0.2003
12857TIP3    H260063   3.607   0.117  11.085  0.5183  0.8645 -1.3332
12858TIP3   OH260064   3.351   2.175   4.997 -0.2901  0.3072 -0.6930
12858TIP3    H160065   3.410   2.247   4.974 -0.8845  1.1619  0.3681
12858TIP3    H260066   3.266   2.203   4.965 -1.3450  1.9503  3.0369
12859TIP3   OH260067   6.031   4.834  15.896  0.4677  0.4571  0.3735
12859TIP3    H160068   6.066   4.769  15.835  0.7752  0.4840  0.5233
12859TIP3    H260069   6.094   4.906  15.894 -0.7014  1.5286 -1.0915
12860TIP3   OH260070   0.100   5.592  12.881  0.3521  0.4472 -0.1333
12860TIP3    H160071   0.009   5.602  12.852  1.2004 -1.3037 -4.0980
12860TIP3    H260072   0.106   5.501  12.911  0.6257  0.8480  1.0807
12861TIP3   OH260073   1.015   0.954   5.113  0.0871  0.4691 -0.5404
12861TIP3    H160074   0.953   1.017   5.150 -0.9830 -0.7267 -0.2154
12861TIP3    H260075   0.966   0.911   5.043  0.2608 -1.0653  0.2468
12862TIP3   OH260076   2.482   3.140  15.872  0.0647  0.4274 -0.1234
12862TIP3    H160077   2.415   3.089  15.827 -1.1055  0.2982  1.6657
12862TIP3    H260078   2.437   3.179  15.946  2.2706 -0.9495  2.1025
12863TIP3   OH260079   5.867   5.411   3.090  0.2129  0.2403  0.0536
12863TIP3    H160080   5.916   5.469   3.032  0.1195 -1.8505 -2.3116
12863TIP3    H260081   5.918   5.410   3.172  2.5807  0.3535 -1.3130
12864TIP3   OH260082   0.673   1.420  13.887 -0.4977  0.5284  0.0079
12864TIP3    H160083   0.581   1.442  13.870 -0.6485  0.0954  0.2580
12864TIP3    H260084   0.675   1.324  13.887  0.3260  0.4802 -2.0532
12865TIP3   OH260085   6.096   5.706  15.072 -0.3421  0.4376  0.0854
12865TIP3    H160086   6.052   5.629  15.108  1.2800 -0.1290  0.9717
12865TIP3    H260087   6.140   5.746  15.147  1.4017  0.4308 -0.8696
12866TIP3   OH260088   4.999   1.298  14.418  0.1402  0.2156 -0.0538
12866TIP3    H160089   4.942   1.312  14.343  1.1632  0.4529 -0.8047
12866TIP3    H260090   5.020   1.204  14.414 -1.4331 -0.2205  1.1429
12867TIP3   OH260091   0.009   4.918   1.784  0.2974  0.0789  0.3875
12867TIP3    H160092   0.023   4.882   1.697  0.7130  0.9402  0.0918
12867TIP3    H260093  -0.076   4.961   1.780 -0.0273 -0.5330  0.6306
12868TIP3   OH260094   0.908   0.856   0.883 -0.0675 -0.3764 -0.3147
12868TIP3    H160095   0.881   0.832   0.794  1.8437  1.8459 -1.5939
12868TIP3    H260096   0.993   0.815   0.894  0.3044  0.4584 -0.0376
12869TIP3   OH260097   2.015   4.871  12.840  0.2128  0.3508  0.0127
12869TIP3    H160098   1.965   4.949  12.863 -0.2917  0.3397 -0.9899
12869TIP3    H260099   2.009   4.866  12.745  0.1622 -0.9672  0.0706
12870TIP3   OH260100   5.252   5.489  14.234 -0.0442 -0.2753 -0.4748
12870TIP3    H160101   5.191   5.517  14.166 -1.5579  1.0984  1.3542
12870TIP3    H260102   5.258   5.564  14.293  0.2188 -1.8426  1.5864
12871TIP3   OH260103   4.432   2.372  13.419  0.4048 -0.2342  0.3930
12871TIP3    H160104   4.348   2.404  13.386  0.2451 -0.2728  0.7590
12871TIP3    H260105   4.423   2.277  13.421 -0.1621 -0.1616  2.0530
12872TIP3   OH260106   2.770   2.611  15.201 -0.1294  0.1104 -0.2976
12872TIP3    H160107   2.813   2.694  15.184  0.5443  0.3095  2.1310
12872TIP3    H260108   2.785   2.593  15.294 -0.6849 -2.4741 -0.6110
12873TIP3   OH260109   4.965   5.585   6.732 -0.3157  0.1135  0.3326
12873TIP3    H160110   4.982   5.616   6.821  0.8787 -0.0405  0.1750
12873TIP3    H260111   5.046   5.541   6.706 -0.6369  0.1940 -0.8526
12874TIP3   OH260112   5.829   5.685  14.405  0.0377 -0.4822  0.1023
12874TIP3    H160113   5.923   5.687  14.425  0.0290 -1.6217  0.2961
12874TIP3    H260114   5.820   5.616  14.339 -0.7510 -0.8644  0.5935
12875TIP3   OH260115   0.947   6.346  13.307 -0.1005 -0.1097 -0.0162
12875TIP3    H160116   0.865   6.391  13.286 -0.1914 -1.2244 -2.3195
12875TIP3    H260117   0.929   6.253  13.292  1.2698 -0.5041  0.5570
12876TIP3   OH260118   5.911   4.731   3.288  0.0391 -0.5353 -0.4009
12876TIP3    H160119   5.956   4.649   3.309  1.1708 -0.0544 -0.8539
12876TIP3    H260120   5.824   4.720   3.325  0.0578 -2.0652 -0.7177
12877TIP3   OH260121   5.682   6.115  14.066  0.1900  0.3172 -0.2271
12877TIP3    H160122   5.618   6.073  14.008  0.9853 -1.3332  0.0334
12877TIP3    H260123   5.765   6.106  14.019  0.7559 -0.5755  0.9149
12878TIP3   OH260124   1.719   2.730  15.062 -0.5671  0.5786  0.1910
12878TIP3    H160125   1.684   2.802  15.114  1.1952  0.7731  1.1825
12878TIP3    H260126   1.802   2.763  15.028  1.4752 -1.6272  2.5648
12879TIP3   OH260127   0.130   3.953  14.157  0.1608  0.1293  0.1993
12879TIP3    H160128   0.077   3.976  14.080  0.9025  0.3547 -0.2617
12879TIP3    H260129   0.082   3.989  14.231  0.2651  1.3773 -0.3183
12880TIP3   OH260130   3.110   5.152   4.451 -1.0014  0.1053 -0.0040
12880TIP3    H160131   3.114   5.093   4.527 -1.1643  0.7684  0.5253
12880TIP3    H260132   3.191   5.203   4.457 -1.6806  1.1583  0.5576
12881TIP3   OH260133   6.689   3.088  15.324 -0.4313 -0.2168  0.2281
12881TIP3    H160134   6.782   3.094  15.343 -0.4223 -1.1143  0.5104
12881TIP3    H260135   6.661   3.178  15.310  0.7148 -0.0390 -1.0084
12882TIP3   OH260136   6.834   2.865  11.732 -0.8151  0.6740  0.1934
12882TIP3    H160137   6.765   2.860  11.666 -0.6820  0.5552  0.0636
12882TIP3    H260138   6.832   2.781  11.776  2.2865 -1.2546 -2.8749
12883TIP3   OH260139   1.306   2.710   2.315 -0.4669  0.2637  0.3314
12883TIP3    H160140   1.311   2.720   2.220 -0.7799 -0.8113  0.1862
12883TIP3    H260141   1.224   2.662   2.329 -0.1399 -0.0820  1.1002
12884TIP3   OH260142   2.635   5.868   1.212 -0.0376 -0.3769 -0.3295
12884TIP3    H160143   2.542   5.865   1.189 -0.7247  0.5330  2.0285
12884TIP3    H260144   2.668   5.947   1.170 -1.0719  0.8630  1.1098
12885TIP3   OH260145   5.288   3.320   4.416 -0.0630 -0.3222 -0.5059
12885TIP3    H160146   5.229   3.253   4.381 -0.5616 -0.1779  0.0498
12885TIP3    H260147   5.307   3.377   4.342 -0.7774 -0.2614 -0.6503
12886TIP3   OH260148   2.740   4.048   1.947 -0.9242 -0.3481 -0.1185
12886TIP3    H160149   2.723   4.043   2.041 -0.6658 -0.4785 -0.0788
12886TIP3    H260150   2.668   3.997   1.908 -1.6554  0.6196 -0.0631
12887TIP3   OH260151   1.353   5.992   0.112  0.3367  0.1824  0.2938
12887TIP3    H160152   1.330   5.906   0.147  0.5242 -0.1114 -0.2827
12887TIP3    H260153   1.436   5.976   0.066  1.7545  1.1896  2.3164
12888TIP3   OH260154   1.100   3.493   4.701 -0.6455  0.6678 -0.4997
12888TIP3    H160155   1.119   3.584   4.723 -0.3629  0.5173 -0.1166
12888TIP3    H260156   1.005   3.488   4.702 -0.6973  0.2022  2.6789
12889TIP3   OH260157   1.989   5.312   0.070  0.5256  0.1006 -0.2859
12889TIP3    H160158   2.054   5.277   0.131 -0.9173  0.4441  1.5419
12889TIP3    H260159   2.012   5.404   0.060  1.2188 -0.1342 -0.8859
12890TIP3   OH260160   6.288   2.804  11.311  0.6118  0.3079  0.3706
12890TIP3    H160161   6.296   2.820  11.405  1.0236 -1.0710  0.6061
12890TIP3    H260162   6.362   2.746  11.291  0.1131  0.0016 -0.6459
12891TIP3   OH260163   6.072   0.609   0.140 -0.5084 -0.5628  0.2881
12891TIP3    H160164   5.981   0.599   0.168 -0.6335  1.8972  0.9474
12891TIP3    H260165   6.089   0.703   0.143  0.6932 -0.4068 -4.2410
12892TIP3   OH260166   6.398   1.405   3.588  0.1185  0.4407 -0.5275
12892TIP3    H160167   6.462   1.413   3.659 -1.0798 -0.3781  0.6881
12892TIP3    H260168   6.419   1.477   3.528  1.8334  0.4917  0.1011
12893TIP3   OH260169   3.170   2.442  16.092  0.4727  0.5041  0.2408
12893TIP3    H160170   3.150   2.481  16.177 -1.8505  3.0592 -1.2885
12893TIP3    H260171   3.118   2.361  16.090  0.4195  0.5077  1.1762
12894TIP3   OH260172   1.827   1.725  16.120 -0.0542 -0.2182  0.7704
12894TIP3    H160173   1.774   1.765  16.189 -0.0474  0.9488  0.1337
12894TIP3    H260174   1.804   1.632  16.123 -0.8686 -0.0081  1.6213
12895TIP3   OH260175   6.721   1.183  15.633 -0.1399  0.3361  0.0748
12895TIP3    H160176   6.627   1.205  15.630 -0.3624 -0.5946 -0.5591
12895TIP3    H260177   6.743   1.183  15.726 -1.7916 -3.2694  0.6618
12896TIP3   OH260178   0.564   0.467  16.419  0.1270 -0.5474 -0.3058
12896TIP3    H160179   0.589   0.436  16.332 -0.0661  1.0510 -0.9846
12896TIP3    H260180   0.585   0.395  16.478 -0.4295 -1.9720 -1.7607
12897TIP3   OH260181   2.489   4.901  14.257 -0.1632  0.2126  0.8020
12897TIP3    H160182   2.450   4.971  14.204  2.4723  0.5502 -0.8747
12897TIP3    H260183   2.532   4.946  14.329  2.6828  0.6344 -0.9952
12898TIP3   OH260184   1.237   6.526   4.552  0.8542 -0.1130 -0.1481
12898TIP3    H160185   1.228   6.480   4.469  1.2533 -0.6830  0.1203
12898TIP3    H260186   1.148   6.550   4.576  0.8030  0.8235 -1.1609
12899TIP3   OH260187   3.088   3.144  15.778  0.1762 -0.1091  0.0137
12899TIP3    H160188   3.058   3.172  15.864  1.2811 -0.6951  0.6092
12899TIP3    H260189   3.184   3.143  15.784  0.2464 -1.4722 -0.7839
12900TIP3   OH260190   0.675   0.730  16.344 -0.4244  0.3028 -0.0490
12900TIP3    H160191   0.681   0.638  16.372 -0.6654  1.0955  2.8695
12900TIP3    H260192   0.749   0.773  16.387 -1.3155  1.7972  0.0534
12901TIP3   OH260193   4.362   1.535   5.625 -0.1416 -0.6549 -0.2954
12901TIP3    H160194   4.392   1.472   5.690  1.2282 -1.2944 -1.4826
12901TIP3    H260195   4.286   1.577   5.665  0.6838 -0.9656  1.7256
12902TIP3   OH260196   3.814   1.006  17.134 -0.3437  0.1800 -0.1335
12902TIP3    H160197   3.839   1.093  17.103  0.5020  0.3129  0.8774
12902TIP3    H260198   3.859   0.996  17.218 -0.8152 -1.0429 -0.0024
12903TIP3   OH260199   0.842   0.235   2.139  0.2689 -0.0794 -0.1354
12903TIP3    H160200   0.802   0.179   2.206 -1.3940  1.6782  0.4423
12903TIP3    H260201   0.935   0.215   2.143  0.2594  0.0868  2.8559
12904TIP3   OH260202   6.838   2.426   4.548 -0.3225 -0.1579 -0.4447
12904TIP3    H160203   6.888   2.375   4.485  1.4336 -0.1770  0.8666
12904TIP3    H260204   6.809   2.363   4.614  1.5569  0.3876  0.9963
12905TIP3   OH260205   3.865   6.036  15.607  0.1403 -0.5052  0.5142
12905TIP3    H160206   3.838   6.121  15.641 -2.5633  0.0069 -2.4484
12905TIP3    H260207   3.959   6.045  15.591  0.1552  1.4284  1.4510
12906TIP3   OH260208   3.684   5.982   4.353 -0.5682 -0.3294  0.2382
12906TIP3    H160209   3.671   6.071   4.385  0.0324  0.0457 -0.5181
12906TIP3    H260210   3.600   5.958   4.315 -1.2119 -0.6800  1.7849
12907TIP3   OH260211   0.845   1.344   1.304 -0.7009  0.0189 -0.0204
12907TIP3    H160212   0.854   1.406   1.231  0.3837 -0.5571 -0.4014
12907TIP3    H260213   0.751   1.334   1.316 -0.8911  0.9598 -0.6241
12908TIP3   OH260214   4.422   0.455  13.140  0.4568  0.4178  0.0342
12908TIP3    H160215   4.513   0.473  13.164  0.7783 -1.1872  0.1381
12908TIP3    H260216   4.418   0.471  13.045  0.6860  1.1068  0.1439
12909TIP3   OH260217   5.674   1.261  14.707 -0.0815 -0.6486  0.0228
12909TIP3    H160218   5.594   1.231  14.665 -1.0516  1.3912  0.2959
12909TIP3    H260219   5.722   1.307  14.638  0.0945 -0.4848  0.2517
12910TIP3   OH260220   2.488   4.033   5.072  0.5104 -0.3109 -0.1688
12910TIP3    H160221   2.554   4.032   5.141 -0.5503 -3.5902  0.9890
12910TIP3    H260222   2.530   3.991   4.998  0.7218  0.6204 -0.5981
12911TIP3   OH260223   3.625   2.952  14.345  0.4270  0.2134  0.6356
12911TIP3    H160224   3.662   3.012  14.409  3.8807 -0.9781  0.0152
12911TIP3    H260225   3.642   2.865  14.381 -1.5351 -0.4717  0.0407
12912TIP3   OH260226   3.417   2.609  10.950 -0.0164  0.3112 -0.4037
12912TIP3    H160227   3.404   2.522  10.988  1.2892  0.0989 -0.4243
12912TIP3    H260228   3.333   2.630  10.909  0.4483 -2.1837 -2.9198
12913TIP3   OH260229   5.754   4.918   3.701 -0.0894  0.4816 -0.7073
12913TIP3    H160230   5.750   4.825   3.680 -0.7717  0.7401 -1.7964
12913TIP3    H260231   5.843   4.944   3.679  0.3502 -0.0668  0.3454
12914TIP3   OH260232   4.469   3.350  11.217  0.2730  0.6320  0.0005
12914TIP3    H160233   4.434   3.327  11.131 -1.5419  1.6845  0.4102
12914TIP3    H260234   4.441   3.278  11.274  0.9083  0.2669 -0.1331
12915TIP3   OH260235   6.375   1.356   0.674  0.0468  0.1392 -0.2139
12915TIP3    H160236   6.350   1.359   0.767 -1.7073  1.6136 -0.6726
12915TIP3    H260237   6.330   1.279   0.639 -0.4867  0.4139 -0.1407
12916TIP3   OH260238   5.110   1.976   5.045  1.1854  0.3686 -0.3667
12916TIP3    H160239   5.062   1.914   5.100  1.9072  0.8078  0.8023
12916TIP3    H260240   5.175   1.923   4.999  0.7279  0.0284 -0.6233
12917TIP3   OH260241   1.997   3.645  12.842 -0.8920 -0.3398 -0.0361
12917TIP3    H160242   1.949   3.567  12.815 -1.0393 -0.4023  0.4076
12917TIP3    H260243   1.934   3.696  12.892 -0.2884 -0.7863  1.2104
12918TIP3   OH260244   2.163   0.305  14.230 -0.3243  0.5504  0.5546
12918TIP3    H160245   2.175   0.210  14.239 -1.1983  0.2233 -1.2903
12918TIP3    H260246   2.181   0.339  14.318 -1.0622 -1.4229  1.5457
12919TIP3   OH260247   2.889   3.411  13.672  0.1213 -0.2529 -0.0078
12919TIP3    H160248   2.852   3.397  13.584  0.8276  0.6179 -0.4593
12919TIP3    H260249   2.915   3.503  13.673 -1.0255  0.0903  1.5785
12920TIP3   OH260250   3.388   6.227   2.360 -0.7632 -0.7294 -0.2288
12920TIP3    H160251   3.394   6.132   2.349 -0.6284 -0.8021  0.4531
12920TIP3    H260252   3.295   6.246   2.348 -0.4595 -0.5752 -3.1106
12921TIP3   OH260253   6.344   4.093   2.568  0.1846  0.2928  0.1943
12921TIP3    H160254   6.262   4.047   2.548  0.1174 -0.2208  1.4926
12921TIP3    H260255   6.384   4.040   2.637  1.1404  1.0658  0.2502
12922TIP3   OH260256   4.527   0.607   5.655  0.1739 -0.1025  0.1269
12922TIP3    H160257   4.542   0.691   5.611 -0.3490  0.6297  1.3001
12922TIP3    H260258   4.577   0.613   5.737  1.8866 -1.8041 -0.7099
12923TIP3   OH260259   2.040   0.774  11.554 -0.4576 -0.3631  0.3732
12923TIP3    H160260   2.093   0.769  11.475  1.0056  0.3350  1.2699
12923TIP3    H260261   2.101   0.756  11.626 -1.6917 -0.7590  1.3715
12924TIP3   OH260262   0.134   4.949   2.897 -0.7956  0.2772 -0.1539
12924TIP3    H160263   0.198   4.893   2.941  0.3772  1.5923 -0.1451
12924TIP3    H260264   0.096   5.001   2.967 -2.3280 -0.8829 -0.0757
12925TIP3   OH260265   4.206   5.890  15.962  0.1985 -0.0576 -0.1929
12925TIP3    H160266   4.133   5.859  15.910  0.8821 -1.6162 -0.2768
12925TIP3    H260267   4.211   5.829  16.036  0.5115  0.9055  0.6096
12926TIP3   OH260268   6.463   1.743   6.356 -0.7242 -0.1158  0.2759
12926TIP3    H160269   6.538   1.687   6.336 -0.5953 -0.0640  0.6162
12926TIP3    H260270   6.411   1.743   6.275  0.7679  1.6390 -0.7592
12927TIP3   OH260271   2.141   5.333   2.547  0.3809 -0.1617  0.5000
12927TIP3    H160272   2.198   5.345   2.472  1.6764  2.3807  1.7594
12927TIP3    H260273   2.200   5.308   2.619 -0.4179  0.1934  1.2997
12928TIP3   OH260274   2.129   3.814   3.691  0.4096 -0.4224  0.1439
12928TIP3    H160275   2.086   3.741   3.647 -0.0540  0.0383 -0.1689
12928TIP3    H260276   2.220   3.811   3.659  0.5498 -1.2106  0.5797
12929TIP3   OH260277   1.208   4.511  14.501 -0.0280  0.1142 -0.2222
12929TIP3    H160278   1.129   4.511  14.556  0.1790  1.1313  0.1091
12929TIP3    H260279   1.208   4.598  14.461  2.1576  1.0795  1.6385
12930TIP3   OH260280   3.070   0.840   4.173 -0.2499 -0.0795  0.4898
12930TIP3    H160281   3.104   0.759   4.210 -0.1101 -0.1660  0.1738
12930TIP3    H260282   3.080   0.830   4.078  1.6998  1.1497  0.5183
12931TIP3   OH260283   1.513   6.079  16.953 -0.2888 -0.0404  0.4144
12931TIP3    H160284   1.430   6.079  17.002 -1.5377  0.9102 -1.5640
12931TIP3    H260285   1.505   6.152  16.893  1.5834 -0.5762 -0.5623
12932TIP3   OH260286   4.582   6.660  11.776 -0.4388  0.1079  0.1766
12932TIP3    H160287   4.604   6.579  11.730 -1.4868 -0.9975  1.4831
12932TIP3    H260288   4.487   6.668  11.765 -0.3534  1.1307  0.1301
12933TIP3   OH260289   4.592   1.122   1.731 -0.1670  0.2957  0.1946
12933TIP3    H160290   4.609   1.028   1.730  0.2105  0.3310 -2.1188
12933TIP3    H260291   4.675   1.161   1.704 -0.1053  1.3941  1.7961
12934TIP3   OH260292   5.175   0.868  11.988 -0.5148  0.0527  0.5004
12934TIP3    H160293   5.253   0.921  12.002 -0.9407  0.1648  2.9243
12934TIP3    H260294   5.208   0.786  11.953  0.4088  0.9796 -0.8764
12935TIP3   OH260295   5.338   4.217  10.440 -0.3688 -0.2540  0.2041
12935TIP3    H160296   5.318   4.179  10.525  1.3909 -1.0398  0.3276
12935TIP3    H260297   5.355   4.141  10.384  1.7439  0.2667  0.0574
12936TIP3   OH260298   5.843   3.552   3.360 -0.0245 -0.0939 -0.6407
12936TIP3    H160299   5.760   3.567   3.314 -0.9241  0.9917  1.2087
12936TIP3    H260300   5.886   3.637   3.358  0.7282 -0.4823 -0.9878
12937TIP3   OH260301   0.002   1.984   1.216 -0.4684 -0.3415  0.6616
12937TIP3    H160302   0.021   1.992   1.309  1.7434  0.4649  0.2003
12937TIP3    H260303  -0.025   2.072   1.189 -0.9103 -0.5233  0.4967
12938TIP3   OH260304   1.909   1.075   5.864  0.1085 -0.0065 -0.1019
12938TIP3    H160305   1.973   1.144   5.848  0.1679  0.7803  3.0028
12938TIP3    H260306   1.962   0.997   5.884  0.2722  0.8399  3.2806
12939TIP3   OH260307   0.582   2.370  13.440  0.0367  0.9134  0.4493
12939TIP3    H160308   0.572   2.351  13.347  0.4101  0.5130  0.4885
12939TIP3    H260309   0.639   2.446  13.444  0.2536  0.7553  0.3599
12940TIP3   OH260310   3.034   3.260   0.276  0.6188 -0.3195  0.2398
12940TIP3    H160311   3.031   3.165   0.260  0.4218 -0.3547  0.4820
12940TIP3    H260312   3.113   3.272   0.329  1.1926 -0.2205 -0.6067
12941TIP3   OH260313   1.510   4.948  15.820  0.0885 -0.1467  0.0331
12941TIP3    H160314   1.503   5.011  15.748  0.3482 -2.1063 -1.8324
12941TIP3    H260315   1.577   4.886  15.791 -1.8624 -2.6898  0.5596
12942TIP3   OH260316   2.207   6.068  11.032  0.4718 -0.4917 -0.2212
12942TIP3    H160317   2.121   6.026  11.040  0.1762  0.1211 -0.1097
12942TIP3    H260318   2.213   6.126  11.108  1.7069 -1.7641  0.6985
12943TIP3   OH260319   3.761   2.653   3.061  0.2852  0.2006 -0.2169
12943TIP3    H160320   3.760   2.604   2.978 -1.5773 -0.5056  0.1821
12943TIP3    H260321   3.700   2.726   3.046  0.3182  0.3489  0.3684
12944TIP3   OH260322   6.841   2.875   3.048 -0.5092 -0.8034  0.6075
12944TIP3    H160323   6.846   2.826   2.966  1.9940 -1.8457  1.2893
12944TIP3    H260324   6.884   2.959   3.029 -0.4351 -0.8178  0.7087
12945TIP3   OH260325   2.955   5.196  10.656  0.1190  0.1300  0.1122
12945TIP3    H160326   2.863   5.210  10.676  0.2103 -0.6951  1.1853
12945TIP3    H260327   2.971   5.104  10.678  1.5767  0.6870  1.5354
12946TIP3   OH260328   4.051   6.557   5.002 -0.1901 -0.2531 -0.6480
12946TIP3    H160329   4.081   6.553   4.911  1.3484  1.2151 -0.2371
12946TIP3    H260330   3.992   6.481   5.011  1.1865 -1.5916 -2.2921
12947TIP3   OH260331   2.383   5.715   4.359  0.7418  0.7754 -0.2989
12947TIP3    H160332   2.297   5.744   4.391  0.8917  0.1732  0.6916
12947TIP3    H260333   2.444   5.740   4.428  1.6845  2.8444 -1.7729
12948TIP3   OH260334   6.766   2.317  12.170 -0.3983  0.1516  0.8737
12948TIP3    H160335   6.845   2.369  12.159  0.6557 -1.4684  0.4177
12948TIP3    H260336   6.751   2.277  12.084 -0.8289 -0.7330  1.3374
12949TIP3   OH260337   4.937   1.328   1.461  0.2822 -0.6417 -0.1348
12949TIP3    H160338   4.928   1.416   1.497  2.0396 -0.7043  0.5683
12949TIP3    H260339   4.864   1.319   1.400  0.0187  1.2636 -0.1558
12950TIP3   OH260340   4.758   4.844  12.974 -0.3045  0.0334  0.4939
12950TIP3    H160341   4.764   4.866  12.881 -0.1675 -3.4250 -0.4681
12950TIP3    H260342   4.664   4.843  12.993 -0.3113  1.2893  0.5794
12951TIP3   OH260343   3.575   4.713  15.774  0.2482 -0.1152 -0.3643
12951TIP3    H160344   3.503   4.685  15.830  1.2427  1.9709  2.1693
12951TIP3    H260345   3.534   4.739  15.692 -1.9516  1.3092  1.1128
12952TIP3   OH260346   1.654   4.058   3.625 -0.5039 -0.1477 -0.7927
12952TIP3    H160347   1.593   4.120   3.665  0.2943 -0.1718  0.5070
12952TIP3    H260348   1.657   3.984   3.686  1.8625  0.4408 -0.0944
12953TIP3   OH260349   6.800   3.290   4.438 -0.0098  0.0461  0.2676
12953TIP3    H160350   6.875   3.346   4.425 -0.3080  0.4081  0.0964
12953TIP3    H260351   6.797   3.275   4.532  0.4094 -0.1575  0.2494
12954TIP3   OH260352   4.152   5.182   0.400  0.2371 -0.1989  0.2726
12954TIP3    H160353   4.198   5.101   0.420  0.3563 -0.0660  0.5401
12954TIP3    H260354   4.218   5.239   0.361 -0.2284 -0.8391 -1.5651
12955TIP3   OH260355   5.296   6.409   5.873  1.0967  0.3940  0.2328
12955TIP3    H160356   5.355   6.368   5.810 -0.3804  0.5714 -1.3512
12955TIP3    H260357   5.312   6.503   5.863  1.0590  0.4082  0.3108
12956TIP3   OH260358   4.185   0.741   4.915  0.4540 -0.0163  0.1537
12956TIP3    H160359   4.214   0.687   4.988  0.0312  0.3547  0.6024
12956TIP3    H260360   4.247   0.721   4.844 -0.9333 -2.7586 -0.4311
12957TIP3   OH260361   1.851   0.739  15.037  0.4253 -0.6251  0.4552
12957TIP3    H160362   1.806   0.765  14.957 -1.6918  0.4708  1.9009
12957TIP3    H260363   1.941   0.770  15.025 -0.2406  0.9648 -0.8553
12958TIP3   OH260364   2.603   4.870   1.146 -0.5631 -0.5256  0.8119
12958TIP3    H160365   2.619   4.852   1.239 -1.5101 -2.7553  0.6177
12958TIP3    H260366   2.528   4.929   1.146  0.3100  0.6196  1.4685
12959TIP3   OH260367   6.622   2.874  13.994  0.2981 -0.2568 -0.0059
12959TIP3    H160368   6.572   2.808  14.042  0.2710  0.5942  1.1803
12959TIP3    H260369   6.637   2.943  14.058  2.6497 -0.2966 -0.4376
12960TIP3   OH260370   1.133   1.426  16.662  0.2187 -0.3036  0.4533
12960TIP3    H160371   1.122   1.361  16.731 -2.7146 -2.0365 -1.4023
12960TIP3    H260372   1.131   1.375  16.581  0.3114  1.9188 -1.0429
12961TIP3   OH260373   3.187   4.197  11.245  0.8392 -0.3903 -0.0335
12961TIP3    H160374   3.271   4.243  11.242  0.3894  0.4755  0.2373
12961TIP3    H260375   3.185   4.146  11.164  2.5698 -2.1807  0.9616
12962TIP3   OH260376   5.457   1.750   2.265 -0.0695  0.5511 -0.0179
12962TIP3    H160377   5.412   1.831   2.289 -2.6098 -0.5352 -0.7787
12962TIP3    H260378   5.486   1.714   2.349  0.4454  1.8835  0.3924
12963TIP3   OH260379   0.728   6.446  11.377 -0.4792  0.1995 -0.0874
12963TIP3    H160380   0.661   6.513  11.363  0.9163  1.3940 -1.3925
12963TIP3    H260381   0.799   6.491  11.423  1.6316  0.4682 -3.2904
12964TIP3   OH260382   3.496   4.234   5.815  0.0427  1.0208 -0.7700
12964TIP3    H160383   3.414   4.277   5.791  0.1287  1.9713  0.5403
12964TIP3    H260384   3.505   4.163   5.752 -2.3101  0.2445 -0.3487
12965TIP3   OH260385   3.946   3.340   5.200  0.4511 -0.0046  0.3157
12965TIP3    H160386   3.853   3.334   5.225  0.2405  1.9103  0.1474
12965TIP3    H260387   3.953   3.288   5.120 -0.8701  1.1228 -0.5876
12966TIP3   OH260388   3.241   1.696  12.593  0.2027  0.5509 -0.1990
12966TIP3    H160389   3.206   1.617  12.632  1.9738  0.3603  1.1592
12966TIP3    H260390   3.323   1.668  12.551 -0.2736  1.2733 -1.6744
12967TIP3   OH260391   3.070   3.097  16.349  0.1596  0.2587 -0.0281
12967TIP3    H160392   2.989   3.122  16.304  0.8638  0.1762 -1.3976
12967TIP3    H260393   3.063   3.002  16.361  0.2919  0.1588 -0.6831
12968TIP3   OH260394   6.238   4.751  11.378 -0.1467  0.4584 -0.0604
12968TIP3    H160395   6.198   4.794  11.303  1.2880  0.3780 -0.8913
12968TIP3    H260396   6.187   4.671  11.390  0.8497 -0.5795 -2.2676
12969TIP3   OH260397   4.404   5.150  14.150 -0.5598  0.1171  0.1182
12969TIP3    H160398   4.446   5.227  14.112 -0.2588 -1.0534 -2.0658
12969TIP3    H260399   4.320   5.182  14.184  0.7169  1.8956  1.8015
12970TIP3   OH260400   4.295   1.285   0.515 -1.0717 -0.3400  0.0664
12970TIP3    H160401   4.299   1.211   0.455 -0.0727 -1.0912  1.0129
12970TIP3    H260402   4.211   1.275   0.559 -0.1370 -2.1077  1.5977
12971TIP3   OH260403   1.744   2.553   4.748  0.3798  0.8264 -0.1755
12971TIP3    H160404   1.732   2.464   4.716 -0.2344  0.3392  1.3435
12971TIP3    H260405   1.670   2.602   4.712  1.6089  1.1749 -2.4048
12972TIP3   OH260406   3.625   6.717  12.767 -0.2670  0.4621  0.5103
12972TIP3    H160407   3.642   6.800  12.722 -1.4044  1.1578  1.2980
12972TIP3    H260408   3.550   6.736  12.823 -0.2133 -0.9702  1.0991
12973TIP3   OH260409   4.032   4.247   3.944  0.3826  0.1739 -0.0071
12973TIP3    H160410   3.955   4.298   3.919  0.6385  0.5276 -0.0802
12973TIP3    H260411   4.072   4.222   3.862  1.3855  1.5806  0.0047
12974TIP3   OH260412   3.516   0.288   4.212  0.0304  0.2150  0.2771
12974TIP3    H160413   3.567   0.355   4.167  0.1648 -0.5075 -0.6683
12974TIP3    H260414   3.581   0.230   4.252 -0.0873  0.7997  1.3542
12975TIP3   OH260415   3.521   1.211   2.508 -0.1265  0.3646 -0.1350
12975TIP3    H160416   3.495   1.120   2.490  1.1926  0.3274 -2.1129
12975TIP3    H260417   3.453   1.264   2.466  1.3701  0.2508 -2.9093
12976TIP3   OH260418   5.181   5.238  16.869 -0.4818 -0.4008  0.2644
12976TIP3    H160419   5.157   5.234  16.962 -0.7351 -1.1934  0.1714
12976TIP3    H260420   5.204   5.148  16.847  1.6088  0.1311  0.0821
12977TIP3   OH260421   3.153   6.602  16.839  0.2545 -0.7581 -0.0501
12977TIP3    H160422   3.086   6.663  16.808  0.4023 -1.0131 -0.9070
12977TIP3    H260423   3.161   6.537  16.769  4.1922  1.4083 -2.0030
12978TIP3   OH260424   6.020   0.608  15.547 -0.2473  0.0993  0.6522
12978TIP3    H160425   6.084   0.604  15.619 -0.3402  0.1206  0.7355
12978TIP3    H260426   6.042   0.689  15.501  1.4140 -1.1166 -0.8470
12979TIP3   OH260427   0.307   5.718   2.330 -0.0698 -0.1170 -0.1915
12979TIP3    H160428   0.399   5.709   2.357 -0.2737 -2.3092  0.0264
12979TIP3    H260429   0.288   5.635   2.285 -1.2588  1.2994 -2.4765
12980TIP3   OH260430   5.377   0.204   4.840 -0.1678 -0.8759 -0.5933
12980TIP3    H160431   5.378   0.264   4.765  0.8046 -0.3399 -0.1780
12980TIP3    H260432   5.427   0.128   4.810  3.4348  0.8090  0.5835
12981TIP3   OH260433   3.326   6.777  12.005  0.6015  0.3125  0.4969
12981TIP3    H160434   3.336   6.824  11.923  0.8385  0.3693  0.5571
12981TIP3    H260435   3.233   6.756  12.010  0.8223 -1.0349 -0.5193
12982TIP3   OH260436   2.691   5.825   3.985  0.0206 -0.1436  0.3911
12982TIP3    H160437   2.751   5.829   3.910  0.1042 -0.9014  0.4140
12982TIP3    H260438   2.644   5.743   3.974 -1.1072  0.5033  0.3165
12983TIP3   OH260439   1.339   3.355  16.768 -0.8029  0.1526  0.1993
12983TIP3    H160440   1.310   3.324  16.854  1.4977 -0.6414  0.7480
12983TIP3    H260441   1.407   3.419  16.788  0.7663 -1.0813 -1.0134
12984TIP3   OH260442   0.624   3.127   5.849  0.1074 -0.0552  0.2956
12984TIP3    H160443   0.674   3.203   5.820 -2.4589  0.6141 -3.0949
12984TIP3    H260444   0.543   3.164   5.885  0.6556 -1.1653  2.9084
12985TIP3   OH260445   3.844   4.408  16.259 -0.3294 -0.1991 -0.4711
12985TIP3    H160446   3.823   4.499  16.278  1.9696  0.4179 -0.5698
12985TIP3    H260447   3.798   4.388  16.178 -2.9766 -0.0171  0.8791
12986TIP3   OH260448   5.055   5.832   6.462  0.5963  0.6009  0.4189
12986TIP3    H160449   5.028   5.753   6.415  0.7184  0.2799  0.8822
12986TIP3    H260450   5.114   5.801   6.530  1.0524  1.1520  0.2877
12987TIP3   OH260451   6.481   3.918   4.950 -0.1898 -0.3380 -0.4979
12987TIP3    H160452   6.400   3.966   4.971  0.2945 -0.0318  0.7474
12987TIP3    H260453   6.491   3.856   5.022  2.0557  1.4080  0.8050
12988TIP3   OH260454   0.427   3.752   2.385  0.2988  0.7155 -0.1046
12988TIP3    H160455   0.409   3.760   2.479 -0.6343  1.2464 -0.3121
12988TIP3    H260456   0.518   3.780   2.376  0.2192  1.2371  0.5724
12989TIP3   OH260457   4.116   0.933   2.465 -0.1533 -0.3087  0.2554
12989TIP3    H160458   4.145   1.018   2.433  0.2500 -1.0736 -1.5794
12989TIP3    H260459   4.038   0.914   2.414 -0.8728 -0.5778  1.4296
12990TIP3   OH260460   0.609   1.498  15.413 -0.0091 -0.3078 -0.1427
12990TIP3    H160461   0.556   1.548  15.474 -0.4161  0.2772 -0.9466
12990TIP3    H260462   0.697   1.495  15.452 -0.5741 -1.1628  1.1308
12991TIP3   OH260463   2.220   3.856   1.532  0.2566  0.0818  0.5734
12991TIP3    H160464   2.231   3.762   1.518 -1.9676  0.1914 -3.0651
12991TIP3    H260465   2.130   3.865   1.566  0.2351  0.9210  0.3165
12992TIP3   OH260466   3.112   1.602   4.511  0.4474 -0.4682 -0.5096
12992TIP3    H160467   3.099   1.589   4.417 -0.2148 -1.4860 -0.2961
12992TIP3    H260468   3.088   1.693   4.526  1.8287  0.1027 -1.5258
12993TIP3   OH260469   2.939   5.235   3.953 -0.5044  0.4258  0.4971
12993TIP3    H160470   2.884   5.266   4.024 -0.3580 -0.1208  0.8522
12993TIP3    H260471   2.948   5.141   3.968  0.0197  0.4055  0.0948
12994TIP3   OH260472   6.276   3.048  11.791 -0.5876 -0.0202  0.0489
12994TIP3    H160473   6.213   3.121  11.798  0.1199  0.8054 -1.6030
12994TIP3    H260474   6.227   2.971  11.820 -2.3703  0.6111 -1.0939
12995TIP3   OH260475   4.101   5.736   3.255  0.0188  0.4518  0.1056
12995TIP3    H160476   4.185   5.751   3.299  0.0003  2.3397 -0.4450
12995TIP3    H260477   4.123   5.681   3.180  0.6720  0.4410  0.2961
12996TIP3   OH260478   0.396   4.088   4.084  0.1861 -0.1111  0.1807
12996TIP3    H160479   0.453   4.144   4.031 -1.9319  0.1870 -1.9463
12996TIP3    H260480   0.452   4.015   4.110  1.2723 -0.4691 -2.8297
12997TIP3   OH260481   0.887   1.544  15.341  0.2060  0.1139 -0.1537
12997TIP3    H160482   0.873   1.464  15.290 -0.5052 -0.7569  1.3640
12997TIP3    H260483   0.882   1.614  15.276 -1.9152 -0.8567 -1.1329
12998TIP3   OH260484   3.854   0.251   5.295 -0.0743  0.4761 -0.0498
12998TIP3    H160485   3.817   0.215   5.214  0.5766 -0.4779  0.0640
12998TIP3    H260486   3.820   0.341   5.299 -4.0671 -0.8921  1.0953
12999TIP3   OH260487   5.248   6.164  14.139  0.2124  0.5567 -0.1752
12999TIP3    H160488   5.158   6.133  14.154  1.4055 -2.2956  2.1758
12999TIP3    H260489   5.277   6.115  14.062  0.5317 -0.6774  0.6829
13000TIP3   OH260490   3.374   4.551   2.187  0.4395  0.5578 -0.3402
13000TIP3    H160491   3.432   4.477   2.167 -0.1989 -0.0734  0.0988
13000TIP3    H260492   3.426   4.606   2.246  0.6677  0.0953 -0.1050
13001TIP3   OH260493   0.917   3.966  14.584 -0.0168  0.0484  0.0617
13001TIP3    H160494   0.975   4.039  14.606  0.1668 -0.1637  0.2937
13001TIP3    H260495   0.886   3.986  14.496 -0.8696  0.9748  0.5622
13002TIP3   OH260496   3.953   4.569   0.940 -0.0916  0.7313  0.9543
13002TIP3    H160497   3.931   4.639   1.001 -2.5495 -0.2726  1.3026
13002TIP3    H260498   3.911   4.491   0.976  0.5432 -0.4199 -0.6914
13003TIP3   OH260499   2.983   5.664  16.219  0.1696 -0.4167  0.4721
13003TIP3    H160500   3.024   5.750  16.210 -1.1338  0.2287  0.4663
13003TIP3    H260501   3.055   5.604  16.237  1.2553  0.4649 -0.7926
13004TIP3   OH260502   4.556   5.470  12.856 -0.1954  0.1602 -0.1027
13004TIP3    H160503   4.490   5.408  12.825  0.2128 -0.1597 -0.3487
13004TIP3    H260504   4.618   5.476  12.783  0.5145 -0.2186  0.4599
13005TIP3   OH260505   4.768   3.491   2.912 -0.5715 -0.0919  0.0375
13005TIP3    H160506   4.725   3.436   2.847  1.0366  0.3066 -1.4382
13005TIP3    H260507   4.785   3.573   2.867  1.7505 -0.2486  0.4764
13006TIP3   OH260508   1.129   2.883   3.152  0.1391  0.2765 -0.1024
13006TIP3    H160509   1.161   2.863   3.240  0.2068  1.6185  0.2017
13006TIP3    H260510   1.034   2.877   3.160  0.1711 -0.2717 -0.1137
13007TIP3   OH260511   0.867   1.500  14.476 -0.3180  0.1676  0.6712
13007TIP3    H160512   0.864   1.479  14.569  1.2769 -0.8618  0.5177
13007TIP3    H260513   0.828   1.587  14.470  0.3539  0.6221  2.4140
13008TIP3   OH260514   4.600   0.100   4.841  0.6094  0.1182  0.0557
13008TIP3    H160515   4.589   0.015   4.800 -1.3746  0.5308 -0.3478
13008TIP3    H260516   4.692   0.122   4.827  1.0195 -1.6935 -0.2981
13009TIP3   OH260517   6.618   5.135   6.141  0.0947  0.2245 -0.0558
13009TIP3    H160518   6.654   5.047   6.137 -0.4500 -0.0207  0.2477
13009TIP3    H260519   6.685   5.187   6.184  0.3825 -0.0615 -0.1563
13010TIP3   OH260520   1.305   1.921   4.878  0.0573  0.4405 -0.5836
13010TIP3    H160521   1.263   1.908   4.962 -0.0788  0.4547 -0.6497
13010TIP3    H260522   1.296   1.837   4.833 -0.4421  0.6309 -0.8399
13011TIP3   OH260523   6.600   0.459   2.440  0.6424 -0.6142  0.1859
13011TIP3    H160524   6.608   0.552   2.417 -1.0740 -0.4055  0.3716
13011TIP3    H260525   6.619   0.456   2.534 -0.0334 -0.3474  0.3306
13012TIP3   OH260526   2.755   6.757   1.970  0.1361 -0.1944  0.2899
13012TIP3    H160527   2.738   6.695   1.899 -1.4361  0.0624  0.3995
13012TIP3    H260528   2.808   6.826   1.929 -0.2828 -0.3303 -0.5067
13013TIP3   OH260529   5.568   5.847   0.610  0.2288 -0.5465  0.5278
13013TIP3    H160530   5.608   5.764   0.585 -0.7131 -0.5344 -1.0957
13013TIP3    H260531   5.643   5.903   0.632  0.8637 -1.9240  2.1501
13014TIP3   OH260532   2.278   2.765  14.393 -0.0546  0.8427  0.3964
13014TIP3    H160533   2.185   2.744  14.396 -0.0370  0.1748 -1.6191
13014TIP3    H260534   2.281   2.858  14.371 -0.2016  1.3359  2.3548
13015TIP3   OH260535   0.739   2.246   5.279 -0.1057 -0.2309  0.6945
13015TIP3    H160536   0.723   2.206   5.194  0.5850  1.0666 -0.0820
13015TIP3    H260537   0.655   2.238   5.325 -0.2718 -1.6053  0.1929
13016TIP3   OH260538   0.838   5.746  12.323 -0.1648  0.0557 -0.3187
13016TIP3    H160539   0.810   5.654  12.321 -1.3279  0.4025 -0.7422
13016TIP3    H260540   0.905   5.752  12.254  0.2955 -0.5706  0.0547
13017TIP3   OH260541   6.003   6.247  15.221  0.1341 -0.7639  0.2692
13017TIP3    H160542   5.972   6.158  15.201  1.7881 -0.8336 -2.6255
13017TIP3    H260543   6.068   6.235  15.290  0.7111 -1.9284 -0.4421
13018TIP3   OH260544   5.535   0.912  15.866 -0.0893  0.3720  0.1224
13018TIP3    H160545   5.583   0.943  15.942  0.4994 -0.6157  0.1643
13018TIP3    H260546   5.552   0.978  15.798  0.8635  0.3224  0.3053
13019TIP3   OH260547   6.348   4.771  16.989  0.0772 -0.0330 -0.2937
13019TIP3    H160548   6.312   4.715  17.059  0.9698 -0.5737 -0.2555
13019TIP3    H260549   6.272   4.818  16.955 -0.6163 -0.8811  0.0329
13020TIP3   OH260550   1.316   0.812   5.446  0.1707 -0.1312 -0.2009
13020TIP3    H160551   1.243   0.779   5.393  0.6108  0.5669 -1.2788
13020TIP3    H260552   1.278   0.832   5.531 -1.0066  0.7158 -0.9112
13021TIP3   OH260553   6.464   6.664  11.554  0.1404  0.0182  0.4551
13021TIP3    H160554   6.549   6.707  11.555  1.0846 -1.7622  0.1969
13021TIP3    H260555   6.443   6.650  11.646  0.7948 -0.7955  0.4822
13022TIP3   OH260556   5.110   6.396  11.590  0.0076  0.2955  0.2568
13022TIP3    H160557   5.150   6.376  11.674 -1.7442 -4.0699  0.2986
13022TIP3    H260558   5.023   6.430  11.612 -0.3124 -0.4990  0.2498
13023TIP3   OH260559   5.708   1.590   4.381  0.1596 -0.3292 -0.4947
13023TIP3    H160560   5.723   1.503   4.417  3.2580  0.4819  0.5138
13023TIP3    H260561   5.787   1.639   4.405 -1.6724  2.9122 -0.5798
13024TIP3   OH260562   2.347   6.758  13.969 -0.1100  0.6212 -0.9419
13024TIP3    H160563   2.320   6.837  13.923  0.1049  1.8566  0.9421
13024TIP3    H260564   2.266   6.720  14.004 -0.1209  0.4802 -1.1181
13025TIP3   OH260565   6.537   0.005   0.524  0.2957  0.2650 -0.0212
13025TIP3    H160566   6.524  -0.082   0.485  1.2680 -0.1134  0.4593
13025TIP3    H260567   6.449   0.033   0.550  0.0581 -0.9400  0.5470
13026TIP3   OH260568   3.116   1.236   5.496  0.1856  0.2709  0.4784
13026TIP3    H160569   3.126   1.279   5.411 -0.3324  1.2834  0.9152
13026TIP3    H260570   3.039   1.277   5.535 -0.7968 -1.6109  0.5990
13027TIP3   OH260571   4.684   6.001  15.701 -0.0951 -0.5805 -0.1438
13027TIP3    H160572   4.626   5.993  15.777  0.5508 -1.0385  0.3110
13027TIP3    H260573   4.732   5.918  15.699  0.4990 -0.2314 -0.5560
13028TIP3   OH260574   0.015   4.998   5.846  0.2038  0.2413 -0.1573
13028TIP3    H160575   0.018   4.988   5.941 -0.1590  1.7695  0.0441
13028TIP3    H260576  -0.078   5.014   5.826  0.3105  0.1656 -0.7431
13029TIP3   OH260577   2.247   6.275   4.140  0.2436 -0.4151 -0.0891
13029TIP3    H160578   2.166   6.259   4.092 -0.1354  0.8352  0.0864
13029TIP3    H260579   2.219   6.279   4.232  0.9251 -2.5732  0.2599
13030TIP3   OH260580   5.263   2.368  16.943 -0.4310  0.5433 -0.1387
13030TIP3    H160581   5.313   2.304  16.994 -2.8568 -0.1100  1.6526
13030TIP3    H260582   5.307   2.451  16.958  1.1737 -0.2508 -0.2179
13031TIP3   OH260583   1.032   1.364   3.882 -0.0902 -0.1083  0.4618
13031TIP3    H160584   1.032   1.280   3.928  1.2041 -1.5420 -1.9179
13031TIP3    H260585   1.027   1.430   3.951  0.8078 -2.0997  2.5512
13032TIP3   OH260586   1.081   2.383  15.487 -0.7389  0.8378 -0.2996
13032TIP3    H160587   1.056   2.436  15.562 -0.0388 -1.0068  1.3297
13032TIP3    H260588   0.998   2.352  15.450 -1.1071 -0.6147  1.5799
13033TIP3   OH260589   1.961   1.752   3.754  0.2431  1.3993  0.0512
13033TIP3    H160590   1.911   1.794   3.824 -1.8010 -0.4214 -0.2178
13033TIP3    H260591   1.939   1.659   3.761  2.3434  0.7532 -1.1574
13034TIP3   OH260592   4.303   0.741   0.828 -0.1475  0.5806 -0.1188
13034TIP3    H160593   4.263   0.762   0.912  2.0788 -1.1625  1.5144
13034TIP3    H260594   4.233   0.698   0.778 -1.3359  1.0191  1.1132
13035TIP3   OH260595   3.855   4.160   2.382 -0.5065  0.3191  0.0434
13035TIP3    H160596   3.933   4.113   2.414 -0.1363 -0.7331 -2.2259
13035TIP3    H260597   3.871   4.252   2.406  1.6400  0.1884 -0.6799
13036TIP3   OH260598   6.238   0.630   4.454 -0.3675 -0.1860 -0.2174
13036TIP3    H160599   6.331   0.645   4.436 -0.1792 -0.5111  0.4732
13036TIP3    H260600   6.232   0.627   4.549 -0.9113 -1.3145 -0.2797
13037TIP3   OH260601   0.813   6.524  14.234 -0.3203 -0.2824  0.0796
13037TIP3    H160602   0.778   6.587  14.297 -2.3076 -0.2774 -0.9751
13037TIP3    H260603   0.775   6.440  14.260  0.9231 -0.7789  0.4054
13038TIP3   OH260604   2.737   3.028  16.936  0.1836  0.4171  0.7115
13038TIP3    H160605   2.789   3.089  16.883  0.6546 -0.4041  0.2068
13038TIP3    H260606   2.792   2.950  16.944 -1.0568 -0.5790 -0.0680
13039TIP3   OH260607   1.284   1.828  11.776  0.2198 -0.0924  0.2929
13039TIP3    H160608   1.314   1.909  11.735 -1.1460  0.3726  0.1488
13039TIP3    H260609   1.361   1.771  11.777  1.0297  0.9595 -0.2109
13040TIP3   OH260610   5.321   5.352   4.203 -0.2412 -0.3931  0.1113
13040TIP3    H160611   5.327   5.263   4.168  3.2470 -0.9386  1.7185
13040TIP3    H260612   5.383   5.354   4.275  0.3325  3.5516 -0.2628
13041TIP3   OH260613   4.636   1.989  16.445  0.0667 -0.4190  0.5445
13041TIP3    H160614   4.616   1.947  16.361  0.0725 -0.2124  0.4420
13041TIP3    H260615   4.587   2.071  16.443 -2.0380 -1.5567  1.8058
13042TIP3   OH260616   6.041   3.982  16.281 -0.3276 -0.3699 -0.6086
13042TIP3    H160617   5.958   3.970  16.327 -0.2150  2.8533  0.7188
13042TIP3    H260618   6.028   4.060  16.227  2.4272  1.7159  1.4693
13043TIP3   OH260619   0.545   1.504  13.162 -0.0286 -0.0879 -0.0031
13043TIP3    H160620   0.548   1.581  13.106 -0.1219  0.5585  0.8662
13043TIP3    H260621   0.485   1.527  13.233  0.5521 -0.6538  0.6992
13044TIP3   OH260622   6.105   4.856   3.127 -0.4235 -0.3332  0.2302
13044TIP3    H160623   6.047   4.820   3.194  0.4813 -1.5483  0.3913
13044TIP3    H260624   6.071   4.819   3.045 -0.9978  0.4521  0.1071
13045TIP3   OH260625   1.372   4.853   0.734  0.2706 -0.3588 -0.4325
13045TIP3    H160626   1.293   4.804   0.755  0.3136 -0.2482  0.0037
13045TIP3    H260627   1.423   4.794   0.678 -0.2809 -0.2875 -1.0103
13046TIP3   OH260628   5.350   2.152   1.815  0.5443 -0.0309 -0.3232
13046TIP3    H160629   5.295   2.200   1.754  1.3324 -0.6604 -1.5709
13046TIP3    H260630   5.345   2.201   1.897 -2.5890 -0.5566 -0.0961
13047TIP3   OH260631   2.075   0.329   3.074  0.0366 -0.1014  0.1516
13047TIP3    H160632   2.110   0.360   3.157  2.0922  1.4363 -1.1852
13047TIP3    H260633   1.983   0.353   3.076  0.2745  0.8406  1.5613
13048TIP3   OH260634   5.295   5.785  12.200 -0.6206  0.2994 -0.5034
13048TIP3    H160635   5.219   5.842  12.214  0.4705  1.4159  1.3578
13048TIP3    H260636   5.279   5.709  12.255  0.2844  1.3010  1.2574
13049TIP3   OH260637   5.979   6.091   1.765  0.0385  0.2950 -0.1845
13049TIP3    H160638   5.965   6.171   1.816  0.4982  0.1091  0.2432
13049TIP3    H260639   6.073   6.090   1.747  0.3285 -0.9105  1.1385
13050TIP3   OH260640   5.693   0.877   4.528  0.9864  0.0706 -0.4226
13050TIP3    H160641   5.619   0.861   4.469  0.7752  1.4022 -0.5476
13050TIP3    H260642   5.760   0.916   4.473  1.0175  0.7476  0.0772
13051TIP3   OH260643   3.158   2.051   2.169  0.9466 -0.0180  0.0233
13051TIP3    H160644   3.246   2.073   2.200  1.1102 -0.4527 -0.1182
13051TIP3    H260645   3.099   2.105   2.221  1.2342 -0.5322  0.9037
13052TIP3   OH260646   5.730   1.704   1.972  0.4690 -0.3661  0.1696
13052TIP3    H160647   5.683   1.641   1.916  1.7546 -0.5879 -0.7150
13052TIP3    H260648   5.674   1.782   1.973 -0.2572 -0.8674 -0.2616
13053TIP3   OH260649   3.309   1.149   2.848  0.5020 -0.7000 -0.1704
13053TIP3    H160650   3.296   1.121   2.938  2.4080  0.9721  0.7134
13053TIP3    H260651   3.226   1.191   2.824  0.9330  1.6890  2.0167
13054TIP3   OH260652   4.970   1.612   3.207  0.1509  0.4461 -0.5046
13054TIP3    H160653   5.048   1.666   3.223 -1.1183  1.3449  3.6851
13054TIP3    H260654   4.943   1.583   3.294 -1.4389 -3.9899 -2.2095
13055TIP3   OH260655   3.424   4.396  16.748 -0.6890 -0.6080 -0.0372
13055TIP3    H160656   3.516   4.400  16.776 -0.5627 -0.5006 -0.4471
13055TIP3    H260657   3.397   4.306  16.765 -0.9435 -0.2677  1.4121
13056TIP3   OH260658   3.734   0.993   2.134  0.2801 -0.0613  0.0876
13056TIP3    H160659   3.808   0.975   2.077 -1.1716 -2.4044 -1.2402
13056TIP3    H260660   3.688   1.066   2.092  0.1639 -0.6409 -0.8218
13057TIP3   OH260661   2.673   0.971  13.809  0.4506 -0.4381 -0.3123
13057TIP3    H160662   2.660   1.066  13.806  0.9953 -0.3799 -1.2070
13057TIP3    H260663   2.764   0.961  13.839  0.0094 -0.7112  0.9584
13058TIP3   OH260664   6.386   0.745  11.267 -0.0669  0.0408  0.0973
13058TIP3    H160665   6.386   0.652  11.291  0.8078 -0.0783 -0.3006
13058TIP3    H260666   6.295   0.771  11.272 -0.4226 -1.0209 -0.4273
13059TIP3   OH260667   3.514   6.088   6.405  0.0108  0.1233 -0.0477
13059TIP3    H160668   3.424   6.092   6.438 -0.5266 -2.9075 -0.8477
13059TIP3    H260669   3.525   6.169   6.356 -1.9806  0.9684  0.7869
13060TIP3   OH260670   1.081   4.203  16.774 -0.2417  0.3650 -0.5259
13060TIP3    H160671   1.173   4.198  16.749 -0.9025 -1.3813 -2.9533
13060TIP3    H260672   1.041   4.262  16.709 -1.2675 -0.9758 -1.1663
13061TIP3   OH260673   3.696   1.376   2.973 -0.3883  0.4966  0.0126
13061TIP3    H160674   3.763   1.337   2.917  1.0484  0.2517  1.7911
13061TIP3    H260675   3.712   1.470   2.968 -2.0001  0.7169 -2.0230
13062TIP3   OH260676   3.848   4.835   5.337  0.0369  0.0174 -0.5436
13062TIP3    H160677   3.842   4.799   5.425 -0.3996 -0.0248 -0.5867
13062TIP3    H260678   3.926   4.890   5.338 -0.2979  0.4841  0.0366
13063TIP3   OH260679   6.805   4.988   3.414  0.1150 -0.0882 -0.1874
13063TIP3    H160680   6.732   5.024   3.364  0.2166 -0.7767 -0.8491
13063TIP3    H260681   6.795   4.893   3.406  0.8491 -0.1942  0.0611
13064TIP3   OH260682   3.919   0.667   4.877 -0.3224 -0.7977 -0.0347
13064TIP3    H160683   3.903   0.618   4.958 -0.0331  1.9324  1.8036
13064TIP3    H260684   4.013   0.688   4.880 -0.7388  1.2377  0.1523
13065TIP3   OH260685   1.406   4.206   3.650  0.0609 -0.0792 -0.1022
13065TIP3    H160686   1.330   4.187   3.705 -1.1132 -0.0943 -1.6505
13065TIP3    H260687   1.409   4.302   3.645  1.4706  0.0081  1.6755
13066TIP3   OH260688   5.236   4.173   2.643  0.0444 -0.5295 -0.7857
13066TIP3    H160689   5.232   4.206   2.733  0.2565  2.2587 -1.6995
13066TIP3    H260690   5.311   4.113   2.643  1.6102  1.2669  0.4224
13067TIP3   OH260691   0.511   6.831  13.919 -0.1260  0.4433 -0.0865
13067TIP3    H160692   0.562   6.891  13.973  0.7937  1.2086 -1.7278
13067TIP3    H260693   0.451   6.887  13.870  0.5216  0.0279 -1.4076
13068TIP3   OH260694   3.273   2.302  15.519  0.2333 -0.7305 -0.2587
13068TIP3    H160695   3.197   2.333  15.568  0.4636 -0.4670 -0.0681
13068TIP3    H260696   3.330   2.379  15.512  1.2762 -1.3533  1.0920
13069TIP3   OH260697   2.916   2.553  14.950  0.3961  0.3209  0.1996
13069TIP3    H160698   2.870   2.563  15.033 -0.7897 -2.4517 -0.0269
13069TIP3    H260699   2.959   2.468  14.956 -0.2056 -0.2224 -2.2155
13070TIP3   OH260700   0.126   4.408  13.470 -0.0548  0.1579  0.3930
13070TIP3    H160701   0.106   4.350  13.397  0.0130  0.9361 -0.2596
13070TIP3    H260702   0.178   4.355  13.530  0.1057 -0.4148 -0.2471
13071TIP3   OH260703   3.438   4.952  17.107  0.4792  0.0423 -0.2633
13071TIP3    H160704   3.441   4.945  17.203 -0.7467 -2.1058 -0.3167
13071TIP3    H260705   3.351   4.921  17.083  0.4027  1.4489 -2.0603
13072TIP3   OH260706   2.642   0.053  15.695  0.1360  0.1988 -0.4718
13072TIP3    H160707   2.639   0.047  15.599 -0.9372 -0.4829 -0.4025
13072TIP3    H260708   2.552   0.069  15.721  0.5529  1.2518  0.3867
13073TIP3   OH260709   6.485   2.231  12.480 -0.2880 -0.2617 -0.0797
13073TIP3    H160710   6.522   2.315  12.507 -0.0429  0.0272 -1.2241
13073TIP3    H260711   6.416   2.214  12.544  0.3379  0.2980  0.7725
13074TIP3   OH260712   5.390   3.570  12.632  0.3078  0.0579  0.2498
13074TIP3    H160713   5.308   3.604  12.595 -0.0293 -2.0504 -1.0941
13074TIP3    H260714   5.369   3.553  12.724 -0.4174  0.5397  0.1883
13075TIP3   OH260715   2.698   0.308  15.803  0.3307 -0.2453  0.8616
13075TIP3    H160716   2.621   0.329  15.856 -0.5663  2.0259 -1.1015
13075TIP3    H260717   2.670   0.236  15.747 -0.8852  1.3165 -0.6515
13076TIP3   OH260718   5.702   5.322  12.623  0.0124  0.5261 -0.0267
13076TIP3    H160719   5.631   5.302  12.684  1.2508  1.1666  1.7202
13076TIP3    H260720   5.778   5.277  12.660  1.3733  2.9830  0.3395
13077TIP3   OH260721   5.855   4.854  10.744  0.3504 -0.1246 -0.3857
13077TIP3    H160722   5.780   4.903  10.711 -0.0860 -1.8215 -2.0695
13077TIP3    H260723   5.923   4.864  10.677  1.2818  0.4688  0.5965
13078TIP3   OH260724   1.840   2.101   3.830 -0.0014 -0.0442  0.3782
13078TIP3    H160725   1.909   2.138   3.775  1.2991 -0.6387  1.5355
13078TIP3    H260726   1.762   2.104   3.776  0.5058  2.3343 -0.3645
13079TIP3   OH260727   6.715   2.163  14.256  0.2925  0.4273  0.9440
13079TIP3    H160728   6.808   2.151  14.278  0.6330 -1.6810 -1.2370
13079TIP3    H260729   6.671   2.089  14.297 -0.1690  0.4893  0.5675
13080TIP3   OH260730   0.171   2.679   1.611  0.3014 -0.0636 -0.3258
13080TIP3    H160731   0.080   2.651   1.599  0.3506 -0.2298 -0.3133
13080TIP3    H260732   0.164   2.769   1.641  0.1628  0.1784 -1.0688
13081TIP3   OH260733   3.777   0.116  12.398  0.2118 -0.2353 -0.3101
13081TIP3    H160734   3.752   0.037  12.348 -1.7529  0.0276  0.1877
13081TIP3    H260735   3.746   0.189  12.344  0.9834  0.1793 -0.2081
13082TIP3   OH260736   4.079   0.353  11.903 -0.5297  0.1249  0.5397
13082TIP3    H160737   4.102   0.278  11.959 -1.2992  0.1202  0.8689
13082TIP3    H260738   4.139   0.422  11.930 -0.1621 -0.2123  0.6029
13083TIP3   OH260739   3.355   3.089   4.076  0.4887 -0.4622 -0.0815
13083TIP3    H160740   3.330   2.997   4.083 -3.7833  0.6326  2.5155
13083TIP3    H260741   3.419   3.102   4.146  1.7280 -1.5271 -0.9731
13084TIP3   OH260742   4.688   0.353   4.614 -0.0459  0.1902 -0.5299
13084TIP3    H160743   4.691   0.447   4.598  2.0918  0.0698 -1.1469
13084TIP3    H260744   4.725   0.342   4.702 -0.6750 -0.0553 -0.2888
13085TIP3   OH260745   6.354   0.433   3.885  0.6231 -0.2728  0.1744
13085TIP3    H160746   6.378   0.524   3.900  0.7976 -0.3970  0.6808
13085TIP3    H260747   6.412   0.383   3.943  2.3200 -0.8926 -1.9517
13086TIP3   OH260748   3.442   2.618   6.156  0.4845  0.1536  0.2970
13086TIP3    H160749   3.352   2.615   6.188  0.1200  1.4179 -0.5401
13086TIP3    H260750   3.495   2.587   6.230 -0.5999 -0.3672  0.8791
13087TIP3   OH260751   4.891   2.626   1.358 -0.3406  0.1096  0.3066
13087TIP3    H160752   4.876   2.538   1.392 -1.2162 -1.2839 -3.2312
13087TIP3    H260753   4.962   2.616   1.295 -0.3633  1.9757 -0.0869
13088TIP3   OH260754   1.183   0.852   5.923 -0.4326 -0.5257  0.0430
13088TIP3    H160755   1.127   0.817   5.992 -0.6374 -1.7513 -0.7188
13088TIP3    H260756   1.272   0.834   5.952 -0.4794 -0.0364  0.4974
13089TIP3   OH260757   3.021   6.082  11.211  0.0128  0.1165 -0.2417
13089TIP3    H160758   3.004   6.175  11.226  1.4290  0.3868 -0.1815
13089TIP3    H260759   2.937   6.047  11.179 -0.7608  1.2303  0.5016
13090TIP3   OH260760   1.314   3.865   4.946  0.0429 -0.6794 -0.0219
13090TIP3    H160761   1.251   3.837   5.012 -1.1353  1.1760 -0.2864
13090TIP3    H260762   1.286   3.953   4.922  2.3822 -0.0344 -0.6396
13091TIP3   OH260763   0.565   4.339  10.501  0.1650 -0.0296 -0.3654
13091TIP3    H160764   0.657   4.359  10.518 -0.1713  0.7825  0.6171
13091TIP3    H260765   0.563   4.317  10.408  1.7392 -2.5291  0.1024
13092TIP3   OH260766   2.030   6.183  14.862 -0.8434  0.0483  0.6160
13092TIP3    H160767   2.006   6.264  14.817 -0.8121 -0.7223 -0.8789
13092TIP3    H260768   1.947   6.145  14.890 -0.8155  0.8766  1.8612
13093TIP3   OH260769   4.489   1.925  11.281  0.9263 -0.4602 -0.0314
13093TIP3    H160770   4.423   1.886  11.339 -0.0231  1.2645  0.1237
13093TIP3    H260771   4.572   1.912  11.326  0.4486 -0.9478  0.7251
13094TIP3   OH260772   5.154   5.991  15.772  0.0038  0.3835 -0.1387
13094TIP3    H160773   5.073   6.031  15.805 -1.0779 -0.4385 -1.6647
13094TIP3    H260774   5.213   5.992  15.847 -1.0459  1.9746  0.7327
13095TIP3   OH260775   2.359   5.639   2.744  0.1116 -0.3392 -0.4353
13095TIP3    H160776   2.419   5.702   2.784 -0.7071  0.7795 -0.8962
13095TIP3    H260777   2.383   5.638   2.651  0.1682 -0.7743 -0.4192
13096TIP3   OH260778   0.598   2.550  16.744 -0.4031 -0.0290 -0.2957
13096TIP3    H160779   0.616   2.571  16.652 -0.6107 -1.1856 -0.6195
13096TIP3    H260780   0.502   2.544  16.748 -0.3955  0.0539  0.0082
13097TIP3   OH260781   5.997   0.562  16.057  1.2099 -0.2131 -0.1304
13097TIP3    H160782   5.917   0.552  16.006  0.0349  2.2801  1.0458
13097TIP3    H260783   6.059   0.604  15.996  0.8328 -0.0215 -0.3865
13098TIP3   OH260784   0.986   1.816   1.091 -0.4636 -0.1242  0.0035
13098TIP3    H160785   1.027   1.819   1.005  0.9348  0.3770  0.6523
13098TIP3    H260786   1.029   1.743   1.136 -1.4116 -0.5863  0.1681
13099TIP3   OH260787   5.740   3.245  13.774 -0.1087  1.2431 -0.2210
13099TIP3    H160788   5.772   3.306  13.840 -1.3537  1.6539  0.0226
13099TIP3    H260789   5.702   3.173  13.823  1.3384  0.2290 -0.5097
13100TIP3   OH260790   5.730   3.646   3.991  0.1012 -0.5726  0.1322
13100TIP3    H160791   5.675   3.640   3.913  0.0414 -1.2333  0.2111
13100TIP3    H260792   5.759   3.556   4.005  0.8044 -0.3073  0.3788
13101TIP3   OH260793   2.024   3.935  11.337 -0.3417 -0.2305 -0.2654
13101TIP3    H160794   1.980   4.019  11.328 -1.8609 -0.7993  1.2749
13101TIP3    H260795   2.117   3.954  11.324 -0.6513  1.6933  0.1148
13102TIP3   OH260796   4.410   2.256   4.079  0.3098 -0.2575  0.0281
13102TIP3    H160797   4.419   2.347   4.054  1.5567 -0.2480  0.4669
13102TIP3    H260798   4.439   2.253   4.170  0.6764 -1.1586 -0.1069
13103TIP3   OH260799   4.769   4.206  16.659  0.3209 -0.4297  0.1351
13103TIP3    H160800   4.822   4.265  16.712 -0.0609  0.1726 -0.1371
13103TIP3    H260801   4.781   4.120  16.700 -0.5597  0.1306  1.6789
13104TIP3   OH260802   1.889   4.054  12.576 -0.2654  0.5635 -0.0919
13104TIP3    H160803   1.927   4.077  12.491  1.1563 -1.7201 -0.1482
13104TIP3    H260804   1.803   4.018  12.555  0.0853 -0.0051 -0.5765
13105TIP3   OH260805   2.654   5.208   3.355 -0.1267  0.0804  0.0412
13105TIP3    H160806   2.638   5.153   3.279 -0.2990 -0.3523  0.3836
13105TIP3    H260807   2.593   5.281   3.346 -0.4978 -0.2305  0.0189
13106TIP3   OH260808   0.053   4.268  11.166 -0.1972  0.7174 -0.2722
13106TIP3    H160809  -0.026   4.269  11.111 -0.3096  0.8021 -0.1107
13106TIP3    H260810   0.099   4.188  11.140 -0.7405  0.2459  0.1961
13107TIP3   OH260811   6.827   6.106  12.284 -0.4085 -0.0677 -0.3515
13107TIP3    H160812   6.784   6.105  12.370 -1.1780  0.5223 -0.7075
13107TIP3    H260813   6.917   6.131  12.303  0.1246 -2.4280  0.5369
13108TIP3   OH260814   2.748   1.379  16.059 -0.0302 -0.5709  0.3130
13108TIP3    H160815   2.748   1.402  15.966 -0.0223  1.6108  0.7837
13108TIP3    H260816   2.714   1.290  16.062  1.1786 -1.1754 -1.8624
13109TIP3   OH260817   0.521   1.264  13.459 -0.4711 -0.2797  0.0418
13109TIP3    H160818   0.556   1.179  13.434 -2.1912 -0.5936 -1.5629
13109TIP3    H260819   0.435   1.268  13.415 -1.7796  1.0134  2.5030
13110TIP3   OH260820   3.759   2.595   5.183  0.0848  0.2202 -0.7354
13110TIP3    H160821   3.681   2.647   5.207  0.6453  0.4962  0.6078
13110TIP3    H260822   3.728   2.504   5.187 -0.4545  0.3716 -1.3336
13111TIP3   OH260823   3.913   4.201  10.978 -0.6992  0.6541  0.1820
13111TIP3    H160824   3.892   4.275  11.034 -0.1337  1.3408 -0.4875
13111TIP3    H260825   3.874   4.125  11.022  0.0755  1.1067  1.7125
13112TIP3   OH260826   0.094   5.348   4.854  0.9156  0.4579  0.1172
13112TIP3    H160827   0.108   5.376   4.764 -0.1880  1.0795  0.1240
13112TIP3    H260828   0.017   5.397   4.883  0.5515 -0.6008  1.0172
13113TIP3   OH260829   6.635   1.635  13.874  0.0839 -0.0980 -0.2308
13113TIP3    H160830   6.580   1.696  13.923  0.5195  0.6048 -0.5832
13113TIP3    H260831   6.583   1.556  13.864  0.0136 -0.2740  1.4085
13114TIP3   OH260832   5.718   1.570  12.410 -0.6059  0.2759 -0.3921
13114TIP3    H160833   5.623   1.570  12.397 -0.3713  1.1553 -2.5939
13114TIP3    H260834   5.738   1.484  12.447 -2.0673 -0.6509 -1.6378
13115TIP3   OH260835   0.132   1.662   3.311  0.1856  0.4342 -0.2702
13115TIP3    H160836   0.227   1.660   3.294  0.3021 -0.2769  0.4078
13115TIP3    H260837   0.094   1.619   3.235  0.4750 -0.0217 -0.1645
13116TIP3   OH260838   5.541   2.861  11.692  0.8159  0.0458 -0.0630
13116TIP3    H160839   5.483   2.786  11.677 -0.3084  0.9583 -0.3610
13116TIP3    H260840   5.602   2.859  11.619 -0.9316  0.9954 -1.6173
13117TIP3   OH260841   1.673   5.151  10.726  0.0154  0.5925  0.4518
13117TIP3    H160842   1.637   5.239  10.715 -0.5577  0.5592  1.7999
13117TIP3    H260843   1.767   5.161  10.710 -0.2543  1.1248 -0.9118
13118TIP3   OH260844   3.064   4.553   1.418  0.2907 -0.3767  0.2073
13118TIP3    H160845   3.135   4.514   1.368 -0.9568  0.9247 -2.8579
13118TIP3    H260846   2.985   4.515   1.380 -0.7426  1.1650  0.7238
13119TIP3   OH260847   5.592   1.746   0.341  0.6284 -0.1400 -0.0922
13119TIP3    H160848   5.650   1.821   0.349  0.4850 -0.1072  0.8139
13119TIP3    H260849   5.519   1.777   0.288 -0.5077  1.0809  2.0590
13120TIP3   OH260850   3.976   1.499  15.588 -0.4911  0.5586 -0.3660
13120TIP3    H160851   3.934   1.513  15.673 -0.6530 -1.1387 -0.1147
13120TIP3    H260852   3.911   1.449  15.538  0.6194 -0.8441 -0.4857
13121TIP3   OH260853   0.547   6.295   0.343  0.3725  0.1648  0.7671
13121TIP3    H160854   0.464   6.316   0.302  0.6790  1.7786  0.9014
13121TIP3    H260855   0.600   6.374   0.333  2.4639 -1.2990 -0.6631
13122TIP3   OH260856   2.641   4.188  11.638 -0.4500 -0.6957  0.1075
13122TIP3    H160857   2.727   4.197  11.596 -0.3828  0.4871  0.4444
13122TIP3    H260858   2.652   4.116  11.700  0.5194 -0.1155  0.6382
13123TIP3   OH260859   3.707   1.424  10.254  0.2311 -0.3241 -0.2030
13123TIP3    H160860   3.630   1.378  10.289  0.0543  1.0098  1.2869
13123TIP3    H260861   3.710   1.506  10.303  0.2561  1.5213 -3.0736
13124TIP3   OH260862   0.438   5.348  11.439  0.8554 -0.6334 -0.0049
13124TIP3    H160863   0.459   5.266  11.394 -0.3586 -1.0610  0.1634
13124TIP3    H260864   0.357   5.378  11.398  0.2045 -0.5788  1.2592
13125TIP3   OH260865   1.273   3.614   0.784  0.0703  0.2263  0.1981
13125TIP3    H160866   1.335   3.571   0.842  0.5309  0.7246  0.0822
13125TIP3    H260867   1.188   3.601   0.826  0.0391 -1.6918 -0.3498
13126TIP3   OH260868   6.358   1.850   4.141 -0.1841 -0.0817  0.6445
13126TIP3    H160869   6.422   1.787   4.108 -0.4164  0.6308 -1.2882
13126TIP3    H260870   6.407   1.904   4.204  0.2642 -1.5125  1.5666
13127TIP3   OH260871   6.172   4.618   5.594 -0.2796  0.2489  0.3994
13127TIP3    H160872   6.092   4.628   5.644  0.7246 -3.0290  2.9483
13127TIP3    H260873   6.241   4.654   5.650  0.7253 -2.4145  0.9975
13128TIP3   OH260874   4.417   1.920   2.406 -0.2331 -0.3945 -0.3860
13128TIP3    H160875   4.402   2.011   2.432  1.7575 -0.4499  1.1338
13128TIP3    H260876   4.329   1.881   2.404 -0.9882  1.1767  0.4012
13129TIP3   OH260877   2.669   2.849   2.683  0.0897 -0.2593  0.0226
13129TIP3    H160878   2.609   2.913   2.721  0.1797 -0.5568  0.6652
13129TIP3    H260879   2.626   2.823   2.601  0.8165  1.8177 -1.0938
13130TIP3   OH260880   2.466   0.070   3.174  0.2999 -0.2048 -0.3441
13130TIP3    H160881   2.467   0.063   3.270 -1.3783  1.8614 -0.1016
13130TIP3    H260882   2.374   0.084   3.152  0.5661 -1.2309 -2.3525
13131TIP3   OH260883   2.695   4.885  11.827 -0.2762 -0.2121 -0.3479
13131TIP3    H160884   2.687   4.912  11.736 -1.5474 -2.0213 -0.8411
13131TIP3    H260885   2.784   4.910  11.853 -0.3801  1.5979 -1.6146
13132TIP3   OH260886   0.695   3.365  12.325  0.2858 -0.2288  0.2144
13132TIP3    H160887   0.758   3.347  12.396 -1.8740  0.0943  2.3505
13132TIP3    H260888   0.661   3.279  12.302 -0.2755 -0.1890  0.8543
13133TIP3   OH260889   3.312   2.984   3.622 -0.2656 -1.1209  0.1575
13133TIP3    H160890   3.272   2.919   3.680  0.3368 -1.0816  0.6310
13133TIP3    H260891   3.260   2.980   3.542  0.2862 -2.8492 -0.1723
13134TIP3   OH260892   6.429   4.494  14.319  0.0407  0.4819  0.1781
13134TIP3    H160893   6.471   4.448  14.391 -0.9438 -0.8488 -0.0684
13134TIP3    H260894   6.422   4.585  14.349 -1.7991 -0.3162  2.4683
13135TIP3   OH260895   3.294   2.008  16.818 -0.3191  0.0657 -0.0478
13135TIP3    H160896   3.265   2.099  16.825 -1.9454 -0.3035 -1.2650
13135TIP3    H260897   3.373   2.012  16.765 -0.1109  0.8207  0.3127
13136TIP3   OH260898   0.040   2.440  14.406  0.2737  0.3269 -0.4090
13136TIP3    H160899   0.050   2.353  14.369 -1.7179 -0.2272  0.2616
13136TIP3    H260900  -0.045   2.471  14.373  0.7442  1.8456 -0.2823
13137TIP3   OH260901   2.232   0.931  13.247 -0.5661 -0.0834  0.3286
13137TIP3    H160902   2.139   0.910  13.241 -0.9559  1.4383  0.5587
13137TIP3    H260903   2.237   1.022  13.216  0.6432  0.3106  1.6118
13138TIP3   OH260904   4.301   3.959   0.964  0.2063  0.0086 -0.0452
13138TIP3    H160905   4.321   3.883   1.018  2.1510  1.3656  1.2988
13138TIP3    H260906   4.337   3.939   0.878 -0.0728 -0.9074  0.0476
13139TIP3   OH260907   3.144   0.865   4.473 -0.7992 -0.0993 -0.3174
13139TIP3    H160908   3.145   0.871   4.378 -0.4191  1.4829 -0.2357
13139TIP3    H260909   3.230   0.828   4.495  0.2181  2.0100 -0.4973
13140TIP3   OH260910   1.215   0.658   4.316 -1.0944  0.0849 -0.5128
13140TIP3    H160911   1.194   0.628   4.228 -0.6572 -0.1329 -0.5447
13140TIP3    H260912   1.307   0.686   4.311 -0.1616 -2.5035  0.5196
13141TIP3   OH260913   0.247   4.078   4.648 -0.2470 -0.5830  0.8942
13141TIP3    H160914   0.312   4.131   4.602 -1.5729 -1.4563 -2.2362
13141TIP3    H260915   0.298   4.009   4.691  1.1658  1.0136  1.9010
13142TIP3   OH260916   2.914   1.738   5.303  0.9307 -0.0690 -0.0177
13142TIP3    H160917   2.934   1.803   5.371 -1.1263  0.5310  0.0903
13142TIP3    H260918   2.994   1.731   5.253  2.5341 -0.5314  2.4479
13143TIP3   OH260919   4.637   4.751  15.406 -0.1643 -0.1083  0.3690
13143TIP3    H160920   4.618   4.809  15.480  0.5914 -0.1965  0.6449
13143TIP3    H260921   4.630   4.807  15.329 -1.3895 -0.1135  0.4575
13144TIP3   OH260922   5.155   1.205  14.143  0.4487 -0.0985  0.1465
13144TIP3    H160923   5.221   1.160  14.089  1.1026 -0.0456  0.8811
13144TIP3    H260924   5.108   1.134  14.187 -0.5186 -0.1705 -0.9643
13145TIP3   OH260925   1.611   0.492  15.984 -0.1000  0.4711 -0.3093
13145TIP3    H160926   1.594   0.398  15.994 -0.9632  0.6644  0.1611
13145TIP3    H260927   1.689   0.508  16.037  0.6752 -0.1514 -1.2179
13146TIP3   OH260928   5.144   4.473   1.897  0.1099 -0.8196  0.1208
13146TIP3    H160929   5.217   4.428   1.941  0.5004 -1.8313 -1.4708
13146TIP3    H260930   5.182   4.556   1.868  0.9849 -1.7852 -1.6237
13147TIP3   OH260931   3.039   3.899  12.842 -0.2436  0.2579  0.3866
13147TIP3    H160932   3.070   3.952  12.768  0.0465  1.2415  1.1863
13147TIP3    H260933   3.073   3.944  12.920 -0.0569 -1.0752  1.1081
13148TIP3   OH260934   0.001   5.005   6.306 -0.2089 -0.3601  0.0025
13148TIP3    H160935   0.009   5.099   6.289  0.5361 -1.0458 -4.6606
13148TIP3    H260936  -0.058   4.974   6.238  1.3103 -3.5966  0.0041
13149TIP3   OH260937   0.849   1.823  15.135  0.3110 -0.4823 -0.1579
13149TIP3    H160938   0.809   1.740  15.110  1.4776 -0.7058 -1.4074
13149TIP3    H260939   0.778   1.887  15.131 -0.1860 -1.0770 -1.0957
13150TIP3   OH260940   1.386   4.461   5.424  0.0813 -0.2169  0.1504
13150TIP3    H160941   1.320   4.527   5.404  0.0219 -0.1563  0.5390
13150TIP3    H260942   1.378   4.397   5.353  1.4093  1.1260 -1.2813
13151TIP3   OH260943   6.790   0.133   2.441  0.1699 -0.2391  0.4721
13151TIP3    H160944   6.717   0.147   2.502  0.4606  1.2057  0.5273
13151TIP3    H260945   6.868   0.138   2.496  0.3740 -0.3617  0.1955
13152TIP3   OH260946   3.187   6.327  12.663 -0.4074  0.4278 -0.0937
13152TIP3    H160947   3.225   6.352  12.578  1.7176  0.4561  0.8169
13152TIP3    H260948   3.114   6.388  12.675  0.8773  2.1616 -0.7377
13153TIP3   OH260949   1.949   1.042   4.291 -0.6497 -0.3874  0.4462
13153TIP3    H160950   2.023   1.103   4.286 -0.7712 -0.2254  0.6191
13153TIP3    H260951   1.888   1.072   4.224 -0.1251 -1.1069 -0.3688
13154TIP3   OH260952   0.648   6.141  16.787  0.0985 -0.2753  0.0325
13154TIP3    H160953   0.574   6.196  16.761 -2.5266 -3.3244  0.3755
13154TIP3    H260954   0.644   6.139  16.883  0.3094 -0.8511  0.0320
13155TIP3   OH260955   5.414   0.964  12.947 -0.2839 -0.1642 -0.0373
13155TIP3    H160956   5.446   1.054  12.947 -0.9876  0.1160 -1.4482
13155TIP3    H260957   5.463   0.920  13.016  2.4942  0.4426 -1.5018
13156TIP3   OH260958   1.164   3.049   0.146 -0.7290  0.3967 -0.5310
13156TIP3    H160959   1.182   2.961   0.114 -1.3105  0.1269 -0.1239
13156TIP3    H260960   1.069   3.058   0.141 -0.7432  0.7171  0.1577
13157TIP3   OH260961   6.484   4.049  16.974 -0.4601  0.4773  0.2254
13157TIP3    H160962   6.512   3.988  17.042  0.6298 -1.3107 -1.7056
13157TIP3    H260963   6.544   4.124  16.982  1.4731 -0.9114 -0.4068
13158TIP3   OH260964   2.356   1.571  13.876 -0.0886 -0.3820  0.3982
13158TIP3    H160965   2.353   1.665  13.894 -0.8659  0.1822 -2.2271
13158TIP3    H260966   2.272   1.537  13.907 -0.2024 -0.0172  0.4880
13159TIP3   OH260967   0.350   2.188  14.496 -0.4341 -0.0330 -0.9100
13159TIP3    H160968   0.368   2.149  14.582 -5.1187 -0.8035 -0.0216
13159TIP3    H260969   0.354   2.282  14.511  0.8516 -0.1329 -0.4580
13160TIP3   OH260970   3.842   3.148   3.004  0.3043 -0.3844  0.1241
13160TIP3    H160971   3.779   3.192   2.946  1.6847  1.2762 -0.2255
13160TIP3    H260972   3.923   3.145   2.953  0.8639 -1.3005  1.0258
13161TIP3   OH260973   2.972   3.960   5.147  0.1082  0.5577  0.8293
13161TIP3    H160974   3.046   4.014   5.121 -0.0714  0.8074  0.8294
13161TIP3    H260975   3.000   3.918   5.228  1.3909 -1.6880 -0.6734
13162TIP3   OH260976   2.319   6.167  15.699 -0.3364 -0.2977  0.1413
13162TIP3    H160977   2.268   6.087  15.708 -0.3765 -0.1879  0.9333
13162TIP3    H260978   2.280   6.211  15.623 -0.7945 -0.6683  0.1523
13163TIP3   OH260979   5.500   5.501  15.399 -0.2702 -0.0812  0.7243
13163TIP3    H160980   5.452   5.419  15.414 -0.9673 -0.3061 -2.0382
13163TIP3    H260981   5.436   5.569  15.420 -0.5225 -0.3178  0.7413
13164TIP3   OH260982   4.572   5.301   0.451 -0.2011 -0.1770 -0.1888
13164TIP3    H160983   4.506   5.322   0.385  1.2827  3.2253 -0.8349
13164TIP3    H260984   4.542   5.345   0.530 -0.1281 -1.0774  0.3485
13165TIP3   OH260985   3.857   6.694   4.250  0.1135  0.2612  0.1711
13165TIP3    H160986   3.821   6.658   4.332 -2.4216  2.4894  0.1507
13165TIP3    H260987   3.934   6.744   4.278 -0.3302  0.4440  1.1200
13166TIP3   OH260988   0.540   2.694  11.593 -0.3147  0.4310 -0.3201
13166TIP3    H160989   0.452   2.684  11.558 -1.1810 -1.1450  2.0024
13166TIP3    H260990   0.539   2.778  11.638 -0.4038  0.7158 -0.8459
13167TIP3   OH260991   4.534   0.457   2.185 -0.6553 -0.7787  0.3328
13167TIP3    H160992   4.472   0.453   2.258 -0.4879 -0.5391  0.4887
13167TIP3    H260993   4.479   0.463   2.107 -0.8359  1.2100  0.5607
13168TIP3   OH260994   4.896   2.624   3.284  0.5188 -0.7641 -0.0823
13168TIP3    H160995   4.930   2.712   3.270  0.9440 -0.9205 -0.0382
13168TIP3    H260996   4.974   2.568   3.291  0.2782 -1.0079  0.8029
13169TIP3   OH260997   1.909   3.517   1.746  0.3217  0.0453  0.3278
13169TIP3    H160998   1.897   3.468   1.827 -0.0666  0.2743  0.4111
13169TIP3    H260999   1.998   3.495   1.718  0.4740 -0.0048  0.8356
13170TIP3   OH261000   0.052   1.521   3.083  0.1497 -0.1558  0.3749
13170TIP3    H161001   0.055   1.461   3.007  2.2884 -1.5727  1.4604
13170TIP3    H261002  -0.041   1.532   3.101 -0.3954 -0.5503 -1.8556
13171TIP3   OH261003   5.325   6.485  15.620 -0.4603  0.2699 -1.0315
13171TIP3    H161004   5.265   6.434  15.674  0.9808  0.1856  0.5995
13171TIP3    H261005   5.349   6.426  15.548 -0.0312 -0.8030 -0.0446
13172TIP3   OH261006   3.318   6.623  14.284  0.5721 -0.0385 -0.0049
13172TIP3    H161007   3.402   6.623  14.329  0.2632 -1.6274  0.6354
13172TIP3    H261008   3.333   6.576  14.203  0.8006  1.6455 -0.9912
13173TIP3   OH261009   1.065   5.504   3.313 -0.6325 -0.1636  0.0945
13173TIP3    H161010   1.099   5.420   3.280 -1.5856 -0.4687 -0.1439
13173TIP3    H261011   1.044   5.554   3.234  0.5047  0.5616  0.2266
13174TIP3   OH261012   6.109   0.203  12.236 -0.3153  0.2891 -0.7122
13174TIP3    H161013   6.146   0.242  12.157 -0.4505  0.9190 -0.4715
13174TIP3    H261014   6.043   0.265  12.265  0.1391  0.3627  0.2206
13175TIP3   OH261015   4.013   4.735  11.391  0.0693  0.2077 -0.7863
13175TIP3    H161016   3.991   4.648  11.425  0.7839  1.6810  4.3172
13175TIP3    H261017   3.944   4.792  11.424  1.7167  2.1235 -0.4854
13176TIP3   OH261018   6.030   5.536  12.641  0.4228 -0.0574 -0.1571
13176TIP3    H161019   6.009   5.451  12.680  1.5378  0.1732  0.9882
13176TIP3    H261020   6.125   5.540  12.640  0.4007  0.7656 -1.1704
13177TIP3   OH261021   2.083   4.926   2.546 -0.0949  0.1510  0.4118
13177TIP3    H161022   2.130   4.951   2.626 -0.4823  0.0587  0.6687
13177TIP3    H261023   2.014   4.992   2.538  0.2818  0.4809 -0.1487
13178TIP3   OH261024   0.788   1.246   0.851 -0.2047  0.2251 -0.5936
13178TIP3    H161025   0.769   1.202   0.934  0.0852  1.1035 -0.0542
13178TIP3    H261026   0.882   1.260   0.852  0.0475 -1.1885 -1.8052
13179TIP3   OH261027   3.483   0.565  11.782  0.2532  0.5636  0.1054
13179TIP3    H161028   3.433   0.642  11.754 -1.4374 -0.3223  0.5437
13179TIP3    H261029   3.473   0.563  11.877 -1.5372 -1.3144 -0.0579
13180TIP3   OH261030   4.542   5.087   3.536 -0.1576  0.0972 -1.1825
13180TIP3    H161031   4.569   5.073   3.627 -0.9477 -0.2948 -1.0023
13180TIP3    H261032   4.532   4.999   3.500 -2.0750  0.1807 -0.9687
13181TIP3   OH261033   5.680   1.393   6.122  0.3080 -0.1319 -0.1507
13181TIP3    H161034   5.643   1.481   6.112  0.2221  0.0394  1.4169
13181TIP3    H261035   5.680   1.377   6.216  0.8183 -1.6132 -0.3669
13182TIP3   OH261036   6.013   5.086  14.280 -0.2902  0.2408 -0.3712
13182TIP3    H161037   6.008   5.035  14.361 -1.3830  0.1546 -0.4808
13182TIP3    H261038   6.025   5.176  14.308  0.2427  0.1028 -0.1423
13183TIP3   OH261039   2.488   0.551   4.144 -0.2030 -0.5001 -0.3351
13183TIP3    H161040   2.529   0.614   4.203  0.1765 -1.6996  0.7397
13183TIP3    H261041   2.395   0.576   4.142 -0.3507 -0.7625  1.2855
13184TIP3   OH261042   2.994   1.732  12.206 -0.2610 -0.0519  0.1191
13184TIP3    H161043   3.085   1.736  12.176  0.1989  0.2197  1.4545
13184TIP3    H261044   3.000   1.695  12.295 -1.5922 -1.3745 -0.2935
13185TIP3   OH261045   3.421   2.996  16.541  0.3946  0.1107  0.5987
13185TIP3    H161046   3.347   2.991  16.480  0.5253  0.4589  0.4079
13185TIP3    H261047   3.434   2.906  16.570  0.0816  0.0019  0.4059
13186TIP3   OH261048   4.939   6.598   5.470 -0.1111 -0.5774  0.6667
13186TIP3    H161049   4.868   6.605   5.535 -0.0877  0.4116  0.5911
13186TIP3    H261050   4.958   6.688   5.445  0.5238 -0.8969 -0.0319
13187TIP3   OH261051   3.072   5.831  11.985  0.2330  0.1652  0.1057
13187TIP3    H161052   2.992   5.804  12.028 -0.0571 -3.1260 -2.0876
13187TIP3    H261053   3.044   5.870  11.902  0.8755  0.5112  0.0372
13188TIP3   OH261054   2.273   3.120  13.208 -0.2397 -0.1056  0.3465
13188TIP3    H161055   2.283   3.215  13.214 -0.2040  0.0616 -1.6435
13188TIP3    H261056   2.345   3.085  13.261  0.9506  1.0088 -0.4760
13189TIP3   OH261057   4.914   6.267  15.045 -0.1083  0.0673  0.0295
13189TIP3    H161058   4.868   6.325  15.106  1.0673  0.4064  0.6487
13189TIP3    H261059   4.886   6.179  15.069  1.8935 -0.0151  2.5894
13190TIP3   OH261060   3.426   5.129  14.219 -0.1719 -0.2911  0.0389
13190TIP3    H161061   3.494   5.095  14.161 -2.2762  0.8885 -3.4424
13190TIP3    H261062   3.363   5.057  14.227  0.4547 -0.7016  1.5823
13191TIP3   OH261063   3.000   5.266  14.843  0.4461 -0.1440 -0.0576
13191TIP3    H161064   2.987   5.303  14.756  0.5841  0.0571  0.0066
13191TIP3    H261065   3.085   5.222  14.837  0.0107 -0.9605 -0.3070
13192TIP3   OH261066   1.327   6.216  13.292 -0.0665 -0.3882 -0.3252
13192TIP3    H161067   1.291   6.305  13.293  0.1080 -0.3188 -0.2172
13192TIP3    H261068   1.251   6.160  13.304 -0.1904 -0.2569 -0.4936
13193TIP3   OH261069   1.858   1.638  13.889 -0.0936  0.0989 -0.1801
13193TIP3    H161070   1.831   1.717  13.937  1.1506  0.3321  0.1740
13193TIP3    H261071   1.948   1.622  13.918  0.2940 -0.4265 -1.5832
13194TIP3   OH261072   6.152   5.633  10.923 -0.1396  0.2622 -0.3683
13194TIP3    H161073   6.188   5.648  11.010 -1.5440  0.1861  0.2470
13194TIP3    H261074   6.138   5.721  10.887  0.6700  0.2930 -0.6387
13195TIP3   OH261075   5.171   6.079   1.251  0.2454  0.1666 -0.3997
13195TIP3    H161076   5.159   6.018   1.179 -0.5148 -1.1047  0.7423
13195TIP3    H261077   5.263   6.068   1.278  0.0876 -0.5633 -0.1440
13196TIP3   OH261078   2.267   1.301   0.803  0.4032  0.4836 -0.0599
13196TIP3    H161079   2.235   1.382   0.842 -1.6156  0.2955 -1.2020
13196TIP3    H261080   2.353   1.325   0.767  0.7650  1.5318  1.3958
13197TIP3   OH261081   3.836   1.600   5.553 -0.2910 -0.0763  0.1882
13197TIP3    H161082   3.801   1.514   5.575  2.3663 -1.0523  0.9783
13197TIP3    H261083   3.844   1.645   5.637  2.7754 -0.9747  0.5388
13198TIP3   OH261084   0.737   0.027  13.196 -0.0110 -0.3412  0.0838
13198TIP3    H161085   0.661   0.019  13.138 -0.7657 -0.7787  1.0992
13198TIP3    H261086   0.716  -0.029  13.271  1.7557 -1.2401 -0.0552
13199TIP3   OH261087   6.247   5.526   2.093 -0.1015  0.1010 -0.3039
13199TIP3    H161088   6.318   5.534   2.030  0.6400 -0.7642  0.3947
13199TIP3    H261089   6.280   5.569   2.173 -0.9744  1.0680 -0.4329
13200TIP3   OH261090   0.506   0.703  12.636 -0.5045  0.1447 -0.5194
13200TIP3    H161091   0.474   0.651  12.709  2.3598 -0.4653  0.4354
13200TIP3    H261092   0.498   0.645  12.560  1.6677 -1.4552  0.3520
13201TIP3   OH261093   3.591   5.926  16.139 -0.5159 -0.0070  0.7617
13201TIP3    H161094   3.589   5.965  16.051 -1.5731  0.9179  1.1714
13201TIP3    H261095   3.506   5.884  16.149  0.2816 -1.7654  0.6649
13202TIP3   OH261096   3.592   0.723   2.530  0.2792 -0.1937 -0.1120
13202TIP3    H161097   3.609   0.649   2.471  2.1576  0.6304 -0.6678
13202TIP3    H261098   3.527   0.689   2.592 -0.1908 -1.7582 -1.3628
13203TIP3   OH261099   4.189   1.695   0.302 -0.6800  0.5147 -0.3886
13203TIP3    H161100   4.144   1.647   0.372 -0.7140 -0.6184 -1.1588
13203TIP3    H261101   4.150   1.782   0.304 -1.6789  0.0755  0.0959
13204TIP3   OH261102   6.687   6.261   5.463 -0.3991 -0.0103  0.6104
13204TIP3    H161103   6.601   6.234   5.497 -1.4025  1.4764 -0.6630
13204TIP3    H261104   6.682   6.356   5.458  0.2630 -0.0471 -2.1502
13205TIP3   OH261105   6.471   3.784   5.293  0.1525  0.2513  0.0795
13205TIP3    H161106   6.455   3.743   5.379 -0.0292  2.1098  0.9936
13205TIP3    H261107   6.388   3.771   5.246  0.2886 -0.8852  0.1140
13206TIP3   OH261108   5.977   4.944   1.527 -0.0421 -0.6460  0.2509
13206TIP3    H161109   6.021   4.906   1.603  0.9492 -0.8345 -0.3995
13206TIP3    H261110   5.992   5.038   1.535  0.5172 -0.7133  0.0121
13207TIP3   OH261111   3.346   0.772  14.463  0.3809 -0.0385 -0.4796
13207TIP3    H161112   3.417   0.792  14.524 -1.5479  0.2433  1.8116
13207TIP3    H261113   3.356   0.678  14.445 -0.4951 -0.8478  2.5442
13208TIP3   OH261114   4.426   2.702  14.936  0.7828  0.7550 -0.2404
13208TIP3    H161115   4.396   2.628  14.884 -1.3527  0.6023  1.0785
13208TIP3    H261116   4.511   2.674  14.971  0.7958 -0.3654 -1.1092
13209TIP3   OH261117   3.698   3.475   1.465 -0.3249 -0.2600 -0.0578
13209TIP3    H161118   3.687   3.540   1.396 -0.4262 -1.1930 -0.9385
13209TIP3    H261119   3.738   3.400   1.421  3.2321  0.4528  1.6039
13210TIP3   OH261120   3.304   5.700   0.686 -0.2673 -0.1433 -0.1752
13210TIP3    H161121   3.214   5.721   0.710 -0.6494 -0.1317 -1.5327
13210TIP3    H261122   3.346   5.676   0.769 -0.5790  3.0994  1.0588
13211TIP3   OH261123   4.632   5.540  11.467  0.6181 -0.1592  0.4823
13211TIP3    H161124   4.666   5.541  11.557  0.1370 -1.5487  0.7012
13211TIP3    H261125   4.661   5.623  11.430  0.5516  0.5863  2.0202
13212TIP3   OH261126   2.500   3.117   6.565  0.9351 -0.3456 -0.6369
13212TIP3    H161127   2.553   3.190   6.598  0.4577  1.0468 -2.7436
13212TIP3    H261128   2.429   3.108   6.628  0.4875  1.6797 -0.7880
13213TIP3   OH261129   6.840   3.660   2.406 -0.1178  0.5231 -0.2742
13213TIP3    H161130   6.872   3.710   2.480 -0.9813 -0.6249  0.9238
13213TIP3    H261131   6.906   3.673   2.337  0.8695  1.3298  0.7894
13214TIP3   OH261132   3.821   3.348  16.057 -0.0535 -0.1212  0.4448
13214TIP3    H161133   3.731   3.320  16.076 -1.5081  1.7428 -2.9053
13214TIP3    H261134   3.853   3.284  15.994  0.9886 -0.6716  1.4912
13215TIP3   OH261135   2.912   5.535  15.796  0.2448 -0.0835  0.2983
13215TIP3    H161136   2.871   5.621  15.785 -0.3736 -0.4649 -0.4503
13215TIP3    H261137   3.005   5.555  15.806  0.0889  0.6860  0.2894
13216TIP3   OH261138   4.835   0.256   4.170  0.0887  0.4294  0.5085
13216TIP3    H161139   4.810   0.180   4.224 -0.8022  0.9210  0.8036
13216TIP3    H261140   4.926   0.238   4.145 -0.7309 -1.8374 -1.2818
13217TIP3   OH261141   6.664   5.566  11.480 -0.2557  0.0265  0.3093
13217TIP3    H161142   6.579   5.545  11.518 -1.0316  2.0394 -0.1711
13217TIP3    H261143   6.719   5.588  11.555 -0.2470 -0.9429  0.5969
13218TIP3   OH261144   2.032   2.981   3.990  0.3750  1.0074 -0.0126
13218TIP3    H161145   2.088   3.019   4.057 -0.9051  1.2117  0.9677
13218TIP3    H261146   2.092   2.927   3.937  1.3358  0.4807  1.5428
13219TIP3   OH261147   4.569   0.741   3.132 -0.0440  0.5370 -0.0084
13219TIP3    H161148   4.622   0.790   3.069  3.0486  0.8465  2.5679
13219TIP3    H261149   4.622   0.663   3.152 -2.8173 -1.7118 -0.6753
13220TIP3   OH261150   1.903   5.638   3.545 -0.1276  0.1035  0.2831
13220TIP3    H161151   1.885   5.552   3.583  0.8346 -1.1556 -1.9422
13220TIP3    H261152   1.995   5.633   3.518 -0.4062  1.3854 -0.9773
13221TIP3   OH261153   2.124   2.977  13.551 -0.6369 -0.0491 -0.0380
13221TIP3    H161154   2.116   2.887  13.519  1.6197 -0.6984  1.0369
13221TIP3    H261155   2.199   3.012  13.504  0.4195  0.2199  1.7811
13222TIP3   OH261156   2.399   1.178   0.391  0.3682  0.0989  0.3424
13222TIP3    H161157   2.344   1.177   0.312  0.3344 -1.0960  0.3646
13222TIP3    H261158   2.370   1.255   0.440 -1.1009 -0.3525  0.2258
13223TIP3   OH261159   0.800   5.392  16.446  0.2553  0.2524 -0.2709
13223TIP3    H161160   0.799   5.336  16.369  1.2453  0.6169 -0.5541
13223TIP3    H261161   0.718   5.441  16.441  0.7759  1.0116 -1.6417
13224TIP3   OH261162   1.155   1.802   3.122  0.4799 -0.2404 -0.0227
13224TIP3    H161163   1.235   1.819   3.172 -0.0521  1.7923  0.2379
13224TIP3    H261164   1.121   1.721   3.159  2.4689 -1.2342 -0.2339
13225TIP3   OH261165   3.400   2.800  13.029 -0.7603  0.4662 -0.7638
13225TIP3    H161166   3.347   2.722  13.043 -1.3409  0.7025 -1.5377
13225TIP3    H261167   3.386   2.822  12.937 -1.0705  1.7951 -0.4312
13226TIP3   OH261168   3.903   3.787  15.448 -0.3216 -0.2585  0.3083
13226TIP3    H161169   3.946   3.760  15.367  0.8047 -0.3978  0.9344
13226TIP3    H261170   3.896   3.707  15.500 -1.3939 -0.2466  0.2075
13227TIP3   OH261171   4.503   2.189   0.805  0.0387  0.8904  0.8859
13227TIP3    H161172   4.556   2.201   0.726 -1.0925  0.2415 -0.0025
13227TIP3    H261173   4.560   2.141   0.865  0.1754 -0.6094 -0.3883
13228TIP3   OH261174   0.868   0.704   2.246 -0.1869  0.0083  0.0578
13228TIP3    H161175   0.844   0.793   2.274  0.5598 -0.1633  1.3056
13228TIP3    H261176   0.847   0.649   2.321 -1.1720 -0.9813 -0.9052
13229TIP3   OH261177   1.254   6.142   5.951 -0.2963  0.5912 -0.0893
13229TIP3    H161178   1.304   6.142   5.870 -0.6473 -1.4295 -0.3424
13229TIP3    H261179   1.316   6.171   6.018  0.6816 -0.0958 -0.6849
13230TIP3   OH261180   2.652   1.981  14.025  0.2441 -0.5515 -0.0254
13230TIP3    H161181   2.611   2.023  14.100 -2.3780  0.7697 -2.0380
13230TIP3    H261182   2.650   1.888  14.046 -1.7851 -0.3390  0.9625
13231TIP3   OH261183   2.765   6.284   2.468 -0.2090 -0.0584  0.4497
13231TIP3    H161184   2.694   6.278   2.532 -1.2321  2.5610 -0.3157
13231TIP3    H261185   2.800   6.372   2.479  0.8309 -0.1954 -1.3662
13232TIP3   OH261186   0.277   2.167  11.033 -0.0454  0.1813  0.1689
13232TIP3    H161187   0.235   2.100  10.979 -1.3913 -0.6406  2.1307
13232TIP3    H261188   0.368   2.170  11.002  0.1439 -2.7739  0.2051
13233TIP3   OH261189   5.390   3.404   2.824  0.1490 -0.0703  0.0731
13233TIP3    H161190   5.383   3.309   2.820 -2.0051 -0.1319  2.9418
13233TIP3    H261191   5.323   3.435   2.763 -1.6443 -0.4705  1.7803
13234TIP3   OH261192   1.813   3.459   5.893 -0.4742 -0.0921  0.0583
13234TIP3    H161193   1.720   3.476   5.878 -0.7109 -0.5776  0.9046
13234TIP3    H261194   1.815   3.376   5.941  0.4432 -0.4824 -0.6283
13235TIP3   OH261195   1.841   3.438  12.752 -0.5904  0.3058 -0.0888
13235TIP3    H161196   1.827   3.372  12.820 -0.2930  1.0536  0.7160
13235TIP3    H261197   1.886   3.390  12.682 -1.8415 -0.7297 -0.2399
13236TIP3   OH261198   1.974   5.959   0.443 -0.0237  0.2037  0.0573
13236TIP3    H161199   2.030   5.883   0.429  1.2916  0.5817  2.6681
13236TIP3    H261200   1.982   5.978   0.537 -0.8585  3.1163 -0.3494
13237TIP3   OH261201   0.176   0.354  13.619  0.0848 -0.4358  0.9958
13237TIP3    H161202   0.107   0.419  13.612 -0.9126 -1.3937  1.6325
13237TIP3    H261203   0.185   0.339  13.714  0.8139 -0.6961  0.8947
13238TIP3   OH261204   1.982   2.343  11.074 -0.0061 -0.0557  0.4870
13238TIP3    H161205   1.922   2.410  11.108 -0.3485  0.0591 -0.3015
13238TIP3    H261206   2.062   2.354  11.124 -0.0718  0.9322  0.3988
13239TIP3   OH261207   1.176   2.163   3.814 -0.0066  0.6307 -0.3540
13239TIP3    H161208   1.114   2.160   3.742  0.7551  3.2556 -1.2336
13239TIP3    H261209   1.149   2.238   3.867  0.3110 -0.3697  1.3113
13240TIP3   OH261210   2.386   1.907  16.098  0.2266  0.3333  0.3783
13240TIP3    H161211   2.298   1.923  16.133 -0.2215 -1.9796  0.4788
13240TIP3    H261212   2.379   1.823  16.054  1.8964  1.1072 -1.4917
13241TIP3   OH261213   5.617   4.450  14.715  0.5670 -0.1714 -0.7682
13241TIP3    H161214   5.528   4.470  14.743  1.5597  1.4322  1.4915
13241TIP3    H261215   5.639   4.369  14.761  0.4756 -0.2777 -0.9089
13242TIP3   OH261216   4.823   3.280  11.969 -0.2331 -0.5008  0.2606
13242TIP3    H161217   4.867   3.208  12.014  0.8956 -0.1566 -0.2757
13242TIP3    H261218   4.860   3.281  11.881 -2.1975 -0.9652 -0.6352
13243TIP3   OH261219   1.955   4.078   2.521  0.2626 -0.1571 -0.3254
13243TIP3    H161220   2.014   4.041   2.588  0.2905 -2.1382 -1.3750
13243TIP3    H261221   1.892   4.129   2.572  2.0944  1.0080  0.9406
13244TIP3   OH261222   5.699   3.907   0.932  0.3845  0.5764  0.4253
13244TIP3    H161223   5.650   3.984   0.960  0.0518  0.3425  0.4908
13244TIP3    H261224   5.712   3.857   1.013  0.4385  0.4714  0.3515
13245TIP3   OH261225   0.042   3.569  12.185 -0.0461 -0.1379 -0.2257
13245TIP3    H161226   0.037   3.486  12.232  1.5136  0.9291  2.0407
13245TIP3    H261227   0.019   3.635  12.250  3.5180  1.5395 -0.4412
13246TIP3   OH261228   4.236   5.660   2.115 -0.1265 -0.5036 -0.3443
13246TIP3    H161229   4.175   5.716   2.165  0.0393  0.3279 -1.0446
13246TIP3    H261230   4.314   5.655   2.170 -0.8606 -1.7138  0.6370
13247TIP3   OH261231   1.917   4.111  15.736  0.5942 -0.3198 -0.2402
13247TIP3    H161232   1.959   4.048  15.677  0.4636 -1.9535  1.3113
13247TIP3    H261233   1.986   4.172  15.759  1.3398 -1.2067 -0.0596
13248TIP3   OH261234   0.448   5.334  17.021  0.2737  0.8347 -0.1404
13248TIP3    H161235   0.521   5.366  16.968  0.1776  3.1891  1.0100
13248TIP3    H261236   0.485   5.326  17.109 -0.3231 -0.1277  0.0378
13249TIP3   OH261237   2.274   0.703   2.423  0.0946  0.7463  0.0022
13249TIP3    H161238   2.205   0.658   2.472 -0.5920  1.9613  0.2047
13249TIP3    H261239   2.312   0.636   2.367 -0.1675 -0.3118  1.0722
13250TIP3   OH261240   1.660   0.327  16.538  0.0203  0.2956  0.4079
13250TIP3    H161241   1.736   0.376  16.508  0.7898  0.8608  3.0028
13250TIP3    H261242   1.696   0.258  16.594 -1.3117 -0.1204  0.8082
13251TIP3   OH261243   2.035   5.594  13.577  0.4693 -0.0632  0.0076
13251TIP3    H161244   2.108   5.656  13.584  1.5293 -0.9792 -2.0681
13251TIP3    H261245   2.008   5.599  13.485 -1.6450 -0.2706  0.5689
13252TIP3   OH261246   1.576   1.599  13.028  0.5552  0.8058 -0.2180
13252TIP3    H161247   1.548   1.630  13.114 -0.7720 -0.9844  0.0356
13252TIP3    H261248   1.635   1.527  13.047 -0.3971 -0.1432 -0.7894
13253TIP3   OH261249   5.890   0.128  12.617  0.3505 -0.1490  0.0898
13253TIP3    H161250   5.901   0.220  12.594  1.6765 -0.0034  1.2047
13253TIP3    H261251   5.923   0.080  12.541  2.5501  0.3212  0.6946
13254TIP3   OH261252   2.690   2.362  12.950 -0.3392 -0.2448  0.6258
13254TIP3    H161253   2.637   2.370  13.029  0.1161  0.0805  0.9054
13254TIP3    H261254   2.710   2.453  12.925 -0.5575 -0.3415  0.0837
13255TIP3   OH261255   3.967   4.440  16.564 -0.0484  0.7169  0.2211
13255TIP3    H161256   3.976   4.380  16.638  0.0428 -0.0860 -0.4289
13255TIP3    H261257   4.021   4.516  16.588  1.7320 -0.4367  0.0735
13256TIP3   OH261258   5.048   0.012   3.386  0.1030 -0.0619  0.2321
13256TIP3    H161259   5.141   0.008   3.365  0.4064 -0.4865  1.5452
13256TIP3    H261260   5.045   0.012   3.482 -1.2844 -1.2083  0.2255
13257TIP3   OH261261   4.766   0.007   4.316 -0.2004  0.0066  0.5311
13257TIP3    H161262   4.838  -0.039   4.360  1.2120  0.7561 -0.9065
13257TIP3    H261263   4.707   0.032   4.387  0.6305 -1.1515  1.6839
13258TIP3   OH261264   1.688   3.070   5.845  0.3770 -0.1010  0.4746
13258TIP3    H161265   1.770   3.041   5.805  0.0595 -1.1193  0.5392
13258TIP3    H261266   1.714   3.113   5.926  0.8634 -0.1175  0.3301
13259TIP3   OH261267   3.526   5.941  12.707  0.1591 -0.5489  0.1896
13259TIP3    H161268   3.495   5.851  12.720  0.6077 -0.5557  1.3647
13259TIP3    H261269   3.474   5.975  12.634 -1.2622 -1.1784  0.8850
13260TIP3   OH261270   0.307   0.711   2.956  0.2278 -0.0745 -0.4136
13260TIP3    H161271   0.296   0.627   2.913 -0.3507 -0.1563 -0.1085
13260TIP3    H261272   0.335   0.689   3.045 -0.4609  0.0316 -0.1648
13261TIP3   OH261273   0.760   4.398  13.477 -0.3628  0.3979  0.4504
13261TIP3    H161274   0.807   4.320  13.446 -1.3177 -0.0324  0.0263
13261TIP3    H261275   0.731   4.374  13.565  0.0534  0.5955  0.6426
13262TIP3   OH261276   3.787   4.512   1.773 -0.1798 -0.8754  0.0267
13262TIP3    H161277   3.839   4.591   1.785  0.6884 -1.3482 -0.5936
13262TIP3    H261278   3.729   4.532   1.700 -0.3743 -0.6086  0.2504
13263TIP3   OH261279   0.454   2.980   2.377 -0.0716  0.2538 -0.2717
13263TIP3    H161280   0.474   2.902   2.325  1.3333  1.0751 -1.0398
13263TIP3    H261281   0.468   2.954   2.467  2.7094  0.1691 -0.6324
13264TIP3   OH261282   6.145   6.034  16.595 -0.1504 -0.0153  0.2372
13264TIP3    H161283   6.138   5.981  16.674  0.5576 -0.4640  0.0093
13264TIP3    H261284   6.208   6.103  16.618  1.6668 -1.3352 -0.5386
13265TIP3   OH261285   0.657   2.557   1.951  0.2036  1.0426  0.2728
13265TIP3    H161286   0.695   2.547   2.039 -0.2873  0.4955  0.4378
13265TIP3    H261287   0.681   2.645   1.924  2.9650  0.1902 -0.3193
13266TIP3   OH261288   1.908   6.467  16.888  0.6504 -0.4855 -0.3789
13266TIP3    H161289   1.995   6.433  16.870  1.2598 -0.1317  1.6300
13266TIP3    H261290   1.862   6.395  16.930  1.0124  0.2207  1.3106
13267TIP3   OH261291   6.305   5.909   0.705  0.4351 -0.3763  0.0363
13267TIP3    H161292   6.330   5.947   0.622 -0.2857  1.6994  0.7116
13267TIP3    H261293   6.388   5.886   0.747  0.9751  1.2837 -0.0498
13268TIP3   OH261294   1.317   4.061   1.264 -0.3032  0.1271 -0.4754
13268TIP3    H161295   1.320   4.120   1.189  0.2116  0.6449 -0.0522
13268TIP3    H261296   1.288   4.116   1.337  2.8732  0.6117  0.5838
13269TIP3   OH261297   2.258   3.486  16.003 -0.0517 -0.0147 -0.5702
13269TIP3    H161298   2.223   3.554  15.945 -1.8932  0.1141  0.6257
13269TIP3    H261299   2.239   3.517  16.091  2.4469 -0.3418  0.1745
13270TIP3   OH261300   0.500   5.632  12.762 -0.1624  0.1810 -0.3226
13270TIP3    H161301   0.445   5.553  12.761  0.0781 -0.0085  0.4274
13270TIP3    H261302   0.588   5.600  12.783 -0.1421  0.6813  0.4007
13271TIP3   OH261303   2.960   1.193   2.178 -0.3487  0.1861 -0.4045
13271TIP3    H161304   2.979   1.259   2.245 -0.1981  0.2941 -0.5539
13271TIP3    H261305   2.924   1.243   2.105 -2.1473 -0.1042  0.2302
13272TIP3   OH261306   2.612   0.101  13.049 -0.6159  0.3529 -0.1343
13272TIP3    H161307   2.517   0.110  13.065 -0.3410  1.0683  1.3327
13272TIP3    H261308   2.640   0.189  13.023  0.0043  0.8150  1.8558
13273TIP3   OH261309   2.175   0.498  14.485 -0.6890 -0.4084 -0.1622
13273TIP3    H161310   2.081   0.512  14.478 -1.2159 -1.7702  2.8059
13273TIP3    H261311   2.200   0.537  14.569  1.2979 -0.5512 -0.6240
13274TIP3   OH261312   1.887   5.993  13.629 -0.3101  0.2044  0.0134
13274TIP3    H161313   1.939   5.980  13.549 -0.4593 -1.8443  0.1988
13274TIP3    H261314   1.801   5.956  13.608 -0.7937  0.9402  0.6623
13275TIP3   OH261315   0.972   5.520   0.995  0.3272  0.3335  0.8526
13275TIP3    H161316   0.935   5.576   1.063  0.4141  1.1197  0.2666
13275TIP3    H261317   0.953   5.566   0.913 -1.9715 -1.7420  0.0740
13276TIP3   OH261318   5.738   6.474   0.910 -0.1878  0.6242  0.1631
13276TIP3    H161319   5.788   6.406   0.954 -1.3390 -0.4520 -0.1295
13276TIP3    H261320   5.673   6.502   0.975 -0.4176  0.6548 -0.0745
13277TIP3   OH261321   4.674   1.911   5.660 -0.4783 -0.0515 -0.3164
13277TIP3    H161322   4.710   1.837   5.610 -1.1099  0.0521 -0.9449
13277TIP3    H261323   4.749   1.948   5.706 -0.3069 -1.6672  0.7755
13278TIP3   OH261324   5.232   4.662   4.546  0.7324 -0.3163 -0.7439
13278TIP3    H161325   5.297   4.634   4.611  1.5776  0.7405 -1.0997
13278TIP3    H261326   5.164   4.595   4.550  1.2918 -0.8491  0.4542
13279TIP3   OH261327   5.815   1.310   4.422  0.3457  0.0698 -0.2696
13279TIP3    H161328   5.742   1.288   4.364  0.9279  2.4426 -2.0648
13279TIP3    H261329   5.893   1.300   4.367  1.1443  0.1807  0.8098
13280TIP3   OH261330   1.507   1.187  11.205  0.3727  0.3152 -0.3449
13280TIP3    H161331   1.501   1.116  11.142  0.0519 -0.2883  0.3524
13280TIP3    H261332   1.470   1.151  11.286  1.2449  0.8962  0.3314
13281TIP3   OH261333   1.297   3.412   4.046  0.3551  0.1567  0.2897
13281TIP3    H161334   1.248   3.476   3.994 -0.7648 -1.6087 -0.9613
13281TIP3    H261335   1.230   3.366   4.096  0.9120 -1.1715 -0.1493
13282TIP3   OH261336   2.155   2.047  14.918  0.5519  0.2391 -0.2350
13282TIP3    H161337   2.224   2.000  14.871  0.8889 -0.8585  1.2948
13282TIP3    H261338   2.200   2.122  14.957  1.2619 -1.2172  1.9165
13283TIP3   OH261339   5.958   2.647   3.189 -0.7466  0.0897  0.4470
13283TIP3    H161340   5.888   2.638   3.125  1.1236 -1.1153 -1.5704
13283TIP3    H261341   5.990   2.736   3.177 -0.0727 -0.2924 -0.7118
13284TIP3   OH261342   5.236   6.609   0.642 -0.1582 -0.9694 -0.0835
13284TIP3    H161343   5.203   6.641   0.558  0.4901  0.3389  0.1357
13284TIP3    H261344   5.323   6.647   0.650 -0.8286  0.3294  1.9111
13285TIP3   OH261345   6.407   3.587   0.474 -0.5582 -0.2734 -0.5759
13285TIP3    H161346   6.433   3.532   0.548 -2.4887 -0.8049 -0.2314
13285TIP3    H261347   6.418   3.677   0.506 -1.2326 -0.4927  0.3107
13286TIP3   OH261348   0.584   3.342   4.854  0.7802  0.1493  0.0373
13286TIP3    H161349   0.571   3.305   4.942  3.0956 -0.4850  0.1773
13286TIP3    H261350   0.603   3.435   4.871 -1.3278  0.6480 -0.0417
13287TIP3   OH261351   5.649   5.418  12.082  0.0763  0.6679 -0.4418
13287TIP3    H161352   5.736   5.379  12.092  0.9386  1.9418 -2.4085
13287TIP3    H261353   5.611   5.372  12.006 -0.0533  1.6264 -0.9717
13288TIP3   OH261354   2.327   2.785   6.162 -0.0293  0.0413 -0.3630
13288TIP3    H161355   2.354   2.863   6.211 -1.3074  1.0895 -1.2674
13288TIP3    H261356   2.260   2.744   6.216  1.7176 -1.3829  0.8682
13289TIP3   OH261357   0.675   2.294  16.694 -0.6529 -0.0079 -0.6707
13289TIP3    H161358   0.652   2.386  16.707 -2.7432 -0.5337 -0.3271
13289TIP3    H261359   0.592   2.251  16.677  0.1728 -1.9779  0.0334
13290TIP3   OH261360   0.877   6.575   0.947  0.3047  0.4008 -0.4618
13290TIP3    H161361   0.783   6.590   0.943  0.0902 -1.0439 -2.3739
13290TIP3    H261362   0.887   6.483   0.925  2.2662  0.9914 -2.3861
13291TIP3   OH261363   3.989   1.539  10.418  0.3665 -0.0708 -0.1314
13291TIP3    H161364   3.902   1.577  10.427  0.3189 -0.3194  0.4986
13291TIP3    H261365   3.985   1.489  10.336  0.1769  0.5901 -0.5262
13292TIP3   OH261366   5.132   0.674  14.371 -0.0213  0.5972 -0.1847
13292TIP3    H161367   5.164   0.741  14.432  0.0810  0.5154 -0.1469
13292TIP3    H261368   5.039   0.693  14.361  0.8018  3.9448 -4.1539
13293TIP3   OH261369   4.359   5.630  14.354  0.5614  0.0305  0.0960
13293TIP3    H161370   4.291   5.563  14.362  1.4085 -0.6915  1.8164
13293TIP3    H261371   4.366   5.667  14.442 -0.0552  2.6098 -0.8599
13294TIP3   OH261372   1.052   5.724  15.280  0.3237  0.3077  0.3933
13294TIP3    H161373   0.979   5.686  15.232  0.5829 -1.6761  1.4422
13294TIP3    H261374   1.048   5.818  15.261 -0.7982 -0.1266 -1.7736
13295TIP3   OH261375   5.675   4.573   2.741  0.1974 -0.2324 -0.1000
13295TIP3    H161376   5.606   4.509   2.760  1.0390 -1.2973 -0.5327
13295TIP3    H261377   5.751   4.541   2.790  1.4386 -1.1810 -2.4956
13296TIP3   OH261378   5.905   2.884   3.921  0.4514 -0.0325 -0.0019
13296TIP3    H161379   5.931   2.968   3.957  0.0181 -0.4005  1.2028
13296TIP3    H261380   5.844   2.847   3.985  0.0769 -0.9540 -0.8450
13297TIP3   OH261381   3.992   5.032  13.612  0.2136 -0.3648  0.0879
13297TIP3    H161382   4.071   5.059  13.566 -0.2276 -0.2362 -0.6127
13297TIP3    H261383   4.009   4.942  13.639  0.6103 -0.3260 -0.0258
13298TIP3   OH261384   2.254   3.225   1.904  0.0871 -0.2310  0.3908
13298TIP3    H161385   2.310   3.202   1.979 -0.1690 -0.0408  0.6395
13298TIP3    H261386   2.276   3.159   1.838  0.8497  0.0357  0.3631
13299TIP3   OH261387   2.216   2.873   2.027  0.1474  0.0668  0.1023
13299TIP3    H161388   2.249   2.952   1.985 -1.2671  0.3689 -0.4911
13299TIP3    H261389   2.174   2.824   1.956 -1.3448  0.0739  0.9314
13300TIP3   OH261390   4.903   1.075  16.221 -0.5172  0.6593 -0.5645
13300TIP3    H161391   4.998   1.073  16.234 -0.6671  0.7116  0.7014
13300TIP3    H261392   4.885   1.164  16.191 -0.1971  0.7409 -0.5220
13301TIP3   OH261393   5.026   1.448  12.838  0.6184 -0.2242  0.1879
13301TIP3    H161394   4.977   1.521  12.877  1.0485 -1.1086  2.5550
13301TIP3    H261395   4.963   1.376  12.835  0.3274  0.0492 -1.7251
13302TIP3   OH261396   4.662   3.009   0.248  0.5657  0.2414  0.4496
13302TIP3    H161397   4.730   2.944   0.232  0.5702  0.3504  0.0068
13302TIP3    H261398   4.609   3.008   0.168 -1.0020 -1.0849  1.4514
13303TIP3   OH261399   3.622   6.632   3.850 -0.2781 -0.4134  0.3268
13303TIP3    H161400   3.691   6.585   3.897 -0.4508 -0.6189  0.3741
13303TIP3    H261401   3.570   6.674   3.918 -1.6116 -2.1614  0.4733
13304TIP3   OH261402   3.695   4.921   2.452 -0.4151  0.1980 -0.2394
13304TIP3    H161403   3.771   4.931   2.509  0.1079 -0.2208 -0.8494
13304TIP3    H261404   3.730   4.935   2.364 -0.8064 -1.1483 -0.6336
13305TIP3   OH261405   2.358   3.099   4.940  0.1236  0.2102 -0.1404
13305TIP3    H161406   2.280   3.052   4.908 -1.6068  2.1138  1.0254
13305TIP3    H261407   2.400   3.131   4.860 -0.3924 -0.6605 -0.7884
13306TIP3   OH261408   2.229   3.358  12.685 -0.3789 -0.3291  0.0636
13306TIP3    H161409   2.145   3.338  12.725 -0.3234  0.4796  0.6056
13306TIP3    H261410   2.260   3.437  12.730  1.1157 -1.1321  0.5320
13307TIP3   OH261411   1.972   3.483   1.041  0.0246  0.2629 -0.5527
13307TIP3    H161412   1.886   3.442   1.053  0.1918  0.2302  0.6477
13307TIP3    H261413   2.017   3.468   1.124  1.4381 -0.2637 -1.3903
13308TIP3   OH261414   2.269   3.268   5.627 -0.2146  0.1990  0.0988
13308TIP3    H161415   2.347   3.280   5.573 -0.3358 -0.9927 -0.3692
13308TIP3    H261416   2.246   3.356   5.656  1.3700  0.5671  0.3421
13309TIP3   OH261417   0.240   2.016  15.337 -0.2247 -0.3933 -0.1518
13309TIP3    H161418   0.153   2.048  15.361  0.0878 -1.0539  2.0845
13309TIP3    H261419   0.253   2.047  15.247 -2.1906  0.9105 -0.0470
13310TIP3   OH261420   5.380   5.915  10.611 -0.0091 -0.4295 -0.4500
13310TIP3    H161421   5.460   5.863  10.624  0.9659  0.9525 -0.7466
13310TIP3    H261422   5.392   5.958  10.527 -0.0528  1.5003  0.4676
13311TIP3   OH261423   4.117   2.017  15.598 -0.1688  0.1855 -0.1819
13311TIP3    H161424   4.098   1.940  15.545 -0.2304  0.5423 -0.6903
13311TIP3    H261425   4.180   1.987  15.664 -0.8352 -0.4928  0.1500
13312TIP3   OH261426   1.890   3.211  16.745 -0.1315  0.3131 -0.0552
13312TIP3    H161427   1.875   3.303  16.768 -0.6049  0.3274 -0.4089
13312TIP3    H261428   1.854   3.202  16.657 -0.2253 -0.2467  0.0336
13313TIP3   OH261429   3.648   0.529  14.520 -0.0569  0.1027  0.1784
13313TIP3    H161430   3.557   0.523  14.489  0.0732  1.7504 -0.5690
13313TIP3    H261431   3.643   0.498  14.611 -0.8770 -2.3342 -0.6028
13314TIP3   OH261432   4.459   2.132  15.726  0.0965  0.1069 -0.1512
13314TIP3    H161433   4.502   2.050  15.702 -1.0696 -0.9567  1.1534
13314TIP3    H261434   4.454   2.130  15.821  0.8139  2.1427 -0.0205
13315TIP3   OH261435   3.731   3.975   1.442 -0.7890 -0.2315 -0.0420
13315TIP3    H161436   3.712   3.946   1.532 -1.4454  1.4315  0.3939
13315TIP3    H261437   3.780   3.903   1.404 -1.4638 -1.4604  1.2961
13316TIP3   OH261438   4.515   3.769   2.204 -0.3327  0.6855  0.0337
13316TIP3    H161439   4.564   3.736   2.128 -1.1683 -1.7646  0.4557
13316TIP3    H261440   4.430   3.796   2.168 -0.1600  1.0225 -0.1210
13317TIP3   OH261441   1.673   1.465   4.366 -0.1522  0.2387  0.1438
13317TIP3    H161442   1.614   1.533   4.334 -0.0501 -0.1832 -0.9631
13317TIP3    H261443   1.661   1.467   4.461 -0.1144  1.8332  0.1493
13318TIP3   OH261444   3.589   0.827  14.607 -0.0889 -0.0730 -0.2287
13318TIP3    H161445   3.617   0.886  14.677 -1.6495 -0.4203  0.7427
13318TIP3    H261446   3.664   0.770  14.591  0.2721 -0.0431  1.2256
13319TIP3   OH261447   0.819   5.819   1.494  0.2577 -0.1107  0.2855
13319TIP3    H161448   0.744   5.807   1.435 -0.8093  3.3626  0.6554
13319TIP3    H261449   0.817   5.743   1.551 -1.2009 -1.5668 -1.5509
13320TIP3   OH261450   3.695   5.018  13.756  0.6728 -0.1309 -0.1804
13320TIP3    H161451   3.695   5.101  13.709 -2.6728  0.4339  0.5657
13320TIP3    H261452   3.642   4.960  13.702 -1.7996  0.0218  1.8836
13321TIP3   OH261453   4.859   4.278   4.852 -0.4504  0.0934  0.2777
13321TIP3    H161454   4.878   4.202   4.906 -0.4247  0.2747  0.5287
13321TIP3    H261455   4.903   4.261   4.769  1.9482  1.0494  1.2476
13322TIP3   OH261456   5.791   0.036   3.723 -0.4483 -0.1751  0.2201
13322TIP3    H161457   5.812  -0.056   3.739  0.3966  0.2894  2.1055
13322TIP3    H261458   5.868   0.072   3.679  0.8782  0.4220  2.8289
13323TIP3   OH261459   6.236   4.412  11.519 -0.4087 -0.9848 -0.0489
13323TIP3    H161460   6.269   4.396  11.431  0.5405  0.1380  0.0802
13323TIP3    H261461   6.165   4.475  11.506 -0.8073 -1.4330 -0.0761
13324TIP3   OH261462   5.611   2.542   1.363  0.2997  0.1505 -0.6175
13324TIP3    H161463   5.604   2.574   1.273 -0.8190 -0.8800 -0.9184
13324TIP3    H261464   5.534   2.577   1.408 -1.1745 -2.3053 -1.0590
13325TIP3   OH261465   3.766   3.214  11.929 -0.1227 -0.1414 -0.3199
13325TIP3    H161466   3.807   3.143  11.880  1.6363  0.4422  0.2240
13325TIP3    H261467   3.715   3.170  11.997 -1.4447 -0.9117 -1.7539
13326TIP3   OH261468   6.244   4.093   4.537 -0.2755 -0.0654 -0.5734
13326TIP3    H161469   6.272   4.021   4.594 -0.7587  0.3646  0.2279
13326TIP3    H261470   6.196   4.152   4.595 -0.5213  0.5376 -1.3741
13327TIP3   OH261471   5.801   1.910   1.567  0.0770  0.5334 -0.0136
13327TIP3    H161472   5.792   1.950   1.653  1.8384  3.6981 -1.1467
13327TIP3    H261473   5.719   1.861   1.555 -0.4183  0.3439  3.1955
13328TIP3   OH261474   0.681   5.733  14.902  0.0739 -0.3503 -0.2402
13328TIP3    H161475   0.605   5.786  14.879  0.2916  0.2997  0.4997
13328TIP3    H261476   0.752   5.766  14.846 -0.3491 -1.5047 -1.5294
13329TIP3   OH261477   0.150   4.953   1.211 -0.3609  0.5519 -0.0984
13329TIP3    H161478   0.181   5.036   1.249 -4.0607  1.9642  0.3248
13329TIP3    H261479   0.115   4.978   1.126 -0.3545 -0.8702 -0.5419
13330TIP3   OH261480   5.587   1.090   2.620 -0.1426 -0.0386 -0.5781
13330TIP3    H161481   5.538   1.129   2.693 -1.0991 -0.6534 -0.8772
13330TIP3    H261482   5.650   1.031   2.661  1.8546  2.2872 -0.0603
13331TIP3   OH261483   6.055   5.856  16.298  0.3203 -0.5341  0.0847
13331TIP3    H161484   6.013   5.933  16.260 -1.0331 -0.8417  0.9224
13331TIP3    H261485   6.125   5.834  16.236 -0.9764 -0.2282 -1.5338
13332TIP3   OH261486   3.361   2.693  16.550 -0.3170  0.3242 -0.3440
13332TIP3    H161487   3.367   2.604  16.586  3.7259  1.3258  2.0056
13332TIP3    H261488   3.405   2.687  16.465  2.5381  0.4537  1.0153
13333TIP3   OH261489   4.900   2.729   1.074 -0.1074 -0.1978 -0.1333
13333TIP3    H161490   4.852   2.647   1.067 -3.4662  1.4899  0.7484
13333TIP3    H261491   4.857   2.787   1.012  0.3367  1.6378  1.1796
13334TIP3   OH261492   5.702   2.341  16.137 -0.7008 -0.5648  0.6888
13334TIP3    H161493   5.739   2.303  16.216 -2.2454 -0.8198  1.3209
13334TIP3    H261494   5.670   2.267  16.086  0.8458 -0.4575 -0.5117
13335TIP3   OH261495   5.293   5.004  12.068 -0.1498  0.4263 -0.0695
13335TIP3    H161496   5.300   5.096  12.092  3.0248  0.0195  1.0157
13335TIP3    H261497   5.266   4.960  12.149  0.2308  0.2207 -0.0477
13336TIP3   OH261498   5.564   2.909   2.217  0.5198  0.1486 -0.1590
13336TIP3    H161499   5.560   2.831   2.273 -1.5951 -1.0915 -1.8810
13336TIP3    H261500   5.481   2.954   2.231  0.7926  0.9011 -0.8388
13337TIP3   OH261501   1.256   5.359   3.023  0.2116 -0.3726  0.0707
13337TIP3    H161502   1.168   5.327   3.042  1.1983 -3.0125  0.5219
13337TIP3    H261503   1.265   5.351   2.929 -0.7634  2.1597 -0.3346
13338TIP3   OH261504   4.530   4.549  15.699 -0.0665 -0.2297 -0.0240
13338TIP3    H161505   4.531   4.483  15.768  0.0184 -2.5717 -2.0877
13338TIP3    H261506   4.613   4.535  15.652 -0.3042  0.9754 -0.8556
13339TIP3   OH261507   0.175   6.843   2.759  0.0126 -0.3896 -0.0422
13339TIP3    H161508   0.267   6.849   2.785 -0.2082  2.8133  0.3147
13339TIP3    H261509   0.177   6.843   2.663  0.3715  1.5426 -0.0643
13340TIP3   OH261510   3.426   2.201   2.196  0.2730  0.1942  0.8264
13340TIP3    H161511   3.416   2.235   2.285 -1.1374 -0.0911  0.8040
13340TIP3    H261512   3.413   2.278   2.140 -1.4723 -0.0530  0.8206
13341TIP3   OH261513   6.074   4.736  14.963  0.2757 -0.1932 -0.0153
13341TIP3    H161514   6.076   4.640  14.970  0.8275 -0.2756 -1.1163
13341TIP3    H261515   6.018   4.753  14.887 -1.4269  0.4573  1.3182
13342TIP3   OH261516   0.172   5.133  12.545 -0.4538 -0.4676  0.1155
13342TIP3    H161517   0.263   5.104  12.534 -0.3100 -0.9770  2.2387
13342TIP3    H261518   0.123   5.053  12.559 -0.8179 -0.0464  1.3919
13343TIP3   OH261519   1.577   5.481  16.810 -0.0523 -0.3385  0.0054
13343TIP3    H161520   1.519   5.542  16.856 -0.8745 -1.1619  0.0812
13343TIP3    H261521   1.654   5.475  16.866  1.0498  2.3300 -1.0775
13344TIP3   OH261522   1.361   5.954  13.804 -0.2780  0.0490  0.0664
13344TIP3    H161523   1.341   5.977  13.713  0.1941 -0.5505 -0.1965
13344TIP3    H261524   1.317   6.022  13.856 -1.4265 -0.1818 -0.5618
13345TIP3   OH261525   0.279   5.458   2.144 -0.0470  0.2234 -0.1599
13345TIP3    H161526   0.355   5.413   2.179 -0.4006 -0.8664 -0.7609
13345TIP3    H261527   0.275   5.431   2.052 -0.7539  0.8275 -0.3223
13346TIP3   OH261528   1.653   1.277  14.389  0.2114 -0.0170  1.4679
13346TIP3    H161529   1.626   1.351  14.334 -1.6121 -0.9278  1.0709
13346TIP3    H261530   1.703   1.220  14.330 -0.7920 -0.4497  1.0161
13347TIP3   OH261531   6.480   4.730  15.611  0.2143  0.1615 -0.0800
13347TIP3    H161532   6.488   4.643  15.572  1.2689 -0.0451  0.5600
13347TIP3    H261533   6.498   4.791  15.538  1.7137 -0.2106 -0.0573
13348TIP3   OH261534   0.208   1.615  11.918 -0.1324 -0.1032  0.1888
13348TIP3    H161535   0.186   1.705  11.942  2.2102  1.3735 -2.4932
13348TIP3    H261536   0.124   1.572  11.902 -1.2969  1.6266  1.3724
13349TIP3   OH261537   5.134   0.667  12.480  0.0856 -0.5694  0.7004
13349TIP3    H161538   5.085   0.637  12.403 -0.1152  0.0311  0.5868
13349TIP3    H261539   5.202   0.724  12.443  2.0060 -2.6947  0.6708
13350TIP3   OH261540   5.636   2.022   4.534  1.1222  0.1019  0.5126
13350TIP3    H161541   5.602   1.969   4.606  2.3369  0.5409  1.4451
13350TIP3    H261542   5.558   2.044   4.482  0.2031 -0.1571  1.7286
13351TIP3   OH261543   5.161   6.067   2.840  0.5908  0.0520 -0.1383
13351TIP3    H161544   5.137   6.081   2.932 -1.1325  0.9602 -0.6864
13351TIP3    H261545   5.218   5.990   2.842  0.4100 -0.0924  1.6616
13352TIP3   OH261546   5.500   3.214   3.057  0.1063 -0.0897  0.0600
13352TIP3    H161547   5.516   3.153   2.985  0.4995 -0.1051  0.1605
13352TIP3    H261548   5.418   3.185   3.095  0.5073 -0.8182  0.3749
13353TIP3   OH261549   6.281   1.704   1.724  0.3792  0.5689 -0.4494
13353TIP3    H161550   6.298   1.724   1.816  1.9153 -1.7544 -0.1176
13353TIP3    H261551   6.223   1.773   1.694  1.1930  2.3631  1.8013
13354TIP3   OH261552   2.381   2.402   0.127  0.2733  0.0442 -0.3062
13354TIP3    H161553   2.320   2.453   0.075 -0.1865  1.5855  1.6229
13354TIP3    H261554   2.466   2.414   0.085 -0.0038  1.6106 -0.4700
13355TIP3   OH261555   1.778   5.048  11.002  0.1692  0.2213 -0.0588
13355TIP3    H161556   1.737   5.100  10.933 -3.4308  0.8273  2.2571
13355TIP3    H261557   1.769   4.957  10.973  1.7533  0.5426 -1.7621
13356TIP3   OH261558   6.564   1.094   3.733 -0.7769  0.5704 -0.3696
13356TIP3    H161559   6.536   1.089   3.642 -0.2949 -0.4652 -0.4683
13356TIP3    H261560   6.660   1.086   3.730 -0.6423  1.7084  0.1450
13357TIP3   OH261561   4.236   3.609  16.473 -0.2658 -0.4224  0.4704
13357TIP3    H161562   4.157   3.560  16.450 -1.4940  2.4375 -2.1635
13357TIP3    H261563   4.304   3.573  16.416  0.0189 -1.8675  1.6598
13358TIP3   OH261564   1.935   5.598  13.820  0.0793 -1.0995  0.4335
13358TIP3    H161565   1.976   5.603  13.734  0.3709  0.4351  0.6312
13358TIP3    H261566   1.939   5.688  13.854 -3.8355 -0.6792  0.2589
13359TIP3   OH261567   4.587   4.679   0.037  0.2530 -0.0090 -0.1493
13359TIP3    H161568   4.503   4.634   0.039  0.8865 -1.3589 -1.5024
13359TIP3    H261569   4.573   4.754  -0.021 -0.4072  0.7014  0.8979
13360TIP3   OH261570   1.308   3.032   4.837  0.1453 -0.3003 -0.5988
13360TIP3    H161571   1.322   2.995   4.750  1.4180  0.7446 -0.8840
13360TIP3    H261572   1.297   3.126   4.821  1.3036  0.0422  0.4094
13361TIP3   OH261573   0.159   0.805   0.991  0.0347  0.0195 -0.3504
13361TIP3    H161574   0.218   0.750   0.939 -1.2504 -1.3630 -0.4095
13361TIP3    H261575   0.144   0.754   1.071  0.9500  1.5319  0.8229
13362TIP3   OH261576   5.215   0.938  15.951  0.4720  0.5747  0.0850
13362TIP3    H161577   5.122   0.913  15.954  0.9138 -1.1856  2.4366
13362TIP3    H261578   5.214   1.031  15.931 -1.7312  0.3215 -1.3196
13363TIP3   OH261579   4.677   4.940  17.070  0.4908 -0.5494  0.2708
13363TIP3    H161580   4.768   4.923  17.094  1.1414  3.3949  1.4241
13363TIP3    H261581   4.642   4.987  17.145 -1.6325  0.4256 -1.2370
13364TIP3   OH261582   6.550   1.112   2.762  0.4245  0.3993 -0.3276
13364TIP3    H161583   6.573   1.205   2.768 -2.0275  1.0503 -0.1988
13364TIP3    H261584   6.601   1.071   2.832  1.3658  1.6736 -0.2244
13365TIP3   OH261585   5.227   6.720   5.675  0.1627 -0.3946  0.0863
13365TIP3    H161586   5.142   6.689   5.707  1.2069 -2.5563  0.9808
13365TIP3    H261587   5.290   6.690   5.741  2.0912 -2.6665 -2.5311
13366TIP3   OH261588   3.241   0.598  15.415 -0.3275  0.0013 -0.0974
13366TIP3    H161589   3.287   0.611  15.332  0.1033 -0.2906  0.0912
13366TIP3    H261590   3.302   0.632  15.481 -0.2425 -0.6600  0.1804
13367TIP3   OH261591   4.560   5.003   1.722 -0.8044 -0.1778  0.7522
13367TIP3    H161592   4.515   5.082   1.692  2.0521  1.3483  0.1508
13367TIP3    H261593   4.642   5.035   1.759  0.5269 -2.8928  0.3851
13368TIP3   OH261594   1.800   4.372  15.387 -0.4418 -0.3028 -0.4079
13368TIP3    H161595   1.738   4.443  15.403 -1.0088 -1.2255  2.0049
13368TIP3    H261596   1.878   4.395  15.438 -0.7086 -1.4351  0.5731
13369TIP3   OH261597   5.158   3.887  10.886 -0.0004 -0.1017 -0.4937
13369TIP3    H161598   5.109   3.814  10.924  0.0509  0.2341  0.2528
13369TIP3    H261599   5.244   3.852  10.867 -0.4005 -0.5944 -1.4412
13370TIP3   OH261600   6.194   1.099  11.553  0.0552  0.0512  0.2710
13370TIP3    H161601   6.289   1.098  11.536  0.6618 -0.7431  3.1621
13370TIP3    H261602   6.175   1.191  11.573 -0.2688  0.5983 -2.1925
13371TIP3   OH261603   5.446   0.033   5.537 -0.1331 -0.0999 -0.3581
13371TIP3    H161604   5.386  -0.013   5.596 -1.3389  0.3514 -1.1951
13371TIP3    H261605   5.432   0.126   5.556 -0.0842  0.0245 -0.9178
13372TIP3   OH261606   0.495   0.610   2.600  0.5415 -0.4458 -0.1740
13372TIP3    H161607   0.406   0.639   2.585  1.0003  0.0847 -2.1476
13372TIP3    H261608   0.547   0.691   2.605  1.0385 -0.7687  0.0353
13373TIP3   OH261609   4.086   5.108   4.016  0.0281 -0.0706  0.2450
13373TIP3    H161610   4.135   5.045   3.963  0.8976  0.4873  0.3655
13373TIP3    H261611   4.032   5.054   4.074  1.1406 -0.7197  0.7070
13374TIP3   OH261612   3.033   5.888   2.762  0.3206  0.1030  0.0156
13374TIP3    H161613   3.055   5.823   2.829  0.1493  0.5051  0.4634
13374TIP3    H261614   2.966   5.844   2.709  0.4658 -0.2230  0.0977
13375TIP3   OH261615   1.275   2.633   2.064  0.0195 -0.0823  0.2269
13375TIP3    H161616   1.323   2.586   1.995 -1.2135  0.3269 -0.9560
13375TIP3    H261617   1.191   2.654   2.024 -1.1274 -0.6652  2.1845
13376TIP3   OH261618   4.449   3.615  11.196  0.4529  0.2032  0.6303
13376TIP3    H161619   4.442   3.630  11.101  0.7589  0.2425  0.6114
13376TIP3    H261620   4.479   3.525  11.203  0.7117  0.2923  0.6807
13377TIP3   OH261621   5.840   0.456  14.497 -0.1671 -0.0729  0.2845
13377TIP3    H161622   5.905   0.507  14.546 -0.0209  1.2539 -1.2376
13377TIP3    H261623   5.878   0.368  14.492  0.5104  0.1498  1.2320
13378TIP3   OH261624   5.476   0.817  13.726  0.0928  0.5488  0.1641
13378TIP3    H161625   5.531   0.786  13.798 -0.3773  0.6134  0.5558
13378TIP3    H261626   5.488   0.752  13.657  0.8876  0.7179  0.1323
13379TIP3   OH261627   3.573   5.132  13.990  0.4490  0.8524  0.2300
13379TIP3    H161628   3.621   5.082  13.923 -1.0319  0.6049 -0.6975
13379TIP3    H261629   3.641   5.184  14.034  1.6794 -0.1237 -0.4336
13380TIP3   OH261630   2.750   1.040   1.024 -0.0154  0.1227 -0.4342
13380TIP3    H161631   2.659   1.014   1.015 -0.0451 -0.5024  1.3232
13380TIP3    H261632   2.750   1.135   1.012 -0.7978  0.0644 -0.9731
13381TIP3   OH261633   4.312   0.030   4.994 -0.0486 -0.0621  0.1325
13381TIP3    H161634   4.293   0.108   5.045 -0.3142 -0.8949  1.3631
13381TIP3    H261635   4.283   0.050   4.906 -2.5783  0.3074  0.9810
13382TIP3   OH261636   5.692   2.800   5.109 -0.1692 -0.2642  0.2499
13382TIP3    H161637   5.664   2.708   5.103 -0.6194 -0.1360  0.3511
13382TIP3    H261638   5.724   2.809   5.198 -0.2205 -0.2938  0.2713
13383TIP3   OH261639   3.036   2.623  13.558 -0.1223 -0.0458 -0.0042
13383TIP3    H161640   3.096   2.577  13.498  1.1754  2.5159 -0.8138
13383TIP3    H261641   2.982   2.553  13.595  1.3934 -2.1527 -1.4805
13384TIP3   OH261642   5.144   5.849   3.390  0.1938 -0.5226  0.2233
13384TIP3    H161643   5.065   5.879   3.436 -0.3907 -0.9068 -0.5056
13384TIP3    H261644   5.114   5.776   3.336  1.1874 -1.0846  0.4097
13385TIP3   OH261645   2.242   2.333  16.306  0.9466 -0.1688 -0.2141
13385TIP3    H161646   2.192   2.297  16.379 -0.5387  1.1238 -0.5517
13385TIP3    H261647   2.334   2.326  16.334  0.5255 -1.5732  0.8799
13386TIP3   OH261648   1.888   4.257   4.539 -0.6338 -0.7800  0.4715
13386TIP3    H161649   1.803   4.234   4.503 -0.0382 -1.1580 -0.7517
13386TIP3    H261650   1.870   4.286   4.629 -2.2140  0.5377 -0.2429
13387TIP3   OH261651   5.206   5.709  10.513 -0.1139 -0.1423 -0.3083
13387TIP3    H161652   5.280   5.723  10.572 -0.6974 -1.1263  0.7078
13387TIP3    H261653   5.245   5.668  10.436  0.4643 -0.2961  0.0541
13388TIP3   OH261654   2.956   3.990   6.424 -0.5638 -0.0115  0.0701
13388TIP3    H161655   3.011   3.916   6.449 -0.6711 -0.1193 -0.0090
13388TIP3    H261656   3.009   4.067   6.443  0.0425 -0.1388 -1.0131
13389TIP3   OH261657   0.899   4.991  15.519  0.1000  0.4398  0.3908
13389TIP3    H161658   0.866   5.080  15.533  1.0579  0.8648 -0.0078
13389TIP3    H261659   0.840   4.954  15.453 -0.7593  0.4980  1.0968
13390TIP3   OH261660   1.783   4.957   5.168  0.2434  0.2066  0.0360
13390TIP3    H161661   1.801   5.042   5.209 -0.2319  0.4534 -0.2608
13390TIP3    H261662   1.776   4.896   5.242 -2.9959  1.0543  0.5981
13391TIP3   OH261663   6.638   4.259   3.232  0.0136  0.0385  0.0501
13391TIP3    H161664   6.620   4.331   3.171 -0.4459 -0.7640 -0.7885
13391TIP3    H261665   6.723   4.224   3.205  0.0784  0.0503  0.2370
13392TIP3   OH261666   6.669   3.390   5.913  0.2783 -0.2254  0.2967
13392TIP3    H161667   6.640   3.299   5.913  1.9482 -0.9121 -2.7840
13392TIP3    H261668   6.588   3.441   5.911 -0.7007 -1.7239  0.1132
13393TIP3   OH261669   3.253   4.510   4.268  0.0068  0.4507  0.0976
13393TIP3    H161670   3.289   4.498   4.356  0.6012  1.5477  0.0311
13393TIP3    H261671   3.249   4.422   4.231  2.4803  0.2252  0.1980
13394TIP3   OH261672   1.109   0.693   0.957  0.4024  0.3475  0.7418
13394TIP3    H161673   1.181   0.653   0.909  1.5859  0.4710  2.3596
13394TIP3    H261674   1.062   0.619   0.996 -0.7274  0.2270 -0.7559
13395TIP3   OH261675   0.937   5.336  14.103 -0.5974 -0.3007  0.1744
13395TIP3    H161676   0.955   5.333  14.009 -0.4016 -0.4719  0.2157
13395TIP3    H261677   0.844   5.356  14.110 -0.3561  0.9731 -0.0484
13396TIP3   OH261678   3.742   1.114   1.683 -0.2139 -0.2264 -0.0376
13396TIP3    H161679   3.693   1.056   1.742  0.7596 -0.7081  0.3157
13396TIP3    H261680   3.696   1.198   1.688  1.1694  0.4841  3.2938
13397TIP3   OH261681   4.952   4.140   2.865  0.6903  0.2453  0.0448
13397TIP3    H161682   4.877   4.200   2.866  1.0029  0.6618 -0.6699
13397TIP3    H261683   4.940   4.089   2.785  1.7974  1.1485 -0.7327
13398TIP3   OH261684   1.674   6.533   4.414 -0.2010  0.3826  0.2147
13398TIP3    H161685   1.767   6.543   4.396  0.2696 -0.4215  2.0028
13398TIP3    H261686   1.655   6.599   4.481 -0.7055 -0.0688  0.5264
13399TIP3   OH261687   1.020   6.365  14.846 -0.5294  0.8904  0.3302
13399TIP3    H161688   1.009   6.443  14.901  1.1473  0.4409  1.3791
13399TIP3    H261689   1.042   6.399  14.759  1.9868  1.6416  1.1937
13400TIP3   OH261690   6.191   2.769   5.137  0.1772 -0.0848  0.7800
13400TIP3    H161691   6.210   2.750   5.046 -1.2272 -2.9688  0.9738
13400TIP3    H261692   6.120   2.833   5.134 -0.4727 -0.8163 -0.2064
13401TIP3   OH261693   2.973   1.683   2.934 -0.3412  0.3216  0.0212
13401TIP3    H161694   3.010   1.597   2.953 -1.4954 -0.4891 -1.2559
13401TIP3    H261695   2.886   1.682   2.975 -0.7544  0.5036 -0.8395
13402TIP3   OH261696   1.838   2.074   4.607  0.1073 -0.5776  0.5341
13402TIP3    H161697   1.789   2.149   4.573  0.7817 -0.9449 -1.3699
13402TIP3    H261698   1.869   2.103   4.693 -0.7245  0.8340  0.4013
13403TIP3   OH261699   4.298   4.428  15.479  0.0071  0.0393  1.0041
13403TIP3    H161700   4.350   4.373  15.537 -0.6881 -0.5162  1.1096
13403TIP3    H261701   4.352   4.438  15.401  0.1001 -0.8996  0.9321
13404TIP3   OH261702   1.114   2.393   1.521  0.2169 -0.1095 -0.3661
13404TIP3    H161703   1.062   2.332   1.468 -0.0334  0.3702 -0.6846
13404TIP3    H261704   1.144   2.341   1.595 -1.6323 -0.1409  0.4019
13405TIP3   OH261705   3.361   0.791  11.683 -0.4227  0.0708  0.3814
13405TIP3    H161706   3.266   0.802  11.688 -0.4687 -0.2986  0.3305
13405TIP3    H261707   3.396   0.866  11.732 -0.7412  0.1115  0.5485
13406TIP3   OH261708   0.427   6.366  12.299  0.0537  0.1993  0.0872
13406TIP3    H161709   0.414   6.296  12.234  0.4411  1.1299 -1.0307
13406TIP3    H261710   0.371   6.437  12.269 -1.0664  0.0591  1.7555
13407TIP3   OH261711   4.334   5.585   6.269  0.3297  0.2694 -0.4761
13407TIP3    H161712   4.287   5.668   6.261 -0.3412  0.3383  2.5508
13407TIP3    H261713   4.405   5.603   6.331 -0.5097 -1.5613  1.1558
13408TIP3   OH261714   6.567   2.820  10.913 -0.0629 -0.4492  0.4356
13408TIP3    H161715   6.589   2.913  10.907 -2.6254  0.2338  0.2727
13408TIP3    H261716   6.535   2.797  10.825 -2.2935 -0.6108  1.2318
13409TIP3   OH261717   2.004   5.887   1.840 -0.0645  0.5721  0.0148
13409TIP3    H161718   1.969   5.892   1.751 -0.1528 -0.0875  0.0072
13409TIP3    H261719   2.053   5.968   1.851  1.8203 -0.2681 -1.4335
13410TIP3   OH261720   1.344   5.650   1.600  0.4691  0.2466 -0.6710
13410TIP3    H161721   1.406   5.719   1.625  1.4974 -0.1574 -2.0105
13410TIP3    H261722   1.378   5.572   1.643 -0.6909  0.5040  0.8386
13411TIP3   OH261723   3.391   5.483  14.920 -0.1468  0.9228 -0.0353
13411TIP3    H161724   3.388   5.443  14.833 -0.8902  1.9404 -0.5102
13411TIP3    H261725   3.481   5.515  14.929  0.0093  0.5699 -0.3162
13412TIP3   OH261726   2.857   2.100  10.309 -0.2317  0.2904  0.0808
13412TIP3    H161727   2.837   2.010  10.337  1.4616 -0.4770 -1.0742
13412TIP3    H261728   2.913   2.135  10.379 -1.0346  0.5502  0.6182
13413TIP3   OH261729   2.468   0.417  12.127 -0.1490  0.1930  0.6470
13413TIP3    H161730   2.434   0.501  12.095 -0.3688  0.6718  2.0761
13413TIP3    H261731   2.417   0.398  12.205 -0.8917 -1.8690 -0.2662
13414TIP3   OH261732   3.024   5.312   1.470  0.1565  0.0372 -0.4619
13414TIP3    H161733   3.081   5.328   1.395  0.7909  0.4808  0.1034
13414TIP3    H261734   3.075   5.340   1.545 -1.0415  1.0408  0.0172
13415TIP3   OH261735   4.041   5.555  11.946 -0.3943  0.1857 -0.3624
13415TIP3    H161736   4.069   5.547  11.855 -0.0158  1.4048 -0.3806
13415TIP3    H261737   3.970   5.619  11.944 -1.0983 -0.5688  0.0793
13416TIP3   OH261738   4.293   0.312   5.739 -0.2421 -0.2873 -0.2654
13416TIP3    H161739   4.260   0.256   5.669 -2.7540  0.6288  0.0908
13416TIP3    H261740   4.257   0.274   5.819  1.4331 -0.4953  0.4365
13417TIP3   OH261741   3.768   4.602  14.355 -0.8154 -0.3265 -0.4414
13417TIP3    H161742   3.813   4.635  14.277 -1.2204 -2.5656 -1.7107
13417TIP3    H261743   3.718   4.677  14.387  3.2238  2.1836  0.7830
13418TIP3   OH261744   2.960   0.681  13.707 -0.0431  0.0590  0.0415
13418TIP3    H161745   3.009   0.761  13.691 -0.6158  0.5997  0.9157
13418TIP3    H261746   2.910   0.666  13.627 -0.5938  1.0566  0.1895
13419TIP3   OH261747   3.800   1.808  14.014 -0.3037 -0.1801 -0.4918
13419TIP3    H161748   3.874   1.800  13.954  1.7330 -0.0570  1.8136
13419TIP3    H261749   3.752   1.885  13.983  2.1849  1.5075 -0.5327
13420TIP3   OH261750   0.722   2.950  11.756 -0.1490  0.2545 -0.3084
13420TIP3    H161751   0.749   3.039  11.781  0.6734 -0.0983  0.1028
13420TIP3    H261752   0.638   2.962  11.713 -0.2602  1.1933  0.1359
13421TIP3   OH261753   3.161   3.572   1.544  0.2280 -0.4363  0.1970
13421TIP3    H161754   3.218   3.626   1.599  1.4363 -1.1352 -0.3276
13421TIP3    H261755   3.209   3.564   1.461 -1.3541  0.2240 -0.8273
13422TIP3   OH261756   1.344   0.316   3.068  0.2390  0.3511  0.3865
13422TIP3    H161757   1.302   0.348   3.148 -0.3954  1.4709 -0.3552
13422TIP3    H261758   1.379   0.394   3.026  0.8627 -0.2609 -0.2656
13423TIP3   OH261759   2.132   2.676  11.530  0.0025 -0.0228 -0.0270
13423TIP3    H161760   2.124   2.769  11.510 -0.3112  0.0305  0.3358
13423TIP3    H261761   2.095   2.667  11.618 -0.2693 -0.5393 -0.1907
13424TIP3   OH261762   4.396   5.713  12.829 -0.0343  0.4961  0.2171
13424TIP3    H161763   4.306   5.722  12.861 -0.1580 -0.5972  0.1923
13424TIP3    H261764   4.437   5.651  12.889  0.3158 -0.0295 -0.5538
13425TIP3   OH261765   5.988   3.091   5.671 -0.1545 -0.2973 -0.1915
13425TIP3    H161766   5.894   3.077   5.656 -0.7589  2.0843  0.8201
13425TIP3    H261767   5.997   3.091   5.766  1.3168 -2.6003 -0.2532
13426TIP3   OH261768   2.325   0.253   0.405  0.0964  0.0422  0.0123
13426TIP3    H161769   2.416   0.239   0.379  0.1220 -1.9677  1.0327
13426TIP3    H261770   2.278   0.265   0.322  0.6879 -2.9307 -0.8514
13427TIP3   OH261771   6.623   5.924  15.907  0.1539 -0.5008 -0.0063
13427TIP3    H161772   6.558   5.993  15.893  0.8195 -0.0982 -1.3434
13427TIP3    H261773   6.700   5.971  15.939  0.4399 -0.6892 -0.4136
13428TIP3   OH261774   6.184   3.495  10.279  0.0391 -0.0017 -0.1650
13428TIP3    H161775   6.156   3.448  10.200  1.2257 -1.4735  0.2291
13428TIP3    H261776   6.241   3.433  10.325 -0.0674  1.0620  1.5165
13429TIP3   OH261777   6.242   2.833  10.413 -0.4344 -0.1238  0.1701
13429TIP3    H161778   6.189   2.909  10.435  0.1394  0.0548  0.9533
13429TIP3    H261779   6.180   2.773  10.370 -1.5939 -0.4326  2.1464
13430TIP3   OH261780   0.954   3.592   0.182  0.3787  0.3156  0.1418
13430TIP3    H161781   1.013   3.612   0.255  0.6743  2.5171 -0.6101
13430TIP3    H261782   1.010   3.596   0.104 -0.3603  0.4017 -0.3966
13431TIP3   OH261783   0.653   3.981  16.304  0.1150 -0.2259 -0.4178
13431TIP3    H161784   0.662   3.989  16.399  0.0474 -0.9994 -0.3383
13431TIP3    H261785   0.674   3.889  16.286  2.9040  0.5171 -1.4885
13432TIP3   OH261786   3.538   3.511  15.065 -0.0046  0.0133 -0.0393
13432TIP3    H161787   3.597   3.584  15.083  0.1969 -0.2984  0.6009
13432TIP3    H261788   3.544   3.455  15.143  0.8203 -1.3387 -1.0321
13433TIP3   OH261789   0.707   2.001  14.000  0.1241 -0.1922 -0.7068
13433TIP3    H161790   0.713   1.907  13.980  1.0342 -0.1788 -0.5385
13433TIP3    H261791   0.708   2.043  13.914 -0.3358 -0.3361 -0.7851
13434TIP3   OH261792   5.360   4.032  14.041  0.5799 -0.0014  0.1762
13434TIP3    H161793   5.406   3.999  14.118 -0.5827  0.8986  1.3114
13434TIP3    H261794   5.287   4.083  14.077  1.3594  2.4368 -1.4961
13435TIP3   OH261795   2.634   2.028   2.414 -0.6246 -0.2828  0.1553
13435TIP3    H161796   2.613   1.995   2.326 -2.5380 -0.7197  0.7214
13435TIP3    H261797   2.650   2.121   2.402  0.8138 -0.6260 -0.8787
13436TIP3   OH261798   6.089   2.216  14.335 -0.0537 -0.2493  0.7489
13436TIP3    H161799   6.155   2.208  14.404 -1.1573 -0.1616  1.8395
13436TIP3    H261800   6.051   2.128  14.328 -1.0840  0.1275  1.4322
13437TIP3   OH261801   5.868   0.552  10.421 -0.6306 -0.6592 -0.5057
13437TIP3    H161802   5.941   0.608  10.396 -1.4634  1.9913  2.3846
13437TIP3    H261803   5.800   0.570  10.356 -0.6306  1.2791 -0.0274
13438TIP3   OH261804   6.647   2.529   6.655 -0.3010 -0.4806  0.3120
13438TIP3    H161805   6.685   2.612   6.685 -0.9189  0.7315 -2.0476
13438TIP3    H261806   6.577   2.554   6.595 -0.5256 -2.7150 -0.4644
13439TIP3   OH261807   5.593   4.193   3.003 -0.6534  0.0433 -0.2191
13439TIP3    H161808   5.627   4.109   3.033 -2.3988 -0.9818 -0.9849
13439TIP3    H261809   5.611   4.253   3.076  0.6014 -0.9630  0.3483
13440TIP3   OH261810   5.146   0.794  13.530  0.0241 -0.0637  0.7064
13440TIP3    H161811   5.199   0.789  13.450 -0.6181 -0.5832  0.3064
13440TIP3    H261812   5.106   0.708  13.538  0.3790 -0.1469  1.8093
13441TIP3   OH261813   1.595   4.557  16.623  0.1505  0.3089 -0.3022
13441TIP3    H161814   1.684   4.528  16.642  0.3086  0.6409 -0.5183
13441TIP3    H261815   1.544   4.532  16.701  0.6518  1.0653  0.2876
13442TIP3   OH261816   2.208   1.602   3.772  0.6736  0.8043  0.5641
13442TIP3    H161817   2.156   1.679   3.795 -2.3402 -1.2392  1.2241
13442TIP3    H261818   2.192   1.590   3.678 -1.7015 -0.7886  1.0727
13443TIP3   OH261819   0.834   4.052  11.743 -0.4343  0.4557  0.0222
13443TIP3    H161820   0.807   4.011  11.660  0.5421 -0.1243 -0.0347
13443TIP3    H261821   0.916   4.096  11.722 -0.1468  0.2555  0.6934
13444TIP3   OH261822   5.564   4.336  12.465  0.6296 -0.5323 -0.1991
13444TIP3    H161823   5.657   4.316  12.450  0.9332  0.6625 -0.0351
13444TIP3    H261824   5.533   4.369  12.381  0.9299  1.0935  0.3009
13445TIP3   OH261825   2.629   6.781   4.406 -0.4883 -0.4854  0.3690
13445TIP3    H161826   2.560   6.837   4.372  0.2849  0.3723  0.1666
13445TIP3    H261827   2.708   6.810   4.360  0.4336  0.1086  2.2318
13446TIP3   OH261828   0.891   4.870  11.096 -0.3637  0.2798 -0.2247
13446TIP3    H161829   0.852   4.946  11.053  0.5703  0.0363 -1.5800
13446TIP3    H261830   0.924   4.816  11.024  2.3060  0.3965  0.7887
13447TIP3   OH261831   6.322   6.120   6.580 -0.5271 -0.3689  0.2520
13447TIP3    H161832   6.255   6.176   6.540 -1.3263  0.2796  2.3512
13447TIP3    H261833   6.399   6.132   6.525 -1.6554  0.1341 -1.2969
13448TIP3   OH261834   1.267   1.956   0.322 -0.0800 -0.8903  0.0430
13448TIP3    H161835   1.280   2.043   0.359 -1.6395 -1.3689  1.8203
13448TIP3    H261836   1.195   1.966   0.260 -1.1067 -1.1401  1.1775
13449TIP3   OH261837   6.100   3.715  14.082 -0.4045 -0.7575  0.0346
13449TIP3    H161838   6.070   3.762  14.004  0.3228  0.5688  0.5217
13449TIP3    H261839   6.024   3.714  14.140 -0.4695 -0.3213 -0.0407
13450TIP3   OH261840   3.539   1.241  14.991  0.3557 -0.3116 -0.2159
13450TIP3    H161841   3.612   1.269  15.046 -1.2156  0.0631  1.8106
13450TIP3    H261842   3.517   1.319  14.939 -0.2149  0.4147  1.0677
13451TIP3   OH261843   2.497   3.580   1.292  0.3946  0.4957  0.6213
13451TIP3    H161844   2.465   3.623   1.371 -0.3690 -0.3605  0.8013
13451TIP3    H261845   2.570   3.526   1.322  0.2542  0.3522  0.7105
13452TIP3   OH261846   0.813   5.956   5.211 -0.0323  0.2093 -0.4397
13452TIP3    H161847   0.747   5.952   5.141  0.9070 -1.5861 -1.3010
13452TIP3    H261848   0.894   5.928   5.168  1.4561  2.8731  0.4526
13453TIP3   OH261849   5.602   1.179  11.810  0.0890 -0.3998  0.0653
13453TIP3    H161850   5.623   1.139  11.726 -1.4569 -0.1302 -0.4757
13453TIP3    H261851   5.624   1.271  11.799 -0.0940 -0.3685 -0.0471
13454TIP3   OH261852   1.565   1.228  15.558 -0.0584 -0.3135  0.0116
13454TIP3    H161853   1.621   1.296  15.597  0.7516 -0.5087 -0.7548
13454TIP3    H261854   1.482   1.272  15.541 -0.2772 -0.1155  1.5196
13455TIP3   OH261855   4.073   4.729   4.921 -0.2981 -0.0829 -0.3591
13455TIP3    H161856   4.113   4.652   4.962 -1.3964 -0.2305  0.4800
13455TIP3    H261857   3.994   4.745   4.972 -0.7392  0.8579 -1.2975
13456TIP3   OH261858   0.099   2.073  12.928 -0.5327  0.6145 -0.1055
13456TIP3    H161859   0.020   2.045  12.976  0.4389 -0.2303  1.0837
13456TIP3    H261860   0.111   2.164  12.953 -1.1977  0.7766 -0.3741
13457TIP3   OH261861   1.673   3.106   3.657 -0.1649 -0.4152  0.7925
13457TIP3    H161862   1.738   3.102   3.727  0.5148 -0.6158  0.1633
13457TIP3    H261863   1.721   3.079   3.579 -0.1690  2.2930 -0.2714
13458TIP3   OH261864   4.499   1.619  11.449  0.7383  0.2114 -0.5697
13458TIP3    H161865   4.582   1.648  11.411  0.6229  0.2326 -0.8063
13458TIP3    H261866   4.515   1.527  11.473  0.8557  0.2389 -0.5436
13459TIP3   OH261867   6.261   4.007   2.154  0.2169 -0.6970  0.2872
13459TIP3    H161868   6.230   4.075   2.214 -1.2935  0.2176 -1.4449
13459TIP3    H261869   6.187   3.947   2.145  0.2545 -0.5794 -0.9896
13460TIP3   OH261870   2.272   5.834   2.426 -0.7418  0.3140 -0.7378
13460TIP3    H161871   2.341   5.810   2.488 -2.8213 -2.4410  0.7280
13460TIP3    H261872   2.256   5.754   2.376 -3.2661  0.6704 -0.5931
13461TIP3   OH261873   0.173   2.248  11.878  0.2979  0.4393  0.6458
13461TIP3    H161874   0.250   2.198  11.905 -0.0595  0.0223  0.9017
13461TIP3    H261875   0.186   2.263  11.784  1.2991  1.4641  0.9165
13462TIP3   OH261876   4.460   5.370  13.853  0.5745  0.1104 -0.4850
13462TIP3    H161877   4.377   5.391  13.810 -0.3681 -0.3642  1.0142
13462TIP3    H261878   4.477   5.279  13.828 -1.4041 -1.1142  2.1917
13463TIP3   OH261879   5.240   4.022   2.356  0.0149 -0.4972 -0.5214
13463TIP3    H161880   5.322   4.064   2.329 -0.3279 -0.3547 -1.3367
13463TIP3    H261881   5.205   4.080   2.423  0.3468 -0.3233 -0.4931
13464TIP3   OH261882   2.088   4.221  13.956 -0.5777  0.7073  0.2785
13464TIP3    H161883   2.169   4.182  13.923 -1.5464 -0.2574 -1.0676
13464TIP3    H261884   2.018   4.172  13.912 -1.8875  2.1195  0.7017
13465TIP3   OH261885   1.117   4.461  16.524  0.4242 -0.1820  0.0104
13465TIP3    H161886   1.104   4.541  16.575  0.9728  1.1360 -1.8046
13465TIP3    H261887   1.035   4.450  16.475  0.6588 -0.2468 -0.3719
13466TIP3   OH261888   4.807   0.911   1.028  0.1446  0.5188  0.6677
13466TIP3    H161889   4.815   0.842   1.094  1.2330  0.3306  0.3554
13466TIP3    H261890   4.735   0.882   0.972  0.1097  0.0085  0.9711
13467TIP3   OH261891   6.525   0.262   1.268 -0.3964  0.1644  0.2043
13467TIP3    H161892   6.504   0.306   1.351  1.6146 -1.0285  1.4211
13467TIP3    H261893   6.595   0.316   1.229 -0.5509  0.1008 -0.1666
13468TIP3   OH261894   3.834   5.103  12.205 -0.2303  0.3717  0.1150
13468TIP3    H161895   3.745   5.139  12.211  0.2468  1.3688  2.1376
13468TIP3    H261896   3.824   5.010  12.224 -0.9809  0.2064 -1.0056
13469TIP3   OH261897   3.407   5.387  14.658  0.6198  0.3583  0.2080
13469TIP3    H161898   3.395   5.458  14.596 -1.8165 -0.2200 -0.0854
13469TIP3    H261899   3.401   5.307  14.605  0.8505 -0.0995  0.8576
13470TIP3   OH261900   5.158   6.040   4.728 -0.7678 -0.5801 -0.2113
13470TIP3    H161901   5.162   5.990   4.810 -0.2352 -1.2224 -0.6160
13470TIP3    H261902   5.164   5.973   4.660 -1.4700 -0.0706 -0.7798
13471TIP3   OH261903   1.344   5.130  12.133  0.3182  0.2375  0.1686
13471TIP3    H161904   1.291   5.200  12.094  0.0193  0.1574  0.4315
13471TIP3    H261905   1.401   5.101  12.062  1.2392  1.5092  0.3494
13472TIP3   OH261906   0.796   3.294  11.538 -0.0600 -0.0110 -0.3517
13472TIP3    H161907   0.776   3.271  11.628  0.5259  0.8639  0.0217
13472TIP3    H261908   0.713   3.283  11.491 -0.0466 -1.7806 -0.0047
13473TIP3   OH261909   5.679   2.975  13.617 -0.2596 -0.0903 -0.1784
13473TIP3    H161910   5.596   2.963  13.571  0.0435 -0.6785 -0.5946
13473TIP3    H261911   5.655   3.016  13.700 -0.8155  1.0023 -0.8534
13474TIP3   OH261912   5.792   4.106  13.127  0.5652  0.5836  0.3094
13474TIP3    H161913   5.710   4.093  13.174  1.5146  1.2050  2.2317
13474TIP3    H261914   5.772   4.079  13.037 -1.9653  1.5020  0.5020
13475TIP3   OH261915   6.194   5.668   6.201  0.4488  0.7628 -0.2972
13475TIP3    H161916   6.249   5.624   6.265  1.9661  1.5484 -0.9957
13475TIP3    H261917   6.222   5.632   6.116 -1.7585 -0.5210 -0.5689
13476TIP3   OH261918   6.669   1.770  10.559 -0.1697 -0.2414 -0.3244
13476TIP3    H161919   6.640   1.750  10.470 -0.1906 -1.2118 -0.1094
13476TIP3    H261920   6.665   1.686  10.605  2.5972 -0.3796 -0.1810
13477TIP3   OH261921   3.824   5.870   2.748  0.2308  0.3350  0.5189
13477TIP3    H161922   3.909   5.914   2.737  0.6342 -0.4519  0.4080
13477TIP3    H261923   3.843   5.778   2.728 -0.7835  0.2540 -0.1245
13478TIP3   OH261924   4.572   1.217  14.305  0.4108  0.4213  0.4777
13478TIP3    H161925   4.547   1.273  14.232  0.1311  0.0523  0.2847
13478TIP3    H261926   4.494   1.165  14.324 -0.0437  1.6321  2.1215
13479TIP3   OH261927   3.991   1.281  13.961 -0.4394  0.5441 -0.1157
13479TIP3    H161928   4.030   1.289  14.048 -0.5218  1.1845 -0.1359
13479TIP3    H261929   3.946   1.196  13.963  1.0437 -0.2826 -0.1395
13480TIP3   OH261930   4.912   5.058  11.841  0.3079  0.0116  0.5110
13480TIP3    H161931   5.007   5.058  11.833  0.3090 -2.2038 -0.1566
13480TIP3    H261932   4.896   5.014  11.925 -0.1358  4.3702  2.9838
13481TIP3   OH261933   3.180   3.015   4.970  0.2199 -0.6795  0.3204
13481TIP3    H161934   3.146   2.942   5.021 -0.9765 -1.6824 -1.8223
13481TIP3    H261935   3.103   3.063   4.940  0.9444  0.7222  0.5748
13482TIP3   OH261936   0.021   2.348  14.811  0.4674  0.3469 -0.1528
13482TIP3    H161937  -0.049   2.282  14.813 -0.4882  1.3157  1.9678
13482TIP3    H261938  -0.003   2.406  14.739 -2.0921  1.7267  1.6300
13483TIP3   OH261939   5.347   3.495   5.101 -0.6003  0.0653  0.3465
13483TIP3    H161940   5.360   3.401   5.087 -1.0391  0.1491 -0.6954
13483TIP3    H261941   5.348   3.533   5.013  0.1817  1.1266  0.7965
13484TIP3   OH261942   2.254   2.280  12.305  0.3713  0.5796 -0.4350
13484TIP3    H161943   2.321   2.323  12.357  0.8873 -0.6345 -0.0704
13484TIP3    H261944   2.226   2.206  12.358 -0.2001  0.2077 -1.2323
13485TIP3   OH261945   0.917   6.045  17.028  0.0560  0.4140  0.1655
13485TIP3    H161946   0.899   6.139  17.023 -1.1970  0.1984  0.2856
13485TIP3    H261947   0.871   6.016  17.107  0.5134 -0.2806  0.1848
13486TIP3   OH261948   2.567   3.573  12.933  0.5549  0.1436  0.0072
13486TIP3    H161949   2.605   3.642  12.880  0.6262 -0.6401 -0.9827
13486TIP3    H261950   2.475   3.570  12.906  0.4554  0.1182  0.3408
13487TIP3   OH261951   0.242   5.934   5.617  0.0954 -0.0443  0.3073
13487TIP3    H161952   0.151   5.962   5.614  0.3895  0.9809  0.4831
13487TIP3    H261953   0.247   5.872   5.690 -0.9545 -2.0427 -1.2291
13488TIP3   OH261954   2.465   0.824   6.039  0.4353 -0.5127  0.6145
13488TIP3    H161955   2.442   0.917   6.038 -0.9797 -0.6838  3.6734
13488TIP3    H261956   2.383   0.779   6.020  0.2064 -1.0938  2.7158
13489TIP3   OH261957   1.419   1.890  16.312 -0.8592  0.2486 -0.2815
13489TIP3    H161958   1.394   1.835  16.386 -1.1855 -0.7637 -1.1231
13489TIP3    H261959   1.513   1.905  16.324 -0.7206 -0.6806 -0.1631
13490TIP3   OH261960   4.201   5.919   0.863  0.5127 -0.5542 -0.1083
13490TIP3    H161961   4.256   5.875   0.928 -0.6891 -0.7800  0.7983
13490TIP3    H261962   4.262   5.952   0.798  1.9198  0.9023  1.8356
13491TIP3   OH261963   2.155   2.740   1.128  0.5831  0.5590 -0.0006
13491TIP3    H161964   2.097   2.730   1.053 -0.0733  0.7235  0.4742
13491TIP3    H261965   2.180   2.651   1.151 -0.4495  0.3833  0.5214
13492TIP3   OH261966   4.184   1.402   1.129 -0.1860  0.7780  0.1578
13492TIP3    H161967   4.276   1.392   1.103 -0.2328  1.3804 -0.2656
13492TIP3    H261968   4.155   1.481   1.083 -1.8933 -1.2375 -2.5459
13493TIP3   OH261969   3.554   0.095  16.906  0.1796 -0.3754 -0.1970
13493TIP3    H161970   3.606   0.071  16.830 -1.8302 -1.7606 -1.2229
13493TIP3    H261971   3.571   0.188  16.918  0.7611 -0.1733 -2.1762
13494TIP3   OH261972   2.513   6.276   0.001 -0.0159 -0.5283 -0.1917
13494TIP3    H161973   2.533   6.236  -0.084  2.2082 -0.3973  0.2112
13494TIP3    H261974   2.441   6.336  -0.017  2.7653  2.3690 -2.8890
13495TIP3   OH261975   6.371   4.030   2.857 -0.2342  0.3268  0.3675
13495TIP3    H161976   6.349   3.938   2.874  2.3875 -0.6773 -1.0823
13495TIP3    H261977   6.418   4.058   2.936  4.1783 -1.5763 -1.2775
13496TIP3   OH261978   4.926   4.454   2.750  0.2355  0.2534  0.7452
13496TIP3    H161979   4.926   4.452   2.846 -1.7889 -1.5149  0.7782
13496TIP3    H261980   4.856   4.394   2.724 -0.6989  2.2646 -1.8313
13497TIP3   OH261981   4.815   1.506   5.277 -0.1495 -0.2311 -0.2989
13497TIP3    H161982   4.728   1.468   5.270  0.4482 -1.6523 -0.3894
13497TIP3    H261983   4.845   1.517   5.187 -0.8263  1.7746 -0.3267
13498TIP3   OH261984   6.028   0.419  17.092  0.8602 -0.2691  0.0434
13498TIP3    H161985   6.038   0.473  17.170  1.6288 -2.0403  1.2463
13498TIP3    H261986   5.948   0.451  17.050  0.9969  1.3945  0.9808
13499TIP3   OH261987   2.566   0.104   4.655 -0.3302  0.4464  0.2900
13499TIP3    H161988   2.523   0.078   4.573 -1.5554  1.5664  0.5497
13499TIP3    H261989   2.558   0.199   4.658  1.3918  0.6122  0.8187
13500TIP3   OH261990   2.121   5.561   5.847  0.2679  0.4396 -0.6561
13500TIP3    H161991   2.049   5.619   5.820  0.3507  1.6813  1.6057
13500TIP3    H261992   2.083   5.506   5.915  1.1176  0.1485 -0.4080
13501TIP3   OH261993   4.113   3.473  13.680  0.1992  0.1069 -0.3595
13501TIP3    H161994   4.161   3.486  13.598  0.7210  1.0120  0.0781
13501TIP3    H261995   4.028   3.439  13.652  0.2971  0.5791 -1.2921
13502TIP3   OH261996   1.982   2.691   4.742 -0.2449  0.0970 -0.0544
13502TIP3    H161997   1.902   2.639   4.751  1.0225 -1.6460  2.4188
13502TIP3    H261998   1.993   2.733   4.827  0.3015  2.1645 -1.0979
13503TIP3   OH261999   2.086   3.270  13.506 -0.2499 -0.5394 -0.4560
13503TIP3    H162000   2.097   3.181  13.539 -1.5671 -0.1108  1.2942
13503TIP3    H262001   2.174   3.298  13.481  0.7514 -1.1568  2.1476
13504TIP3   OH262002   6.666   2.218   5.276  0.0741 -0.3572  0.4989
13504TIP3    H162003   6.697   2.295   5.228  0.7283 -0.6674  0.4129
13504TIP3    H262004   6.729   2.149   5.254 -0.8727 -1.1005  0.0668
13505TIP3   OH262005   5.031   5.748  16.617 -0.4932  0.2181 -0.0770
13505TIP3    H162006   5.097   5.687  16.651 -1.0318  0.5102  1.6148
13505TIP3    H262007   4.978   5.695  16.558 -0.6648 -0.8574  1.0042
13506TIP3   OH262008   3.436   6.569  12.567  0.1219  0.6162 -0.1709
13506TIP3    H162009   3.401   6.649  12.527  3.5083  2.1966 -0.3489
13506TIP3    H262010   3.493   6.600  12.637 -1.9148 -1.9166  2.8931
13507TIP3   OH262011   1.589   5.723   1.726  0.8604  0.0853 -0.1395
13507TIP3    H162012   1.666   5.705   1.780  0.4357 -0.7276  0.2035
13507TIP3    H262013   1.517   5.733   1.788  0.6274  0.5634 -0.4740
13508TIP3   OH262014   6.113   1.158   5.620  0.1522  0.2500 -0.5120
13508TIP3    H162015   6.201   1.122   5.619  0.7172  1.5616 -1.2336
13508TIP3    H262016   6.083   1.147   5.711  0.5576 -1.3233 -0.5543
13509TIP3   OH262017   2.181   6.589   5.047  0.3361  0.3479 -0.1774
13509TIP3    H162018   2.233   6.668   5.058  0.0686  0.7209 -1.4151
13509TIP3    H262019   2.229   6.521   5.095  0.2519  1.3731  1.4023
13510TIP3   OH262020   5.084   0.738  17.028  0.1126 -0.3594 -0.0936
13510TIP3    H162021   5.051   0.723  16.940 -0.5321 -1.0485  0.2514
13510TIP3    H262022   5.162   0.684  17.035 -0.6185 -1.4039  0.2049
13511TIP3   OH262023   4.727   5.741  16.424 -0.2126  0.3729  0.2691
13511TIP3    H162024   4.750   5.655  16.461 -0.8034  0.4334  0.7921
13511TIP3    H262025   4.723   5.799  16.500  0.1037  0.8506 -0.0751
13512TIP3   OH262026   3.079   5.797   3.026 -0.0324  0.4044 -0.0905
13512TIP3    H162027   3.063   5.877   3.076  1.7743  0.7591 -0.0089
13512TIP3    H262028   3.128   5.741   3.086 -0.2330 -0.2761 -0.5572
13513TIP3   OH262029   1.230   0.890   3.038  0.1715 -0.2455 -0.3513
13513TIP3    H162030   1.272   0.917   2.956  0.7299  0.9821  0.3071
13513TIP3    H262031   1.295   0.908   3.105 -0.4253 -0.8640  0.4079
13514TIP3   OH262032   6.591   6.510   4.665 -0.2757 -0.1220 -0.2449
13514TIP3    H162033   6.504   6.530   4.632  0.6736  0.0434 -2.8995
13514TIP3    H262034   6.595   6.415   4.667 -0.1471 -0.1461 -1.2769
13515TIP3   OH262035   5.742   5.399   2.056 -0.8181 -0.5210 -0.0412
13515TIP3    H162036   5.811   5.391   1.990 -1.1179 -2.3562 -0.1686
13515TIP3    H262037   5.786   5.439   2.131  0.4813 -1.8683 -0.0288
13516TIP3   OH262038   6.559   4.625  13.452  0.2650  1.2740  0.3351
13516TIP3    H162039   6.594   4.685  13.517  1.0447  1.5444 -0.3255
13516TIP3    H262040   6.617   4.549  13.456  0.1939  1.2060  0.0966
13517TIP3   OH262041   1.873   0.234   0.049  0.4427 -0.2640  0.1582
13517TIP3    H162042   1.837   0.181  -0.023 -0.0855 -1.1430  1.0332
13517TIP3    H262043   1.826   0.202   0.127 -0.2253  1.8236  0.6723
13518TIP3   OH262044   3.812   5.185  15.930  0.1128  0.2210  0.2920
13518TIP3    H162045   3.799   5.279  15.926 -1.3392  0.0203 -0.6760
13518TIP3    H262046   3.882   5.172  15.993  0.3679  1.9476  0.3867
13519TIP3   OH262047   6.586   5.488  10.515  0.8535  0.1557  0.3893
13519TIP3    H162048   6.490   5.493  10.516  0.8439 -0.1296  1.4474
13519TIP3    H262049   6.613   5.567  10.469  0.1365  0.7107  0.9014
13520TIP3   OH262050   0.697   5.586   0.885 -0.4400  0.0122 -0.3655
13520TIP3    H162051   0.720   5.678   0.873 -1.3125  0.1463 -1.1665
13520TIP3    H262052   0.659   5.582   0.973 -0.2883  0.3956 -0.2832
13521TIP3   OH262053   6.060   4.314  14.517 -0.1026 -0.0363  1.0378
13521TIP3    H162054   6.068   4.292  14.425  0.6826 -2.2182  1.5577
13521TIP3    H262055   6.118   4.389  14.530  2.1473 -1.5325  0.2807
13522TIP3   OH262056   1.796   2.460  13.184 -0.0760 -0.1515  0.1688
13522TIP3    H162057   1.791   2.492  13.274 -0.5522  0.2648 -0.0000
13522TIP3    H262058   1.865   2.512  13.144  1.2580 -1.4291  0.7166
13523TIP3   OH262059   3.712   2.808   5.435  0.1696 -0.2721  0.2375
13523TIP3    H162060   3.623   2.802   5.401  0.3325  1.2993 -0.5616
13523TIP3    H262061   3.767   2.788   5.359  0.5101 -1.0461  0.6807
13524TIP3   OH262062   3.702   4.868  14.735 -0.2090 -0.1897  0.0981
13524TIP3    H162063   3.662   4.868  14.821  0.0871 -1.2306  0.2518
13524TIP3    H262064   3.680   4.783  14.698 -0.3355  0.2431 -0.8601
13525TIP3   OH262065   6.019   0.253   3.723  0.2425 -0.7799 -0.4987
13525TIP3    H162066   6.108   0.231   3.695  1.1540 -1.4609  2.5712
13525TIP3    H262067   6.030   0.317   3.793 -1.5917 -1.5426  0.5834
13526TIP3   OH262068   1.256   4.836  14.673  0.6415  0.1372 -0.1635
13526TIP3    H162069   1.281   4.792  14.592  2.8248 -1.7465  1.4083
13526TIP3    H262070   1.321   4.905  14.685  0.0808  0.6801 -0.2220
13527TIP3   OH262071   5.036   4.573   0.698  0.4624  0.1303  0.0135
13527TIP3    H162072   5.014   4.664   0.680  0.2204 -0.4746 -3.4445
13527TIP3    H262073   5.122   4.561   0.657  0.1316 -1.3710 -0.3042
13528TIP3   OH262074   0.691   3.684  15.025 -0.1319  0.2518 -0.7396
13528TIP3    H162075   0.656   3.770  15.003 -1.3448 -0.4428 -1.5969
13528TIP3    H262076   0.617   3.624  15.015  0.1190 -0.6342  1.8533
13529TIP3   OH262077   2.754   2.233  17.096 -0.1825  0.0975  0.3068
13529TIP3    H162078   2.820   2.174  17.132 -1.9315 -0.3342  3.1940
13529TIP3    H262079   2.675   2.179  17.092 -0.6484  0.8544 -2.1245
13530TIP3   OH262080   5.671   5.032  10.647  0.0537  0.0011  0.0515
13530TIP3    H162081   5.626   5.110  10.615  0.6503 -0.1517 -1.1939
13530TIP3    H262082   5.676   5.045  10.742  1.9921  2.5115 -0.2971
13531TIP3   OH262083   1.165   2.276  13.738  0.0420  0.4528  0.0192
13531TIP3    H162084   1.244   2.299  13.787  0.0818  0.5334 -0.0811
13531TIP3    H262085   1.188   2.292  13.647 -0.2962  1.1056  0.0360
13532TIP3   OH262086   1.302   2.472   0.136  0.2948 -0.1064 -0.4446
13532TIP3    H162087   1.222   2.455   0.186  0.7949  0.6296  0.6602
13532TIP3    H262088   1.368   2.417   0.177  0.4925 -0.2345 -0.9353
13533TIP3   OH262089   6.438   4.585  12.976  0.3346  0.0157 -0.1976
13533TIP3    H162090   6.352   4.551  13.001  0.7174 -0.4555  0.5114
13533TIP3    H262091   6.422   4.635  12.896 -0.3538 -1.2560 -0.8786
13534TIP3   OH262092   0.317   1.506   6.402  0.1219  0.0824 -0.2565
13534TIP3    H162093   0.270   1.504   6.319 -0.2897  0.0066 -0.0241
13534TIP3    H262094   0.301   1.421   6.442  1.7416 -0.5515 -0.8702
13535TIP3   OH262095   6.503   2.669  16.630  0.0383 -0.0193 -0.1795
13535TIP3    H162096   6.415   2.705  16.634  0.1627  0.3054 -0.2944
13535TIP3    H262097   6.497   2.584  16.674 -0.6214 -0.5960 -1.3358
13536TIP3   OH262098   0.834   1.954  11.064 -0.3019 -0.1040  0.0514
13536TIP3    H162099   0.917   1.980  11.104  0.5426  0.1694 -1.7491
13536TIP3    H262100   0.859   1.892  10.995 -1.6793 -0.6465  0.0044
13537TIP3   OH262101   2.106   0.561   0.743  0.2250 -0.3512 -0.6367
13537TIP3    H162102   2.138   0.554   0.653  2.3882 -1.0251  0.1300
13537TIP3    H262103   2.161   0.628   0.783 -0.1177 -0.6934  0.4417
13538TIP3   OH262104   0.525   6.379  13.894 -0.4328  0.2362 -0.5251
13538TIP3    H162105   0.615   6.398  13.919 -0.3104  0.3245 -1.0208
13538TIP3    H262106   0.529   6.361  13.800 -1.0160  0.7723 -0.6604
13539TIP3   OH262107   2.088   3.911  14.741  0.8698 -0.4012 -1.0879
13539TIP3    H162108   2.179   3.899  14.769  1.0550 -0.6304 -1.7738
13539TIP3    H262109   2.092   3.905  14.645 -0.0563 -1.7390 -1.0632
13540TIP3   OH262110   6.161   0.425  13.532  0.0725  0.0457  0.3456
13540TIP3    H162111   6.243   0.447  13.578  0.6157  1.4653 -1.2034
13540TIP3    H262112   6.180   0.442  13.440 -2.1436  1.0263  0.0020
13541TIP3   OH262113   3.411   0.719   1.743 -0.3090 -0.4159 -0.2471
13541TIP3    H162114   3.376   0.711   1.832  0.3737  2.1345  0.3504
13541TIP3    H262115   3.502   0.690   1.751 -0.4851 -0.9948 -0.3197
13542TIP3   OH262116   0.308   1.334   2.989  0.2052 -0.0944 -0.0201
13542TIP3    H162117   0.376   1.270   3.012 -0.1627 -0.3672  0.3412
13542TIP3    H262118   0.355   1.416   2.977  0.5483 -0.1633  0.7423
13543TIP3   OH262119   0.518   0.527   5.190 -0.6654  0.4012  0.7048
13543TIP3    H162120   0.566   0.444   5.195  0.6599  1.0216 -1.0228
13543TIP3    H262121   0.432   0.502   5.155 -0.7811 -0.4033  1.5269
13544TIP3   OH262122   2.113   5.438   4.538  0.1419 -0.1300 -0.0880
13544TIP3    H162123   2.076   5.411   4.455 -0.1148  0.1901 -0.0793
13544TIP3    H262124   2.164   5.362   4.568  1.6084  0.3207 -1.3258
13545TIP3   OH262125   5.454   2.325  15.723 -0.3361 -0.0547 -0.1526
13545TIP3    H162126   5.549   2.341  15.716 -0.0003 -1.1497  1.3765
13545TIP3    H262127   5.416   2.413  15.721  0.9069  0.5819  1.3267
13546TIP3   OH262128   1.342   2.826  11.918  0.3544  0.0786 -0.3349
13546TIP3    H162129   1.378   2.895  11.862  0.5551  0.3347  0.0981
13546TIP3    H262130   1.405   2.754  11.910  0.3251  0.0730 -0.5211
13547TIP3   OH262131   1.101   4.528  11.266 -0.1028 -0.5700 -0.2690
13547TIP3    H162132   1.030   4.465  11.262 -0.4241 -0.2482  0.2415
13547TIP3    H262133   1.128   4.529  11.357  1.1440 -1.3192 -0.6186
13548TIP3   OH262134   1.976   2.861  13.177 -0.1017 -0.2586  0.0537
13548TIP3    H162135   2.057   2.900  13.210  0.1617 -0.9640  0.2730
13548TIP3    H262136   1.908   2.925  13.197  0.3396  0.1545  0.2551
13549TIP3   OH262137   3.524   5.578   4.506 -0.4072 -0.6078  0.7699
13549TIP3    H162138   3.478   5.634   4.444 -0.6209 -0.9585  0.6117
13549TIP3    H262139   3.470   5.500   4.513  0.5744 -1.3798 -0.0355
13550TIP3   OH262140   4.337   3.178  10.249 -0.7683 -0.0803  0.2396
13550TIP3    H162141   4.243   3.184  10.230 -0.6969 -0.3230 -0.1950
13550TIP3    H262142   4.346   3.214  10.338 -1.0946  1.0883 -0.1904
13551TIP3   OH262143   6.556   6.674  13.417  0.0839  0.0765  0.2236
13551TIP3    H162144   6.495   6.600  13.418  0.6498 -0.4736 -1.8423
13551TIP3    H262145   6.633   6.641  13.371  0.8642  1.5810  0.3820
13552TIP3   OH262146   1.614   6.350   3.844  0.6074  0.3235 -0.4942
13552TIP3    H162147   1.583   6.303   3.766 -0.0292  0.4044 -0.2952
13552TIP3    H262148   1.585   6.440   3.831  2.2909  0.8155 -1.1278
13553TIP3   OH262149   0.066   5.074  16.798 -0.3275  0.5583  0.3799
13553TIP3    H162150   0.147   5.121  16.779 -0.7529  0.8553 -0.7574
13553TIP3    H262151   0.094   4.983  16.810 -0.0132  0.2715 -1.9868
13554TIP3   OH262152   3.635   2.448  15.909 -0.4385 -0.2438 -0.2899
13554TIP3    H162153   3.588   2.396  15.974  0.2102 -0.6568 -0.1319
13554TIP3    H262154   3.587   2.531  15.904 -2.2287 -1.3076 -1.4696
13555TIP3   OH262155   3.237   6.020  14.635 -0.3039  0.2087 -0.1581
13555TIP3    H162156   3.148   6.053  14.650 -0.0841  0.5436  0.4246
13555TIP3    H262157   3.229   5.967  14.555 -0.9019  0.7230 -0.4546
13556TIP3   OH262158   4.882   3.034  12.094  0.0614 -0.3281 -0.0762
13556TIP3    H162159   4.919   2.952  12.060  2.2161 -0.0349  1.3457
13556TIP3    H262160   4.866   3.015  12.187  0.5953  0.8560  0.2677
13557TIP3   OH262161   1.534   4.563  16.212  0.2948  0.3731 -0.9781
13557TIP3    H162162   1.461   4.579  16.272  0.2693  0.6793 -1.0893
13557TIP3    H262163   1.565   4.475  16.235 -0.6659 -0.1157 -1.5309
13558TIP3   OH262164   2.435   1.111  11.133 -0.2934 -0.3657  0.0450
13558TIP3    H162165   2.418   1.138  11.223 -2.0533 -1.6514  0.1552
13558TIP3    H262166   2.530   1.102  11.128 -0.1627 -0.2889  1.7743
13559TIP3   OH262167   1.669   0.471   0.376 -0.0472 -0.0109  0.0152
13559TIP3    H162168   1.642   0.552   0.419  0.2925  0.3053 -0.3595
13559TIP3    H262169   1.612   0.464   0.300 -0.4778 -0.4397  0.3686
13560TIP3   OH262170   1.162   4.765  14.390 -0.2851 -0.0549 -0.1938
13560TIP3    H162171   1.167   4.752  14.296 -1.3333  1.1250 -0.4383
13560TIP3    H262172   1.098   4.835  14.402 -0.1360 -0.1369  1.3939
13561TIP3   OH262173   6.426   5.893  13.252 -0.8117 -0.1522 -0.2959
13561TIP3    H162174   6.346   5.845  13.230 -1.7549  1.0758  0.2710
13561TIP3    H262175   6.440   5.951  13.178 -1.4433  0.8271  0.3192
13562TIP3   OH262176   5.835   2.583  16.164  0.8372  0.2336  0.0538
13562TIP3    H162177   5.873   2.576  16.076  1.1051  0.2556  0.1671
13562TIP3    H262178   5.786   2.502  16.176  0.0328  0.6263 -0.4776
13563TIP3   OH262179   3.900   0.444   2.716 -0.0677 -0.0895 -0.3246
13563TIP3    H162180   3.971   0.462   2.777  1.7434 -1.0373 -2.0244
13563TIP3    H262181   3.924   0.360   2.675 -1.5723  0.1297 -1.7668
13564TIP3   OH262182   0.904   1.543   1.560 -0.3509  0.7246  0.1805
13564TIP3    H162183   0.855   1.584   1.632  0.9463  1.0358  0.9225
13564TIP3    H262184   0.893   1.602   1.486 -0.1615  1.3838  0.6706
13565TIP3   OH262185   2.712   3.247  15.963  0.3881 -0.2421  0.0848
13565TIP3    H162186   2.668   3.331  15.975  1.3735 -0.1009  4.0699
13565TIP3    H262187   2.644   3.189  15.929 -1.8749  0.9218  2.2884
13566TIP3   OH262188   3.224   5.651  15.308 -0.4768 -0.3875  0.0653
13566TIP3    H162189   3.290   5.591  15.274 -0.1020 -0.3079  0.6376
13566TIP3    H262190   3.180   5.602  15.377  0.8444  0.4782  1.5846
13567TIP3   OH262191   1.354   0.923  13.262  0.2713  0.7826  0.1228
13567TIP3    H162192   1.266   0.889  13.244  0.9877 -1.6095  0.8396
13567TIP3    H262193   1.342   0.983  13.335 -0.9056  1.4410 -0.5686
13568TIP3   OH262194   5.052   4.502  11.586  0.6871  0.8544  0.3390
13568TIP3    H162195   4.963   4.478  11.611  1.3993 -1.7594  0.6630
13568TIP3    H262196   5.043   4.544  11.501 -0.8300  0.4041  0.2516
13569TIP3   OH262197   2.263   1.212   2.070 -0.3165  0.8393  0.4247
13569TIP3    H162198   2.242   1.137   2.014  0.2183 -0.2841  1.6863
13569TIP3    H262199   2.347   1.190   2.110  1.0619  3.1618 -0.9154
13570TIP3   OH262200   0.543   2.205   5.466  0.8641 -0.6844  0.2567
13570TIP3    H162201   0.453   2.231   5.448  1.2036 -0.4346 -1.2610
13570TIP3    H262202   0.567   2.254   5.545  0.6957  1.8444 -1.1373
13571TIP3   OH262203   2.111   6.564  12.278 -0.0225  0.0107  0.0435
13571TIP3    H162204   2.093   6.658  12.276 -0.7961 -0.1395 -0.8336
13571TIP3    H262205   2.061   6.531  12.352  0.4226  0.3088  0.4893
13572TIP3   OH262206   6.476   1.149   0.979 -0.5692 -0.8527 -0.0430
13572TIP3    H162207   6.561   1.186   1.001 -0.6288  0.0185 -1.1621
13572TIP3    H262208   6.419   1.225   0.967 -1.5070 -1.4218  0.6361
13573TIP3   OH262209   2.509   2.723  13.215 -0.2773 -0.3577  0.8152
13573TIP3    H162210   2.577   2.726  13.147 -0.7079 -0.2390  0.3880
13573TIP3    H262211   2.487   2.630  13.223  0.6285 -0.5290  1.6633
13574TIP3   OH262212   0.497   3.337  11.643  0.7407 -0.3258 -0.4778
13574TIP3    H162213   0.522   3.257  11.688  1.6648 -0.0592 -0.5025
13574TIP3    H262214   0.532   3.408  11.697 -0.5689  0.1014 -0.1435
13575TIP3   OH262215   3.215   0.085   3.574  0.3279  0.0352 -0.2280
13575TIP3    H162216   3.274   0.108   3.503 -1.3286  0.7215 -1.4275
13575TIP3    H262217   3.185   0.169   3.609  0.0215 -0.3002  0.3249
13576TIP3   OH262218   2.023   1.261  17.130  0.3598  0.1251  0.0236
13576TIP3    H162219   1.983   1.177  17.152  0.5142 -0.2678 -1.1110
13576TIP3    H262220   1.973   1.326  17.179  0.3371 -0.6350  1.0347
13577TIP3   OH262221   5.965   6.578   6.557 -0.1398  0.4026  0.1563
13577TIP3    H162222   5.958   6.519   6.482 -1.3787  0.2832  0.3465
13577TIP3    H262223   6.005   6.525   6.626  0.3837  0.3174 -0.2085
13578TIP3   OH262224   6.373   2.224  11.485 -0.2186  0.1555  0.1837
13578TIP3    H162225   6.420   2.216  11.569  1.0607 -1.1238 -0.6030
13578TIP3    H262226   6.359   2.318  11.474  0.2602  0.3991  1.4690
13579TIP3   OH262227   3.262   2.019  15.612 -0.6039 -0.6117  0.3419
13579TIP3    H162228   3.266   2.114  15.606 -1.2995 -0.4632  1.8159
13579TIP3    H262229   3.346   1.992  15.648 -1.0142 -0.3809  1.5147
13580TIP3   OH262230   0.901   5.358   2.340  0.2189  0.7277  0.2581
13580TIP3    H162231   0.867   5.299   2.407 -1.4112  0.8749 -0.3717
13580TIP3    H262232   0.949   5.425   2.388  2.1524 -1.0731  0.9975
13581TIP3   OH262233   2.013   5.159   0.450  0.6160 -0.6758 -0.2575
13581TIP3    H162234   2.104   5.179   0.428  0.6602 -0.1143  0.3716
13581TIP3    H262235   2.018   5.110   0.532  0.3301 -0.0070  0.1743
13582TIP3   OH262236   2.306   3.833   5.126  0.4077 -0.1331 -0.6172
13582TIP3    H162237   2.224   3.878   5.147 -0.0695 -1.1723 -0.2033
13582TIP3    H262238   2.369   3.904   5.112  0.2480  0.6729  2.2539
13583TIP3   OH262239   0.269   3.240  12.464 -0.6329 -0.2553 -0.0022
13583TIP3    H162240   0.200   3.174  12.469  1.5368 -2.6445  0.2837
13583TIP3    H262241   0.264   3.287  12.547 -2.2229 -0.0029 -0.2136
13584TIP3   OH262242   5.153   2.362   4.857 -0.2071  0.4044  0.2767
13584TIP3    H162243   5.109   2.441   4.888 -0.6395 -0.3835  1.7653
13584TIP3    H262244   5.215   2.340   4.926  1.3602  0.5484 -1.0388
13585TIP3   OH262245   6.648   3.628   3.311 -0.1262 -0.4198 -0.2653
13585TIP3    H162246   6.638   3.538   3.344  2.3777 -0.3167  1.0083
13585TIP3    H262247   6.729   3.660   3.352 -0.5130  2.1540 -1.3200
13586TIP3   OH262248   2.927   3.656   1.383 -0.0517  0.1860  0.1764
13586TIP3    H162249   3.017   3.655   1.418 -0.5964  0.9836  1.6925
13586TIP3    H262250   2.904   3.563   1.375  1.1091 -0.0390 -0.8130
13587TIP3   OH262251   1.121   3.481  15.653 -0.1441 -0.1407  0.8035
13587TIP3    H162252   1.058   3.447  15.590  1.4397 -0.3199 -0.7873
13587TIP3    H262253   1.197   3.423  15.645  1.7074  2.2250 -0.2076
13588TIP3   OH262254   3.138   6.111  12.387  0.1003 -0.6801 -0.0396
13588TIP3    H162255   3.160   6.110  12.294  2.1509 -0.7314  0.4062
13588TIP3    H262256   3.047   6.143  12.390 -0.3598 -1.6313 -2.0968
13589TIP3   OH262257   1.703   3.500   6.196 -0.4575 -0.2184 -0.5510
13589TIP3    H162258   1.614   3.519   6.168 -0.3388 -0.4506 -1.0887
13589TIP3    H262259   1.755   3.573   6.163 -0.3124 -0.5094 -0.9729
13590TIP3   OH262260   6.610   2.323  11.319  0.1155 -0.0701  0.4897
13590TIP3    H162261   6.532   2.336  11.372 -1.0165  1.6243 -1.4275
13590TIP3    H262262   6.598   2.236  11.279 -0.8499  0.1915  0.1809
13591TIP3   OH262263   1.416   2.961  16.154 -0.7071 -0.4240 -0.9866
13591TIP3    H162264   1.373   2.948  16.239 -1.2427 -0.9615 -1.3255
13591TIP3    H262265   1.399   3.052  16.133 -0.5317 -0.2720 -0.4984
13592TIP3   OH262266   6.193   2.787   2.010  0.0331  0.5804  0.3938
13592TIP3    H162267   6.139   2.826   1.941  0.5772  0.7709  0.0747
13592TIP3    H262268   6.133   2.776   2.084 -0.9389 -0.9216 -0.5496
13593TIP3   OH262269   4.505   6.296   3.409  0.2536 -0.2931 -0.2460
13593TIP3    H162270   4.509   6.378   3.459 -0.2685 -0.1546 -0.4213
13593TIP3    H262271   4.481   6.229   3.472  0.3669 -0.2571 -0.1640
13594TIP3   OH262272   3.152   0.028   0.947 -0.0794  0.0594  0.1188
13594TIP3    H162273   3.178   0.015   1.038 -1.6510  2.1763  0.9864
13594TIP3    H262274   3.112   0.115   0.946 -3.1683 -1.2059 -1.8764
13595TIP3   OH262275   4.428   3.256  12.697  0.2538 -0.4603 -0.1463
13595TIP3    H162276   4.435   3.247  12.602 -0.9410 -0.8331 -0.2173
13595TIP3    H262277   4.362   3.324  12.710 -0.6248 -1.3844  0.3907
13596TIP3   OH262278   5.415   2.612  11.778 -0.3219  0.0036  0.1814
13596TIP3    H162279   5.429   2.540  11.717  2.6346 -0.3507  1.1145
13596TIP3    H262280   5.346   2.581  11.837 -0.6133 -1.1356 -0.7289
13597TIP3   OH262281   3.231   1.156  14.561 -0.5608  0.2402  0.3217
13597TIP3    H162282   3.173   1.231  14.555  0.4736  1.1006  0.6956
13597TIP3    H262283   3.319   1.194  14.571 -0.0372 -1.0076  0.7179
13598TIP3   OH262284   3.423   3.304   3.910  0.3039  0.2426 -0.2073
13598TIP3    H162285   3.380   3.229   3.952  1.1412 -0.0533  0.1328
13598TIP3    H262286   3.490   3.332   3.972  1.3959 -0.0504 -1.2214
13599TIP3   OH262287   4.524   0.055  15.906  0.4159  0.1781 -0.4187
13599TIP3    H162288   4.523   0.036  15.812 -0.7227  3.2466 -1.1618
13599TIP3    H262289   4.611   0.030  15.935  0.0795 -3.0056 -1.6931
13600TIP3   OH262290   6.088   5.300   3.351 -0.1090  0.0675  0.2532
13600TIP3    H162291   6.145   5.233   3.313  0.2655 -0.0717  1.0433
13600TIP3    H262292   6.003   5.257   3.359 -0.2218  0.1318 -0.5083
13601TIP3   OH262293   5.615   3.531   2.039 -0.0596  0.1302 -0.0033
13601TIP3    H162294   5.688   3.539   1.978 -0.3646 -2.5728 -0.8561
13601TIP3    H262295   5.540   3.506   1.985 -1.3568  1.5746  1.0220
13602TIP3   OH262296   4.153   0.643   2.099 -0.2762 -0.5923 -0.4361
13602TIP3    H162297   4.196   0.624   2.183 -0.7379 -0.3361 -0.1362
13602TIP3    H262298   4.166   0.737   2.086 -0.1999 -0.6334 -0.6516
13603TIP3   OH262299   0.150   1.363  13.756 -0.2734 -0.2140  0.5862
13603TIP3    H162300   0.216   1.318  13.704 -1.3164 -0.4700 -0.5547
13603TIP3    H262301   0.178   1.349  13.847  1.3844 -0.0578  0.1270
13604TIP3   OH262302   5.105   5.410  11.540  0.1445  0.0659 -0.3829
13604TIP3    H162303   5.114   5.442  11.629 -0.1685  1.4349 -0.8129
13604TIP3    H262304   5.026   5.452  11.507  0.1347 -0.5852 -1.2424
13605TIP3   OH262305   2.495   2.654  12.662 -0.4769  0.2858 -0.3592
13605TIP3    H162306   2.588   2.638  12.679  0.3850  2.2661 -2.6316
13605TIP3    H262307   2.489   2.656  12.567 -3.3018 -1.7494 -0.3389
13606TIP3   OH262308   1.843   6.616   2.505 -0.6652 -0.2790 -0.3368
13606TIP3    H162309   1.937   6.628   2.516 -1.0020  2.0266  0.5656
13606TIP3    H262310   1.822   6.541   2.560  0.5409 -0.4287 -0.0469
13607TIP3   OH262311   4.120   2.516   0.664  0.1258  0.0068  0.7405
13607TIP3    H162312   4.208   2.478   0.660  0.9392  1.8235  0.1607
13607TIP3    H262313   4.131   2.604   0.629 -2.0229  0.1547  0.3219
13608TIP3   OH262314   5.374   1.095   4.436 -0.0112 -1.0512 -0.6131
13608TIP3    H162315   5.364   1.004   4.463  0.3985 -1.0216 -0.3515
13608TIP3    H262316   5.415   1.138   4.511  0.3571 -0.7833 -0.9669
13609TIP3   OH262317   4.546   4.338  14.688 -0.1013  0.0090  0.0251
13609TIP3    H162318   4.555   4.248  14.656 -1.4276 -0.0066 -0.3461
13609TIP3    H262319   4.461   4.340  14.732  0.3898  0.8072  0.9906
13610TIP3   OH262320   4.595   1.430  11.128  0.3539  0.0466 -0.1546
13610TIP3    H162321   4.554   1.516  11.134  2.1748  1.0237 -0.7305
13610TIP3    H262322   4.566   1.396  11.043  0.2900  0.4678 -0.3065
13611TIP3   OH262323   2.100   6.147   5.900  0.0887 -0.4570  0.0476
13611TIP3    H162324   2.126   6.166   5.810 -2.4888 -0.6348 -0.8013
13611TIP3    H262325   2.069   6.056   5.897 -2.1615  0.2440  0.5397
13612TIP3   OH262326   2.696   2.307   2.364 -0.4483 -0.5271  0.7194
13612TIP3    H162327   2.681   2.308   2.458 -1.6086 -0.5060  0.5525
13612TIP3    H262328   2.628   2.364   2.328  0.6998  0.4142 -0.0515
13613TIP3   OH262329   0.567   6.009   4.467  0.3299  0.2290  0.4606
13613TIP3    H162330   0.535   6.012   4.557 -1.1840 -1.5745  0.0555
13613TIP3    H262331   0.490   6.029   4.414  0.6221 -1.0087 -0.4751
13614TIP3   OH262332   2.081   1.159   2.972  0.1490 -0.0128  0.5374
13614TIP3    H162333   2.123   1.244   2.974 -1.6390  0.9596 -0.4411
13614TIP3    H262334   2.151   1.096   2.989  1.6161  1.6060  0.6510
13615TIP3   OH262335   0.269   5.126   1.992 -0.4916  0.3996  0.5664
13615TIP3    H162336   0.183   5.096   2.019 -0.7488 -1.2955 -1.8193
13615TIP3    H262337   0.253   5.211   1.950 -1.2229 -0.4092 -0.8623
13616TIP3   OH262338   6.798   5.056  11.934 -0.1264  0.6909 -0.0217
13616TIP3    H162339   6.750   5.123  11.983  0.5283  1.6118 -0.6139
13616TIP3    H262340   6.745   5.043  11.855 -0.0535  0.7935 -0.0872
13617TIP3   OH262341   4.977   3.409  14.572 -0.2805  0.7707 -0.1737
13617TIP3    H162342   4.892   3.443  14.542  0.1983  0.9825 -1.3301
13617TIP3    H262343   5.040   3.443  14.508  0.6293  0.3244  0.4770
13618TIP3   OH262344   6.617   4.878  12.497 -0.1925  0.2280  0.4764
13618TIP3    H162345   6.694   4.903  12.447 -0.7044  1.8952  0.4621
13618TIP3    H262346   6.637   4.903  12.587 -0.1871 -0.6360  0.7303
13619TIP3   OH262347   0.307   4.573   0.048 -0.0583 -0.0315 -0.5450
13619TIP3    H162348   0.397   4.598   0.069  0.2834 -0.9988 -0.8188
13619TIP3    H262349   0.254   4.647   0.078  0.5375 -0.6015  2.1982
13620TIP3   OH262350   3.415   1.604  11.766  0.3782 -0.1105 -0.4313
13620TIP3    H162351   3.497   1.608  11.815  0.3194 -0.5528 -0.2858
13620TIP3    H262352   3.354   1.656  11.818 -0.1157 -1.8582  0.8518
13621TIP3   OH262353   5.829   1.978  16.459 -0.3604  0.1313  0.5158
13621TIP3    H162354   5.842   1.893  16.417 -0.6489  0.3106  0.0540
13621TIP3    H262355   5.917   2.009  16.480 -0.0737  0.8116 -1.4932
13622TIP3   OH262356   2.159   4.766  16.721  0.1741  0.8657 -0.4511
13622TIP3    H162357   2.136   4.774  16.629  0.0818  0.9785 -0.4189
13622TIP3    H262358   2.079   4.735  16.764  0.4644 -0.0431 -0.5424
13623TIP3   OH262359   4.133   2.546   6.009  0.6309 -0.3526  0.0291
13623TIP3    H162360   4.142   2.629   6.056 -2.1578  0.2490 -0.2968
13623TIP3    H262361   4.122   2.481   6.078  0.5481 -0.0806  0.2784
13624TIP3   OH262362   1.752   5.522   4.185  0.4979  0.1569 -0.0840
13624TIP3    H162363   1.683   5.497   4.247 -1.6974 -0.5831 -2.6015
13624TIP3    H262364   1.739   5.616   4.172  1.0815  0.3498  0.6855
13625TIP3   OH262365   6.244   5.714   2.846  0.0897 -0.0936  0.9272
13625TIP3    H162366   6.171   5.652   2.856  1.2491 -1.6417  0.3463
13625TIP3    H262367   6.209   5.784   2.791 -1.3188 -0.1327  1.7212
13626TIP3   OH262368   3.049   0.607  13.398 -0.6453 -0.0889  0.3415
13626TIP3    H162369   3.101   0.687  13.407 -1.1468  0.3426 -0.4501
13626TIP3    H262370   2.958   0.636  13.408 -1.0186 -0.1206 -2.2891
13627TIP3   OH262371   2.524   0.637   4.621 -0.6788 -0.0170  0.1994
13627TIP3    H162372   2.472   0.717   4.630  0.2226  0.5032  1.0387
13627TIP3    H262373   2.564   0.644   4.535 -0.2228  0.6848  0.4601
13628TIP3   OH262374   3.173   5.150   6.456  0.2313  0.6103  0.0600
13628TIP3    H162375   3.238   5.088   6.491  0.1887  0.0181 -0.8583
13628TIP3    H262376   3.220   5.233   6.452  1.4079 -0.0522 -1.7460
13629TIP3   OH262377   5.741   2.438   2.819 -0.2370 -0.7075  0.3832
13629TIP3    H162378   5.786   2.394   2.891  0.7698  0.7238  0.6809
13629TIP3    H262379   5.812   2.480   2.769 -0.9587 -1.2484 -1.1657
13630TIP3   OH262380   5.020   5.002   3.333 -0.5635 -0.3226 -0.9118
13630TIP3    H162381   5.021   5.031   3.425 -2.5279 -0.2095 -0.8947
13630TIP3    H262382   5.044   4.910   3.337  0.3140 -0.0869 -0.3981
13631TIP3   OH262383   6.192   0.233  11.366  0.4509 -0.4387 -0.6650
13631TIP3    H162384   6.233   0.181  11.434 -0.8848  2.2372  2.4819
13631TIP3    H262385   6.102   0.201  11.362 -0.2033  1.0937  0.8398
13632TIP3   OH262386   4.480   0.775  14.953 -0.0625 -0.6934  0.7879
13632TIP3    H162387   4.468   0.778  14.858  0.3576 -1.5818  0.6946
13632TIP3    H262388   4.571   0.801  14.967  0.4468 -2.3585  0.7791
13633TIP3   OH262389   0.158   0.770   4.792 -0.2097 -0.1786 -0.4187
13633TIP3    H162390   0.149   0.695   4.733  0.7270  0.6085 -1.6290
13633TIP3    H262391   0.235   0.816   4.759  0.3420  0.2975  1.4597
13634TIP3   OH262392   2.072   2.400  15.418 -0.0187  0.6065 -0.2637
13634TIP3    H162393   2.144   2.461  15.434 -0.5280  1.1194  0.1041
13634TIP3    H262394   2.045   2.418  15.327  0.5155  0.1937 -0.5103
13635TIP3   OH262395   0.973   5.518  11.532  0.3593  0.1472 -0.4658
13635TIP3    H162396   0.995   5.456  11.601 -0.6689  2.5375  2.2064
13635TIP3    H262397   0.885   5.495  11.505 -0.3577  0.8694  1.1341
13636TIP3   OH262398   0.396   0.177  14.194  0.0700  0.0086  0.1477
13636TIP3    H162399   0.308   0.175  14.154  0.2554 -2.3401 -0.2740
13636TIP3    H262400   0.410   0.088  14.226  3.6013 -0.7514 -2.8065
13637TIP3   OH262401   5.356   6.181  14.744 -0.2033  0.3977 -0.3709
13637TIP3    H162402   5.383   6.093  14.772  0.0560  0.2758 -0.9975
13637TIP3    H262403   5.279   6.200  14.797 -0.7242 -0.5290 -0.7813
13638TIP3   OH262404   6.843   1.036   4.684 -0.3875 -0.0220 -0.2398
13638TIP3    H162405   6.828   1.091   4.761  1.7271  0.3360 -0.0211
13638TIP3    H262406   6.936   1.047   4.664 -0.8235 -0.2158 -2.7774
13639TIP3   OH262407   1.414   2.984  13.057  0.0615  0.3881  0.8102
13639TIP3    H162408   1.450   2.896  13.043  0.1170  0.5591 -0.2047
13639TIP3    H262409   1.331   2.984  13.009 -0.0277  0.8390  0.9588
13640TIP3   OH262410   3.783   5.570   1.482 -0.9207 -0.3959  0.6403
13640TIP3    H162411   3.785   5.541   1.573 -0.4855 -0.2504  0.6793
13640TIP3    H262412   3.841   5.509   1.436  0.7045  0.8985  0.8760
13641TIP3   OH262413   5.153   4.822  16.535  0.9968  0.1329  0.4886
13641TIP3    H162414   5.071   4.829  16.582  1.0099 -1.0670  0.7414
13641TIP3    H262415   5.140   4.748  16.475  2.5401 -1.4437  1.9881
13642TIP3   OH262416   4.707   6.288   4.528 -0.1332  0.2978  0.6626
13642TIP3    H162417   4.627   6.340   4.532 -0.0670  0.4256  0.3114
13642TIP3    H262418   4.761   6.332   4.462  1.5581  2.1637  3.0657
13643TIP3   OH262419   2.155   4.370   2.949  0.2524  0.2392  0.3605
13643TIP3    H162420   2.209   4.300   2.986  0.6197  0.2980 -0.0597
13643TIP3    H262421   2.158   4.439   3.016  0.3627  0.0805  0.5222
13644TIP3   OH262422   0.718   3.439   0.147  0.2160  0.4401 -0.5228
13644TIP3    H162423   0.803   3.481   0.162  0.1561  1.1629 -2.0530
13644TIP3    H262424   0.728   3.393   0.064 -1.0054  0.8472 -0.9157
13645TIP3   OH262425   0.546   3.780  12.093 -0.0060  0.7324 -0.0954
13645TIP3    H162426   0.605   3.708  12.072 -1.3236 -0.0512 -1.3367
13645TIP3    H262427   0.458   3.742  12.084 -0.7668  2.6303 -1.4425
13646TIP3   OH262428   3.076   2.818  16.376 -0.0329  0.0818 -0.5270
13646TIP3    H162429   3.138   2.746  16.358 -0.3392  0.0788 -1.6396
13646TIP3    H262430   3.042   2.798  16.463 -0.5991 -1.5071 -1.0660
13647TIP3   OH262431   2.985   2.957  11.710 -0.2305  0.5366  0.6621
13647TIP3    H162432   2.890   2.941  11.711 -0.3851 -0.9666 -5.2191
13647TIP3    H262433   2.993   3.049  11.684 -0.1799  0.1180 -0.8568
13648TIP3   OH262434   4.801   4.001  13.117 -0.4103 -0.2273 -0.1957
13648TIP3    H162435   4.723   4.027  13.166 -1.3242 -1.5245 -0.9176
13648TIP3    H262436   4.858   4.078  13.122 -1.4414  0.5120  0.9054
13649TIP3   OH262437   4.574   1.715  11.055 -0.2177 -0.3171 -0.1522
13649TIP3    H162438   4.505   1.709  11.122  1.4332  1.0130  1.7789
13649TIP3    H262439   4.568   1.805  11.023  0.5322 -0.2356 -0.0717
13650TIP3   OH262440   0.126   2.726  14.223  0.5908  0.1903 -0.2127
13650TIP3    H162441   0.095   2.637  14.206 -1.6449  0.7586  0.5079
13650TIP3    H262442   0.134   2.766  14.136  2.1110 -0.8144 -0.5731
13651TIP3   OH262443   2.320   0.724   5.025 -0.2701 -0.4574  0.1945
13651TIP3    H162444   2.276   0.646   5.058 -0.6487  0.0238  0.8679
13651TIP3    H262445   2.411   0.697   5.012 -0.1420 -0.7306  1.4968
13652TIP3   OH262446   4.499   3.269   5.556 -0.3631  0.3698  0.4072
13652TIP3    H162447   4.477   3.362   5.557  0.0861  0.5467  3.3011
13652TIP3    H262448   4.435   3.229   5.615  0.6048 -0.8342  0.6864
13653TIP3   OH262449   1.584   3.476  15.798  0.3315  0.1406  0.4789
13653TIP3    H162450   1.493   3.503  15.814 -0.3241 -1.4186 -0.3850
13653TIP3    H262451   1.604   3.418  15.871  0.1903 -0.4916  0.0208
13654TIP3   OH262452   6.017   1.083   1.526 -0.3267 -0.5766 -0.4861
13654TIP3    H162453   6.105   1.050   1.543 -0.1308 -0.0166 -0.3836
13654TIP3    H262454   5.965   1.005   1.508 -1.3132 -1.7264  5.4698
13655TIP3   OH262455   1.268   2.883   6.696 -0.2164 -0.6517 -0.0082
13655TIP3    H162456   1.192   2.941   6.704  1.0773  1.2809 -0.7345
13655TIP3    H262457   1.254   2.838   6.612 -1.2834 -1.5092  0.6033
13656TIP3   OH262458   6.312   3.062  16.172  0.1751  0.2539 -0.3116
13656TIP3    H162459   6.356   3.008  16.106  0.7203  1.6106 -1.0942
13656TIP3    H262460   6.347   3.150  16.159  0.8285  0.4647  2.2796
13657TIP3   OH262461   6.283   3.195  14.959  0.0870  0.5455  0.0294
13657TIP3    H162462   6.264   3.105  14.930  1.5788  0.0256  0.5834
13657TIP3    H262463   6.293   3.244  14.877  0.0474  0.0277 -0.2969
13658TIP3   OH262464   3.742   0.444   4.010 -0.2052 -0.0135 -0.8174
13658TIP3    H162465   3.788   0.359   4.011 -2.6653 -1.4311 -0.3932
13658TIP3    H262466   3.724   0.460   3.917  1.3609  0.7289 -1.0219
13659TIP3   OH262467   4.927   6.344   4.369  0.3859  0.0614  0.7266
13659TIP3    H162468   4.930   6.435   4.399  0.0667 -0.3572  2.0812
13659TIP3    H262469   5.018   6.316   4.368  0.4732  0.3404  0.4416
13660TIP3   OH262470   1.343   1.075  13.508 -0.4841  0.3973 -0.0047
13660TIP3    H162471   1.267   1.096  13.562  0.1017  0.7085  0.7161
13660TIP3    H262472   1.410   1.047  13.571  0.1691  0.6337 -0.5833
13661TIP3   OH262473   3.039   4.916  11.039  0.3298 -0.0541 -0.1380
13661TIP3    H162474   3.027   4.984  11.105  0.2069  0.2089 -0.4251
13661TIP3    H262475   2.998   4.952  10.960  1.4750  0.1218 -0.6662
13662TIP3   OH262476   6.442   2.929   0.010 -0.2497 -0.0051  0.1192
13662TIP3    H162477   6.488   3.003   0.051 -1.6045  1.8685 -1.5405
13662TIP3    H262478   6.510   2.867  -0.011  1.3320  1.8884 -0.6672
13663TIP3   OH262479   6.809   2.218   2.447  0.3933  0.1006  0.1146
13663TIP3    H162480   6.875   2.287   2.440  1.2835 -0.8391 -1.9618
13663TIP3    H262481   6.841   2.150   2.387 -1.6376 -1.0924  0.3112
13664TIP3   OH262482   6.132   4.248   2.934  0.4608 -0.2561 -0.6602
13664TIP3    H162483   6.046   4.256   2.894  0.8928  0.9650 -1.4297
13664TIP3    H262484   6.132   4.163   2.976 -1.0292 -0.3767 -0.8617
13665TIP3   OH262485   3.926   2.158  13.077 -0.0634  0.1914 -0.7192
13665TIP3    H162486   3.932   2.205  13.160 -2.5452 -0.7437  0.0692
13665TIP3    H262487   3.949   2.223  13.011  2.1406  0.9084  0.6559
13666TIP3   OH262488   4.399   6.509   5.654  0.1515 -0.5492 -0.2401
13666TIP3    H162489   4.317   6.467   5.683  0.5717 -0.9383  0.4188
13666TIP3    H262490   4.374   6.600   5.636 -0.6038 -0.8777 -0.9063
13667TIP3   OH262491   4.822   4.518  12.872  0.0518  0.4467 -0.0411
13667TIP3    H162492   4.754   4.454  12.850 -0.8072  1.2506  0.2403
13667TIP3    H262493   4.776   4.586  12.921  1.1460  0.7856  0.5384
13668TIP3   OH262494   6.777   2.402  16.702  1.0936  0.0182 -0.1906
13668TIP3    H162495   6.855   2.346  16.709 -0.3401 -2.1184 -0.4046
13668TIP3    H262496   6.761   2.409  16.608  0.7799  0.0875 -0.1327
13669TIP3   OH262497   4.937   4.093  14.573  0.7828  0.1483 -0.2585
13669TIP3    H162498   4.955   4.186  14.566 -0.0394  0.3944  0.6618
13669TIP3    H262499   4.881   4.085  14.651  2.8743 -1.3838  1.1869
13670TIP3   OH262500   1.518   5.332  11.300  0.0937  0.1524  0.1739
13670TIP3    H162501   1.464   5.408  11.323 -0.5758 -0.6253  1.2151
13670TIP3    H262502   1.458   5.273  11.254  0.1979 -0.4605  0.8214
13671TIP3   OH262503   1.999   4.477   5.029  0.1308  0.0419  0.2895
13671TIP3    H162504   2.033   4.562   5.058  0.7351  0.1264 -0.6213
13671TIP3    H262505   2.012   4.419   5.104  0.3794  0.5767  0.6686
13672TIP3   OH262506   6.842   6.521  16.748 -0.1448  0.6052 -0.0741
13672TIP3    H162507   6.843   6.564  16.833  1.9990 -1.0424  0.8031
13672TIP3    H262508   6.763   6.467  16.749  0.5296 -0.4233  1.4553
13673TIP3   OH262509   4.639   6.216  14.405  0.1502 -0.3163 -0.2453
13673TIP3    H162510   4.626   6.124  14.384 -0.3380 -0.1199 -0.8334
13673TIP3    H262511   4.701   6.248  14.340 -0.3288 -0.0324 -0.5716
13674TIP3   OH262512   2.908   4.253   2.524  0.1765  0.0781  0.0883
13674TIP3    H162513   2.881   4.266   2.433 -0.2756 -1.2903  0.0073
13674TIP3    H262514   2.826   4.253   2.573  0.3768  0.2720  0.4189
13675TIP3   OH262515   2.755   3.333   0.750  0.3562  0.0249  0.4121
13675TIP3    H162516   2.799   3.252   0.774 -0.7997 -1.0168 -0.8169
13675TIP3    H262517   2.799   3.362   0.671  1.8845  1.5686  1.7636
13676TIP3   OH262518   6.689   6.382   5.155 -0.7128  0.4868  0.5405
13676TIP3    H162519   6.661   6.321   5.087 -0.7382 -0.0271  1.0107
13676TIP3    H262520   6.744   6.330   5.214  0.0267  1.1363  0.4388
13677TIP3   OH262521   4.285   1.048  11.318  0.3665 -0.6121 -0.4115
13677TIP3    H162522   4.287   1.126  11.263  1.5139  0.7962  1.4948
13677TIP3    H262523   4.238   1.075  11.397 -0.7026 -2.3854 -0.3867
13678TIP3   OH262524   5.444   0.532  12.754 -0.2741 -0.4081  0.0247
13678TIP3    H162525   5.518   0.514  12.812  1.2695  2.0359 -0.9960
13678TIP3    H262526   5.482   0.539  12.667 -2.0790 -1.0930 -0.8867
13679TIP3   OH262527   1.001   2.480   1.878  0.7142  0.5403  0.2949
13679TIP3    H162528   1.004   2.559   1.932  0.0091  0.6849  0.1334
13679TIP3    H262529   0.966   2.509   1.794 -0.3152 -0.0655  0.4879
13680TIP3   OH262530   3.388   0.658  15.200 -0.0722  0.1052 -0.3945
13680TIP3    H162531   3.444   0.582  15.219 -1.3334 -1.3920 -2.2761
13680TIP3    H262532   3.435   0.706  15.132  0.1707  0.3326 -0.0644
13681TIP3   OH262533   1.172   5.961   1.949  0.6883 -0.1777 -0.2886
13681TIP3    H162534   1.237   6.015   1.992  1.4485 -1.5694  0.3798
13681TIP3    H262535   1.158   6.003   1.864  0.6816  1.4558  0.4880
13682TIP3   OH262536   1.482   4.590  15.551  0.4482  0.2766  0.1442
13682TIP3    H162537   1.401   4.640  15.564  0.1380 -0.4392  0.9818
13682TIP3    H262538   1.453   4.501  15.534  1.0830 -0.2889  1.8397
13683TIP3   OH262539   5.142   3.069  11.095  0.0175 -0.1066 -0.0476
13683TIP3    H162540   5.091   2.991  11.075  0.5041 -0.1487 -1.1713
13683TIP3    H262541   5.229   3.051  11.060  0.0436  1.0682 -0.6189
13684TIP3   OH262542   1.869   2.469   4.213  0.3830  0.0164 -0.1448
13684TIP3    H162543   1.859   2.452   4.119  1.1742  0.0624 -0.2381
13684TIP3    H262544   1.918   2.395   4.247  1.8186  0.9310 -0.1346
13685TIP3   OH262545   0.265   0.668   3.500 -0.2820 -0.2748 -0.3344
13685TIP3    H162546   0.293   0.649   3.410 -1.3343 -1.2430 -0.4720
13685TIP3    H262547   0.253   0.763   3.501  0.8657 -0.1043 -0.8753
13686TIP3   OH262548   5.426   4.778  15.716 -0.1593  0.2234  0.1467
13686TIP3    H162549   5.473   4.794  15.634 -1.9061 -0.0614 -0.9619
13686TIP3    H262550   5.450   4.689  15.740  0.0884  0.1732 -0.2649
13687TIP3   OH262551   6.466   4.342   4.858  0.1693  0.6998  0.4089
13687TIP3    H162552   6.525   4.290   4.803  0.9534  1.0171  0.9490
13687TIP3    H262553   6.441   4.283   4.929  0.3680  0.7882  0.5499
13688TIP3   OH262554   5.598   1.892   6.469 -0.3061 -0.1078 -0.2396
13688TIP3    H162555   5.595   1.808   6.423 -1.5845 -0.6643  0.7815
13688TIP3    H262556   5.514   1.934   6.449 -0.8438 -0.3107  1.4146
13689TIP3   OH262557   1.080   0.594   5.860  0.1168  0.5138 -0.3090
13689TIP3    H162558   1.153   0.554   5.909  0.4501  0.1447 -1.0908
13689TIP3    H262559   1.095   0.688   5.867 -0.8503  0.5612  1.8319
13690TIP3   OH262560   6.257   3.198  12.807  0.5544  0.2768 -0.3742
13690TIP3    H162561   6.282   3.121  12.858  0.2298  0.5712  0.2392
13690TIP3    H262562   6.162   3.206  12.819  0.6894  1.1956  0.1720
13691TIP3   OH262563   0.188   3.000  12.934 -0.5753 -0.8714 -0.4335
13691TIP3    H162564   0.134   3.036  12.864 -1.9703  1.1448  1.5482
13691TIP3    H262565   0.179   2.905  12.924 -2.1884 -0.6201 -1.8768
13692TIP3   OH262566   5.018   4.471   4.665  0.8394  0.0775 -0.0422
13692TIP3    H162567   5.050   4.383   4.680  0.8168 -0.1200 -1.0381
13692TIP3    H262568   4.951   4.485   4.732  0.4036 -0.8994 -0.2507
13693TIP3   OH262569   3.816   0.233   5.002  0.3937 -0.2280  0.0107
13693TIP3    H162570   3.869   0.157   5.026 -1.0145 -1.0876  0.5534
13693TIP3    H262571   3.874   0.287   4.949  1.3283 -1.8650 -0.7042
13694TIP3   OH262572   5.428   0.918  12.194 -0.2885 -0.0865 -0.0195
13694TIP3    H162573   5.461   1.001  12.229  0.7682 -0.5959  0.2335
13694TIP3    H262574   5.439   0.855  12.266 -0.0998 -0.6672 -0.5462
13695TIP3   OH262575   5.482   4.027  13.530  0.7306 -0.2395 -0.2273
13695TIP3    H162576   5.410   4.084  13.505  1.1806  0.1498 -0.6600
13695TIP3    H262577   5.451   3.981  13.608 -0.5499 -1.1466 -1.2145
13696TIP3   OH262578   2.217   6.752  12.745 -0.3300 -0.3747  0.5641
13696TIP3    H162579   2.285   6.702  12.791  0.7243 -0.0707 -0.6074
13696TIP3    H262580   2.265   6.817  12.694 -1.6542  1.7316  1.8576
13697TIP3   OH262581   2.069   2.737  13.454 -0.0612  0.3480  0.1102
13697TIP3    H162582   2.071   2.674  13.382  0.3927 -0.8946  1.1562
13697TIP3    H262583   1.976   2.752  13.470 -0.1684  0.9391 -0.9550
13698TIP3   OH262584   1.153   2.812  13.958  0.0827  0.2409 -0.7934
13698TIP3    H162585   1.242   2.804  13.925  0.4009  0.9999 -0.1502
13698TIP3    H262586   1.145   2.904  13.985  0.5079 -0.6572  2.9775
13699TIP3   OH262587   4.924   0.926   3.077 -0.0178  0.2441 -0.5154
13699TIP3    H162588   5.005   0.888   3.042  1.1335  1.8220  0.3075
13699TIP3    H262589   4.855   0.894   3.019  1.1505 -1.3531 -1.0929
13700TIP3   OH262590   5.442   3.274  13.730 -0.2063  0.1084  0.2407
13700TIP3    H162591   5.533   3.250  13.711  0.1700  2.1379 -0.8927
13700TIP3    H262592   5.391   3.233  13.660 -0.1830 -0.9986  0.8531
13701TIP3   OH262593   4.958   1.826   0.471 -0.3011 -0.5712 -0.2092
13701TIP3    H162594   4.900   1.880   0.417 -0.5801  0.8129  1.4058
13701TIP3    H262595   4.911   1.814   0.553  1.3310 -0.1167  0.8390
13702TIP3   OH262596   0.674   0.160   3.732 -0.2673 -0.2026  0.2264
13702TIP3    H162597   0.695   0.067   3.719 -3.3234 -0.6871 -2.2847
13702TIP3    H262598   0.741   0.206   3.681 -0.5959 -1.2372 -1.2103
13703TIP3   OH262599   2.099   4.266  17.136  0.5801 -0.5642 -0.5667
13703TIP3    H162600   2.080   4.242  17.226 -1.0974  1.7968 -0.2054
13703TIP3    H262601   2.190   4.297  17.138  0.9648 -1.6735  0.0201
13704TIP3   OH262602   5.494   5.196   5.251 -0.0252 -0.2442 -0.4714
13704TIP3    H162603   5.565   5.137   5.227  0.8980  0.5411  0.2882
13704TIP3    H262604   5.516   5.227   5.339  0.1123  2.0799 -1.2444
13705TIP3   OH262605   6.115   0.853  11.207  0.0038 -0.4261  0.3160
13705TIP3    H162606   6.061   0.797  11.152 -1.1328  1.2105 -0.3270
13705TIP3    H262607   6.064   0.864  11.287 -0.0979  0.1971  0.1720
13706TIP3   OH262608   4.461   3.482  14.737  0.0197  0.1821 -0.2655
13706TIP3    H162609   4.547   3.508  14.771 -0.1930 -0.9773  1.2633
13706TIP3    H262610   4.402   3.550  14.768  0.0150 -0.2803  0.7781
13707TIP3   OH262611   3.005   2.034  12.872  0.2241 -0.0788 -0.4672
13707TIP3    H162612   3.097   2.047  12.896 -0.1095 -0.4458  1.1328
13707TIP3    H262613   2.956   2.075  12.944 -0.8334 -2.1234  0.0524
13708TIP3   OH262614   1.207   0.707   1.464  0.1789  0.2175  0.6706
13708TIP3    H162615   1.276   0.726   1.401 -0.0972  0.2877  0.3826
13708TIP3    H262616   1.252   0.676   1.542  0.4530 -1.8548 -0.2533
13709TIP3   OH262617   0.066   0.385   1.003  0.2676 -0.0947 -0.3511
13709TIP3    H162618   0.068   0.391   0.908 -1.1091 -0.2403 -0.4143
13709TIP3    H262619   0.095   0.296   1.022  3.2645  0.7488 -0.4253
13710TIP3   OH262620   1.168   2.418  11.058  0.7069 -0.6193 -0.1144
13710TIP3    H162621   1.146   2.328  11.082  0.8157 -0.6583 -0.1581
13710TIP3    H262622   1.096   2.447  11.003 -1.4764  0.7183  3.1148
13711TIP3   OH262623   1.102   1.865  13.313  0.2067 -0.0098  0.5318
13711TIP3    H162624   1.108   1.825  13.400  2.6908 -1.2662 -0.1336
13711TIP3    H262625   1.159   1.942  13.318 -2.2114  1.8956  0.9006
13712TIP3   OH262626   5.424   3.146   0.351 -0.3464 -0.3547 -0.5370
13712TIP3    H162627   5.484   3.071   0.350  0.0995 -0.0227  0.2806
13712TIP3    H262628   5.482   3.222   0.350 -0.7886 -0.0252 -0.9648
13713TIP3   OH262629   6.738   0.321  12.693 -0.5765 -0.2960 -0.7598
13713TIP3    H162630   6.664   0.381  12.705  0.0464  0.2671  0.4845
13713TIP3    H262631   6.762   0.294  12.782  1.5077  0.5509 -0.9931
13714TIP3   OH262632   4.092   1.422  16.437  0.8237 -0.2878  0.5330
13714TIP3    H162633   4.188   1.426  16.438  0.9174 -0.1037 -2.1995
13714TIP3    H262634   4.072   1.337  16.399  0.0418  0.8633 -1.8615
13715TIP3   OH262635   2.294   6.067   2.274  0.3589  0.1783 -0.2195
13715TIP3    H162636   2.281   6.001   2.341  0.6090  3.6055  3.6109
13715TIP3    H262637   2.388   6.065   2.256  0.2703 -0.8400 -0.6351
13716TIP3   OH262638   1.108   5.782  14.131 -0.1488 -0.0478  0.1346
13716TIP3    H162639   1.168   5.856  14.129 -0.2474  0.0643  0.9993
13716TIP3    H262640   1.044   5.801  14.062 -0.7805  1.2017  1.0227
13717TIP3   OH262641   3.963   6.842   5.043  0.1128 -0.6066 -0.2119
13717TIP3    H162642   4.021   6.901   5.091 -1.3907 -0.9883  2.2585
13717TIP3    H262643   4.012   6.760   5.036  0.8396 -0.1570 -0.4531
13718TIP3   OH262644   2.433   1.562   5.788  0.2383  0.0545  0.6013
13718TIP3    H162645   2.375   1.625   5.746 -0.7859 -0.6830  0.8814
13718TIP3    H262646   2.520   1.582   5.753 -0.0472  1.6908  0.7853
13719TIP3   OH262647   5.267   6.191  12.403 -0.4151  0.5753  0.5737
13719TIP3    H162648   5.184   6.212  12.445 -0.2492 -1.5700  2.1388
13719TIP3    H262649   5.331   6.192  12.475  0.8336  1.5456 -0.4859
13720TIP3   OH262650   6.576   4.396   3.922  0.0424 -0.2726 -0.3228
13720TIP3    H162651   6.503   4.336   3.929 -0.6077  0.2186 -2.2723
13720TIP3    H262652   6.620   4.391   4.007 -0.8024 -2.4041  0.0435
13721TIP3   OH262653   3.876   6.020  11.827 -0.2255 -0.1797  0.3447
13721TIP3    H162654   3.862   5.950  11.891 -0.7333  0.6927  1.2331
13721TIP3    H262655   3.915   6.091  11.878 -0.7629  0.5830 -0.2829
13722TIP3   OH262656   3.036   6.029  11.750 -0.3056 -0.7863  0.3974
13722TIP3    H162657   2.943   6.012  11.764 -0.4611 -1.2082 -0.9379
13722TIP3    H262658   3.042   6.055  11.658  0.8656 -0.4603  0.5424
13723TIP3   OH262659   4.883   3.910   2.303 -0.2031  0.0063  0.7827
13723TIP3    H162660   4.809   3.926   2.362 -0.1749  0.5011  0.6899
13723TIP3    H262661   4.933   3.840   2.345 -1.5079 -1.3659  0.1243
13724TIP3   OH262662   3.600   3.856   5.795 -0.2690 -0.1805 -0.0137
13724TIP3    H162663   3.690   3.850   5.764 -0.1083 -0.2337  0.4577
13724TIP3    H262664   3.607   3.861   5.891 -0.7844 -0.6400  0.0544
13725TIP3   OH262665   0.295   4.770   1.384  0.1322 -0.6151  0.1403
13725TIP3    H162666   0.349   4.745   1.309  0.8222 -2.1635  1.0888
13725TIP3    H262667   0.236   4.837   1.350  2.2416  0.7451 -1.0842
13726TIP3   OH262668   3.599   4.293   5.474  0.2292  0.0011  0.1824
13726TIP3    H162669   3.518   4.285   5.425  0.3656  1.0774 -0.2357
13726TIP3    H262670   3.602   4.214   5.529 -0.3099 -0.8344 -0.9474
13727TIP3   OH262671   1.942   0.311  14.988 -0.1667  0.5527 -0.1049
13727TIP3    H162672   2.020   0.352  14.951 -0.5916  0.6463 -0.9292
13727TIP3    H262673   1.882   0.303  14.914 -0.7665  0.0641  0.4205
13728TIP3   OH262674   0.156   6.295  13.404  0.2553 -0.1703  1.2792
13728TIP3    H162675   0.170   6.386  13.429  3.7679 -0.1185 -0.3087
13728TIP3    H262676   0.108   6.300  13.321 -1.7252  0.0324  2.3643
13729TIP3   OH262677   6.580   6.502   3.643 -0.0182  0.2798  0.2016
13729TIP3    H162678   6.521   6.568   3.678  1.9522  3.0757 -1.3392
13729TIP3    H262679   6.552   6.492   3.551  0.1531 -0.5060  0.2312
13730TIP3   OH262680   2.318   0.198   4.975 -0.2503  0.1217  0.0557
13730TIP3    H162681   2.299   0.151   5.055 -1.8837 -0.5478 -0.6850
13730TIP3    H262682   2.246   0.260   4.965  0.2157  0.5774 -0.6287
13731TIP3   OH262683   3.204   6.363   0.389 -0.0785 -0.8360  0.1246
13731TIP3    H162684   3.170   6.322   0.309  0.7543 -0.7740 -0.2724
13731TIP3    H262685   3.139   6.342   0.456 -1.6710  0.5635 -0.9240
13732TIP3   OH262686   4.694   0.738  11.081 -0.3958  0.6269 -0.0137
13732TIP3    H162687   4.687   0.833  11.068  0.3648  0.8925  1.3470
13732TIP3    H262688   4.785   0.724  11.105 -0.8856 -0.2158  1.4734
13733TIP3   OH262689   2.641   3.730  15.902  0.1592  0.1015  0.3864
13733TIP3    H162690   2.609   3.668  15.968 -0.2263  0.3040  0.3928
13733TIP3    H262691   2.733   3.706  15.890  0.4263  0.4815  1.4840
13734TIP3   OH262692   0.128   2.509   3.472  0.2886 -0.1109 -0.3447
13734TIP3    H162693   0.058   2.444   3.476 -1.4532  1.5761 -1.9757
13734TIP3    H262694   0.133   2.534   3.380  1.0787  1.9051  0.1853
13735TIP3   OH262695   4.783   3.339   1.929 -0.1777  0.0448 -0.4960
13735TIP3    H162696   4.802   3.296   1.845  0.8597 -1.1858  0.3358
13735TIP3    H262697   4.710   3.289   1.965 -0.1709  0.1422 -0.3483
13736TIP3   OH262698   2.115   6.675  16.929  0.0033  0.1641 -0.0026
13736TIP3    H162699   2.084   6.655  16.840  1.7989 -1.0806 -0.4009
13736TIP3    H262700   2.158   6.760  16.921  2.9806 -1.2999 -1.1625
13737TIP3   OH262701   4.850   2.437  14.248 -0.9202 -0.0922 -0.3519
13737TIP3    H162702   4.927   2.472  14.202  0.0138 -1.9162 -0.2655
13737TIP3    H262703   4.810   2.513  14.289  1.0411  0.8811 -0.1341
13738TIP3   OH262704   5.501   2.889   0.897 -0.7395  0.5090  0.3245
13738TIP3    H162705   5.558   2.838   0.954 -2.0810 -0.8470  0.5227
13738TIP3    H262706   5.559   2.929   0.833  0.4756 -0.3521  0.8623
13739TIP3   OH262707   0.021   1.675   4.692 -0.0817  0.2476 -0.3972
13739TIP3    H162708  -0.022   1.664   4.607  0.4315  0.3292 -0.6699
13739TIP3    H262709   0.001   1.765   4.717 -0.5694  0.0982 -0.2424
13740TIP3   OH262710   4.431   3.490   1.170 -0.2570  0.0636  0.1143
13740TIP3    H162711   4.509   3.493   1.226 -0.5283  0.2106  0.4904
13740TIP3    H262712   4.458   3.439   1.094  0.2822  0.3266  0.1271
13741TIP3   OH262713   0.586   4.443  14.241  0.3358 -0.4473 -0.0778
13741TIP3    H162714   0.647   4.509  14.277 -0.3237  0.9855 -1.4724
13741TIP3    H262715   0.622   4.359  14.271  1.3948  0.4972  1.4953
13742TIP3   OH262716   3.262   4.568  12.196 -0.1518  0.1427  0.3664
13742TIP3    H162717   3.167   4.563  12.203 -0.0353  0.1449  3.6381
13742TIP3    H262718   3.293   4.486  12.235  1.1667  1.0591  1.3297
13743TIP3   OH262719   4.198   6.071  16.923  0.5266 -0.0937  0.1808
13743TIP3    H162720   4.213   6.053  17.015 -0.9712  1.2046  0.7303
13743TIP3    H262721   4.152   5.994  16.890 -0.7600  0.2518  1.0683
13744TIP3   OH262722   5.063   1.910   3.740 -0.2202  0.0519  0.1167
13744TIP3    H162723   5.085   1.938   3.829 -0.4038  0.7970 -0.0705
13744TIP3    H262724   5.144   1.875   3.705  0.3558  1.5482 -0.1014
13745TIP3   OH262725   5.324   1.648  14.971  0.1635 -0.2152 -0.1700
13745TIP3    H162726   5.347   1.737  14.944  1.1817 -0.4047  0.0465
13745TIP3    H262727   5.407   1.608  14.998 -0.4767 -0.8055  0.9846
13746TIP3   OH262728   3.164   5.846   5.388  0.1999  1.2020  0.4073
13746TIP3    H162729   3.097   5.801   5.438 -0.3707  0.6989 -0.7614
13746TIP3    H262730   3.246   5.825   5.433 -0.0090 -1.2729 -0.2362
13747TIP3   OH262731   1.716   4.025   2.296 -0.3924 -0.6608 -0.3399
13747TIP3    H162732   1.703   3.981   2.380 -0.7377  0.4497  0.2081
13747TIP3    H262733   1.699   3.957   2.230 -0.1385 -1.5358  0.4792
13748TIP3   OH262734   2.453   0.288   2.884 -0.2637 -0.6328  0.1280
13748TIP3    H162735   2.426   0.321   2.799 -0.2608  2.3473  1.1396
13748TIP3    H262736   2.387   0.223   2.908 -1.9210  0.5695 -0.9516
13749TIP3   OH262737   2.012   0.507  17.118  0.1637 -0.1769  0.7178
13749TIP3    H162738   1.921   0.538  17.112  0.7670  1.4158 -1.5067
13749TIP3    H262739   2.010   0.442  17.188 -1.8685  2.6617  3.5688
13750TIP3   OH262740   5.824   0.652   1.899 -0.2235 -0.6229  0.2185
13750TIP3    H162741   5.845   0.560   1.886  0.0408 -0.5160 -0.1291
13750TIP3    H262742   5.731   0.659   1.876 -0.1090 -0.7007 -0.2820
13751TIP3   OH262743   2.156   1.356   4.896  0.0448 -0.2247  0.3480
13751TIP3    H162744   2.244   1.380   4.868 -1.2666  1.7544 -2.6774
13751TIP3    H262745   2.137   1.276   4.847  0.3175 -0.9625  1.4225
13752TIP3   OH262746   1.841   4.188   1.594 -0.2570  0.3808  0.2250
13752TIP3    H162747   1.760   4.139   1.608  0.7255 -1.1932  0.7723
13752TIP3    H262748   1.823   4.275   1.628 -2.3165  0.6886 -1.4469
13753TIP3   OH262749   2.516   1.823  14.881  0.0195  0.1655 -0.2348
13753TIP3    H162750   2.473   1.799  14.964 -0.2802  1.8650  0.1429
13753TIP3    H262751   2.448   1.869  14.832  0.5514  0.2249 -0.9262
13754TIP3   OH262752   1.814   1.856   5.383  0.0933  0.8297  0.0979
13754TIP3    H162753   1.824   1.761   5.389  3.0419  0.8635 -2.0153
13754TIP3    H262754   1.837   1.888   5.470 -2.6185 -0.3493  1.3749
13755TIP3   OH262755   4.814   1.642  12.084 -0.6246  0.5844 -0.7886
13755TIP3    H162756   4.899   1.597  12.085 -2.4464 -3.3325  1.7442
13755TIP3    H262757   4.826   1.716  12.144  0.7458 -0.6311  0.5496
13756TIP3   OH262758   2.311   5.278  13.046 -0.2333  0.5356 -0.1139
13756TIP3    H162759   2.272   5.230  12.973  0.5482 -1.0409  0.4580
13756TIP3    H262760   2.255   5.258  13.121  0.7590 -0.5279  0.3841
13757TIP3   OH262761   1.083   5.797  12.503  0.3216  0.1905  0.1212
13757TIP3    H162762   1.003   5.849  12.493  0.3978 -0.0154 -2.0559
13757TIP3    H262763   1.153   5.861  12.513  0.0538  0.4074  0.6323
13758TIP3   OH262764   3.552   5.608  13.072  0.0124 -0.6462  0.0794
13758TIP3    H162765   3.535   5.659  13.151 -0.1659 -0.7952  0.1401
13758TIP3    H262766   3.628   5.553  13.095 -1.1244 -1.9991  0.7859
13759TIP3   OH262767   5.426   3.057  11.030 -0.2413 -0.2576 -0.0594
13759TIP3    H162768   5.446   3.145  11.000 -0.4500 -0.6389 -1.4081
13759TIP3    H262769   5.380   3.017  10.956 -3.5992 -0.2923  1.8259
13760TIP3   OH262770   0.557   6.798  12.970 -0.4835 -0.2098  0.4529
13760TIP3    H162771   0.496   6.746  13.022 -2.1904 -0.2985 -1.4942
13760TIP3    H262772   0.636   6.744  12.965 -0.5944 -0.5788  2.1441
13761TIP3   OH262773   1.421   2.397   4.184 -0.1656  0.1567 -0.2516
13761TIP3    H162774   1.490   2.353   4.233 -0.0196  0.0823 -0.5256
13761TIP3    H262775   1.348   2.404   4.246  0.2045  0.5443  0.1422
13762TIP3   OH262776   0.056   4.664  16.851 -0.6170 -0.0637  0.2472
13762TIP3    H162777   0.009   4.592  16.893 -0.3348 -0.3973  0.0066
13762TIP3    H262778   0.148   4.641  16.862 -0.4870  0.8029  1.1006
13763TIP3   OH262779   6.221   0.203  15.164  0.7663  0.3338  0.1400
13763TIP3    H162780   6.157   0.274  15.168  0.0850 -0.2205 -0.5102
13763TIP3    H262781   6.171   0.128  15.134  1.8028 -0.0109 -0.8101
13764TIP3   OH262782   2.508   0.327  15.438  0.3059  0.1118  0.2929
13764TIP3    H162783   2.456   0.251  15.415 -1.2941  1.4431 -0.7810
13764TIP3    H262784   2.560   0.345  15.359  0.0654  0.5732  0.2330
13765TIP3   OH262785   6.620   2.190   5.646  0.0978 -0.4181 -0.2849
13765TIP3    H162786   6.625   2.282   5.671  0.2073 -1.2505  3.2481
13765TIP3    H262787   6.707   2.168   5.613  0.5987  0.3478  0.4985
13766TIP3   OH262788   0.456   0.176   0.023  0.2894  0.1431  0.6021
13766TIP3    H162789   0.503   0.205   0.102  0.6768 -1.8805  1.1765
13766TIP3    H262790   0.363   0.180   0.048  0.3412  0.7067  0.7181
13767TIP3   OH262791   0.459   0.478  14.921  0.5672  0.4725  0.3789
13767TIP3    H162792   0.439   0.394  14.963  0.1603  0.1790 -0.3759
13767TIP3    H262793   0.554   0.485  14.928  0.5423  0.2299  0.9793
13768TIP3   OH262794   1.861   6.553  13.503  0.1949  0.3227 -0.2662
13768TIP3    H162795   1.830   6.479  13.556 -0.6918  0.3307 -0.7684
13768TIP3    H262796   1.941   6.520  13.461  0.2543 -0.0704  0.1424
13769TIP3   OH262797   4.788   2.979  12.339  0.0703  0.4847 -0.5736
13769TIP3    H162798   4.757   2.905  12.393  2.6642  0.0948  0.5075
13769TIP3    H262799   4.782   3.054  12.397 -1.4090  0.9506 -1.2824
13770TIP3   OH262800   2.032   5.919   1.054 -0.0324  0.2283 -0.0322
13770TIP3    H162801   1.977   5.889   0.981  0.1311  0.2654 -0.1724
13770TIP3    H262802   2.002   6.008   1.071  1.0961  0.8856 -1.2308
13771TIP3   OH262803   5.133   3.660  12.526 -0.2648 -0.4244 -0.1008
13771TIP3    H162804   5.123   3.615  12.442 -2.0330  3.6340 -2.3027
13771TIP3    H262805   5.045   3.689  12.549  0.8139  2.5858  0.6429
13772TIP3   OH262806   4.537   2.506   3.515  0.7771 -0.3406  0.4962
13772TIP3    H162807   4.566   2.416   3.500 -0.3025 -0.5125 -0.7175
13772TIP3    H262808   4.463   2.498   3.575 -0.3168 -0.4261 -0.8308
13773TIP3   OH262809   4.151   0.826   2.957 -0.2885  0.4999  0.1650
13773TIP3    H162810   4.101   0.903   2.983  1.0910  1.1330  1.0239
13773TIP3    H262811   4.154   0.830   2.861  1.2650  2.5393  0.2301
13774TIP3   OH262812   3.571   2.455  11.623  0.1132 -0.1789 -0.6817
13774TIP3    H162813   3.568   2.525  11.688 -0.3576  0.4510 -1.3601
13774TIP3    H262814   3.480   2.433  11.607  0.0145  1.4989 -3.0099
13775TIP3   OH262815   3.618   4.974  12.365 -0.1447 -0.1961 -0.0266
13775TIP3    H162816   3.599   5.068  12.367  0.7793  0.0492 -1.2404
13775TIP3    H262817   3.532   4.932  12.365 -0.6220  0.7200 -0.9615
13776TIP3   OH262818   1.402   5.534  12.620  0.3190 -0.1791  0.2615
13776TIP3    H162819   1.450   5.463  12.578 -0.1287 -0.0196 -0.5413
13776TIP3    H262820   1.459   5.563  12.691  1.1717 -0.3607 -0.3309
13777TIP3   OH262821   0.419   1.311  13.025  0.4304 -0.4374 -0.4254
13777TIP3    H162822   0.451   1.319  12.935 -0.9378  0.2133 -0.8749
13777TIP3    H262823   0.476   1.369  13.076  0.3229  0.2940 -1.1218
13778TIP3   OH262824   4.617   6.228   3.163  0.5134 -0.1980  0.0990
13778TIP3    H162825   4.568   6.246   3.244  1.0491  0.4901  0.2831
13778TIP3    H262826   4.676   6.157   3.187  0.0722 -0.5748  0.0694
13779TIP3   OH262827   1.707   0.876   5.778  0.2500 -0.8034  0.0981
13779TIP3    H162828   1.767   0.951   5.787 -1.4302  1.1851 -3.4694
13779TIP3    H262829   1.758   0.811   5.731 -0.0636  0.6888 -2.4820
13780TIP3   OH262830   4.075   2.784   0.904  0.1121 -0.4356  0.0325
13780TIP3    H162831   4.110   2.856   0.956 -1.2400 -0.3538  0.8839
13780TIP3    H262832   3.981   2.787   0.920 -0.1675 -1.3123 -1.3107
13781TIP3   OH262833   1.377   3.774  11.821 -0.5297  0.5582  0.0939
13781TIP3    H162834   1.339   3.861  11.837 -0.3077  0.6822 -0.0435
13781TIP3    H262835   1.374   3.764  11.726  0.1468  0.7398  0.0472
13782TIP3   OH262836   5.396   0.794  14.739  0.2413 -0.3794  0.4043
13782TIP3    H162837   5.365   0.705  14.760 -2.0632  0.1920 -0.2675
13782TIP3    H262838   5.487   0.782  14.714 -0.4729 -2.8675 -1.4628
13783TIP3   OH262839   0.097   1.246  15.396  0.9114 -0.2564 -0.4157
13783TIP3    H162840   0.071   1.161  15.432  0.8888 -0.5627 -1.1409
13783TIP3    H262841   0.015   1.287  15.369  0.8836  0.1716  0.2940
13784TIP3   OH262842   0.231   6.169  14.554 -0.1942 -0.5864 -0.6943
13784TIP3    H162843   0.167   6.158  14.624  0.3240 -0.9603 -0.2739
13784TIP3    H262844   0.207   6.252  14.512  0.0207  0.0815  0.4764
13785TIP3   OH262845   1.574   3.335   5.763 -0.5250 -0.3078  0.9091
13785TIP3    H162846   1.585   3.242   5.783  0.2216 -0.3300  0.4217
13785TIP3    H262847   1.501   3.363   5.819 -3.0914 -1.9531 -1.3403
13786TIP3   OH262848   3.455   2.557  13.679  0.0811 -0.1985  0.0505
13786TIP3    H162849   3.425   2.633  13.629  2.2330  0.2437 -0.6856
13786TIP3    H262850   3.439   2.580  13.770 -2.0889 -0.1793 -0.2866
13787TIP3   OH262851   4.144   6.088   4.739  0.4876 -0.1708  0.2187
13787TIP3    H162852   4.226   6.049   4.767  0.2820  0.7493  2.2547
13787TIP3    H262853   4.160   6.182   4.740 -0.2181 -0.0281 -0.6276
13788TIP3   OH262854   3.832   0.301  16.505 -0.0326  0.1242 -0.0504
13788TIP3    H162855   3.862   0.232  16.565 -1.7682 -1.5359 -0.9955
13788TIP3    H262856   3.782   0.361  16.560  1.1459  0.4643  0.7067
13789TIP3   OH262857   4.088   0.900   4.660 -0.2959 -0.2009 -0.1707
13789TIP3    H162858   4.105   0.989   4.631 -1.8747 -0.0572 -0.7545
13789TIP3    H262859   4.017   0.908   4.724  0.7140 -0.8871  1.0793
13790TIP3   OH262860   2.001   1.086  14.393  0.1893 -0.1907  0.4960
13790TIP3    H162861   1.988   1.033  14.472  0.6231  1.8278  2.0040
13790TIP3    H262862   2.087   1.058  14.360 -0.3119 -1.5683  0.2583
13791TIP3   OH262863   4.283   4.328   1.309  0.1030  0.8480 -0.6126
13791TIP3    H162864   4.248   4.371   1.230 -1.1237  0.3589 -0.3581
13791TIP3    H262865   4.271   4.393   1.378 -1.8303  0.1398 -0.2108
13792TIP3   OH262866   4.674   6.173   2.772  0.2215 -0.3317  0.3378
13792TIP3    H162867   4.645   6.151   2.684  0.8505 -1.4218  0.3859
13792TIP3    H262868   4.662   6.268   2.778 -1.1526 -0.4313 -0.4204
13793TIP3   OH262869   3.028   4.577   3.002 -0.3187  0.2381  0.1025
13793TIP3    H162870   3.059   4.654   3.050  0.4685  0.7783 -1.2169
13793TIP3    H262871   3.105   4.545   2.955 -0.4580 -1.8153  1.1618
13794TIP3   OH262872   3.728   4.596  10.735  0.0093 -0.0422  0.1423
13794TIP3    H162873   3.722   4.658  10.808  0.6567  2.6838 -1.9855
13794TIP3    H262874   3.653   4.616  10.679  0.5431 -0.8375 -0.8949
13795TIP3   OH262875   5.166   1.316  11.839  0.0647  0.1662  0.1231
13795TIP3    H162876   5.130   1.252  11.777  0.6920 -0.9544  0.8792
13795TIP3    H262877   5.236   1.269  11.884  0.7567  1.5028  0.4879
13796TIP3   OH262878   3.939   3.527   5.734 -0.0324 -0.0686  0.5543
13796TIP3    H162879   3.963   3.543   5.825 -3.0701 -2.2572  1.9336
13796TIP3    H262880   3.991   3.451   5.708  2.0262  1.5029 -0.2179
13797TIP3   OH262881   5.709   1.886  14.522  0.1698 -0.0573 -0.0834
13797TIP3    H162882   5.689   1.792  14.524 -1.0318  0.1268 -1.5895
13797TIP3    H262883   5.780   1.893  14.458 -0.3022  0.1399 -0.5916
13798TIP3   OH262884   4.607   6.457  11.057  0.0172 -0.5033  0.3511
13798TIP3    H162885   4.553   6.392  11.012 -0.4002 -0.2708  0.5080
13798TIP3    H262886   4.675   6.406  11.101  3.7380 -0.6227 -4.5866
13799TIP3   OH262887   1.398   2.246  10.878 -0.1288 -0.1182  0.1041
13799TIP3    H162888   1.417   2.154  10.892  1.9086  0.1319 -0.6249
13799TIP3    H262889   1.307   2.248  10.848  0.0157 -1.9658 -0.5701
13800TIP3   OH262890   6.554   2.707  11.302 -0.4149  0.2058 -0.6914
13800TIP3    H162891   6.587   2.657  11.227  0.5572 -0.1111 -0.0707
13800TIP3    H262892   6.632   2.750  11.337 -0.3046 -1.7411  1.7281
13801TIP3   OH262893   0.492   6.024   6.633  0.1751 -0.0856  0.0299
13801TIP3    H162894   0.477   6.117   6.616 -0.5988 -0.4956 -1.8185
13801TIP3    H262895   0.578   6.006   6.596  0.6919  0.0438  1.1300
13802TIP3   OH262896   6.352   3.061  13.103  0.2028  0.1527 -0.1996
13802TIP3    H162897   6.261   3.061  13.134 -0.3101  1.6638 -1.5034
13802TIP3    H262898   6.383   3.150  13.120  1.2364 -0.1670 -0.3396
13803TIP3   OH262899   4.736   6.388  13.592  0.4384  0.0313  0.6266
13803TIP3    H162900   4.699   6.476  13.583 -0.2875 -0.3863 -0.8593
13803TIP3    H262901   4.660   6.333  13.614  1.2755  0.1078  4.3430
13804TIP3   OH262902   4.463   0.058   0.976 -0.1528  0.1009 -0.0640
13804TIP3    H162903   4.391   0.018   1.025 -0.4446 -0.5356 -0.9807
13804TIP3    H262904   4.420   0.115   0.912  0.2231  0.9054  0.3780
13805TIP3   OH262905   0.644   0.189   1.595  0.4054  0.3568  0.2317
13805TIP3    H162906   0.593   0.270   1.605 -2.0157 -1.0217 -0.0365
13805TIP3    H262907   0.611   0.150   1.514 -0.1836 -1.9728  1.4991
13806TIP3   OH262908   1.779   1.798  11.547 -0.0496 -0.6450  0.0402
13806TIP3    H162909   1.828   1.834  11.621  1.0921  1.6459 -1.7065
13806TIP3    H262910   1.754   1.710  11.575  1.0880 -0.1839  2.7762
13807TIP3   OH262911   1.817   4.863   0.985  0.0395  0.0280 -0.2541
13807TIP3    H162912   1.825   4.790   1.046 -0.5118 -0.9516 -1.3091
13807TIP3    H262913   1.887   4.849   0.921  0.0746  0.5576 -0.3375
13808TIP3   OH262914   6.093   4.308   5.098  0.4183  0.1588 -0.9302
13808TIP3    H162915   6.119   4.388   5.053  1.7599 -0.1056 -0.6558
13808TIP3    H262916   6.105   4.327   5.191  2.3505 -0.8486 -0.9174
13809TIP3   OH262917   3.032   3.690   4.306  0.4516 -0.4658 -0.1507
13809TIP3    H162918   2.989   3.609   4.278  1.3540 -1.0395  0.0888
13809TIP3    H262919   3.113   3.693   4.255  1.1518 -0.5009  0.9175
13810TIP3   OH262920   5.137   5.951  12.551 -0.0311  0.0343  0.1693
13810TIP3    H162921   5.230   5.929  12.558 -0.1518 -0.4017  0.4662
13810TIP3    H262922   5.135   6.037  12.509  0.4482 -0.6566 -1.3372
13811TIP3   OH262923   5.494   5.762  11.811  0.4067  0.4709  0.4900
13811TIP3    H162924   5.504   5.812  11.730 -0.8966  0.6709  0.4403
13811TIP3    H262925   5.481   5.829  11.879 -0.5945  0.2350  0.5381
13812TIP3   OH262926   5.485   4.080  16.171 -0.5558  0.0370  0.0818
13812TIP3    H162927   5.475   4.011  16.237  0.7345  0.0993  0.3611
13812TIP3    H262928   5.410   4.068  16.113 -0.9038 -0.9585  0.7105
13813TIP3   OH262929   5.976   6.379   2.506  0.5959 -0.2285 -0.4237
13813TIP3    H162930   5.902   6.421   2.552  0.2010 -0.7012 -0.6224
13813TIP3    H262931   6.010   6.448   2.450  1.4363  0.5363  0.9653
13814TIP3   OH262932   4.704   6.320  15.936  0.0356 -0.1437  0.5175
13814TIP3    H162933   4.613   6.305  15.912  0.2922  1.4586 -1.6999
13814TIP3    H262934   4.704   6.321  16.032 -2.1969 -0.4612  0.5614
13815TIP3   OH262935   4.451   5.790  14.047 -0.4936 -0.3253  0.3662
13815TIP3    H162936   4.482   5.768  14.135  1.0603 -0.1667 -0.1129
13815TIP3    H262937   4.409   5.875  14.057 -1.8146 -1.0558  1.2475
13816TIP3   OH262938   6.738   1.263   0.968 -0.5093  0.2332  0.1086
13816TIP3    H162939   6.770   1.183   0.927  0.5611  0.1391  1.0811
13816TIP3    H262940   6.740   1.328   0.897  1.0002 -0.0020 -0.1141
13817TIP3   OH262941   6.711   1.832   3.733 -0.2801 -0.1094  0.5380
13817TIP3    H162942   6.664   1.861   3.654 -0.1137  0.8860  0.7930
13817TIP3    H262943   6.726   1.739   3.718 -0.2176  0.0668 -0.6307
13818TIP3   OH262944   5.046   3.235  11.752 -0.5182  0.1444  0.6891
13818TIP3    H162945   5.025   3.304  11.689 -2.4513 -0.0960  1.0122
13818TIP3    H262946   5.076   3.162  11.699 -2.1935 -0.0827 -0.0128
13819TIP3   OH262947   4.289   4.472  16.859 -0.4167  0.0515  0.2679
13819TIP3    H162948   4.351   4.410  16.819  0.4673  1.6616 -0.9424
13819TIP3    H262949   4.208   4.421  16.869 -0.0683 -0.9872 -1.7583
13820TIP3   OH262950   3.384   4.591   5.251 -0.6592 -0.0627 -0.1916
13820TIP3    H162951   3.402   4.677   5.212  0.9520  0.7942  2.2367
13820TIP3    H262952   3.325   4.609   5.324 -1.1151 -1.1797 -0.2642
13821TIP3   OH262953   4.208   6.110   3.915  0.1880 -0.7305 -0.1929
13821TIP3    H162954   4.231   6.198   3.885  0.9937 -0.2480  1.6740
13821TIP3    H262955   4.190   6.121   4.009 -0.7075 -2.3917 -0.1262
13822TIP3   OH262956   4.588   2.666  16.862 -0.0421 -0.0826  0.3104
13822TIP3    H162957   4.588   2.738  16.925  0.6626  0.3073 -0.1246
13822TIP3    H262958   4.509   2.616  16.883  0.3043 -0.1104  1.6608
13823TIP3   OH262959   0.362   6.175  15.432 -0.2400 -0.0522 -0.4846
13823TIP3    H162960   0.363   6.086  15.399 -0.4508 -0.4382  0.5180
13823TIP3    H262961   0.367   6.166  15.527  0.9600  1.0355 -0.4073
13824TIP3   OH262962   5.272   0.130   0.706  0.7753 -0.1672  0.4009
13824TIP3    H162963   5.214   0.193   0.664  0.9774  0.2709  0.7703
13824TIP3    H262964   5.343   0.115   0.642 -0.0499 -1.1831 -0.3141
13825TIP3   OH262965   0.776   4.972   3.470 -0.3653 -0.2347  0.2957
13825TIP3    H162966   0.719   4.975   3.394 -0.4264 -0.3986  0.3346
13825TIP3    H262967   0.744   4.897   3.521 -0.1046 -0.3380  0.3070
13826TIP3   OH262968   6.270   0.955   1.571  0.9075 -0.4343  0.3496
13826TIP3    H162969   6.310   0.958   1.484 -0.2961 -0.3866 -0.2141
13826TIP3    H262970   6.342   0.932   1.629  2.0469  0.8870 -0.4641
13827TIP3   OH262971   2.994   1.206  15.946  0.2649 -0.5276  0.4967
13827TIP3    H162972   3.038   1.235  15.867 -1.0758  2.0814  0.6052
13827TIP3    H262973   2.908   1.176  15.916  0.4142 -1.2911  0.7938
13828TIP3   OH262974   1.697   6.151  14.163 -0.1437 -0.3422  0.0694
13828TIP3    H162975   1.634   6.185  14.100  0.7617  0.0799 -0.6365
13828TIP3    H262976   1.657   6.070  14.196 -1.9998  0.9776  1.2401
13829TIP3   OH262977   4.396   2.005  10.678 -0.3446  0.1039 -0.1790
13829TIP3    H162978   4.420   2.056  10.600  1.3651  1.3153  1.0477
13829TIP3    H262979   4.333   2.059  10.724  0.4814  0.5297  0.4717
13830TIP3   OH262980   5.815   6.745  16.250  0.1345 -0.1345  0.4180
13830TIP3    H162981   5.886   6.784  16.200  0.3368 -0.7496  0.2175
13830TIP3    H262982   5.754   6.712  16.184 -0.9541  1.4547  0.5801
13831TIP3   OH262983   5.016   5.663  12.941  0.0911  0.3945 -0.1654
13831TIP3    H162984   5.095   5.711  12.966  0.3914 -0.0020 -0.3410
13831TIP3    H262985   4.961   5.727  12.896  0.6917  0.4579 -0.8205
13832TIP3   OH262986   2.492   4.933   0.894 -0.0479  0.0133  0.2265
13832TIP3    H162987   2.579   4.909   0.926 -0.1285  0.6860  1.0076
13832TIP3    H262988   2.507   4.973   0.809  0.5154  0.9130  0.7349
13833TIP3   OH262989   6.840   0.219   3.661  0.0347 -0.2753  0.1806
13833TIP3    H162990   6.770   0.275   3.695  1.3439  2.2583 -1.0600
13833TIP3    H262991   6.811   0.195   3.573  0.6352  0.7115 -0.3041
13834TIP3   OH262992   4.984   3.442  11.497 -0.4240  0.1185  0.3720
13834TIP3    H162993   4.940   3.357  11.491  0.8721 -0.7574  2.3872
13834TIP3    H262994   5.066   3.431  11.449 -1.4453  1.1790 -1.7806
13835TIP3   OH262995   5.247   4.021   6.277  1.0397  0.1661  0.2185
13835TIP3    H162996   5.301   4.061   6.346  0.2756  0.2895  0.7535
13835TIP3    H262997   5.310   3.975   6.222  1.7904  1.0036  0.3490
13836TIP3   OH262998   5.243   2.043  11.920  0.0664  0.6660  0.1603
13836TIP3    H162999   5.240   1.960  11.872  0.5876 -0.1770  1.5314
13836TIP3    H263000   5.228   2.019  12.011  0.4467  2.0560  0.6156
13837TIP3   OH263001   5.589   0.854   1.032  0.6847  0.9787 -0.0450
13837TIP3    H163002   5.530   0.836   1.105  1.3008 -0.4830  0.1262
13837TIP3    H263003   5.535   0.840   0.953  0.6308  0.3045  0.1124
13838TIP3   OH263004   5.908   5.934  10.397  0.1940  0.2467 -0.1684
13838TIP3    H163005   5.916   5.916  10.304  0.4946 -1.4730  0.1532
13838TIP3    H263006   5.886   6.027  10.402  0.6857  0.4862 -1.9149
13839TIP3   OH263007   3.758   2.745  14.501  0.3125 -0.1318  0.2282
13839TIP3    H163008   3.790   2.794  14.577 -0.4778  2.1604 -0.8352
13839TIP3    H263009   3.671   2.716  14.527  0.6791 -0.8091  0.7615
13840TIP3   OH263010   1.003   6.816   3.097 -0.0029  0.2397 -0.0137
13840TIP3    H163011   1.005   6.804   3.192  0.8043 -0.3315 -0.0963
13840TIP3    H263012   0.914   6.788   3.072 -0.0759 -0.0175  0.5176
13841TIP3   OH263013   0.704   0.269  17.128  0.4335 -0.1883 -0.4994
13841TIP3    H163014   0.626   0.217  17.147  1.2705 -0.7370  1.7503
13841TIP3    H263015   0.765   0.206  17.089  1.3207 -0.9351  1.9088
13842TIP3   OH263016   1.251   1.176  14.337  0.0805  0.7484  0.4712
13842TIP3    H163017   1.164   1.192  14.300  0.8611  2.9650 -0.6341
13842TIP3    H263018   1.289   1.108  14.281  0.5551  2.7730 -1.8489
13843TIP3   OH263019   2.244   4.865   1.284  0.0107 -0.5404  0.1050
13843TIP3    H163020   2.339   4.852   1.287  0.2406  0.6233 -1.2152
13843TIP3    H263021   2.227   4.935   1.347  0.2336  0.1556 -0.5822
13844TIP3   OH263022   4.509   3.884   5.909  0.3345 -0.1313  0.1943
13844TIP3    H163023   4.519   3.967   5.862 -0.2916  0.9421  1.8725
13844TIP3    H263024   4.415   3.877   5.925  0.5770 -0.2377  1.6672
13845TIP3   OH263025   4.700   0.622  12.544  0.4644  0.6354 -0.1876
13845TIP3    H163026   4.792   0.605  12.562  0.4058  0.3553 -0.1498
13845TIP3    H263027   4.652   0.557  12.595  0.2718  0.2702 -0.8128
13846TIP3   OH263028   6.254   3.554   2.671 -0.1063  0.2082 -0.1367
13846TIP3    H163029   6.339   3.596   2.659  0.2235 -0.1445  0.8327
13846TIP3    H263030   6.213   3.557   2.585  1.4614 -0.8852 -0.9746
13847TIP3   OH263031   2.923   3.424   5.158  0.5118  0.0738  0.0078
13847TIP3    H163032   2.899   3.380   5.076 -5.5938 -0.6266  1.6309
13847TIP3    H263033   2.851   3.484   5.175  0.9507 -0.3672  5.1285
13848TIP3   OH263034   3.214   6.106   1.345 -0.0268  0.2035  0.2928
13848TIP3    H163035   3.277   6.036   1.329  1.7657  1.6619  0.5957
13848TIP3    H263036   3.210   6.112   1.440 -0.8558 -0.0468  0.2796
13849TIP3   OH263037   0.257   0.455   1.670 -0.0233 -0.3930 -0.0030
13849TIP3    H163038   0.223   0.505   1.596  0.4181  0.1796  0.1674
13849TIP3    H263039   0.201   0.480   1.743 -0.0278 -0.4242  0.0042
13850TIP3   OH263040   1.406   1.369   6.416  0.4607 -0.5181 -0.1627
13850TIP3    H163041   1.316   1.342   6.402  0.6326 -0.8128 -0.7370
13850TIP3    H263042   1.399   1.457   6.452 -0.0768 -0.9580  0.8447
13851TIP3   OH263043   4.407   6.752  12.153 -0.5737 -0.1854 -0.3569
13851TIP3    H163044   4.337   6.753  12.218  0.6535  0.3190  1.0217
13851TIP3    H263045   4.437   6.661  12.151 -2.4717 -0.8583 -2.3903
13852TIP3   OH263046   1.543   5.406   1.693  0.1436 -0.0298  0.2183
13852TIP3    H163047   1.619   5.456   1.662 -0.1923 -0.4682 -1.3856
13852TIP3    H263048   1.543   5.420   1.788  1.6120  0.8288  0.1297
13853TIP3   OH263049   0.794   1.550   4.437 -0.4821 -0.0569 -0.0058
13853TIP3    H163050   0.870   1.493   4.444  0.2320  1.0072  1.4314
13853TIP3    H263051   0.822   1.633   4.476 -2.3052  0.4333  0.3889
13854TIP3   OH263052   5.552   6.361   1.786 -0.4275 -0.4573 -0.1862
13854TIP3    H163053   5.526   6.349   1.878  0.0353 -0.2905 -0.0321
13854TIP3    H263054   5.471   6.389   1.742 -0.2305  1.3623  0.5397
13855TIP3   OH263055   2.344   3.125  14.831  0.2026  0.3903  0.0011
13855TIP3    H163056   2.272   3.117  14.768 -0.1653  3.5428 -0.1454
13855TIP3    H263057   2.410   3.177  14.786  2.7054 -2.3657  0.1688
13856TIP3   OH263058   3.665   5.990  11.247  0.8581 -0.0085  0.5313
13856TIP3    H163059   3.730   5.939  11.296  3.3559  1.8690 -0.5927
13856TIP3    H263060   3.716   6.059  11.205 -1.9166  1.5806 -0.4811
13857TIP3   OH263061   6.546   3.656  13.596 -0.3605  0.0682 -0.4670
13857TIP3    H163062   6.628   3.657  13.547  0.5605  0.1250  1.0065
13857TIP3    H263063   6.548   3.573  13.644 -1.0298  0.2016 -0.1976
13858TIP3   OH263064   1.196   2.387   4.001 -0.0779 -0.6272 -0.2241
13858TIP3    H163065   1.186   2.478   3.974 -1.0731  0.2767  2.8257
13858TIP3    H263066   1.270   2.388   4.062 -0.8946 -1.5739  0.8315
13859TIP3   OH263067   0.094   3.980  16.861 -0.3211 -0.1179  0.2715
13859TIP3    H163068   0.135   4.043  16.920  1.3382 -1.3406  0.5064
13859TIP3    H263069   0.094   3.898  16.909 -1.8052 -0.4788 -0.2876
13860TIP3   OH263070   0.215   4.682   0.617 -0.1464  0.2369 -0.4882
13860TIP3    H163071   0.218   4.777   0.617  1.8052  0.3715 -4.2629
13860TIP3    H263072   0.307   4.655   0.612 -0.6077 -1.9318  1.3691
13861TIP3   OH263073   3.123   6.079  11.486  0.1213 -0.3860 -0.1324
13861TIP3    H163074   3.185   6.008  11.499 -2.2003 -2.5888 -0.2377
13861TIP3    H263075   3.096   6.072  11.394  0.2546  1.0241 -0.3096
13862TIP3   OH263076   3.333   2.465  11.302 -0.2928  0.6725 -0.4116
13862TIP3    H163077   3.296   2.497  11.220 -0.0221 -1.3367 -1.3722
13862TIP3    H263078   3.427   2.462  11.286 -0.3778 -1.5480 -0.7682
13863TIP3   OH263079   2.097   0.103   2.256 -0.0044 -0.0505  0.2238
13863TIP3    H163080   2.012   0.063   2.273  0.1556 -0.2119  0.6431
13863TIP3    H263081   2.122   0.070   2.169 -0.4575  0.1572  0.0102
13864TIP3   OH263082   4.183   5.151  14.980 -0.6152  0.3041  0.7499
13864TIP3    H163083   4.137   5.164  15.064 -0.8524  2.0037  0.3860
13864TIP3    H263084   4.231   5.232  14.966  0.2550 -0.3609 -0.2849
13865TIP3   OH263085   2.546   1.422  14.000  0.1159  0.2309  0.0878
13865TIP3    H163086   2.552   1.353  13.934 -1.5986 -0.5027  0.6327
13865TIP3    H263087   2.481   1.483  13.966 -0.7868 -0.1562  1.0412
13866TIP3   OH263088   3.074   0.553   5.847 -0.2888  0.7380  0.9869
13866TIP3    H163089   3.038   0.642   5.844  0.2222  0.9310 -1.5879
13866TIP3    H263090   2.998   0.496   5.833 -0.2831  0.9020  0.2662
13867TIP3   OH263091   4.123   0.876   4.376 -0.0980 -0.2057 -0.1452
13867TIP3    H163092   4.206   0.923   4.364  0.2918 -0.6915  0.5968
13867TIP3    H263093   4.105   0.882   4.470 -2.1477  1.9569 -0.5683
13868TIP3   OH263094   2.311   4.800   3.170 -0.3525 -0.3699  0.1455
13868TIP3    H163095   2.260   4.877   3.144 -1.9670 -1.0906  0.9811
13868TIP3    H263096   2.384   4.797   3.109 -1.7849  0.2620 -1.7020
13869TIP3   OH263097   4.806   6.234  11.781 -0.6367  0.2922  0.8842
13869TIP3    H163098   4.754   6.293  11.727 -0.3698 -1.3415 -1.2658
13869TIP3    H263099   4.745   6.165  11.806 -0.2055 -0.1299  0.7822
13870TIP3   OH263100   6.213   2.540   1.668  0.1892  0.2141 -0.2352
13870TIP3    H163101   6.140   2.555   1.728 -0.1345  0.2504 -0.6269
13870TIP3    H263102   6.171   2.507   1.588  0.7689 -1.6472  0.1819
13871TIP3   OH263103   5.734   6.252  12.817 -0.0095  0.2890 -0.0865
13871TIP3    H163104   5.664   6.279  12.875 -1.5475 -1.0662 -1.2062
13871TIP3    H263105   5.746   6.158  12.835  0.0858  0.0426 -1.3134
13872TIP3   OH263106   4.131   5.281   5.180  0.2212 -0.6436 -0.2384
13872TIP3    H163107   4.056   5.267   5.238 -1.7646 -1.4188 -2.8576
13872TIP3    H263108   4.123   5.215   5.112  0.6916  2.0416 -3.1428
13873TIP3   OH263109   1.842   1.881   6.676  0.5208 -0.2832  0.4528
13873TIP3    H163110   1.879   1.914   6.594 -1.3092 -2.0077 -1.1699
13873TIP3    H263111   1.896   1.920   6.744  1.8963  1.5175 -1.5435
13874TIP3   OH263112   3.875   5.558   3.868 -0.1461 -0.6618 -0.2041
13874TIP3    H163113   3.843   5.616   3.936  1.2667  0.8691 -0.7719
13874TIP3    H263114   3.948   5.510   3.909 -1.5891 -2.4443  0.4003
13875TIP3   OH263115   0.961   4.919  14.503  0.1994  0.1878 -0.3681
13875TIP3    H163116   0.964   5.005  14.462 -0.8938  0.7555  0.6969
13875TIP3    H263117   1.029   4.922  14.571 -1.3757  1.1138  1.2697
13876TIP3   OH263118   6.028   5.941  14.938  0.2997 -0.5626 -0.0672
13876TIP3    H163119   5.979   5.872  14.981 -1.0918  0.6493  0.4028
13876TIP3    H263120   6.119   5.912  14.939 -0.0880 -1.8037  1.2038
13877TIP3   OH263121   5.313   5.622   0.412 -0.3744  0.1111 -0.5047
13877TIP3    H163122   5.268   5.577   0.341  2.7463 -2.9473 -0.8096
13877TIP3    H263123   5.391   5.659   0.371 -0.5082  1.8083  0.6774
13878TIP3   OH263124   5.467   6.348   5.288 -0.0548 -0.4043  0.4093
13878TIP3    H163125   5.378   6.317   5.277  0.4501 -1.5982 -0.5695
13878TIP3    H263126   5.467   6.436   5.250 -1.2289  0.4275  2.1653
13879TIP3   OH263127   2.502   4.744  13.468 -0.1007  0.1660  0.0776
13879TIP3    H163128   2.477   4.704  13.385  0.1139  0.4020 -0.1012
13879TIP3    H263129   2.510   4.837  13.449  1.8467 -0.0084 -0.1053
13880TIP3   OH263130   5.127   3.099   4.356  0.0925  0.0470 -0.4292
13880TIP3    H163131   5.140   3.005   4.373 -0.6871  0.0536  0.2673
13880TIP3    H263132   5.138   3.107   4.261 -2.0724 -1.1631 -0.8636
13881TIP3   OH263133   3.943   1.913  15.978 -0.4177  0.5276  0.1374
13881TIP3    H163134   3.908   1.825  15.991 -1.5465  1.1174  1.3099
13881TIP3    H263135   3.912   1.938  15.891 -0.4703 -0.0611 -0.0161
13882TIP3   OH263136   2.234   3.554  13.095 -0.2836  0.4241 -0.5480
13882TIP3    H163137   2.210   3.569  13.004 -0.3763  1.7509 -0.3220
13882TIP3    H263138   2.231   3.641  13.136  1.7844  0.1948  0.2323
13883TIP3   OH263139   6.449   4.732  16.646 -0.1702 -0.3881 -0.3168
13883TIP3    H163140   6.510   4.671  16.605 -0.4561  0.0119 -1.3561
13883TIP3    H263141   6.500   4.775  16.715  0.5263 -0.5144 -0.7481
13884TIP3   OH263142   1.586   1.739  15.383 -0.1561 -0.4760 -0.4058
13884TIP3    H163143   1.673   1.738  15.423 -0.4167 -1.2098  0.1593
13884TIP3    H263144   1.584   1.661  15.327 -0.6074 -0.7302 -0.0496
13885TIP3   OH263145   4.652   3.486   4.522 -0.1592 -0.6960  0.1155
13885TIP3    H163146   4.623   3.455   4.608 -0.9760  0.2768  0.2029
13885TIP3    H263147   4.734   3.439   4.506 -0.6310 -1.8047  0.8740
13886TIP3   OH263148   0.361   5.379  12.740  0.0130 -0.4880  0.6332
13886TIP3    H163149   0.316   5.324  12.804  0.6421 -0.4957  1.0889
13886TIP3    H263150   0.306   5.377  12.663 -1.2717  0.3102  1.4989
13887TIP3   OH263151   3.288   0.288   4.014  0.0683  0.1257  0.0025
13887TIP3    H163152   3.333   0.265   4.096  1.0663 -1.3938 -0.9071
13887TIP3    H263153   3.239   0.209   3.991 -2.3913  1.4171  0.4527
13888TIP3   OH263154   5.133   2.479   2.501  0.1488 -1.1004 -0.1142
13888TIP3    H163155   5.129   2.385   2.522 -1.2464 -0.7786  1.3394
13888TIP3    H263156   5.050   2.513   2.533 -0.5438  0.2219 -3.0177
13889TIP3   OH263157   2.835   0.411   1.010 -0.4262 -0.2508  0.4152
13889TIP3    H163158   2.857   0.362   0.931 -0.0018 -1.4630  1.2577
13889TIP3    H263159   2.919   0.439   1.047 -0.4236 -1.9215  1.7919
13890TIP3   OH263160   6.674   0.050   5.514  0.2867 -0.1876  0.2843
13890TIP3    H163161   6.675  -0.036   5.556 -0.4219  0.3457  1.4179
13890TIP3    H263162   6.722   0.107   5.573 -0.2094  0.4459  0.0882
13891TIP3   OH263163   6.374   2.996  13.877  0.5699 -0.0952  0.1040
13891TIP3    H163164   6.432   2.989  13.800  0.3408 -0.6571 -0.0261
13891TIP3    H263165   6.411   2.933  13.939 -0.2718 -0.9438 -0.2333
13892TIP3   OH263166   6.731   6.056   1.267  0.0414  0.3221  0.4357
13892TIP3    H163167   6.775   6.141   1.257  1.0194 -0.3506 -1.5777
13892TIP3    H263168   6.666   6.071   1.335  0.2367  2.6698  0.2022
13893TIP3   OH263169   6.136   1.996  13.135 -0.1449 -0.2765 -0.0596
13893TIP3    H163170   6.170   2.059  13.198  2.1196 -0.4435 -0.9904
13893TIP3    H263171   6.114   1.919  13.187  1.0003 -0.1536  0.6555
13894TIP3   OH263172   5.048   2.949   6.075  0.1502  0.5694 -0.1532
13894TIP3    H163173   5.133   2.920   6.040 -0.3227 -0.3743 -0.5626
13894TIP3    H263174   5.042   2.907   6.161 -0.2756 -0.0862 -0.4947
13895TIP3   OH263175   0.639   3.417   4.334  0.1488 -0.7837 -0.1555
13895TIP3    H163176   0.667   3.326   4.322 -0.5852 -1.0056 -0.2174
13895TIP3    H263177   0.595   3.439   4.252  3.0133  0.6737 -1.4620
13896TIP3   OH263178   2.998   0.816  11.308  0.4736  0.1107  0.7578
13896TIP3    H163179   3.066   0.818  11.241 -0.9551  0.4567 -0.7247
13896TIP3    H263180   2.923   0.861  11.269 -0.7175 -0.4812  2.2414
13897TIP3   OH263181   6.578   3.362   3.456  0.5710  0.3609  0.7510
13897TIP3    H163182   6.549   3.280   3.416  2.4220 -0.9467  1.9327
13897TIP3    H263183   6.526   3.368   3.537  2.0533 -0.9739  1.8822
13898TIP3   OH263184   5.684   0.504   0.972 -0.1014 -0.5232  0.1834
13898TIP3    H163185   5.692   0.418   0.932 -1.8396 -0.3838 -0.5386
13898TIP3    H263186   5.590   0.516   0.985  0.0098  1.6131 -0.5331
13899TIP3   OH263187   1.406   3.300  17.059 -0.1615  0.4460 -0.3061
13899TIP3    H163188   1.425   3.276  17.150  1.5934 -1.8804 -1.2027
13899TIP3    H263189   1.373   3.219  17.020 -1.5269  1.5862 -1.6262
13900TIP3   OH263190   4.031   6.530  14.897  0.0784  0.7070 -0.0725
13900TIP3    H163191   3.972   6.582  14.842 -1.9548  0.2609  1.5527
13900TIP3    H263192   4.041   6.582  14.977  0.4434 -0.0559  0.3888
13901TIP3   OH263193   1.852   6.472   3.544 -0.1211  0.1161 -0.2352
13901TIP3    H163194   1.800   6.498   3.467  0.2564 -1.6182 -1.1316
13901TIP3    H263195   1.829   6.380   3.558  0.3852  0.2019  1.2983
13902TIP3   OH263196   3.845   4.693  15.053  0.0327 -0.3395  0.5382
13902TIP3    H163197   3.856   4.628  14.983 -0.1924 -0.4094  0.5639
13902TIP3    H263198   3.924   4.685  15.106  0.6539  0.3937 -0.2552
13903TIP3   OH263199   4.151   1.563  15.305  0.2332  0.1530 -0.3602
13903TIP3    H163200   4.067   1.516  15.301  0.4377 -0.3183  0.7245
13903TIP3    H263201   4.217   1.494  15.299  0.5404  0.3989  0.2206
13904TIP3   OH263202   3.688   3.984   3.684 -0.0052 -0.3099 -0.0136
13904TIP3    H163203   3.758   3.996   3.748  1.4393 -0.4910 -1.5126
13904TIP3    H263204   3.632   3.917   3.723  0.2674  0.3213  1.5152
13905TIP3   OH263205   1.157   4.413   4.775  0.1435 -0.2889 -0.4445
13905TIP3    H163206   1.251   4.412   4.760  0.1470 -1.1655 -0.4507
13905TIP3    H263207   1.134   4.505   4.781  0.8337 -0.0291 -1.5327
13906TIP3   OH263208   0.933   0.094   1.465 -0.2947 -0.1804  0.4205
13906TIP3    H163209   0.962   0.165   1.408 -1.5128 -0.6997 -0.9061
13906TIP3    H263210   1.002   0.028   1.459  0.8367  0.8190  1.6455
13907TIP3   OH263211   6.824   0.115   1.615  0.1631 -0.0146  0.1610
13907TIP3    H163212   6.750   0.081   1.566  0.6945  0.1782 -0.8007
13907TIP3    H263213   6.812   0.081   1.704 -0.2089 -1.3104 -0.3654
13908TIP3   OH263214   5.665   3.295   4.826  0.1624 -0.2671  0.2089
13908TIP3    H163215   5.577   3.292   4.790  0.0914 -0.4346  0.3954
13908TIP3    H263216   5.655   3.341   4.909  0.6214  1.8613 -0.8347
13909TIP3   OH263217   1.300   4.575  16.348 -0.5486  0.7250  0.2366
13909TIP3    H163218   1.282   4.666  16.371  1.9446  1.5418 -0.7839
13909TIP3    H263219   1.260   4.524  16.419 -1.2552  2.6390  1.2670
13910TIP3   OH263220   0.279   3.272  17.111  0.2900 -0.3804 -0.2528
13910TIP3    H163221   0.347   3.299  17.172 -0.5994  1.2344  0.0734
13910TIP3    H263222   0.281   3.338  17.042 -0.5495 -0.6492 -0.5456
13911TIP3   OH263223   6.184   0.755   5.108 -0.3301 -0.3791 -0.1863
13911TIP3    H163224   6.138   0.826   5.153  2.5824  1.3355  0.3026
13911TIP3    H263225   6.209   0.793   5.024  1.3184 -0.7719  0.1013
13912TIP3   OH263226   0.673   4.135   0.852  0.2837  0.5383 -0.1753
13912TIP3    H163227   0.675   4.112   0.945 -0.7307 -1.8736 -0.6765
13912TIP3    H263228   0.763   4.160   0.831  0.5472  0.9843  1.4038
13913TIP3   OH263229   3.847   2.098  11.303 -0.0107  0.2289  0.5518
13913TIP3    H163230   3.813   2.142  11.381  1.7150  0.6085  1.1259
13913TIP3    H263231   3.908   2.032  11.337  1.8279  1.3094 -0.4795
13914TIP3   OH263232   1.870   4.824  14.503 -0.4525  0.5625  0.0213
13914TIP3    H163233   1.863   4.760  14.432  0.7049  0.6742 -0.2166
13914TIP3    H263234   1.905   4.902  14.461  0.7832  0.4523  0.7921
13915TIP3   OH263235   0.513   5.844  12.954 -0.1368  0.0390  0.3026
13915TIP3    H163236   0.502   5.829  13.048 -2.6128  0.8580  0.1966
13915TIP3    H263237   0.464   5.773  12.913  0.2861  0.1337 -0.3694
13916TIP3   OH263238   1.152   3.273   5.374  0.8772 -0.2585 -0.5046
13916TIP3    H163239   1.199   3.328   5.312 -0.0917  0.5665 -0.5359
13916TIP3    H263240   1.219   3.244   5.436  1.6342 -0.1076 -1.2325
13917TIP3   OH263241   6.049   6.815   4.489  0.2349 -0.0960 -0.3143
13917TIP3    H163242   6.030   6.874   4.562  0.7027 -0.1490 -0.1440
13917TIP3    H263243   6.120   6.859   4.441  0.3045 -0.3247 -0.4206
13918TIP3   OH263244   5.144   3.304  16.510  0.2276 -0.3379  0.2553
13918TIP3    H163245   5.212   3.316  16.443 -1.1012 -1.5525 -1.4075
13918TIP3    H263246   5.096   3.387  16.511  0.2454 -0.3137 -0.3363
13919TIP3   OH263247   2.233   2.995  15.073  0.1021 -0.4302  0.7017
13919TIP3    H163248   2.289   3.029  15.143 -1.4777 -0.8930  2.2760
13919TIP3    H263249   2.251   3.052  14.998  2.1773 -0.1852  1.3087
13920TIP3   OH263250   2.872   1.509  13.544  0.0293 -0.4959  0.3416
13920TIP3    H163251   2.798   1.569  13.553  0.0771 -0.1274 -1.4113
13920TIP3    H263252   2.949   1.566  13.547  0.0680 -0.3880 -1.5536
13921TIP3   OH263253   5.898   0.783  11.619  0.1169  0.3820  1.1635
13921TIP3    H163254   5.824   0.742  11.664 -0.3545 -0.1910 -0.0567
13921TIP3    H263255   5.936   0.843  11.683  0.0970 -1.1000  2.6179
13922TIP3   OH263256   4.562   2.405  12.469 -0.1458 -0.2028 -0.0278
13922TIP3    H163257   4.506   2.368  12.401 -1.9333  0.3205  1.0966
13922TIP3    H263258   4.509   2.402  12.549  2.3335 -2.0198  1.6940
13923TIP3   OH263259   0.746   3.467  16.714  0.0315 -0.5937  0.2486
13923TIP3    H163260   0.809   3.410  16.759 -1.1299  1.1017  4.4860
13923TIP3    H263261   0.765   3.555  16.747 -0.7088  0.9622 -3.1080
13924TIP3   OH263262   1.876   4.183  13.346  0.3124 -0.1602 -0.0189
13924TIP3    H163263   1.873   4.141  13.260  2.4818  0.9436 -0.6998
13924TIP3    H263264   1.886   4.111  13.408  0.9465 -0.8341 -0.8886
13925TIP3   OH263265   6.457   1.556  14.943  0.4787  0.3623  0.1291
13925TIP3    H163266   6.467   1.578  14.850  0.9205  0.1519  0.1247
13925TIP3    H263267   6.411   1.472  14.943 -1.5171  1.3965  0.1518
13926TIP3   OH263268   5.071   2.310   3.193 -0.0099  0.1837 -0.2594
13926TIP3    H163269   5.033   2.282   3.277 -3.0309 -0.1602 -1.6097
13926TIP3    H263270   5.165   2.307   3.207 -0.3476 -2.2347  2.3729
13927TIP3   OH263271   2.637   6.831  15.429 -0.1130  0.0746 -0.0913
13927TIP3    H163272   2.575   6.800  15.363 -3.1546  1.9860  1.5904
13927TIP3    H263273   2.669   6.915  15.395 -0.2600  0.1768  0.0159
13928TIP3   OH263274   5.669   1.247  16.312 -0.2285  0.2872  0.3676
13928TIP3    H163275   5.726   1.323  16.299 -0.1546 -0.0355 -1.5662
13928TIP3    H263276   5.724   1.172  16.289 -0.3976 -0.3538  1.9426
13929TIP3   OH263277   3.489   3.539   2.851 -0.1679  0.2658  0.5470
13929TIP3    H163278   3.483   3.625   2.894  0.3685  0.1968  0.7707
13929TIP3    H263279   3.427   3.484   2.899 -1.6261  0.9062 -0.5497
13930TIP3   OH263280   3.371   0.159  13.908 -0.1811  0.2080  0.0576
13930TIP3    H163281   3.465   0.173  13.923 -0.1194  2.7040 -1.9435
13930TIP3    H263282   3.340   0.119  13.989  2.6202 -0.9192  0.7132
13931TIP3   OH263283   3.162   3.910   5.469  0.0993 -0.2687  0.1955
13931TIP3    H163284   3.173   3.837   5.530  0.1926  1.4135  2.3233
13931TIP3    H263285   3.171   3.871   5.382  2.4131 -2.4160  1.2739
13932TIP3   OH263286   5.387   2.530   3.838  0.0979 -0.2452 -0.1833
13932TIP3    H163287   5.457   2.507   3.777  0.3872  1.1956 -0.4398
13932TIP3    H263288   5.308   2.529   3.785  0.3893  1.3017 -0.7113
13933TIP3   OH263289   6.409   0.496  16.387 -0.4045 -0.3958 -0.0264
13933TIP3    H163290   6.402   0.447  16.305  0.5380  0.1684 -0.4559
13933TIP3    H263291   6.499   0.482  16.416 -0.2164  0.7784  0.0180
13934TIP3   OH263292   0.705   2.035  14.558  0.0186  0.0945  0.0466
13934TIP3    H163293   0.653   1.968  14.603 -0.2166 -0.3948 -0.9348
13934TIP3    H263294   0.720   2.000  14.471  0.5448  0.9941 -0.2426
13935TIP3   OH263295   3.597   0.756   6.484 -0.5988  0.2174  0.2814
13935TIP3    H163296   3.585   0.850   6.470  0.1424  0.6379  2.1870
13935TIP3    H263297   3.684   0.737   6.450 -0.0449  0.6001  1.4415
13936TIP3   OH263298   5.779   6.524   2.611 -0.2140 -0.2470 -0.2809
13936TIP3    H163299   5.716   6.454   2.595  0.9835 -1.3767 -0.3100
13936TIP3    H263300   5.775   6.539   2.706 -0.4658 -0.3787 -0.2702
13937TIP3   OH263301   2.717   6.122  11.841 -0.4782  0.3659 -0.1101
13937TIP3    H163302   2.687   6.117  11.750 -0.2998  1.1337 -0.2134
13937TIP3    H263303   2.658   6.063  11.889 -0.2868 -0.3914 -0.7871
13938TIP3   OH263304   1.253   1.961   3.350 -0.1731  0.0270 -0.3734
13938TIP3    H163305   1.160   1.983   3.352 -0.1889 -0.0804  1.1886
13938TIP3    H263306   1.298   2.045   3.342 -0.3960  0.0156 -2.1231
13939TIP3   OH263307   5.284   2.901  16.597 -0.4795  0.1336 -0.3254
13939TIP3    H163308   5.258   2.827  16.651 -0.9618  0.3294 -0.2834
13939TIP3    H263309   5.380   2.903  16.603 -0.4519 -0.6129 -0.5030
13940TIP3   OH263310   4.782   3.821   5.236  0.0619  0.0685 -0.5820
13940TIP3    H163311   4.875   3.808   5.215  0.1595  0.0666 -0.1591
13940TIP3    H263312   4.736   3.797   5.156  0.3579 -1.0474 -0.4366
13941TIP3   OH263313   5.608   2.301   1.566  0.0798  0.0791  0.3033
13941TIP3    H163314   5.634   2.372   1.508  2.3234  0.4206  1.6079
13941TIP3    H263315   5.638   2.222   1.521  2.2662  0.3759  1.1168
13942TIP3   OH263316   2.623   4.868  12.970 -0.8815  0.0834  0.1785
13942TIP3    H163317   2.661   4.906  12.890 -1.0534  0.2157  0.1588
13942TIP3    H263318   2.530   4.886  12.962 -0.7444  1.3630  1.0781
13943TIP3   OH263319   3.937   2.051   5.101  0.4244 -0.5854 -0.2897
13943TIP3    H163320   3.866   2.019   5.157 -0.5564  1.5514 -0.2178
13943TIP3    H263321   3.893   2.083   5.022  1.1928  1.3964  0.0356
13944TIP3   OH263322   3.823   2.041   0.681  0.5738 -0.2996 -0.4397
13944TIP3    H163323   3.738   2.085   0.675 -0.2323 -1.9694 -2.8677
13944TIP3    H263324   3.875   2.079   0.611  1.5999  0.1720  0.5516
13945TIP3   OH263325   5.585   4.259   0.820 -0.6655  0.2041  0.5350
13945TIP3    H163326   5.568   4.353   0.830 -0.1559  0.2850  0.6794
13945TIP3    H263327   5.678   4.254   0.796 -1.5635 -0.0152 -3.5388
13946TIP3   OH263328   0.986   4.265   1.774  0.2469 -0.2830 -0.3113
13946TIP3    H163329   1.002   4.337   1.835 -2.7960 -0.5920  1.0333
13946TIP3    H263330   0.983   4.187   1.829 -0.3962 -0.8856 -1.1690
13947TIP3   OH263331   0.394   2.663  12.778  0.4936 -0.2009 -0.7853
13947TIP3    H163332   0.431   2.600  12.840  0.7849  1.2908  0.6476
13947TIP3    H263333   0.464   2.727  12.765 -1.1806  2.3751  1.5350
13948TIP3   OH263334   0.837   4.257   1.476 -0.1534  0.2811 -0.3582
13948TIP3    H163335   0.771   4.303   1.528 -0.8721 -0.1037 -0.9149
13948TIP3    H263336   0.913   4.314   1.480  0.7675 -0.8886  3.2772
13949TIP3   OH263337   1.396   2.340  11.185 -0.1673 -0.6052  0.3843
13949TIP3    H163338   1.325   2.360  11.124 -0.7272 -0.5952  1.0250
13949TIP3    H263339   1.394   2.245  11.194  0.5268 -0.7021 -0.3209
13950TIP3   OH263340   5.795   6.502   3.571 -0.6106 -0.2166 -0.6583
13950TIP3    H163341   5.713   6.454   3.556 -1.0969  0.8627 -1.6292
13950TIP3    H263342   5.856   6.465   3.508 -0.7996 -0.0193 -0.9638
13951TIP3   OH263343   5.552   4.550  16.389 -0.3163 -0.3401  0.2150
13951TIP3    H163344   5.498   4.501  16.326 -0.8241  0.7444 -0.2164
13951TIP3    H263345   5.551   4.496  16.468 -2.2836 -0.2435  0.3069
13952TIP3   OH263346   6.685   6.554  16.033 -0.3545 -0.8377 -0.3429
13952TIP3    H163347   6.592   6.573  16.041 -0.4362  1.3494 -3.9871
13952TIP3    H263348   6.690   6.478  15.975  0.0915 -0.5074 -0.7513
13953TIP3   OH263349   4.475   2.522  13.814  0.1132 -0.6155 -0.5487
13953TIP3    H163350   4.407   2.466  13.776 -0.5662  0.2376 -0.6133
13953TIP3    H263351   4.426   2.589  13.862  0.9051  0.2909 -1.0049
13954TIP3   OH263352   3.434   3.209  14.575  0.1422 -0.3607  0.0916
13954TIP3    H163353   3.457   3.293  14.537 -1.8966  0.4198  0.4612
13954TIP3    H263354   3.365   3.229  14.639  0.8007 -2.0994  1.4420
13955TIP3   OH263355   0.919   1.503  15.910 -0.3159 -0.0876 -0.4786
13955TIP3    H163356   0.843   1.445  15.904 -0.0764 -0.3917 -0.6149
13955TIP3    H263357   0.968   1.470  15.985 -0.3686  0.1741 -0.3267
13956TIP3   OH263358   0.193   2.559  16.152 -0.2907  0.3003 -0.6020
13956TIP3    H163359   0.258   2.608  16.203  0.3358  0.0358 -1.1371
13956TIP3    H263360   0.219   2.572  16.061 -0.6014 -0.3494 -0.7900
13957TIP3   OH263361   3.387   0.100   3.361  0.0114  0.1546  0.0306
13957TIP3    H163362   3.358   0.014   3.330 -1.9161  0.6359  0.3948
13957TIP3    H263363   3.353   0.162   3.296 -1.6268  0.9154  1.5444
13958TIP3   OH263364   0.349   5.144  13.185 -0.0760 -0.2795 -0.3330
13958TIP3    H163365   0.256   5.161  13.199 -0.5182 -1.0978 -2.1396
13958TIP3    H263366   0.378   5.215  13.128  0.4224 -0.0512  0.1886
13959TIP3   OH263367   5.006   4.373   5.680 -0.3057  0.4702  0.1800
13959TIP3    H163368   4.996   4.452   5.734 -0.1819  0.2021  0.6032
13959TIP3    H263369   5.053   4.403   5.602 -0.3378  0.8315  0.2965
13960TIP3   OH263370   1.961   4.232   4.171  0.2933 -0.3718  0.1254
13960TIP3    H163371   1.913   4.173   4.229  0.0934  0.0837  0.4327
13960TIP3    H263372   2.018   4.175   4.120  0.3255 -0.7993  0.6313
13961TIP3   OH263373   5.868   2.704  13.006 -0.4289 -0.2788  0.2049
13961TIP3    H163374   5.809   2.676  12.936  0.3172 -0.1490 -0.4841
13961TIP3    H263375   5.915   2.779  12.970  0.2552 -0.4541  0.7020
13962TIP3   OH263376   4.170   4.021  12.913 -0.2769 -0.2012 -0.0127
13962TIP3    H163377   4.138   4.076  12.842  1.7449 -0.1849 -0.9784
13962TIP3    H263378   4.149   3.932  12.885 -0.9835 -0.0941  0.1745
13963TIP3   OH263379   4.908   2.480  11.609 -0.2948  0.5746  0.5659
13963TIP3    H163380   4.913   2.559  11.555 -1.5545  0.6089  0.4837
13963TIP3    H263381   4.983   2.427  11.579  0.9991  2.0033  1.1086
13964TIP3   OH263382   0.211   5.212   0.753  0.3560  0.0391 -0.1007
13964TIP3    H163383   0.193   5.205   0.659  0.4604  0.1237 -0.1267
13964TIP3    H263384   0.174   5.296   0.779  0.3617  0.0335 -0.0742
13965TIP3   OH263385   6.426   2.049   3.644 -0.3731 -0.3983 -0.7225
13965TIP3    H163386   6.430   2.141   3.618  0.1292 -0.3814 -0.5886
13965TIP3    H263387   6.446   2.050   3.738 -2.5032 -0.4205 -0.2203
13966TIP3   OH263388   0.860   5.633  15.097  0.3594 -0.1481  0.4652
13966TIP3    H163389   0.873   5.554  15.043  0.2596 -0.3729  0.7690
13966TIP3    H263390   0.803   5.689  15.044 -2.0245 -1.5018  1.4414
13967TIP3   OH263391   4.693   2.725   3.488 -0.2132  0.4349 -0.8297
13967TIP3    H163392   4.629   2.656   3.506  0.3756 -0.0520 -0.5233
13967TIP3    H263393   4.773   2.677   3.464  0.2855  1.0035 -0.3485
13968TIP3   OH263394   1.828   1.889  15.690 -0.3221 -0.0432  0.6396
13968TIP3    H163395   1.854   1.883  15.782  1.3029  2.2511  0.4238
13968TIP3    H263396   1.743   1.933  15.693  0.1306  0.8488  1.0569
13969TIP3   OH263397   2.603   5.331   4.586  0.2579  0.3787 -0.0933
13969TIP3    H163398   2.573   5.275   4.657  0.8678 -0.9934 -0.8867
13969TIP3    H263399   2.695   5.306   4.574  0.2354  0.7975 -1.1770
13970TIP3   OH263400   1.857   4.403   4.773 -0.3226 -0.0948 -0.0690
13970TIP3    H163401   1.903   4.413   4.856  1.2632 -0.7410 -0.8367
13970TIP3    H263402   1.777   4.357   4.795  0.2880 -0.6569  1.0362
13971TIP3   OH263403   2.766   6.336   0.312  0.3023  0.1132  0.2964
13971TIP3    H163404   2.778   6.428   0.290 -0.2411  0.2077  0.3721
13971TIP3    H263405   2.685   6.311   0.267  0.1775 -0.1924  0.6772
13972TIP3   OH263406   2.138   5.912   5.677  0.2685 -0.1683 -0.2416
13972TIP3    H163407   2.221   5.931   5.634 -0.1631 -0.1745 -1.0867
13972TIP3    H263408   2.162   5.889   5.767  1.1808 -0.2614 -0.5074
13973TIP3   OH263409   1.386   1.543  12.248  0.3404 -0.2122  0.2835
13973TIP3    H163410   1.337   1.567  12.170 -0.3584  0.9410  1.0530
13973TIP3    H263411   1.396   1.448  12.242  0.4966 -0.1117 -1.3015
13974TIP3   OH263412   4.718   2.482   3.143  0.4510 -0.0195  0.2618
13974TIP3    H163413   4.719   2.545   3.071  0.6135  0.5360  0.7457
13974TIP3    H263414   4.785   2.513   3.203  1.7367 -1.6054 -0.2932
13975TIP3   OH263415   1.251   4.224   4.308 -0.1883  0.3036  0.0254
13975TIP3    H163416   1.285   4.135   4.298 -1.7956 -0.6347  2.2022
13975TIP3    H263417   1.194   4.236   4.232 -0.6093 -0.8670  0.1343
13976TIP3   OH263418   3.226   2.711  12.154 -0.3777  0.2750 -0.1755
13976TIP3    H163419   3.154   2.700  12.215  1.1865  0.9102  1.9158
13976TIP3    H263420   3.261   2.623  12.141  0.5417  0.3466  1.5503
13977TIP3   OH263421   5.170   6.148  10.916 -0.4279  0.1006  0.4674
13977TIP3    H163422   5.190   6.186  11.002  1.1390 -1.2743  0.7621
13977TIP3    H263423   5.075   6.157  10.908 -0.4831  1.2671  1.8337
13978TIP3   OH263424   0.951   5.390   3.691 -0.1748 -0.5869 -0.2801
13978TIP3    H163425   0.985   5.320   3.748  0.1903  0.0736  0.3382
13978TIP3    H263426   0.899   5.345   3.626 -0.5534 -1.3829  0.5494
13979TIP3   OH263427   2.613   0.954  14.420 -0.0107  0.2936  0.1028
13979TIP3    H163428   2.543   1.001  14.376  1.9225  1.5203 -1.8679
13979TIP3    H263429   2.660   1.022  14.468  0.4678 -0.3225  0.5216
13980TIP3   OH263430   2.663   2.718  10.856 -0.5494 -0.0693 -0.5166
13980TIP3    H163431   2.572   2.715  10.828 -0.2308 -1.5860 -1.4983
13980TIP3    H263432   2.712   2.745  10.778 -0.2127  1.6373  0.2394
13981TIP3   OH263433   0.236   2.256  10.190  0.3718  0.1267  0.0386
13981TIP3    H163434   0.196   2.229  10.273  1.5600 -0.5439  0.4114
13981TIP3    H263435   0.330   2.258  10.208  0.6069  0.5296 -1.1443
13982TIP3   OH263436   1.230   0.306   0.432 -1.3107  0.5246 -0.3281
13982TIP3    H163437   1.156   0.273   0.484 -0.2726 -0.6332  0.4545
13982TIP3    H263438   1.229   0.401   0.447 -1.3092  0.2763  1.4760
13983TIP3   OH263439   0.586   3.994   4.868  0.3466 -0.8326 -0.3366
13983TIP3    H163440   0.621   3.937   4.937 -1.0572 -0.2479  0.9181
13983TIP3    H263441   0.613   4.082   4.894  0.6274 -0.7027 -1.0673
13984TIP3   OH263442   6.546   2.515  12.152 -0.5158  0.0716 -0.3205
13984TIP3    H163443   6.590   2.430  12.147 -0.4238  0.1152 -0.2456
13984TIP3    H263444   6.527   2.537  12.061 -0.8355 -0.1840 -0.3170
13985TIP3   OH263445   3.080   0.824  11.738  0.4959  0.1843 -0.0565
13985TIP3    H163446   3.064   0.913  11.769  0.7531  0.4357 -0.6285
13985TIP3    H263447   3.011   0.772  11.778  0.6508  0.5477  0.7036
13986TIP3   OH263448   0.168   2.682   5.263 -0.4663  0.3017  0.2259
13986TIP3    H163449   0.259   2.708   5.279 -0.4780 -0.2055  1.2395
13986TIP3    H263450   0.133   2.664   5.350 -1.5053  0.3574 -0.1640
13987TIP3   OH263451   1.659   4.681   0.210 -0.3740 -0.0863 -0.9034
13987TIP3    H163452   1.693   4.634   0.134 -0.9429  0.0533 -1.2618
13987TIP3    H263453   1.589   4.736   0.173 -0.0646  0.6459 -0.4174
13988TIP3   OH263454   0.263   1.563   5.399  0.0549 -0.3119 -0.4168
13988TIP3    H163455   0.180   1.533   5.362 -1.4270  0.1372  2.2865
13988TIP3    H263456   0.244   1.650   5.433  2.2270  0.6380 -1.4614
13989TIP3   OH263457   3.090   0.426  16.607  0.0451  0.1383  0.7329
13989TIP3    H163458   3.056   0.515  16.595 -2.3518 -0.5947  1.3917
13989TIP3    H263459   3.176   0.438  16.645 -0.3690  2.1804  1.1797
13990TIP3   OH263460   3.122   6.782   6.811  0.3581 -0.1850 -0.2797
13990TIP3    H163461   3.052   6.845   6.793  1.0437  1.0903  1.3021
13990TIP3    H263462   3.079   6.697   6.803 -1.2316  0.5415 -0.0292
13991TIP3   OH263463   4.347   1.276  14.582 -0.0797  0.9480  0.0947
13991TIP3    H163464   4.439   1.271  14.607 -0.6447  0.5027  2.2947
13991TIP3    H263465   4.301   1.300  14.663 -1.8052  2.2078 -1.1725
13992TIP3   OH263466   0.885   5.043  12.499 -0.1000 -0.3633 -0.4197
13992TIP3    H163467   0.827   5.051  12.574  0.4430  1.3380 -0.1447
13992TIP3    H263468   0.845   5.098  12.432  0.2575 -0.6162 -0.8465
13993TIP3   OH263469   2.105   3.259   2.481  0.3394  0.1403 -0.7281
13993TIP3    H163470   2.077   3.177   2.441  0.5504 -0.1952 -0.1927
13993TIP3    H263471   2.023   3.306   2.499  0.1211 -0.5758  0.2703
13994TIP3   OH263472   3.202   2.713   5.919  0.4123 -0.5993 -0.9339
13994TIP3    H163473   3.206   2.617   5.920 -0.4347 -0.6441 -1.0857
13994TIP3    H263474   3.187   2.737   6.011  1.7169 -0.5430 -0.7164
13995TIP3   OH263475   3.374   3.068  14.327 -0.2005  0.8487 -0.4632
13995TIP3    H163476   3.374   3.123  14.405  0.5514 -0.2354  0.3269
13995TIP3    H263477   3.465   3.043  14.315 -0.5425 -0.3600 -0.6972
13996TIP3   OH263478   3.487   2.387   4.899 -0.2036  0.4308  0.1192
13996TIP3    H163479   3.572   2.422   4.870  1.3837  0.3340  4.0636
13996TIP3    H263480   3.440   2.464   4.933 -1.5797  0.3962 -1.5590
13997TIP3   OH263481   3.069   2.150  11.941  0.7957  0.3249  0.0106
13997TIP3    H163482   2.997   2.140  11.878 -0.3285  1.7715  0.9979
13997TIP3    H263483   3.108   2.234  11.919  0.2902  0.9229  1.2919
13998TIP3   OH263484   5.762   3.569  15.580  0.4138 -0.4527  0.4222
13998TIP3    H163485   5.779   3.637  15.645 -0.3527  1.1783 -1.0069
13998TIP3    H263486   5.804   3.601  15.500 -2.6846  0.0334 -1.1710
13999TIP3   OH263487   1.505   2.970   6.015  0.0470  0.4684  0.3613
13999TIP3    H163488   1.561   3.027   5.961 -1.0509  1.1827 -0.0641
13999TIP3    H263489   1.449   3.031   6.063  0.8834 -0.1630  2.2268
14000TIP3   OH263490   2.586   4.869   3.642 -0.0191 -0.0765 -0.2388
14000TIP3    H163491   2.670   4.848   3.681 -0.1063 -0.3442 -0.1938
14000TIP3    H263492   2.581   4.815   3.563 -1.0528 -1.6758  0.8653
14001TIP3   OH263493   1.847   6.725  13.992 -0.1014  0.1356  0.5516
14001TIP3    H163494   1.835   6.630  13.996 -1.2530  0.2556  0.3088
14001TIP3    H263495   1.867   6.742  13.900 -1.2236  0.2505  0.3128
14002TIP3   OH263496   2.329   3.477  11.836 -0.0523 -0.8575 -0.6094
14002TIP3    H163497   2.387   3.515  11.770 -0.5301 -2.4059 -1.9945
14002TIP3    H263498   2.388   3.451  11.908  0.3926  1.4592 -0.0505
14003TIP3   OH263499   6.143   0.460   3.390  0.0870 -0.3341 -0.1189
14003TIP3    H163500   6.155   0.507   3.472 -0.1376 -2.3675  1.1518
14003TIP3    H263501   6.138   0.528   3.323  1.8699  1.3221  1.3312
14004TIP3   OH263502   2.382   2.112   0.111  0.2096  0.1813  0.4696
14004TIP3    H163503   2.374   2.202   0.141 -2.6662  0.1784 -0.0003
14004TIP3    H263504   2.407   2.119   0.019 -0.0279  0.4975  0.4285
14005TIP3   OH263505   5.860   5.945  16.951 -0.7031 -0.1638  0.3133
14005TIP3    H163506   5.864   6.041  16.950 -0.7290 -0.1287 -1.9975
14005TIP3    H263507   5.803   5.922  16.878  0.6245 -1.9558 -0.2540
14006TIP3   OH263508   5.491   4.890  14.151  0.5484 -0.4843 -0.3389
14006TIP3    H163509   5.417   4.857  14.100  0.5265 -1.1620  0.1151
14006TIP3    H263510   5.567   4.846  14.114  0.8021  0.6250 -1.1622
14007TIP3   OH263511   0.383   0.061   3.954  0.3301  0.5368  0.2747
14007TIP3    H163512   0.356   0.141   3.908 -0.7113  0.8525  1.3762
14007TIP3    H263513   0.327  -0.007   3.919  0.8261  0.3897 -0.2517
14008TIP3   OH263514   3.789   4.070   1.992 -0.4715  0.3703  0.2503
14008TIP3    H163515   3.710   4.116   2.019  0.4920  1.4509  1.3350
14008TIP3    H263516   3.833   4.131   1.932 -0.0461  0.1265  0.3091
14009TIP3   OH263517   1.032   3.840   5.023  0.5662 -0.2832 -0.0906
14009TIP3    H163518   0.968   3.822   4.955  1.9504 -0.2691 -1.4433
14009TIP3    H263519   1.041   3.758   5.071  1.2620 -0.9900 -1.3968
14010TIP3   OH263520   6.241   1.896   2.945  0.0774  0.1083 -0.4204
14010TIP3    H163521   6.301   1.829   2.910 -0.6390 -0.4406 -0.6252
14010TIP3    H263522   6.268   1.907   3.036  1.3203  0.8204 -0.8411
14011TIP3   OH263523   3.797   0.890   2.385  0.4787 -0.1043  0.5914
14011TIP3    H163524   3.752   0.901   2.301 -0.5688 -1.0149  1.0249
14011TIP3    H263525   3.770   0.804   2.416  1.0143  0.1402  1.7811
14012TIP3   OH263526   1.760   0.773   6.502 -0.5348  0.0069 -0.3020
14012TIP3    H163527   1.767   0.867   6.518 -0.5733  0.3469 -2.1341
14012TIP3    H263528   1.837   0.736   6.545  0.0652  0.9954 -0.5051
14013TIP3   OH263529   0.374   1.020   5.338  0.9394 -0.1877  0.1213
14013TIP3    H163530   0.333   1.007   5.252 -0.9743 -2.2602  1.2381
14013TIP3    H263531   0.360   0.938   5.384  2.3308  0.6944  2.2849
14014TIP3   OH263532   6.235   3.826   0.817  0.0038  0.4436 -0.4445
14014TIP3    H163533   6.240   3.859   0.906  1.2586  0.3511 -0.4561
14014TIP3    H263534   6.222   3.732   0.826  0.7295  0.3496 -0.3420
14015TIP3   OH263535   1.414   1.508   1.899 -0.2709  0.0934 -0.4053
14015TIP3    H163536   1.398   1.415   1.916 -2.2804  0.5708  0.6883
14015TIP3    H263537   1.367   1.525   1.817  0.3257  0.1034 -0.7503
14016TIP3   OH263538   0.386   6.696   1.908 -0.7710 -0.3971 -0.5450
14016TIP3    H163539   0.334   6.756   1.961  1.4893 -0.3957  1.8430
14016TIP3    H263540   0.464   6.747   1.883 -0.1565 -1.4753 -0.9074
14017TIP3   OH263541   0.975   6.096   0.797  0.5047 -0.7184  1.2331
14017TIP3    H163542   1.008   6.179   0.765  0.3957 -0.0673  2.7376
14017TIP3    H263543   0.916   6.066   0.727  0.7275  0.3322  0.5647
14018TIP3   OH263544   4.293   4.540   1.531  0.3452 -0.0073 -0.4180
14018TIP3    H163545   4.268   4.478   1.600  0.3116  1.3987  0.8715
14018TIP3    H263546   4.327   4.616   1.578  3.6356 -0.3174 -1.9882
14019TIP3   OH263547   1.891   6.759   0.427 -0.4369 -0.3124 -0.3974
14019TIP3    H163548   1.871   6.693   0.360  1.9840 -0.2615 -1.2759
14019TIP3    H263549   1.876   6.843   0.382  0.0190 -0.2794 -0.4922
14020TIP3   OH263550   2.502   3.744  15.369 -0.2127 -0.1139 -0.4185
14020TIP3    H163551   2.477   3.835  15.354  1.7334  0.6899  0.8413
14020TIP3    H263552   2.507   3.736  15.464  2.0982 -0.7831 -0.5419
14021TIP3   OH263553   4.550   1.426   5.218 -0.5283 -0.0925  0.2363
14021TIP3    H163554   4.519   1.512   5.189  0.8107  0.4431  0.3393
14021TIP3    H263555   4.488   1.401   5.287  0.3364  1.8517  1.8440
14022TIP3   OH263556   3.337   3.962   0.890  0.0605  0.0995 -0.1868
14022TIP3    H163557   3.301   4.032   0.944  1.2117 -0.2383  1.0652
14022TIP3    H263558   3.420   3.997   0.857  0.2798 -0.4028 -0.1724
14023TIP3   OH263559   3.787   3.284  11.082  0.1139 -0.4891 -0.1830
14023TIP3    H163560   3.797   3.379  11.085 -0.4341 -0.4137 -0.6316
14023TIP3    H263561   3.773   3.264  10.990  0.4374 -1.0324 -0.1225
14024TIP3   OH263562   5.847   5.089   5.461 -0.3071  0.3423 -0.1678
14024TIP3    H163563   5.875   5.007   5.501 -0.9160 -0.6096 -1.5879
14024TIP3    H263564   5.813   5.142   5.534 -1.3022 -1.2777  0.5902
14025TIP3   OH263565   6.440   3.758   3.147  0.1196  0.0825 -0.8400
14025TIP3    H163566   6.395   3.837   3.177  1.6402  1.2263 -1.4236
14025TIP3    H263567   6.515   3.749   3.206  0.3898 -0.4768 -1.2609
14026TIP3   OH263568   4.112   5.745   1.607  0.2112 -0.1936  0.5112
14026TIP3    H163569   4.077   5.661   1.637  1.5898 -0.3480  1.8522
14026TIP3    H263570   4.078   5.755   1.518 -0.7438 -1.7145  0.6607
14027TIP3   OH263571   1.709   0.145  11.426 -0.1272  0.0633 -0.4933
14027TIP3    H163572   1.774   0.082  11.457 -2.3197 -2.1150 -0.0584
14027TIP3    H263573   1.761   0.213  11.382  2.5361 -0.6363  1.3064
14028TIP3   OH263574   4.918   5.502   1.602 -0.1514 -0.0282  0.4658
14028TIP3    H163575   4.827   5.485   1.576 -0.4856  0.2053  1.4434
14028TIP3    H263576   4.948   5.570   1.542 -0.4304 -0.5150 -0.2379
14029TIP3   OH263577   5.966   1.998  12.451  0.2655  0.0196 -0.3019
14029TIP3    H163578   6.010   1.913  12.451 -0.1646 -0.2077 -0.7495
14029TIP3    H263579   5.975   2.030  12.362 -1.8060 -0.7502 -0.8433
14030TIP3   OH263580   1.897   5.862   3.681  0.6222  0.0671 -0.2965
14030TIP3    H163581   1.926   5.841   3.770 -2.1412 -1.7639  0.2899
14030TIP3    H263582   1.920   5.784   3.630  0.1100  0.1465 -0.6521
14031TIP3   OH263583   6.613   0.243  14.744  0.6279  0.3304 -0.3094
14031TIP3    H163584   6.706   0.268  14.738  0.2462  2.6688  1.8731
14031TIP3    H263585   6.599   0.227  14.837 -0.6767 -2.3735 -0.8879
14032TIP3   OH263586   5.616   2.559   5.204  0.8780 -0.3241  0.6623
14032TIP3    H163587   5.565   2.571   5.284  1.9592 -0.1512  1.3365
14032TIP3    H263588   5.661   2.476   5.217  0.4326 -0.7094 -0.1331
14033TIP3   OH263589   2.648   1.733  14.149  0.1962  0.8047  0.2211
14033TIP3    H163590   2.706   1.751  14.223  1.7860  0.1604 -0.8228
14033TIP3    H263591   2.703   1.686  14.086 -1.6480 -0.4091 -0.5509
14034TIP3   OH263592   3.051   1.322   6.382 -0.0803 -0.0520  0.5414
14034TIP3    H163593   3.045   1.277   6.467 -0.6387  2.2027  1.7634
14034TIP3    H263594   3.025   1.412   6.400 -0.3299  0.4893 -2.0785
14035TIP3   OH263595   6.598   2.354   4.246  0.0598  0.1120 -0.3529
14035TIP3    H163596   6.595   2.277   4.190 -0.1421 -0.3176  0.2306
14035TIP3    H263597   6.518   2.348   4.299 -0.8187  1.5967 -1.4197
14036TIP3   OH263598   1.174   0.293  13.117  0.0896 -0.0392 -0.3889
14036TIP3    H163599   1.176   0.199  13.099 -0.9401  0.0505 -1.0447
14036TIP3    H263600   1.115   0.302  13.191  1.3246 -0.0240  0.6381
14037TIP3   OH263601   6.718   2.058   2.656  0.2087 -0.0462 -0.0214
14037TIP3    H163602   6.726   1.978   2.604 -2.4171 -0.1146 -0.4659
14037TIP3    H263603   6.743   2.128   2.596  0.7801 -0.3981 -0.2004
14038TIP3   OH263604   2.812   2.109   0.200 -0.6978 -0.2759 -0.4335
14038TIP3    H163605   2.808   2.192   0.248  0.8274 -0.9341  0.9091
14038TIP3    H263606   2.892   2.116   0.147 -0.9789 -0.6027 -0.9082
14039TIP3   OH263607   4.224   3.139  15.086 -0.4843 -0.7317 -0.8546
14039TIP3    H163608   4.242   3.160  14.995 -1.7452  1.3475 -0.7029
14039TIP3    H263609   4.207   3.224  15.127  0.5566 -1.5601  1.4539
14040TIP3   OH263610   5.787   4.372  12.018 -0.0357  0.2480 -0.3274
14040TIP3    H163611   5.862   4.398  12.071 -0.1683 -1.0708  0.5458
14040TIP3    H263612   5.825   4.339  11.936  0.2079  1.5580 -0.7630
14041TIP3   OH263613   1.499   5.850   6.102  0.2922 -0.2017  0.4299
14041TIP3    H163614   1.472   5.854   6.010  1.5557 -1.0785 -0.0011
14041TIP3    H263615   1.468   5.764   6.131 -1.9855  0.8784  1.4914
14042TIP3   OH263616   0.641   6.675  12.460  0.0223  0.3696 -0.4648
14042TIP3    H163617   0.575   6.705  12.396  1.2918  1.1027 -1.4888
14042TIP3    H263618   0.681   6.599  12.418  0.5211  0.5522 -0.3216
14043TIP3   OH263619   2.781   5.601  13.517  0.4488 -0.2833  0.3819
14043TIP3    H163620   2.835   5.592  13.596  0.7555  0.7497  0.3010
14043TIP3    H263621   2.829   5.552  13.450  0.9886  0.1126  0.4650
14044TIP3   OH263622   6.262   5.764  13.855  0.1344 -0.3468 -0.6648
14044TIP3    H163623   6.308   5.827  13.911 -1.3174  1.1051 -1.0221
14044TIP3    H263624   6.176   5.755  13.896 -0.1704 -0.9974 -1.4404
14045TIP3   OH263625   6.150   3.091  10.511 -0.0004  0.3098 -0.2501
14045TIP3    H163626   6.203   3.059  10.583 -0.3004  0.2321 -0.0645
14045TIP3    H263627   6.073   3.129  10.553 -1.0016 -1.2688 -0.6142
14046TIP3   OH263628   4.072   3.809   5.402 -0.8230  0.0356  0.5871
14046TIP3    H163629   4.143   3.758   5.439 -0.3616  0.7546  0.7080
14046TIP3    H263630   4.030   3.850   5.477 -2.1099 -1.2939  0.6325
14047TIP3   OH263631   4.587   2.808  12.740  0.0642 -0.8409 -0.4192
14047TIP3    H163632   4.651   2.876  12.762 -1.0295  0.0792  0.0473
14047TIP3    H263633   4.593   2.799  12.645  0.2396 -0.0992 -0.4819
14048TIP3   OH263634   5.216   4.203   0.858  0.6167 -0.2424  0.3333
14048TIP3    H163635   5.141   4.254   0.826  0.5558 -0.9785 -0.7454
14048TIP3    H263636   5.268   4.267   0.906  0.7583  0.9813 -1.3346
14049TIP3   OH263637   6.496   1.675  13.278  0.5479  0.2203 -0.2119
14049TIP3    H163638   6.572   1.726  13.304  0.6594 -0.5131  1.0039
14049TIP3    H263639   6.421   1.726  13.308  0.6644 -0.3972  1.2576
14050TIP3   OH263640   4.849   2.138   2.368 -0.0639 -0.5769 -0.3788
14050TIP3    H163641   4.853   2.229   2.395 -0.8166 -0.5115 -0.4702
14050TIP3    H263642   4.906   2.092   2.429  0.3286 -0.0461 -0.3413
14051TIP3   OH263643   4.390   1.628   1.772 -0.2671 -0.2001  0.3596
14051TIP3    H163644   4.296   1.642   1.765 -0.2177  0.4052  0.8263
14051TIP3    H263645   4.429   1.703   1.726 -0.0101 -0.7380 -0.3220
14052TIP3   OH263646   2.037   5.977  15.260  0.7324  0.4093  0.6444
14052TIP3    H163647   2.044   5.918  15.335 -0.8169 -0.9691 -0.2206
14052TIP3    H263648   2.101   5.943  15.197 -0.2753 -0.5093  0.0809
14053TIP3   OH263649   3.033   4.163  13.898  0.1042  0.2226  0.3478
14053TIP3    H163650   3.046   4.175  13.804 -1.1812  0.2425  0.1629
14053TIP3    H263651   2.956   4.216  13.919 -1.0746 -1.6305  0.9501
14054TIP3   OH263652   5.418   5.514   0.664  0.2986 -0.6756 -0.6128
14054TIP3    H163653   5.391   5.580   0.727  1.2802 -0.9391  0.1009
14054TIP3    H263654   5.403   5.555   0.579  0.5463  0.3165 -0.1845
14055TIP3   OH263655   2.302   1.854   5.245  0.4812 -0.1067 -0.1965
14055TIP3    H163656   2.218   1.898   5.249  0.2478 -0.6148  1.0166
14055TIP3    H263657   2.363   1.913   5.288  0.8373  0.4138 -1.3761
14056TIP3   OH263658   0.089   2.072   6.146  0.7521  0.0169  0.0246
14056TIP3    H163659   0.102   2.078   6.052  0.1887 -0.2826 -0.0765
14056TIP3    H263660   0.160   2.124   6.184  1.1768 -0.1414 -0.5534
14057TIP3   OH263661   0.629   2.700   4.704 -0.0534 -0.0093  0.1998
14057TIP3    H163662   0.654   2.760   4.774 -0.8207  0.4652  0.0717
14057TIP3    H263663   0.564   2.643   4.743  0.4274 -0.5550  0.2209
14058TIP3   OH263664   4.962   0.670   3.347 -0.0029  0.1974 -0.2516
14058TIP3    H163665   4.895   0.659   3.280  1.3095 -1.2091 -1.3975
14058TIP3    H263666   5.043   0.640   3.306  0.9646 -0.1381  1.7616
14059TIP3   OH263667   4.749   4.310  12.613 -0.2160  0.0669 -0.1488
14059TIP3    H163668   4.820   4.264  12.567  0.0684  0.0596  0.2991
14059TIP3    H263669   4.670   4.262  12.587  0.0717 -0.6390  0.2557
14060TIP3   OH263670   2.768   2.964  12.584 -0.7547  0.4281  0.2871
14060TIP3    H163671   2.745   2.948  12.676 -1.3264 -1.2851 -0.1061
14060TIP3    H263672   2.863   2.959  12.582 -0.8087 -1.9185  0.4642
14061TIP3   OH263673   3.823   5.101   1.543 -0.0329  0.7660 -0.0141
14061TIP3    H163674   3.781   5.021   1.575 -0.3083 -0.2778 -2.7311
14061TIP3    H263675   3.858   5.143   1.622 -0.7012 -1.5370  1.6045
14062TIP3   OH263676   2.649   3.030   4.855  0.3783 -0.2511 -0.2104
14062TIP3    H163677   2.676   3.025   4.763  2.3721 -0.3802  0.3333
14062TIP3    H263678   2.727   3.004   4.904 -0.5358  0.1722  1.5421
14063TIP3   OH263679   6.693   5.119  14.255  0.2513  0.1398 -0.5788
14063TIP3    H163680   6.728   5.161  14.334 -1.4104  0.2863  0.1125
14063TIP3    H263681   6.652   5.191  14.207 -0.0966 -0.2106 -0.8087
14064TIP3   OH263682   2.637   4.466   4.395 -0.1493  0.3819  0.0129
14064TIP3    H163683   2.721   4.453   4.441  0.2586  3.5009  0.3726
14064TIP3    H263684   2.572   4.472   4.465 -0.7765 -2.1805 -0.2724
14065TIP3   OH263685   3.545   2.777   3.420 -0.4809 -0.0260 -0.4264
14065TIP3    H163686   3.631   2.756   3.384  0.2436  0.3590  0.9935
14065TIP3    H263687   3.490   2.797   3.344  1.3796  2.2821 -1.2610
14066TIP3   OH263688   5.834   2.224   0.919  0.5145 -0.2224 -0.3065
14066TIP3    H163689   5.784   2.148   0.949 -0.0063  0.4281  0.5479
14066TIP3    H263690   5.906   2.188   0.868  1.1246 -1.3835  1.2889
14067TIP3   OH263691   6.555   3.988  12.281 -0.0489  0.1292 -0.3557
14067TIP3    H163692   6.631   3.992  12.223 -0.4552 -0.2241 -0.9123
14067TIP3    H263693   6.513   3.905  12.261  0.3294 -0.4571  1.1245
14068TIP3   OH263694   0.892   0.371  12.586 -0.0693  0.2222  0.1108
14068TIP3    H163695   0.906   0.465  12.591 -1.3905  0.4047  0.9232
14068TIP3    H263696   0.958   0.333  12.644  1.9270  0.4400 -1.8955
14069TIP3   OH263697   3.689   0.519   4.283 -0.5298  0.0271  0.1404
14069TIP3    H163698   3.666   0.609   4.305  3.7955  1.4574 -0.2623
14069TIP3    H263699   3.710   0.522   4.189 -1.2749 -1.7127 -0.1273
14070TIP3   OH263700   6.114   2.691  16.185  0.4008 -0.6950 -0.0312
14070TIP3    H163701   6.192   2.656  16.141  0.0287  0.0767 -1.3771
14070TIP3    H263702   6.056   2.615  16.194  0.4855 -0.8771 -0.9017
14071TIP3   OH263703   4.738   3.638   5.021  0.1885 -0.2466  0.6882
14071TIP3    H163704   4.652   3.632   4.979  0.6807  1.4499 -0.6885
14071TIP3    H263705   4.798   3.664   4.950  1.8237 -1.2528  1.6420
14072TIP3   OH263706   1.784   6.142  12.370 -0.4885 -0.5965  0.7910
14072TIP3    H163707   1.707   6.200  12.367 -0.8663 -1.1245 -0.9750
14072TIP3    H263708   1.856   6.197  12.339 -0.6290 -0.7487  0.1834
14073TIP3   OH263709   2.394   6.235  12.019  0.0239 -0.0984 -0.0810
14073TIP3    H163710   2.430   6.155  11.981 -1.0196 -1.1076  0.9887
14073TIP3    H263711   2.334   6.268  11.952  0.1150 -0.4522 -0.3405
14074TIP3   OH263712   0.025   5.076   3.142 -0.3512 -0.7011  0.3587
14074TIP3    H163713  -0.013   5.162   3.162  0.0382 -0.6314  0.8216
14074TIP3    H263714   0.059   5.045   3.225  0.6815 -0.7225 -0.0635
14075TIP3   OH263715   5.914   2.147   3.779  0.4774 -0.0105 -0.0306
14075TIP3    H163716   5.969   2.148   3.857 -1.2612  0.9217  1.2657
14075TIP3    H263717   5.827   2.169   3.811 -0.2850  0.5275 -2.2729
14076TIP3   OH263718   2.159   6.836  15.657  0.3696 -0.7899 -0.4122
14076TIP3    H163719   2.121   6.923  15.659  0.2207 -0.8651  0.3603
14076TIP3    H263720   2.205   6.832  15.573  0.0446 -0.1180 -0.6307
14077TIP3   OH263721   0.515   1.941  11.543  0.5599 -0.0431  0.2010
14077TIP3    H163722   0.600   1.897  11.546  1.2601  1.2622  0.1488
14077TIP3    H263723   0.469   1.900  11.469  1.0757 -0.8610  0.3210
14078TIP3   OH263724   1.607   1.665   5.494 -0.1004  0.2396  0.0284
14078TIP3    H163725   1.586   1.635   5.583  0.6737 -0.9046 -0.1512
14078TIP3    H263726   1.623   1.759   5.504  0.1245  0.1042  1.1269
14079TIP3   OH263727   5.850   1.220   2.910  0.6643  0.1692  1.0158
14079TIP3    H163728   5.893   1.249   2.829 -0.3536  1.5793  0.9386
14079TIP3    H263729   5.920   1.210   2.973  1.5764 -1.6016 -0.1799
14080TIP3   OH263730   4.983   6.246   5.207  0.0460  0.5462  0.2765
14080TIP3    H163731   4.961   6.332   5.242  0.7388  0.8428  0.0018
14080TIP3    H263732   5.059   6.262   5.151  0.5785 -0.3411  0.7248
14081TIP3   OH263733   2.460   5.360  14.689  1.2248 -0.0353  0.6459
14081TIP3    H163734   2.530   5.420  14.662  0.1856  1.4644  1.1660
14081TIP3    H263735   2.396   5.415  14.733  0.5615 -1.6611  1.8418
14082TIP3   OH263736   2.209   3.589   2.361  0.1221 -0.4354 -0.0629
14082TIP3    H163737   2.251   3.672   2.382 -1.2781  0.1992  0.3631
14082TIP3    H263738   2.115   3.607   2.368 -0.2134 -2.0984  0.2179
14083TIP3   OH263739   3.528   3.495   5.375  0.2179 -0.0985 -0.2559
14083TIP3    H163740   3.562   3.576   5.338 -0.8954  0.3873 -0.2623
14083TIP3    H263741   3.502   3.519   5.464 -0.3450 -0.3882 -0.3409
14084TIP3   OH263742   2.444   3.905  11.635  0.5162  0.1003  0.7663
14084TIP3    H163743   2.367   3.849  11.628 -2.8412  4.2825  0.3353
14084TIP3    H263744   2.486   3.899  11.549 -0.1208 -1.1448  0.5242
14085TIP3   OH263745   0.784   4.596   2.579  0.0660  0.1455 -0.1614
14085TIP3    H163746   0.791   4.691   2.579 -0.0503  0.1559 -1.1098
14085TIP3    H263747   0.692   4.579   2.597  0.2563  0.1782  0.9655
14086TIP3   OH263748   4.938   0.943  17.117 -0.1311  0.4218  0.4406
14086TIP3    H163749   4.987   0.865  17.092 -0.1497  0.3831  0.5262
14086TIP3    H263750   4.859   0.940  17.063 -0.6462 -0.1830  1.2191
14087TIP3   OH263751   5.308   5.923   3.614  0.2630 -0.4141 -0.1366
14087TIP3    H163752   5.390   5.922   3.564 -0.1305 -0.5545 -0.7872
14087TIP3    H263753   5.253   5.857   3.571 -0.0314 -0.6348  0.5704
14088TIP3   OH263754   1.089   4.909  12.329 -0.1524 -0.5870  0.3789
14088TIP3    H163755   1.026   4.943  12.394 -0.9417 -0.0675 -0.6265
14088TIP3    H263756   1.092   4.815  12.346 -1.4238 -0.6722  0.2864
14089TIP3   OH263757   2.572   3.346  12.715  0.0624 -0.2739  0.4186
14089TIP3    H163758   2.614   3.292  12.648 -0.6372 -0.5149  0.1647
14089TIP3    H263759   2.597   3.435  12.692  1.8851 -0.5168  1.3086
14090TIP3   OH263760   2.707   6.684  13.692  0.0518  0.2981  0.0091
14090TIP3    H163761   2.759   6.758  13.660  0.9628 -0.7352 -0.9692
14090TIP3    H263762   2.698   6.699  13.786 -2.5264  3.3461 -0.5422
14091TIP3   OH263763   2.455   4.083   2.070 -0.1784 -0.8178  0.1049
14091TIP3    H163764   2.462   3.991   2.094  0.3736 -0.9263 -0.4583
14091TIP3    H263765   2.501   4.129   2.141 -0.6253 -0.9542  0.4889
14092TIP3   OH263766   5.792   5.003  14.175 -0.0887  0.3701  0.3990
14092TIP3    H163767   5.883   5.032  14.174 -0.6522  2.2864  0.4622
14092TIP3    H263768   5.772   4.994  14.268  0.3709 -1.3202  0.3674
14093TIP3   OH263769   5.795   6.214  10.403 -0.9604 -0.1121  0.2957
14093TIP3    H163770   5.782   6.309  10.407  0.7701  0.2272 -0.8816
14093TIP3    H263771   5.707   6.177  10.413 -2.3253  1.7441 -3.1902
14094TIP3   OH263772   0.373   5.335   6.552  0.6506 -0.1852 -0.1153
14094TIP3    H163773   0.299   5.362   6.496 -0.1484 -1.2805  0.3799
14094TIP3    H263774   0.389   5.412   6.607  0.1832  0.2289 -0.5353
14095TIP3   OH263775   6.573   5.487  15.791  0.2474 -0.1871  0.4784
14095TIP3    H163776   6.551   5.419  15.855 -0.2213 -0.6079 -0.1229
14095TIP3    H263777   6.669   5.492  15.794  0.2401 -0.3206  1.0887
14096TIP3   OH263778   1.048   5.343  12.297  0.0102  0.0840  0.2978
14096TIP3    H163779   0.975   5.286  12.272  0.3202 -0.9926  1.7220
14096TIP3    H263780   1.104   5.347  12.220  0.2876 -2.0516  0.3484
14097TIP3   OH263781   0.756   1.800   5.281 -0.0621 -0.3374 -0.2674
14097TIP3    H163782   0.747   1.885   5.324  0.7441 -0.6949  0.6432
14097TIP3    H263783   0.847   1.797   5.251 -0.7712  0.1922 -2.6925
14098TIP3   OH263784   0.715   0.932  15.685  0.0002 -1.0421  0.1569
14098TIP3    H163785   0.785   0.927  15.619  0.3921 -2.1385  0.6334
14098TIP3    H263786   0.690   0.841  15.700  0.3976 -0.8892  2.0166
14099TIP3   OH263787   0.949   5.490  14.613  0.3467 -0.5099  0.4847
14099TIP3    H163788   0.936   5.535  14.530 -0.1804 -1.2034  0.1830
14099TIP3    H263789   0.873   5.514  14.666 -0.9762 -2.5200 -0.3631
14100TIP3   OH263790   3.057   5.337   3.682  0.0866  0.0472  0.1694
14100TIP3    H163791   2.996   5.309   3.750  0.1268  2.3293  1.2583
14100TIP3    H263792   3.015   5.313   3.600 -0.7781 -1.2483  0.9636
14101TIP3   OH263793   2.177   2.176   1.554 -0.0369 -0.3833 -0.6803
14101TIP3    H163794   2.132   2.111   1.608  0.0431  1.0581  1.2081
14101TIP3    H263795   2.154   2.152   1.464 -0.5829 -2.5694 -0.0216
14102TIP3   OH263796   3.912   4.797   1.087 -0.8201  0.1897 -0.1921
14102TIP3    H163797   3.987   4.853   1.064 -0.2837  0.5234  2.1183
14102TIP3    H263798   3.881   4.832   1.171 -0.1884 -3.1454  1.6315
14103TIP3   OH263799   5.850   1.910   4.846 -0.0972 -0.6655 -0.3499
14103TIP3    H163800   5.857   1.966   4.923  2.0712  1.3434 -1.9022
14103TIP3    H263801   5.871   1.822   4.879  0.8545  0.1434  1.3289
14104TIP3   OH263802   5.962   2.896  15.007  0.3953  0.0671  0.3070
14104TIP3    H163803   6.045   2.916  15.049  0.7976  0.7580 -0.7714
14104TIP3    H263804   5.910   2.975  15.017  0.7522  0.5058 -1.0500
14105TIP3   OH263805   3.809   5.834  16.523  0.0848  0.7845  0.5364
14105TIP3    H163806   3.883   5.895  16.524  0.4791  0.4705 -2.2651
14105TIP3    H263807   3.753   5.866  16.452 -0.5149 -1.1585  0.0799
14106TIP3   OH263808   0.985   2.452  13.151  0.2461 -0.2700 -0.7914
14106TIP3    H163809   1.080   2.463  13.150  0.0632  1.6999 -1.0694
14106TIP3    H263810   0.966   2.425  13.241  1.0120  0.0075 -0.5329
14107TIP3   OH263811   4.369   5.176   5.558 -0.4907 -0.3548  0.3301
14107TIP3    H163812   4.424   5.204   5.485 -2.0833  0.1670 -0.7298
14107TIP3    H263813   4.371   5.080   5.553  0.2013 -0.3442  0.2335
14108TIP3   OH263814   0.685   5.782  11.308 -0.5455 -0.1918 -0.2564
14108TIP3    H163815   0.673   5.745  11.221 -1.9589 -0.6046  0.0972
14108TIP3    H263816   0.780   5.784  11.320 -0.3654 -1.4463 -1.2452
14109TIP3   OH263817   1.419   4.298   6.300 -0.5339  0.5899 -0.3719
14109TIP3    H163818   1.444   4.302   6.393  0.5285 -4.2188 -0.1523
14109TIP3    H263819   1.326   4.319   6.300 -0.6714  0.3079  1.9158
14110TIP3   OH263820   5.466   4.148  12.645 -0.2178  0.2158  0.2788
14110TIP3    H163821   5.451   4.076  12.584 -1.8251  1.5490 -0.9934
14110TIP3    H263822   5.523   4.209  12.598 -1.7220  1.4045 -0.0842
14111TIP3   OH263823   6.465   6.368  12.380  0.4522 -0.4105 -0.3623
14111TIP3    H163824   6.491   6.299  12.320 -0.4817 -0.7769 -0.3695
14111TIP3    H263825   6.448   6.323  12.463 -0.6549 -0.2887 -0.5017
14112TIP3   OH263826   0.927   1.066  16.558 -0.0951  0.3822 -0.7755
14112TIP3    H163827   0.887   0.991  16.601  1.1952 -0.0209 -0.2183
14112TIP3    H263828   0.891   1.142  16.604 -0.7320  0.0724 -0.7486
14113TIP3   OH263829   4.316   5.579  13.089 -0.3048 -0.5899 -0.3107
14113TIP3    H163830   4.318   5.662  13.137 -1.1743 -0.3930 -0.5983
14113TIP3    H263831   4.294   5.514  13.155  1.2791 -0.7465  0.1031
14114TIP3   OH263832   4.478   3.601  12.045  0.1490 -0.1366 -0.8155
14114TIP3    H163833   4.385   3.579  12.031  0.0715 -1.6892  1.5365
14114TIP3    H263834   4.526   3.531  12.002  0.1809 -0.1909 -0.6914
14115TIP3   OH263835   0.970   2.807  17.096  0.2147 -0.0139  0.2822
14115TIP3    H163836   0.935   2.768  17.016 -1.8318 -0.2852  1.2410
14115TIP3    H263837   0.911   2.777  17.165 -0.5724  3.4588  1.3219
14116TIP3   OH263838   2.556   3.485   4.003  0.0282 -0.1646  0.2375
14116TIP3    H163839   2.637   3.516   3.963 -0.7734  1.1686 -0.4219
14116TIP3    H263840   2.549   3.533   4.085 -0.5383  0.4081 -0.1392
14117TIP3   OH263841   6.489   5.497  13.699 -0.0591 -0.0296  0.2152
14117TIP3    H163842   6.561   5.550  13.733  0.1602  0.5058 -1.0097
14117TIP3    H263843   6.527   5.411  13.682  0.1884  0.1259 -0.0202
14118TIP3   OH263844   6.634   3.228  13.888  0.1321  0.0941 -0.5036
14118TIP3    H163845   6.719   3.217  13.931  1.3866  2.2447 -2.1714
14118TIP3    H263846   6.584   3.284  13.947 -0.0446 -0.9540  0.3613
14119TIP3   OH263847   5.006   3.881   6.297  0.1811  0.1025  0.0716
14119TIP3    H163848   5.004   3.825   6.375  1.4001 -0.1232 -0.0324
14119TIP3    H263849   5.090   3.926   6.303  0.3139  0.0243 -1.1534
14120TIP3   OH263850   5.298   2.526  16.497  0.1236  0.0701 -0.3483
14120TIP3    H163851   5.318   2.538  16.590 -0.3891 -2.3682  0.1263
14120TIP3    H263852   5.365   2.465  16.465 -1.2564 -1.1984 -0.9087
14121TIP3   OH263853   1.239   2.059   1.901  0.3837 -0.2980 -0.1076
14121TIP3    H163854   1.233   2.089   1.992 -1.2948  0.7951 -0.5255
14121TIP3    H263855   1.194   1.975   1.901 -3.5690  1.5825 -0.5910
14122TIP3   OH263856   2.855   4.314   4.430  0.8798 -0.0863  0.5835
14122TIP3    H163857   2.941   4.273   4.446  1.2804 -0.7690 -2.6680
14122TIP3    H263858   2.794   4.241   4.429  0.3910  0.2862  1.8630
14123TIP3   OH263859   6.478   0.610   6.273  0.2173 -0.1282 -0.2398
14123TIP3    H163860   6.412   0.570   6.331 -0.7858 -0.3166 -1.4544
14123TIP3    H263861   6.429   0.630   6.193  0.8004  3.0733  0.0966
14124TIP3   OH263862   1.940   5.482   6.483  0.6166 -0.1298 -0.2759
14124TIP3    H163863   1.876   5.542   6.445  0.1756  0.2905  1.0942
14124TIP3    H263864   1.897   5.396   6.481  1.2329 -0.4542 -2.2021
14125TIP3   OH263865   5.941   6.118   1.405  0.2463  0.5234 -0.0067
14125TIP3    H163866   5.846   6.123   1.398  0.0108  0.7820  2.6195
14125TIP3    H263867   5.965   6.188   1.465  1.4824 -2.4229  3.2846
14126TIP3   OH263868   5.594   6.262  13.459  0.1229  0.1350 -0.5767
14126TIP3    H163869   5.511   6.226  13.489  0.5117 -0.5445 -0.2617
14126TIP3    H263870   5.629   6.195  13.399  0.8268  0.0028 -0.0412
14127TIP3   OH263871   5.047   6.692  15.784 -0.0623  0.1670 -0.0150
14127TIP3    H163872   4.970   6.696  15.841  1.3232  0.1977  1.9175
14127TIP3    H263873   5.038   6.608  15.739 -1.5689  0.4743 -0.3602
14128TIP3   OH263874   4.188   4.347   2.415  0.3518  0.4110  0.3706
14128TIP3    H163875   4.093   4.337   2.409  0.2883  1.6886 -2.7845
14128TIP3    H263876   4.200   4.429   2.464 -0.2842  0.9995 -0.4203
14129TIP3   OH263877   3.796   0.239   1.236 -0.8072  0.2717 -0.7382
14129TIP3    H163878   3.798   0.244   1.141  0.8493  0.9490 -0.7004
14129TIP3    H263879   3.834   0.153   1.256 -1.4543 -0.0069 -0.6871
14130TIP3   OH263880   6.283   1.924   1.973 -0.9474 -0.2054  0.4352
14130TIP3    H163881   6.363   1.883   1.940 -1.3685 -0.2720 -0.5477
14130TIP3    H263882   6.271   2.002   1.917 -0.9197  0.4777  1.3571
14131TIP3   OH263883   3.360   4.445   3.082  0.1064  0.0604 -0.0244
14131TIP3    H163884   3.388   4.355   3.063 -1.7982 -0.8072  0.9444
14131TIP3    H263885   3.312   4.472   3.004 -0.0714 -0.0984  0.0303
14132TIP3   OH263886   3.301   0.411   5.821 -0.6805 -0.4143  0.1021
14132TIP3    H163887   3.268   0.358   5.894 -1.3421 -0.7768 -0.4564
14132TIP3    H263888   3.233   0.476   5.805  0.6255  1.4745  1.5820
14133TIP3   OH263889   4.927   5.284  14.433  0.3597 -0.3513 -0.0005
14133TIP3    H163890   5.022   5.294  14.437  0.4610 -1.5008  1.3756
14133TIP3    H263891   4.893   5.364  14.474  0.6865  0.4061 -1.1644
14134TIP3   OH263892   3.633   3.632  14.299 -0.0497  0.0267  0.0053
14134TIP3    H163893   3.543   3.664  14.308 -0.9386 -1.5066 -2.4780
14134TIP3    H263894   3.678   3.701  14.249  0.5320  1.2795  2.1318
14135TIP3   OH263895   2.078   4.530   3.712 -0.3395  0.0353  0.2875
14135TIP3    H163896   2.099   4.552   3.802  0.3402 -0.7406  0.3298
14135TIP3    H263897   2.152   4.477   3.682 -0.9366 -0.4090 -0.4565
14136TIP3   OH263898   1.755   1.541  11.650 -1.2228  0.1544 -0.0671
14136TIP3    H163899   1.662   1.521  11.644 -0.9452 -0.9462 -0.9500
14136TIP3    H263900   1.795   1.460  11.681 -0.7770  1.2442  2.5377
14137TIP3   OH263901   3.822   4.934  16.349 -0.1704 -0.6044 -0.1286
14137TIP3    H163902   3.883   4.922  16.421 -0.4802 -0.1604  0.2133
14137TIP3    H263903   3.876   4.967  16.277 -0.2178  1.2393  0.6201
14138TIP3   OH263904   0.074   1.955  14.113 -0.1498 -0.5444 -0.0211
14138TIP3    H163905   0.055   2.024  14.048  0.4827  1.0275  1.4001
14138TIP3    H263906   0.128   1.892  14.065  1.8436  1.4678 -0.6360
14139TIP3   OH263907   3.745   4.989   3.773 -0.1376 -0.0085  0.0883
14139TIP3    H163908   3.792   5.071   3.790  0.0065  0.1978 -1.2017
14139TIP3    H263909   3.701   5.004   3.690  0.1446 -1.3578 -0.3234
14140TIP3   OH263910   3.257   6.279  11.138 -0.1947  0.4730 -0.4902
14140TIP3    H163911   3.230   6.208  11.080 -0.0527  0.1981 -0.2207
14140TIP3    H263912   3.189   6.283  11.205  1.6260 -1.9775  1.7420
14141TIP3   OH263913   6.079   5.473   0.479  0.2853  0.2255  0.3437
14141TIP3    H163914   6.109   5.561   0.500  0.8881 -0.1113  0.8895
14141TIP3    H263915   6.140   5.415   0.523  1.0793 -0.5002 -1.5805
14142TIP3   OH263916   1.385   0.992  11.353  0.4637 -0.3052 -0.7759
14142TIP3    H163917   1.322   1.019  11.420  1.0999  0.1506 -0.3529
14142TIP3    H263918   1.332   0.945  11.288 -0.2944  0.0001 -0.3893
14143TIP3   OH263919   1.710   1.146   5.551  0.5110  0.4002 -0.1910
14143TIP3    H163920   1.623   1.109   5.540 -0.0034  1.4198  0.3274
14143TIP3    H263921   1.711   1.178   5.641  1.5843 -0.0018 -0.0457
14144TIP3   OH263922   3.933   5.398  16.613  0.0417  0.1738  0.0022
14144TIP3    H163923   3.941   5.325  16.674 -2.6382 -0.2875 -0.0833
14144TIP3    H263924   3.871   5.458  16.655 -0.1258  0.9191 -1.2616
14145TIP3   OH263925   5.662   3.466  11.137  0.8025  0.2570  0.1846
14145TIP3    H163926   5.716   3.539  11.168  1.3374  0.1303 -0.4252
14145TIP3    H263927   5.705   3.436  11.057  0.6376 -0.7809  0.4625
14146TIP3   OH263928   0.437   5.932  15.340  0.1081  0.4902  0.2656
14146TIP3    H163929   0.527   5.910  15.318  0.5065  0.5350  1.7210
14146TIP3    H263930   0.387   5.852  15.319  0.8866 -0.4159  1.6833
14147TIP3   OH263931   0.927   3.108  15.409  0.2859 -0.4636  0.0447
14147TIP3    H163932   0.956   3.160  15.335 -0.8500  1.2757  0.7502
14147TIP3    H263933   0.974   3.025  15.401  1.1239  0.1568 -1.8869
14148TIP3   OH263934   1.316   3.859  12.476  0.0127 -0.2919 -0.0108
14148TIP3    H163935   1.410   3.874  12.460 -0.4375  0.3008 -2.4844
14148TIP3    H263936   1.309   3.765  12.488  1.0138 -0.2592  1.0697
14149TIP3   OH263937   6.425   4.561   0.230 -0.1699 -0.2403  0.2602
14149TIP3    H163938   6.486   4.490   0.253 -1.4716 -1.7930 -0.8685
14149TIP3    H263939   6.399   4.598   0.314  1.5328 -0.2054  0.8179
14150TIP3   OH263940   2.838   1.050  14.739 -0.8247  0.3570  0.6824
14150TIP3    H163941   2.829   1.091  14.653 -1.4544  1.4547  1.2561
14150TIP3    H263942   2.930   1.022  14.742 -1.0523 -0.6200 -0.7301
14151TIP3   OH263943   4.987   2.428  17.041 -0.2751  0.1070  0.2708
14151TIP3    H163944   5.078   2.424  17.011  0.2119  0.4602  1.6042
14151TIP3    H263945   4.988   2.382  17.125 -0.9078  1.7628  1.2440
14152TIP3   OH263946   5.033   0.486  13.767 -0.0971 -0.8880 -0.0434
14152TIP3    H163947   4.991   0.567  13.738  2.1740  0.9634  1.5178
14152TIP3    H263948   5.005   0.476  13.858  1.0984 -0.8135  0.3405
14153TIP3   OH263949   6.172   6.156   2.458 -0.1901 -0.5036 -0.5015
14153TIP3    H163950   6.105   6.211   2.500 -0.7417 -0.6412 -1.1866
14153TIP3    H263951   6.170   6.182   2.366  1.3515  0.1457 -0.3872
14154TIP3   OH263952   3.051   4.911   6.346  0.2828  0.3098 -0.2126
14154TIP3    H163953   3.073   5.002   6.367 -1.5760  0.3012  2.2742
14154TIP3    H263954   3.080   4.861   6.422 -1.8675 -0.6166  0.0771
14155TIP3   OH263955   0.109   2.142   3.013  0.4223 -0.2528 -0.7830
14155TIP3    H163956   0.118   2.056   3.055 -0.3480  1.1822  2.7129
14155TIP3    H263957   0.016   2.147   2.990 -0.1776  0.4877  1.4522
14156TIP3   OH263958   5.097   4.395   1.650 -0.4129  0.0305  0.0797
14156TIP3    H163959   5.120   4.403   1.742  0.6491  0.2734 -0.1961
14156TIP3    H263960   5.029   4.328   1.648 -1.0320  0.6025  1.1253
14157TIP3   OH263961   6.108   4.797  12.501 -0.1101  0.3963 -0.0552
14157TIP3    H163962   6.120   4.848  12.581 -1.4322  2.8936 -1.3312
14157TIP3    H263963   6.188   4.812  12.450 -0.5615  1.3956 -0.4949
14158TIP3   OH263964   0.855   1.536   2.031  0.5419  0.1728 -0.5654
14158TIP3    H163965   0.824   1.604   1.971  2.1237  1.4155 -0.0296
14158TIP3    H263966   0.816   1.455   1.996 -0.0358  1.0912 -2.2006
14159TIP3   OH263967   0.254   1.532   1.233 -0.0505  0.1296 -0.2816
14159TIP3    H163968   0.228   1.458   1.179 -0.1685 -0.5082  0.6187
14159TIP3    H263969   0.188   1.534   1.303  0.3390  0.6633  0.0773
14160TIP3   OH263970   4.483   1.741  13.326  0.3866 -0.0552  0.1893
14160TIP3    H163971   4.549   1.672  13.314  2.3420  1.9468 -1.5489
14160TIP3    H263972   4.510   1.786  13.406 -1.1180 -1.4723  1.5411
14161TIP3   OH263973   3.966   6.440   6.278  0.2016 -0.1518  0.4509
14161TIP3    H163974   3.972   6.534   6.265 -1.0605 -0.0950  0.1000
14161TIP3    H263975   3.877   6.418   6.251  0.3755 -1.3994  0.8224
14162TIP3   OH263976   0.633   5.768   5.008 -0.1622  0.4009 -0.2255
14162TIP3    H163977   0.638   5.765   4.912 -0.0865  1.1083 -0.2460
14162TIP3    H263978   0.559   5.826   5.027 -0.2494  0.1737  0.1458
14163TIP3   OH263979   6.277   0.928   4.403  0.2908  0.2743 -0.1790
14163TIP3    H163980   6.246   0.896   4.318  0.7219 -0.5516 -0.0313
14163TIP3    H263981   6.366   0.894   4.411 -0.0025 -0.2763  0.9273
14164TIP3   OH263982   2.604   5.133  15.896  0.5774  0.0650  0.2355
14164TIP3    H163983   2.575   5.058  15.844 -0.5892  0.4746  0.2578
14164TIP3    H263984   2.692   5.152  15.864  0.0310  0.0820 -1.3572
14165TIP3   OH263985   3.869   2.834  13.089 -0.2811 -0.3930  0.3391
14165TIP3    H163986   3.841   2.925  13.088 -0.4512 -0.4022  1.7623
14165TIP3    H263987   3.926   2.825  13.013 -0.2826  0.8896  0.1710
14166TIP3   OH263988   3.377   1.830   3.906 -0.0897 -0.4864 -0.2528
14166TIP3    H163989   3.450   1.812   3.965 -0.2408  0.0768  0.1098
14166TIP3    H263990   3.356   1.744   3.868 -0.3247 -0.9580  0.8997
14167TIP3   OH263991   5.954   0.742  13.850 -0.3575 -0.1720 -0.3728
14167TIP3    H163992   5.943   0.653  13.816 -2.8181 -0.3548  0.6241
14167TIP3    H263993   5.971   0.730  13.944  0.5055  0.4100 -0.4455
14168TIP3   OH263994   4.467   3.017   0.028  0.1570  0.2798 -0.1306
14168TIP3    H163995   4.450   3.022  -0.066 -0.8056 -0.3169 -0.0054
14168TIP3    H263996   4.392   2.970   0.064  1.5165 -1.4150  0.6505
14169TIP3   OH263997   0.278   2.780   3.357  0.0042 -0.2274 -0.4472
14169TIP3    H163998   0.222   2.852   3.384  0.2767  0.6037 -1.9813
14169TIP3    H263999   0.227   2.732   3.293  0.1673 -0.8611 -0.1079
14170TIP3   OH264000   5.091   5.076   4.084 -0.0100 -0.1756  0.4362
14170TIP3    H164001   5.037   5.051   4.158 -0.7745  2.6252  0.9606
14170TIP3    H264002   5.175   5.100   4.123  1.4805 -3.6812 -0.2825
14171TIP3   OH264003   2.328   0.038   2.789  0.3234 -0.5290  0.0202
14171TIP3    H164004   2.245   0.020   2.833  1.1264 -0.2358  1.7561
14171TIP3    H264005   2.309   0.027   2.696 -1.8045  0.1437  0.3198
14172TIP3   OH264006   1.052   5.974   0.174  0.0316  0.4073 -0.1638
14172TIP3    H164007   1.115   5.902   0.181  1.0136  1.1724 -0.8221
14172TIP3    H264008   0.971   5.933   0.144 -0.4027 -0.8902  2.4857
14173TIP3   OH264009   2.780   6.820   5.419 -0.6293 -0.6780  0.1188
14173TIP3    H164010   2.778   6.835   5.325 -1.9493 -1.0420  0.0745
14173TIP3    H264011   2.872   6.801   5.438 -0.6013 -2.3022 -1.3819
14174TIP3   OH264012   5.063   2.029   1.900 -0.0703 -0.3060 -0.4458
14174TIP3    H164013   5.007   2.079   1.840 -0.6514 -0.2380  0.1385
14174TIP3    H264014   5.117   2.095   1.944  0.0614 -0.3155 -0.5934
14175TIP3   OH264015   0.890   2.488   4.052 -0.3199  0.0408  0.0384
14175TIP3    H164016   0.969   2.454   4.011 -1.1506  0.0572 -1.6751
14175TIP3    H264017   0.819   2.434   4.016 -1.1631  0.4095  1.0707
14176TIP3   OH264018   1.531   0.348   3.263  0.6945 -0.6481 -0.3351
14176TIP3    H164019   1.471   0.305   3.202  1.0538 -0.0314 -1.1424
14176TIP3    H264020   1.491   0.433   3.282  1.2627 -0.2534 -0.8383
14177TIP3   OH264021   3.032   5.950  14.188 -0.1818  0.4053  0.4266
14177TIP3    H164022   3.035   5.861  14.154 -1.5630  0.1991  0.8005
14177TIP3    H264023   3.001   6.003  14.114  0.4772  0.5610  0.2542
14178TIP3   OH264024   3.147   2.964   5.510  0.3889  0.3259  0.1842
14178TIP3    H164025   3.132   3.022   5.584  0.4066 -0.3453  0.7199
14178TIP3    H264026   3.113   3.013   5.434 -2.7758 -0.3248  1.0452
14179TIP3   OH264027   4.497   3.249  12.418 -0.4184  0.0717 -0.0434
14179TIP3    H164028   4.470   3.318  12.358 -1.0072 -0.8538 -0.8816
14179TIP3    H264029   4.588   3.230  12.392 -0.2561  0.5214  0.1880
14180TIP3   OH264030   3.948   3.644   4.277 -0.2575  0.1071 -0.0659
14180TIP3    H164031   3.912   3.682   4.357  2.7903  0.6452  1.1692
14180TIP3    H264032   4.008   3.711   4.243  1.0250 -1.4060 -0.9153
14181TIP3   OH264033   0.653   3.422   3.525 -0.3352  0.1126 -0.6176
14181TIP3    H164034   0.710   3.482   3.572 -1.3501  0.1091  0.6919
14181TIP3    H264035   0.622   3.471   3.449 -1.7181  1.5665  0.8113
14182TIP3   OH264036   5.332   4.303   2.017  0.1591  0.3013 -0.0058
14182TIP3    H164037   5.309   4.330   2.106 -0.3582  0.0810 -0.0718
14182TIP3    H264038   5.267   4.237   1.994 -0.3263  1.0770 -0.9237
14183TIP3   OH264039   0.804   2.320  14.178 -0.0197 -0.2547 -0.2693
14183TIP3    H164040   0.888   2.275  14.171  1.3102  2.2740 -2.5632
14183TIP3    H264041   0.743   2.264  14.130  1.1574 -0.5185 -1.5211
14184TIP3   OH264042   3.695   0.292  14.374 -0.1925 -0.1140  0.3730
14184TIP3    H164043   3.771   0.244  14.407  0.2907  0.6366  0.3758
14184TIP3    H264044   3.692   0.372  14.427 -0.9332 -0.0893  0.3085
14185TIP3   OH264045   3.032   0.582  15.994 -0.0246  0.5609  0.1780
14185TIP3    H164046   3.081   0.610  16.071  0.0902  0.7340  0.0445
14185TIP3    H264047   3.059   0.643  15.925  0.0820  0.2378 -0.0714
14186TIP3   OH264048   0.823   1.507  12.138  0.4115  0.3825 -0.1013
14186TIP3    H164049   0.848   1.517  12.230  1.2334 -1.2091 -0.1165
14186TIP3    H264050   0.729   1.486  12.141  0.4456  0.2790  0.3853
14187TIP3   OH264051   6.001   6.434  17.133  0.2938  0.4411  0.0833
14187TIP3    H164052   6.026   6.481  17.212  0.1941 -0.7327  0.8354
14187TIP3    H264053   6.084   6.408  17.093  0.3485  1.2537 -0.3450
14188TIP3   OH264054   4.477   3.201   0.384  0.0328 -0.3985 -0.1075
14188TIP3    H164055   4.491   3.294   0.364 -1.4128 -0.2648 -0.6549
14188TIP3    H264056   4.552   3.156   0.344  0.1532  0.4353 -0.8583
14189TIP3   OH264057   3.530   0.441   1.629 -0.6097  0.1586  0.3639
14189TIP3    H164058   3.539   0.392   1.547 -2.7661 -0.2829  0.3432
14189TIP3    H264059   3.456   0.500   1.614  0.7896  2.1939  1.0266
14190TIP3   OH264060   3.708   1.999   4.220  0.3471 -0.4488  0.3721
14190TIP3    H164061   3.713   2.093   4.234 -1.0450 -0.1584 -0.8300
14190TIP3    H264062   3.792   1.965   4.252  1.3040  1.3126 -0.1482
14191TIP3   OH264063   1.407   1.155   2.228  0.3900  0.5069 -0.0360
14191TIP3    H164064   1.365   1.206   2.297  0.2973  2.2426 -1.3042
14191TIP3    H264065   1.429   1.220   2.160  0.0878 -1.1826 -1.8321
14192TIP3   OH264066   5.481   0.351  13.089  0.5505  0.1505  0.2957
14192TIP3    H164067   5.557   0.302  13.060  0.9144  1.6051 -1.4625
14192TIP3    H264068   5.408   0.289  13.083  1.3653 -0.8485  0.5868
14193TIP3   OH264069   5.532   0.445   0.009  0.3099 -0.3592 -0.6260
14193TIP3    H164070   5.467   0.469   0.075  0.2651  1.0281 -1.1311
14193TIP3    H264071   5.507   0.357  -0.020  1.0136 -1.5172  1.9882
14194TIP3   OH264072   3.453   6.213   4.182 -0.2736 -0.2083  0.2605
14194TIP3    H164073   3.379   6.268   4.155  0.2819  0.3537 -0.1588
14194TIP3    H264074   3.416   6.153   4.247 -0.4572  2.1801  2.5293
14195TIP3   OH264075   2.079   2.247   2.895  0.0829 -0.0227 -0.4503
14195TIP3    H164076   2.062   2.202   2.978  0.5272  1.5002  0.5050
14195TIP3    H264077   2.021   2.322   2.896  0.9957  0.7103 -0.9230
14196TIP3   OH264078   4.689   5.468  13.997  0.1584  0.3694 -0.8751
14196TIP3    H164079   4.605   5.452  13.953 -1.0403  0.6876  1.1551
14196TIP3    H264080   4.711   5.385  14.038 -0.9436  1.0914  1.3537
14197TIP3   OH264081   1.033   3.481  12.798 -0.8928  0.1992  0.0301
14197TIP3    H164082   1.088   3.554  12.828 -1.0946  0.5825 -0.5298
14197TIP3    H264083   1.055   3.470  12.706 -0.3118 -0.9522  0.2857
14198TIP3   OH264084   1.459   0.293  13.077  0.3180 -0.1387  0.5683
14198TIP3    H164085   1.376   0.296  13.125  0.5565  1.4586  0.9659
14198TIP3    H264086   1.524   0.319  13.143  1.0072 -0.4281  0.0094
14199TIP3   OH264087   1.964   2.853  14.335 -0.2550  0.2413 -0.2015
14199TIP3    H164088   1.924   2.905  14.265 -1.1487 -0.3808 -0.1637
14199TIP3    H264089   1.959   2.909  14.412 -2.3664 -0.3230  0.1362
14200TIP3   OH264090   1.311   6.646  11.504  0.0886  0.1577  0.4646
14200TIP3    H164091   1.339   6.689  11.585  0.3777 -0.8879  0.9378
14200TIP3    H264092   1.388   6.598  11.475 -0.1271  0.2313 -0.2357
14201TIP3   OH264093   6.486   4.435   5.177 -0.1418 -0.0192  0.0846
14201TIP3    H164094   6.575   4.459   5.149 -0.3295  0.0864 -0.4270
14201TIP3    H264095   6.442   4.519   5.189 -0.8925 -0.0565 -2.0032
14202TIP3   OH264096   3.034   3.376   4.180 -0.2054 -0.2047  0.6631
14202TIP3    H164097   3.071   3.331   4.256 -0.1582  0.2400  0.9098
14202TIP3    H264098   2.945   3.401   4.208 -0.2170 -0.1121  0.5449
14203TIP3   OH264099   4.885   2.062   0.903  0.0254 -0.2636 -0.4276
14203TIP3    H164100   4.861   1.977   0.867  0.6810 -0.7460  0.2477
14203TIP3    H264101   4.878   2.052   0.997 -0.3115  0.5685 -0.3538
14204TIP3   OH264102   0.646   3.096   5.578  0.5707  0.5265  0.4321
14204TIP3    H164103   0.604   3.084   5.663  1.8903  0.1606  1.0456
14204TIP3    H264104   0.739   3.104   5.597  0.9655 -0.1871 -1.0295
14205TIP3   OH264105   1.328   0.026   6.073 -0.4365  0.3181 -0.0750
14205TIP3    H164106   1.334   0.121   6.079 -0.3627  0.2917  0.2859
14205TIP3    H264107   1.407  -0.000   6.026  0.3332  0.3121  1.1702
14206TIP3   OH264108   1.763   6.751   1.437  0.0846  0.2560  0.0741
14206TIP3    H164109   1.718   6.832   1.459 -1.2422  0.0017 -1.4563
14206TIP3    H264110   1.743   6.691   1.508 -2.6223 -0.0361 -0.8153
14207TIP3   OH264111   2.227   4.767  16.993  0.4162 -0.4009  0.4202
14207TIP3    H164112   2.207   4.816  16.913  0.7228 -1.3563 -0.2595
14207TIP3    H264113   2.164   4.694  16.993  1.0553 -0.9662  0.5243
14208TIP3   OH264114   0.392   2.284   1.154 -0.3734 -0.4910  0.0783
14208TIP3    H164115   0.443   2.206   1.175  1.0951  0.3944 -0.0158
14208TIP3    H264116   0.327   2.290   1.224 -1.3295 -2.4425 -0.5713
14209TIP3   OH264117   1.162   0.367   5.220  0.4262  0.0513 -0.0485
14209TIP3    H164118   1.256   0.376   5.236 -0.0160  0.3633  3.0352
14209TIP3    H264119   1.145   0.422   5.144  2.4602  1.5742  0.5061
14210TIP3   OH264120   4.888   1.305  15.329  0.8399 -0.0131 -0.2628
14210TIP3    H164121   4.912   1.219  15.295  2.2475 -0.4877  1.7488
14210TIP3    H264122   4.837   1.345  15.259  0.6734 -2.2311 -1.4981
14211TIP3   OH264123   1.297   6.491  14.269 -0.3789 -0.1182  0.0982
14211TIP3    H164124   1.225   6.480  14.207 -1.5107 -0.5090  1.4203
14211TIP3    H264125   1.268   6.445  14.348  1.1498  0.0763  0.8159
14212TIP3   OH264126   0.922   6.346  11.938  0.1993 -0.4998 -0.4301
14212TIP3    H164127   0.974   6.359  12.017  1.0108  0.1630 -1.0644
14212TIP3    H264128   0.950   6.415  11.878 -0.8314 -0.6280 -1.0885
14213TIP3   OH264129   4.991   4.480  15.454 -0.3335  0.5236  0.0676
14213TIP3    H164130   5.036   4.550  15.406 -1.0304  0.2518 -1.0137
14213TIP3    H264131   5.049   4.405  15.447 -0.3343  0.5441 -0.1798
14214TIP3   OH264132   3.140   6.461   3.198 -0.5177 -0.2298 -0.0348
14214TIP3    H164133   3.117   6.478   3.107 -0.4448 -1.3864 -0.2806
14214TIP3    H264134   3.219   6.407   3.194  0.6847  1.3813  0.7595
14215TIP3   OH264135   5.890   6.115  13.891  0.5982  0.0713 -0.2105
14215TIP3    H164136   5.847   6.175  13.830  3.0301  0.4169 -1.6742
14215TIP3    H264137   5.938   6.054  13.835  0.7562 -1.2822  1.3339
14216TIP3   OH264138   3.007   0.550   3.828 -0.7395 -0.0420 -0.4893
14216TIP3    H164139   3.089   0.566   3.875 -0.9851  0.1487 -0.1168
14216TIP3    H264140   3.026   0.577   3.738 -0.1499 -0.7611 -0.5936
14217TIP3   OH264141   5.673   5.359   6.259  0.1181 -0.6716 -0.0156
14217TIP3    H164142   5.618   5.407   6.197  2.2210 -0.4604 -1.8415
14217TIP3    H264143   5.637   5.271   6.259 -1.2094 -0.1508  0.1120
14218TIP3   OH264144   0.577   2.249   2.980  0.1989  0.1554 -0.0477
14218TIP3    H164145   0.636   2.293   3.041 -0.2618  1.3301 -0.4148
14218TIP3    H264146   0.495   2.297   2.987 -0.0994 -0.1821 -1.0079
14219TIP3   OH264147   0.202   0.483   5.801 -0.6672  0.4060 -0.9147
14219TIP3    H164148   0.261   0.558   5.795 -1.6395  1.0824 -4.7603
14219TIP3    H264149   0.243   0.425   5.866  2.0242  2.5956 -0.4778
14220TIP3   OH264150   5.005   4.300   1.203 -0.0092  0.7802  0.3274
14220TIP3    H164151   5.005   4.351   1.284  0.5327 -0.4399  1.1331
14220TIP3    H264152   4.919   4.317   1.164  0.8810  3.9041 -0.5511
14221TIP3   OH264153   4.949   2.778  12.880 -0.4187  0.4632  0.3507
14221TIP3    H164154   4.957   2.773  12.785 -3.2336  0.6187  0.0009
14221TIP3    H264155   4.997   2.702  12.912  0.9967  0.6701 -1.1237
14222TIP3   OH264156   2.915   2.418  15.887  0.0145 -0.0214 -0.4233
14222TIP3    H164157   2.891   2.501  15.929 -1.4868 -0.9927  0.7492
14222TIP3    H264158   2.972   2.375  15.951  1.0017  0.1848 -1.1398
14223TIP3   OH264159   6.733   1.603  14.581  0.1104 -0.2472  0.3885
14223TIP3    H164160   6.748   1.518  14.539  1.1774  0.1161  0.0143
14223TIP3    H264161   6.813   1.620  14.631 -0.5107  0.0637  1.3105
14224TIP3   OH264162   2.294   5.531   0.650 -0.6424  0.1128 -0.6850
14224TIP3    H164163   2.251   5.446   0.652  0.8126 -0.6478  1.2336
14224TIP3    H264164   2.377   5.516   0.605 -0.6425  0.6665 -0.8846
14225TIP3   OH264165   5.574   5.943  16.890 -0.4801 -0.2392 -0.7967
14225TIP3    H164166   5.617   6.013  16.939 -0.9468  0.3150 -1.1612
14225TIP3    H264167   5.491   5.929  16.935 -0.0875 -1.0465 -0.3154
14226TIP3   OH264168   3.833   1.674   3.867 -0.0706  0.3565  0.5547
14226TIP3    H164169   3.864   1.645   3.781 -1.4190  0.0452  0.1530
14226TIP3    H264170   3.905   1.727   3.901  0.7001  0.0555 -0.5440
14227TIP3   OH264171   5.514   5.644   1.128 -0.2720 -0.2455  0.4295
14227TIP3    H164172   5.566   5.567   1.107 -0.6031 -0.5230  0.6046
14227TIP3    H264173   5.439   5.609   1.178  0.3712  0.3477  1.8853
14228TIP3   OH264174   2.808   4.557  14.253  0.1275 -0.3161 -0.2900
14228TIP3    H164175   2.845   4.481  14.207  0.2299 -0.0149 -0.7139
14228TIP3    H264176   2.789   4.525  14.341  2.3423 -0.2385  0.2934
14229TIP3   OH264177   4.630   2.390  10.497  0.2672 -0.0552  0.1598
14229TIP3    H164178   4.609   2.296  10.502  1.0282 -0.2852 -0.6532
14229TIP3    H264179   4.677   2.399  10.414 -0.1651  1.1269  0.0352
14230TIP3   OH264180   6.289   5.573   5.729  0.5468 -0.4148  0.1052
14230TIP3    H164181   6.236   5.643   5.767 -0.8190 -0.5094 -1.5262
14230TIP3    H264182   6.333   5.533   5.804  0.4948  1.4581  1.1865
14231TIP3   OH264183   5.248   2.717   2.475 -0.6591 -0.4083  0.1169
14231TIP3    H164184   5.213   2.629   2.472 -2.7308  0.3138  1.3182
14231TIP3    H264185   5.278   2.728   2.566 -1.3322  0.4471  0.2415
14232TIP3   OH264186   4.959   5.606  11.394 -0.1008  0.3373  0.0033
14232TIP3    H164187   4.897   5.679  11.402  0.9402  1.2786 -0.2835
14232TIP3    H264188   5.042   5.642  11.425  1.0265  0.0600 -2.4564
14233TIP3   OH264189   0.410   2.397  14.988  0.2342  0.6471  0.2836
14233TIP3    H164190   0.447   2.308  14.984 -0.0638  0.5444 -0.2510
14233TIP3    H264191   0.316   2.384  14.989  0.1880  0.9655  0.0695
14234TIP3   OH264192   0.021   1.294  14.917 -0.2076 -0.6053  0.4586
14234TIP3    H164193   0.041   1.384  14.944 -1.7873 -0.6599  1.9868
14234TIP3    H264194   0.103   1.261  14.881  0.4370  1.4144 -0.0792
14235TIP3   OH264195   6.522   1.134  11.046 -0.3558 -0.6876  0.2732
14235TIP3    H164196   6.607   1.174  11.065 -0.2994 -1.2960  1.4280
14235TIP3    H264197   6.537   1.040  11.060 -0.5206 -1.1625 -2.2179
14236TIP3   OH264198   0.731   5.358   5.073 -0.0223  0.0199  0.3197
14236TIP3    H164199   0.673   5.429   5.099 -2.8766 -2.2203  0.6580
14236TIP3    H264200   0.737   5.302   5.151  2.4549  0.0302  0.1969
14237TIP3   OH264201   3.851   0.208   6.020  0.5567  0.4471  0.5242
14237TIP3    H164202   3.886   0.268   6.086  2.3902 -0.5904  0.5457
14237TIP3    H264203   3.907   0.220   5.944  1.6210 -1.9028  0.8669
14238TIP3   OH264204   1.666   2.925  14.396  0.1748 -0.2468  0.2422
14238TIP3    H164205   1.687   2.852  14.337 -0.4950 -1.3130  1.2824
14238TIP3    H264206   1.677   3.003  14.342 -0.7397 -1.2006 -1.3967
14239TIP3   OH264207   3.957   4.624  15.541 -0.4080 -0.7959 -0.3385
14239TIP3    H164208   3.969   4.537  15.580  1.4062  0.5178  2.2912
14239TIP3    H264209   3.863   4.630  15.526 -0.8703 -2.3935  1.4838
14240TIP3   OH264210   1.547   4.021  16.325 -0.0882 -0.5091  0.5918
14240TIP3    H164211   1.502   4.105  16.318  0.5112 -0.1970  0.3504
14240TIP3    H264212   1.635   4.044  16.356  0.3189 -0.9711 -0.1960
14241TIP3   OH264213   2.891   4.276   6.146  0.5745  0.3631 -0.1861
14241TIP3    H164214   2.810   4.296   6.191  0.2432  0.2175 -0.7031
14241TIP3    H264215   2.876   4.189   6.108  1.0146  0.2843 -0.1832
14242TIP3   OH264216   0.416   5.313   0.254 -0.0031  0.0269 -0.1171
14242TIP3    H164217   0.346   5.368   0.221  0.1228 -0.4345 -1.1771
14242TIP3    H264218   0.496   5.365   0.242 -0.1278  0.4778  0.9192
14243TIP3   OH264219   2.179   5.619  14.200  0.0225 -0.2130  0.2835
14243TIP3    H164220   2.264   5.581  14.222  0.1175 -0.1592  0.0122
14243TIP3    H264221   2.197   5.679  14.128 -0.3942 -0.8988 -0.4090
14244TIP3   OH264222   1.110   4.118  13.508  0.2218  0.2805 -0.3784
14244TIP3    H164223   1.100   4.094  13.600  0.0734  1.3537 -0.1020
14244TIP3    H264224   1.024   4.101  13.469 -0.3788  1.8559  0.1826
14245TIP3   OH264225   6.073   2.078   0.791 -0.5567  0.0739 -0.4066
14245TIP3    H164226   6.160   2.059   0.826  0.5297 -0.3490 -3.1049
14245TIP3    H264227   6.085   2.081   0.696 -3.5054 -0.0665 -0.8872
14246TIP3   OH264228   6.660   4.630  15.207 -0.2368  0.5880 -0.0872
14246TIP3    H164229   6.660   4.726  15.206  1.5768  0.6256 -0.4253
14246TIP3    H264230   6.753   4.607  15.206 -0.6094 -1.2037 -2.5714
14247TIP3   OH264231   4.691   0.856   2.900 -0.1952  0.2947  0.2121
14247TIP3    H164232   4.735   0.801   2.835  0.7592 -0.8561  1.7521
14247TIP3    H264233   4.717   0.945   2.877  2.8819 -0.2877  0.8774
14248TIP3   OH264234   1.920   3.358  13.285  0.1797 -0.7042 -0.5026
14248TIP3    H164235   1.953   3.439  13.247  0.8495 -1.0344 -0.6269
14248TIP3    H264236   1.982   3.337  13.355  0.2218 -1.3147 -0.7200
14249TIP3   OH264237   1.127   6.063   2.591 -0.1579  0.5265  0.2557
14249TIP3    H164238   1.199   6.093   2.535 -0.6067 -0.6490 -1.0289
14249TIP3    H264239   1.063   6.134   2.588 -0.2381  0.4272 -0.8840
14250TIP3   OH264240   1.262   5.948  14.339 -0.1620 -0.5900  0.6324
14250TIP3    H164241   1.237   5.856  14.331 -1.9385 -0.2735  1.8477
14250TIP3    H264242   1.249   5.968  14.431 -0.8978  1.1642  0.1853
14251TIP3   OH264243   4.621   2.690   4.436  0.5038  0.2125  0.2894
14251TIP3    H164244   4.656   2.604   4.412  0.3604  0.1340  0.3588
14251TIP3    H264245   4.565   2.672   4.513 -0.1917  0.2334 -0.1976
14252TIP3   OH264246   0.105   5.894  15.430 -0.4073 -0.5194  0.0309
14252TIP3    H164247   0.120   5.949  15.507 -2.6204 -0.9415  0.8306
14252TIP3    H264248   0.090   5.807  15.466 -1.3626 -0.7426 -0.8744
14253TIP3   OH264249   6.772   5.413   1.062 -0.8299  0.3820  0.9025
14253TIP3    H164250   6.750   5.496   1.104 -0.9538  0.5757  0.4514
14253TIP3    H264251   6.820   5.438   0.983 -0.0654  0.0000  1.2399
14254TIP3   OH264252   0.290   1.432  16.014  0.1348  0.0197 -0.0814
14254TIP3    H164253   0.309   1.432  15.921  0.8608 -1.7269  0.0454
14254TIP3    H264254   0.364   1.387  16.055  0.4418  1.8073  1.4984
14255TIP3   OH264255   6.406   4.487  16.926  0.2762 -0.2426  0.0016
14255TIP3    H164256   6.409   4.582  16.911  0.4159 -0.2740 -0.1777
14255TIP3    H264257   6.320   4.461  16.896  0.4794 -0.2734 -0.5755
14256TIP3   OH264258   0.250   3.841   0.249  0.4609  0.4170 -0.2163
14256TIP3    H164259   0.211   3.822   0.334  0.7698 -0.3734 -0.2403
14256TIP3    H264260   0.177   3.875   0.196 -0.8693 -3.1177 -0.9707
14257TIP3   OH264261   3.807   1.304   3.388  0.0931 -0.2579 -0.1243
14257TIP3    H164262   3.757   1.281   3.310  0.2355 -1.5688  0.1615
14257TIP3    H264263   3.772   1.247   3.457  1.4877 -0.7036  0.2466
14258TIP3   OH264264   5.535   4.727  11.058 -0.1593 -0.1823 -0.4651
14258TIP3    H164265   5.577   4.688  10.982  0.0844 -0.6948 -0.0786
14258TIP3    H264266   5.482   4.656  11.095  1.0977 -0.4960  0.8490
14259TIP3   OH264267   3.890   2.007   5.858 -0.1970  0.4109 -0.0561
14259TIP3    H164268   3.904   2.029   5.950 -1.7509  1.9816 -0.1427
14259TIP3    H264269   3.954   2.059   5.810  1.4902 -1.3693  0.1487
14260TIP3   OH264270   0.099   4.345  14.734 -0.5104 -0.1782  0.7683
14260TIP3    H164271   0.185   4.313  14.705 -0.9837  0.6851 -1.7739
14260TIP3    H264272   0.118   4.429  14.775 -0.1329 -0.0205  0.2800
14261TIP3   OH264273   4.817   6.582  11.479 -0.1999  0.2778 -0.2320
14261TIP3    H164274   4.860   6.584  11.564 -1.3479 -0.3970  0.3947
14261TIP3    H264275   4.859   6.652  11.429  0.7204  0.4669  0.7691
14262TIP3   OH264276   5.670   2.435   0.949 -0.0810  0.7562  0.0364
14262TIP3    H164277   5.728   2.361   0.933  0.9432  0.8340  2.7393
14262TIP3    H264278   5.582   2.399   0.944  0.1543  0.3791 -2.9894
14263TIP3   OH264279   4.346   1.192  12.832 -0.1682 -1.0231  0.1203
14263TIP3    H164280   4.312   1.169  12.919  0.6458 -1.2477  0.3877
14263TIP3    H264281   4.283   1.256  12.799 -0.9288 -1.5361  0.5361
14264TIP3   OH264282   6.268   3.972  11.995  0.2779  0.2509 -0.0446
14264TIP3    H164283   6.349   4.014  11.967  0.3070  1.0684  1.1817
14264TIP3    H264284   6.200   4.012  11.940  0.5247  0.6057 -0.0938
14265TIP3   OH264285   1.827   3.696   4.595 -0.1083  0.1146  0.3073
14265TIP3    H164286   1.775   3.633   4.544  1.6179 -0.4630 -0.8405
14265TIP3    H264287   1.819   3.778   4.546 -0.1711  0.0953  0.2846
14266TIP3   OH264288   2.217   3.972  11.965 -0.6290 -0.2489 -0.4320
14266TIP3    H164289   2.285   3.920  12.009 -0.7065 -0.3150 -0.3920
14266TIP3    H264290   2.166   3.908  11.916 -0.7391 -0.2121 -0.3636
14267TIP3   OH264291   2.376   5.925  12.332  0.0205 -0.6015  0.0635
14267TIP3    H164292   2.355   5.885  12.416 -0.5565 -0.9205 -0.2242
14267TIP3    H264293   2.354   6.017  12.343 -1.0526 -0.8272 -0.0537
14268TIP3   OH264294   3.856   6.758   4.619  0.7172 -0.1264 -0.2429
14268TIP3    H164295   3.877   6.764   4.712  0.9662 -2.3604 -0.1070
14268TIP3    H264296   3.762   6.739   4.616  1.0074 -1.6208 -0.3579
14269TIP3   OH264297   4.680   2.140   2.152 -0.0156 -1.0783 -0.1036
14269TIP3    H164298   4.719   2.134   2.239 -1.7656 -0.9482  0.7513
14269TIP3    H264299   4.719   2.068   2.102  0.7905 -1.3445  0.8878
14270TIP3   OH264300   6.734   4.664  10.970 -0.0949 -0.4739 -0.2479
14270TIP3    H164301   6.794   4.611  10.917  1.4737 -0.3292  1.3177
14270TIP3    H264302   6.785   4.741  10.996 -1.5617  0.6057 -0.4126
14271TIP3   OH264303   2.929   4.291   0.395  0.1075  0.0127  0.2407
14271TIP3    H164304   3.018   4.284   0.360  0.6307 -0.2530  1.5324
14271TIP3    H264305   2.927   4.227   0.467 -1.5141 -0.8118 -0.5049
14272TIP3   OH264306   6.570   5.890  16.856  0.5902 -0.1016 -0.1488
14272TIP3    H164307   6.643   5.930  16.903  0.7269 -1.1151  0.5259
14272TIP3    H264308   6.606   5.867  16.771  1.3444 -1.4696  0.5226
14273TIP3   OH264309   2.809   4.023   5.547 -0.1515  0.3866  0.4364
14273TIP3    H164310   2.822   3.942   5.498 -3.3633  1.1150 -1.9480
14273TIP3    H264311   2.867   4.086   5.505 -0.7215  0.3016 -0.4901
14274TIP3   OH264312   4.523   4.260  15.322 -0.1452 -0.0785  0.0146
14274TIP3    H164313   4.617   4.253  15.337 -0.2819 -0.9658  0.5085
14274TIP3    H264314   4.514   4.336  15.265  0.9204 -0.2987 -0.4825
14275TIP3   OH264315   1.459   6.502   0.377  0.7922 -0.5665  0.0304
14275TIP3    H164316   1.472   6.411   0.351  1.6409 -0.0156 -1.6112
14275TIP3    H264317   1.543   6.528   0.416  0.7310 -0.3434  0.0166
14276TIP3   OH264318   4.283   5.087  11.674  0.2435  0.0275 -0.7693
14276TIP3    H164319   4.351   5.100  11.740  0.4320  0.2825 -1.0098
14276TIP3    H264320   4.281   4.992  11.660 -1.9142 -0.4219  1.8214
14277TIP3   OH264321   0.052   6.597   2.127 -0.1948 -0.3439  0.8733
14277TIP3    H164322   0.010   6.681   2.146 -0.9943 -0.8165  1.2484
14277TIP3    H264323   0.025   6.576   2.037  0.4159  0.0326  0.5956
14278TIP3   OH264324   3.924   5.710   1.935 -0.4860 -0.5230 -0.4037
14278TIP3    H164325   3.958   5.767   2.004 -0.0009 -0.7701 -0.4326
14278TIP3    H264326   3.876   5.769   1.877  0.9189  0.0566 -1.0291
14279TIP3   OH264327   5.101   5.289  13.931 -0.4801  0.1600 -0.4557
14279TIP3    H164328   5.155   5.361  13.898 -1.2400  0.5981 -0.7697
14279TIP3    H264329   5.050   5.327  14.002 -0.6578 -0.1504 -0.4159
14280TIP3   OH264330   0.333   2.231   4.170 -0.5550 -0.2153 -0.1071
14280TIP3    H164331   0.371   2.239   4.257  1.7323 -1.6263 -0.8981
14280TIP3    H264332   0.408   2.239   4.110 -1.9396 -0.1032 -1.9237
14281TIP3   OH264333   1.091   1.313   2.817 -0.2066  0.3108 -0.0433
14281TIP3    H164334   1.100   1.224   2.783 -2.2201 -0.2347  0.7020
14281TIP3    H264335   1.100   1.303   2.912 -0.8759  0.8281  0.0792
14282TIP3   OH264336   2.811   1.732   1.797  0.9362  0.0997 -0.5150
14282TIP3    H164337   2.741   1.704   1.738 -0.5116  0.3121  1.0089
14282TIP3    H264338   2.881   1.669   1.783 -0.5665 -1.7365 -0.2760
14283TIP3   OH264339   1.326   4.053  11.797  0.2283  0.0077  0.1025
14283TIP3    H164340   1.345   4.118  11.865  0.7526  0.6288 -0.6024
14283TIP3    H264341   1.254   4.091  11.747  2.0875  1.2998 -1.8103
14284TIP3   OH264342   1.818   6.514  11.385  0.3118  0.0372 -0.1322
14284TIP3    H164343   1.763   6.561  11.323  0.9034  0.6219 -0.2241
14284TIP3    H264344   1.830   6.427  11.346 -0.7678 -0.1905  0.0274
14285TIP3   OH264345   2.105   2.234  10.834 -0.1608 -0.1833 -0.1719
14285TIP3    H164346   2.060   2.318  10.836 -1.7536 -0.8909 -2.1485
14285TIP3    H264347   2.157   2.236  10.753  0.7961 -0.6225  0.4167
14286TIP3   OH264348   4.566   0.735   2.077  0.0170 -0.6463 -0.2011
14286TIP3    H164349   4.514   0.657   2.062 -0.7828  0.0962 -1.4386
14286TIP3    H264350   4.544   0.794   2.004  0.5159  0.7724  0.7452
14287TIP3   OH264351   4.438   2.839  15.515  0.0360  0.0028 -0.4951
14287TIP3    H164352   4.445   2.744  15.521  1.3561  0.0813 -0.4527
14287TIP3    H264353   4.442   2.858  15.422  0.1864  0.0283 -0.4851
14288TIP3   OH264354   2.326   3.375   3.521 -0.3533 -0.0211 -0.3828
14288TIP3    H164355   2.319   3.427   3.441  2.4529 -2.4646 -2.4555
14288TIP3    H264356   2.412   3.398   3.558  0.5362 -2.3073 -0.8345
14289TIP3   OH264357   1.028   2.770  11.554  0.1930  0.3671 -0.0832
14289TIP3    H164358   0.995   2.850  11.514  0.5035  1.3191  1.4962
14289TIP3    H264359   0.960   2.744  11.616  0.1565 -0.5447 -0.4813
14290TIP3   OH264360   1.515   2.146  16.878  0.2856 -0.3692 -0.1784
14290TIP3    H164361   1.561   2.167  16.796  0.7787  2.7343  0.7368
14290TIP3    H264362   1.565   2.192  16.945 -1.1999 -1.2492  1.6125
14291TIP3   OH264363   3.377   6.494   0.571  0.6749  0.0133  0.0507
14291TIP3    H164364   3.332   6.498   0.655 -0.3748 -1.5615 -0.4037
14291TIP3    H264365   3.336   6.422   0.525  2.9022 -0.7594 -0.8667
14292TIP3   OH264366   5.480   6.516  16.596  0.4750  0.4897  0.1212
14292TIP3    H164367   5.542   6.566  16.650  0.2423  1.4076 -0.4239
14292TIP3    H264368   5.516   6.428  16.593  1.3696  0.8345  0.4124
14293TIP3   OH264369   6.817   6.105  14.628  0.0015  0.6968 -1.0562
14293TIP3    H164370   6.855   6.052  14.698  2.7180  2.4397 -1.0856
14293TIP3    H264371   6.825   6.051  14.549  0.6825  0.2931 -0.7168
14294TIP3   OH264372   4.211   4.225  12.707  0.0546  0.4459  0.4825
14294TIP3    H164373   4.198   4.319  12.724 -0.8412  0.4903 -0.3560
14294TIP3    H264374   4.300   4.208  12.736  0.3742  1.6564  0.2861
14295TIP3   OH264375   5.853   5.262   5.249  0.1071 -0.0422 -0.5146
14295TIP3    H164376   5.891   5.215   5.175  3.3580  0.5734  0.5711
14295TIP3    H264377   5.841   5.195   5.317  1.6471  0.0857 -0.0708
14296TIP3   OH264378   2.813   5.341   0.670 -0.1454 -0.5814 -0.3857
14296TIP3    H164379   2.849   5.406   0.731  1.6620 -0.4686 -1.5172
14296TIP3    H264380   2.843   5.257   0.704  0.8412 -0.5205 -1.0792
14297TIP3   OH264381   6.436   1.629  11.605 -0.2362 -0.3449  0.4916
14297TIP3    H164382   6.451   1.723  11.618  2.8547 -0.5640 -0.4876
14297TIP3    H264383   6.450   1.616  11.511 -0.6038 -1.8065  0.6188
14298TIP3   OH264384   6.706   0.183   4.183 -0.2493 -0.0670 -0.0946
14298TIP3    H164385   6.669   0.099   4.156  0.3540 -0.5072  0.4393
14298TIP3    H264386   6.770   0.162   4.251 -0.5334  0.8778  0.4969
14299TIP3   OH264387   1.538   1.660  14.880  0.1534 -0.2581 -0.3028
14299TIP3    H164388   1.588   1.638  14.959 -0.5631  0.5654  0.4062
14299TIP3    H264389   1.512   1.575  14.843  1.8940 -0.6932 -0.5944
14300TIP3   OH264390   2.670   4.241  17.092 -0.5265 -0.3754  0.1769
14300TIP3    H164391   2.739   4.283  17.144 -0.8574  0.7408 -0.2706
14300TIP3    H264392   2.637   4.171  17.149  0.4099 -0.3956  0.7196
14301TIP3   OH264393   5.160   0.750  12.725 -0.0803  0.5494  0.1931
14301TIP3    H164394   5.136   0.709  12.642 -1.3732  0.2690  0.6853
14301TIP3    H264395   5.248   0.785  12.710 -1.1374  2.5436 -2.0532
14302TIP3   OH264396   0.337   1.400   1.588 -0.2656 -0.0001  0.5544
14302TIP3    H164397   0.274   1.386   1.659 -0.5249 -0.3805  0.2533
14302TIP3    H264398   0.306   1.344   1.517  0.3602 -0.1184  0.3654
14303TIP3   OH264399   6.202   2.534   2.575  0.4533  0.2475  0.6636
14303TIP3    H164400   6.274   2.582   2.615  0.3632 -0.2664  1.4733
14303TIP3    H264401   6.222   2.534   2.482  0.1222  2.3744  0.5661
14304TIP3   OH264402   4.125   5.978  15.031 -0.3871 -0.7060 -0.1728
14304TIP3    H164403   4.041   5.954  14.991  0.1622 -0.5538 -1.4513
14304TIP3    H264404   4.126   6.073  15.030 -0.2761 -0.7033  0.0399
14305TIP3   OH264405   5.384   3.862   6.122  0.7330  0.1564  0.1272
14305TIP3    H164406   5.435   3.784   6.102  0.2015 -0.1003 -0.2701
14305TIP3    H264407   5.360   3.897   6.036 -0.1199  0.0249  0.3020
14306TIP3   OH264408   3.943   6.551  12.150  0.4718 -0.0041 -0.1700
14306TIP3    H164409   3.936   6.639  12.113 -0.4346 -0.0084 -0.0419
14306TIP3    H264410   3.897   6.495  12.088 -0.9711 -0.0283  0.8738
14307TIP3   OH264411   2.716   0.755  11.502 -0.1353  0.2864  0.2592
14307TIP3    H164412   2.680   0.743  11.590 -0.5672 -0.2433  0.0175
14307TIP3    H264413   2.679   0.682  11.452  0.5493  0.2703 -0.2215
14308TIP3   OH264414   4.448   2.656  14.623  0.0422  0.1377 -0.1981
14308TIP3    H164415   4.379   2.718  14.646  0.7432  0.1697  2.0138
14308TIP3    H264416   4.529   2.697  14.653  0.9215 -0.4098 -1.7049
14309TIP3   OH264417   3.743   6.796  13.669 -0.4479 -0.4684 -0.1129
14309TIP3    H164418   3.756   6.740  13.745  1.7883  1.5582  1.1149
14309TIP3    H264419   3.648   6.810  13.666 -0.5540  0.2459  3.0062
14310TIP3   OH264420   3.136   5.300   5.226 -0.5771 -0.6925  0.3962
14310TIP3    H164421   3.134   5.336   5.137 -1.8184 -0.2813  0.5597
14310TIP3    H264422   3.229   5.288   5.246 -0.0158  2.6636  0.4022
14311TIP3   OH264423   2.539   6.323  14.451 -0.5107  0.1862 -0.1295
14311TIP3    H164424   2.570   6.412  14.438 -0.1002  0.0679  0.0133
14311TIP3    H264425   2.512   6.293  14.364 -2.6973  1.1814  0.1443
14312TIP3   OH264426   1.596   0.603  12.042  0.2433 -0.1637 -0.4482
14312TIP3    H164427   1.676   0.552  12.046  0.5265  0.3418  0.7850
14312TIP3    H264428   1.585   0.623  11.949  0.0869 -2.4629 -0.9909
14313TIP3   OH264429   6.049   4.197   4.763  0.0326  0.0805  0.0670
14313TIP3    H164430   5.991   4.268   4.790 -0.2279  0.4432 -1.3519
14313TIP3    H264431   6.024   4.123   4.819 -0.8988  0.6065  0.3741
14314TIP3   OH264432   5.899   3.722  16.895 -0.0480  0.0068 -0.3439
14314TIP3    H164433   5.942   3.759  16.818 -1.2059  0.7100 -0.6876
14314TIP3    H264434   5.949   3.756  16.969  1.3792 -1.0823 -0.7765
14315TIP3   OH264435   0.251   4.640  14.419  0.4273  0.0021  0.6031
14315TIP3    H164436   0.162   4.605  14.415  0.8410 -1.0022  0.0712
14315TIP3    H264437   0.264   4.681  14.333  0.8494 -0.7699  0.2969
14316TIP3   OH264438   0.057   2.971   2.575 -0.5660 -0.0375  0.7758
14316TIP3    H164439   0.118   3.023   2.523 -0.6168 -1.7644 -1.1662
14316TIP3    H264440  -0.028   3.014   2.563 -0.9082 -1.2459 -2.0717
14317TIP3   OH264441   1.444   5.325   3.395  0.0177  0.3093 -0.0195
14317TIP3    H164442   1.517   5.271   3.425  0.4301  1.2822  0.7901
14317TIP3    H264443   1.379   5.318   3.465  0.3801  1.4204  0.4621
14318TIP3   OH264444   1.762   2.244  15.638 -0.4489  0.6803  0.0355
14318TIP3    H164445   1.818   2.289  15.701  1.4896 -1.2709 -0.2027
14318TIP3    H264446   1.693   2.205  15.692  0.1250  0.6025  0.7337
14319TIP3   OH264447   6.583   3.528   4.401  0.7558  0.0514 -0.2963
14319TIP3    H164448   6.538   3.479   4.469  2.2078 -0.0239  0.6623
14319TIP3    H264449   6.660   3.475   4.380  0.5452  0.2710 -1.7143
14320TIP3   OH264450   2.791   4.421  15.848  0.2283 -0.0208  0.3921
14320TIP3    H164451   2.834   4.378  15.773 -0.5092 -0.7745  0.3902
14320TIP3    H264452   2.862   4.431  15.912  0.5395 -0.7979  0.1952
14321TIP3   OH264453   2.553   6.618  15.702 -0.3289 -0.1181 -0.4334
14321TIP3    H164454   2.603   6.699  15.714  1.7110 -1.6274  2.6301
14321TIP3    H264455   2.583   6.583  15.618  1.6102  0.4655 -0.0216
14322TIP3   OH264456   2.683   5.307   6.659  0.5668  0.5319 -0.3749
14322TIP3    H164457   2.666   5.221   6.623  1.5778 -0.9323  2.3255
14322TIP3    H264458   2.778   5.312   6.666  0.4915  1.5251  0.2427
14323TIP3   OH264459   1.881   1.375  12.907 -0.0361  0.2526  0.2377
14323TIP3    H164460   1.879   1.458  12.859  1.7535  0.1896 -0.0134
14323TIP3    H264461   1.868   1.399  12.999  0.7775  0.8645  0.2024
14324TIP3   OH264462   3.900   5.454  14.431  0.0591  0.2780 -0.0068
14324TIP3    H164463   3.904   5.546  14.405 -0.8935  0.9904  2.0936
14324TIP3    H264464   3.816   5.446  14.476  0.1358 -1.6340 -0.1357
14325TIP3   OH264465   5.315   1.576   1.904  0.4147 -0.2109 -0.6655
14325TIP3    H164466   5.343   1.661   1.871  0.2895 -0.0236 -0.2982
14325TIP3    H264467   5.389   1.545   1.956  1.1647 -1.1285 -2.2057
14326TIP3   OH264468   4.988   0.731   4.287  0.5513 -0.0852 -0.4433
14326TIP3    H164469   4.928   0.687   4.348 -1.3697  3.3119  0.3381
14326TIP3    H264470   5.056   0.769   4.343  0.2822  0.7845 -0.6919
14327TIP3   OH264471   3.139   4.971  16.626  0.0088 -0.0013 -0.3578
14327TIP3    H164472   3.219   5.014  16.594  0.1761 -1.4172 -1.9866
14327TIP3    H264473   3.069   5.032  16.605  0.5372  0.7626  0.0558
14328TIP3   OH264474   2.569   5.554   1.399 -0.9415  0.4165 -0.0755
14328TIP3    H164475   2.603   5.644   1.402 -0.1401  0.1039  1.2209
14328TIP3    H264476   2.560   5.535   1.306 -0.5795  1.6478 -0.3862
14329TIP3   OH264477   4.102   3.941  17.149  0.5243 -0.1216 -0.0846
14329TIP3    H164478   4.128   3.953  17.240  0.5039 -0.2873 -0.0573
14329TIP3    H264479   4.122   3.850  17.130  0.3194 -0.1481 -0.1797
14330TIP3   OH264480   6.184   4.347  13.272  0.1144 -0.3883 -0.8040
14330TIP3    H164481   6.205   4.439  13.288  0.1807 -0.6191  0.5782
14330TIP3    H264482   6.131   4.348  13.193  0.8424  0.7440 -1.3003
14331TIP3   OH264483   3.337   0.440   2.909 -0.4409 -0.0031 -0.1140
14331TIP3    H164484   3.283   0.419   2.833 -1.4099  0.7951  0.3443
14331TIP3    H264485   3.427   0.427   2.878 -0.8259  0.1408 -1.3450
14332TIP3   OH264486   4.351   0.750  13.590 -0.3447 -0.3731 -0.5268
14332TIP3    H164487   4.410   0.816  13.628 -1.3283  0.3697 -0.2603
14332TIP3    H264488   4.362   0.673  13.645 -3.0121  1.1823  2.5134
14333TIP3   OH264489   6.754   3.612   0.634 -0.0089 -0.1973 -0.1884
14333TIP3    H164490   6.798   3.577   0.712 -0.6265  0.9742  0.7235
14333TIP3    H264491   6.665   3.576   0.638  0.4224 -1.4792 -1.2960
14334TIP3   OH264492   2.278   5.239   0.374  0.3445  0.7144  0.0847
14334TIP3    H164493   2.284   5.244   0.279  0.7765 -0.4827  0.0408
14334TIP3    H264494   2.298   5.148   0.395 -0.4944  0.7850  1.2742
14335TIP3   OH264495   2.481   4.358   3.309  0.6506 -0.5250  0.0662
14335TIP3    H164496   2.492   4.323   3.221  0.6176  0.7458 -0.4589
14335TIP3    H264497   2.431   4.291   3.355  0.9232 -1.3368 -0.7854
14336TIP3   OH264498   1.482   6.817   2.484  0.3173 -0.0602 -0.0522
14336TIP3    H164499   1.531   6.893   2.453 -1.5552  1.0336 -0.5127
14336TIP3    H264500   1.516   6.744   2.433 -1.4165  1.3795 -3.6115
14337TIP3   OH264501   2.590   5.420   5.355  0.5222  0.1737  0.0559
14337TIP3    H164502   2.646   5.432   5.278 -0.5413 -1.1472 -0.9929
14337TIP3    H264503   2.636   5.355   5.408 -0.0554 -1.0988 -0.9240
14338TIP3   OH264504   6.752   3.254  12.248  0.1821  0.6930  0.3393
14338TIP3    H164505   6.722   3.210  12.328  0.7317  1.3223  0.9092
14338TIP3    H264506   6.755   3.184  12.182  2.6460 -0.5896  1.6178
14339TIP3   OH264507   6.028   2.615   5.309 -0.1275  0.0619 -0.1012
14339TIP3    H164508   5.992   2.567   5.235 -0.1115 -0.0829 -0.0155
14339TIP3    H264509   6.093   2.674   5.270  1.1229 -1.2152 -0.0290
14340TIP3   OH264510   6.221   4.207  16.547  0.7765  0.0976  0.1198
14340TIP3    H164511   6.171   4.193  16.627 -0.2880 -0.4049 -0.6144
14340TIP3    H264512   6.189   4.290  16.513  0.4534 -0.2101 -0.3359
14341TIP3   OH264513   2.173   6.077  16.045  0.2636 -0.2050  0.0475
14341TIP3    H164514   2.128   5.994  16.035  1.0897 -0.5440 -1.0239
14341TIP3    H264515   2.184   6.087  16.140  0.7410 -1.6380  0.1642
14342TIP3   OH264516   5.687   0.251  11.577 -0.1199  0.2948  0.0496
14342TIP3    H164517   5.645   0.337  11.572 -1.4626 -0.3734 -0.7076
14342TIP3    H264518   5.667   0.219  11.665 -0.2871  0.4360  0.0633
14343TIP3   OH264519   6.254   3.965   3.196  0.0681  0.1942 -0.4019
14343TIP3    H164520   6.225   3.958   3.287 -0.3661 -1.6654 -0.6467
14343TIP3    H264521   6.311   4.042   3.195 -0.9427  1.0227  1.1461
14344TIP3   OH264522   6.074   6.199   3.903 -0.2957 -0.3325  0.3577
14344TIP3    H164523   5.999   6.233   3.854  0.6313  0.8578 -0.2945
14344TIP3    H264524   6.049   6.210   3.995  0.0107  2.4287  0.1995
14345TIP3   OH264525   1.008   6.792  12.808 -0.2437 -0.1166  0.2967
14345TIP3    H164526   0.935   6.734  12.788 -0.1810 -0.3078  0.6210
14345TIP3    H264527   1.041   6.819  12.722 -0.8805  0.2105  0.1489
14346TIP3   OH264528   0.048   6.653   0.756 -0.1425 -0.0282 -0.2254
14346TIP3    H164529   0.071   6.627   0.845  0.0392 -3.0482 -1.0327
14346TIP3    H264530   0.130   6.646   0.707 -0.2822  1.4010 -0.6997
14347TIP3   OH264531   5.923   1.998   4.488 -0.2716  0.0970  0.0918
14347TIP3    H164532   5.854   2.062   4.505 -0.5886 -0.6583  1.8859
14347TIP3    H264533   5.983   2.006   4.562  1.7719  0.9095 -1.5606
14348TIP3   OH264534   0.601   0.501   5.992  0.1552  0.1276 -0.8624
14348TIP3    H164535   0.620   0.415   5.957  0.2452  0.5559 -1.8916
14348TIP3    H264536   0.684   0.548   5.988 -0.2854  0.8583 -2.0799
14349TIP3   OH264537   3.355   6.693   3.658 -1.1832  0.1118  1.3950
14349TIP3    H164538   3.331   6.779   3.626  1.3039  0.8239  1.2492
14349TIP3    H264539   3.279   6.663   3.708 -1.7754  2.7621  2.1998
14350TIP3   OH264540   1.461   1.117   3.884 -0.5289 -0.0981 -0.1172
14350TIP3    H164541   1.371   1.123   3.854 -0.8793  0.7168  1.0102
14350TIP3    H264542   1.485   1.207   3.906 -0.2080 -0.5854  1.7014
14351TIP3   OH264543   2.997   2.688   4.780 -1.0512 -0.6243  0.1702
14351TIP3    H164544   3.002   2.778   4.812 -0.5152 -0.7464  0.4501
14351TIP3    H264545   2.997   2.635   4.859 -0.8471 -0.8895 -0.0058
14352TIP3   OH264546   4.977   1.137   5.080  0.3660  0.2256  0.3971
14352TIP3    H164547   4.886   1.118   5.106 -0.1498 -0.1078 -1.5151
14352TIP3    H264548   5.024   1.055   5.094  0.2833  0.2702  0.9683
14353TIP3   OH264549   4.710   3.219  13.293  0.1947 -0.3930  0.0578
14353TIP3    H164550   4.626   3.242  13.334 -0.6342  1.8897 -2.5597
14353TIP3    H264551   4.691   3.141  13.241 -0.0898 -0.4189  0.2005
14354TIP3   OH264552   2.392   1.192   4.031  0.1765 -1.1179  0.4539
14354TIP3    H164553   2.429   1.197   3.943 -1.8298 -1.2518 -0.4467
14354TIP3    H264554   2.380   1.283   4.057  1.6202 -1.0555  1.0152
14355TIP3   OH264555   4.448   5.087  12.472 -0.5188  0.6330 -0.5033
14355TIP3    H164556   4.388   5.155  12.502  0.2331  1.3316 -0.5826
14355TIP3    H264557   4.477   5.044  12.552 -2.7449 -1.1407 -0.5511
14356TIP3   OH264558   5.470   5.083  11.671 -0.1044 -0.0325  0.1659
14356TIP3    H164559   5.426   5.128  11.598  0.9603  0.4763 -0.1803
14356TIP3    H264560   5.518   5.012  11.629 -0.2788 -0.3489  0.4975
14357TIP3   OH264561   1.894   5.155  13.547 -0.0934 -0.0009 -0.0901
14357TIP3    H164562   1.846   5.086  13.592 -2.8656  1.9629  0.2335
14357TIP3    H264563   1.868   5.145  13.455  2.5121 -1.6163 -0.7515
14358TIP3   OH264564   1.304   3.425   2.374  0.3391 -0.5611  0.0334
14358TIP3    H164565   1.352   3.356   2.419  1.2652  0.2214  0.2988
14358TIP3    H264566   1.373   3.484   2.342 -0.4586  1.4018  1.7114
14359TIP3   OH264567   0.199   2.073  12.381  0.1392  0.3333  0.4514
14359TIP3    H164568   0.111   2.104  12.405 -0.5291 -0.0342 -1.3125
14359TIP3    H264569   0.256   2.148  12.397 -0.4006  0.4426  2.0280
14360TIP3   OH264570   0.613   6.734   3.545 -0.3910  0.0390 -0.4805
14360TIP3    H164571   0.564   6.652   3.545 -0.3522 -0.0604  2.2360
14360TIP3    H264572   0.679   6.724   3.614  2.4650  0.8010 -2.8817
14361TIP3   OH264573   2.318   2.489  15.262 -0.6336 -0.8032 -0.0123
14361TIP3    H164574   2.266   2.446  15.194  0.1108 -1.1202 -0.3916
14361TIP3    H264575   2.335   2.576  15.227 -2.1429 -0.1671  0.7566
14362TIP3   OH264576   5.085   6.218   0.884  0.1532  0.7201 -0.0340
14362TIP3    H164577   5.143   6.272   0.938  2.1739 -1.0649 -0.2832
14362TIP3    H264578   5.080   6.264   0.800 -1.2987  2.4293  0.9351
14363TIP3   OH264579   6.279   6.233   0.114 -0.2642  0.7304 -0.8440
14363TIP3    H164580   6.211   6.174   0.147  0.5575  0.7947  1.0789
14363TIP3    H264581   6.231   6.300   0.065 -1.8607  1.8424  2.0026
14364TIP3   OH264582   6.621   2.336  13.866 -0.1083 -0.2792  0.2162
14364TIP3    H164583   6.695   2.380  13.909  0.3283  1.0497 -1.7687
14364TIP3    H264584   6.546   2.394  13.882 -0.4087 -0.8351  0.8932
14365TIP3   OH264585   0.465   1.545   1.801  0.1192  0.2888  0.4235
14365TIP3    H164586   0.452   1.491   1.724  0.5290  0.7160  0.0522
14365TIP3    H264587   0.554   1.580   1.792  0.7965 -0.9429  1.8931
14366TIP3   OH264588   0.963   6.461   2.281  0.2242 -0.0278 -0.0800
14366TIP3    H164589   1.038   6.420   2.239 -0.3134 -0.7816 -0.3425
14366TIP3    H264590   0.888   6.433   2.229 -0.3044  0.1766  0.5482
14367TIP3   OH264591   2.119   2.659  13.791  0.1339  0.3496 -0.3244
14367TIP3    H164592   2.037   2.611  13.783  0.3962 -0.2807  0.6489
14367TIP3    H264593   2.136   2.691  13.702 -1.5722  1.2060 -0.3807
14368TIP3   OH264594   2.708   4.337   1.936 -0.5957  0.0021 -1.0032
14368TIP3    H164595   2.754   4.255   1.916 -0.5760 -0.0472 -0.7627
14368TIP3    H264596   2.619   4.322   1.905 -0.6169 -0.1484 -0.8728
14369TIP3   OH264597   0.317   1.753  10.596  0.4758  0.1165 -0.0614
14369TIP3    H164598   0.278   1.669  10.621 -0.0919  1.0008  2.3738
14369TIP3    H264599   0.257   1.819  10.631  1.3534  1.5451 -1.1243
14370TIP3   OH264600   4.699   1.290   4.058  0.0840 -0.4339  0.3005
14370TIP3    H164601   4.770   1.225   4.062  1.2372  0.8396  2.0088
14370TIP3    H264602   4.706   1.328   3.971  1.4204 -0.4551  0.3783
14371TIP3   OH264603   4.949   6.381   6.213  0.1464 -0.3349 -0.2645
14371TIP3    H164604   4.874   6.334   6.249  0.9813 -0.8024  0.9164
14371TIP3    H264605   4.975   6.441   6.282  2.3063 -1.8322  0.3314
14372TIP3   OH264606   2.205   5.008  11.392  0.4500 -0.3605 -0.3269
14372TIP3    H164607   2.205   5.023  11.297 -2.8810 -1.8901 -0.7290
14372TIP3    H264608   2.156   5.081  11.428 -0.4976 -1.0596 -0.1465
14373TIP3   OH264609   2.787   0.412   4.751  0.2586  0.4752  0.6969
14373TIP3    H164610   2.757   0.376   4.834 -0.2943 -0.4774  0.1008
14373TIP3    H264611   2.877   0.380   4.741  0.5777  1.1750  1.2495
14374TIP3   OH264612   4.607   6.047  14.742 -0.6071 -0.3011 -0.1640
14374TIP3    H164613   4.578   6.132  14.775  1.9930  0.7894 -0.4204
14374TIP3    H264614   4.636   6.000  14.820 -0.1760 -0.1557 -0.2366
14375TIP3   OH264615   2.477   1.000   1.055  0.0329 -0.4389  0.5286
14375TIP3    H164616   2.397   0.948   1.047 -0.1103 -0.4269  1.6274
14375TIP3    H264617   2.450   1.076   1.108  0.3771  0.4507 -0.5476
14376TIP3   OH264618   6.512   5.893   4.986 -0.0563 -0.1567  0.1362
14376TIP3    H164619   6.501   5.988   4.977 -0.0493 -0.1752 -0.0665
14376TIP3    H264620   6.431   5.864   5.028  0.5836  0.1490  1.6823
14377TIP3   OH264621   5.654   1.194  14.252 -0.1559  0.2501 -0.0125
14377TIP3    H164622   5.638   1.283  14.222  0.0523 -0.3307 -1.9483
14377TIP3    H264623   5.577   1.172  14.304 -1.9333  0.3376 -2.4596
14378TIP3   OH264624   6.666   5.301  12.374 -0.1319 -0.1843  0.4067
14378TIP3    H164625   6.589   5.295  12.430 -0.1642  1.6516  0.6123
14378TIP3    H264626   6.738   5.318  12.435 -0.1667  1.8413 -0.0413
14379TIP3   OH264627   3.587   6.484   1.340  0.1146  0.2473 -0.0580
14379TIP3    H164628   3.653   6.492   1.271  0.3898 -0.3064  0.1345
14379TIP3    H264629   3.637   6.488   1.422 -0.2057  0.8600  0.1151
14380TIP3   OH264630   5.627   1.432  11.710  0.0823 -0.2233 -0.8023
14380TIP3    H164631   5.589   1.514  11.678  0.6948 -0.0437 -1.0863
14380TIP3    H264632   5.717   1.433  11.678  1.1831  0.6029  2.0046
14381TIP3   OH264633   1.876   5.174  16.343  0.0344  0.1123  0.1001
14381TIP3    H164634   1.924   5.257  16.341  0.2723 -0.0395 -0.8045
14381TIP3    H264635   1.813   5.182  16.272 -0.9558  0.1083  0.9670
14382TIP3   OH264636   0.521   1.751  13.020 -0.0823 -0.8191  0.0395
14382TIP3    H164637   0.483   1.699  12.949  0.5440 -2.0924  0.6068
14382TIP3    H264638   0.457   1.821  13.036 -0.8882 -1.3406 -0.8187
14383TIP3   OH264639   3.074   6.443  12.263  0.4103 -0.4858  0.1062
14383TIP3    H164640   3.138   6.374  12.278  0.0559 -1.2886 -1.8668
14383TIP3    H264641   3.109   6.494  12.190 -0.2327  0.3158  0.3309
14384TIP3   OH264642   3.791   4.244  14.866 -0.3015  0.5269 -0.5121
14384TIP3    H164643   3.813   4.163  14.820 -0.5691  0.8145 -1.1705
14384TIP3    H264644   3.875   4.282  14.890 -0.1871 -0.2776  0.4073
14385TIP3   OH264645   0.037   0.447   4.824  0.4683 -0.5712  0.1420
14385TIP3    H164646   0.006   0.513   4.886 -0.3364 -0.4727 -0.3542
14385TIP3    H264647   0.028   0.364   4.871 -1.4127 -0.6487 -0.2767
14386TIP3   OH264648   4.118   1.932   1.088 -0.2145 -0.0683  0.0136
14386TIP3    H164649   4.154   1.974   1.166 -1.2452  1.4690 -0.2996
14386TIP3    H264650   4.046   1.878   1.120 -1.6382  1.7544  0.0221
14387TIP3   OH264651   5.266   5.236   0.542  0.6776 -0.3228 -0.2136
14387TIP3    H164652   5.345   5.213   0.591  0.9267 -1.2497 -1.0251
14387TIP3    H264653   5.231   5.312   0.588  1.1841 -0.8524  1.1002
14388TIP3   OH264654   0.802   5.883  13.295 -0.1407  0.4008  0.4919
14388TIP3    H164655   0.794   5.934  13.375  0.6544 -0.3003  1.0348
14388TIP3    H264656   0.787   5.946  13.225 -0.4364  1.1084  1.1752
14389TIP3   OH264657   0.670   4.257  12.471  0.0557  0.8313  0.2913
14389TIP3    H164658   0.599   4.313  12.439 -1.2326 -0.2533  1.1461
14389TIP3    H264659   0.742   4.317  12.489 -0.5184  1.9257 -0.9060
14390TIP3   OH264660   0.741   3.611   5.271  0.7157  0.1937  0.3204
14390TIP3    H164661   0.810   3.556   5.233  1.8015  1.8928 -0.2635
14390TIP3    H264662   0.763   3.700   5.244  0.4053  1.2694  3.2946
14391TIP3   OH264663   4.340   3.094   5.936 -0.0256 -0.1555  0.4837
14391TIP3    H164664   4.345   3.166   5.999  0.6322  0.7325 -0.5270
14391TIP3    H264665   4.373   3.018   5.982  2.9524  1.0033  0.4920
14392TIP3   OH264666   4.582   4.053  13.288 -0.2536  0.1519 -0.3528
14392TIP3    H164667   4.537   4.117  13.343 -2.3380 -1.0933 -0.5271
14392TIP3    H264668   4.521   3.980  13.280  0.6767 -0.4654 -2.8870
14393TIP3   OH264669   3.480   3.179   3.499 -0.4373  0.3504 -0.0951
14393TIP3    H164670   3.554   3.126   3.469  0.0487  0.7407  0.3899
14393TIP3    H264671   3.409   3.117   3.511 -0.8490  0.2228 -2.5628
14394TIP3   OH264672   1.327   2.892   1.893 -0.1800 -0.2308  0.1130
14394TIP3    H164673   1.278   2.845   1.824 -0.2626  0.9381 -0.6555
14394TIP3    H264674   1.299   2.983   1.884  1.4233  0.3083  0.2938
14395TIP3   OH264675   4.977   6.313  14.516  0.0693  0.3102  0.6632
14395TIP3    H164676   4.931   6.323  14.599  1.1877  1.8805  1.1326
14395TIP3    H264677   5.054   6.369  14.524 -0.7364  2.0440 -2.0993
14396TIP3   OH264678   5.750   0.926  14.918 -0.3603  0.5771  0.7450
14396TIP3    H164679   5.829   0.875  14.936 -2.0626 -1.4053  3.2991
14396TIP3    H264680   5.738   0.979  14.996 -2.2199 -0.1750  1.0181
14397TIP3   OH264681   4.996   0.521  12.256  0.4916  0.2031  0.0927
14397TIP3    H164682   4.936   0.596  12.257 -1.1387 -1.0634  0.0336
14397TIP3    H264683   4.959   0.460  12.193  1.8479 -0.6511  0.0697
14398TIP3   OH264684   5.864   2.221   3.343  0.2557  0.2310  0.5249
14398TIP3    H164685   5.811   2.279   3.288  1.2689  0.2399 -0.4754
14398TIP3    H264686   5.800   2.165   3.386 -0.6453  1.0682  0.3290
14399TIP3   OH264687   0.433   3.105  12.990  0.2544  0.2013  0.3247
14399TIP3    H164688   0.356   3.049  12.977  1.1477 -1.0026 -0.0304
14399TIP3    H264689   0.473   3.110  12.903  0.5935  0.7806  0.5116
14400TIP3   OH264690   1.085   2.975  14.542  0.0468  0.2337 -0.3708
14400TIP3    H164691   1.106   3.052  14.595  1.2759  0.1114 -0.6638
14400TIP3    H264692   1.020   3.006  14.479 -0.8713  0.5612  0.7145
14401TIP3   OH264693   1.956   5.907  12.725  0.3316  0.4485  0.1078
14401TIP3    H164694   2.035   5.961  12.720  0.4070  0.2782 -0.5781
14401TIP3    H264695   1.885   5.965  12.700  0.3320  0.4053  0.0049
14402TIP3   OH264696   1.442   4.299   0.838 -0.5248  0.1004  0.3403
14402TIP3    H164697   1.486   4.357   0.900  0.1898 -1.6972  1.6094
14402TIP3    H264698   1.508   4.234   0.814 -1.5386 -0.7325 -0.3093
14403TIP3   OH264699   5.611   2.400   5.612  0.0495 -0.4251  0.1344
14403TIP3    H164700   5.561   2.370   5.689 -0.1446 -1.1208 -0.2605
14403TIP3    H264701   5.576   2.349   5.539 -2.9344  3.2652 -1.3094
14404TIP3   OH264702   1.590   1.551  10.642 -0.5767 -0.2987 -0.0882
14404TIP3    H164703   1.654   1.481  10.634  1.1173  0.8684  2.0940
14404TIP3    H264704   1.638   1.631  10.618 -1.5659  0.4811  0.4349
14405TIP3   OH264705   5.082   4.479   5.438  0.5287  0.3626  0.0977
14405TIP3    H164706   5.009   4.503   5.381  1.0268  2.5429  0.2795
14405TIP3    H264707   5.154   4.458   5.378  0.1015 -0.7093 -0.0657
14406TIP3   OH264708   1.761   6.746   0.945 -0.8474 -0.1469 -0.6536
14406TIP3    H164709   1.671   6.764   0.970 -0.5183  0.3167  0.2775
14406TIP3    H264710   1.804   6.721   1.027 -0.0256  0.1162 -0.9850
14407TIP3   OH264711   5.493   4.390  11.509  0.1262  0.2434 -0.3418
14407TIP3    H164712   5.501   4.433  11.594  0.0868 -0.6439  0.1206
14407TIP3    H264713   5.438   4.314  11.526  2.0564 -1.2886 -0.6268
14408TIP3   OH264714   3.131   2.275   1.147  0.6165 -0.2612  0.2649
14408TIP3    H164715   3.055   2.217   1.138  1.8053 -1.9046  0.3957
14408TIP3    H264716   3.197   2.221   1.190  1.5721  1.4201  0.9921
14409TIP3   OH264717   3.664   0.214  13.506  0.2695 -0.2246 -0.3611
14409TIP3    H164718   3.648   0.289  13.563  2.5403 -0.2811  0.4547
14409TIP3    H264719   3.733   0.164  13.551 -0.1205 -1.9905 -1.6179
14410TIP3   OH264720   6.679   3.964   5.252  0.5659 -0.1864 -0.2475
14410TIP3    H164721   6.656   4.033   5.190  1.8045  1.1363  0.6958
14410TIP3    H264722   6.614   3.895   5.237 -0.0186  0.6927 -2.0000
14411TIP3   OH264723   0.434   0.819   6.374  0.9498  0.3046 -0.4282
14411TIP3    H164724   0.524   0.809   6.404  1.7437  2.6686 -1.7650
14411TIP3    H264725   0.424   0.756   6.303  2.2802  1.4314 -1.6669
14412TIP3   OH264726   5.403   0.128   3.841  0.0380  0.7441  0.0669
14412TIP3    H164727   5.325   0.073   3.833  0.1438  0.5556  0.3124
14412TIP3    H264728   5.369   0.214   3.864 -0.0476  0.4131  1.2597
14413TIP3   OH264729   4.541   5.492   6.055  0.2599 -0.0868  0.2769
14413TIP3    H164730   4.515   5.573   6.011  1.6089 -0.3830 -1.1639
14413TIP3    H264731   4.553   5.517   6.147  0.4756  1.3039 -0.1083
14414TIP3   OH264732   5.034   4.707  11.827  0.2123  0.7205 -0.7064
14414TIP3    H164733   4.944   4.721  11.799  0.1449  2.0081  0.0521
14414TIP3    H264734   5.083   4.781  11.790  0.7140  0.7111 -0.0905
14415TIP3   OH264735   2.576   6.626   5.059 -0.1260 -0.4889 -0.4437
14415TIP3    H164736   2.482   6.643   5.066 -0.0284 -0.2600  0.4852
14415TIP3    H264737   2.617   6.699   5.106  0.6029  0.3516 -2.2957
14416TIP3   OH264738   5.450   2.335   0.625  0.4801 -0.3234  0.1319
14416TIP3    H164739   5.358   2.351   0.602  0.8084 -0.3993 -1.3389
14416TIP3    H264740   5.493   2.419   0.609  1.4104 -1.2979 -3.4133
14417TIP3   OH264741   0.927   2.816  15.304  0.7508  0.3587  0.0471
14417TIP3    H164742   0.840   2.796  15.339  0.3190  0.8519 -0.7035
14417TIP3    H264743   0.910   2.880  15.235  1.7988  1.0475  0.4125
14418TIP3   OH264744   2.550   0.876   0.796 -0.2765  0.3952 -0.4868
14418TIP3    H164745   2.515   0.931   0.725  0.8292 -0.2778 -1.5896
14418TIP3    H264746   2.641   0.904   0.805  0.5413 -1.7031 -1.5867
14419TIP3   OH264747   6.542   3.052   4.675  0.0267 -0.1382 -0.0412
14419TIP3    H164748   6.548   3.051   4.771  0.7775  0.0165 -0.0824
14419TIP3    H264749   6.450   3.032   4.657 -0.0864 -0.3303  0.7075
14420TIP3   OH264750   0.566   5.953  14.625  0.8338  0.3026 -0.1286
14420TIP3    H164751   0.651   5.912  14.641 -0.1742 -1.2663  1.5522
14420TIP3    H264752   0.557   6.019  14.693  0.6569  0.3895 -0.2346
14421TIP3   OH264753   4.679   6.170  15.457 -0.0996 -0.0315  0.3726
14421TIP3    H164754   4.641   6.247  15.499  1.1398  0.2798  0.9345
14421TIP3    H264755   4.681   6.104  15.526 -1.0300 -0.5485 -0.0720
14422TIP3   OH264756   1.135   6.751   0.947  0.0867 -0.3931  0.0352
14422TIP3    H164757   1.169   6.688   1.010  0.5908 -1.0806 -0.8972
14422TIP3    H264758   1.040   6.743   0.953  0.1258 -0.4354  0.7092
14423TIP3   OH264759   2.054   4.253   3.337  0.4258  0.3034  0.0357
14423TIP3    H164760   2.065   4.344   3.365 -0.3867 -0.2870  2.5179
14423TIP3    H264761   2.133   4.235   3.285  0.4557  2.4730 -0.8095
14424TIP3   OH264762   0.260   4.420   5.294  0.1792 -0.2134  0.3652
14424TIP3    H164763   0.200   4.495   5.302 -0.4338 -0.8696  2.6084
14424TIP3    H264764   0.306   4.417   5.378  1.3172 -1.4483 -0.2718
14425TIP3   OH264765   3.670   3.290   5.269 -0.2964  0.3389 -0.0658
14425TIP3    H164766   3.654   3.211   5.319  1.0281 -0.1880 -0.4231
14425TIP3    H264767   3.627   3.360   5.319 -2.5566 -0.7458 -0.3854
14426TIP3   OH264768   1.629   3.423   0.069 -0.1263 -0.3480 -0.3916
14426TIP3    H164769   1.613   3.517   0.057  0.7813 -0.1744 -0.3156
14426TIP3    H264770   1.655   3.391  -0.017  1.3436 -0.1415 -0.0627
14427TIP3   OH264771   0.502   0.801  16.954 -0.0870 -0.2591 -0.0403
14427TIP3    H164772   0.481   0.712  16.982 -1.7331  0.3025  0.6082
14427TIP3    H264773   0.469   0.806  16.864  0.8926 -0.5842 -0.4324
14428TIP3   OH264774   4.966   5.891  14.039  0.3216  1.0076 -0.0289
14428TIP3    H164775   4.996   5.945  14.112 -3.3072 -1.7949  4.0498
14428TIP3    H264776   4.875   5.918  14.026 -0.4121 -1.4891 -0.4632
14429TIP3   OH264777   2.317   1.398  12.290 -0.0817 -0.0394  0.3948
14429TIP3    H164778   2.277   1.418  12.374  0.8062  0.8854  0.6165
14429TIP3    H264779   2.411   1.404  12.305  0.0859  1.1024 -0.8687
14430TIP3   OH264780   0.488   4.605   2.590  0.3083 -0.1145 -0.5416
14430TIP3    H164781   0.468   4.698   2.601 -2.3609 -0.5842 -0.5583
14430TIP3    H264782   0.420   4.574   2.530  2.4043 -1.6880 -2.2106
14431TIP3   OH264783   5.150   4.616  16.352 -0.4140 -0.1550  0.4570
14431TIP3    H164784   5.213   4.545  16.365 -0.7883 -0.4458  0.7348
14431TIP3    H264785   5.117   4.603  16.263 -0.8630 -0.6536  0.6879
14432TIP3   OH264786   4.891   1.904   4.809  0.5130 -0.3948 -0.0332
14432TIP3    H164787   4.904   1.866   4.896  0.8544  0.6935  0.4068
14432TIP3    H264788   4.976   1.942   4.787 -0.3591  2.0797  0.5285
14433TIP3   OH264789   6.533   6.789   5.817  0.4018 -0.9903  0.5554
14433TIP3    H164790   6.479   6.754   5.888  1.1286  0.4780  1.8903
14433TIP3    H264791   6.546   6.881   5.839  2.4944 -1.0089 -0.3001
14434TIP3   OH264792   6.655   5.858   4.329  0.2382  0.1572 -0.1700
14434TIP3    H164793   6.647   5.778   4.382  1.0724  0.3092  0.2028
14434TIP3    H264794   6.631   5.830   4.241 -0.7223 -0.2059  0.1898
14435TIP3   OH264795   0.460   5.338  14.876  0.0365 -0.3697 -0.2085
14435TIP3    H164796   0.453   5.299  14.963 -0.7942  2.5075  1.1308
14435TIP3    H264797   0.371   5.365  14.855  0.7503  2.1804 -0.2804
14436TIP3   OH264798   5.686   4.194  13.469 -0.0270  0.0692  0.0310
14436TIP3    H164799   5.625   4.124  13.491  0.1635  0.2726  1.2682
14436TIP3    H264800   5.735   4.210  13.550 -0.6738  2.2319  0.0668
14437TIP3   OH264801   2.849   4.369   5.333 -0.2659 -0.1588  0.0325
14437TIP3    H164802   2.801   4.380   5.251  0.0789  0.8743 -0.0411
14437TIP3    H264803   2.815   4.437   5.391 -0.6290 -0.9907  0.8171
14438TIP3   OH264804   6.089   4.155  16.781 -0.7506 -0.1246  0.1347
14438TIP3    H164805   6.133   4.091  16.838 -1.3514 -1.7142 -1.1046
14438TIP3    H264806   6.003   4.116  16.764 -1.5408  1.5504  0.1671
14439TIP3   OH264807   1.154   2.006   2.656 -0.3380  0.2782  0.1318
14439TIP3    H164808   1.125   1.988   2.567  0.2001 -0.0881  0.0236
14439TIP3    H264809   1.155   1.921   2.699  1.9624  0.0153 -0.3073
14440TIP3   OH264810   4.829   0.430  16.057  0.2322  0.0135 -0.2266
14440TIP3    H164811   4.817   0.340  16.027  0.3601 -0.4346  0.9774
14440TIP3    H264812   4.924   0.444  16.052  0.6318 -1.0460  2.4401
14441TIP3   OH264813   2.170   0.318   3.372  0.1126  0.0567 -0.0706
14441TIP3    H164814   2.131   0.336   3.457 -2.1884 -1.0451 -0.8250
14441TIP3    H264815   2.177   0.223   3.368 -0.9036  0.0061 -1.5157
14442TIP3   OH264816   5.839   6.578  14.224 -0.4823  0.6808 -0.2670
14442TIP3    H164817   5.815   6.512  14.159 -0.8330  0.9301 -0.3869
14442TIP3    H264818   5.905   6.534  14.279  0.6199  0.8293 -1.4352
14443TIP3   OH264819   4.330   6.192  12.358  0.6548  0.5247 -0.6897
14443TIP3    H164820   4.372   6.217  12.440 -0.3266 -1.6085  0.5276
14443TIP3    H264821   4.403   6.162  12.302  1.1099 -0.0419  0.1916
14444TIP3   OH264822   2.387   0.099  15.822  0.5484  0.6935 -0.2446
14444TIP3    H164823   2.333   0.051  15.885  0.5650  0.9724 -0.0145
14444TIP3    H264824   2.326   0.123  15.752  0.0577  2.1824  0.6557
14445TIP3   OH264825   4.715   5.364  12.367  0.2743 -0.1833  0.1220
14445TIP3    H164826   4.808   5.380  12.383  0.4093  0.5263 -1.2501
14445TIP3    H264827   4.705   5.269  12.373  0.7906 -0.1620  1.6872
14446TIP3   OH264828   1.338   5.545   2.531 -0.0388  0.1626  0.3036
14446TIP3    H164829   1.373   5.475   2.585  1.1271 -0.7896 -1.5906
14446TIP3    H264830   1.364   5.626   2.576  2.6661 -0.5484  0.1958
14447TIP3   OH264831   1.859   0.094  13.294  0.6799 -0.1202  0.0990
14447TIP3    H164832   1.944   0.100  13.250  0.3736 -0.6665 -0.5968
14447TIP3    H264833   1.841   0.000  13.298 -0.7401  0.0315 -1.4924
14448TIP3   OH264834   2.057   0.792   3.433 -0.2579 -0.4006  0.1113
14448TIP3    H164835   2.019   0.784   3.345  0.9595  0.9959 -0.5915
14448TIP3    H264836   1.994   0.748   3.490 -0.7062 -2.0461 -1.5434
14449TIP3   OH264837   0.085   6.527   0.266  0.4415  0.3250  0.4252
14449TIP3    H164838   0.107   6.613   0.302  0.5276  0.1876  0.7019
14449TIP3    H264839   0.168   6.491   0.236  0.4174  0.3073  0.3800
14450TIP3   OH264840   6.509   5.220  15.866 -0.3733  0.4426  0.1679
14450TIP3    H164841   6.478   5.129  15.859 -1.8333  0.8717  0.5549
14450TIP3    H264842   6.586   5.223  15.810  1.0118 -1.5527  1.7790
14451TIP3   OH264843   0.918   3.876  16.544 -0.5375 -0.1992 -0.0854
14451TIP3    H164844   0.955   3.907  16.627  0.3174 -1.5423  0.0653
14451TIP3    H264845   0.833   3.919  16.538 -0.1032  0.8395  0.9055
14452TIP3   OH264846   2.030   1.343   5.969  0.2605 -0.2838 -0.2971
14452TIP3    H164847   2.056   1.364   5.880 -1.9640  1.5900 -0.5752
14452TIP3    H264848   2.105   1.369   6.023  0.8721  0.3876 -1.4423
14453TIP3   OH264849   5.119   3.972  11.267 -0.0063 -0.0017  0.4134
14453TIP3    H164850   5.096   3.897  11.323  0.6796 -1.2453 -0.8847
14453TIP3    H264851   5.213   3.984  11.280 -0.1984  0.9684  0.9758
14454TIP3   OH264852   3.474   5.074   6.871 -0.5107 -0.1023 -0.1652
14454TIP3    H164853   3.549   5.108   6.822 -0.0060 -0.1995  0.5223
14454TIP3    H264854   3.497   4.983   6.891 -0.5146  0.0587  0.6096
14455TIP3   OH264855   3.224   1.226   5.860  0.0023  0.4317  0.4391
14455TIP3    H164856   3.158   1.166   5.825 -1.1083  1.8935 -0.1065
14455TIP3    H264857   3.206   1.229   5.954  1.2896 -1.4780  0.8031
14456TIP3   OH264858   0.731   5.146  16.902 -0.3603  0.2152  0.5051
14456TIP3    H164859   0.725   5.232  16.862  0.7451 -0.3930 -1.0623
14456TIP3    H264860   0.818   5.144  16.942 -0.3943 -0.1427  0.5660
14457TIP3   OH264861   1.002   2.190  14.597  0.0014  0.1686  0.4672
14457TIP3    H164862   0.919   2.175  14.551  0.7275  1.1212 -1.2217
14457TIP3    H264863   1.055   2.113  14.578 -1.1234 -1.4194  3.2074
14458TIP3   OH264864   6.740   4.681   1.117  0.1298  0.0584 -0.3998
14458TIP3    H164865   6.815   4.658   1.063  1.7126 -0.4515  1.8984
14458TIP3    H264866   6.751   4.775   1.136  1.5622 -0.4785  1.8098
14459TIP3   OH264867   0.717   0.913   6.000  0.5116 -0.8988 -0.3019
14459TIP3    H164868   0.756   0.828   5.981  0.9696 -0.7379 -0.0949
14459TIP3    H264869   0.791   0.968   6.026  0.0395 -0.8409  0.9701
14460TIP3   OH264870   0.766   1.692   3.303 -0.3137  0.2834 -0.2059
14460TIP3    H164871   0.768   1.706   3.208 -0.0254 -0.4991 -0.3209
14460TIP3    H264872   0.819   1.764   3.339  0.1957  0.1594 -0.6921
14461TIP3   OH264873   0.040   4.017  15.832 -0.1488 -0.1742 -0.1500
14461TIP3    H164874  -0.020   4.051  15.765  0.8026  1.4014 -0.2641
14461TIP3    H264875   0.065   3.930  15.800 -1.4355 -0.3556 -0.6980
14462TIP3   OH264876   4.495   1.739   5.423  0.1694  0.1654  0.2864
14462TIP3    H164877   4.581   1.770   5.453  0.4089 -0.7561  0.5639
14462TIP3    H264878   4.466   1.678   5.491  0.8025 -2.1224 -1.3700
14463TIP3   OH264879   4.506   4.199  16.600 -0.0949  0.1916  0.3245
14463TIP3    H164880   4.601   4.201  16.612  0.1275 -1.6587 -0.7582
14463TIP3    H264881   4.492   4.135  16.531 -2.2308 -0.5534  1.3580
14464TIP3   OH264882   6.599   0.744   3.693 -0.2026  0.4268 -0.5058
14464TIP3    H164883   6.664   0.809   3.720  1.7661 -1.3276 -0.7829
14464TIP3    H264884   6.594   0.753   3.598  1.9843 -1.4279 -0.8615
14465TIP3   OH264885   0.022   0.282  11.976  0.4634 -0.4334  0.6785
14465TIP3    H164886   0.052   0.276  11.885  0.6539 -2.8422  0.8440
14465TIP3    H264887  -0.070   0.258  11.973  1.2087 -3.9494  1.4108
14466TIP3   OH264888   6.425   5.007   5.297 -0.1305 -0.3784 -0.4932
14466TIP3    H164889   6.477   4.969   5.367 -0.8306  1.5071  1.1717
14466TIP3    H264890   6.339   4.965   5.305 -0.0405 -0.5881 -0.6173
14467TIP3   OH264891   2.761   4.772  15.329  0.2904 -0.4283 -0.1989
14467TIP3    H164892   2.772   4.715  15.253  2.3630  0.5016 -0.6749
14467TIP3    H264893   2.815   4.849  15.309 -1.9131  1.4850  0.6690
14468TIP3   OH264894   3.096   0.627   3.586  0.7146  0.0990  0.3677
14468TIP3    H164895   3.178   0.610   3.632  0.3397  0.3634  1.1562
14468TIP3    H264896   3.123   0.647   3.496  1.4877 -0.1180  0.5408
14469TIP3   OH264897   1.452   0.077  10.493  0.3182 -0.0009 -0.5943
14469TIP3    H164898   1.478   0.115  10.408  1.6349 -0.6421 -0.5058
14469TIP3    H264899   1.522   0.016  10.514 -0.4467 -0.5149  0.5445
14470TIP3   OH264900   2.556   4.012   0.593 -0.0314 -0.3858 -0.1128
14470TIP3    H164901   2.601   4.069   0.655 -3.0359  0.2743  1.6833
14470TIP3    H264902   2.625   3.980   0.535  2.3742  1.9566  1.2313
14471TIP3   OH264903   5.811   1.196   3.511  0.4053  0.0063  0.5424
14471TIP3    H164904   5.787   1.147   3.432 -1.7169 -0.6636  1.5166
14471TIP3    H264905   5.746   1.266   3.517  0.9272  0.4384  1.3611
14472TIP3   OH264906   0.336   0.794   4.553  0.2875  0.2122 -0.5635
14472TIP3    H164907   0.265   0.831   4.500  0.8877  1.2552 -0.6764
14472TIP3    H264908   0.340   0.702   4.527 -2.0741 -0.2846  0.6210
14473TIP3   OH264909   2.079   4.253  13.027 -0.3140  0.1020  0.3085
14473TIP3    H164910   2.081   4.254  13.123  0.4878  2.5797  0.3361
14473TIP3    H264911   2.170   4.267  13.001 -0.3682 -1.5155 -0.8586
14474TIP3   OH264912   2.924   5.014  15.343  0.1917  0.3369  0.2191
14474TIP3    H164913   3.003   5.027  15.291 -0.2998  1.2969 -0.3142
14474TIP3    H264914   2.896   5.102  15.366 -1.1494  0.0451 -0.2439
14475TIP3   OH264915   1.781   0.139   0.814  0.0403 -0.4828 -0.3250
14475TIP3    H164916   1.709   0.188   0.774 -0.4096 -0.7313  0.1684
14475TIP3    H264917   1.742   0.056   0.841  0.5575 -0.7002 -0.2240
14476TIP3   OH264918   0.579   6.124   1.287  0.2130 -0.3551  0.3893
14476TIP3    H164919   0.608   6.214   1.273  1.0161 -0.8160 -1.1250
14476TIP3    H264920   0.490   6.122   1.251 -0.4682  0.2256  1.9685
14477TIP3   OH264921   0.918   3.749  14.266 -0.0355 -0.3336  0.5615
14477TIP3    H164922   0.858   3.771  14.337 -0.5186  0.2037 -0.0041
14477TIP3    H264923   0.919   3.826  14.210  0.7066 -0.5713  0.2324
14478TIP3   OH264924   0.855   6.119  13.117  0.6310 -0.9742  0.2468
14478TIP3    H164925   0.799   6.135  13.041  1.1268 -0.7893 -0.0887
14478TIP3    H264926   0.907   6.043  13.092  1.1989 -0.5629  0.1705
14479TIP3   OH264927   6.804   6.793  11.855 -0.7950 -0.1532 -0.8062
14479TIP3    H164928   6.716   6.828  11.862 -0.5373  0.5967 -1.1656
14479TIP3    H264929   6.831   6.778  11.946 -1.1390  0.0084 -0.6751
14480TIP3   OH264930   3.663   1.464  16.223 -0.6127 -0.4212 -0.4055
14480TIP3    H164931   3.569   1.457  16.204 -0.8117  0.3478  0.2321
14480TIP3    H264932   3.683   1.386  16.274 -0.7506 -0.9200 -1.0909
14481TIP3   OH264933   4.838   0.757   2.654 -0.3098  0.4630 -0.5735
14481TIP3    H164934   4.776   0.749   2.580  0.5463  0.6457 -1.3296
14481TIP3    H264935   4.839   0.851   2.673 -1.2653  0.3109  0.3402
14482TIP3   OH264936   0.742   3.525  13.231 -0.1067  0.4728  0.0316
14482TIP3    H164937   0.680   3.598  13.229 -1.5101 -0.6841 -1.3118
14482TIP3    H264938   0.687   3.446  13.225  1.3372 -0.7538  1.5907
14483TIP3   OH264939   1.679   1.812  14.347  0.0111 -0.6732  0.1338
14483TIP3    H164940   1.729   1.789  14.425 -0.7728 -1.7948  0.3247
14483TIP3    H264941   1.645   1.729  14.314 -0.4278 -0.1108 -0.8880
14484TIP3   OH264942   0.682   6.408   6.248  0.2580  0.1671  0.0192
14484TIP3    H164943   0.653   6.481   6.302 -1.0875 -1.6306  1.8823
14484TIP3    H264944   0.763   6.438   6.208  0.3578  2.2437  1.6351
14485TIP3   OH264945   0.785   6.466   1.894  0.0735 -0.1513  0.0058
14485TIP3    H164946   0.704   6.489   1.848 -1.1650 -1.6176  1.3296
14485TIP3    H264947   0.807   6.544   1.944  0.5113  0.8760 -1.7046
14486TIP3   OH264948   5.313   4.132   5.584  0.7623  0.1779 -0.0020
14486TIP3    H164949   5.265   4.079   5.520  2.0836 -0.3122 -0.6240
14486TIP3    H264950   5.257   4.131   5.662  1.1911 -3.1099  0.4228
14487TIP3   OH264951   1.288   1.413   2.249 -0.0343  0.2230  0.4227
14487TIP3    H164952   1.193   1.414   2.255  0.0066  1.6538  1.4255
14487TIP3    H264953   1.309   1.466   2.172 -0.0522 -1.6381 -0.9339
14488TIP3   OH264954   6.077   0.391  13.913 -0.1818 -0.8383  0.2252
14488TIP3    H164955   6.124   0.332  13.855  1.5658  0.3572  0.3693
14488TIP3    H264956   6.011   0.432  13.857  0.2989 -1.0118 -0.4803
14489TIP3   OH264957   5.835   1.468  16.321  0.4351  0.4766 -0.7346
14489TIP3    H164958   5.915   1.428  16.357 -0.7002 -0.4474  0.8849
14489TIP3    H264959   5.836   1.558  16.354  0.2786  0.1510  0.1648
14490TIP3   OH264960   4.218   4.355  15.096  0.1424  0.3032  0.5456
14490TIP3    H164961   4.259   4.288  15.041 -0.0743 -0.4286  1.2450
14490TIP3    H264962   4.164   4.305  15.158  1.0313  1.0461  1.9644
14491TIP3   OH264963   0.847   3.391   3.275 -0.0916 -0.0944 -0.3851
14491TIP3    H164964   0.884   3.305   3.252  0.4633 -0.6327  2.2153
14491TIP3    H264965   0.782   3.372   3.343  1.4230  1.6483  1.6906
14492TIP3   OH264966   6.322   0.813  13.945 -0.4365  0.2524 -0.4610
14492TIP3    H164967   6.280   0.737  13.986  2.1803 -0.8528  0.3865
14492TIP3    H264968   6.368   0.777  13.869  2.5374  0.4359  1.0848
14493TIP3   OH264969   4.782   2.214  15.947 -0.3997 -0.5405  0.5868
14493TIP3    H164970   4.743   2.286  15.997 -0.5890  0.5678 -1.0816
14493TIP3    H264971   4.767   2.137  16.001 -0.7802  0.5675  2.1299
14494TIP3   OH264972   4.846   1.979  13.939 -0.1607  0.1807  0.4318
14494TIP3    H164973   4.883   1.978  13.851  1.0978 -1.0918  0.9418
14494TIP3    H264974   4.843   2.072  13.962  1.9807  0.3977  0.0432
14495TIP3   OH264975   4.984   4.337  14.911  0.6047  0.1040  0.4589
14495TIP3    H164976   4.998   4.424  14.874 -1.5797  0.5571  0.5738
14495TIP3    H264977   4.991   4.278  14.836 -0.2644  0.6501 -0.0719
14496TIP3   OH264978   2.978   4.657   1.645 -0.3059  0.2324  0.1536
14496TIP3    H164979   2.898   4.606   1.658  0.7431 -1.6958 -0.5141
14496TIP3    H264980   2.993   4.656   1.550  1.4990 -1.1391  0.3927
14497TIP3   OH264981   1.634   1.212   2.006 -0.1438 -0.3657 -0.0560
14497TIP3    H164982   1.643   1.118   1.989  0.2247 -0.5392  1.0326
14497TIP3    H264983   1.709   1.252   1.962  0.3269 -0.7096  0.4213
14498TIP3   OH264984   0.507   4.038  15.424  0.7299 -0.7286 -0.3798
14498TIP3    H164985   0.602   4.035  15.410  0.6458 -2.3862 -0.8593
14498TIP3    H264986   0.471   3.989  15.350 -0.4016 -1.2367  0.4863
14499TIP3   OH264987   2.927   3.273   2.713  0.4252 -0.4308 -0.2604
14499TIP3    H164988   2.987   3.254   2.641 -1.1985 -2.0646 -1.2827
14499TIP3    H264989   2.860   3.329   2.674 -0.2450 -0.9967  0.0507
14500TIP3   OH264990   0.243   5.463   1.195 -0.4228 -0.8787 -0.4573
14500TIP3    H164991   0.302   5.445   1.268 -0.5700  0.0948 -0.0801
14500TIP3    H264992   0.299   5.462   1.117  0.7369  2.7543  0.1259
14501TIP3   OH264993   4.586   5.693  15.886 -0.6136  0.7177  0.1037
14501TIP3    H164994   4.638   5.670  15.809 -0.3104  1.2267  0.1468
14501TIP3    H264995   4.514   5.631  15.886  0.1299 -0.1766  0.1838
14502TIP3   OH264996   5.026   2.799   1.697 -0.2176 -0.3203 -0.2998
14502TIP3    H164997   5.115   2.801   1.732  0.3975 -1.1726 -1.7226
14502TIP3    H264998   4.987   2.881   1.727  0.7602 -0.3240  1.0570
14503TIP3   OH264999   1.915   5.536   3.952 -0.4628  0.8944 -0.3605
14503TIP3    H165000   1.961   5.454   3.932  0.9286  1.4926  0.2487
14503TIP3    H265001   1.841   5.509   4.007  1.4154  0.1966  2.0426
14504TIP3   OH265002   4.146   2.163  10.757  0.9384  0.0904  0.0781
14504TIP3    H165003   4.087   2.092  10.731 -2.6569  1.8578  2.5595
14504TIP3    H265004   4.125   2.234  10.696  1.5592  0.3147  0.1217
14505TIP3   OH265005   4.355   3.743  16.964 -0.3429 -0.1870  0.0588
14505TIP3    H165006   4.331   3.828  17.001 -0.6233 -0.2760  0.0891
14505TIP3    H265007   4.335   3.751  16.871  1.3220  0.3769 -0.2661
14506TIP3   OH265008   4.391   4.661   3.202  0.2615  0.5948  0.5847
14506TIP3    H165009   4.425   4.601   3.136  0.0386 -0.4320  1.3812
14506TIP3    H265010   4.297   4.667   3.184  0.0237 -0.4806  1.4076
14507TIP3   OH265011   4.571   3.427  13.111  0.0395  0.6626  0.0489
14507TIP3    H165012   4.614   3.346  13.138 -2.1063 -0.3348  0.7076
14507TIP3    H265013   4.481   3.418  13.141 -1.0907  1.9449 -2.5493
14508TIP3   OH265014   1.773   4.340   1.237  0.7890  0.3993  0.7468
14508TIP3    H165015   1.849   4.300   1.280  0.6137  0.2685  0.9338
14508TIP3    H265016   1.708   4.347   1.306  0.1223 -0.7922  0.2694
14509TIP3   OH265017   3.390   2.325  12.904 -0.1825 -0.4673 -0.2026
14509TIP3    H165018   3.483   2.345  12.900 -0.3497  0.7989  1.2067
14509TIP3    H265019   3.347   2.410  12.897 -1.2003 -0.9546 -0.0691
14510TIP3   OH265020   2.547   5.992   5.287 -0.4041  0.6436 -0.2846
14510TIP3    H165021   2.613   5.925   5.270 -2.3404 -1.5359  0.3502
14510TIP3    H265022   2.477   5.974   5.224 -1.3495  1.5107  0.4801
14511TIP3   OH265023   2.903   0.322   2.623  0.3563  0.8723 -0.3189
14511TIP3    H165024   2.834   0.272   2.579  0.5575  0.5054 -0.2195
14511TIP3    H265025   2.887   0.307   2.716  0.5330  0.8354 -0.2944
14512TIP3   OH265026   3.006   4.133   2.853  0.2679  0.0137 -0.1483
14512TIP3    H165027   2.941   4.196   2.822  1.1159  0.9689 -0.0434
14512TIP3    H265028   3.006   4.143   2.948  0.6210  0.0784 -0.1541
14513TIP3   OH265029   6.291   4.947   0.527  0.2397  0.2594  0.0548
14513TIP3    H165030   6.235   4.910   0.458  0.7273  0.1285 -0.2822
14513TIP3    H265031   6.349   5.008   0.480  0.3829  0.3883  0.3966
14514TIP3   OH265032   2.664   1.798  16.494 -0.3159  0.2961  0.0699
14514TIP3    H165033   2.659   1.792  16.399 -1.0330  1.1286  0.0332
14514TIP3    H265034   2.645   1.890  16.513  2.4546  0.8017  0.8812
14515TIP3   OH265035   4.514   0.981  13.626 -0.4667 -0.0717  0.3496
14515TIP3    H165036   4.567   1.004  13.549  0.8857 -0.2089  1.2004
14515TIP3    H265037   4.569   1.006  13.701 -1.2296 -1.0625  1.2733
14516TIP3   OH265038   5.585   0.922   0.140  0.0084 -0.2790  0.9194
14516TIP3    H165039   5.619   0.912   0.229  1.3198  0.9419  0.5989
14516TIP3    H265040   5.588   1.017   0.124  0.1951 -0.5114 -0.5675
14517TIP3   OH265041   6.496   3.723  16.297  0.1367  0.0011  0.3397
14517TIP3    H165042   6.567   3.780  16.326 -0.1643 -0.4945  2.2211
14517TIP3    H265043   6.421   3.782  16.284  0.4959  0.3386 -0.2466
14518TIP3   OH265044   0.445   1.808   0.554 -0.4109  0.0573 -0.2197
14518TIP3    H165045   0.458   1.724   0.597 -1.0408 -0.7346 -1.5188
14518TIP3    H265046   0.414   1.786   0.466 -0.6561  1.6462 -0.5698
14519TIP3   OH265047   0.705   4.042   3.150  0.1714 -0.1785 -0.0392
14519TIP3    H165048   0.638   3.988   3.108 -0.2030 -0.5087  0.9490
14519TIP3    H265049   0.779   4.039   3.090 -0.6843  0.1656 -1.1381
14520TIP3   OH265050   0.558   4.776   4.340  0.3544  0.0158 -0.7395
14520TIP3    H165051   0.569   4.733   4.425  1.4477  0.0356 -0.8560
14520TIP3    H265052   0.577   4.868   4.357  0.5939  0.0171 -1.0024
14521TIP3   OH265053   0.758   0.429   2.990  0.5562 -0.6637 -0.3103
14521TIP3    H165054   0.681   0.417   2.934  0.7681 -1.2152 -0.4873
14521TIP3    H265055   0.732   0.393   3.074  0.2650  0.0941 -0.0688
14522TIP3   OH265056   0.207   6.196   0.129 -0.9509  0.1616  0.5920
14522TIP3    H165057   0.251   6.136   0.067  1.3393 -2.0254  3.9849
14522TIP3    H265058   0.258   6.277   0.123  1.5406 -1.1823  1.9032
14523TIP3   OH265059   4.584   1.198   3.367  0.2192 -0.4747 -0.5781
14523TIP3    H165060   4.645   1.132   3.334  0.7446 -0.0964 -0.3623
14523TIP3    H265061   4.638   1.275   3.383 -0.4352  0.0976 -1.0676
14524TIP3   OH265062   2.483   3.117   5.511 -0.1103 -0.1853 -0.0414
14524TIP3    H165063   2.422   3.070   5.568 -1.1774  0.4017 -0.6547
14524TIP3    H265064   2.550   3.052   5.490 -1.2749 -1.3121 -0.4791
14525TIP3   OH265065   3.890   2.130   4.536  0.6786  0.0859  0.3048
14525TIP3    H165066   3.914   2.206   4.483 -2.1223  1.5869  0.9612
14525TIP3    H265067   3.896   2.056   4.477  2.6356  0.9047 -0.6065
14526TIP3   OH265068   2.142   6.069  12.990 -0.2743  0.0001 -0.3385
14526TIP3    H165069   2.050   6.078  12.964  0.2066  0.0187 -2.1764
14526TIP3    H265070   2.171   6.158  13.007 -0.4695  0.0448 -0.2362
14527TIP3   OH265071   5.933   5.843   6.411  0.8076  0.1364  0.5365
14527TIP3    H165072   5.853   5.881   6.448  1.1761  1.2202  0.2376
14527TIP3    H265073   5.985   5.817   6.487  1.0238  1.2397  0.7840
14528TIP3   OH265074   5.983   0.474  11.587 -0.5605 -0.8323  0.0912
14528TIP3    H165075   6.037   0.415  11.534 -0.4308 -1.1903  0.6163
14528TIP3    H265076   5.924   0.516  11.524 -0.6316 -1.4964 -0.2866
14529TIP3   OH265077   3.970   6.375   2.934 -0.2653  0.0900 -0.4614
14529TIP3    H165078   4.018   6.415   2.861  1.4548  2.4655  1.7648
14529TIP3    H265079   3.992   6.282   2.930  3.5345  0.8299 -0.4395
14530TIP3   OH265080   4.704   3.788  13.697 -0.3872  0.2437 -0.4110
14530TIP3    H165081   4.714   3.821  13.608 -1.3004  1.2233 -0.1786
14530TIP3    H265082   4.609   3.785  13.710 -0.2813  2.1749  1.2312
14531TIP3   OH265083   5.990   6.303  12.893  0.7696 -0.7810  0.9010
14531TIP3    H165084   6.039   6.283  12.813  2.5151  0.2389  1.6542
14531TIP3    H265085   5.906   6.337  12.861  1.6213  0.0976 -0.5435
14532TIP3   OH265086   3.661   0.041  15.287  0.0978  0.2881  0.8371
14532TIP3    H165087   3.685  -0.048  15.313  0.0276 -0.7219 -2.1857
14532TIP3    H265088   3.745   0.084  15.269  0.0633 -0.6574 -1.9483
14533TIP3   OH265089   6.139   4.922  12.085 -0.1222  0.0841 -0.2268
14533TIP3    H165090   6.183   4.996  12.042 -1.3895  0.1749 -1.4116
14533TIP3    H265091   6.107   4.958  12.167  0.7089  0.4032 -0.0316
14534TIP3   OH265092   5.480   5.088  15.127  0.7953  0.0019 -0.3686
14534TIP3    H165093   5.388   5.094  15.102  0.4663 -2.1650  0.1044
14534TIP3    H265094   5.502   5.175  15.161 -1.7415 -0.0408  1.6646
14535TIP3   OH265095   3.400   3.763  15.747 -0.0286  0.0958 -0.2467
14535TIP3    H165096   3.486   3.761  15.789 -0.6507  1.0917  1.1508
14535TIP3    H265097   3.353   3.834  15.791 -1.0192  0.6674 -2.1008
14536TIP3   OH265098   6.249   3.493   3.101 -0.0346 -0.0062 -0.2639
14536TIP3    H165099   6.159   3.512   3.073 -0.1584  2.2457  1.4033
14536TIP3    H265100   6.295   3.576   3.091  1.6926 -0.9335 -0.3476
14537TIP3   OH265101   4.495   1.851  16.840 -0.0193  0.5478  0.5922
14537TIP3    H165102   4.573   1.795  16.842 -0.4968 -0.1098  1.5156
14537TIP3    H265103   4.530   1.940  16.838  0.7577  0.2422 -1.2627
14538TIP3   OH265104   2.911   6.828   2.784 -0.3512  1.2774  0.0894
14538TIP3    H165105   2.982   6.889   2.764 -0.6286  1.5470 -0.0896
14538TIP3    H265106   2.832   6.881   2.777 -0.6441  0.7588 -0.6906
14539TIP3   OH265107   3.199   0.694  16.207  0.1177  0.4270 -0.0635
14539TIP3    H165108   3.275   0.654  16.164  0.4255  0.1743  0.6882
14539TIP3    H265109   3.211   0.673  16.300 -1.2468 -0.2294 -0.0193
14540TIP3   OH265110   0.388   5.531   4.364  0.3357  0.4862  0.0817
14540TIP3    H165111   0.303   5.537   4.319  0.7083 -0.4596 -0.7845
14540TIP3    H265112   0.400   5.617   4.403 -1.5614  0.2994  1.2319
14541TIP3   OH265113   4.463   4.605  16.480 -0.1600  0.0918 -0.1469
14541TIP3    H165114   4.490   4.567  16.563  1.6490  0.1856 -0.6327
14541TIP3    H265115   4.542   4.600  16.425 -0.1253  3.4323 -0.6318
14542TIP3   OH265116   6.530   4.724  16.155 -0.1930 -0.1692 -0.3113
14542TIP3    H165117   6.513   4.685  16.240  0.0443 -0.6808 -0.4897
14542TIP3    H265118   6.622   4.703  16.138 -0.3350 -0.3731 -0.8416
14543TIP3   OH265119   3.168   5.341   0.826  0.1665  0.4195 -0.3438
14543TIP3    H165120   3.246   5.362   0.777  0.7495 -0.0513  0.3562
14543TIP3    H265121   3.147   5.251   0.801  0.6734  0.0490  0.5054
14544TIP3   OH265122   5.785   5.686   5.572 -0.6388  0.1228 -0.5538
14544TIP3    H165123   5.818   5.619   5.512 -2.3786  1.1716 -2.8302
14544TIP3    H265124   5.754   5.637   5.648  0.9676 -1.3222 -0.7616
14545TIP3   OH265125   5.107   2.550   4.605  0.2565 -0.2875  0.3512
14545TIP3    H165126   5.078   2.479   4.663  0.4276  0.7426  1.7280
14545TIP3    H265127   5.199   2.562   4.626  0.6089 -0.6057 -0.9188
14546TIP3   OH265128   3.572   2.689  15.632  0.0403  0.2471 -0.2444
14546TIP3    H165129   3.485   2.653  15.615 -0.8317  2.2152 -0.2344
14546TIP3    H265130   3.580   2.762  15.570  1.3967  0.5493  0.2571
14547TIP3   OH265131   1.412   0.017   3.676 -0.0762  0.4439  0.2697
14547TIP3    H165132   1.468   0.035   3.601  1.9487 -2.3707  0.9328
14547TIP3    H265133   1.373  -0.069   3.657 -0.8104  0.4196  1.7160
14548TIP3   OH265134   4.203   5.168   2.890  0.2704  0.1013 -0.2732
14548TIP3    H165135   4.208   5.076   2.865 -0.3702  0.2419 -0.9611
14548TIP3    H265136   4.118   5.197   2.858  1.0045  1.2780 -1.2821
14549TIP3   OH265137   2.188   1.421   3.027 -0.2414 -0.2756  0.1122
14549TIP3    H165138   2.112   1.419   3.086  0.3849  0.6239  0.9716
14549TIP3    H265139   2.185   1.508   2.987  0.4411 -0.1540  0.3092
14550TIP3   OH265140   1.474   0.699   1.304 -0.0747 -0.2969 -0.0423
14550TIP3    H165141   1.453   0.732   1.217 -1.3452 -1.1964 -0.0942
14550TIP3    H265142   1.552   0.644   1.290  1.5263  1.8591 -0.0899
14551TIP3   OH265143   6.629   6.086  12.899 -0.2871 -0.4144  0.4325
14551TIP3    H165144   6.596   6.114  12.985 -1.7370 -0.2913 -0.1307
14551TIP3    H265145   6.630   5.990  12.905 -0.2082 -0.4009  0.6496
14552TIP3   OH265146   2.257   0.194  11.444  0.0435  0.6874  0.2513
14552TIP3    H165147   2.226   0.138  11.515 -2.9106  2.2344  0.3714
14552TIP3    H265148   2.231   0.149  11.364  0.4360  0.4711  0.2437
14553TIP3   OH265149   5.485   5.328  13.646  0.6053 -0.7057  0.7683
14553TIP3    H165150   5.433   5.250  13.665  0.6196 -0.6466  1.0454
14553TIP3    H265151   5.495   5.372  13.730  1.6241 -1.0314  0.8405
14554TIP3   OH265152   3.967   5.446  14.050  0.2077  0.1337 -0.1962
14554TIP3    H165153   4.061   5.461  14.035  0.6318 -0.6026  1.5473
14554TIP3    H265154   3.935   5.531  14.082  0.2898  0.3577 -0.6935
14555TIP3   OH265155   0.796   1.687   1.330  0.3842  0.3617  0.2537
14555TIP3    H165156   0.835   1.643   1.254 -0.2755  1.0295 -0.4828
14555TIP3    H265157   0.703   1.671   1.322  0.2246  1.1380  0.4653
14556TIP3   OH265158   5.206   1.551   4.100  0.3967  0.3074 -0.1935
14556TIP3    H165159   5.159   1.585   4.176 -0.5076 -0.8199 -0.2213
14556TIP3    H265160   5.246   1.628   4.060  0.1169  1.0381  0.9015
14557TIP3   OH265161   0.552   0.073   3.323 -0.3828  0.1576  0.0757
14557TIP3    H165162   0.600   0.070   3.406 -0.8475  1.1608  0.3884
14557TIP3    H265163   0.482   0.008   3.334 -0.7376  0.6259  0.6664
14558TIP3   OH265164   6.432   0.003  14.806  0.0122  0.0729  0.0447
14558TIP3    H165165   6.388  -0.006  14.722 -1.6449 -2.3571  1.0646
14558TIP3    H265166   6.497   0.072  14.792 -1.3990  0.9859 -2.6818
14559TIP3   OH265167   4.237   5.854  13.208  0.3463  0.3544 -0.2622
14559TIP3    H165168   4.231   5.949  13.215 -1.0118  0.3923 -1.4712
14559TIP3    H265169   4.242   5.823  13.298 -1.9061  1.4444  0.3056
14560TIP3   OH265170   2.567   1.207   4.757 -0.3894 -0.2283 -0.1057
14560TIP3    H165171   2.492   1.150   4.773  0.5066 -1.3713  0.1572
14560TIP3    H265172   2.642   1.159   4.792  0.8281 -0.1724 -2.4504
14561TIP3   OH265173   6.449   0.328   4.118  0.6837  0.7467  1.5968
14561TIP3    H165174   6.402   0.325   4.201  0.8234 -0.6914  1.6378
14561TIP3    H265175   6.535   0.292   4.137  0.1442 -1.2583  0.4923
14562TIP3   OH265176   3.191   4.005  13.077  0.3106  0.1793  0.2671
14562TIP3    H165177   3.191   4.064  13.153  1.2185  0.6736 -0.1069
14562TIP3    H265178   3.282   4.004  13.047  0.2522 -1.1551  0.0573
14563TIP3   OH265179   4.477   5.223   2.968  0.0678  0.8430  0.7171
14563TIP3    H165180   4.397   5.214   2.916  0.0262 -0.2853  0.9694
14563TIP3    H265181   4.536   5.273   2.911 -0.1108 -0.0415 -0.2750
14564TIP3   OH265182   1.110   6.632  13.216 -0.2884  0.6961 -0.3203
14564TIP3    H165183   1.121   6.687  13.294  2.6146 -0.5170  0.2242
14564TIP3    H265184   1.075   6.549  13.250  0.1307  0.4712 -0.4400
14565TIP3   OH265185   4.210   4.566  13.348  0.5052 -0.0083 -0.5282
14565TIP3    H165186   4.228   4.659  13.339 -0.7038  0.4800  1.4010
14565TIP3    H265187   4.114   4.560  13.343  0.2818 -0.6397  2.4621
14566TIP3   OH265188   1.088   0.805   2.613  0.2695 -0.3245  0.0313
14566TIP3    H165189   1.152   0.792   2.543 -1.5784 -2.1212 -1.4943
14566TIP3    H265190   1.105   0.735   2.676  0.7204  0.0965  0.3763
14567TIP3   OH265191   6.627   1.742   6.042  0.0099  0.0959 -0.0882
14567TIP3    H165192   6.646   1.690   5.964  0.1848 -1.6871  1.0714
14567TIP3    H265193   6.536   1.720   6.064 -0.4756  1.5747 -0.4679
14568TIP3   OH265194   1.163   0.708  14.016  0.0177  0.6523  0.0523
14568TIP3    H165195   1.123   0.788  14.050 -0.7584 -0.0025  0.6825
14568TIP3    H265196   1.103   0.678  13.948  0.1427  0.4118  0.0468
14569TIP3   OH265197   0.762   3.082  12.641  0.1859  0.7819  0.3792
14569TIP3    H165198   0.680   3.129  12.624  0.2619  0.8052  0.0676
14569TIP3    H265199   0.777   3.093  12.735  0.6482  2.1088  0.1683
14570TIP3   OH265200   0.726   2.507  11.718 -0.0434  0.1290  0.6704
14570TIP3    H165201   0.688   2.553  11.643 -0.0119  0.0087  0.5812
14570TIP3    H265202   0.780   2.438  11.680 -0.8005 -0.5631  0.8216
14571TIP3   OH265203   6.160   4.678   4.759  0.0264  0.3156  0.3579
14571TIP3    H165204   6.160   4.612   4.828 -0.2412 -0.1890 -0.1269
14571TIP3    H265205   6.117   4.636   4.685  2.0589  0.1647 -0.7994
14572TIP3   OH265206   0.767   2.015   5.466  1.0472  0.1284  0.0489
14572TIP3    H165207   0.841   2.011   5.526  1.7490  0.2097 -0.7939
14572TIP3    H265208   0.766   2.105   5.433  0.1620  0.3185  0.5450
14573TIP3   OH265209   2.338   5.827   6.412  0.1287  0.0052  0.5753
14573TIP3    H165210   2.321   5.920   6.419  0.6472 -0.0201  2.7477
14573TIP3    H265211   2.421   5.813   6.459 -0.5477 -1.6909  1.3640
14574TIP3   OH265212   0.569   5.486   2.446 -0.1603  0.0436  0.5731
14574TIP3    H165213   0.603   5.567   2.408 -0.2508 -0.2415 -0.1302
14574TIP3    H265214   0.562   5.426   2.372  1.6197 -1.2172  1.3711
14575TIP3   OH265215   5.449   6.276  11.490 -0.2482 -0.4070  0.1710
14575TIP3    H165216   5.365   6.230  11.486 -1.2528  1.4216 -1.2741
14575TIP3    H265217   5.434   6.358  11.442  1.7362  0.9824  1.7646
14576TIP3   OH265218   4.332   4.348   3.167 -0.3711 -0.4967 -0.2334
14576TIP3    H165219   4.384   4.404   3.110 -0.0781  0.1437  0.6311
14576TIP3    H265220   4.244   4.385   3.164 -0.2028 -0.0523  0.2494
14577TIP3   OH265221   4.762   3.024  17.120  0.6126 -0.0554  0.2321
14577TIP3    H165222   4.777   3.032  17.214  0.8525  0.9172  0.1163
14577TIP3    H265223   4.669   3.045  17.108  0.6981  0.3048  0.1965
14578TIP3   OH265224   4.473   3.679  13.540  0.0489 -0.5443  0.3734
14578TIP3    H165225   4.439   3.698  13.628 -0.9222 -0.6709  0.0420
14578TIP3    H265226   4.416   3.609  13.508 -1.3727  1.3097 -1.3867
14579TIP3   OH265227   0.138   0.718   0.522  0.4045  0.0289  0.3892
14579TIP3    H165228   0.132   0.795   0.579 -0.8841 -0.3759  0.8365
14579TIP3    H265229   0.214   0.670   0.553  1.0057  0.9287  0.3397
14580TIP3   OH265230   4.387   2.578   0.021 -0.5259 -0.3797  0.5844
14580TIP3    H165231   4.471   2.611  -0.012 -0.1770 -1.0507  0.7658
14580TIP3    H265232   4.322   2.611  -0.041 -0.0912 -0.0883  0.2757
14581TIP3   OH265233   4.848   5.476  17.053  0.3342 -0.4773 -0.7225
14581TIP3    H165234   4.807   5.391  17.068  1.4292 -0.5421  3.2304
14581TIP3    H265235   4.778   5.540  17.071  0.6293 -0.6041  1.0478
14582TIP3   OH265236   5.543   4.606   2.450  0.1394 -0.1537  0.0631
14582TIP3    H165237   5.587   4.530   2.488 -0.5823 -0.1247  0.9919
14582TIP3    H265238   5.564   4.678   2.509  0.8652  0.4079 -0.8390
14583TIP3   OH265239   3.506   5.538  15.230 -0.0196  0.4908  0.0301
14583TIP3    H165240   3.549   5.616  15.195  2.5656  0.2225  2.3151
14583TIP3    H265241   3.541   5.466  15.177  0.8313  0.4758  0.6078
14584TIP3   OH265242   3.932   6.709   3.334  0.6484 -0.4407  0.1332
14584TIP3    H165243   3.996   6.654   3.378  1.5145  0.1145 -0.3967
14584TIP3    H265244   3.885   6.650   3.275  3.4350 -0.2484 -2.5319
14585TIP3   OH265245   1.204   2.653   3.923 -0.6780  0.3807 -0.3615
14585TIP3    H165246   1.146   2.707   3.977 -0.8042  0.8290 -0.9374
14585TIP3    H265247   1.197   2.690   3.836 -0.3514 -0.2415 -0.6591
14586TIP3   OH265248   4.975   3.237  16.910  0.8542 -0.0681 -0.2722
14586TIP3    H165249   5.063   3.231  16.949  1.6137 -0.1669 -1.9152
14586TIP3    H265250   4.981   3.184  16.831 -1.0675 -1.0575  0.1798
14587TIP3   OH265251   5.889   0.354  12.279 -0.2491  0.1352  0.2694
14587TIP3    H165252   5.799   0.323  12.279 -0.6368  0.7944  4.2841
14587TIP3    H265253   5.882   0.450  12.278  0.3487  0.2010  1.0247
14588TIP3   OH265254   1.292   1.696   4.722  0.2925 -0.0989 -0.2441
14588TIP3    H165255   1.305   1.603   4.703 -1.2931 -0.5537  0.6650
14588TIP3    H265256   1.210   1.718   4.679 -0.4080  0.3152  1.2439
14589TIP3   OH265257   3.967   5.743  13.436  0.5478  0.3149  0.2951
14589TIP3    H165258   3.956   5.837  13.449  1.7099  0.5856 -0.5324
14589TIP3    H265259   4.031   5.736  13.365 -1.1837 -1.0989 -1.2225
14590TIP3   OH265260   2.942   4.532  13.176 -0.4850 -0.2708  0.5816
14590TIP3    H165261   2.875   4.502  13.237 -0.6889 -0.5798  0.2100
14590TIP3    H265262   2.979   4.610  13.217  0.0655 -1.0384  1.5719
14591TIP3   OH265263   1.731   1.797   0.226 -0.2064  0.4198 -0.7941
14591TIP3    H165264   1.707   1.706   0.247  2.0198  0.1666  1.1891
14591TIP3    H265265   1.660   1.849   0.263 -0.5024 -0.4608 -0.0565
14592TIP3   OH265266   5.834   0.531  15.320 -0.0655 -0.1535  0.1192
14592TIP3    H165267   5.869   0.562  15.404  1.2836 -0.0002 -0.4629
14592TIP3    H265268   5.823   0.611  15.268  0.5627 -0.3690 -0.3607
14593TIP3   OH265269   5.543   3.873  15.168 -0.5274  0.4092 -0.1428
14593TIP3    H165270   5.578   3.962  15.160 -0.4942  0.3790 -0.3363
14593TIP3    H265271   5.538   3.858  15.262  0.2455  0.3096 -0.1062
14594TIP3   OH265272   0.030   4.026   4.301 -0.0089 -0.8780 -0.2449
14594TIP3    H165273  -0.031   4.096   4.324  0.3211 -0.4046 -0.7541
14594TIP3    H265274   0.080   4.062   4.227  0.1771 -1.6486 -0.5045
14595TIP3   OH265275   4.754   2.110  11.322 -0.5873 -0.4762  1.1739
14595TIP3    H165276   4.743   2.020  11.292  0.1055 -0.6537  1.4508
14595TIP3    H265277   4.674   2.128  11.372 -1.2823 -0.5195  0.1118
14596TIP3   OH265278   6.167   0.747  13.611  0.6704 -0.2900 -0.1800
14596TIP3    H165279   6.120   0.816  13.658  0.8118 -1.0312  1.1242
14596TIP3    H265280   6.098   0.687  13.583  0.6967 -0.6582  0.5064
14597TIP3   OH265281   1.318   5.627  10.546  0.0156 -0.4370 -0.3219
14597TIP3    H165282   1.383   5.642  10.477  0.0594  1.3627  0.0518
14597TIP3    H265283   1.257   5.563  10.509  1.5368 -1.5629 -0.9750
14598TIP3   OH265284   0.465   2.386  14.021 -0.1707  0.7173 -0.0203
14598TIP3    H165285   0.460   2.385  13.925  1.2384 -0.2451 -0.1102
14598TIP3    H265286   0.520   2.462  14.041 -1.3176  1.5372  0.1011
14599TIP3   OH265287   1.675   3.344  11.594  0.0235  0.0000 -0.1556
14599TIP3    H165288   1.585   3.337  11.561 -0.3358 -0.9424  0.9626
14599TIP3    H265289   1.671   3.418  11.655 -0.2247 -0.6240  0.5921
14600TIP3   OH265290   2.122   0.647   0.237 -0.8341 -0.3735  0.3504
14600TIP3    H165291   2.029   0.628   0.224 -1.1342  1.1790 -0.0044
14600TIP3    H265292   2.149   0.691   0.157 -0.4066  1.2275  1.3178
14601TIP3   OH265293   6.548   6.546   2.378 -0.1934 -0.2506 -0.3264
14601TIP3    H165294   6.519   6.467   2.332  1.1922 -1.5222  0.8617
14601TIP3    H265295   6.482   6.559   2.446 -0.1404 -0.7440 -0.1721
14602TIP3   OH265296   2.628   5.855  13.051 -0.0593  0.0005  0.6850
14602TIP3    H165297   2.565   5.907  13.001  1.5423 -1.5529 -3.4051
14602TIP3    H265298   2.711   5.900  13.038  1.2227 -2.8726 -2.3113
14603TIP3   OH265299   3.329   0.631   2.625 -0.2164 -0.3623 -0.2005
14603TIP3    H165300   3.268   0.571   2.668 -1.1956  0.0076 -1.0164
14603TIP3    H265301   3.344   0.592   2.539  0.5690 -0.3470 -0.0799
14604TIP3   OH265302   0.136   5.531  12.260  0.0205 -0.3273  0.3662
14604TIP3    H165303   0.183   5.454  12.291  0.6163  0.0295  0.3659
14604TIP3    H265304   0.196   5.572  12.198 -0.7100 -0.4200 -0.4097
14605TIP3   OH265305   4.492   0.307   4.356  1.1661  0.0517  0.0620
14605TIP3    H165306   4.543   0.250   4.414  2.2700  1.5217  0.5820
14605TIP3    H265307   4.526   0.289   4.269  0.6944 -0.9155  0.0647
14606TIP3   OH265308   0.210   2.739  14.497  0.3233 -0.0786 -0.0542
14606TIP3    H165309   0.132   2.758  14.549 -1.1403  2.4016 -2.8566
14606TIP3    H265310   0.176   2.718  14.410  2.7500  0.1777 -1.1316
14607TIP3   OH265311   5.629   2.398   4.865  0.6071 -0.4673  0.0955
14607TIP3    H165312   5.640   2.397   4.770  0.9681 -0.7688  0.1393
14607TIP3    H265313   5.596   2.486   4.884  1.7302  0.0369 -0.1748
14608TIP3   OH265314   4.804   6.573  13.849  0.5716 -0.4981 -0.0312
14608TIP3    H165315   4.766   6.617  13.773  2.3420  0.8299 -0.1829
14608TIP3    H265316   4.739   6.505  13.872 -0.7844  0.1930 -1.6462
14609TIP3   OH265317   3.877   1.728   1.713 -0.5291 -0.6498 -0.7053
14609TIP3    H165318   3.812   1.791   1.680 -1.2174 -1.2359 -0.4882
14609TIP3    H265319   3.826   1.668   1.767  0.1813 -1.1985 -0.6436
14610TIP3   OH265320   1.312   1.285  12.540  0.1610  0.6648  0.0700
14610TIP3    H165321   1.388   1.340  12.556  0.2791  0.2757  0.8976
14610TIP3    H265322   1.273   1.272  12.626  0.1402 -0.5447 -0.0958
14611TIP3   OH265323   5.097   2.758   5.801 -0.0831  0.3845  0.0977
14611TIP3    H165324   5.149   2.785   5.877 -0.6109 -0.4936  0.7885
14611TIP3    H265325   5.027   2.823   5.795  0.7140  1.2170 -0.4610
14612TIP3   OH265326   3.578   2.432   5.421  0.3312  0.8200  0.4034
14612TIP3    H165327   3.642   2.402   5.356 -0.1240 -1.3996  0.9055
14612TIP3    H265328   3.493   2.412   5.382  0.0433 -0.1397  1.4719
14613TIP3   OH265329   6.674   1.551   5.234 -0.6874  0.5616 -0.1031
14613TIP3    H165330   6.738   1.500   5.284  1.1678  1.4723 -1.4425
14613TIP3    H265331   6.638   1.490   5.171 -0.5978  0.2163  0.1754
14614TIP3   OH265332   1.045   0.440   3.028 -0.2666 -0.6507 -0.0127
14614TIP3    H165333   1.070   0.348   3.018 -0.3990 -0.6505 -0.3350
14614TIP3    H265334   0.954   0.444   2.998 -0.0197 -0.2699 -0.7315
14615TIP3   OH265335   3.178   3.599  16.038  0.2639 -0.2316 -0.0255
14615TIP3    H165336   3.233   3.675  16.055 -0.7066  0.4874  0.0116
14615TIP3    H265337   3.237   3.524  16.047  1.4469  0.5502 -0.9800
14616TIP3   OH265338   1.028   5.155   5.530 -0.4106  0.6147  0.5847
14616TIP3    H165339   0.947   5.108   5.506 -0.2735 -0.2140  1.6464
14616TIP3    H265340   1.027   5.156   5.626  0.0131  2.0923  0.5895
14617TIP3   OH265341   1.210   3.691   0.224 -0.4041  0.1252  0.0072
14617TIP3    H165342   1.301   3.721   0.219 -0.1690 -0.5145  0.3002
14617TIP3    H265343   1.161   3.766   0.256 -0.3455  1.2010 -2.2221
14618TIP3   OH265344   3.245   4.543   2.845 -0.0554 -0.1790 -0.7060
14618TIP3    H165345   3.333   4.578   2.855  0.0936 -0.8505  0.4036
14618TIP3    H265346   3.239   4.519   2.752  1.6038 -1.8738 -0.4337
14619TIP3   OH265347   6.312   1.923  12.603  0.7986 -0.1830  0.1126
14619TIP3    H165348   6.297   2.012  12.635 -1.1497 -0.0421 -0.9960
14619TIP3    H265349   6.316   1.870  12.683  0.7418  0.7373  0.7475
14620TIP3   OH265350   2.869   3.196  13.865 -0.3302  0.0706 -0.2427
14620TIP3    H165351   2.851   3.276  13.817 -0.5481  0.8179  1.0300
14620TIP3    H265352   2.794   3.186  13.924 -0.7693 -1.5912 -1.0199
14621TIP3   OH265353   0.414   4.419   5.060  0.4409 -0.0603 -0.5804
14621TIP3    H165354   0.337   4.401   5.114 -0.0788  0.0175 -1.2850
14621TIP3    H265355   0.396   4.504   5.020  1.4283  0.5278  0.1722
14622TIP3   OH265356   6.086   5.759  14.517 -0.5274 -0.4858 -0.3894
14622TIP3    H165357   6.145   5.830  14.494 -0.1130 -0.3899  0.8720
14622TIP3    H265358   6.120   5.725  14.600 -1.6389 -1.1188 -0.1626
14623TIP3   OH265359   0.154   3.398   5.599 -0.2054 -0.1043  0.5891
14623TIP3    H165360   0.154   3.395   5.695 -0.0180 -2.2119  0.5699
14623TIP3    H265361   0.066   3.425   5.576  0.2578  2.2464  1.3428
14624TIP3   OH265362   5.490   1.201  11.312  0.4868 -0.1900  0.6855
14624TIP3    H165363   5.419   1.251  11.352  0.7647  1.7501 -1.1100
14624TIP3    H265364   5.570   1.244  11.341  0.8748 -1.0906  1.0124
14625TIP3   OH265365   2.481   6.714   4.064 -0.6576  0.2583  0.1604
14625TIP3    H165366   2.387   6.735   4.058 -0.5742  0.3377 -1.0840
14625TIP3    H265367   2.486   6.648   4.133 -1.5616  0.6420  0.6152
14626TIP3   OH265368   2.264   0.974   5.254 -0.0683  0.2681 -0.1270
14626TIP3    H165369   2.338   0.918   5.277 -1.2927 -0.4538  2.5206
14626TIP3    H265370   2.301   1.041   5.198  2.1995 -1.1133 -0.4161
14627TIP3   OH265371   5.635   4.555  14.192  0.2367 -0.2397  0.2979
14627TIP3    H165372   5.692   4.530  14.120  0.1049 -0.0960  0.1410
14627TIP3    H265373   5.691   4.607  14.250  0.9264 -2.1005  1.4007
14628TIP3   OH265374   0.689   4.352  10.823 -0.6639  0.1830 -0.0076
14628TIP3    H165375   0.713   4.267  10.860 -1.2674  1.1547  2.9582
14628TIP3    H265376   0.765   4.379  10.773 -0.8997 -2.5567 -2.0888
14629TIP3   OH265377   6.312   4.533   3.659  0.4146  0.8090 -0.7800
14629TIP3    H165378   6.228   4.563   3.692 -0.1730 -1.3207 -0.1515
14629TIP3    H265379   6.340   4.600   3.597 -1.5414  1.7688 -0.6820
14630TIP3   OH265380   5.672   2.642   2.152 -0.4611 -0.0276 -0.2250
14630TIP3    H165381   5.712   2.600   2.076  1.3778 -0.0255  0.6693
14630TIP3    H265382   5.622   2.715   2.115 -1.5095 -1.3566 -1.5730
14631TIP3   OH265383   4.981   2.931  16.381 -0.1567  0.0046  0.2764
14631TIP3    H165384   5.010   2.959  16.294 -0.9737 -1.5522 -0.5318
14631TIP3    H265385   4.974   3.013  16.431  0.3298  0.9290 -1.1030
14632TIP3   OH265386   1.226   3.959   4.516  0.2939 -0.0635  0.3285
14632TIP3    H165387   1.150   4.016   4.514 -0.1709 -0.4820  2.6294
14632TIP3    H265388   1.296   4.012   4.554  0.4770 -0.3800  0.4439
14633TIP3   OH265389   5.906   2.487  11.017 -0.3810  0.2090 -0.4572
14633TIP3    H165390   5.932   2.526  11.100 -1.6158  0.1093 -0.0128
14633TIP3    H265391   5.861   2.406  11.041  1.2065 -0.9946 -1.3298
14634TIP3   OH265392   0.874   5.700   5.681  0.0306 -0.2181 -0.4391
14634TIP3    H165393   0.949   5.640   5.691 -0.1283 -0.4125 -0.3924
14634TIP3    H265394   0.913   5.784   5.660  0.2879 -0.2097  0.0615
14635TIP3   OH265395   0.366   1.070  12.133 -0.2598  0.1511 -0.2960
14635TIP3    H165396   0.389   1.153  12.175  1.3400 -0.2064 -0.4136
14635TIP3    H265397   0.347   1.011  12.206 -1.5463  0.6287 -0.2131
14636TIP3   OH265398   5.116   2.929  13.622  0.2452 -0.2235 -0.4169
14636TIP3    H165399   5.046   2.885  13.573  1.3374 -1.2445 -1.1245
14636TIP3    H265400   5.128   2.874  13.700  0.8635 -0.5911 -0.7579
14637TIP3   OH265401   4.775   1.552  12.387 -0.2454 -0.1682 -1.1717
14637TIP3    H165402   4.765   1.631  12.335  2.7188 -0.6920 -2.7372
14637TIP3    H265403   4.856   1.565  12.435 -0.9900 -1.2913  0.4869
14638TIP3   OH265404   4.531   4.711   4.168 -0.3001 -0.2163  0.0657
14638TIP3    H165405   4.448   4.721   4.120 -0.1429 -0.9074 -0.3661
14638TIP3    H265406   4.587   4.662   4.108  1.1149  1.9219 -0.4528
14639TIP3   OH265407   1.363   1.458   4.289 -0.3569  0.1993 -0.1164
14639TIP3    H165408   1.303   1.424   4.223 -0.3151  0.8018 -0.4731
14639TIP3    H265409   1.414   1.525   4.244  2.2286 -1.8680 -0.4498
14640TIP3   OH265410   3.225   4.504  10.764 -0.1245  0.0134 -0.5535
14640TIP3    H165411   3.200   4.584  10.810  0.6316  0.0059 -0.1109
14640TIP3    H265412   3.218   4.435  10.831 -0.7101 -0.2853 -0.9147
14641TIP3   OH265413   3.853   5.908   5.705  0.0731 -0.0177 -0.2168
14641TIP3    H165414   3.939   5.891   5.745 -0.1295  2.0722  1.2936
14641TIP3    H265415   3.793   5.912   5.780 -0.4774  3.2523 -0.6796
14642TIP3   OH265416   2.689   0.124  13.899 -0.1422 -0.0585  0.6095
14642TIP3    H165417   2.749   0.065  13.945 -0.1694  0.1155  0.8698
14642TIP3    H265418   2.654   0.181  13.967  0.7552  1.0168  0.2134
14643TIP3   OH265419   4.009   3.268   5.885 -0.2153 -0.0527  0.3648
14643TIP3    H165420   4.040   3.327   5.954  0.1089 -0.4943  0.6068
14643TIP3    H265421   3.915   3.283   5.880  0.2980  3.3786 -2.3063
14644TIP3   OH265422   0.771   3.683   2.750 -0.3470  0.3871  0.2649
14644TIP3    H165423   0.681   3.655   2.762 -1.0652  1.5870 -1.7390
14644TIP3    H265424   0.804   3.629   2.677 -0.2401  1.5053 -0.5443
14645TIP3   OH265425   5.519   0.061  10.860  0.1329 -0.5007  0.0082
14645TIP3    H165426   5.431   0.062  10.823 -0.7489 -2.1128  1.8831
14645TIP3    H265427   5.556  -0.022  10.831  0.1751 -0.8472  1.0211
14646TIP3   OH265428   1.150   1.602  14.506  1.0147 -0.7557  0.0281
14646TIP3    H165429   1.059   1.597  14.477  0.3973 -3.1239  2.0180
14646TIP3    H265430   1.146   1.654  14.586  1.5923 -0.0854 -0.3685
14647TIP3   OH265431   2.430   2.800  10.315  0.2773 -0.1355  0.5111
14647TIP3    H165432   2.521   2.781  10.292  0.1661 -1.9174  1.3069
14647TIP3    H265433   2.379   2.756  10.247  0.0212 -1.5279  1.5403
14648TIP3   OH265434   6.597   3.908   0.928  0.4494  0.0509  0.2823
14648TIP3    H165435   6.548   3.960   0.863 -0.8923 -1.2657  0.1994
14648TIP3    H265436   6.537   3.899   1.002  1.1583 -0.2952  0.8231
14649TIP3   OH265437   5.577   4.595  15.906 -0.7603 -0.1979  0.2160
14649TIP3    H165438   5.576   4.649  15.985 -3.9323  0.5430 -0.1985
14649TIP3    H265439   5.670   4.588  15.883  0.2770 -0.1204  3.7192
14650TIP3   OH265440   1.195   4.317  14.299  0.2499 -0.2948  0.0987
14650TIP3    H165441   1.197   4.276  14.213  0.8244  0.4839 -0.2700
14650TIP3    H265442   1.109   4.294  14.335  0.0835 -0.7825 -0.5956
14651TIP3   OH265443   2.602   4.216  11.224 -0.1801  0.0255  0.5519
14651TIP3    H165444   2.664   4.288  11.206  0.5403 -0.4988  0.8613
14651TIP3    H265445   2.632   4.144  11.169 -0.7261 -0.1337  0.4587
14652TIP3   OH265446   1.043   5.784   0.612  0.1876  0.4841  0.3307
14652TIP3    H165447   1.027   5.710   0.554 -1.1892 -0.4659  1.8483
14652TIP3    H265448   1.134   5.810   0.593  0.1616 -0.5106 -1.3797
14653TIP3   OH265449   6.235   1.430   1.738 -0.5727  0.6763  0.2986
14653TIP3    H165450   6.166   1.429   1.803 -0.6125  2.5169  0.3580
14653TIP3    H265451   6.283   1.512   1.755  2.2490 -0.9562  0.8850
14654TIP3   OH265452   2.269   5.556   1.279 -0.1945 -0.0628 -0.7250
14654TIP3    H165453   2.194   5.516   1.324 -0.2523  0.7639 -0.0556
14654TIP3    H265454   2.246   5.648   1.272  1.0568  0.3555  0.1659
14655TIP3   OH265455   1.169   3.283   1.802  0.2150  0.1720  0.4880
14655TIP3    H165456   1.225   3.245   1.734 -1.2125  0.0316 -0.6576
14655TIP3    H265457   1.171   3.377   1.784  0.6903  0.2555  0.9434
14656TIP3   OH265458   5.474   0.287   5.609 -0.0405 -0.1437  0.1967
14656TIP3    H165459   5.540   0.321   5.669 -0.3144  1.6037 -0.4394
14656TIP3    H265460   5.445   0.363   5.558 -0.9171 -1.2759 -1.0994
14657TIP3   OH265461   2.017   0.746   5.169 -0.3550 -0.1068  0.3318
14657TIP3    H165462   1.994   0.694   5.092  1.2098 -0.7342  0.2503
14657TIP3    H265463   2.007   0.685   5.243 -0.8856  0.2056  0.5240
14658TIP3   OH265464   2.781   5.583   0.212  0.0712 -0.2498 -0.0364
14658TIP3    H165465   2.837   5.510   0.237  1.6033  1.3334  1.4210
14658TIP3    H265466   2.754   5.622   0.296 -1.2173  0.5150 -0.7670
14659TIP3   OH265467   1.874   5.763   4.810  0.2989  0.0039  0.3602
14659TIP3    H165468   1.842   5.720   4.889 -0.0267  1.0770  0.8293
14659TIP3    H265469   1.806   5.746   4.745  0.6600 -1.0476  0.2403
14660TIP3   OH265470   6.398   0.669  15.578 -0.5310 -0.3694 -0.0887
14660TIP3    H165471   6.399   0.578  15.605 -3.0449 -0.4376  0.0166
14660TIP3    H265472   6.462   0.674  15.506  0.2163 -1.9986  0.4328
14661TIP3   OH265473   5.278   1.184  13.542 -0.0654 -0.4128 -1.1594
14661TIP3    H165474   5.373   1.196  13.542 -0.2518  1.9350  1.3265
14661TIP3    H265475   5.265   1.099  13.585  0.9123  0.5821  1.2712
14662TIP3   OH265476   4.213   6.125   0.413  0.0411  0.0625 -0.1273
14662TIP3    H165477   4.273   6.191   0.378  1.3281 -0.3492  1.2398
14662TIP3    H265478   4.139   6.127   0.352  1.1103  1.0621 -1.4730
14663TIP3   OH265479   6.187   0.333   2.267  0.2510  0.1538  0.0245
14663TIP3    H165480   6.111   0.373   2.223  0.9304  1.7067  0.2055
14663TIP3    H265481   6.149   0.262   2.319 -0.8671 -0.1681 -1.1572
14664TIP3   OH265482   2.858   5.098  10.959  0.4197  0.3287 -0.5234
14664TIP3    H165483   2.788   5.160  10.939 -0.4355  0.4425  2.3728
14664TIP3    H265484   2.829   5.016  10.918 -1.0421  0.5859 -0.0679
14665TIP3   OH265485   3.507   5.414   1.930 -0.6177  0.2334  0.3486
14665TIP3    H165486   3.501   5.319   1.931 -1.5185  0.2711 -0.2710
14665TIP3    H265487   3.432   5.443   1.981 -0.3386  0.6151  0.5488
14666TIP3   OH265488   0.799   2.567   2.994 -1.0588  0.0882  0.1819
14666TIP3    H165489   0.714   2.594   2.960 -1.0464  1.2869  1.0824
14666TIP3    H265490   0.779   2.512   3.069 -1.0441  0.5893  0.5568
14667TIP3   OH265491   5.496   3.482   4.263  0.1398 -0.3762  0.2245
14667TIP3    H165492   5.413   3.483   4.217  0.7085 -2.3978 -0.9587
14667TIP3    H265493   5.557   3.526   4.204 -0.1971  2.0399  1.5211
14668TIP3   OH265494   6.831   2.824  13.596 -0.3588  0.6894 -0.1141
14668TIP3    H165495   6.760   2.760  13.589  1.3832 -1.3309 -0.6511
14668TIP3    H265496   6.790   2.908  13.578 -2.5283 -0.4191 -0.7521
14669TIP3   OH265497   0.718   5.062   3.000  0.7285  0.5140 -0.3319
14669TIP3    H165498   0.811   5.042   3.010  0.6121 -0.8722 -1.7625
14669TIP3    H265499   0.713   5.111   2.918  0.0926 -0.3234 -0.8070
14670TIP3   OH265500   4.032   1.642   3.175 -0.6518  0.1604 -0.2554
14670TIP3    H165501   4.114   1.688   3.191 -1.0347  0.6964  0.2141
14670TIP3    H265502   4.044   1.556   3.215 -0.5581  0.4759  0.4046
14671TIP3   OH265503   4.277   3.003   1.955 -0.1248  0.0363 -0.4569
14671TIP3    H165504   4.262   2.995   1.861  0.3177 -1.9098 -0.4151
14671TIP3    H265505   4.204   2.956   1.996  0.0900  0.2097  0.1453
14672TIP3   OH265506   5.593   1.516   2.405 -0.8050 -0.0512  0.6735
14672TIP3    H165507   5.626   1.582   2.466 -1.1965  0.7125  0.0714
14672TIP3    H265508   5.669   1.490   2.354 -0.5928 -0.2749  1.1006
14673TIP3   OH265509   6.314   2.860  11.583  0.1482 -0.1764 -0.0637
14673TIP3    H165510   6.307   2.920  11.657  2.2850 -0.2195  0.2315
14673TIP3    H265511   6.262   2.784  11.609 -1.4620  0.9494  0.1435
14674TIP3   OH265512   0.581   3.196  15.642  0.0880 -0.0766  0.4093
14674TIP3    H165513   0.534   3.229  15.719 -0.3770  1.1001 -0.3544
14674TIP3    H265514   0.531   3.230  15.567  0.5115 -1.2259 -0.4216
14675TIP3   OH265515   1.855   1.366  13.738  0.7544 -0.2679 -0.1700
14675TIP3    H165516   1.824   1.435  13.797 -1.1584 -0.9367 -0.3219
14675TIP3    H265517   1.950   1.366  13.750  0.4597 -0.5617  3.1352
14676TIP3   OH265518   3.956   4.787  14.481 -0.2290  0.8238 -0.0461
14676TIP3    H165519   3.879   4.795  14.425 -0.7649 -0.4883  0.4535
14676TIP3    H265520   3.982   4.695  14.472  0.1650  0.8003  1.1998
14677TIP3   OH265521   0.707   4.002   0.192 -0.3841  0.2730 -0.5654
14677TIP3    H165522   0.679   3.910   0.193  1.6670 -0.4682 -2.4447
14677TIP3    H265523   0.628   4.051   0.171 -1.1450 -1.2906 -1.5658
14678TIP3   OH265524   1.588   3.697  15.136 -0.0401  0.8557 -0.4533
14678TIP3    H165525   1.492   3.696  15.127 -0.4657 -0.9799  2.6318
14678TIP3    H265526   1.616   3.611  15.103  0.3225  0.7383  0.1509
14679TIP3   OH265527   6.047   3.647   5.168 -0.4042 -0.4775  0.6821
14679TIP3    H165528   6.071   3.559   5.137 -0.8510 -0.1064 -0.7591
14679TIP3    H265529   5.975   3.674   5.112  0.8521  1.5283 -0.0763
14680TIP3   OH265530   1.832   0.259  16.032 -0.4108 -0.1807 -0.0157
14680TIP3    H165531   1.783   0.225  16.107  1.3996 -3.0102  0.0411
14680TIP3    H265532   1.917   0.284  16.068  0.1625 -0.7192 -0.9479
14681TIP3   OH265533   4.701   5.033  12.638  0.2171  0.0849 -0.0084
14681TIP3    H165534   4.732   5.044  12.548 -0.7260  0.6317 -0.2821
14681TIP3    H265535   4.716   5.118  12.679  0.9566 -0.2597  0.4673
14682TIP3   OH265536   1.023   0.060   0.167 -0.0666  0.2229  0.5589
14682TIP3    H165537   0.957   0.071   0.236 -0.5302  0.7795  0.0269
14682TIP3    H265538   0.973   0.057   0.086  0.5971  1.2286  0.0926
14683TIP3   OH265539   5.952   2.981   5.139 -0.3621  0.1644  0.0638
14683TIP3    H165540   5.916   2.933   5.065 -2.7367 -1.9470  2.4053
14683TIP3    H265541   5.900   2.953   5.214  2.0249  2.0255  2.6229
14684TIP3   OH265542   2.436   1.683   3.505 -0.5514 -0.7220 -0.0245
14684TIP3    H165543   2.400   1.771   3.508  0.1416 -0.4419  0.4065
14684TIP3    H265544   2.360   1.626   3.501 -1.0008 -0.0910 -0.7700
14685TIP3   OH265545   5.380   6.464   2.880  0.1424 -0.3340  0.3590
14685TIP3    H165546   5.431   6.387   2.906  1.3974  0.0846 -0.8019
14685TIP3    H265547   5.409   6.483   2.791 -2.0631 -0.0858 -0.3596
14686TIP3   OH265548   0.982   3.291  16.809 -0.2600  0.5879  0.2862
14686TIP3    H165549   0.993   3.296  16.904 -0.5847  0.0679  0.3520
14686TIP3    H265550   1.025   3.209  16.784 -0.8194  0.3486  0.0851
14687TIP3   OH265551   3.207   2.505   2.608  0.6477  0.2089  0.0766
14687TIP3    H165552   3.252   2.583   2.637  1.4783 -0.2139 -0.0360
14687TIP3    H265553   3.251   2.433   2.653  0.6432 -0.2827 -0.6772
14688TIP3   OH265554   3.208   3.907  16.329  0.2181 -0.1092 -0.3190
14688TIP3    H165555   3.139   3.960  16.290 -0.3447 -0.2410  0.4678
14688TIP3    H265556   3.290   3.945  16.295 -0.1799  1.1471  0.0798
14689TIP3   OH265557   0.679   1.708  13.991 -0.1749 -0.0537 -0.1392
14689TIP3    H165558   0.648   1.632  13.941 -0.3868 -0.3577  0.4479
14689TIP3    H265559   0.612   1.722  14.058 -0.0061  0.4933 -0.0765
14690TIP3   OH265560   2.792   5.717  16.420  0.6510  0.1796 -0.5129
14690TIP3    H165561   2.845   5.696  16.497 -0.0793 -1.6134 -0.4380
14690TIP3    H265562   2.854   5.716  16.347  1.1882  0.9853 -0.0807
14691TIP3   OH265563   4.950   3.037   1.810 -0.1363 -0.3800  0.2128
14691TIP3    H165564   4.906   3.015   1.893  0.6785 -0.5808  0.6133
14691TIP3    H265565   4.899   3.108   1.773 -0.9521 -0.7911  0.5180
14692TIP3   OH265566   1.612   0.416   5.885  0.4621  0.3923 -0.2411
14692TIP3    H165567   1.640   0.499   5.846 -2.3120  3.0696  2.8087
14692TIP3    H265568   1.624   0.428   5.979 -0.8035 -2.3992  0.3876
14693TIP3   OH265569   5.062   0.017   0.844 -0.5619  0.1749 -0.2587
14693TIP3    H165570   5.143   0.052   0.808  1.0049 -1.1456  1.7534
14693TIP3    H265571   5.035  -0.050   0.781  0.3359  0.0914 -0.5729
14694TIP3   OH265572   6.171   3.206  15.197  0.1528  0.2610 -0.1275
14694TIP3    H165573   6.222   3.133  15.232  1.6429  0.8246 -1.0215
14694TIP3    H265574   6.204   3.218  15.108 -2.5389 -0.2194 -1.3003
14695TIP3   OH265575   0.877   2.872  10.892  0.3927  0.3226 -0.0964
14695TIP3    H165576   0.868   2.836  10.804  0.5505  1.2385 -0.4979
14695TIP3    H265577   0.848   2.963  10.884  3.3176  1.3502  0.0956
14696TIP3   OH265578   2.202   3.440   0.599  0.3363 -0.6457  0.1186
14696TIP3    H165579   2.141   3.424   0.671 -0.2067  1.5386  0.2043
14696TIP3    H265580   2.287   3.412   0.633 -0.0149 -0.2437  1.3808
14697TIP3   OH265581   5.114   1.208   0.320  0.4220 -0.0009 -0.2801
14697TIP3    H165582   5.142   1.299   0.325  1.3975 -0.2788 -0.3689
14697TIP3    H265583   5.084   1.196   0.230  0.3853  0.2135 -0.2952
14698TIP3   OH265584   4.300   0.166   2.345 -0.1114  0.0792 -0.3505
14698TIP3    H165585   4.284   0.204   2.259 -1.3567 -0.9190 -0.5909
14698TIP3    H265586   4.333   0.239   2.398  1.7314  0.4618 -1.9381
14699TIP3   OH265587   3.995   4.274   1.547  0.2824  0.0327  0.4176
14699TIP3    H165588   4.001   4.189   1.502 -0.2839 -0.6094  1.5108
14699TIP3    H265589   4.046   4.334   1.492  0.5606 -0.9739 -0.4609
14700TIP3   OH265590   4.329   3.709  14.492  0.0655 -0.3015  1.0167
14700TIP3    H165591   4.387   3.704  14.568  1.2215 -1.4103  0.1041
14700TIP3    H265592   4.282   3.792  14.503  2.7119  1.2916  1.1861
14701TIP3   OH265593   1.368   1.982   5.360 -0.3697 -0.0020  0.4512
14701TIP3    H165594   1.386   2.070   5.395  1.4979  0.0032 -0.3692
14701TIP3    H265595   1.447   1.960   5.310  0.3044 -3.1775  2.6468
14702TIP3   OH265596   6.402   0.687  15.221 -0.1260  0.6084 -0.1104
14702TIP3    H165597   6.372   0.778  15.216  0.7812  1.0677  1.6721
14702TIP3    H265598   6.470   0.689  15.288 -1.5320 -1.7455  1.5376
14703TIP3   OH265599   1.750   1.530   6.533  0.2250  0.8065  0.5921
14703TIP3    H165600   1.740   1.468   6.461 -1.9369  1.5154  0.2098
14703TIP3    H265601   1.829   1.580   6.511  0.9989 -0.6296  0.0172
14704TIP3   OH265602   5.587   2.796  16.403 -0.1786  0.0199 -0.5148
14704TIP3    H165603   5.512   2.788  16.344 -0.8122  1.8149 -0.0127
14704TIP3    H265604   5.549   2.796  16.490  0.3173  1.3563 -0.2676
14705TIP3   OH265605   3.282   4.187   4.333  0.2502  0.1038  0.7414
14705TIP3    H165606   3.342   4.175   4.407  1.2129 -1.7786 -0.2627
14705TIP3    H265607   3.235   4.104   4.327  2.2724 -1.0014 -2.4449
14706TIP3   OH265608   0.416   3.086  11.873  0.1814 -0.0362 -0.4017
14706TIP3    H165609   0.422   3.156  11.938 -0.2490  0.6743 -1.1129
14706TIP3    H265610   0.323   3.066  11.868  0.4895 -2.6032  1.7847
14707TIP3   OH265611   3.844   1.402   4.795 -0.4387 -0.2923  0.2628
14707TIP3    H165612   3.805   1.337   4.737  0.1246 -0.7880  0.4319
14707TIP3    H265613   3.921   1.359   4.832  1.5868  1.3511 -1.7338
14708TIP3   OH265614   5.370   4.909  10.376 -0.6472 -0.4783 -0.1359
14708TIP3    H165615   5.465   4.916  10.367 -0.8192  0.5919 -1.3573
14708TIP3    H265616   5.356   4.902  10.471  0.4974  2.6409  0.3907
14709TIP3   OH265617   0.345   4.711  12.831 -0.2855  0.3275 -0.7111
14709TIP3    H165618   0.280   4.691  12.898  0.0959 -0.4142 -0.5436
14709TIP3    H265619   0.417   4.753  12.878 -0.1346  0.0565 -0.6974
14710TIP3   OH265620   6.604   5.615  17.108 -0.3803  0.1886 -0.3828
14710TIP3    H165621   6.512   5.591  17.110 -0.0233 -1.2589  0.1236
14710TIP3    H265622   6.638   5.575  17.028  0.3658 -1.6855  0.8010
14711TIP3   OH265623   4.948   1.169   4.706  0.5545 -0.1887 -0.1383
14711TIP3    H165624   4.990   1.209   4.783 -1.5642 -0.4967  1.2600
14711TIP3    H265625   4.930   1.243   4.648  0.8049  0.2689  0.3557
14712TIP3   OH265626   1.444   1.763   3.465 -0.0199 -0.3597 -0.4196
14712TIP3    H165627   1.375   1.817   3.426 -0.8565  0.3755  1.8876
14712TIP3    H265628   1.416   1.673   3.448 -0.6921 -0.0723 -0.9167
14713TIP3   OH265629   1.871   0.619  13.584 -0.1583 -0.0243 -0.2867
14713TIP3    H165630   1.906   0.533  13.559  0.0739 -0.3502  1.0326
14713TIP3    H265631   1.889   0.625  13.678  0.8520  1.9626 -0.5583
14714TIP3   OH265632   0.098   5.300  14.024 -0.3819 -0.0009 -0.1187
14714TIP3    H165633   0.147   5.257  14.093  1.1756 -0.6432 -1.5474
14714TIP3    H265634   0.112   5.393  14.038 -1.7458  0.0068  1.5488
14715TIP3   OH265635   4.893   6.834  13.684 -0.0897  0.2909 -0.4300
14715TIP3    H165636   4.863   6.920  13.656  0.7611 -0.0707 -2.6409
14715TIP3    H265637   4.900   6.783  13.604 -0.3958 -1.8167  0.7862
14716TIP3   OH265638   5.407   4.453   5.064  0.2263  0.3869 -0.1568
14716TIP3    H165639   5.471   4.481   5.129 -0.4703 -0.1360  0.7791
14716TIP3    H265640   5.322   4.481   5.099 -0.1380  0.3669 -0.9871
14717TIP3   OH265641   3.422   1.222  13.482  0.2923  0.1706 -0.3758
14717TIP3    H165642   3.516   1.210  13.466  0.6250  1.5362  0.3589
14717TIP3    H265643   3.405   1.312  13.456 -1.1880 -0.5293 -2.0041
14718TIP3   OH265644   3.454   1.273   3.369  0.4230  0.1272 -0.2807
14718TIP3    H165645   3.527   1.277   3.308  0.0035 -3.2075 -1.2393
14718TIP3    H265646   3.413   1.188   3.351 -1.8307  0.5239  2.3087
14719TIP3   OH265647   1.801   4.719  14.790  0.4161  0.0359 -0.0429
14719TIP3    H165648   1.866   4.788  14.778 -1.7484  1.8438 -2.4468
14719TIP3    H265649   1.789   4.681  14.703 -1.1899 -0.7253  0.4604
14720TIP3   OH265650   3.573   5.564   4.774 -0.1807 -0.4454  0.4090
14720TIP3    H165651   3.591   5.645   4.822  0.5520 -1.1974  1.4557
14720TIP3    H265652   3.575   5.590   4.682 -1.3962  1.0055  0.7475
14721TIP3   OH265653   0.763   2.921   2.856  0.3132  0.2581 -0.2760
14721TIP3    H165654   0.815   2.992   2.894  1.2455  0.1070 -1.2264
14721TIP3    H265655   0.727   2.876   2.932  1.7623  0.2343  0.4464
14722TIP3   OH265656   5.021   4.309  16.089 -0.5096 -0.3941 -0.3461
14722TIP3    H165657   4.936   4.273  16.113 -1.1517  1.0808 -0.2493
14722TIP3    H265658   5.081   4.277  16.157 -1.2062 -0.6177  0.1758
14723TIP3   OH265659   4.855   0.582   3.080  0.5651  0.0750 -0.1291
14723TIP3    H165660   4.832   0.490   3.066  0.3406 -0.0457  0.9700
14723TIP3    H265661   4.940   0.593   3.037  1.6853 -1.2321  1.6279
14724TIP3   OH265662   4.533   4.453   1.396 -1.0047  0.0753 -0.0331
14724TIP3    H165663   4.447   4.473   1.434 -0.8155  0.3543  0.2528
14724TIP3    H265664   4.520   4.371   1.349 -1.7516  0.7306 -1.0180
14725TIP3   OH265665   1.787   6.598  16.250 -0.0425  0.1624 -0.1567
14725TIP3    H165666   1.810   6.530  16.186  0.0233  0.9517 -0.9960
14725TIP3    H265667   1.774   6.677  16.197 -0.9589  0.6096  0.7050
14726TIP3   OH265668   3.687   5.887   1.028 -0.0820  0.3783 -0.2425
14726TIP3    H165669   3.708   5.934   0.947  1.9853 -0.3410 -0.1856
14726TIP3    H265670   3.642   5.807   0.998 -0.2840  0.6227 -0.5949
14727TIP3   OH265671   4.781   5.970   5.644 -0.0161 -0.1075 -0.2849
14727TIP3    H165672   4.758   5.878   5.630 -1.2262  0.2079 -0.4974
14727TIP3    H265673   4.793   6.005   5.556  0.1670  0.0021 -0.2157
14728TIP3   OH265674   6.139   3.920   2.533 -0.4510  0.1552  0.1054
14728TIP3    H165675   6.107   3.830   2.535 -0.5351  0.1938  0.5718
14728TIP3    H265676   6.065   3.971   2.499 -1.1256  0.3297  1.7353
14729TIP3   OH265677   4.271   5.969   2.197  0.1021  0.3294  0.2898
14729TIP3    H165678   4.222   5.902   2.244 -1.6873  0.8809 -0.7129
14729TIP3    H265679   4.357   5.929   2.182  0.2999 -0.3490  2.8067
14730TIP3   OH265680   3.493   4.027   1.821  0.4911 -0.2217 -0.3943
14730TIP3    H165681   3.401   4.004   1.823  0.4943 -0.3808 -1.5432
14730TIP3    H265682   3.511   4.061   1.909 -1.0487  1.3232 -0.6088
14731TIP3   OH265683   0.520   3.957  15.868  0.3863  0.2363  0.5707
14731TIP3    H165684   0.494   4.040  15.908 -3.3244 -1.0729  1.2210
14731TIP3    H265685   0.492   3.890  15.930 -0.1700 -1.6656 -1.5814
14732TIP3   OH265686   2.946   3.551  14.019  0.4879  0.1751  0.3317
14732TIP3    H165687   3.019   3.608  13.993  0.0692  1.1577  1.2136
14732TIP3    H265688   2.898   3.534  13.938 -1.0467  3.5145  0.3697
14733TIP3   OH265689   5.108   0.791  14.841 -0.9477 -0.8453 -0.2939
14733TIP3    H165690   5.165   0.714  14.841 -0.3423 -0.4081 -0.3214
14733TIP3    H265691   5.094   0.810  14.748 -0.2885 -0.3497 -0.3025
14734TIP3   OH265692   0.505   2.541   4.175 -0.0487 -1.3212  0.0571
14734TIP3    H165693   0.412   2.539   4.151 -0.2763  1.1417  0.4315
14734TIP3    H265694   0.506   2.565   4.267  0.9354  0.4661 -0.3679
14735TIP3   OH265695   6.479   2.549   1.585 -0.5058 -0.5605  0.6478
14735TIP3    H165696   6.448   2.585   1.502 -0.4797 -1.3038  0.3069
14735TIP3    H265697   6.400   2.532   1.636 -0.4992  0.4143  1.0092
14736TIP3   OH265698   5.544   1.645  12.173  0.0098 -0.3094  0.1267
14736TIP3    H165699   5.566   1.567  12.225 -2.2196 -2.5558 -1.9907
14736TIP3    H265700   5.615   1.651  12.109  0.0714 -0.7373  0.1504
14737TIP3   OH265701   1.932   3.891   1.614  0.5706  0.3402 -0.2518
14737TIP3    H165702   1.961   3.876   1.704 -0.1308 -0.7008 -0.1780
14737TIP3    H265703   1.902   3.982   1.614  0.6330  0.3723  0.5574
14738TIP3   OH265704   3.584   4.300   6.642  0.4641 -0.0669  0.2285
14738TIP3    H165705   3.549   4.243   6.574 -0.3879  0.5358  0.1315
14738TIP3    H265706   3.535   4.382   6.632  0.0636 -0.0732  1.7748
14739TIP3   OH265707   2.449   2.823   2.481 -0.9416  0.7569  0.4371
14739TIP3    H165708   2.459   2.832   2.386  0.5500  2.2494  0.6766
14739TIP3    H265709   2.400   2.742   2.492  0.6150 -0.5832 -1.5645
14740TIP3   OH265710   1.379   0.602  14.177 -0.5820 -0.2980 -0.2861
14740TIP3    H165711   1.311   0.629  14.116  0.2081  0.8725 -0.6588
14740TIP3    H265712   1.352   0.514  14.205 -2.1391  0.0682 -0.5698
14741TIP3   OH265713   6.758   2.062   3.339 -0.2585  0.2656  0.2264
14741TIP3    H165714   6.728   2.152   3.349  1.1204  0.8083 -0.3550
14741TIP3    H265715   6.818   2.048   3.413 -1.5737 -0.6777  1.1600
14742TIP3   OH265716   0.425   3.461  16.715  0.3033 -0.2900  0.2219
14742TIP3    H165717   0.519   3.459  16.696 -0.0394  0.1571 -1.8209
14742TIP3    H265718   0.396   3.371  16.699  0.2952 -0.3139  0.3692
14743TIP3   OH265719   1.038   5.705   5.378  0.1711  0.5075 -0.3593
14743TIP3    H165720   0.968   5.642   5.396  1.1768 -1.1368 -1.8762
14743TIP3    H265721   1.098   5.659   5.320  1.7542  2.3854 -0.3343
14744TIP3   OH265722   0.725   2.099   3.836 -0.0160  0.1586  0.5441
14744TIP3    H165723   0.631   2.115   3.839 -0.2064 -1.0641  2.8306
14744TIP3    H265724   0.752   2.133   3.751 -2.5544  0.2910 -0.2882
14745TIP3   OH265725   4.633   2.751  12.447 -0.1506  0.1324 -0.0759
14745TIP3    H165726   4.590   2.666  12.439  0.0155 -0.1444  1.5734
14745TIP3    H265727   4.571   2.813  12.410 -1.2654 -0.4519  0.7479
14746TIP3   OH265728   6.436   1.701   6.636 -0.2570 -0.2739 -0.0800
14746TIP3    H165729   6.433   1.722   6.542 -1.2849  2.6513  0.4971
14746TIP3    H265730   6.479   1.776   6.676 -2.1290 -0.2308  2.0471
14747TIP3   OH265731   6.439   1.907  11.682 -0.3320  0.5800 -0.4884
14747TIP3    H165732   6.377   1.936  11.749 -0.5695  0.2832 -0.5761
14747TIP3    H265733   6.477   1.988  11.648  0.3367  0.7055  0.5155
14748TIP3   OH265734   1.740   4.741   2.626  0.0299 -0.0232 -0.1582
14748TIP3    H165735   1.823   4.726   2.672 -0.6438 -0.5408  0.9233
14748TIP3    H265736   1.746   4.831   2.594  0.9674 -0.0267 -0.0261
14749TIP3   OH265737   6.028   2.905  15.393  0.6835 -0.5498 -0.4345
14749TIP3    H165738   6.061   2.842  15.329  1.5179  0.1981 -0.7524
14749TIP3    H265739   6.096   2.909  15.461  0.2201 -0.6655  0.0410
14750TIP3   OH265740   3.470   6.453   2.898  0.1893  0.2263  0.2853
14750TIP3    H165741   3.525   6.478   2.823 -0.4336 -0.3084 -0.3628
14750TIP3    H265742   3.383   6.484   2.875 -0.3026 -1.2149  0.1160
14751TIP3   OH265743   5.986   5.436   1.544 -0.1396 -0.3755 -0.1324
14751TIP3    H165744   5.912   5.413   1.600 -0.5928  0.6480 -0.2959
14751TIP3    H265745   5.955   5.510   1.492 -0.1125 -1.9663 -2.5474
14752TIP3   OH265746   0.146   4.604  12.481 -0.8888  0.1101 -0.0964
14752TIP3    H165747   0.137   4.510  12.493 -0.8589  0.0242 -0.7607
14752TIP3    H265748   0.172   4.616  12.390  2.4314  0.5651  0.7857
14753TIP3   OH265749   5.896   1.500  11.888 -0.5677  0.1308  0.0261
14753TIP3    H165750   5.982   1.480  11.926 -0.7096  0.4364  0.5195
14753TIP3    H265751   5.841   1.426  11.911 -0.5732  0.1754  0.1546
14754TIP3   OH265752   0.973   3.954   4.668 -0.3195 -0.3764 -0.2378
14754TIP3    H165753   0.889   3.914   4.647 -0.1025 -0.3531 -1.2111
14754TIP3    H265754   0.959   4.048   4.660  0.7462 -0.3957 -4.6025
14755TIP3   OH265755   3.664   1.441   0.469 -0.7250 -0.1378 -0.2167
14755TIP3    H165756   3.654   1.508   0.402  1.9924  2.4198  1.6821
14755TIP3    H265757   3.584   1.445   0.520 -1.4442  0.1709 -1.3477
14756TIP3   OH265758   2.021   5.294  15.562  0.7167  0.4309 -0.1961
14756TIP3    H165759   2.078   5.252  15.626 -0.7919 -1.4260  0.0210
14756TIP3    H265760   1.933   5.284  15.598 -0.1806 -0.6749 -2.4962
14757TIP3   OH265761   3.489   3.831   0.580 -0.4995  0.9065  0.0053
14757TIP3    H165762   3.413   3.810   0.525 -0.0413 -1.1833  0.1065
14757TIP3    H265763   3.564   3.825   0.521 -0.1965  0.6832  0.4100
14758TIP3   OH265764   5.301   5.256  12.134  0.4261  0.2726  0.3188
14758TIP3    H165765   5.311   5.340  12.091  2.0420 -0.0072  0.0992
14758TIP3    H265766   5.314   5.275  12.227  1.7944  0.1399  0.1754
14759TIP3   OH265767   2.167   6.201  17.057  0.3668  0.2153  0.2090
14759TIP3    H165768   2.079   6.238  17.058  0.0851 -0.1138 -2.8267
14759TIP3    H265769   2.158   6.116  17.101 -0.3905  0.9267  1.4934
14760TIP3   OH265770   6.235   3.447  15.353  0.2126 -0.3101 -0.0114
14760TIP3    H165771   6.251   3.353  15.348 -0.5632 -0.4434 -0.0665
14760TIP3    H265772   6.206   3.462  15.443  1.0695  0.0015  0.2227
14761TIP3   OH265773   3.086   6.285  16.278  0.0943  0.2042  0.0948
14761TIP3    H165774   3.096   6.352  16.346 -0.1802 -0.6486  1.0107
14761TIP3    H265775   3.084   6.202  16.327 -2.3878 -0.3211 -0.7343
14762TIP3   OH265776   2.954   2.690   0.404 -0.2218  0.0332  0.0066
14762TIP3    H165777   2.983   2.686   0.494  0.2801  2.2446  0.0012
14762TIP3    H265778   3.032   2.670   0.352  0.1301  1.1953  0.0590
14763TIP3   OH265779   2.161   3.310   3.157  0.0456  0.6484  0.2075
14763TIP3    H165780   2.249   3.274   3.166 -0.3427 -0.0523  1.2619
14763TIP3    H265781   2.149   3.366   3.234 -1.6622 -1.9485  2.0123
14764TIP3   OH265782   5.820   5.845   1.273  0.2907  0.1470  1.1230
14764TIP3    H165783   5.887   5.893   1.225 -0.1499  0.4720  0.8280
14764TIP3    H265784   5.783   5.784   1.209 -0.1638  0.4449  1.0982
14765TIP3   OH265785   3.564   0.932   3.092  0.0495  0.4369 -0.4589
14765TIP3    H165786   3.526   0.918   3.005  1.3734  0.0644 -1.0063
14765TIP3    H265787   3.612   0.852   3.110  0.7501  0.9728  0.1008
14766TIP3   OH265788   5.989   0.968   5.183 -0.4408 -0.1184  0.6170
14766TIP3    H165789   5.971   1.002   5.095 -0.9357 -0.3609  0.6247
14766TIP3    H265790   5.907   0.927   5.211 -0.2261 -0.2176  1.1135
14767TIP3   OH265791   5.811   1.596  13.808  0.1097 -0.0725  0.2495
14767TIP3    H165792   5.838   1.676  13.852  0.5117 -0.9087  1.5743
14767TIP3    H265793   5.859   1.526  13.852 -3.0404 -1.4999  1.7509
14768TIP3   OH265794   3.233   0.427   3.322  0.1157 -0.3707  0.0338
14768TIP3    H165795   3.197   0.515   3.310 -1.4056 -1.0386 -0.5596
14768TIP3    H265796   3.309   0.424   3.264  1.7312  1.3513  1.9263
14769TIP3   OH265797   1.080   1.247  12.362 -0.1278  0.4214  0.0956
14769TIP3    H165798   1.166   1.264  12.399  0.4918  1.6450 -1.8072
14769TIP3    H265799   1.023   1.313  12.402  0.2425  0.8833 -0.1399
14770TIP3   OH265800   5.827   6.736   0.478 -0.1855 -0.3747 -0.2598
14770TIP3    H165801   5.831   6.645   0.508  1.6602 -0.1633  0.2851
14770TIP3    H265802   5.816   6.729   0.383 -2.3080 -1.0994 -0.0135
14771TIP3   OH265803   5.832   4.155   2.485  0.1617 -0.3748  0.1716
14771TIP3    H165804   5.881   4.212   2.544  0.2899  0.1199 -0.4068
14771TIP3    H265805   5.822   4.073   2.534  0.0207  0.1184  0.9926
14772TIP3   OH265806   3.752   0.356  12.946 -0.0749  0.2504 -0.1729
14772TIP3    H165807   3.663   0.355  12.981 -0.1645  0.0269 -0.3991
14772TIP3    H265808   3.802   0.299  13.005 -0.2448 -0.1952 -0.4497
14773TIP3   OH265809   3.039   1.059   1.190 -0.3446  0.1328 -0.0795
14773TIP3    H165810   2.971   1.084   1.127  0.3879 -1.1546 -1.4476
14773TIP3    H265811   3.049   1.136   1.246 -1.7692  0.9413 -0.8559
14774TIP3   OH265812   2.526   4.931   5.831  0.1661  0.3507 -0.4582
14774TIP3    H165813   2.432   4.929   5.853  0.2240 -2.4920 -0.1573
14774TIP3    H265814   2.528   4.926   5.736 -0.0710 -2.2346 -0.4057
14775TIP3   OH265815   2.658   6.016   1.757 -0.4587  0.1438 -0.4587
14775TIP3    H165816   2.671   6.086   1.822 -1.3859  0.5899 -0.7363
14775TIP3    H265817   2.588   5.962   1.794 -0.6281  0.0966 -0.8509
14776TIP3   OH265818   4.964   3.316   5.562  0.2528  0.0185  0.2136
14776TIP3    H165819   4.998   3.398   5.596 -0.0766 -0.0094  0.5997
14776TIP3    H265820   4.930   3.269   5.638  1.3205 -0.9018  0.1546
14777TIP3   OH265821   2.673   6.703   3.851  0.4493 -0.0070  0.2422
14777TIP3    H165822   2.596   6.713   3.906 -0.2216 -1.6045 -0.3457
14777TIP3    H265823   2.686   6.608   3.845  2.0808  0.2112 -0.2038
14778TIP3   OH265824   2.323   0.333  15.196 -0.0047  0.2597  0.4439
14778TIP3    H165825   2.336   0.271  15.125 -0.1345  1.2317 -0.4566
14778TIP3    H265826   2.393   0.398  15.184 -1.3354  1.6308 -0.1401
14779TIP3   OH265827   6.632   6.077  14.134 -1.0989  0.1042 -1.0032
14779TIP3    H165828   6.629   6.162  14.090  1.5054  0.6763 -0.2549
14779TIP3    H265829   6.701   6.028  14.089 -0.4908 -0.4405  0.4486
14780TIP3   OH265830   5.527   2.711   2.379 -0.4332  0.7309  0.1690
14780TIP3    H165831   5.524   2.628   2.331  0.5866  0.6460  0.2339
14780TIP3    H265832   5.444   2.714   2.427  0.3177 -1.2184  1.7237
14781TIP3   OH265833   3.631   1.722  12.271 -0.0120 -0.7017 -0.1961
14781TIP3    H165834   3.588   1.792  12.222 -2.1342 -2.0558 -0.3617
14781TIP3    H265835   3.616   1.643  12.220  0.8403 -1.5841  0.8553
14782TIP3   OH265836   6.825   4.227  12.261 -0.1119  0.8369 -0.7862
14782TIP3    H165837   6.757   4.216  12.194 -0.2106  3.2892 -1.1829
14782TIP3    H265838   6.875   4.303  12.232  1.9111 -0.0015  0.2811
14783TIP3   OH265839   3.777   3.210  14.484 -0.5787 -0.6130 -0.7180
14783TIP3    H165840   3.746   3.239  14.570 -0.0167 -2.2035  0.0538
14783TIP3    H265841   3.734   3.270  14.422 -0.4520  1.0082  0.6769
14784TIP3   OH265842   2.706   0.231  15.091 -0.1697 -0.0485 -0.7168
14784TIP3    H165843   2.747   0.240  15.178 -1.0017  0.2368 -0.3513
14784TIP3    H265844   2.742   0.303  15.040  2.1173 -1.5183 -1.3553
14785TIP3   OH265845   6.541   5.162   5.102 -0.1493 -0.0490  0.3510
14785TIP3    H165846   6.608   5.210   5.151  1.3617 -1.2590 -0.4347
14785TIP3    H265847   6.491   5.114   5.169 -0.0352  0.6224  0.9250
14786TIP3   OH265848   4.630   2.729  17.136 -0.0289  0.1302  0.4857
14786TIP3    H165849   4.693   2.767  17.197  0.2031 -0.4493  0.6184
14786TIP3    H265850   4.664   2.641  17.118  0.4622  0.6465 -1.2975
14787TIP3   OH265851   2.292   3.377  17.012 -0.5529  0.0458  0.1507
14787TIP3    H165852   2.269   3.337  16.929 -1.7444  1.6860 -0.3519
14787TIP3    H265853   2.388   3.378  17.013 -0.4923 -1.8749 -0.2194
14788TIP3   OH265854   4.536   3.032  13.157  0.2265  0.7195 -0.0884
14788TIP3    H165855   4.561   2.953  13.110  0.8260  0.6685  0.3063
14788TIP3    H265856   4.502   3.001  13.241  1.7880  0.9243  0.6543
14789TIP3   OH265857   1.433   6.396   2.608  0.3620 -0.0582  0.2564
14789TIP3    H165858   1.459   6.354   2.690  1.3729  1.9352  1.0264
14789TIP3    H265859   1.433   6.490   2.628 -0.6855  0.4134 -1.6766
14790TIP3   OH265860   3.999   5.963  16.242 -0.4020 -0.0957 -0.2105
14790TIP3    H165861   3.985   5.879  16.198  1.0013 -0.8825  0.7736
14790TIP3    H265862   4.058   5.943  16.315 -0.4027  1.6658  0.3275
14791TIP3   OH265863   0.795   1.844  16.241 -0.2275 -0.1922 -0.1423
14791TIP3    H165864   0.771   1.918  16.184 -1.8911 -1.0660 -0.6642
14791TIP3    H265865   0.871   1.805  16.198 -1.7277 -1.1254 -2.1333
14792TIP3   OH265866   0.752   1.288  15.241  0.0761 -0.2587 -0.5929
14792TIP3    H165867   0.754   1.194  15.223 -2.1432 -0.4012 -0.3700
14792TIP3    H265868   0.766   1.329  15.155  0.2364 -0.7843 -0.8223
14793TIP3   OH265869   5.128   3.520   5.651 -0.1571 -0.1420  0.3527
14793TIP3    H165870   5.213   3.496   5.613 -0.4714  0.1954 -0.6015
14793TIP3    H265871   5.146   3.601   5.700  0.2203 -0.4916  0.8040
14794TIP3   OH265872   2.392   4.684  13.701  0.6885 -0.3671  0.5425
14794TIP3    H165873   2.420   4.712  13.614  0.0132 -1.0724  0.0862
14794TIP3    H265874   2.320   4.623  13.685  1.1449 -1.2087  1.5643
14795TIP3   OH265875   3.577   3.494  17.160  0.6729 -0.1446 -0.5077
14795TIP3    H165876   3.667   3.523  17.143  0.4456  0.9098 -0.0218
14795TIP3    H265877   3.542   3.473  17.074  0.9316  0.8497 -0.8694
14796TIP3   OH265878   2.808   0.758  15.832 -0.3490 -0.1063 -0.3282
14796TIP3    H165879   2.902   0.775  15.824 -0.0669 -0.3029  1.9699
14796TIP3    H265880   2.792   0.683  15.773  0.9596 -0.1764 -0.6176
14797TIP3   OH265881   1.867   0.904  12.011  0.0895 -0.7843 -0.1874
14797TIP3    H165882   1.776   0.928  11.993 -0.5483 -1.1179  2.3486
14797TIP3    H265883   1.916   0.985  11.992 -0.9475 -0.0634  0.1081
14798TIP3   OH265884   4.252   5.345   3.756 -0.4548 -0.2556  0.0957
14798TIP3    H165885   4.182   5.348   3.822 -0.9330 -0.9243 -0.3633
14798TIP3    H265886   4.206   5.355   3.672 -0.1014 -1.4782 -0.2646
14799TIP3   OH265887   6.201   5.757  11.262  0.0939 -1.0323 -0.2117
14799TIP3    H165888   6.236   5.828  11.208  0.1215 -1.4763 -0.7738
14799TIP3    H265889   6.216   5.787  11.352 -0.5678  0.0128 -0.4306
14800TIP3   OH265890   0.230   6.418  14.737  0.1273 -0.1596 -0.0687
14800TIP3    H165891   0.318   6.454  14.727  0.2017 -0.2503  0.2462
14800TIP3    H265892   0.191   6.425  14.650  0.2637  0.3533 -0.0912
14801TIP3   OH265893   0.826   0.449  14.570 -0.0905  0.3875 -0.4931
14801TIP3    H165894   0.844   0.424  14.660  4.3318  0.9326 -1.0405
14801TIP3    H265895   0.749   0.506  14.576  0.3195  0.7658  2.9487
14802TIP3   OH265896   5.050   3.159   2.099  0.1839  0.5199  0.1348
14802TIP3    H165897   5.000   3.167   2.180  0.4619  0.1187  0.3470
14802TIP3    H265898   5.004   3.092   2.048  0.7105 -0.1244  0.4907
14803TIP3   OH265899   0.562   1.997  16.811 -0.1920 -0.4210  0.6665
14803TIP3    H165900   0.531   1.906  16.815 -0.9053 -0.1339  2.2735
14803TIP3    H265901   0.576   2.013  16.717  0.4685 -2.3443  0.3972
14804TIP3   OH265902   1.527   5.703   0.682 -0.2952 -0.2467  0.8226
14804TIP3    H165903   1.549   5.795   0.698 -1.1460 -0.0730  1.0598
14804TIP3    H265904   1.536   5.661   0.768 -0.5122 -0.2568  0.8394
14805TIP3   OH265905   3.154   4.204  16.016  0.4638 -0.1092  0.7230
14805TIP3    H165906   3.076   4.245  16.053  0.8993  0.3078  1.1910
14805TIP3    H265907   3.225   4.230  16.074  0.9522 -0.5135  0.3211
14806TIP3   OH265908   4.889   3.259   5.075 -0.2102  0.0028 -0.2311
14806TIP3    H165909   4.931   3.342   5.100 -1.6549  1.1308 -1.3414
14806TIP3    H265910   4.901   3.202   5.151  1.2853  1.0321  0.3633
14807TIP3   OH265911   6.609   2.885   4.032  0.4022 -0.1498 -0.0237
14807TIP3    H165912   6.615   2.803   4.080 -0.5543 -0.3241 -0.1966
14807TIP3    H265913   6.697   2.923   4.039  0.8407 -1.1579  0.0924
14808TIP3   OH265914   4.910   2.356   4.711 -0.4069  0.0822 -0.5264
14808TIP3    H165915   4.988   2.354   4.766 -1.9426  0.3188  1.8275
14808TIP3    H265916   4.841   2.320   4.767 -1.6125 -2.3360 -3.2702
14809TIP3   OH265917   3.370   2.164  13.485  0.1709  0.0613 -0.0484
14809TIP3    H165918   3.332   2.114  13.557  1.2262  1.4224  1.5625
14809TIP3    H265919   3.450   2.116  13.462  0.1775 -0.0359  0.1722
14810TIP3   OH265920   0.400   1.069   1.606 -0.5497 -0.4878 -0.6608
14810TIP3    H165921   0.428   0.978   1.610  1.6207  0.0596 -1.8252
14810TIP3    H265922   0.477   1.119   1.631 -1.1093  1.0876 -1.9165
14811TIP3   OH265923   2.787   4.304  13.907  0.4987  0.1348  0.8501
14811TIP3    H165924   2.730   4.357  13.963 -0.6926  2.1236 -1.9933
14811TIP3    H265925   2.826   4.367  13.846  1.7742 -1.8667 -0.5280
14812TIP3   OH265926   6.572   3.186  11.540  0.3144 -0.9098  0.0178
14812TIP3    H165927   6.488   3.164  11.502  0.7536 -0.8979 -0.9828
14812TIP3    H265928   6.573   3.140  11.624 -0.1586 -1.9624 -0.5351
14813TIP3   OH265929   4.630   1.545   6.651  0.4405 -0.3009  0.5420
14813TIP3    H165930   4.541   1.519   6.675  0.5727 -1.3696 -0.0391
14813TIP3    H265931   4.633   1.639   6.667 -1.2735  0.0444 -0.8929
14814TIP3   OH265932   5.895   2.192   2.427  0.2502  0.6739  0.5089
14814TIP3    H165933   5.990   2.194   2.421  0.2708  2.6903  0.9837
14814TIP3    H265934   5.877   2.164   2.517  0.3460 -0.5833  0.1599
14815TIP3   OH265935   5.400   4.795   0.774  0.9741 -0.4984 -0.4920
14815TIP3    H165936   5.412   4.887   0.796  0.5484 -0.2440 -1.2937
14815TIP3    H265937   5.432   4.788   0.684 -0.0768 -0.8825 -0.8470
14816TIP3   OH265938   2.377   2.742  11.332 -0.7256 -0.1365  0.2450
14816TIP3    H165939   2.326   2.667  11.299 -2.1791  0.3785  1.2603
14816TIP3    H265940   2.367   2.738  11.427  0.6568  0.3459  0.4303
14817TIP3   OH265941   4.026   2.610  12.763  0.0006 -0.0357 -0.2799
14817TIP3    H165942   4.067   2.696  12.767  2.1355 -0.9365 -1.4390
14817TIP3    H265943   3.975   2.612  12.682  1.1112 -0.2920 -0.9940
14818TIP3   OH265944   5.273   4.106   1.212 -0.1470  0.6793 -0.3175
14818TIP3    H165945   5.222   4.159   1.151 -2.3238 -2.2358 -1.2307
14818TIP3    H265946   5.214   4.092   1.286  0.8683  0.5657  0.4921
14819TIP3   OH265947   0.141   3.896   0.523 -0.4407  0.0740 -1.2242
14819TIP3    H165948   0.054   3.882   0.485 -0.5847  1.8120 -1.6374
14819TIP3    H265949   0.145   3.991   0.537 -1.2689 -0.4012  5.1633
14820TIP3   OH265950   5.670   0.767  15.586  0.2178  0.3593  0.2933
14820TIP3    H165951   5.583   0.808  15.587 -0.9742 -1.8910 -1.0853
14820TIP3    H265952   5.715   0.809  15.513 -0.2366  0.6240  0.1594
14821TIP3   OH265953   1.109   0.877  11.511  0.7037 -0.0729 -0.4404
14821TIP3    H165954   1.124   0.822  11.435  0.7248  0.4101 -0.7915
14821TIP3    H265955   1.113   0.817  11.586 -0.0646 -0.6789 -0.8728
14822TIP3   OH265956   2.077   5.622  16.972  0.5989  0.1610  0.0652
14822TIP3    H165957   2.144   5.586  16.914 -0.1634 -0.7857 -0.2397
14822TIP3    H265958   2.113   5.609  17.060  1.6557  1.3991 -0.1571
14823TIP3   OH265959   5.564   5.139  12.789  0.3290 -0.3293 -0.5134
14823TIP3    H165960   5.614   5.173  12.863  0.6964  0.5244 -1.1369
14823TIP3    H265961   5.514   5.066  12.825  0.6030 -0.0111  0.5404
14824TIP3   OH265962   3.044   6.727   0.545  0.0020 -0.3223 -0.2556
14824TIP3    H165963   3.051   6.699   0.454 -2.9530  0.3217 -0.7995
14824TIP3    H265964   3.046   6.646   0.595  1.2125 -0.7197 -0.9123
14825TIP3   OH265965   6.058   1.562   3.695 -0.2223 -0.5363 -0.0365
14825TIP3    H165966   6.094   1.651   3.697  1.3670 -1.1558  0.9002
14825TIP3    H265967   6.023   1.552   3.607  1.6582  0.2589 -0.9349
14826TIP3   OH265968   2.804   1.971  14.644 -0.4264 -0.1865  0.4129
14826TIP3    H165969   2.781   1.884  14.612 -0.7393  0.1118 -0.1817
14826TIP3    H265970   2.880   1.996  14.591 -0.5410  0.0351  0.3499
14827TIP3   OH265971   3.133   2.007   0.175  0.3178 -0.0074  0.2862
14827TIP3    H165972   3.217   2.048   0.200 -0.2812  2.2874 -1.1655
14827TIP3    H265973   3.123   2.027   0.082 -2.7853  1.6612  0.8356
14828TIP3   OH265974   6.199   5.621  12.943  0.1162 -0.3279 -0.0511
14828TIP3    H165975   6.158   5.546  12.988 -1.7345 -0.6701 -2.1273
14828TIP3    H265976   6.290   5.618  12.970 -0.0468 -2.9486  0.4886
14829TIP3   OH265977   1.158   2.089  11.323 -0.5574  0.3067 -0.1272
14829TIP3    H165978   1.219   2.098  11.250  0.9739  0.4561  1.1132
14829TIP3    H265979   1.127   2.178  11.340  0.6347  0.6072  0.6348
14830TIP3   OH265980   4.808   0.094  15.610  0.0915 -0.4643 -0.3054
14830TIP3    H165981   4.888   0.102  15.663  0.7579 -1.6539 -1.0963
14830TIP3    H265982   4.767   0.013  15.641  0.5475 -1.2380 -1.6504
14831TIP3   OH265983   0.248   0.528  16.357  0.2736  0.9095  0.2433
14831TIP3    H165984   0.292   0.607  16.326 -0.7845  1.0349 -1.0159
14831TIP3    H265985   0.320   0.469  16.381  1.0968  2.3794  1.6808
14832TIP3   OH265986   3.184   6.460  15.790  0.4688 -0.3267  0.0367
14832TIP3    H165987   3.121   6.508  15.736  1.1071 -1.0575 -1.4414
14832TIP3    H265988   3.268   6.501  15.770  0.6613 -0.3213  0.8411
14833TIP3   OH265989   1.728   2.602  11.302  0.2839  0.7365 -0.4363
14833TIP3    H165990   1.762   2.598  11.212  0.1865 -0.6496 -0.4224
14833TIP3    H265991   1.633   2.603  11.292  0.2531 -0.2106 -0.3438
14834TIP3   OH265992   3.345   5.723   0.406  0.6865 -0.5448  0.2265
14834TIP3    H165993   3.335   5.726   0.501  1.1834 -0.2074  0.2707
14834TIP3    H265994   3.259   5.748   0.372  0.1209 -1.9321  0.5687
14835TIP3   OH265995   5.181   3.340   1.599 -0.0660 -0.3325  0.0502
14835TIP3    H165996   5.202   3.352   1.692  2.2340 -2.0284 -0.1569
14835TIP3    H265997   5.176   3.429   1.564  2.5502  0.3683  1.1595
14836TIP3   OH265998   2.700   1.069  11.435  0.5443  0.1956  0.3632
14836TIP3    H165999   2.680   1.064  11.342 -0.2977  0.3590  0.5298
14836TIP3    H266000   2.677   0.983  11.470 -1.0624  0.7655  0.7729
14837TIP3   OH266001   2.679   3.206  12.482 -0.0535 -0.8719 -0.3498
14837TIP3    H166002   2.728   3.124  12.481  3.2559  0.9239 -0.1695
14837TIP3    H266003   2.611   3.194  12.415  0.8443 -3.4388 -0.9265
14838TIP3   OH266004   4.377   6.396   4.931 -0.3869 -0.0704  0.3399
14838TIP3    H166005   4.398   6.399   5.025 -0.2142 -0.8890  0.3353
14838TIP3    H266006   4.400   6.307   4.904  0.2606  0.3875 -0.6532
14839TIP3   OH266007   5.206   6.167  11.474 -0.1714 -0.1817 -0.2272
14839TIP3    H166008   5.134   6.105  11.485 -0.4288  0.2605  0.6301
14839TIP3    H266009   5.176   6.247  11.516 -0.2952  0.9056 -2.2619
14840TIP3   OH266010   4.653   0.418  11.635 -0.3654  0.3762  0.1335
14840TIP3    H166011   4.601   0.498  11.641  0.4730  0.9247  0.3421
14840TIP3    H266012   4.709   0.432  11.558 -3.0747 -1.7726 -2.4707
14841TIP3   OH266013   5.404   3.376  14.509 -0.2728 -0.2314 -0.3806
14841TIP3    H166014   5.351   3.303  14.542  1.6342 -1.3050  0.4840
14841TIP3    H266015   5.456   3.337  14.438  1.4691 -0.0003  0.7239
14842TIP3   OH266016   2.807   2.660   1.037 -0.2521  0.3820 -1.1174
14842TIP3    H166017   2.724   2.636   0.997  0.3977 -0.2952 -2.1103
14842TIP3    H266018   2.870   2.598   1.000  0.6400  0.6787 -0.1435
14843TIP3   OH266019   2.402   0.911  12.786  0.3525  0.1969  0.1643
14843TIP3    H166020   2.497   0.900  12.790  0.4212  0.5147 -0.3855
14843TIP3    H266021   2.386   0.994  12.831  0.3478  0.1854  0.1837
14844TIP3   OH266022   0.584   4.785  14.931  0.3478 -0.4154 -0.4062
14844TIP3    H166023   0.662   4.738  14.958  1.1099  0.7285 -0.5598
14844TIP3    H266024   0.614   4.846  14.864 -0.6456  0.1314 -0.3803
14845TIP3   OH266025   6.595   2.775  11.634 -0.4669 -0.1752 -0.2203
14845TIP3    H166026   6.519   2.793  11.579 -0.1283 -0.5341 -0.8096
14845TIP3    H266027   6.578   2.688  11.671 -0.3691 -0.2301 -0.3045
14846TIP3   OH266028   4.423   5.922  15.800 -0.0184  0.1667  0.1691
14846TIP3    H166029   4.339   5.910  15.843  0.0135 -0.3778  0.0878
14846TIP3    H266030   4.470   5.840  15.815 -0.1871 -0.2324 -1.2990
14847TIP3   OH266031   1.453   0.362  14.649 -0.0975 -0.3489 -0.9396
14847TIP3    H166032   1.531   0.307  14.639 -0.2804 -0.7074 -0.4158
14847TIP3    H266033   1.387   0.319  14.595 -0.4185 -0.9924 -0.0419
14848TIP3   OH266034   1.810   0.552  11.749  0.2454 -0.0286  0.2629
14848TIP3    H166035   1.893   0.519  11.715 -0.5760 -1.2408 -0.6587
14848TIP3    H266036   1.778   0.483  11.807 -2.1672 -1.7229 -2.7546
14849TIP3   OH266037   3.380   0.987   3.340 -0.0015  0.3579  0.2801
14849TIP3    H166038   3.415   0.996   3.429 -0.8747  1.2807  0.5562
14849TIP3    H266039   3.456   0.968   3.286  0.9069  2.0434  0.8934
14850TIP3   OH266040   2.376   0.038   1.011 -0.1468  0.0934 -0.0147
14850TIP3    H166041   2.327   0.117   0.991 -1.9333 -1.1496 -0.8374
14850TIP3    H266042   2.421   0.016   0.930  0.0502  0.0701  0.1003
14851TIP3   OH266043   5.020   2.318   5.611 -0.5474  0.2396  0.2716
14851TIP3    H166044   5.040   2.284   5.699 -0.3469 -1.9758 -0.5547
14851TIP3    H266045   4.952   2.384   5.626  0.0712  0.5044  2.1618
14852TIP3   OH266046   5.274   6.672  15.296 -0.1736  0.0387 -0.1394
14852TIP3    H166047   5.336   6.706  15.361 -1.1455  1.1295  0.2627
14852TIP3    H266048   5.321   6.678  15.213 -0.1233  2.0628 -0.0291
14853TIP3   OH266049   2.119   4.620  15.290 -0.3551  0.5299  0.2011
14853TIP3    H166050   2.200   4.572  15.276  0.5438  1.0867  2.9213
14853TIP3    H266051   2.081   4.582  15.369 -1.6020  1.7368  0.2340
14854TIP3   OH266052   3.360   2.457   0.196  0.0940 -0.2176  0.2681
14854TIP3    H166053   3.425   2.492   0.257 -1.2316 -0.2950  1.7885
14854TIP3    H266054   3.393   2.482   0.109  0.9568  1.7669  1.1000
14855TIP3   OH266055   3.867   2.212  14.014 -0.4341 -0.8633 -0.0058
14855TIP3    H166056   3.896   2.195  13.924 -1.3601  0.8355 -0.6708
14855TIP3    H266057   3.782   2.169  14.020 -1.0337  0.2228 -0.4435
14856TIP3   OH266058   1.427   6.049  11.493 -0.1405 -0.3999 -0.4089
14856TIP3    H166059   1.481   5.977  11.461  0.8525  0.4156 -0.6306
14856TIP3    H266060   1.489   6.122  11.503 -0.3183 -0.5829  3.4100
14857TIP3   OH266061   0.389   5.261   3.760  0.4106 -0.3529 -0.1707
14857TIP3    H166062   0.411   5.217   3.678 -0.6953 -1.1888 -0.0328
14857TIP3    H266063   0.294   5.254   3.766  0.2335  1.6745  0.0883
14858TIP3   OH266064   4.803   6.581  14.920 -0.2629  0.0601  0.0803
14858TIP3    H166065   4.834   6.660  14.875  0.1941 -0.4645 -0.5577
14858TIP3    H266066   4.841   6.587  15.008  1.0083 -0.1630 -0.4272
14859TIP3   OH266067   3.249   3.681  11.277 -0.0992  0.8027 -0.2673
14859TIP3    H166068   3.182   3.612  11.275  0.0976  0.5678  0.6551
14859TIP3    H266069   3.331   3.635  11.288 -0.1363  1.2012  2.5946
14860TIP3   OH266070   5.392   3.102  16.413  0.0910  0.5674  0.4144
14860TIP3    H166071   5.311   3.133  16.373 -0.6563 -1.4194  0.2916
14860TIP3    H266072   5.368   3.021  16.458  1.5602  1.1046  2.2960
14861TIP3   OH266073   4.349   3.741   3.066 -0.5098  0.7332 -0.0405
14861TIP3    H166074   4.340   3.762   3.159 -1.2743 -0.2928  0.1410
14861TIP3    H266075   4.443   3.746   3.048 -0.0994 -1.1155  1.3177
14862TIP3   OH266076   3.840   5.518   5.246  0.0407 -0.0269  0.2918
14862TIP3    H166077   3.921   5.543   5.291 -0.1930 -1.0060  1.3080
14862TIP3    H266078   3.869   5.464   5.172  0.3159 -0.4793  0.7258
14863TIP3   OH266079   5.031   4.497  14.273 -0.1194  0.0554 -0.3944
14863TIP3    H166080   4.986   4.557  14.213 -0.6187 -1.4685 -1.6091
14863TIP3    H266081   5.078   4.437  14.216  2.1999  0.6047  0.8381
14864TIP3   OH266082   6.691   2.950   3.500  0.0397  0.2727  0.4177
14864TIP3    H166083   6.619   2.935   3.562 -0.3344 -0.8102 -0.2538
14864TIP3    H266084   6.753   2.879   3.518  0.7438  0.9419  0.6879
14865TIP3   OH266085   2.804   5.688  12.016 -0.2943 -0.9454  0.3318
14865TIP3    H166086   2.823   5.670  11.924 -0.3129 -2.4593  0.5985
14865TIP3    H266087   2.709   5.689  12.021 -0.3949 -3.8058  0.7878
14866TIP3   OH266088   2.984   6.456  15.586 -0.4903 -0.1366  0.4280
14866TIP3    H166089   2.966   6.545  15.555 -1.9508 -0.0949  1.3005
14866TIP3    H266090   3.051   6.423  15.526 -0.1159  1.4464 -0.0765
14867TIP3   OH266091   1.768   4.590  11.524  0.9028 -0.0048  0.2059
14867TIP3    H166092   1.823   4.653  11.476 -2.6567  3.3339 -0.0152
14867TIP3    H266093   1.679   4.609  11.495 -1.0333 -1.0406  4.6168
14868TIP3   OH266094   3.381   3.320   4.279  0.2513 -0.1299  0.0139
14868TIP3    H166095   3.302   3.269   4.299 -0.1576 -0.0199 -1.2401
14868TIP3    H266096   3.409   3.354   4.364 -2.3359  1.6527  0.2870
14869TIP3   OH266097   6.722   1.166  14.286  0.5705 -0.0204  0.4881
14869TIP3    H166098   6.630   1.137  14.284  0.8482 -0.9110 -0.6704
14869TIP3    H266099   6.736   1.204  14.199  1.3335 -0.0101  0.6138
14870TIP3   OH266100   1.412   2.839  16.769 -0.1031  0.2581 -0.0128
14870TIP3    H166101   1.499   2.802  16.752  0.4885  1.2854  0.7307
14870TIP3    H266102   1.377   2.786  16.840  1.4106  2.0504  2.1987
14871TIP3   OH266103   4.920   1.304   4.436  0.6356 -0.2825  0.1909
14871TIP3    H166104   4.945   1.212   4.446 -0.0654 -0.3636  1.3931
14871TIP3    H266105   4.898   1.312   4.343 -2.6468 -2.2775  0.6057
14872TIP3   OH266106   1.557   4.344  16.399 -0.0092  0.2477  0.2769
14872TIP3    H166107   1.518   4.404  16.463 -0.9685 -0.9323  0.8486
14872TIP3    H266108   1.482   4.305  16.354  0.3450 -2.7558  2.0122
14873TIP3   OH266109   6.518   5.583  14.247  0.0987  0.1040  0.4307
14873TIP3    H166110   6.506   5.561  14.340  0.5410 -2.1154  0.0298
14873TIP3    H266111   6.534   5.498  14.205  0.1862  1.0982 -1.6404
14874TIP3   OH266112   1.714   4.643   2.232 -0.4100 -0.3451  0.1449
14874TIP3    H166113   1.791   4.644   2.288  0.4817  0.1383 -1.0572
14874TIP3    H266114   1.694   4.735   2.214 -1.2155 -0.4640  0.3608
14875TIP3   OH266115   1.959   1.866   0.103  0.0726 -0.5428  1.0531
14875TIP3    H166116   1.868   1.843   0.119 -0.5649  0.1971 -1.1620
14875TIP3    H266117   1.960   1.961   0.099  0.2943 -0.5692 -1.8161
14876TIP3   OH266118   3.215   5.280  17.076  0.3315  0.4023  0.0757
14876TIP3    H166119   3.239   5.256  17.165  3.4308  1.2912 -0.3952
14876TIP3    H266120   3.149   5.347  17.086 -0.3606 -0.4608  1.6426
14877TIP3   OH266121   6.141   0.709   1.678  0.1540  0.2133 -0.6066
14877TIP3    H166122   6.181   0.788   1.642 -1.6926  1.1124 -0.7694
14877TIP3    H266123   6.070   0.688   1.617 -0.6787 -0.3753  0.5323
14878TIP3   OH266124   1.211   1.951  10.837 -0.4855  0.0076  0.3606
14878TIP3    H166125   1.201   1.867  10.793  0.8194  0.1205 -0.2072
14878TIP3    H266126   1.248   2.009  10.770 -2.6056  1.4538  0.3209
14879TIP3   OH266127   3.988   1.096  13.751  0.5360 -0.4253 -0.7760
14879TIP3    H166128   4.023   1.063  13.668  2.5218 -3.2940  1.0304
14879TIP3    H266129   4.065   1.119  13.802 -0.6281  0.9047  0.4856
14880TIP3   OH266130   1.127   1.351   3.464 -0.0399  0.1041  0.6235
14880TIP3    H166131   1.050   1.367   3.409  0.7892 -1.2701 -1.0409
14880TIP3    H266132   1.135   1.256   3.467  1.4618  0.2189  0.9504
14881TIP3   OH266133   4.379   1.378   5.419 -0.2410  0.5822  0.9342
14881TIP3    H166134   4.291   1.340   5.415  0.6002 -1.3484 -0.6850
14881TIP3    H266135   4.371   1.449   5.483 -3.1260  0.9140  0.3465
14882TIP3   OH266136   2.059   6.692   1.987  0.1525  0.9876 -0.0465
14882TIP3    H166137   1.965   6.708   1.973 -0.1686 -0.7184 -0.0502
14882TIP3    H266138   2.081   6.625   1.924  0.9380  0.0245  1.2096
14883TIP3   OH266139   0.038   6.294  10.925 -0.3131  0.1211 -0.5803
14883TIP3    H166140   0.078   6.346  10.856 -1.0268  1.2234 -0.1863
14883TIP3    H266141   0.112   6.256  10.972  0.3830  2.6722  0.5784
14884TIP3   OH266142   5.868   5.907  12.187  0.8107 -0.4634 -0.5952
14884TIP3    H166143   5.956   5.887  12.155 -0.1072 -2.1899 -2.2855
14884TIP3    H266144   5.811   5.851  12.135 -1.3397  0.8738  0.1973
14885TIP3   OH266145   6.340   6.190   0.891 -0.1302  0.4619  0.3675
14885TIP3    H166146   6.335   6.146   0.806  0.0006 -0.8989  1.0399
14885TIP3    H266147   6.431   6.182   0.917 -0.4357 -0.2908  1.2259
14886TIP3   OH266148   5.501   0.621  14.989 -0.5344  0.7454 -0.0301
14886TIP3    H166149   5.432   0.680  14.957  0.5665  1.6269 -0.9031
14886TIP3    H266150   5.532   0.662  15.070 -1.3472  0.0755  0.6424
14887TIP3   OH266151   1.952   1.044   1.269 -0.4937  0.2025  0.3625
14887TIP3    H166152   2.010   1.001   1.333  1.4134  0.9935 -0.7537
14887TIP3    H266153   1.940   1.132   1.304 -0.8058  0.1276  0.4465
14888TIP3   OH266154   3.705   6.743   4.974 -0.3064  0.1502  0.0799
14888TIP3    H166155   3.787   6.770   5.014  0.1952 -0.5819 -0.4299
14888TIP3    H266156   3.669   6.677   5.033 -1.2671  1.4990  1.0507
14889TIP3   OH266157   3.613   1.513   0.034  0.0488  0.3916  0.4639
14889TIP3    H166158   3.542   1.456   0.064  1.3776 -1.2275  0.7358
14889TIP3    H266159   3.638   1.563   0.111  0.9261 -0.9943  1.1293
14890TIP3   OH266160   2.260   0.049   1.392  0.1390  0.1787 -0.6800
14890TIP3    H166161   2.260   0.138   1.357 -1.4801  0.1660 -0.7864
14890TIP3    H266162   2.208   0.054   1.472  1.6775 -0.3090  0.3908
14891TIP3   OH266163   5.956   5.019  15.005  0.5420 -0.0707 -0.3495
14891TIP3    H166164   5.967   4.967  15.084 -0.6979 -0.6292 -0.5256
14891TIP3    H266165   6.034   5.001  14.953  1.1702 -0.0164  0.5593
14892TIP3   OH266166   4.511   0.568  15.424 -0.2837 -0.4645 -0.0160
14892TIP3    H166167   4.572   0.558  15.351  0.8152  1.1332  0.6267
14892TIP3    H266168   4.427   0.587  15.383  0.1963 -0.1475 -0.8799
14893TIP3   OH266169   3.972   3.283   3.260 -0.0075  0.4573  0.2971
14893TIP3    H166170   3.903   3.291   3.326 -0.8552 -1.4361 -0.2910
14893TIP3    H266171   3.925   3.269   3.178  1.0494  0.0567 -0.2580
14894TIP3   OH266172   0.484   4.192   2.574 -0.1246  0.2805  0.3051
14894TIP3    H166173   0.525   4.106   2.588  1.3970  0.9241  0.0853
14894TIP3    H266174   0.437   4.182   2.491  0.8258 -0.1054 -0.2171
14895TIP3   OH266175   2.332   4.137  13.858 -0.4030 -1.1087  0.0433
14895TIP3    H166176   2.420   4.170  13.839 -1.1364  0.3031 -1.1500
14895TIP3    H266177   2.330   4.051  13.816  0.4870 -1.2717  0.3086
14896TIP3   OH266178   3.975   2.298  14.974  0.1483  0.1766 -0.4956
14896TIP3    H166179   3.907   2.268  14.914  0.9665 -1.9553 -0.4365
14896TIP3    H266180   4.011   2.376  14.932  0.2755 -0.8869 -2.4674
14897TIP3   OH266181   3.794   6.313   2.676  0.0636  0.1342  0.1232
14897TIP3    H166182   3.783   6.404   2.649 -0.2336 -0.7214 -3.0914
14897TIP3    H266183   3.865   6.280   2.621 -0.8968 -1.9673  0.0458
14898TIP3   OH266184   0.391   0.217   1.926  0.2031  0.4462  0.3342
14898TIP3    H166185   0.381   0.214   1.831 -1.9324  0.1757  0.5251
14898TIP3    H266186   0.321   0.162   1.960  1.2559  0.0977  2.0807
14899TIP3   OH266187   0.254   6.216  14.904 -0.1201  0.0793  0.1861
14899TIP3    H166188   0.200   6.234  14.981  0.4320 -0.2732  0.6718
14899TIP3    H266189   0.253   6.297  14.854 -0.8923  0.1528  0.3110
14900TIP3   OH266190   3.535   6.571  15.150  0.4319  0.4929  0.1260
14900TIP3    H166191   3.525   6.483  15.186 -0.0123  0.4242 -0.1508
14900TIP3    H266192   3.456   6.618  15.178 -0.9812 -0.1533 -2.3720
14901TIP3   OH266193   3.067   4.225  13.614  0.1485  0.4347 -0.2486
14901TIP3    H166194   3.058   4.277  13.534 -0.4112  1.3658  0.3995
14901TIP3    H266195   3.161   4.219  13.629  0.2947 -0.3783 -1.3650
14902TIP3   OH266196   0.339   3.799  13.284  0.1375 -0.1862  0.2111
14902TIP3    H166197   0.305   3.754  13.206 -1.1375  0.5046  0.3460
14902TIP3    H266198   0.290   3.762  13.357  1.1871 -0.6844  0.6915
14903TIP3   OH266199   6.077   2.670  10.279 -0.4236 -0.7348  0.7427
14903TIP3    H166200   6.089   2.576  10.288  1.3992 -0.7045 -0.7450
14903TIP3    H266201   6.077   2.686  10.185 -1.1767  0.7202  0.9494
14904TIP3   OH266202   1.732   2.211  14.126 -0.0376 -0.3495 -0.0183
14904TIP3    H166203   1.777   2.240  14.206  1.7549  1.0052 -1.4238
14904TIP3    H266204   1.670   2.281  14.107 -0.6258 -0.7805  0.3001
14905TIP3   OH266205   2.545   6.563   0.371  0.1409 -0.4746 -0.4830
14905TIP3    H166206   2.557   6.469   0.356  0.5947 -1.1752  3.2933
14905TIP3    H266207   2.451   6.574   0.382 -0.2295  0.0937 -3.2881
14906TIP3   OH266208   1.120   2.362   4.542  0.9173 -0.0756 -0.2098
14906TIP3    H166209   1.136   2.329   4.630  1.2709  1.5377  0.3640
14906TIP3    H266210   1.050   2.426   4.552 -1.5202 -2.3452 -1.6941
14907TIP3   OH266211   0.145   0.771  16.963  0.3310 -0.1346 -0.1748
14907TIP3    H166212   0.173   0.849  17.011 -0.9342 -0.4702  1.1688
14907TIP3    H266213   0.050   0.774  16.964  0.2090 -2.2637  0.9376
14908TIP3   OH266214   5.606   2.791  14.816 -0.0657  0.0610  0.3027
14908TIP3    H166215   5.652   2.835  14.888 -1.5053  1.7285  0.2722
14908TIP3    H266216   5.672   2.734  14.777  1.7533  1.7282  0.7755
14909TIP3   OH266217   0.424   2.492   5.483  0.4374 -0.0757  0.1182
14909TIP3    H166218   0.333   2.508   5.508  0.8006  0.5852  1.0769
14909TIP3    H266219   0.419   2.462   5.392 -0.6278  1.6122 -0.4232
14910TIP3   OH266220   4.134   4.035   4.797 -0.0713  0.6130  0.5454
14910TIP3    H166221   4.076   4.023   4.872 -0.3850  0.3637  0.2670
14910TIP3    H266222   4.082   4.082   4.733  0.6216  2.0257  0.9821
14911TIP3   OH266223   5.562   6.536  16.975 -0.1005 -0.1405 -0.0227
14911TIP3    H166224   5.608   6.568  16.898 -1.4209  4.1279  0.6925
14911TIP3    H266225   5.470   6.549  16.955 -0.5884 -1.1204  1.4466
14912TIP3   OH266226   0.214   6.501  13.659  0.5389  0.0458  0.0277
14912TIP3    H166227   0.276   6.514  13.587 -0.7439  0.0034 -1.1471
14912TIP3    H266228   0.257   6.537  13.736  2.6173 -1.3175 -0.4203
14913TIP3   OH266229   2.427   5.355   5.674  0.1513  0.2898 -0.0799
14913TIP3    H166230   2.338   5.319   5.669  0.2341  0.2480 -2.4396
14913TIP3    H266231   2.414   5.446   5.702 -0.5924  0.1845 -0.0648
14914TIP3   OH266232   6.413   2.528  11.701 -0.3087 -0.4831  0.0906
14914TIP3    H166233   6.389   2.483  11.621 -1.6601 -2.3669  1.4702
14914TIP3    H266234   6.331   2.540  11.748  0.5653 -0.5320  1.7288
14915TIP3   OH266235   3.974   1.633   2.650 -0.1043 -0.2069 -0.3452
14915TIP3    H166236   3.985   1.608   2.742 -0.8457  1.0013  0.0966
14915TIP3    H266237   3.915   1.567   2.613 -0.6229 -0.1230  0.3219
14916TIP3   OH266238   0.149   2.443   5.086 -0.2168  0.7007 -0.4099
14916TIP3    H166239   0.196   2.424   5.005  0.9231  1.5860  0.0172
14916TIP3    H266240   0.166   2.536   5.103 -0.8259  0.6490  0.5957
14917TIP3   OH266241   5.578   3.805  11.698  0.3553  0.0126 -0.2272
14917TIP3    H166242   5.564   3.857  11.620  0.0706  0.7102  0.2764
14917TIP3    H266243   5.492   3.798  11.739  0.2163 -1.5732 -0.7124
14918TIP3   OH266244   2.713   0.319   4.499  0.0794 -0.0711  0.3612
14918TIP3    H166245   2.722   0.378   4.574  1.1506  2.1430 -1.3664
14918TIP3    H266246   2.646   0.360   4.445 -0.6622 -1.6265  0.0722
14919TIP3   OH266247   4.952   1.740   5.069  0.4060  0.3763 -0.7125
14919TIP3    H166248   4.887   1.673   5.051 -0.4662  0.6976  0.9898
14919TIP3    H266249   4.904   1.807   5.118  1.7008  1.3042 -0.6650
14920TIP3   OH266250   2.891   1.421   3.644 -0.3096 -0.2120 -0.5443
14920TIP3    H166251   2.811   1.372   3.665  0.2557 -0.9492 -0.0373
14920TIP3    H266252   2.924   1.380   3.565 -0.4663  0.1450 -0.7981
14921TIP3   OH266253   4.116   2.630   5.573 -0.3112  0.1359 -0.8940
14921TIP3    H166254   4.086   2.721   5.578  0.3110  0.3671 -1.2846
14921TIP3    H266255   4.037   2.580   5.552 -1.0158  0.3484  1.0447
14922TIP3   OH266256   1.339   5.019  14.256 -0.1637 -0.1766  0.5605
14922TIP3    H166257   1.414   5.042  14.201 -0.7105 -1.6257 -0.8982
14922TIP3    H266258   1.362   5.050  14.343  1.7907  0.1074 -0.0099
14923TIP3   OH266259   6.450   5.820  10.865 -0.2226 -0.8191  0.0417
14923TIP3    H166260   6.493   5.859  10.789 -0.8554  1.0721  0.5830
14923TIP3    H266261   6.480   5.730  10.866 -0.7203 -1.1250 -2.8354
14924TIP3   OH266262   5.320   5.333  12.410 -0.2943  0.3765 -0.2470
14924TIP3    H166263   5.377   5.401  12.374 -1.6242  1.4615 -0.3613
14924TIP3    H266264   5.328   5.344  12.505 -0.2894  0.5102 -0.2620
14925TIP3   OH266265   0.100   1.468   5.096  0.5464  0.1368 -0.9259
14925TIP3    H166266   0.048   1.465   5.015 -0.5888  0.8952 -0.2649
14925TIP3    H266267   0.157   1.544   5.085  1.4709 -0.6285 -1.6064
14926TIP3   OH266268   1.983   5.305  12.673  0.1408 -0.6690 -0.9675
14926TIP3    H166269   2.028   5.322  12.590 -0.0789  1.2982 -0.7213
14926TIP3    H266270   1.951   5.390  12.702  0.9664 -1.1107  1.5883
14927TIP3   OH266271   3.875   0.525  14.126  0.4742  0.2078  0.0385
14927TIP3    H166272   3.791   0.563  14.100  1.4871  1.5738 -1.3830
14927TIP3    H266273   3.883   0.546  14.219  0.2218  1.9861 -0.3162
14928TIP3   OH266274   2.600   0.917   3.464 -0.2189  0.0315 -0.3903
14928TIP3    H166275   2.603   0.906   3.369 -0.5936 -1.1584 -0.2706
14928TIP3    H266276   2.609   0.829   3.499 -0.1425  0.4548  0.6843
14929TIP3   OH266277   4.543   4.889  12.023  0.0342 -0.2521 -0.8706
14929TIP3    H166278   4.493   4.932  11.954 -1.3695 -0.7956 -0.2185
14929TIP3    H266279   4.520   4.797  12.016  0.2789 -0.3882 -0.0047
14930TIP3   OH266280   5.686   3.789   5.172  0.0971 -0.3981 -0.6313
14930TIP3    H166281   5.647   3.746   5.248  3.5171  0.3131  1.7563
14930TIP3    H266282   5.636   3.870   5.163 -0.4085 -0.5077  0.8386
14931TIP3   OH266283   1.383   0.380  17.101  0.2699  0.4867 -0.5504
14931TIP3    H166284   1.452   0.316  17.121 -0.6915 -0.8785 -1.4749
14931TIP3    H266285   1.312   0.358  17.161  0.5652  1.8525  0.3566
14932TIP3   OH266286   2.550   0.472  16.217 -0.2095  0.0845 -0.0888
14932TIP3    H166287   2.496   0.426  16.282  0.6353 -0.1345  0.4873
14932TIP3    H266288   2.517   0.441  16.133 -2.6185  1.8294  0.1223
14933TIP3   OH266289   0.895   1.412   3.295 -0.8086  0.0932  0.2318
14933TIP3    H166290   0.834   1.430   3.367 -0.5006 -0.2959  0.5988
14933TIP3    H266291   0.842   1.420   3.216 -1.6034 -1.3042  0.5946
14934TIP3   OH266292   3.638   2.381  13.575  0.0260  0.3075 -0.2089
14934TIP3    H166293   3.570   2.407  13.637 -0.2961 -0.8367 -0.0792
14934TIP3    H266294   3.618   2.431  13.496 -0.6883  0.3276 -0.0247
14935TIP3   OH266295   1.351   0.522   3.639 -0.6251 -0.2864 -0.2746
14935TIP3    H166296   1.383   0.450   3.692  0.2001  1.0807  1.1625
14935TIP3    H266297   1.263   0.494   3.612 -0.1074 -2.0437 -0.2429
14936TIP3   OH266298   0.420   6.306   4.622  0.6554 -0.0740 -0.0317
14936TIP3    H166299   0.396   6.397   4.638 -0.4310 -0.4921  0.8032
14936TIP3    H266300   0.434   6.301   4.527  0.7238  0.9515 -0.0856
14937TIP3   OH266301   1.319   0.236  11.171 -0.4629  0.3349 -0.3605
14937TIP3    H166302   1.332   0.151  11.214  2.9672  0.6243 -0.5162
14937TIP3    H266303   1.241   0.224  11.117 -0.1424 -2.7073 -0.3229
14938TIP3   OH266304   6.456   3.802  11.586  0.3246 -0.3472 -0.5287
14938TIP3    H166305   6.385   3.743  11.562  0.6405 -0.9584  0.0295
14938TIP3    H266306   6.531   3.771  11.536  0.0577  0.7201 -1.6530
14939TIP3   OH266307   5.635   6.163  15.320 -0.7404 -0.1283 -0.3771
14939TIP3    H166308   5.675   6.173  15.233 -2.0795 -0.4042 -1.0576
14939TIP3    H266309   5.552   6.119  15.303 -1.1049 -0.0389  1.0394
14940TIP3   OH266310   2.834   6.274   6.372  0.7437  0.2568  0.5510
14940TIP3    H166311   2.758   6.294   6.318  0.0896  1.5045  1.8859
14940TIP3    H266312   2.815   6.188   6.409  1.1968 -0.6148 -1.1428
14941TIP3   OH266313   3.374   4.673   0.221 -0.0273 -0.2115  0.3769
14941TIP3    H166314   3.321   4.626   0.156 -0.2142  2.2056 -1.3605
14941TIP3    H266315   3.330   4.656   0.304 -2.6190  0.3260 -0.7712
14942TIP3   OH266316   0.574   1.314  17.041  0.0200 -0.5739  0.3117
14942TIP3    H166317   0.615   1.246  17.094 -1.2048 -0.8140  1.0031
14942TIP3    H266318   0.646   1.353  16.991  0.9466 -1.4575  0.9184
14943TIP3   OH266319   1.968   4.490   5.758  0.8259 -0.3165  0.3289
14943TIP3    H166320   1.887   4.453   5.726  1.3758 -0.7127 -0.6506
14943TIP3    H266321   2.006   4.423   5.815  1.4558 -0.9879 -0.8489
14944TIP3   OH266322   5.269   4.986   4.729 -0.1090  0.0137  0.0790
14944TIP3    H166323   5.230   4.950   4.809 -1.0229  0.7749 -0.0115
14944TIP3    H266324   5.361   5.000   4.752  0.1102 -1.6260  0.3529
14945TIP3   OH266325   0.948   6.250  16.586 -0.2926 -0.2406 -0.5736
14945TIP3    H166326   0.906   6.311  16.646 -0.2902 -0.8539  0.0754
14945TIP3    H266327   1.008   6.200  16.642  0.5522 -0.0604 -1.3018
14946TIP3   OH266328   2.155   1.436  12.498  0.4920  0.2780 -0.2704
14946TIP3    H166329   2.140   1.520  12.541 -1.0468 -0.0708 -0.0973
14946TIP3    H266330   2.158   1.372  12.569  0.1016 -0.0134 -0.5091
14947TIP3   OH266331   6.646   0.246   0.806 -0.1498  0.0529  0.3141
14947TIP3    H166332   6.704   0.178   0.841  1.3919  0.3597 -1.4427
14947TIP3    H266333   6.630   0.218   0.716  0.2739  1.8518 -0.3436
14948TIP3   OH266334   0.486   3.191  15.047  0.1113 -0.3227  0.2638
14948TIP3    H166335   0.575   3.168  15.018  0.6564 -1.2130  2.4064
14948TIP3    H266336   0.431   3.177  14.970  1.8458  0.5745 -1.2157
14949TIP3   OH266337   5.387   1.525   0.951 -0.5149 -0.1686 -0.5440
14949TIP3    H166338   5.376   1.570   1.035 -0.9946 -1.5200  0.1441
14949TIP3    H266339   5.480   1.501   0.949 -0.7296 -1.0889  0.1148
14950TIP3   OH266340   2.947   6.131  13.986 -1.0570 -0.3369  0.1490
14950TIP3    H166341   3.004   6.155  13.913 -0.9266  0.4141  0.4841
14950TIP3    H266342   2.957   6.203  14.048 -1.3107 -0.8767  0.8229
14951TIP3   OH266343   2.977   3.467  16.763 -0.1396  0.5742  0.1001
14951TIP3    H166344   2.985   3.558  16.735  3.2476  0.5452  0.6655
14951TIP3    H266345   2.989   3.469  16.858 -1.6558 -0.3531  0.3485
14952TIP3   OH266346   0.783   1.644  10.650  0.1044  0.3939  0.0699
14952TIP3    H166347   0.866   1.641  10.603  0.2970 -0.3591  0.4467
14952TIP3    H266348   0.730   1.574  10.611  0.2036 -0.1214  0.8323
14953TIP3   OH266349   6.649   0.926  14.576  0.7417 -0.0163 -0.3094
14953TIP3    H166350   6.638   0.838  14.612 -0.3261  0.0109 -0.5251
14953TIP3    H266351   6.648   0.984  14.652  0.6678 -0.1337 -0.2210
14954TIP3   OH266352   1.935   1.290   0.479  0.3241  0.3717  0.2809
14954TIP3    H166353   1.878   1.357   0.515 -1.2747 -0.9301  0.3261
14954TIP3    H266354   2.022   1.330   0.475 -0.2205  1.8126  1.9509
14955TIP3   OH266355   2.558   3.302  13.608  0.2363  0.1116 -0.1267
14955TIP3    H166356   2.590   3.336  13.692 -2.2521  1.7624  0.2898
14955TIP3    H266357   2.607   3.351  13.542  0.7474  0.3333  0.4121
14956TIP3   OH266358   4.699   2.827   5.144 -0.3410  0.6663 -0.6103
14956TIP3    H166359   4.701   2.841   5.239 -1.9695  0.5957 -0.5294
14956TIP3    H266360   4.630   2.762   5.132  0.1398  0.3586 -1.8262
14957TIP3   OH266361   4.501   3.946   4.288 -0.0218 -0.2389 -0.8431
14957TIP3    H166362   4.510   3.875   4.224 -2.2685 -1.5570  0.1812
14957TIP3    H266363   4.525   3.906   4.371  1.4258  1.0391 -0.6157
14958TIP3   OH266364   0.835   2.968  15.116 -1.2313  0.4689 -0.1826
14958TIP3    H166365   0.850   2.902  15.048 -1.1668 -0.8138  1.0238
14958TIP3    H266366   0.831   3.051  15.068  0.2301 -0.2089 -1.5922
14959TIP3   OH266367   4.050   2.572  15.615 -0.4722  0.4742  0.2665
14959TIP3    H166368   4.045   2.653  15.665 -2.0284  1.6268 -1.6261
14959TIP3    H266369   3.987   2.514  15.658 -0.7186  0.9277  0.5318
14960TIP3   OH266370   4.285   4.460  16.056 -0.6488 -0.0831 -0.4386
14960TIP3    H166371   4.258   4.437  15.967  0.2212  0.1108 -0.7616
14960TIP3    H266372   4.280   4.377  16.104 -0.3286 -0.3627 -0.8767
14961TIP3   OH266373   6.477   4.439   3.088 -0.0687 -0.1258  0.5387
14961TIP3    H166374   6.484   4.410   2.996 -0.9503 -0.9103  0.6943
14961TIP3    H266375   6.389   4.476   3.094 -0.3030 -0.7667  1.2372
14962TIP3   OH266376   2.726   2.893  12.206  0.3403 -0.0081 -0.0185
14962TIP3    H166377   2.717   2.986  12.183 -1.0978 -0.1569 -0.1923
14962TIP3    H266378   2.816   2.884  12.235  1.0071  1.0909 -1.5930
14963TIP3   OH266379   1.200   6.543   1.134  0.1883  0.0427  0.0756
14963TIP3    H166380   1.220   6.599   1.209  0.4215  0.1523 -0.0664
14963TIP3    H266381   1.133   6.483   1.166 -0.0999  0.4364  0.2092
14964TIP3   OH266382   2.068   4.041   0.686 -0.1945 -0.0694  0.4520
14964TIP3    H166383   2.158   4.043   0.654  0.6873  0.0150  2.7623
14964TIP3    H266384   2.031   4.125   0.660 -0.1883 -0.6944 -1.8730
14965TIP3   OH266385   1.060   1.702  10.379  0.2549  0.5124 -0.5330
14965TIP3    H166386   1.096   1.614  10.367  1.4697  1.0904 -1.4314
14965TIP3    H266387   1.069   1.719  10.473 -0.7712 -0.6161 -0.2066
14966TIP3   OH266388   5.164   2.054  15.373 -0.4467 -0.2664  0.1751
14966TIP3    H166389   5.247   2.022  15.409 -0.7061 -0.5750  0.5084
14966TIP3    H266390   5.113   1.974  15.357 -0.3351 -0.1422 -0.8943
14967TIP3   OH266391   0.448   5.731  12.511  0.1782 -0.4866 -0.4047
14967TIP3    H166392   0.458   5.722  12.606 -0.0527  2.4972 -0.0064
14967TIP3    H266393   0.362   5.694  12.493 -1.0922  1.4750  1.0961
14968TIP3   OH266394   1.253   3.885   1.932  0.0295 -1.0038 -0.5521
14968TIP3    H166395   1.167   3.864   1.894 -0.1117 -0.9618 -0.2575
14968TIP3    H266396   1.247   3.977   1.956  0.6499 -0.6015 -1.8398
14969TIP3   OH266397   4.921   1.708   5.754  0.2750 -0.5696  0.2447
14969TIP3    H166398   4.991   1.730   5.816  0.2191 -1.5394  0.6629
14969TIP3    H266399   4.840   1.718   5.804  0.2603 -1.9422  0.5348
14970TIP3   OH266400   6.186   5.184  14.680  0.3370 -0.4049 -0.0013
14970TIP3    H166401   6.208   5.233  14.600 -0.1656 -1.6813 -0.9669
14970TIP3    H266402   6.123   5.239  14.725  1.0203  0.5823 -0.2011
14971TIP3   OH266403   5.413   6.062  11.705  0.1042  0.0578  0.8331
14971TIP3    H166404   5.472   6.125  11.747  1.4896 -0.9565  0.4293
14971TIP3    H266405   5.414   6.086  11.612 -1.1755  0.8438  0.9820
14972TIP3   OH266406   1.169   6.181  15.504 -0.3198  0.1528  0.6475
14972TIP3    H166407   1.130   6.231  15.432 -1.8315  0.4801  1.6434
14972TIP3    H266408   1.260   6.211  15.508 -0.2387  0.2095 -1.0268
14973TIP3   OH266409   6.557   1.578   2.757  0.1939  0.0150 -0.4013
14973TIP3    H166410   6.471   1.609   2.729  0.0319 -0.2616 -0.2241
14973TIP3    H266411   6.596   1.652   2.802  0.0231  0.1267 -0.4365
14974TIP3   OH266412   2.696   2.084   0.790  0.4947  0.1582 -0.1816
14974TIP3    H166413   2.716   2.166   0.834 -0.1078  0.4015 -0.3577
14974TIP3    H266414   2.602   2.072   0.801  0.2921  0.3007 -1.5019
14975TIP3   OH266415   1.456   3.948   2.751 -0.1202 -0.1062 -0.6218
14975TIP3    H166416   1.397   4.020   2.771 -0.2612 -0.5165  0.4977
14975TIP3    H266417   1.410   3.897   2.684 -0.7313 -0.0476 -0.2486
14976TIP3   OH266418   2.777   5.786  11.530 -0.6008 -0.4883  0.5738
14976TIP3    H166419   2.770   5.881  11.533  1.4482 -0.3047  1.4189
14976TIP3    H266420   2.849   5.769  11.470 -1.0513 -1.5342  0.2953
14977TIP3   OH266421   1.788   1.986  10.283 -0.0502  0.4083  0.4752
14977TIP3    H166422   1.796   2.027  10.369  0.7665  0.7197  0.2581
14977TIP3    H266423   1.857   1.920  10.281  1.0213  1.5083 -0.5399
14978TIP3   OH266424   4.980   5.596   0.782  0.4274  0.1651 -0.2613
14978TIP3    H166425   5.028   5.608   0.700 -0.7620  0.3115 -0.9564
14978TIP3    H266426   4.905   5.541   0.759  0.1069  0.1509  0.7470
14979TIP3   OH266427   1.131   4.970  16.795  0.2616 -0.0770  0.0264
14979TIP3    H166428   1.046   4.930  16.777  0.5058 -1.2377  1.2841
14979TIP3    H266429   1.132   5.049  16.742 -2.1841  0.7033  1.0116
14980TIP3   OH266430   0.240   1.235   0.306  0.2084  0.1649 -0.0042
14980TIP3    H166431   0.146   1.245   0.317  0.3433 -0.2646  1.8605
14980TIP3    H266432   0.252   1.146   0.272  0.0308 -0.8787  2.4540
14981TIP3   OH266433   1.477   2.894  15.492  0.4822 -0.7723  0.2867
14981TIP3    H166434   1.509   2.984  15.489  1.8099 -1.2283  0.1376
14981TIP3    H266435   1.424   2.885  15.413  0.7535 -0.2738  0.0431
14982TIP3   OH266436   6.265   1.113  16.745 -0.1462  0.7067  0.6407
14982TIP3    H166437   6.230   1.117  16.834 -1.6876 -0.7374  0.1604
14982TIP3    H266438   6.320   1.034  16.745  1.3354  1.7102  0.7699
14983TIP3   OH266439   3.298   6.002  12.941  0.6502  0.1239 -0.5893
14983TIP3    H166440   3.254   5.933  12.992 -0.1118  0.7708 -0.3539
14983TIP3    H266441   3.391   5.983  12.951  0.4612 -0.8294 -0.4650
14984TIP3   OH266442   0.735   4.773  14.043  0.2641 -0.2686 -0.3013
14984TIP3    H166443   0.655   4.790  13.993  0.4153 -0.9244 -0.7763
14984TIP3    H266444   0.717   4.808  14.130 -1.1823 -1.8723  0.0932
14985TIP3   OH266445   1.263   5.731  16.635  0.1555  0.4572 -0.3317
14985TIP3    H166446   1.355   5.705  16.634 -0.5709 -2.5383 -0.0739
14985TIP3    H266447   1.259   5.805  16.695  1.9657 -1.5765  2.5424
14986TIP3   OH266448   5.032   2.486  15.454  0.1573 -0.3791  0.2109
14986TIP3    H166449   4.955   2.483  15.511  0.6172 -1.8122  0.7993
14986TIP3    H266450   5.085   2.412  15.481  1.4706  0.2201 -0.6054
14987TIP3   OH266451   0.566   5.856   0.831 -0.2940 -0.7041  0.3224
14987TIP3    H166452   0.618   5.925   0.872 -1.3443  0.8052 -0.7568
14987TIP3    H266453   0.605   5.844   0.744  0.7125 -2.4780  0.9773
14988TIP3   OH266454   3.503   4.713   4.341  0.3004 -0.2330  0.0746
14988TIP3    H166455   3.417   4.753   4.330  1.0471  1.7061  0.7608
14988TIP3    H266456   3.512   4.702   4.436 -0.2567 -3.0338 -0.1370
14989TIP3   OH266457   4.600   5.794  15.296 -0.2683  0.0505  0.1023
14989TIP3    H166458   4.644   5.879  15.286  0.6565 -0.4183  0.0721
14989TIP3    H266459   4.599   5.757  15.208  0.4755 -0.5047  0.3099
14990TIP3   OH266460   4.601   5.692  17.074 -0.2635 -0.2315  0.8026
14990TIP3    H166461   4.630   5.721  17.160 -0.4368 -0.3191  0.8914
14990TIP3    H266462   4.507   5.682  17.082 -0.2045 -0.8562  0.7871
14991TIP3   OH266463   5.266   4.028   4.307  0.2680  0.4844 -0.2259
14991TIP3    H166464   5.329   4.029   4.379 -0.4641  1.0448  0.4294
14991TIP3    H266465   5.314   4.062   4.232  0.7175  1.0396  0.3005
14992TIP3   OH266466   5.568   5.270  10.535 -0.0991  0.0432  0.0550
14992TIP3    H166467   5.600   5.361  10.539 -2.0960  0.7511  1.4395
14992TIP3    H266468   5.551   5.255  10.442 -1.7034  1.8705 -0.0166
14993TIP3   OH266469   1.363   0.637  13.147  0.1996  0.1936 -0.0769
14993TIP3    H166470   1.439   0.585  13.121 -0.0197 -1.0198  1.5469
14993TIP3    H266471   1.384   0.668  13.235 -1.4897 -0.8845  0.7686
14994TIP3   OH266472   3.407   4.489   0.718 -0.0876  0.2395 -0.1846
14994TIP3    H166473   3.405   4.585   0.714  0.2892  0.2135 -1.9154
14994TIP3    H266474   3.354   4.467   0.795 -0.9453  1.8096 -0.2820
14995TIP3   OH266475   0.518   2.634  15.924  0.4097  0.4497 -0.1050
14995TIP3    H166476   0.530   2.553  15.974 -1.1523  0.0919 -0.2536
14995TIP3    H266477   0.599   2.683  15.937  0.9858 -0.7058  0.7954
14996TIP3   OH266478   4.871   4.032   1.509  0.1808 -0.3040  0.4358
14996TIP3    H166479   4.880   4.122   1.539  2.7524  0.7541 -2.8776
14996TIP3    H266480   4.781   4.026   1.476  0.3337  1.5219 -0.4285
14997TIP3   OH266481   1.998   4.913  10.785  1.0871  0.5435  0.4775
14997TIP3    H166482   1.948   4.849  10.836 -0.5780  0.8855 -0.6144
14997TIP3    H266483   1.954   4.996  10.801  0.5234  0.6695 -1.4000
14998TIP3   OH266484   3.748   6.552  16.853  0.1652 -0.3941 -0.4355
14998TIP3    H166485   3.799   6.521  16.928  0.3066  0.2535 -0.2517
14998TIP3    H266486   3.663   6.575  16.890 -0.0416 -0.8553 -0.6238
14999TIP3   OH266487   0.483   2.991  11.624 -0.0638 -1.0584  0.3778
14999TIP3    H166488   0.401   2.979  11.576  0.7155  0.2280 -1.3862
14999TIP3    H266489   0.456   3.028  11.708 -1.2601  0.8305 -0.7631
15000TIP3   OH266490   3.724   3.705  15.214  0.1763 -0.2724  0.4161
15000TIP3    H166491   3.669   3.683  15.289 -1.0140 -0.7942 -0.5808
15000TIP3    H266492   3.707   3.797  15.198  1.0271  0.0475  1.2389
15001TIP3   OH266493   3.229   3.972  12.437  0.0719  0.0969 -0.2592
15001TIP3    H166494   3.323   3.985  12.444 -0.0877  1.3836 -0.1100
15001TIP3    H266495   3.193   4.020  12.511 -0.6954 -0.5212 -0.2184
15002TIP3   OH266496   5.493   6.457  11.233  0.2790  0.4957 -0.1018
15002TIP3    H166497   5.505   6.438  11.139  3.1920 -0.3564  0.3402
15002TIP3    H266498   5.507   6.552  11.240 -0.9591  0.7285 -0.6372
15003TIP3   OH266499   5.186   3.901  13.165  0.0221 -0.2779 -0.4489
15003TIP3    H166500   5.160   3.874  13.253 -0.3572 -0.0122 -0.4743
15003TIP3    H266501   5.162   3.828  13.109 -2.2720  0.5998 -0.7198
15004TIP3   OH266502   2.878   0.782   3.211 -0.1077  0.0007  0.1950
15004TIP3    H166503   2.831   0.795   3.128 -0.5077 -0.7054  0.2959
15004TIP3    H266504   2.840   0.701   3.247 -0.3755  0.6263  1.3731
15005TIP3   OH266505   6.205   4.632   0.990  0.1622  0.2932  0.4608
15005TIP3    H166506   6.223   4.661   0.900  1.5770 -1.0151  0.2715
15005TIP3    H266507   6.292   4.618   1.028 -0.4374 -0.3798  1.6349
15006TIP3   OH266508   0.555   3.974  13.550  0.3174  1.7800  0.7333
15006TIP3    H166509   0.497   4.032  13.501  0.0061  0.1605 -0.9246
15006TIP3    H266510   0.497   3.927  13.610 -0.1936  0.0472 -1.0337
15007TIP3   OH266511   5.804   4.728  13.339  0.0751  0.0807  1.2022
15007TIP3    H166512   5.718   4.710  13.377  0.5425  0.5070  2.5146
15007TIP3    H266513   5.865   4.722  13.413  1.2594 -0.7589  0.1966
15008TIP3   OH266514   1.212   1.718   2.410 -0.3839  0.2968 -0.2825
15008TIP3    H166515   1.249   1.719   2.322  0.4856  1.2153  0.0659
15008TIP3    H266516   1.219   1.809   2.440 -1.2496  0.1205  0.4936
15009TIP3   OH266517   3.814   2.087   3.042 -0.3037 -0.0285  0.3486
15009TIP3    H166518   3.838   2.078   2.950  0.0174 -0.4796  0.4733
15009TIP3    H266519   3.855   2.169   3.070  0.8108 -0.6071  0.4639
15010TIP3   OH266520   0.658   5.571  17.026 -0.0394 -0.2596  0.0779
15010TIP3    H166521   0.631   5.621  16.949  0.7962  2.1573  1.2531
15010TIP3    H266522   0.747   5.601  17.044  0.7598 -2.6987  0.5093
15011TIP3   OH266523   1.281   2.643  13.421 -0.4439 -0.3128 -0.2256
15011TIP3    H166524   1.347   2.603  13.478 -1.1793 -1.1793  0.0629
15011TIP3    H266525   1.201   2.643  13.475 -0.4330  1.8438 -0.1072
15012TIP3   OH266526   5.081   1.052  12.889  0.4808  0.1081  0.5025
15012TIP3    H166527   5.108   0.961  12.900 -0.6988 -0.1395  1.4442
15012TIP3    H266528   5.074   1.063  12.794  0.5205 -0.8125  0.3818
15013TIP3   OH266529   0.385   4.601   5.521 -0.0923  0.1658 -0.7944
15013TIP3    H166530   0.402   4.696   5.520 -2.5009  0.6480 -1.8443
15013TIP3    H266531   0.314   4.590   5.584 -0.2008 -0.8920 -1.0942
15014TIP3   OH266532   5.225   1.793   4.854  0.3829 -0.1696 -0.2912
15014TIP3    H166533   5.221   1.848   4.776  0.9343  0.8167  0.3590
15014TIP3    H266534   5.259   1.710   4.823  2.6096  0.8594 -0.7975
15015TIP3   OH266535   3.438   5.208  13.735 -0.6345 -0.2789  0.0037
15015TIP3    H166536   3.445   5.153  13.813 -1.0011 -1.2451 -0.6267
15015TIP3    H266537   3.471   5.153  13.664  0.5167  0.8903 -0.4093
15016TIP3   OH266538   3.225   2.922   6.496  0.7429  0.0594 -0.3961
15016TIP3    H166539   3.281   2.845   6.505  0.4241  0.0010  1.3499
15016TIP3    H266540   3.254   2.982   6.565  1.6056  1.9528 -2.2777
15017TIP3   OH266541   5.758   3.925   2.645 -0.4235  0.5758 -0.2423
15017TIP3    H166542   5.728   3.871   2.718 -1.4213  0.5765 -0.6318
15017TIP3    H266543   5.731   3.877   2.567  1.0762  0.3218 -0.6455
15018TIP3   OH266544   2.622   1.711   5.643  0.6544  0.1340 -0.2192
15018TIP3    H166545   2.656   1.655   5.573  1.2816  0.3000 -0.0573
15018TIP3    H266546   2.577   1.782   5.597 -0.4259 -0.6570 -0.4228
15019TIP3   OH266547   4.829   0.850  12.765 -0.0961  0.1887 -0.5231
15019TIP3    H166548   4.801   0.760  12.749 -1.2115  0.7354 -1.8323
15019TIP3    H266549   4.923   0.843  12.784 -0.3083 -1.3049  0.1153
15020TIP3   OH266550   1.902   4.020  13.883  0.1033  0.1714  0.1418
15020TIP3    H166551   1.837   4.084  13.852 -0.6201 -0.5874  0.0359
15020TIP3    H266552   1.854   3.967  13.947  0.6795 -0.2905  0.1978
15021TIP3   OH266553   0.745   0.971  14.203  0.2022 -0.3409 -0.6627
15021TIP3    H166554   0.729   1.011  14.117 -0.7432 -1.5766 -1.0959
15021TIP3    H266555   0.661   0.977  14.248  0.7070  0.3394  0.2038
15022TIP3   OH266556   3.326   1.340  15.718  0.6992  0.1653 -0.6554
15022TIP3    H166557   3.284   1.372  15.798  0.1629 -2.0363  0.0217
15022TIP3    H266558   3.262   1.357  15.649 -0.0859 -0.5375 -0.1129
15023TIP3   OH266559   0.287   4.294  13.649 -0.4502  0.3200 -0.5449
15023TIP3    H166560   0.368   4.270  13.604 -0.8059  2.3716 -2.4647
15023TIP3    H266561   0.312   4.368  13.704 -0.4726 -0.8431  1.0909
15024TIP3   OH266562   3.808   4.947  11.820 -0.2565 -0.2900 -0.5657
15024TIP3    H166563   3.878   4.906  11.871 -0.5166 -0.4082 -0.2996
15024TIP3    H266564   3.731   4.942  11.877 -0.3454  0.3650 -0.6204
15025TIP3   OH266565   1.459   6.499   1.626  0.5913 -0.2095  0.4776
15025TIP3    H166566   1.515   6.485   1.549  0.5401 -0.1064  0.4207
15025TIP3    H266567   1.455   6.594   1.635 -0.7115 -0.1678 -0.3647
15026TIP3   OH266568   1.654   4.065  15.676  0.4535 -0.2227  0.3358
15026TIP3    H166569   1.645   4.058  15.581  0.7177  2.6213  0.0157
15026TIP3    H266570   1.748   4.078  15.690  0.5581 -1.5701  1.1387
15027TIP3   OH266571   4.017   3.027   0.439  0.1824 -0.2846 -0.4374
15027TIP3    H166572   3.980   3.033   0.351 -0.7207  0.9669  0.0136
15027TIP3    H266573   4.108   3.054   0.428  0.7003 -2.1940 -1.3336
15028TIP3   OH266574   0.695   2.792   1.105 -0.3986  0.6265 -0.7225
15028TIP3    H166575   0.765   2.773   1.043 -0.7700 -0.7344 -0.7617
15028TIP3    H266576   0.713   2.736   1.181 -0.3023  1.8080  0.1518
15029TIP3   OH266577   0.798   5.274  10.379 -0.2407 -0.1418 -0.3433
15029TIP3    H166578   0.720   5.308  10.335 -1.3301 -1.6894  0.2857
15029TIP3    H266579   0.841   5.352  10.414 -1.3336  0.7904 -0.9807
15030TIP3   OH266580   5.694   4.438   6.270  0.1684  0.3864  0.2514
15030TIP3    H166581   5.773   4.487   6.249  0.5941 -0.6918 -0.7829
15030TIP3    H266582   5.625   4.479   6.219  0.4373  0.1957 -0.2737
15031TIP3   OH266583   0.200   2.368  12.686 -0.1529  0.3019  0.1597
15031TIP3    H166584   0.271   2.303  12.683 -0.3586  0.0631  0.4166
15031TIP3    H266585   0.196   2.403  12.597 -0.6329 -0.6814 -0.2215
15032TIP3   OH266586   4.040   4.428   4.721  0.4126  0.0757 -0.1943
15032TIP3    H166587   4.070   4.425   4.812  0.2072 -0.3601 -0.1409
15032TIP3    H266588   3.993   4.511   4.714 -0.3901 -0.3224  0.3537
15033TIP3   OH266589   6.245   4.399   0.619  0.9075 -0.3550  0.0696
15033TIP3    H166590   6.184   4.408   0.693  0.4845 -3.0317  0.1530
15033TIP3    H266591   6.188   4.389   0.543  1.2894 -0.5418 -0.1923
15034TIP3   OH266592   0.373   3.268  15.447  0.1088 -0.1676 -0.1841
15034TIP3    H166593   0.305   3.289  15.511 -0.5466 -1.1216 -0.5491
15034TIP3    H266594   0.343   3.188  15.405 -0.5715  1.5290 -3.2116
15035TIP3   OH266595   2.354   1.972   0.633  0.7277  0.0520  0.5121
15035TIP3    H166596   2.319   2.061   0.626  0.0340 -0.3185 -1.1151
15035TIP3    H266597   2.418   1.966   0.563 -1.8735 -1.8437 -1.9390
15036TIP3   OH266598   0.508   2.883   3.260  0.3561 -0.0082  0.3207
15036TIP3    H166599   0.419   2.856   3.282  0.6595  0.4555  2.3314
15036TIP3    H266600   0.532   2.945   3.329  1.4294  1.6511 -1.4595
15037TIP3   OH266601   4.649   0.511  12.127  0.6797  0.2023 -0.2438
15037TIP3    H166602   4.568   0.562  12.119  0.5671  0.3514  1.3560
15037TIP3    H266603   4.710   0.570  12.171  1.4948 -0.0899 -0.9689
15038TIP3   OH266604   4.493   0.795  12.085  0.4248 -0.7314 -0.1541
15038TIP3    H166605   4.520   0.856  12.154  0.8223  0.7441 -1.5722
15038TIP3    H266606   4.410   0.830  12.054  0.9778 -0.5230 -1.4357
15039TIP3   OH266607   5.958   5.751   3.263 -0.7467 -0.1220  0.2891
15039TIP3    H166608   6.010   5.801   3.200 -0.2301  0.9982  1.5460
15039TIP3    H266609   5.955   5.662   3.227  2.3503 -0.3487  0.2725
15040TIP3   OH266610   1.773   0.245  12.409 -0.3448  0.0354 -0.5762
15040TIP3    H166611   1.678   0.236  12.411 -0.3800  0.4052 -0.2806
15040TIP3    H266612   1.802   0.208  12.492 -0.3562  1.0939 -0.0716
15041TIP3   OH266613   0.454   4.300   1.044 -0.0306  0.3357  0.0359
15041TIP3    H166614   0.497   4.385   1.048  0.0262  0.4507 -2.1131
15041TIP3    H266615   0.526   4.237   1.048  0.0874  0.4458 -0.3073
15042TIP3   OH266616   5.866   1.082   5.508  0.4864 -0.2506 -0.1144
15042TIP3    H166617   5.783   1.049   5.474  0.6991 -0.3049 -0.5941
15042TIP3    H266618   5.842   1.152   5.568  0.1169  0.3143 -0.9043
15043TIP3   OH266619   0.006   6.049   5.837 -0.3713 -0.0733 -0.1216
15043TIP3    H166620  -0.017   5.997   5.760  0.5108 -1.6399  0.6258
15043TIP3    H266621   0.052   6.125   5.802 -1.4015  0.0674 -1.2304
15044TIP3   OH266622   6.159   4.564  15.363 -0.0875  0.4346 -0.3926
15044TIP3    H166623   6.215   4.522  15.428  1.0265 -0.4196 -1.8373
15044TIP3    H266624   6.218   4.585  15.291 -1.5450 -0.1255 -1.8102
15045TIP3   OH266625   2.097   1.203  13.870 -0.2289  0.3890 -0.4740
15045TIP3    H166626   2.155   1.127  13.866  0.3200  0.8351 -1.1892
15045TIP3    H266627   2.133   1.264  13.806 -1.3033  0.8132 -0.6927
15046TIP3   OH266628   5.626   3.218  16.523 -0.2586 -0.2691 -0.0246
15046TIP3    H166629   5.669   3.146  16.477 -0.4005 -0.0617 -0.4889
15046TIP3    H266630   5.533   3.207  16.503 -0.4128 -0.6195  0.8350
15047TIP3   OH266631   5.279   6.644  13.011  0.0443  0.3981  0.2973
15047TIP3    H166632   5.213   6.665  12.945  1.2385 -0.3395 -1.1887
15047TIP3    H266633   5.272   6.715  13.075 -2.2128  0.3007  0.2477
15048TIP3   OH266634   5.264   2.626  15.404 -0.3562 -0.2866  0.1633
15048TIP3    H166635   5.331   2.569  15.443 -0.5308  0.5004  1.6855
15048TIP3    H266636   5.181   2.582  15.423 -0.5464  0.7514  1.9569
15049TIP3   OH266637   0.941   2.234   1.375  0.4026 -0.3314  0.5412
15049TIP3    H166638   0.854   2.258   1.408  0.4410  0.3389  0.1754
15049TIP3    H266639   0.924   2.195   1.289  0.3908 -1.1173  0.8878
15050TIP3   OH266640   1.233   0.949   2.176 -0.3307 -0.4479 -0.7792
15050TIP3    H166641   1.232   0.911   2.088  2.9656 -0.4352 -0.9778
15050TIP3    H266642   1.273   1.036   2.163 -1.8284  0.4746  0.4853
15051TIP3   OH266643   2.959   3.672  13.594  0.7891  0.5987  0.1859
15051TIP3    H166644   2.939   3.756  13.552  0.6371  0.1527 -0.6665
15051TIP3    H266645   3.015   3.627  13.530  0.9496  0.0907  0.6793
15052TIP3   OH266646   1.853   1.626   2.800 -0.3943 -0.1926 -0.3660
15052TIP3    H166647   1.854   1.537   2.835 -0.9230 -0.4337 -0.9589
15052TIP3    H266648   1.918   1.626   2.730 -1.4780 -0.5361 -1.3860
15053TIP3   OH266649   4.799   3.601  11.922 -0.4109 -0.3068 -0.5203
15053TIP3    H166650   4.792   3.666  11.991 -0.8139  0.0058 -0.8541
15053TIP3    H266651   4.730   3.537  11.942  1.5202 -2.0046  1.2240
15054TIP3   OH266652   0.462   2.523  15.214  0.1460  0.6375  0.4068
15054TIP3    H166653   0.393   2.477  15.261 -0.0233  0.6277  0.1472
15054TIP3    H266654   0.450   2.498  15.122  0.8365  0.1790  0.4292
15055TIP3   OH266655   4.467   6.726   0.132 -0.0482  0.2790 -0.2263
15055TIP3    H166656   4.517   6.655   0.172  2.5436  2.0861 -0.0503
15055TIP3    H266657   4.485   6.717   0.038 -1.6446 -0.6433 -0.4797
15056TIP3   OH266658   4.373   5.011  15.535  0.1597  0.1441  0.0192
15056TIP3    H166659   4.450   4.963  15.566  0.3707  0.5543  0.1407
15056TIP3    H266660   4.403   5.101  15.527 -1.0149  0.8767  2.7327
15057TIP3   OH266661   6.834   5.402  12.595 -0.0712 -0.2028 -0.1631
15057TIP3    H166662   6.750   5.384  12.638 -0.0222 -3.0105 -1.0289
15057TIP3    H266663   6.892   5.333  12.627  1.9503  1.6636  0.3848
15058TIP3   OH266664   2.048   3.408   6.045  0.8461  0.6785 -0.0452
15058TIP3    H166665   1.979   3.474   6.049  1.5517  1.3924  1.0361
15058TIP3    H266666   2.089   3.421   5.960 -0.0838  0.5127 -0.5311
15059TIP3   OH266667   6.569   1.145   0.092 -0.5195 -0.2954 -0.1961
15059TIP3    H166668   6.552   1.097   0.011  0.2238  1.9774 -1.8144
15059TIP3    H266669   6.490   1.196   0.107  0.0841  0.8511 -0.7229
15060TIP3   OH266670   5.202   5.217   2.731 -0.1872  0.5700  0.2422
15060TIP3    H166671   5.113   5.245   2.710 -0.0978  0.1476 -0.7143
15060TIP3    H266672   5.234   5.284   2.791 -0.8338  1.2117 -0.1162
15061TIP3   OH266673   1.156   4.570  14.184  0.0494 -0.1775 -0.1801
15061TIP3    H166674   1.173   4.524  14.266 -0.5306 -1.0476 -0.5453
15061TIP3    H266675   1.210   4.525  14.119  1.2764  1.1245 -0.1146
15062TIP3   OH266676   2.619   0.855  16.404 -0.0880 -0.3169  0.5430
15062TIP3    H166677   2.665   0.793  16.460 -0.1401 -0.3162  0.5861
15062TIP3    H266678   2.593   0.804  16.327  1.2360  0.0057 -0.1553
15063TIP3   OH266679   1.969   0.837   2.617  0.0834  0.3662 -0.7826
15063TIP3    H166680   1.981   0.756   2.568  1.6196  0.4877 -0.6707
15063TIP3    H266681   1.961   0.905   2.550 -3.9335 -0.0754 -0.9828
15064TIP3   OH266682   4.697   1.191   0.194  0.6743 -0.1918  0.2196
15064TIP3    H166683   4.669   1.282   0.202  0.1992 -0.1824 -1.2949
15064TIP3    H266684   4.687   1.155   0.282  0.3264  1.0651  0.7113
15065TIP3   OH266685   1.337   5.543  13.135 -0.5741  0.0248 -0.3237
15065TIP3    H166686   1.255   5.511  13.172 -0.1309 -1.5491 -0.6189
15065TIP3    H266687   1.405   5.501  13.189  0.0700  1.8455  0.3767
15066TIP3   OH266688   0.468   2.389   5.203  0.0132  0.4421 -0.1705
15066TIP3    H166689   0.530   2.396   5.131  1.5610 -5.6879 -0.0651
15066TIP3    H266690   0.400   2.330   5.170 -1.8956  1.2817  1.9892
15067TIP3   OH266691   2.422   6.402  11.306  0.4121 -0.5116  0.4552
15067TIP3    H166692   2.493   6.466  11.306  1.0030 -1.0669 -1.9938
15067TIP3    H266693   2.426   6.362  11.393  3.4487 -0.8523  0.2844
15068TIP3   OH266694   3.463   2.166  11.349 -0.2419  0.0612  0.0883
15068TIP3    H166695   3.430   2.209  11.270  0.5447 -2.4479 -1.7628
15068TIP3    H266696   3.447   2.072  11.332  0.6004 -0.6022  2.6343
15069TIP3   OH266697   2.816   4.858  14.293 -0.4416  0.8637 -0.3237
15069TIP3    H166698   2.825   4.764  14.311  1.1271  0.6910 -1.7755
15069TIP3    H266699   2.756   4.890  14.360  2.1470 -0.3707  2.8172
15070TIP3   OH266700   1.946   5.144   2.450 -0.2222 -0.1967  0.0372
15070TIP3    H166701   1.988   5.221   2.489 -0.9298  0.0637  0.2893
15070TIP3    H266702   1.952   5.160   2.356  2.5523 -1.3793 -0.0928
15071TIP3   OH266703   1.238   4.687   4.674  0.2091  0.1212  0.1458
15071TIP3    H166704   1.313   4.706   4.618  1.2015 -1.8134  0.7488
15071TIP3    H266705   1.268   4.708   4.762 -0.5833  1.0087  0.2233
15072TIP3   OH266706   4.484   5.467  14.167  0.4670  0.1098  0.4013
15072TIP3    H166707   4.575   5.496  14.160  0.7597 -0.5395  1.2513
15072TIP3    H266708   4.449   5.516  14.242  0.3665 -0.2274  0.5785
15073TIP3   OH266709   0.551   0.720  15.092  0.4589  0.0671 -0.3855
15073TIP3    H166710   0.462   0.685  15.097  0.8072 -0.9230 -0.9840
15073TIP3    H266711   0.578   0.730  15.183 -0.1605  0.1145 -0.2020
15074TIP3   OH266712   3.549   4.431   4.415 -1.1609  0.1155 -0.1205
15074TIP3    H166713   3.526   4.476   4.333  0.7500  2.5136  0.5370
15074TIP3    H266714   3.484   4.461   4.478 -0.3997  1.3877  0.1029
15075TIP3   OH266715   0.286   5.666  16.749 -0.5423  0.6951  0.3127
15075TIP3    H166716   0.271   5.665  16.844 -0.1993  0.1666  0.3674
15075TIP3    H266717   0.347   5.738  16.735 -0.9369  1.0561  0.4372
15076TIP3   OH266718   5.187   2.169   4.582  0.0186  0.5142  0.1117
15076TIP3    H166719   5.122   2.202   4.520 -0.8347 -0.8916  0.2022
15076TIP3    H266720   5.161   2.206   4.666  0.0863  0.9583 -0.0597
15077TIP3   OH266721   5.089   6.582   1.875 -0.3013 -0.1158 -0.1370
15077TIP3    H166722   5.032   6.505   1.873  2.0310 -1.9946  0.6713
15077TIP3    H266723   5.084   6.613   1.966 -0.6099  0.1778 -0.2545
15078TIP3   OH266724   2.971   3.035  15.567  0.2156 -0.1911 -0.1663
15078TIP3    H166725   2.991   2.944  15.588  0.5434 -0.1663 -0.3680
15078TIP3    H266726   2.996   3.084  15.645 -0.3772 -0.3251  0.1118
15079TIP3   OH266727   4.649   1.992   4.622 -0.2081  0.0170  0.0040
15079TIP3    H166728   4.733   1.990   4.668 -0.9874  0.1737  1.4922
15079TIP3    H266729   4.598   1.922   4.664 -1.0161  0.3019 -0.4907
15080TIP3   OH266730   6.008   1.054  14.058 -0.2412 -0.1710  0.3897
15080TIP3    H166731   6.064   1.131  14.069 -0.1290 -0.0072 -1.0925
15080TIP3    H266732   5.927   1.089  14.021  0.2283 -0.8593 -1.3777
15081TIP3   OH266733   5.490   0.649   0.401 -0.1504 -0.3900  0.1346
15081TIP3    H166734   5.533   0.594   0.467 -0.1028  0.2345  0.6316
15081TIP3    H266735   5.398   0.623   0.404 -0.0391 -0.8109 -0.0063
15082TIP3   OH266736   4.276   4.739   4.524 -0.0909 -0.1541 -0.4247
15082TIP3    H166737   4.261   4.699   4.439 -1.0284  0.1768 -0.4200
15082TIP3    H266738   4.206   4.802   4.534 -1.3760 -1.7498  1.5465
15083TIP3   OH266739   0.835   1.666   0.748 -0.0564  0.5251 -0.4618
15083TIP3    H166740   0.842   1.650   0.654  0.5139  0.7569 -0.4634
15083TIP3    H266741   0.791   1.751   0.755  1.0648  1.1314 -0.5553
15084TIP3   OH266742   0.509   0.156   0.314 -0.4999  0.6586 -0.2584
15084TIP3    H166743   0.434   0.195   0.358 -0.9221 -0.1452 -0.2479
15084TIP3    H266744   0.495   0.061   0.321  1.0526  0.4461  0.7118
15085TIP3   OH266745   1.452   2.265   0.282 -0.1487 -0.4702 -0.2083
15085TIP3    H166746   1.461   2.213   0.202  0.6631 -1.1592  0.3143
15085TIP3    H266747   1.510   2.223   0.345  0.3962  0.9683  0.2935
15086TIP3   OH266748   5.973   0.261   1.442 -0.1653  0.3853  0.1344
15086TIP3    H166749   6.068   0.269   1.436 -0.0918 -1.1970 -2.6887
15086TIP3    H266750   5.939   0.344   1.410  0.3314  0.1155 -1.1663
15087TIP3   OH266751   4.044   6.459   4.021  0.3961 -0.0952  0.4019
15087TIP3    H166752   4.088   6.385   4.064  0.6189  0.9785  2.1116
15087TIP3    H266753   4.099   6.534   4.040 -1.1874  0.9641  1.0215
15088TIP3   OH266754   1.659   6.534   5.024 -0.2417  0.2540 -0.2096
15088TIP3    H166755   1.751   6.547   5.046 -0.1283 -1.5813  0.6013
15088TIP3    H266756   1.660   6.488   4.940 -0.4170  0.3985 -0.2924
15089TIP3   OH266757   6.686   3.203  14.995 -0.6335  0.0550 -0.1384
15089TIP3    H166758   6.692   3.195  14.900  0.2079  0.9866 -0.1806
15089TIP3    H266759   6.751   3.142  15.028 -3.1683 -2.8050  0.0082
15090TIP3   OH266760   1.432   1.999  14.367 -0.1341 -0.1991  0.0963
15090TIP3    H166761   1.385   2.044  14.296  1.0205 -0.1246 -0.6560
15090TIP3    H266762   1.501   1.950  14.322  1.5529  1.0012  1.2443
15091TIP3   OH266763   1.988   0.926  16.650  0.1178  0.4012  0.4809
15091TIP3    H166764   1.965   0.917  16.743  0.2478  1.0712  0.5843
15091TIP3    H266765   2.005   0.836  16.621 -1.1821  0.0440  0.7728
15092TIP3   OH266766   3.053   1.930   2.911 -0.2279 -0.4503 -0.6755
15092TIP3    H166767   2.984   1.996   2.910  0.4958  0.3680  0.3288
15092TIP3    H266768   3.006   1.846   2.910 -1.3862  0.0392  1.9126
15093TIP3   OH266769   6.763   2.688   3.472  0.5580 -0.0915 -0.2180
15093TIP3    H166770   6.810   2.680   3.389  1.7134 -0.6533  0.4666
15093TIP3    H266771   6.815   2.636   3.534 -1.8647 -2.1379  0.2250
15094TIP3   OH266772   2.384   4.037  12.818  0.1961 -0.5492 -0.2128
15094TIP3    H166773   2.379   3.964  12.881  1.5057 -2.3994 -2.1095
15094TIP3    H266774   2.476   4.040  12.793 -0.4229 -0.6017 -2.7780
15095TIP3   OH266775   1.427   4.677  15.979  0.6186 -0.3946 -0.1525
15095TIP3    H166776   1.465   4.608  16.033  1.0831 -0.6768 -0.8177
15095TIP3    H266777   1.466   4.663  15.892 -0.8182 -0.5615 -0.8140
15096TIP3   OH266778   2.801   4.099   3.246 -0.3060  0.4983  0.7563
15096TIP3    H166779   2.760   4.034   3.302 -1.1749  0.7889  0.4646
15096TIP3    H266780   2.730   4.132   3.191  0.3213  0.9821  0.2230
15097TIP3   OH266781   1.901   3.538   0.627 -0.0167  0.1644  0.2734
15097TIP3    H166782   1.913   3.623   0.669  1.3466 -0.7141  1.7719
15097TIP3    H266783   1.897   3.557   0.534  1.3413  1.7681  0.5041
15098TIP3   OH266784   1.241   2.407   2.248 -0.6384  0.0147 -0.1803
15098TIP3    H166785   1.276   2.483   2.201  0.1047 -1.3365 -1.9113
15098TIP3    H266786   1.163   2.441   2.293  0.3053  2.0414  0.0335
15099TIP3   OH266787   2.925   0.148   4.879 -0.8564 -0.4060  1.2982
15099TIP3    H166788   2.924   0.222   4.940  0.1224  1.2383 -0.5396
15099TIP3    H266789   3.018   0.131   4.865 -1.0764 -1.3584  0.9675
15100TIP3   OH266790   2.776   3.424   3.492 -0.1637 -0.5021  0.4766
15100TIP3    H166791   2.808   3.446   3.579  0.2805 -1.3097  0.5279
15100TIP3    H266792   2.852   3.435   3.435  0.1939 -2.2507  0.5716
15101TIP3   OH266793   6.111   6.543   2.303  0.4914 -0.8865 -0.7041
15101TIP3    H166794   6.086   6.599   2.376  2.6589 -0.4808 -0.2002
15101TIP3    H266795   6.064   6.580   2.228 -1.5521 -1.1445  0.3615
15102TIP3   OH266796   2.765   3.749  16.851 -0.0684 -0.0006 -0.3434
15102TIP3    H166797   2.856   3.743  16.822 -0.0951 -1.7884 -0.1656
15102TIP3    H266798   2.724   3.670  16.816 -1.4608  0.5875 -0.0808
15103TIP3   OH266799   4.060   5.308  14.744  0.3731 -0.4144 -0.3995
15103TIP3    H166800   4.052   5.404  14.752  3.9509 -0.0696  1.0473
15103TIP3    H266801   4.149   5.295  14.712 -0.7670 -3.2928 -2.7373
15104TIP3   OH266802   2.840   4.787   1.024 -0.3616 -0.8620  0.1102
15104TIP3    H166803   2.785   4.832   1.088 -1.1564  0.8760 -1.7034
15104TIP3    H266804   2.785   4.718   0.987  0.4441 -2.6019  1.9673
15105TIP3   OH266805   3.684   3.603  10.890  0.0962 -0.0307 -0.5367
15105TIP3    H166806   3.643   3.555  10.819  0.2319  0.8563 -1.2361
15105TIP3    H266807   3.619   3.603  10.960  0.1737 -1.3859 -0.4405
15106TIP3   OH266808   0.452   5.542  11.879 -0.1513 -0.1894 -0.6893
15106TIP3    H166809   0.462   5.466  11.822  1.8691  1.3332 -2.5572
15106TIP3    H266810   0.501   5.612  11.834  0.2840  1.5261  2.1963
15107TIP3   OH266811   1.219   6.048  15.862  0.2396 -0.2814  0.0661
15107TIP3    H166812   1.238   6.011  15.776 -3.8600  4.2609 -3.3435
15107TIP3    H266813   1.299   6.095  15.886  0.8811 -0.0140 -2.3187
15108TIP3   OH266814   0.678   3.756   0.069  0.0747  0.5208  0.2837
15108TIP3    H166815   0.734   3.792   0.001 -0.5997 -0.7602 -1.0045
15108TIP3    H266816   0.722   3.676   0.098 -1.1400 -0.6552 -0.9429
15109TIP3   OH266817   4.949   0.334  14.121  0.5270 -0.1413 -0.4840
15109TIP3    H166818   4.945   0.369  14.210 -0.8730 -0.5463 -0.3651
15109TIP3    H266819   5.040   0.306  14.110  0.8657  0.4786  0.5901
15110TIP3   OH266820   1.679   5.228   2.712 -0.7632  0.4235 -0.4705
15110TIP3    H166821   1.586   5.248   2.714 -0.8759 -0.1280 -0.1332
15110TIP3    H266822   1.721   5.305   2.752 -1.1577  0.1915  0.4084
15111TIP3   OH266823   1.913   5.023  11.526 -0.5834 -0.5969  0.8381
15111TIP3    H166824   1.858   5.080  11.580 -1.0361 -0.5300  0.3078
15111TIP3    H266825   1.852   4.967  11.479 -0.4090  1.3008 -1.8518
15112TIP3   OH266826   0.455   3.831   5.422 -0.1827 -0.5561  0.5543
15112TIP3    H166827   0.549   3.825   5.441 -0.3637 -1.2077  1.2727
15112TIP3    H266828   0.451   3.839   5.326  0.5721 -1.4258  0.4309
15113TIP3   OH266829   5.134   4.916   4.512 -0.2500  0.1646 -0.8553
15113TIP3    H166830   5.172   4.831   4.493 -2.7089 -1.0837 -0.5561
15113TIP3    H266831   5.186   4.949   4.586 -0.0370 -1.6466 -0.1472
15114TIP3   OH266832   1.876   2.961   1.799 -0.7265 -0.1889 -0.3628
15114TIP3    H166833   1.883   2.959   1.894  1.0916 -1.4782 -0.4815
15114TIP3    H266834   1.930   3.036   1.772 -0.9047 -0.0722 -0.3941
15115TIP3   OH266835   4.545   2.830   3.285 -0.1783  0.3706  0.0315
15115TIP3    H166836   4.598   2.910   3.282  0.7985 -0.2077  1.0764
15115TIP3    H266837   4.600   2.767   3.333 -0.3062 -1.3984 -2.0085
15116TIP3   OH266838   3.980   5.092  15.568 -0.0762 -0.0217 -0.1634
15116TIP3    H166839   3.887   5.101  15.549 -0.2139 -1.8543 -0.5838
15116TIP3    H266840   4.024   5.130  15.493 -0.3681  2.9751  1.0399
15117TIP3   OH266841   0.980   6.435   4.950  0.3278 -0.2529 -0.1350
15117TIP3    H166842   1.002   6.440   5.043 -0.7815  0.3487  0.1222
15117TIP3    H266843   0.960   6.343   4.935  0.1801 -0.2971  0.3095
15118TIP3   OH266844   1.033   5.801   2.643 -0.5172  0.6554 -0.1621
15118TIP3    H166845   1.058   5.891   2.623 -0.6163  0.5495 -0.7989
15118TIP3    H266846   1.041   5.794   2.738  0.1854  1.1224 -0.1834
15119TIP3   OH266847   5.301   6.604   5.403 -0.6407 -0.2514  0.4461
15119TIP3    H166848   5.306   6.675   5.467  1.0188 -2.0587  2.4809
15119TIP3    H266849   5.237   6.543   5.439 -1.7077 -0.0741 -1.0455
15120TIP3   OH266850   2.336   3.395   3.873 -0.5696 -0.7790 -0.5547
15120TIP3    H166851   2.249   3.391   3.913  0.9014 -3.8278  2.9015
15120TIP3    H266852   2.390   3.440   3.937  0.8605 -0.8937 -1.6291
15121TIP3   OH266853   3.656   1.314  11.896 -0.2663  0.1397  0.6728
15121TIP3    H166854   3.731   1.263  11.866  1.1135  1.3600  1.8877
15121TIP3    H266855   3.617   1.260  11.965 -0.5189 -0.4961  0.0425
15122TIP3   OH266856   4.214   3.787  14.240 -0.8556  0.2259  0.1886
15122TIP3    H166857   4.260   3.722  14.292  1.0227  1.7476  0.5454
15122TIP3    H266858   4.190   3.856  14.302  1.3305  2.0284 -0.8068
15123TIP3   OH266859   0.635   0.401   2.297  1.3009  0.0144 -0.2150
15123TIP3    H166860   0.718   0.450   2.302  1.1712  0.1213  2.3806
15123TIP3    H266861   0.661   0.309   2.302  1.3198  0.0450  3.8276
15124TIP3   OH266862   0.575   0.206   6.132  0.1617  0.2073 -0.1865
15124TIP3    H166863   0.601   0.169   6.217 -0.4952  0.9538  0.3534
15124TIP3    H266864   0.648   0.185   6.074  0.5284 -0.5014  0.5046
15125TIP3   OH266865   3.777   3.516   1.012 -0.1546  0.8121  0.3818
15125TIP3    H166866   3.863   3.511   0.970 -0.1944 -2.9717  0.4069
15125TIP3    H266867   3.724   3.569   0.952  1.3488  0.5062 -1.3066
15126TIP3   OH266868   3.866   2.283  16.396 -0.4338  0.0532 -0.1171
15126TIP3    H166869   3.932   2.254  16.333  0.2441  0.5126  0.3807
15126TIP3    H266870   3.785   2.241  16.366 -0.2114  0.5991 -1.5357
15127TIP3   OH266871   1.904   2.840   5.999  0.2041  0.5774  0.0674
15127TIP3    H166872   2.000   2.841   5.994  0.3627 -0.1916  2.1907
15127TIP3    H266873   1.876   2.828   5.908  2.1104  0.7489 -0.5903
15128TIP3   OH266874   3.329   2.862   0.283  0.2486 -0.2990  0.0566
15128TIP3    H166875   3.337   2.925   0.211  0.9979  0.1010  0.4753
15128TIP3    H266876   3.311   2.917   0.360  0.1432 -0.6670  0.2967
15129TIP3   OH266877   4.342   0.094  14.543  0.0686  0.0447  0.0351
15129TIP3    H166878   4.260   0.072  14.499 -0.3452 -0.0334  0.8285
15129TIP3    H266879   4.409   0.083  14.476 -0.4941 -0.5359 -0.4456
15130TIP3   OH266880   5.114   0.318   1.737  0.0284 -0.8402  0.4146
15130TIP3    H166881   5.154   0.398   1.771 -1.1631  0.1790 -0.4853
15130TIP3    H266882   5.176   0.248   1.760  0.9854  0.2982  1.4164
15131TIP3   OH266883   6.779   5.658  14.586  0.2359 -0.3653 -0.5984
15131TIP3    H166884   6.687   5.647  14.610  0.6381 -3.9493 -0.1288
15131TIP3    H266885   6.811   5.726  14.644 -1.6491 -0.5365  0.7225
15132TIP3   OH266886   4.292   2.090  16.990 -0.4009 -0.2822  0.2602
15132TIP3    H166887   4.320   1.998  16.996  2.1763  0.2745 -1.1903
15132TIP3    H266888   4.212   2.087  16.937  0.4859 -1.6447 -1.1174
15133TIP3   OH266889   5.869   4.170   5.034  0.3059 -0.3605 -0.1655
15133TIP3    H166890   5.939   4.236   5.032 -1.5572  1.7412 -0.5492
15133TIP3    H266891   5.885   4.120   5.114  0.9461  1.6097  1.0070
15134TIP3   OH266892   1.041   0.171   1.812  0.2683  0.3778 -0.2665
15134TIP3    H166893   1.127   0.145   1.781  0.6363  1.0262  0.1829
15134TIP3    H266894   1.043   0.151   1.906 -0.1446  0.2074 -0.2921
15135TIP3   OH266895   4.994   4.652  13.701  0.1435 -0.2371 -0.1496
15135TIP3    H166896   4.923   4.608  13.654  0.8921 -0.7945 -0.7960
15135TIP3    H266897   5.057   4.582  13.719  1.5425  0.6067 -1.5320
15136TIP3   OH266898   5.994   0.967  10.419 -0.1324  0.3123 -0.1838
15136TIP3    H166899   6.088   0.973  10.400 -0.2370  1.4475 -0.4083
15136TIP3    H266900   5.979   1.034  10.486 -0.4818 -1.0228  1.1355
15137TIP3   OH266901   2.036   2.239   3.664  0.1752 -0.0868 -0.0680
15137TIP3    H166902   2.120   2.219   3.622  0.3883 -2.0065  1.1462
15137TIP3    H266903   2.052   2.320   3.713  1.2283 -0.2683 -0.0889
15138TIP3   OH266904   1.747   1.427  13.440 -0.0235 -0.4137 -0.2711
15138TIP3    H166905   1.662   1.466  13.461  0.0436 -0.2744 -0.2577
15138TIP3    H266906   1.791   1.418  13.525  1.2482  2.4176 -0.4812
15139TIP3   OH266907   2.919   6.501  17.008 -0.5535 -0.1049  0.1328
15139TIP3    H166908   2.984   6.457  17.065 -1.1118 -1.1052  0.0254
15139TIP3    H266909   2.965   6.514  16.925 -0.5783 -1.1238 -0.0538
15140TIP3   OH266910   3.313   3.105   1.770 -0.1227  0.4129  0.3359
15140TIP3    H166911   3.407   3.088   1.761 -0.1284  1.1202 -1.5122
15140TIP3    H266912   3.272   3.031   1.725 -0.5197 -0.3338  1.8528
15141TIP3   OH266913   4.099   4.148  15.268 -0.2780 -0.3383  0.3262
15141TIP3    H166914   4.158   4.115  15.336  1.4153 -1.8970 -1.7611
15141TIP3    H266915   4.066   4.070  15.225 -1.1481  0.6077 -0.7960
15142TIP3   OH266916   6.796   6.369   2.646 -0.5136  0.2572 -0.2502
15142TIP3    H166917   6.783   6.434   2.714 -1.1470 -0.0883 -0.0366
15142TIP3    H266918   6.777   6.415   2.564  0.3285  0.6936 -0.2163
15143TIP3   OH266919   6.274   1.591   2.463 -0.1242 -0.2434 -0.0407
15143TIP3    H166920   6.220   1.517   2.434 -0.0750 -0.6724  0.9308
15143TIP3    H266921   6.300   1.635   2.382 -2.6970  0.5391 -0.5201
15144TIP3   OH266922   3.682   5.906   3.027  0.5234  0.5833 -0.0859
15144TIP3    H166923   3.723   5.860   3.099 -1.3299 -0.4545  0.3808
15144TIP3    H266924   3.754   5.946   2.979  1.8718  0.5713  1.8202
15145TIP3   OH266925   5.506   1.677  11.711 -0.3777  0.4204 -0.1712
15145TIP3    H166926   5.523   1.758  11.663 -1.1431  1.0474  0.6157
15145TIP3    H266927   5.415   1.682  11.737  0.1190  0.2594  1.6956
15146TIP3   OH266928   0.501   6.496  15.547 -0.3946  0.5240 -0.6572
15146TIP3    H166929   0.530   6.431  15.610 -0.6616  0.8071 -0.2297
15146TIP3    H266930   0.578   6.514  15.493  0.5743  2.0170  1.0936
15147TIP3   OH266931   3.336   4.613  16.938 -0.2689 -0.3349 -0.0644
15147TIP3    H166932   3.363   4.577  16.853 -2.4147 -2.7762  0.1593
15147TIP3    H266933   3.264   4.673  16.916  1.5151  1.8696 -0.1938
15148TIP3   OH266934   6.368   5.822   1.394 -0.0350  0.5159 -0.6168
15148TIP3    H166935   6.314   5.896   1.421  0.6411  0.1851  1.9303
15148TIP3    H266936   6.341   5.751   1.452  1.1548 -0.4724 -1.2288
15149TIP3   OH266937   6.109   2.849   0.730 -0.1104  0.0132 -0.3703
15149TIP3    H166938   6.080   2.890   0.812  2.5471  2.2787 -0.4014
15149TIP3    H266939   6.040   2.868   0.667 -1.4092 -0.2857  0.9249
15150TIP3   OH266940   4.979   3.622  16.857  0.0018 -0.2138 -0.2042
15150TIP3    H166941   5.006   3.611  16.948 -0.1177  0.2382 -0.1139
15150TIP3    H266942   5.055   3.594  16.806  0.6540  1.0670  0.0462
15151TIP3   OH266943   6.820   4.637   3.037  0.2537 -0.2302  0.1982
15151TIP3    H166944   6.770   4.591   2.970  0.3561  0.3248 -0.2657
15151TIP3    H266945   6.911   4.628   3.009  0.3509 -0.5027  0.5854
15152TIP3   OH266946   1.318   4.364   0.312 -0.1063 -0.5840  0.6518
15152TIP3    H166947   1.313   4.270   0.327 -1.1682 -0.9636 -1.6504
15152TIP3    H266948   1.232   4.388   0.278  0.7626  0.7966 -0.7293
15153TIP3   OH266949   2.115   1.264   2.286  0.1612  0.0447  0.4440
15153TIP3    H166950   2.156   1.244   2.202 -0.3201  3.5048 -0.7802
15153TIP3    H266951   2.181   1.239   2.351  1.7348 -0.1259 -1.1369
15154TIP3   OH266952   3.278   3.896  15.290 -0.4606 -0.1008  0.1068
15154TIP3    H166953   3.318   3.862  15.210 -0.3460  0.7478 -0.2016
15154TIP3    H266954   3.240   3.819  15.332  0.1161 -0.6661 -0.3922
15155TIP3   OH266955   1.236   2.943  11.449  0.6105  0.3552 -1.1011
15155TIP3    H166956   1.165   2.883  11.473 -0.2306  1.7472  0.0392
15155TIP3    H266957   1.213   2.974  11.362 -0.3741  1.0343 -0.6140
15156TIP3   OH266958   2.317   4.010  16.736 -0.1165 -0.4942  0.1708
15156TIP3    H166959   2.373   3.933  16.739 -1.2534 -1.3520  2.1841
15156TIP3    H266960   2.311   4.038  16.828 -4.1641 -1.4595  0.3918
15157TIP3   OH266961   3.742   1.181  16.266  0.0644 -0.0858 -0.2452
15157TIP3    H166962   3.736   1.104  16.209  0.5372 -0.7582  0.6017
15157TIP3    H266963   3.835   1.199  16.274 -0.0082  0.1031  0.2040
15158TIP3   OH266964   0.788   4.279   0.439 -0.1573  1.1631 -0.5561
15158TIP3    H166965   0.770   4.185   0.451 -0.4816  1.2393 -0.4241
15158TIP3    H266966   0.813   4.309   0.526  0.9179  0.9997 -0.7938
15159TIP3   OH266967   3.685   1.860  11.357  0.4021  0.0422  0.3335
15159TIP3    H166968   3.593   1.847  11.336 -0.6423  2.1740  3.0526
15159TIP3    H266969   3.705   1.947  11.323  0.9476  0.2437  1.1523
15160TIP3   OH266970   4.138   4.913   4.716 -0.2631  0.1887  0.1781
15160TIP3    H166971   4.123   4.828   4.758  1.0346 -0.0272  0.2544
15160TIP3    H266972   4.071   4.918   4.648 -1.8898  0.1822  1.7013
15161TIP3   OH266973   1.686   1.900   3.464 -0.0604  0.4446  0.5046
15161TIP3    H166974   1.706   1.939   3.379  1.5059 -2.4663 -0.6139
15161TIP3    H266975   1.598   1.863   3.453 -0.2526  0.8923  0.5048
15162TIP3   OH266976   6.309   2.441   0.769  0.2709  0.0034 -0.6579
15162TIP3    H166977   6.313   2.535   0.788 -1.0581  0.0473 -0.4708
15162TIP3    H266978   6.399   2.410   0.780  1.0871  1.5541 -2.3516
15163TIP3   OH266979   3.276   2.741   2.762 -0.5694 -0.0959 -0.3944
15163TIP3    H166980   3.203   2.798   2.787 -0.8236 -0.5985  0.0457
15163TIP3    H266981   3.277   2.673   2.830 -1.1206 -1.3731 -1.6180
15164TIP3   OH266982   5.766   0.265   0.808 -0.4824  0.2748 -0.3068
15164TIP3    H166983   5.763   0.179   0.765 -1.1332  0.7273 -1.1942
15164TIP3    H266984   5.858   0.277   0.831 -0.6356 -1.4027  1.3853
15165TIP3   OH266985   6.352   4.665   5.211 -0.2234 -0.3313  0.7025
15165TIP3    H166986   6.328   4.704   5.296 -0.1245  1.4821 -0.0501
15165TIP3    H266987   6.434   4.708   5.188  0.4854 -1.8490  0.3157
15166TIP3   OH266988   5.964   2.465   5.074  0.0688 -0.0984  0.2627
15166TIP3    H166989   5.910   2.387   5.083 -0.4445  0.2003 -0.1882
15166TIP3    H266990   6.003   2.456   4.987 -0.5087  0.4683 -0.0574
15167TIP3   OH266991   2.202   2.485   5.845  0.4752 -0.1253  0.5206
15167TIP3    H166992   2.263   2.551   5.877  2.2763 -0.9200 -1.0561
15167TIP3    H266993   2.144   2.467   5.919  1.5986  1.2945  1.8029
15168TIP3   OH266994   2.332   1.497   0.108 -0.3068 -0.6942 -0.2406
15168TIP3    H166995   2.403   1.540   0.156 -0.5329 -1.3984  0.7609
15168TIP3    H266996   2.256   1.553   0.122 -0.0868 -0.2256 -0.8635
15169TIP3   OH266997   0.571   2.707   1.723  0.6843 -0.2584 -0.3640
15169TIP3    H166998   0.582   2.802   1.723  0.4513 -0.2214  0.8505
15169TIP3    H266999   0.497   2.691   1.781  0.8899 -1.2040 -0.3507
15170TIP3   OH267000   4.373   2.505   5.448 -0.4111  0.7896 -0.1456
15170TIP3    H167001   4.284   2.470   5.451 -0.2776  0.3630 -1.0091
15170TIP3    H267002   4.369   2.576   5.384  0.1127  0.0615 -0.9894
15171TIP3   OH267003   2.142   6.151  14.378  0.2407 -0.5095  0.7344
15171TIP3    H167004   2.189   6.232  14.360  1.5565 -1.4932 -0.4052
15171TIP3    H267005   2.197   6.082  14.342 -0.2783 -2.0372  2.6690
15172TIP3   OH267006   0.832   4.143  16.187  0.4288 -0.1374  0.2830
15172TIP3    H167007   0.824   4.134  16.092 -2.4967 -1.7875  0.5643
15172TIP3    H267008   0.772   4.077  16.222  0.1493  1.5399  3.2649
15173TIP3   OH267009   2.531   1.640  12.975  0.6160  0.1612 -0.1546
15173TIP3    H167010   2.581   1.709  12.932 -0.7142 -0.0523 -2.1487
15173TIP3    H267011   2.449   1.683  13.001  1.2688  0.2257  2.0608
15174TIP3   OH267012   3.662   4.325   3.827  0.0177 -0.3160 -0.4449
15174TIP3    H167013   3.648   4.295   3.917  0.8531  0.3086 -0.0851
15174TIP3    H267014   3.600   4.275   3.774 -0.1580 -1.0313  0.4211
15175TIP3   OH267015   5.142   6.361  16.803 -0.1099 -0.0341 -0.0595
15175TIP3    H167016   5.155   6.313  16.885 -0.8408 -0.1005  0.0291
15175TIP3    H267017   5.151   6.296  16.735 -1.3638 -0.3785  0.0731
15176TIP3   OH267018   1.083   3.127   6.682  0.5305 -1.2010  0.7259
15176TIP3    H167019   1.036   3.209   6.697  1.5710 -0.3884 -0.2380
15176TIP3    H267020   1.128   3.140   6.598  0.8604 -2.6956  0.6415
15177TIP3   OH267021   2.778   6.059   0.399 -0.1759 -0.2499 -0.4810
15177TIP3    H167022   2.798   6.144   0.360 -0.0791 -0.1483 -0.2132
15177TIP3    H267023   2.807   6.067   0.490 -0.4344 -0.4703 -0.3771
15178TIP3   OH267024   2.912   2.225  13.061  0.0104 -0.2420 -0.2533
15178TIP3    H167025   2.868   2.242  13.144  0.8200 -1.4976  0.4605
15178TIP3    H267026   2.851   2.257  12.995 -0.5064  1.0945  0.8134
15179TIP3   OH267027   6.743   3.989  16.077 -0.8082 -0.4388 -0.2529
15179TIP3    H167028   6.687   4.058  16.114  1.1861  0.4836  1.2256
15179TIP3    H267029   6.792   4.032  16.008  0.2256 -0.4279  0.4715
15180TIP3   OH267030   3.434   1.078  16.527 -0.0670 -0.0401  0.0984
15180TIP3    H167031   3.468   1.149  16.581  0.0418  0.2547 -0.3552
15180TIP3    H267032   3.388   1.122  16.456  2.0515 -0.3491 -1.5575
15181TIP3   OH267033   2.151   5.379   4.089 -0.3714  0.0036  0.2509
15181TIP3    H167034   2.205   5.362   4.167 -2.6391  3.9114  3.0267
15181TIP3    H267035   2.189   5.459   4.052 -1.5243  0.2337 -0.4441
15182TIP3   OH267036   2.109   6.493  13.911 -0.0213 -0.1190 -0.1265
15182TIP3    H167037   2.070   6.416  13.952 -0.6207  0.5303  0.5464
15182TIP3    H267038   2.183   6.458  13.862  0.6260 -0.9549  1.3653
15183TIP3   OH267039   3.376   1.549  13.598 -0.4997  0.0296 -0.3509
15183TIP3    H167040   3.456   1.602  13.598 -0.5903  0.1925 -1.5832
15183TIP3    H267041   3.329   1.576  13.519 -2.8140  1.4672  1.4035
15184TIP3   OH267042   0.205   1.246  12.852 -0.5532 -0.3867  0.1547
15184TIP3    H167043   0.242   1.159  12.837 -0.3999 -0.3612  0.3788
15184TIP3    H267044   0.248   1.277  12.931 -0.9805 -0.3095  0.3587
15185TIP3   OH267045   2.951   5.962   0.217  0.0276 -0.8693  0.3659
15185TIP3    H167046   2.901   5.989   0.141  0.0874 -0.3725  0.4958
15185TIP3    H267047   2.885   5.946   0.285  0.0672  2.0502  1.2687
15186TIP3   OH267048   2.492   0.843   5.335  0.2796  0.0636 -0.0571
15186TIP3    H167049   2.474   0.749   5.327 -0.7351  0.2384  0.0756
15186TIP3    H267050   2.571   0.848   5.389  0.1299 -0.6939  0.2408
15187TIP3   OH267051   0.356   0.080  15.602  0.1545  0.1394  0.4471
15187TIP3    H167052   0.452   0.075  15.609  0.4450 -0.3248 -2.4552
15187TIP3    H267053   0.329  -0.009  15.579 -0.8662  0.4501  0.3903
15188TIP3   OH267054   2.274   5.640   4.107 -0.4384 -0.1372 -1.2015
15188TIP3    H167055   2.215   5.715   4.097 -1.4753 -0.8991 -0.8588
15188TIP3    H267056   2.318   5.654   4.191  0.2320  0.6631 -1.6656
15189TIP3   OH267057   3.005   0.325   5.321 -0.2100 -0.3774 -0.5146
15189TIP3    H167058   3.012   0.343   5.414 -0.2452 -1.9357 -0.1826
15189TIP3    H267059   3.078   0.373   5.282  0.3361 -0.4120  0.4332
15190TIP3   OH267060   6.258   6.790   1.714  0.0127 -0.4486 -0.4689
15190TIP3    H167061   6.302   6.872   1.739 -3.1854  0.9795  1.1097
15190TIP3    H267062   6.260   6.737   1.793 -0.6806 -0.5294 -0.5016
15191TIP3   OH267063   1.782   5.942  16.659 -0.4179  0.1164  0.0906
15191TIP3    H167064   1.846   5.978  16.598 -0.3311 -2.3544 -1.3651
15191TIP3    H267065   1.833   5.915  16.735  0.0166 -0.2902 -0.3470
15192TIP3   OH267066   1.024   0.010  16.212 -0.5330 -0.0106  0.5266
15192TIP3    H167067   1.087   0.082  16.209  1.1124 -1.3591  0.8434
15192TIP3    H267068   0.973   0.026  16.291  0.2737  0.4572  0.9642
15193TIP3   OH267069   0.921   4.210  10.964 -0.1164 -0.4315  0.0295
15193TIP3    H167070   1.007   4.249  10.948 -0.8140  1.2451  0.1683
15193TIP3    H267071   0.910   4.146  10.894  2.2233 -2.4980  1.3574
15194TIP3   OH267072   1.723   6.072   3.689 -0.0407  0.0606 -0.0722
15194TIP3    H167073   1.640   6.026   3.678  0.3685 -0.9106  0.7410
15194TIP3    H267074   1.789   6.003   3.692  0.7784  0.8088 -0.5083
15195TIP3   OH267075   0.864   1.083   1.055  0.0164  0.0770  0.2401
15195TIP3    H167076   0.928   1.147   1.087  1.9200 -1.7550  0.3462
15195TIP3    H267077   0.914   1.028   0.994 -1.5213 -1.3073  0.1636
15196TIP3   OH267078   2.382   2.961   3.009 -0.0685  0.1613  0.7125
15196TIP3    H167079   2.402   2.870   3.031  1.9862 -0.0551 -1.5519
15196TIP3    H267080   2.450   3.012   3.052  1.4900  0.1100 -1.5070
15197TIP3   OH267081   2.019   5.471  16.344  0.6309  0.5100 -0.0359
15197TIP3    H167082   2.097   5.476  16.399  0.6590  0.2025 -0.0494
15197TIP3    H267083   1.958   5.534  16.384  0.3666 -0.2506  0.7963
15198TIP3   OH267084   0.694   1.956   2.493  0.2720  0.6536 -0.5764
15198TIP3    H167085   0.777   1.979   2.452 -0.7634 -0.0901 -3.3316
15198TIP3    H267086   0.642   1.918   2.422 -1.7039 -0.7780  1.4953
15199TIP3   OH267087   6.489   2.914  10.428  0.3112  0.4229 -0.1758
15199TIP3    H167088   6.530   2.850  10.485  1.1588 -0.2735 -1.5213
15199TIP3    H267089   6.397   2.888  10.424  0.4383 -0.0727  0.1333
15200TIP3   OH267090   5.866   1.194   1.085 -0.3340  0.0725  0.4336
15200TIP3    H167091   5.884   1.277   1.130 -1.3634  0.5465  0.0106
15200TIP3    H267092   5.916   1.129   1.133 -2.5380  0.2643  3.2983
15201TIP3   OH267093   6.034   0.356  14.845  0.1130 -0.3088 -0.0921
15201TIP3    H167094   5.971   0.311  14.790 -0.1623 -2.2869  1.6984
15201TIP3    H267095   5.987   0.374  14.926  0.8517  1.4191  0.0032
15202TIP3   OH267096   4.770   3.040  15.606  0.0612 -0.4143 -0.4858
15202TIP3    H167097   4.783   3.054  15.512 -1.1510 -1.3347 -0.8181
15202TIP3    H267098   4.856   3.053  15.645  0.4028  0.8602 -1.6082
15203TIP3   OH267099   2.701   4.096   4.393 -0.6350  0.1796  0.0489
15203TIP3    H167100   2.730   4.016   4.436  0.4002  1.2804  1.5455
15203TIP3    H267101   2.623   4.122   4.442 -0.2340  0.7271  0.4140
15204TIP3   OH267102   2.003   2.989  13.816 -0.1470 -0.2873  0.2048
15204TIP3    H167103   2.022   2.982  13.723  0.1890  1.0700  0.1482
15204TIP3    H267104   2.080   3.032  13.853 -2.3618  4.3277  0.1571
15205TIP3   OH267105   6.426   3.448  15.993  0.3062 -0.1628  0.4627
15205TIP3    H167106   6.455   3.383  15.928 -0.1256 -0.5094  0.6083
15205TIP3    H267107   6.336   3.469  15.966  0.4813  0.4609  0.3525
15206TIP3   OH267108   3.724   1.102   3.815  0.3330  0.6582 -0.1669
15206TIP3    H167109   3.653   1.068   3.870  0.3997 -1.6528 -1.3822
15206TIP3    H267110   3.787   1.139   3.877 -1.0222  0.9481  1.0697
15207TIP3   OH267111   3.761   4.180  12.399 -0.5617 -0.1314 -0.0516
15207TIP3    H167112   3.699   4.225  12.456 -0.0542 -0.9151  1.1529
15207TIP3    H267113   3.809   4.121  12.457  1.9432  1.0865 -0.7125
15208TIP3   OH267114   6.232   6.274  11.513 -0.0400 -0.3825  0.0203
15208TIP3    H167115   6.231   6.311  11.601  1.3480  1.6429 -0.7431
15208TIP3    H267116   6.324   6.253  11.497 -0.5333 -2.6454 -0.2537
15209TIP3   OH267117   3.102   2.272   0.275 -0.5908 -0.1697 -0.0156
15209TIP3    H167118   3.097   2.179   0.253 -1.3108  0.2628 -1.9411
15209TIP3    H267119   3.195   2.288   0.290 -0.0678 -0.7301 -2.2428
15210TIP3   OH267120   5.743   6.217  12.392  0.3845 -0.4206  0.1611
15210TIP3    H167121   5.723   6.126  12.416  0.6305 -1.2028 -2.2914
15210TIP3    H267122   5.794   6.250  12.466 -0.2210 -2.0723  1.3909
15211TIP3   OH267123   2.405   2.743  15.204 -0.4488  0.1650  0.5132
15211TIP3    H167124   2.431   2.803  15.275 -0.7288  1.3228 -0.3261
15211TIP3    H267125   2.449   2.778  15.126 -2.0370  0.3609 -0.3343
15212TIP3   OH267126   4.349   0.896   3.494 -0.6893 -0.1195 -0.2191
15212TIP3    H167127   4.407   0.827   3.523 -0.9166 -0.6966 -1.0856
15212TIP3    H267128   4.401   0.976   3.498  0.6712 -0.8092 -2.3266
15213TIP3   OH267129   5.018   6.008  16.358 -0.0855 -0.2257 -0.3066
15213TIP3    H167130   4.956   6.039  16.292  2.0599  1.0718 -1.8464
15213TIP3    H267131   5.013   6.073  16.428 -1.5757 -1.0201  0.3836
15214TIP3   OH267132   3.314   0.013  15.476  0.0160 -0.4176 -0.0545
15214TIP3    H167133   3.348  -0.054  15.416  0.6178 -1.5235  1.4381
15214TIP3    H267134   3.237  -0.028  15.516  0.4130 -0.2601  0.9058
15215TIP3   OH267135   6.073   0.391  16.718  0.0670  0.1290 -0.3906
15215TIP3    H167136   6.106   0.439  16.643 -2.5987  1.6908 -0.6762
15215TIP3    H267137   6.040   0.459  16.778 -0.1022 -1.1835  1.0836
15216TIP3   OH267138   0.451   0.779  16.678 -0.2718  0.0492  0.0853
15216TIP3    H167139   0.444   0.695  16.633  0.0937  0.1290 -0.1206
15216TIP3    H267140   0.402   0.840  16.622 -0.3547  0.0164  0.1232
15217TIP3   OH267141   6.100   0.954   3.715  0.2714 -0.3426  0.1104
15217TIP3    H167142   6.170   0.960   3.781 -0.7519 -0.1054  1.2101
15217TIP3    H267143   6.064   1.043   3.711 -1.3392 -0.9158  1.1270
15218TIP3   OH267144   0.553   3.290  16.358  0.0328 -0.0471 -0.0147
15218TIP3    H167145   0.631   3.346  16.359  0.6508 -0.8355 -1.3637
15218TIP3    H267146   0.490   3.336  16.304  0.2799 -0.2978 -0.5257
15219TIP3   OH267147   4.469   2.999   0.952  0.0461  0.0936 -0.1148
15219TIP3    H167148   4.533   2.998   1.023 -0.8211  1.2294  0.7333
15219TIP3    H267149   4.514   3.040   0.878  0.4449  0.4408  0.3161
15220TIP3   OH267150   5.670   1.791  12.749  0.0450  0.1036  0.2133
15220TIP3    H167151   5.749   1.804  12.697 -0.0718 -0.6358 -0.1666
15220TIP3    H267152   5.702   1.776  12.838  0.3260 -0.0453  0.0895
15221TIP3   OH267153   5.124   2.960  16.856  0.0692  0.4989 -0.0735
15221TIP3    H167154   5.134   2.946  16.762  0.8456  2.2089 -0.2684
15221TIP3    H267155   5.213   2.970  16.889 -0.2353  0.7285  0.7069
15222TIP3   OH267156   0.721   0.948   1.235 -0.0326 -0.5707 -0.5708
15222TIP3    H167157   0.781   0.993   1.175 -1.0117 -0.2892 -1.3570
15222TIP3    H267158   0.677   0.883   1.180 -0.7238 -0.5164 -0.0904
15223TIP3   OH267159   3.449   0.373  12.842 -0.3201 -0.3669 -0.6370
15223TIP3    H167160   3.505   0.451  12.841  0.4177 -0.8691 -2.4371
15223TIP3    H267161   3.445   0.348  12.934  0.7759  0.8472 -0.2182
15224TIP3   OH267162   6.664   4.691   0.663  0.1627  0.0214 -0.0963
15224TIP3    H167163   6.654   4.785   0.678  1.9555  0.1360  0.6234
15224TIP3    H267164   6.591   4.652   0.711 -0.3530  1.0187 -0.0361
15225TIP3   OH267165   3.468   4.145  12.442 -0.0272 -0.4901  0.2371
15225TIP3    H167166   3.533   4.098  12.390 -0.1822 -0.3834 -0.0533
15225TIP3    H267167   3.478   4.236  12.416 -1.4761 -0.6834 -1.1113
15226TIP3   OH267168   2.819   1.576   0.594  0.1137  0.7214 -0.2951
15226TIP3    H167169   2.862   1.492   0.578  1.5051  1.0882  1.1499
15226TIP3    H267170   2.727   1.561   0.572 -0.1878 -1.9098  2.1211
15227TIP3   OH267171   6.626   3.404  10.681  0.2703 -0.1056 -0.3891
15227TIP3    H167172   6.587   3.482  10.643  0.4578  0.1902  0.0257
15227TIP3    H267173   6.632   3.342  10.608 -0.6111 -0.0163 -0.5417
15228TIP3   OH267174   5.786   0.045  12.182 -0.0053  0.3301  0.3118
15228TIP3    H167175   5.836  -0.032  12.155 -1.7126 -0.6960 -0.1125
15228TIP3    H267176   5.834   0.080  12.257  0.3861 -1.6674  1.0657
15229TIP3   OH267177   5.732   0.138  14.210  0.0704  0.1111  0.0094
15229TIP3    H167178   5.698   0.223  14.185 -1.2437 -0.4604 -0.2406
15229TIP3    H267179   5.672   0.107  14.279 -0.1738 -1.0955 -0.7097
15230TIP3   OH267180   1.484   6.028  10.620  0.0258  0.2348  0.3564
15230TIP3    H167181   1.441   6.030  10.705  0.5447  1.6748  0.5996
15230TIP3    H267182   1.473   6.116  10.584  0.9279  0.0221 -0.5015
15231TIP3   OH267183   2.099   2.611   4.287  0.1782  0.1732 -0.0922
15231TIP3    H167184   2.008   2.594   4.263  0.4430 -2.4240  0.3798
15231TIP3    H267185   2.104   2.587   4.380  1.7753 -2.0488 -0.6567
15232TIP3   OH267186   1.063   0.664  14.638  0.2580 -0.8188 -0.3600
15232TIP3    H167187   1.075   0.638  14.730 -0.0845  0.8840  0.2028
15232TIP3    H267188   1.022   0.751  14.643 -1.2878 -1.3720 -2.1341
15233TIP3   OH267189   0.950   4.892   0.518  0.0256 -0.2919 -0.0943
15233TIP3    H167190   0.928   4.978   0.483  1.6517 -0.5986 -2.0318
15233TIP3    H267191   0.980   4.842   0.442  2.0462 -1.5752  1.4480
15234TIP3   OH267192   3.549   1.927  15.598 -0.1825 -0.3422  0.0600
15234TIP3    H167193   3.620   1.888  15.548 -0.2133 -2.5116  1.6089
15234TIP3    H267194   3.531   2.010  15.553  1.2281 -1.1680 -2.1804
15235TIP3   OH267195   4.278   6.082   5.722 -0.6175 -0.3963 -0.2064
15235TIP3    H167196   4.336   6.050   5.652  0.2906 -1.1300  0.8393
15235TIP3    H267197   4.260   6.005   5.775 -0.0837  0.3988  1.1939
15236TIP3   OH267198   5.082   1.995   3.350  0.7481  0.1962 -0.2213
15236TIP3    H167199   5.030   1.939   3.292  1.4572  0.4893 -1.1664
15236TIP3    H267200   5.027   2.072   3.365 -0.4589 -0.9347  1.5174
15237TIP3   OH267201   2.830   6.583  15.149 -0.4687 -0.4324 -0.0265
15237TIP3    H167202   2.896   6.519  15.173  0.6755  0.3908 -0.8500
15237TIP3    H267203   2.796   6.553  15.065 -1.2426 -0.9088  0.4424
15238TIP3   OH267204   1.840   1.231   1.472  0.3491  0.5770  0.1647
15238TIP3    H167205   1.866   1.267   1.387  0.4675  0.4110  0.1298
15238TIP3    H267206   1.744   1.222   1.466  0.5366 -1.4294 -0.7560
15239TIP3   OH267207   5.369   5.817  14.072 -0.4666  0.1813 -0.0720
15239TIP3    H167208   5.454   5.773  14.070 -0.2892  0.1705  2.9702
15239TIP3    H267209   5.355   5.838  14.164 -2.5523  2.6331 -0.8341
15240TIP3   OH267210   2.745   2.704  13.110 -0.3559 -0.0451  0.4784
15240TIP3    H167211   2.780   2.771  13.168 -0.1475 -0.2434  0.5854
15240TIP3    H267212   2.765   2.734  13.022 -2.3581  1.2178  0.3854
15241TIP3   OH267213   3.943   5.833  12.334 -0.5826  0.2519  0.2949
15241TIP3    H167214   3.914   5.742  12.324  0.9277 -0.5321  2.3446
15241TIP3    H267215   3.885   5.870  12.400  1.2102 -0.4977  2.3955
15242TIP3   OH267216   2.220   2.901   5.153  0.5842  0.5333 -0.0313
15242TIP3    H167217   2.257   2.962   5.089  0.0699  1.5487  0.6058
15242TIP3    H267218   2.129   2.889   5.125  0.2323  1.3174  0.7166
15243TIP3   OH267219   3.062   2.493   5.387  0.2160  0.6392 -0.2841
15243TIP3    H167220   3.049   2.567   5.447 -1.4152  0.2243 -0.0660
15243TIP3    H267221   3.157   2.485   5.378  0.4608  1.5540  1.1861
15244TIP3   OH267222   3.680   0.512   0.192 -0.3722 -0.7739  0.1286
15244TIP3    H167223   3.737   0.457   0.139  0.0679 -0.3433  0.1523
15244TIP3    H267224   3.684   0.598   0.152 -0.1932 -0.4912  0.7365
15245TIP3   OH267225   4.053   1.556   2.900 -0.2176  0.1086 -0.2241
15245TIP3    H167226   3.987   1.490   2.920  0.3987 -0.6111 -0.5516
15245TIP3    H267227   4.052   1.614   2.977 -0.9536 -0.1129 -0.0580
15246TIP3   OH267228   1.193   5.755   4.771 -0.6658 -0.0179  0.4610
15246TIP3    H167229   1.132   5.690   4.736 -0.0451  0.2588 -1.2431
15246TIP3    H267230   1.139   5.832   4.787 -0.7783  0.3091 -1.2697
15247TIP3   OH267231   3.931   5.344  15.024  0.2062 -0.1211 -0.3388
15247TIP3    H167232   3.948   5.274  15.087  0.7064 -0.3917 -0.7629
15247TIP3    H267233   3.965   5.310  14.941 -0.0876  0.3870 -0.6731
15248TIP3   OH267234   4.870   4.561  11.367 -0.0431 -0.1397 -0.4113
15248TIP3    H167235   4.787   4.514  11.372 -0.6622  0.8414 -1.1994
15248TIP3    H267236   4.846   4.651  11.347  1.1891  0.2658 -0.1762
15249TIP3   OH267237   0.769   2.764   6.207  0.4058 -0.6209 -0.4448
15249TIP3    H167238   0.823   2.686   6.191  0.2854 -1.2020  1.7171
15249TIP3    H267239   0.681   2.738   6.181  0.5735 -0.7907 -0.8544
15250TIP3   OH267240   1.012   0.941  14.014  0.4922  0.0791 -0.4525
15250TIP3    H167241   0.989   0.945  14.106  0.9023  1.2547 -0.3792
15250TIP3    H267242   1.055   1.025  13.996  1.7238 -0.7064 -1.3591
15251TIP3   OH267243   2.349   6.568   5.460 -0.6877  0.7439  0.2718
15251TIP3    H167244   2.352   6.515   5.381  0.8123  1.3543 -0.1200
15251TIP3    H267245   2.265   6.613   5.456 -1.2268 -0.2891 -0.2546
15252TIP3   OH267246   0.859   1.030  12.503  0.4090 -0.1627  0.0623
15252TIP3    H167247   0.800   0.997  12.571  1.1049 -0.9870  0.2705
15252TIP3    H267248   0.918   0.958  12.484  0.4728  0.1748 -1.1634
15253TIP3   OH267249   0.986   1.762   5.552  0.2102 -0.3418  0.3274
15253TIP3    H167250   0.932   1.710   5.493 -1.4719  1.2205  0.4140
15253TIP3    H267251   1.060   1.791   5.498 -1.1704  0.8645 -1.0287
15254TIP3   OH267252   1.372   5.037   3.259  0.2088  0.2855 -0.3625
15254TIP3    H167253   1.300   4.988   3.298  0.1172  0.3781 -0.4136
15254TIP3    H267254   1.408   4.978   3.192  0.5945 -0.0175  0.0954
15255TIP3   OH267255   1.250   6.781  12.152 -0.2894 -0.0030 -0.0611
15255TIP3    H167256   1.222   6.869  12.125 -0.6711 -0.3152 -0.7117
15255TIP3    H267257   1.189   6.757  12.222 -2.1966 -0.9564 -1.9237
15256TIP3   OH267258   3.531   1.989   2.331  0.0779 -0.2894 -0.2547
15256TIP3    H167259   3.495   2.061   2.280 -2.8993 -0.8357  0.8791
15256TIP3    H267260   3.557   2.030   2.414  0.3732 -0.1959 -0.3913
15257TIP3   OH267261   2.220   0.518   3.881  0.3843 -0.2318 -0.5762
15257TIP3    H167262   2.291   0.459   3.906  1.0670  0.7343 -0.1811
15257TIP3    H267263   2.223   0.521   3.786 -0.3898 -1.6996 -0.6761
15258TIP3   OH267264   2.610   1.072   0.537 -0.1006  0.1727  0.3507
15258TIP3    H167265   2.602   1.115   0.622 -0.3972  1.0245 -0.1016
15258TIP3    H267266   2.548   1.118   0.480  0.6231  0.0947 -0.5263
15259TIP3   OH267267   6.277   2.169   4.178  0.0160  0.5148 -0.6607
15259TIP3    H167268   6.318   2.090   4.214  2.4087  1.7263 -0.4774
15259TIP3    H267269   6.270   2.229   4.253  0.9872  1.4990 -1.3167
15260TIP3   OH267270   5.035   4.045   3.257  0.0729 -0.2525 -0.0493
15260TIP3    H167271   5.038   4.023   3.350  0.0827  2.4380  0.6733
15260TIP3    H267272   5.117   4.009   3.221  0.0475 -1.3498  0.9453
15261TIP3   OH267273   2.169   4.692   5.070  0.2171  0.0870 -0.3877
15261TIP3    H167274   2.155   4.686   5.165 -0.3169 -0.7123 -0.5087
15261TIP3    H267275   2.231   4.765   5.060  1.1148 -0.4872  0.6576
15262TIP3   OH267276   1.030   5.741  11.746  0.1600  0.3388 -0.4281
15262TIP3    H167277   0.997   5.667  11.798  1.1613  0.3717  0.2839
15262TIP3    H267278   0.965   5.753  11.677 -0.6937 -0.3570  0.2347
15263TIP3   OH267279   2.950   4.393  15.607 -0.3351  0.3313 -0.2222
15263TIP3    H167280   2.931   4.483  15.579  0.2669 -0.1109 -2.1995
15263TIP3    H267281   3.020   4.402  15.671 -1.3631  1.3584  0.8149
15264TIP3   OH267282   6.558   0.316   1.514 -0.7012  0.2639 -0.6139
15264TIP3    H167283   6.643   0.352   1.489 -1.3724  1.9838 -0.5619
15264TIP3    H267284   6.575   0.224   1.533  1.0528  0.4745 -1.0403
15265TIP3   OH267285   0.858   6.834  11.274 -0.2957 -0.7097  0.2744
15265TIP3    H167286   0.923   6.770  11.302  0.2458 -0.5303 -0.5437
15265TIP3    H267287   0.885   6.859  11.186  0.1831  1.5187  0.9852
15266TIP3   OH267288   2.573   0.146   5.869 -0.2991 -0.4990  0.4389
15266TIP3    H167289   2.664   0.147   5.899  0.0650 -0.6712 -0.6110
15266TIP3    H267290   2.579   0.143   5.774 -1.4093 -1.8145  0.3764
15267TIP3   OH267291   4.904   4.592   1.086  0.1340  0.2271 -0.1690
15267TIP3    H167292   4.934   4.509   1.050  0.3667 -0.1098  0.7506
15267TIP3    H267293   4.845   4.628   1.020  1.2095  0.0670 -1.2585
15268TIP3   OH267294   6.708   1.508   1.728  0.0325  0.1067  0.0066
15268TIP3    H167295   6.736   1.587   1.682 -1.6856  0.3764 -0.6212
15268TIP3    H267296   6.721   1.437   1.665 -1.6852  0.3859 -0.7076
15269TIP3   OH267297   0.899   5.213  14.643  0.4461 -0.2978  0.1446
15269TIP3    H167298   0.936   5.212  14.555 -1.8545 -0.0115 -0.8700
15269TIP3    H267299   0.878   5.305  14.660 -1.3027 -0.6438  0.0055
15270TIP3   OH267300   6.574   3.542  16.674  0.0035 -0.1590 -0.4265
15270TIP3    H167301   6.545   3.475  16.736 -0.5176  1.1955  0.8747
15270TIP3    H267302   6.642   3.590  16.721  0.5921  0.0348 -1.4508
15271TIP3   OH267303   5.374   5.146   3.581 -0.8142  0.6882  0.1243
15271TIP3    H167304   5.448   5.133   3.641 -0.1998  1.3839 -0.4641
15271TIP3    H267305   5.372   5.241   3.567 -0.8512  0.5214 -1.0651
15272TIP3   OH267306   4.423   3.531   5.509  0.7616  0.3431  0.2389
15272TIP3    H167307   4.412   3.572   5.424  0.7271 -2.4764 -1.2566
15272TIP3    H267308   4.347   3.561   5.560 -1.0409 -0.3684 -1.8614
15273TIP3   OH267309   2.251   6.082   1.634 -0.1734  0.1607 -0.3970
15273TIP3    H167310   2.297   6.059   1.553  0.5555  1.3543 -0.3448
15273TIP3    H267311   2.291   6.165   1.662 -1.2067  0.3621  0.5635
15274TIP3   OH267312   0.795   2.550   5.600 -0.3665  0.1643  0.1529
15274TIP3    H167313   0.741   2.539   5.522  2.7021  2.0618 -2.4527
15274TIP3    H267314   0.800   2.644   5.614  1.1312 -0.0113  1.1065
15275TIP3   OH267315   2.499   1.064  16.334  0.5457 -0.2465  0.0978
15275TIP3    H167316   2.551   0.989  16.363  1.9291 -0.1367 -1.9151
15275TIP3    H267317   2.440   1.081  16.408 -0.7994 -4.1279  0.1882
15276TIP3   OH267318   2.567   6.079   2.224 -0.4180  0.8306 -0.2641
15276TIP3    H167319   2.610   6.031   2.295  0.1525  0.4395 -0.8710
15276TIP3    H267320   2.638   6.116   2.172 -0.8394  1.4909 -0.3903
15277TIP3   OH267321   3.555   6.396  13.533 -0.0189 -0.2634 -0.4329
15277TIP3    H167322   3.545   6.480  13.489  0.2865  0.8754  1.5778
15277TIP3    H267323   3.481   6.391  13.594  0.8589 -0.6758  0.6407
15278TIP3   OH267324   4.600   0.797  16.604  0.1198 -0.1733 -0.3068
15278TIP3    H167325   4.558   0.721  16.564  0.0530 -0.3227  0.0371
15278TIP3    H267326   4.663   0.828  16.539 -0.4986  0.0284 -0.8113
15279TIP3   OH267327   6.289   6.130   4.770 -0.1058  0.0961  0.4505
15279TIP3    H167328   6.243   6.048   4.755 -0.6059  0.6252 -1.1316
15279TIP3    H267329   6.220   6.197   4.768  0.5528  0.7744 -0.6646
15280TIP3   OH267330   5.390   2.766   3.234 -0.0308 -0.2145 -0.1375
15280TIP3    H167331   5.327   2.750   3.164 -1.2470 -0.1532  0.8931
15280TIP3    H267332   5.350   2.727   3.312  0.4269  1.2495  0.8911
15281TIP3   OH267333   2.832   2.705   3.344 -0.1145  0.3835 -0.0003
15281TIP3    H167334   2.907   2.646   3.335 -0.1857  0.2038  0.5631
15281TIP3    H267335   2.769   2.655   3.396 -1.5795 -0.3766 -2.3516
15282TIP3   OH267336   5.765   3.785  15.839 -0.4948  0.0441 -0.6186
15282TIP3    H167337   5.744   3.821  15.925 -2.2474 -1.2920 -0.4202
15282TIP3    H267338   5.854   3.752  15.847  0.2320  2.0077 -0.0702
15283TIP3   OH267339   3.179   5.343   4.216 -0.0997  0.4926  0.2907
15283TIP3    H167340   3.154   5.432   4.242  0.8061  0.4252  1.4680
15283TIP3    H267341   3.224   5.307   4.293  1.8592 -0.0506 -1.0231
15284TIP3   OH267342   1.112   3.619   2.973 -0.6528  0.4998  0.3901
15284TIP3    H167343   1.141   3.661   3.054  1.0101  4.7185 -2.1085
15284TIP3    H267344   1.189   3.621   2.915 -1.7677 -2.3370 -1.4491
15285TIP3   OH267345   1.899   4.245  14.169  0.0567  0.4031 -0.5807
15285TIP3    H167346   1.969   4.240  14.104 -1.4445  1.5481 -2.4040
15285TIP3    H267347   1.874   4.338  14.170 -1.3956  0.0346  0.0213
15286TIP3   OH267348   2.470   0.146  17.146 -0.1079  0.2731  0.1811
15286TIP3    H167349   2.563   0.169  17.147  0.3162 -1.1744 -1.1339
15286TIP3    H267350   2.469   0.051  17.154 -1.4308  0.1987 -0.6242
15287TIP3   OH267351   0.234   1.872   1.142  0.5290  0.3153  0.2485
15287TIP3    H167352   0.142   1.896   1.146  0.4211 -0.2315  2.5898
15287TIP3    H267353   0.234   1.776   1.139  1.0309  0.3080  0.3231
15288TIP3   OH267354   2.424   0.901   3.785 -1.0135 -0.1685  0.2793
15288TIP3    H167355   2.498   0.842   3.773 -0.7006  0.2315  0.2231
15288TIP3    H267356   2.374   0.895   3.703 -1.9696 -1.6939  0.9234
15289TIP3   OH267357   1.302   6.148   4.841 -0.1139 -0.5584 -0.1374
15289TIP3    H167358   1.265   6.108   4.920  0.4844 -1.1990 -0.1741
15289TIP3    H267359   1.267   6.095   4.769  0.9267 -1.2410 -0.1673
15290TIP3   OH267360   5.281   5.387   5.260 -0.6409 -0.1183  0.1707
15290TIP3    H167361   5.210   5.424   5.206 -0.0367  0.5669 -0.1725
15290TIP3    H267362   5.339   5.345   5.197  0.0287  0.6157  0.2760
15291TIP3   OH267363   2.139   4.275  13.316 -0.1159 -0.2020  0.5057
15291TIP3    H167364   2.054   4.254  13.355 -0.5403  0.2478 -0.1701
15291TIP3    H267365   2.182   4.330  13.382 -0.3180 -0.4822  0.8761
15292TIP3   OH267366   0.593   0.476  12.994 -0.3654 -0.2724 -0.3073
15292TIP3    H167367   0.610   0.450  12.903 -0.1089  0.2752 -0.4226
15292TIP3    H267368   0.528   0.546  12.986 -0.5480 -0.4160 -0.0522
15293TIP3   OH267369   5.918   1.158   4.908 -0.1756 -0.0584  0.0648
15293TIP3    H167370   5.847   1.205   4.952 -0.9085  0.2065 -1.3255
15293TIP3    H267371   5.874   1.090   4.858  0.4929  0.3867 -1.1671
15294TIP3   OH267372   5.392   0.216  16.773 -0.1774  0.1440 -0.4547
15294TIP3    H167373   5.376   0.306  16.800  0.9160  0.9913 -2.4334
15294TIP3    H267374   5.484   0.201  16.793 -0.8105 -1.2840  1.7209
15295TIP3   OH267375   5.627   5.588   3.040 -0.4630 -0.6435 -0.5280
15295TIP3    H167376   5.651   5.524   2.973 -1.1626 -0.6565 -0.7765
15295TIP3    H267377   5.593   5.535   3.113  1.3874 -0.7023  0.3284
15296TIP3   OH267378   6.706   0.107  13.461  0.2266  0.0977  0.5644
15296TIP3    H167379   6.780   0.091  13.520  0.4074  0.3302  0.4042
15296TIP3    H267380   6.630   0.115  13.518  0.2682 -0.5075  0.7044
15297TIP3   OH267381   4.675   0.284  12.428 -0.1297 -0.2945  0.5800
15297TIP3    H167382   4.711   0.327  12.506  0.0441  0.3235  0.1656
15297TIP3    H267383   4.581   0.282  12.443 -0.3227  1.6888 -0.0867
15298TIP3   OH267384   6.277   0.478   1.050 -0.5076 -0.4154 -0.2648
15298TIP3    H167385   6.369   0.466   1.026 -0.4842 -0.9069  0.0561
15298TIP3    H267386   6.268   0.572   1.065  0.0025 -0.3959 -0.0652
15299TIP3   OH267387   0.488   6.744  15.077 -0.0174 -0.5061 -0.3529
15299TIP3    H167388   0.491   6.767  15.170  0.6389  0.6231 -0.6296
15299TIP3    H267389   0.431   6.668  15.072  0.3000 -0.8470  1.0315
15300TIP3   OH267390   4.035   6.695   5.985 -0.2227  0.1027 -0.2791
15300TIP3    H167391   3.971   6.637   5.943  1.4608 -1.2101 -1.1465
15300TIP3    H267392   4.041   6.663   6.075  0.5302 -0.9888 -0.6932
15301TIP3   OH267393   3.152   4.656   5.785 -0.0562  0.1834 -0.6584
15301TIP3    H167394   3.162   4.602   5.864  0.5309  0.4437 -0.5478
15301TIP3    H267395   3.162   4.594   5.712 -0.0515  0.0316 -0.5283
15302TIP3   OH267396   6.460   2.719   4.245 -0.2912 -0.1982  0.2664
15302TIP3    H167397   6.492   2.809   4.247  1.2653 -0.7315  1.0563
15302TIP3    H267398   6.366   2.726   4.258 -0.0247  1.2394  1.6542
15303TIP3   OH267399   5.777   1.649  13.035  0.8082 -0.8094 -0.3584
15303TIP3    H167400   5.852   1.674  12.981  0.8787 -0.2752 -0.0171
15303TIP3    H267401   5.807   1.658  13.125  0.3288 -0.5690 -0.2178
15304TIP3   OH267402   1.680   3.451  11.856  0.6016 -0.3849  0.1377
15304TIP3    H167403   1.645   3.364  11.870  0.0394 -0.0054  1.1994
15304TIP3    H267404   1.767   3.449  11.897  0.1887 -0.1650  1.0366
15305TIP3   OH267405   6.652   2.806   2.768 -1.2660 -0.2839  0.0326
15305TIP3    H167406   6.624   2.876   2.708  0.7710  0.5269 -0.0623
15305TIP3    H267407   6.741   2.784   2.739 -1.3729 -2.0175  0.8958
15306TIP3   OH267408   0.231   2.774   4.570  0.0672 -0.2833 -0.6839
15306TIP3    H167409   0.254   2.864   4.595  0.1333 -0.6223  0.5136
15306TIP3    H267410   0.261   2.720   4.643 -1.3528 -1.1193 -0.6822
15307TIP3   OH267411   1.309   5.874  15.440 -0.0988 -0.2953  0.4578
15307TIP3    H167412   1.222   5.835  15.452 -0.3070 -0.5141 -1.4638
15307TIP3    H267413   1.295   5.968  15.451 -0.0788 -0.4840  2.5554
15308TIP3   OH267414   5.694   5.310  16.610 -0.2625 -0.0871 -0.0535
15308TIP3    H167415   5.631   5.312  16.537  0.9684  0.3962 -1.1497
15308TIP3    H267416   5.763   5.250  16.580  1.5911  2.1086 -0.4946
15309TIP3   OH267417   4.692   6.818   6.284  0.0918 -0.0218  0.2794
15309TIP3    H167418   4.616   6.822   6.226  0.1728 -1.7186  0.0081
15309TIP3    H267419   4.681   6.737   6.334  1.4077  0.0068  0.6601
15310TIP3   OH267420   4.176   4.533   0.571  0.1787  0.4045 -0.3513
15310TIP3    H167421   4.121   4.460   0.602  1.0938  0.3131  1.1481
15310TIP3    H267422   4.182   4.519   0.477 -0.8312 -0.6470 -0.2960
15311TIP3   OH267423   0.130   2.540  14.975  0.3476  0.3352  0.3309
15311TIP3    H167424   0.132   2.618  14.919 -0.8752  0.0101 -0.1844
15311TIP3    H267425   0.065   2.483  14.935  0.5464 -0.5532  1.2428
15312TIP3   OH267426   6.307   4.585  13.335 -0.2868  0.0858 -0.7871
15312TIP3    H167427   6.252   4.662  13.320  0.2424  0.1634 -2.6547
15312TIP3    H267428   6.370   4.612  13.401 -0.4128  1.1160 -1.0733
15313TIP3   OH267429   5.688   5.025  17.091  0.0240 -0.2508  0.3652
15313TIP3    H167430   5.773   5.054  17.124  1.5539 -0.6155 -2.8416
15313TIP3    H267431   5.672   5.082  17.016 -0.6395 -2.6288 -1.4013
15314TIP3   OH267432   1.842   0.494   1.983 -0.4030  0.2739 -0.8607
15314TIP3    H167433   1.858   0.410   2.025  1.7902  1.1153  0.1630
15314TIP3    H267434   1.878   0.483   1.895  0.6337  0.3520 -0.4642
15315TIP3   OH267435   4.960   0.118  12.331  0.1945 -0.2250 -0.5975
15315TIP3    H167436   4.944   0.165  12.249 -1.6680  0.8973  0.3342
15315TIP3    H267437   5.030   0.057  12.311  1.6922  1.9089 -2.3052
15316TIP3   OH267438   6.818   0.197   5.237  0.1515  0.2546  0.3087
15316TIP3    H167439   6.885   0.248   5.280 -1.2849  0.5240  2.3592
15316TIP3    H267440   6.757   0.262   5.202 -0.6993  0.0241  1.2975
15317TIP3   OH267441   1.551   2.663   5.906  0.1173 -0.6317 -0.0760
15317TIP3    H167442   1.539   2.584   5.854  0.4736 -0.0913 -1.0225
15317TIP3    H267443   1.575   2.730   5.841  0.0401  0.1909  0.7279
15318TIP3   OH267444   4.258   3.917  10.596  0.3706 -0.1101 -0.6608
15318TIP3    H167445   4.171   3.947  10.571 -0.2222 -1.4484 -0.3064
15318TIP3    H267446   4.247   3.823  10.612  1.8334 -0.2591 -0.3909
15319TIP3   OH267447   4.375   2.770   3.064 -0.4119 -0.5290 -0.8574
15319TIP3    H167448   4.453   2.754   3.118  0.3562 -0.7433 -1.9917
15319TIP3    H267449   4.312   2.703   3.092  0.2241 -1.0674 -0.6887
15320TIP3   OH267450   1.750   1.827  12.777 -0.3601 -0.2169  0.1437
15320TIP3    H167451   1.807   1.845  12.703 -0.4814 -0.5616 -0.0382
15320TIP3    H267452   1.677   1.777  12.740  1.1475 -3.2943  0.9464
15321TIP3   OH267453   4.490   6.443   1.072  0.1527  0.2433 -0.3963
15321TIP3    H167454   4.457   6.398   0.995 -0.2976  0.6136 -0.4271
15321TIP3    H267455   4.530   6.523   1.037 -2.3437  1.7379 -0.0916
15322TIP3   OH267456   1.609   5.650   3.646  0.4397 -0.5776  0.1210
15322TIP3    H167457   1.699   5.674   3.622 -0.6293  2.8743 -1.1543
15322TIP3    H267458   1.576   5.602   3.570  0.1715  1.4776 -1.1563
15323TIP3   OH267459   2.266   1.765  12.964  0.6619 -0.3134  0.3304
15323TIP3    H167460   2.231   1.763  12.874  0.5247 -0.0201  0.3767
15323TIP3    H267461   2.324   1.841  12.966 -0.8832  0.9030  1.0470
15324TIP3   OH267462   0.008   3.212  16.704  0.0820  0.2415 -0.3759
15324TIP3    H167463  -0.038   3.180  16.627 -0.7603 -0.0841  0.2472
15324TIP3    H267464  -0.046   3.283  16.738  0.2762  0.1687  0.1022
15325TIP3   OH267465   0.334   4.808  16.804  0.0087  0.5066 -0.3729
15325TIP3    H167466   0.315   4.880  16.864 -0.8094 -0.1218  0.1468
15325TIP3    H267467   0.296   4.836  16.721  2.6475  2.1534 -1.1507
15326TIP3   OH267468   6.361   1.001   3.935 -0.3284  0.1489 -0.1842
15326TIP3    H167469   6.445   1.007   3.890 -0.1357  1.0480  0.2947
15326TIP3    H267470   6.349   0.907   3.950  0.5703  0.0141 -0.2828
15327TIP3   OH267471   2.860   3.666  12.889  0.5179 -0.3703 -0.2917
15327TIP3    H167472   2.881   3.586  12.936  0.7471  0.4514  1.0566
15327TIP3    H267473   2.937   3.721  12.898 -0.3691  0.7810  0.5381
15328TIP3   OH267474   0.656   0.568   1.474  0.6086  0.0272 -0.0760
15328TIP3    H167475   0.631   0.514   1.550  1.0770  0.6366  0.5192
15328TIP3    H267476   0.702   0.507   1.416  1.1977 -0.2192  0.6261
15329TIP3   OH267477   6.668   4.352  14.808 -0.7486 -0.4796  0.4785
15329TIP3    H167478   6.656   4.300  14.887 -0.5917 -2.2233 -0.5949
15329TIP3    H267479   6.762   4.349  14.791 -0.7354  0.1658  0.3868
15330TIP3   OH267480   3.806   0.193   0.519 -0.3605 -0.3871  0.2473
15330TIP3    H167481   3.731   0.141   0.488 -0.2980  0.1479 -0.8492
15330TIP3    H267482   3.857   0.212   0.440  0.5247 -0.0900  0.8723
15331TIP3   OH267483   0.944   5.167  17.075 -0.1893  0.2133  0.0247
15331TIP3    H167484   1.022   5.112  17.077 -0.1560  0.1532 -1.5709
15331TIP3    H267485   0.977   5.253  17.048 -0.7253  0.0541 -1.1932
15332TIP3   OH267486   4.594   3.762   4.476  0.0556  0.1882  0.5878
15332TIP3    H167487   4.617   3.670   4.488 -0.2084 -0.0013 -0.2844
15332TIP3    H267488   4.505   3.769   4.510 -0.1897 -0.0441  0.0105
15333TIP3   OH267489   2.276   1.888   5.921  0.0412 -0.4292 -0.0120
15333TIP3    H167490   2.186   1.863   5.945  0.0414 -1.2524 -0.8081
15333TIP3    H267491   2.275   1.889   5.826  0.6468  0.4606 -0.0098
15334TIP3   OH267492   5.608   3.197   2.183 -0.4249 -0.2572  0.1624
15334TIP3    H167493   5.616   3.101   2.186  1.9300 -0.1041  1.2199
15334TIP3    H267494   5.626   3.220   2.092  1.0043 -0.7531  0.2849
15335TIP3   OH267495   0.914   3.708   3.854  0.6611 -0.6445  0.4161
15335TIP3    H167496   0.878   3.678   3.937 -0.4697 -0.1506  0.1372
15335TIP3    H267497   0.931   3.801   3.868 -0.1994 -0.3940 -0.0950
15336TIP3   OH267498   2.102   1.655   1.702  0.2377 -0.0602  0.2740
15336TIP3    H167499   2.100   1.655   1.798  0.5297  0.2072  0.2827
15336TIP3    H267500   2.123   1.565   1.678  2.8609  0.3975  0.5359
15337TIP3   OH267501   0.475   4.395   2.745  0.4994 -0.0728  0.0641
15337TIP3    H167502   0.503   4.472   2.696  0.0563  0.2045  0.2355
15337TIP3    H267503   0.473   4.324   2.681 -0.8839  0.4636 -0.5202
15338TIP3   OH267504   0.945   3.075  16.272  0.2622 -0.7489  0.3474
15338TIP3    H167505   1.004   3.010  16.235  1.5112  1.4088 -1.7201
15338TIP3    H267506   0.997   3.121  16.338 -0.2214 -1.0347  0.9410
15339TIP3   OH267507   5.046   0.353  13.149  0.1435  0.0634 -0.4559
15339TIP3    H167508   5.086   0.344  13.235  1.5769  0.3325 -1.0507
15339TIP3    H267509   5.090   0.286  13.096  0.6225  1.0874 -1.4017
15340TIP3   OH267510   5.228   2.035  16.811  0.1801 -0.1784 -0.3870
15340TIP3    H167511   5.313   1.995  16.828  0.3328  0.4766  0.4959
15340TIP3    H267512   5.168   1.986  16.868  0.3910  0.8960  0.7989
15341TIP3   OH267513   4.517   2.095  14.760  0.0404  0.0800 -0.8918
15341TIP3    H167514   4.492   2.043  14.837 -1.3954  1.9362 -0.0223
15341TIP3    H267515   4.577   2.038  14.711  1.4087 -0.9861  1.8235
15342TIP3   OH267516   0.978   1.775   5.837  0.3211  0.0881  1.2393
15342TIP3    H167517   0.902   1.738   5.881 -0.2366 -0.3228 -0.0191
15342TIP3    H267518   0.950   1.788   5.746  1.7525 -0.0782  0.7364
15343TIP3   OH267519   1.765   1.546   0.867  0.1815 -0.1221 -0.3879
15343TIP3    H167520   1.679   1.584   0.889  0.0805 -1.1997  1.2921
15343TIP3    H267521   1.795   1.508   0.949  1.1857 -1.8823 -1.5259
15344TIP3   OH267522   6.229   3.851   5.909  0.0183  0.4973 -0.3287
15344TIP3    H167523   6.280   3.792   5.965 -0.7591 -1.3381 -1.4570
15344TIP3    H267524   6.294   3.899   5.858  0.7163  1.6733  1.5320
15345TIP3   OH267525   1.009   2.492  12.503  0.3781  0.5217 -0.1499
15345TIP3    H167526   0.942   2.547  12.463 -0.2379  0.7564  1.1906
15345TIP3    H267527   0.986   2.487  12.595  2.3231  0.7806  0.3931
15346TIP3   OH267528   5.129   3.956   4.698 -0.0854 -0.7191  0.2963
15346TIP3    H167529   5.052   4.009   4.718  1.1650  1.5280 -0.4719
15346TIP3    H267530   5.191   3.975   4.768  0.1578 -1.7169  0.3717
15347TIP3   OH267531   3.064   1.282   2.755  0.1369 -0.1611 -0.1386
15347TIP3    H167532   3.129   1.320   2.696  0.6044  0.9217  1.0235
15347TIP3    H267533   2.984   1.330   2.736 -0.2636 -1.2327 -1.3020
15348TIP3   OH267534   5.730   0.747   3.408 -0.4558  0.0342 -0.7659
15348TIP3    H167535   5.706   0.727   3.318 -2.1385 -0.2200 -0.3110
15348TIP3    H267536   5.750   0.661   3.447  0.3477  0.1522 -0.9185
15349TIP3   OH267537   6.674   1.833  13.403 -0.3508  0.1428  0.0415
15349TIP3    H167538   6.651   1.858  13.493 -0.4318  0.9496 -0.1932
15349TIP3    H267539   6.718   1.910  13.368  2.2289 -1.1281  0.2668
15350TIP3   OH267540   5.976   0.484   2.958 -0.5011  0.2423  0.0880
15350TIP3    H167541   5.938   0.494   2.871 -1.1045 -2.0768  0.0146
15350TIP3    H267542   6.052   0.428   2.945  0.3014  1.1178  0.8719
15351TIP3   OH267543   4.839   2.938  16.802  0.3185 -0.4195  0.7057
15351TIP3    H167544   4.875   3.008  16.747  0.8106  0.2703  1.8694
15351TIP3    H267545   4.812   2.870  16.740 -0.4269  0.9130 -0.4697
15352TIP3   OH267546   2.101   6.308  12.785 -0.2268  0.5066  0.0481
15352TIP3    H167547   2.068   6.398  12.789  0.9824  1.0897 -1.4972
15352TIP3    H267548   2.176   6.307  12.844 -1.7310 -0.2629  2.0452
15353TIP3   OH267549   1.387   6.692  11.806 -0.4703  0.8585 -0.4504
15353TIP3    H167550   1.438   6.726  11.880 -0.2340 -1.1787  0.3675
15353TIP3    H267551   1.298   6.686  11.839 -0.8436  2.1631 -1.1296
15354TIP3   OH267552   5.977   6.489  15.606 -0.5127  0.1081  0.1598
15354TIP3    H167553   5.981   6.497  15.511  1.1855  1.1034  0.2916
15354TIP3    H267554   5.990   6.577  15.639 -1.2198 -0.2013  1.3425
15355TIP3   OH267555   5.838   0.040   6.050  0.3727  0.2601 -0.0908
15355TIP3    H167556   5.782  -0.005   5.987  0.5586 -0.4939  0.2766
15355TIP3    H267557   5.789   0.035   6.133  0.7419  0.0489  0.1166
15356TIP3   OH267558   4.611   4.676   0.878 -0.1493  0.4772  0.1240
15356TIP3    H167559   4.591   4.764   0.847  1.7331  0.7172 -0.5398
15356TIP3    H267560   4.575   4.618   0.811  0.8721  0.8603 -0.7668
15357TIP3   OH267561   0.729   5.958   4.206 -0.6234  0.3483  0.7340
15357TIP3    H167562   0.692   5.945   4.294 -1.4710 -1.0188  0.2144
15357TIP3    H267563   0.652   5.974   4.151 -0.3124 -0.9361 -0.1056
15358TIP3   OH267564   6.339   3.457  12.753 -0.6259  0.2597  0.1296
15358TIP3    H167565   6.391   3.464  12.674  1.9961  1.8547  1.8353
15358TIP3    H267566   6.347   3.366  12.780 -1.0010 -0.1360 -1.0297
15359TIP3   OH267567   2.553   4.439   4.128 -0.3580  0.3792 -0.0570
15359TIP3    H167568   2.488   4.397   4.185 -1.2177  2.1107  0.3028
15359TIP3    H267569   2.623   4.466   4.188  0.2156 -0.4946 -0.2967
15360TIP3   OH267570   1.267   0.983  12.448  0.6106  0.6458 -0.1394
15360TIP3    H167571   1.270   1.079  12.455  0.2958  0.8134 -1.7550
15360TIP3    H267572   1.343   0.953  12.497  0.1799  1.6421  1.2238
15361TIP3   OH267573   6.581   1.879   3.486  0.0171  0.2856  0.3092
15361TIP3    H167574   6.648   1.924   3.436 -0.7916  0.3079 -0.7793
15361TIP3    H267575   6.521   1.948   3.514  0.1328  0.1944  0.8068
15362TIP3   OH267576   3.807   6.210  12.574  0.4607  0.8608  0.3645
15362TIP3    H167577   3.741   6.268  12.611  0.0151  0.2441  0.5662
15362TIP3    H267578   3.853   6.263  12.510 -0.4334  1.2146  0.0043
15363TIP3   OH267579   3.282   0.075   0.026 -0.0460 -0.0331  1.0053
15363TIP3    H167580   3.356   0.045   0.079  0.7463  0.2652  0.0938
15363TIP3    H267581   3.233  -0.005   0.005  0.6695 -0.3849  0.6475
15364TIP3   OH267582   3.967   2.421  17.025  0.1704 -0.3812 -0.0222
15364TIP3    H167583   4.033   2.398  17.091 -0.2647 -2.2889 -0.2051
15364TIP3    H267584   4.015   2.474  16.962  1.1409 -0.3843  0.6843
15365TIP3   OH267585   5.496   1.949  16.906  0.2919 -0.1959  0.5767
15365TIP3    H167586   5.574   1.971  16.854  0.4066  0.9136  1.1824
15365TIP3    H267587   5.530   1.932  16.993 -0.0969 -0.0675  0.7565
15366TIP3   OH267588   3.822   5.649  16.011  0.3033 -0.0452  0.1188
15366TIP3    H167589   3.767   5.727  16.007  0.2487 -0.1204 -3.0033
15366TIP3    H267590   3.883   5.666  16.083 -2.1998  1.0767  2.1136
15367TIP3   OH267591   6.768   1.109  12.599  0.4550  0.0369 -0.0631
15367TIP3    H167592   6.842   1.118  12.538  0.3849  1.5499  0.0399
15367TIP3    H267593   6.698   1.072  12.546  0.8060  0.0790 -0.5654
15368TIP3   OH267594   6.007   0.693   3.827 -0.0333 -0.0784  0.1112
15368TIP3    H167595   5.915   0.670   3.814  0.4105 -1.1332 -1.4389
15368TIP3    H267596   6.024   0.762   3.762  1.0077 -2.0531 -1.8315
15369TIP3   OH267597   3.454   1.087   5.158 -0.1644 -0.3490 -0.3474
15369TIP3    H167598   3.447   1.152   5.227 -0.9978  0.7482 -1.4287
15369TIP3    H267599   3.364   1.068   5.133  0.1325  0.1045 -1.8754
15370TIP3   OH267600   6.357   4.623  13.846 -0.2009  0.0382 -0.3759
15370TIP3    H167601   6.433   4.565  13.836 -0.8354 -0.6846 -1.1616
15370TIP3    H267602   6.289   4.583  13.792 -0.8529  1.1896 -0.4480
15371TIP3   OH267603   6.841   0.529  16.141 -0.1975  0.3122  0.0268
15371TIP3    H167604   6.784   0.476  16.084 -0.2107  0.6771 -0.3031
15371TIP3    H267605   6.800   0.522  16.228 -0.5200  0.2446 -0.1262
15372TIP3   OH267606   6.447   5.961  15.651  0.3072  0.5079  0.2263
15372TIP3    H167607   6.442   5.887  15.712 -1.0640  0.3277 -0.0867
15372TIP3    H267608   6.541   5.979  15.645  0.7212 -1.4545  0.0208
15373TIP3   OH267609   2.068   0.705  11.932 -0.3335  0.1204 -0.1269
15373TIP3    H167610   1.982   0.739  11.908 -0.5179  1.1570  1.7951
15373TIP3    H267611   2.125   0.730  11.860 -1.0668  2.0000 -0.0994
15374TIP3   OH267612   3.171   0.338   2.163 -0.2739 -0.1637 -0.1846
15374TIP3    H167613   3.105   0.270   2.156  0.1863 -0.6133 -0.1914
15374TIP3    H267614   3.148   0.401   2.094 -0.0092 -0.9070 -0.9588
15375TIP3   OH267615   4.582   3.340   2.745  0.4228  0.5367 -0.4880
15375TIP3    H167616   4.582   3.254   2.704  0.9884 -0.6620  1.8370
15375TIP3    H267617   4.539   3.327   2.830 -2.0372  3.1835 -1.1302
15376TIP3   OH267618   2.397   3.523  14.054 -0.1776 -0.5900  0.4704
15376TIP3    H167619   2.338   3.503  13.982 -2.2686  1.7632  1.3857
15376TIP3    H267620   2.442   3.603  14.027  2.2213 -2.0036  0.0655
15377TIP3   OH267621   5.823   1.496   0.012 -0.1594  0.2416 -0.0952
15377TIP3    H167622   5.801   1.563  -0.053  1.1471 -0.9408 -1.8580
15377TIP3    H267623   5.749   1.497   0.074 -0.4173  2.9014 -0.3385
15378TIP3   OH267624   0.045   6.806   4.311 -0.2759 -0.6659  0.1569
15378TIP3    H167625   0.072   6.748   4.383 -0.5294  0.2007  0.9685
15378TIP3    H267626   0.117   6.868   4.303  0.7632 -2.0166 -1.8057
15379TIP3   OH267627   4.220   3.546  11.362 -0.7974  0.0713  0.1708
15379TIP3    H167628   4.292   3.577  11.307  0.4431  0.4168  1.8653
15379TIP3    H267629   4.176   3.479  11.310 -0.3122  1.0441 -1.5715
15380TIP3   OH267630   0.921   5.978   5.642 -0.6862  0.6060 -0.5465
15380TIP3    H167631   0.833   6.016   5.641 -0.5559  0.9107 -0.7380
15380TIP3    H267632   0.945   5.974   5.549  0.6317  3.1925 -0.4119
15381TIP3   OH267633   6.635   1.439  12.474 -0.1053  0.1145  0.2058
15381TIP3    H167634   6.564   1.491  12.437  0.4213  0.5983 -0.1551
15381TIP3    H267635   6.621   1.442  12.568 -1.1008 -0.5884  0.0953
15382TIP3   OH267636   6.361   4.915  13.411  0.4715 -0.1028  0.6762
15382TIP3    H167637   6.369   4.947  13.500  0.0786  2.5474 -0.1563
15382TIP3    H267638   6.447   4.880  13.390  0.3172 -1.6068  2.3339
15383TIP3   OH267639   4.213   6.756   0.966  0.5811  0.6403  0.7963
15383TIP3    H167640   4.179   6.691   1.028 -1.4574  1.4115  0.5794
15383TIP3    H267641   4.230   6.706   0.886 -1.0637  0.3517  0.5995
15384TIP3   OH267642   6.340   2.581   4.490 -0.2696 -0.7011  0.0236
15384TIP3    H167643   6.304   2.625   4.413  0.9412 -0.7082 -0.5802
15384TIP3    H267644   6.391   2.649   4.534 -1.4375 -0.5415  1.1639
15385TIP3   OH267645   0.144   4.356  12.754 -0.0087  0.2315 -0.1651
15385TIP3    H167646   0.051   4.334  12.760 -0.3997  1.1747 -2.1351
15385TIP3    H267647   0.164   4.353  12.661  1.9536  0.0601  0.2154
15386TIP3   OH267648   0.197   3.426   0.767 -0.1837 -0.0155 -0.3824
15386TIP3    H167649   0.133   3.392   0.830 -0.1978  1.0412  0.1856
15386TIP3    H267650   0.250   3.349   0.743 -0.8345 -0.6380  0.1221
15387TIP3   OH267651   3.786   2.172  15.566 -0.3659  0.1638 -0.0343
15387TIP3    H167652   3.797   2.164  15.660 -1.3118  2.9311  0.4091
15387TIP3    H267653   3.864   2.132  15.529  1.8753  2.2096  2.1157
15388TIP3   OH267654   2.558   0.321   4.942  0.6784 -0.2905 -0.1897
15388TIP3    H167655   2.616   0.248   4.965 -1.0314 -1.4941  0.5593
15388TIP3    H267656   2.471   0.282   4.939 -0.3650  1.8003  0.6542
15389TIP3   OH267657   1.172   4.655  12.274  0.0431  0.0979  0.2684
15389TIP3    H167658   1.201   4.721  12.210 -0.9076 -0.0397 -0.3248
15389TIP3    H267659   1.238   4.586  12.270 -0.2073 -0.0909 -0.8665
15390TIP3   OH267660   6.512   6.015  14.373 -0.3391  0.1507 -0.1635
15390TIP3    H167661   6.573   6.068  14.425  1.4559 -1.7176 -0.2286
15390TIP3    H267662   6.533   6.036  14.282  2.6990 -2.7764 -0.3630
15391TIP3   OH267663   6.495   4.320  15.572  0.4516  0.0462 -0.0761
15391TIP3    H167664   6.485   4.383  15.500  1.1411 -0.0686 -0.2789
15391TIP3    H267665   6.409   4.319  15.614 -1.0723 -2.3300 -2.8645
15392TIP3   OH267666   6.071   1.033   1.175  0.3157 -0.4484  0.3080
15392TIP3    H167667   6.095   0.998   1.089 -0.0970 -1.4902  0.6018
15392TIP3    H267668   6.152   1.028   1.226  0.2783 -0.9090  0.3246
15393TIP3   OH267669   2.938   4.673   5.970  0.5557  0.2368  0.5360
15393TIP3    H167670   2.953   4.582   5.945  2.7368  0.7103 -0.0568
15393TIP3    H267671   2.976   4.724   5.899  0.1192  1.6327  1.2646
15394TIP3   OH267672   5.030   3.980   4.424  0.0889 -0.5142 -0.3262
15394TIP3    H167673   5.090   3.947   4.491 -0.2242 -1.4485 -0.4862
15394TIP3    H267674   5.087   4.005   4.351  0.3500 -0.4982 -0.1194
15395TIP3   OH267675   0.607   4.393   0.733 -0.5783 -0.2611  0.0819
15395TIP3    H167676   0.700   4.370   0.729 -0.2294  1.2044 -1.4682
15395TIP3    H267677   0.562   4.308   0.737  0.7988 -1.0342 -0.1354
15396TIP3   OH267678   2.658   6.342  15.803  0.0773 -0.0279 -0.1141
15396TIP3    H167679   2.739   6.369  15.846  0.1916  0.2344 -0.4853
15396TIP3    H267680   2.621   6.423  15.768 -0.8282 -0.0146  0.8483
15397TIP3   OH267681   1.368   5.074  16.037  0.4185  0.5213 -0.0198
15397TIP3    H167682   1.327   4.992  16.062  0.4544  0.8356  1.1256
15397TIP3    H267683   1.417   5.054  15.957 -2.0196  0.1460 -1.5123
15398TIP3   OH267684   3.303   5.242   3.511 -0.2330  0.1070 -0.0195
15398TIP3    H167685   3.305   5.302   3.585 -2.5542  1.8757 -1.2664
15398TIP3    H267686   3.220   5.195   3.519  0.3351 -1.0202 -0.5205
15399TIP3   OH267687   3.269   1.678  16.239  0.6791 -0.4477 -0.3675
15399TIP3    H167688   3.247   1.722  16.321  0.5238  0.3661 -0.8281
15399TIP3    H267689   3.203   1.708  16.177  1.2210 -0.4750 -0.9708
15400TIP3   OH267690   6.568   0.447   0.952 -0.3018 -0.1726 -0.1305
15400TIP3    H167691   6.627   0.512   0.915  0.3367  0.4494  1.8144
15400TIP3    H267692   6.590   0.365   0.908 -1.6282  0.9580 -3.1845
15401TIP3   OH267693   5.126   6.019  14.501  0.1783  0.1234  0.2924
15401TIP3    H167694   5.164   6.000  14.587  2.0283 -0.1932 -0.5555
15401TIP3    H267695   5.031   6.011  14.515  0.4925 -1.9593  1.8420
15402TIP3   OH267696   0.703   6.058   0.313 -0.0392 -0.3110  0.1354
15402TIP3    H167697   0.744   6.120   0.252 -0.8818  1.2200  1.0658
15402TIP3    H267698   0.621   6.099   0.338 -1.8975 -2.9688 -1.1056
15403TIP3   OH267699   2.108   6.253  11.203  0.0031  0.4134  0.7842
15403TIP3    H167700   2.015   6.273  11.206  0.3084  1.8247  2.7559
15403TIP3    H267701   2.146   6.324  11.150 -0.1295 -0.7520 -0.9387
15404TIP3   OH267702   2.857   5.307  14.300  0.3734  0.3853  0.5581
15404TIP3    H167703   2.878   5.223  14.340 -1.2268 -0.8376 -1.0107
15404TIP3    H267704   2.894   5.303  14.212 -2.2078 -0.0040 -0.6268
15405TIP3   OH267705   6.773   5.480  15.189  0.0813 -0.2932 -0.1227
15405TIP3    H167706   6.862   5.514  15.182 -0.5566  1.2895 -1.3068
15405TIP3    H267707   6.734   5.530  15.261 -0.4411  0.5304 -0.9552
15406TIP3   OH267708   3.320   6.634  12.829  0.1118  0.2611 -0.1340
15406TIP3    H167709   3.238   6.585  12.817 -0.0489  0.6857 -0.7845
15406TIP3    H267710   3.336   6.630  12.923 -0.6630  0.1825  0.0002
15407TIP3   OH267711   3.627   5.070  16.586  0.2472  0.4549 -0.6132
15407TIP3    H167712   3.638   5.054  16.492 -0.3558  0.3784 -0.6734
15407TIP3    H267713   3.683   5.005  16.628 -0.3760 -0.2870 -0.9055
15408TIP3   OH267714   3.656   6.167  13.405 -0.5143 -0.8471 -0.6850
15408TIP3    H167715   3.641   6.218  13.326  2.0476  0.6837 -0.2931
15408TIP3    H267716   3.621   6.222  13.476 -1.6530 -1.6402 -0.6052
15409TIP3   OH267717   1.611   3.053  15.859 -0.6145  0.2426  0.3497
15409TIP3    H167718   1.576   2.985  15.802 -3.9129  2.2208 -0.2974
15409TIP3    H267719   1.578   3.031  15.946  1.4141 -0.8592  0.8921
15410TIP3   OH267720   1.790   5.226   4.590 -1.0032  0.0111 -0.2578
15410TIP3    H167721   1.883   5.204   4.597 -1.1716 -1.2242 -1.3889
15410TIP3    H267722   1.745   5.142   4.604 -1.8467  0.2246 -1.5031
15411TIP3   OH267723   1.110   1.304   1.987 -0.0326  0.0375 -0.4766
15411TIP3    H167724   1.204   1.287   1.992 -0.3359 -1.3053  1.5939
15411TIP3    H267725   1.101   1.362   1.911  2.3640 -0.3768 -1.1806
15412TIP3   OH267726   4.220   2.828  15.772 -0.6422  0.1451  0.1921
15412TIP3    H167727   4.258   2.791  15.692 -0.2977  1.1437 -0.1270
15412TIP3    H267728   4.184   2.912  15.744  0.2713  0.9239  1.2478
15413TIP3   OH267729   0.554   2.282  15.714 -0.1364  0.0209 -0.4832
15413TIP3    H167730   0.639   2.318  15.741 -0.2272 -0.2630  0.2022
15413TIP3    H267731   0.576   2.199  15.672 -0.0711 -0.0407 -0.3276
15414TIP3   OH267732   5.339   5.270   5.809  0.6583 -0.3637  0.3893
15414TIP3    H167733   5.251   5.256   5.773  0.4950  1.3901  0.0249
15414TIP3    H267734   5.327   5.262   5.904  0.4633 -1.8358  0.2597
15415TIP3   OH267735   1.229   6.446  11.198 -0.1137 -0.2256  0.2014
15415TIP3    H167736   1.240   6.357  11.232 -0.2183 -0.9814 -1.6186
15415TIP3    H267737   1.301   6.456  11.135  0.9594  1.6559  1.6327
15416TIP3   OH267738   1.168   1.127  12.091  0.0546  0.0006 -0.3387
15416TIP3    H167739   1.141   1.103  12.180  2.9689  2.5482  1.4749
15416TIP3    H267740   1.110   1.200  12.068  1.1457  1.3203  0.8621
15417TIP3   OH267741   5.641   4.967  14.730 -0.2845  0.3802  0.2411
15417TIP3    H167742   5.680   4.970  14.643  0.5393  3.0130  0.5952
15417TIP3    H267743   5.569   5.030  14.726 -2.3579 -1.8258  0.6150
15418TIP3   OH267744   5.643   3.811   2.433 -0.1094  0.2444 -0.3174
15418TIP3    H167745   5.556   3.790   2.467 -0.4477  0.1719 -1.1972
15418TIP3    H267746   5.662   3.739   2.372  0.4621  0.3912 -0.3139
15419TIP3   OH267747   2.039   4.192  11.941 -0.0762  0.3052  0.2189
15419TIP3    H167748   2.096   4.230  11.875  0.8851 -0.7978  0.3656
15419TIP3    H267749   2.080   4.108  11.963 -1.3665 -0.1950  0.8734
15420TIP3   OH267750   6.362   0.232  16.543 -0.8306 -0.7103 -0.1689
15420TIP3    H167751   6.440   0.259  16.495 -0.9029  2.1054  1.0964
15420TIP3    H267752   6.395   0.211  16.631 -1.5048  1.6400  0.7333
15421TIP3   OH267753   2.470   0.426   0.919  0.4254  0.2327 -0.2504
15421TIP3    H167754   2.499   0.509   0.958 -3.8980  2.6343 -1.4712
15421TIP3    H267755   2.459   0.445   0.826 -2.0899 -1.1527 -0.3299
15422TIP3   OH267756   2.892   2.275  15.219 -0.9052 -0.1319  0.0080
15422TIP3    H167757   2.859   2.257  15.307 -2.2372  0.9367 -0.2280
15422TIP3    H267758   2.942   2.356  15.228 -1.5813  0.3378 -0.2971
15423TIP3   OH267759   4.344   5.282  15.677  0.1550  0.2991 -0.1635
15423TIP3    H167760   4.310   5.274  15.587  1.3865 -1.1795 -0.5277
15423TIP3    H267761   4.270   5.258  15.732 -0.0293 -0.7911 -0.8609
15424TIP3   OH267762   6.683   3.259   1.705 -0.1235 -0.0452  0.2387
15424TIP3    H167763   6.588   3.248   1.710 -0.0880 -0.2737  0.4905
15424TIP3    H267764   6.714   3.241   1.794  0.1993 -0.4574  0.0504
15425TIP3   OH267765   3.035   3.929  14.049  0.5066 -0.1469  0.2445
15425TIP3    H167766   3.041   3.856  13.988  3.4349  0.4213 -0.2931
15425TIP3    H267767   2.967   3.986  14.012  2.3862  0.3330 -2.7939
15426TIP3   OH267768   2.752   1.795  15.078 -0.0099 -0.2838 -0.1084
15426TIP3    H167769   2.759   1.702  15.100 -1.4282 -0.0714  1.4440
15426TIP3    H267770   2.693   1.797  15.002 -1.0225 -0.5960  0.6491
15427TIP3   OH267771   0.878   5.246  15.960  0.5128  0.2507 -0.4651
15427TIP3    H167772   0.872   5.250  16.056  0.4874 -1.6648 -0.3492
15427TIP3    H267773   0.833   5.325  15.930  1.1750  1.2727  1.1075
15428TIP3   OH267774   3.623   4.173  14.467  0.9196  0.0618 -0.2403
15428TIP3    H167775   3.667   4.256  14.481 -0.2759  0.3068  2.9090
15428TIP3    H267776   3.694   4.109  14.459  1.8384  1.0610 -0.2827
15429TIP3   OH267777   1.765   3.772   5.861  0.0846 -0.2701 -0.2798
15429TIP3    H167778   1.827   3.714   5.817 -0.0628  0.3302 -1.3067
15429TIP3    H267779   1.794   3.774   5.952  0.4105 -1.5225 -0.3455
15430TIP3   OH267780   0.384   6.581  13.097 -0.6327  0.0450 -0.2085
15430TIP3    H167781   0.305   6.588  13.042  0.1604 -1.0858 -1.5548
15430TIP3    H267782   0.364   6.633  13.174 -1.8052  1.7621 -1.5820
15431TIP3   OH267783   3.681   0.921   5.156  0.4897  0.1721  0.5534
15431TIP3    H167784   3.598   0.957   5.186  0.4052  0.1736  0.3170
15431TIP3    H267785   3.698   0.964   5.072  1.3570  1.1305  1.1971
15432TIP3   OH267786   3.129   0.211   0.513 -0.0038  0.3094  0.2137
15432TIP3    H167787   3.191   0.170   0.574 -0.7415 -0.5101  0.4455
15432TIP3    H267788   3.059   0.146   0.504  0.0634  0.4350 -1.4738
15433TIP3   OH267789   6.082   4.946   0.341 -0.0002  0.3572 -0.5846
15433TIP3    H167790   5.994   4.950   0.305  0.1441 -2.4019 -1.5152
15433TIP3    H267791   6.080   5.002   0.418 -2.2201  1.2415 -1.2189
15434TIP3   OH267792   5.849   2.250   1.678 -0.0263 -0.3638 -0.5535
15434TIP3    H167793   5.812   2.181   1.733  0.4817  0.2034  0.5387
15434TIP3    H267794   5.773   2.298   1.645 -0.3577  1.0158  1.9510
15435TIP3   OH267795   5.611   6.092   2.093  0.1857 -0.3958 -0.2074
15435TIP3    H167796   5.660   6.107   2.174 -0.9163  0.7423  0.2905
15435TIP3    H267797   5.656   6.019   2.050  0.8869 -0.9200  1.3553
15436TIP3   OH267798   5.366   3.655  11.423 -0.2494  0.1349 -0.0572
15436TIP3    H167799   5.392   3.741  11.454  2.3419 -0.6140  0.0738
15436TIP3    H267800   5.356   3.603  11.503  1.2633 -0.4353 -0.2022
15437TIP3   OH267801   6.109   5.664   5.119  1.1218  0.8102 -0.1378
15437TIP3    H167802   6.013   5.659   5.120  0.9103 -1.1731 -4.8732
15437TIP3    H267803   6.137   5.573   5.134  2.2479  1.1934  0.1588
15438TIP3   OH267804   6.730   0.729   4.853 -0.2207  0.2369  0.7752
15438TIP3    H167805   6.821   0.722   4.825 -0.3643  1.7937 -0.2218
15438TIP3    H267806   6.683   0.664   4.801  0.0906  0.5597  0.0744
15439TIP3   OH267807   1.440   2.289   1.365  0.4160 -0.1695  0.0706
15439TIP3    H167808   1.413   2.325   1.280 -1.7270  2.6123  1.7441
15439TIP3    H267809   1.534   2.272   1.355 -0.0011 -1.2513 -3.1955
15440TIP3   OH267810   4.910   2.238  16.559  0.1666  0.2559  0.2344
15440TIP3    H167811   4.986   2.254  16.616  0.1967 -0.0852  0.2931
15440TIP3    H267812   4.946   2.188  16.486  0.0571  0.3737  0.1008
15441TIP3   OH267813   1.767   1.247  11.267  0.0998  0.2825 -0.0396
15441TIP3    H167814   1.688   1.196  11.247  0.0449  0.2158  0.3573
15441TIP3    H267815   1.823   1.188  11.317  0.0305  0.6106  0.4305
15442TIP3   OH267816   1.493   0.550   3.000  0.0450 -0.5501  0.1292
15442TIP3    H167817   1.496   0.639   2.963 -0.9626 -0.5032  0.1301
15442TIP3    H267818   1.531   0.495   2.932  0.0765 -0.2013 -0.1423
15443TIP3   OH267819   0.340   0.640   6.163  0.9536  0.1033  0.1183
15443TIP3    H167820   0.257   0.592   6.164  0.5229  0.7639 -1.2056
15443TIP3    H267821   0.402   0.581   6.120  0.7341  0.2213 -0.3778
15444TIP3   OH267822   4.600   0.565   5.011 -0.1507  0.2386  0.8276
15444TIP3    H167823   4.521   0.513   5.028  1.0118 -1.6039  0.9437
15444TIP3    H267824   4.620   0.607   5.094  0.2546 -1.1630  1.4693
15445TIP3   OH267825   6.496   4.837  11.461  1.1035  0.1503 -1.2183
15445TIP3    H167826   6.445   4.772  11.413 -0.0466  1.0761 -1.2734
15445TIP3    H267827   6.522   4.791  11.542 -3.2384  0.7465  0.8106
15446TIP3   OH267828   2.661   6.230   4.680  0.2651  0.0118  0.5983
15446TIP3    H167829   2.756   6.237   4.685  0.1661  1.2475  1.1717
15446TIP3    H267830   2.630   6.277   4.757 -0.7980 -1.2380  0.9676
15447TIP3   OH267831   0.966   4.943   4.807 -0.2800 -0.0822 -0.6624
15447TIP3    H167832   0.877   4.975   4.790 -0.1734 -0.3787 -1.8812
15447TIP3    H267833   0.968   4.927   4.902 -1.0198  1.3970 -0.3695
15448TIP3   OH267834   6.508   0.701   4.430 -0.0079  0.4347  0.4957
15448TIP3    H167835   6.584   0.642   4.437  0.7691  1.3271 -0.1492
15448TIP3    H267836   6.533   0.763   4.362 -1.1931  0.9566  0.5229
15449TIP3   OH267837   6.240   0.092   3.015 -0.1934 -0.1474  0.1549
15449TIP3    H167838   6.271   0.162   2.958 -1.8667 -0.2611 -0.9460
15449TIP3    H267839   6.264   0.012   2.970  0.6342 -0.3042  0.8325
15450TIP3   OH267840   0.461   0.814  15.498  0.2311  0.0604 -0.1315
15450TIP3    H167841   0.469   0.793  15.591  0.1732  0.7682  0.0417
15450TIP3    H267842   0.443   0.908  15.497 -1.3669 -0.2247 -0.7903
15451TIP3   OH267843   4.769   3.365  11.140  0.0256 -0.4965  0.8134
15451TIP3    H167844   4.682   3.360  11.181  0.2282 -1.0169  1.1882
15451TIP3    H267845   4.811   3.441  11.182 -0.1913 -0.3371  0.7434
15452TIP3   OH267846   2.557   4.139   4.778  0.5203  0.5162  0.1805
15452TIP3    H167847   2.537   4.049   4.754  0.0788  0.4755  0.7039
15452TIP3    H267848   2.482   4.169   4.829 -0.0612  1.6864 -1.2566
15453TIP3   OH267849   1.155   3.762   4.735  0.1990  0.6394  0.3173
15453TIP3    H167850   1.225   3.800   4.789  0.8147 -0.9595  0.7029
15453TIP3    H267851   1.104   3.837   4.705  1.7060  1.7992  0.5546
15454TIP3   OH267852   2.608   4.288   6.201  1.0868 -0.1244 -0.4354
15454TIP3    H167853   2.644   4.224   6.262  0.7150 -0.9762 -1.0889
15454TIP3    H267854   2.514   4.287   6.218  0.9499 -0.5441 -1.1714
15455TIP3   OH267855   3.762   4.154   2.669 -0.1015 -0.5301 -0.2442
15455TIP3    H167856   3.808   4.223   2.621 -1.2702 -0.2677 -1.0195
15455TIP3    H267857   3.756   4.082   2.606 -0.2922 -0.7550  0.0334
15456TIP3   OH267858   3.880   2.522  12.981  0.0700 -0.4209  0.3693
15456TIP3    H167859   3.928   2.587  12.929 -1.5960  0.5891  0.0106
15456TIP3    H267860   3.910   2.535  13.071  0.9743 -0.3047  0.0571
15457TIP3   OH267861   2.760   4.315   2.886  0.4005  0.5285 -0.5034
15457TIP3    H167862   2.671   4.289   2.910  0.4422  0.8311 -0.0174
15457TIP3    H267863   2.791   4.366   2.961  1.8127 -1.5076  0.4022
15458TIP3   OH267864   6.684   2.450   4.840  0.2842 -0.1025 -0.0455
15458TIP3    H167865   6.593   2.480   4.836  0.5294  0.8066  0.9330
15458TIP3    H267866   6.678   2.355   4.825 -0.8114 -0.0337 -0.1237
15459TIP3   OH267867   1.047   2.073  13.910 -0.4987  0.8370  0.5971
15459TIP3    H167868   0.993   2.017  13.854  0.1470 -0.1087  0.8776
15459TIP3    H267869   1.110   2.113  13.850  0.4119 -0.4441  0.6567
15460TIP3   OH267870   0.277   5.015  14.446 -0.1302  0.3623 -0.3257
15460TIP3    H167871   0.194   4.972  14.465  0.8747 -1.6643 -0.1844
15460TIP3    H267872   0.321   5.018  14.531  0.4056  0.3011 -0.5972
15461TIP3   OH267873   4.601   0.334   0.656  0.0421  0.2777 -0.8046
15461TIP3    H167874   4.523   0.389   0.643  0.6971  1.3388 -0.3675
15461TIP3    H267875   4.636   0.361   0.741  0.9334 -0.1384 -1.0269
15462TIP3   OH267876   4.394   4.258   4.428  0.2438  0.0929 -0.3371
15462TIP3    H167877   4.343   4.213   4.361 -1.3778  1.9005 -0.4108
15462TIP3    H267878   4.337   4.259   4.505  0.9600  0.4720  0.2015
15463TIP3   OH267879   3.975   0.269  16.112 -0.0295  0.8695  0.5087
15463TIP3    H167880   3.920   0.240  16.185 -0.2648  0.2762  0.1041
15463TIP3    H267881   3.918   0.323  16.058  0.8526  3.7422  2.1854
15464TIP3   OH267882   5.365   6.821  11.898  0.1665  0.2542 -0.2294
15464TIP3    H167883   5.422   6.794  11.970 -0.5642 -0.2925  0.1567
15464TIP3    H267884   5.370   6.749  11.835  0.2950  0.4409 -0.4375
15465TIP3   OH267885   5.331   0.921  14.985  0.1627  0.0131  0.0329
15465TIP3    H167886   5.237   0.902  14.981 -0.1352  1.1640  1.1183
15465TIP3    H267887   5.357   0.933  14.894 -1.1130  1.3631 -0.1865
15466TIP3   OH267888   0.037   1.590  13.909 -0.3497  0.3329 -0.0541
15466TIP3    H167889  -0.056   1.604  13.890 -0.0324  0.4910 -1.6509
15466TIP3    H267890   0.069   1.539  13.834  0.7040 -0.3199  0.8131
15467TIP3   OH267891   0.682   1.258   3.486  0.2014  0.1365  0.1617
15467TIP3    H167892   0.768   1.284   3.520 -0.4423  0.9949  1.2106
15467TIP3    H267893   0.621   1.282   3.556 -0.9537  0.0480 -0.7898
15468TIP3   OH267894   1.704   0.949   4.868  0.3489  0.0804 -0.3111
15468TIP3    H167895   1.765   0.917   4.801 -1.3388 -2.2590 -0.8728
15468TIP3    H267896   1.671   0.869   4.910 -0.2562  1.3926  1.8727
15469TIP3   OH267897   3.661   5.732  15.104 -0.2088 -0.1385 -0.0385
15469TIP3    H167898   3.691   5.761  15.017  0.3474  2.3961  0.9014
15469TIP3    H267899   3.720   5.776  15.165  0.0573 -2.6739  1.6561
15470TIP3   OH267900   2.452   2.947  12.794  0.0080 -0.0660  0.1918
15470TIP3    H167901   2.472   2.862  12.756  0.0807  0.7641 -1.7331
15470TIP3    H267902   2.427   3.002  12.719 -1.6066  1.1742  1.5415
15471TIP3   OH267903   3.190   0.415   0.846  0.4557 -0.5281  0.4458
15471TIP3    H167904   3.151   0.458   0.770  2.1310 -0.4279 -0.4012
15471TIP3    H267905   3.117   0.369   0.888 -0.8397  0.8331 -0.2173
15472TIP3   OH267906   1.487   5.536   4.566 -0.1595 -0.9624  0.5877
15472TIP3    H167907   1.452   5.604   4.509  1.5208  0.8790  1.6263
15472TIP3    H267908   1.410   5.498   4.607 -1.1507  0.7870  0.4602
15473TIP3   OH267909   1.271   2.807   2.713  0.0905  0.6025  0.0255
15473TIP3    H167910   1.304   2.828   2.800 -0.8281 -0.6683  0.7141
15473TIP3    H267911   1.179   2.783   2.727  0.2013 -0.6149 -1.1352
15474TIP3   OH267912   3.969   3.856  11.846 -0.4878  0.2537  0.6437
15474TIP3    H167913   4.020   3.909  11.785 -0.4132  0.2875  0.7351
15474TIP3    H267914   3.942   3.780  11.795  1.6908 -0.9981  1.2225
15475TIP3   OH267915   1.514   0.024  16.452 -0.3664  0.5240  0.1948
15475TIP3    H167916   1.519  -0.053  16.509 -1.9430  0.9063  0.8997
15475TIP3    H267917   1.459  -0.005  16.379 -0.4951  0.8087  0.1790
15476TIP3   OH267918   1.372   2.363   1.117 -0.1524 -0.3726  0.1550
15476TIP3    H167919   1.369   2.458   1.106  0.5966 -0.4884 -1.2288
15476TIP3    H267920   1.427   2.332   1.045  0.9198 -1.7212  1.4750
15477TIP3   OH267921   5.847   6.374  15.808 -0.7408  0.3224 -0.3527
15477TIP3    H167922   5.780   6.441  15.826 -0.2057  1.0373 -0.9923
15477TIP3    H267923   5.899   6.410  15.736  0.5979 -0.0363  0.3995
15478TIP3   OH267924   2.022   2.030  12.929  0.3113  0.1951  0.0689
15478TIP3    H167925   2.067   1.972  12.990  0.2584 -0.3450 -0.3890
15478TIP3    H267926   1.961   1.972  12.882  1.8635  0.1240 -2.0210
15479TIP3   OH267927   6.654   3.814  15.276  0.1780 -0.5332  0.3024
15479TIP3    H167928   6.606   3.733  15.291  0.3103 -0.6941 -0.1304
15479TIP3    H267929   6.732   3.787  15.227  0.0221 -0.0943 -0.1966
15480TIP3   OH267930   1.276   2.631  16.904  0.3742  1.0200  0.5917
15480TIP3    H167931   1.316   2.545  16.893 -0.3707  0.4164  2.2332
15480TIP3    H267932   1.202   2.615  16.963 -0.9503  2.4732 -0.5810
15481TIP3   OH267933   2.475   4.739   5.623  0.1144 -0.4184  1.0021
15481TIP3    H167934   2.420   4.663   5.640  0.5573 -0.7545  0.9809
15481TIP3    H267935   2.552   4.703   5.578 -0.7267  0.3462 -1.1525
15482TIP3   OH267936   3.757   0.333   1.777  0.7782  0.0276 -0.2225
15482TIP3    H167937   3.833   0.366   1.729  0.7521 -0.5650 -0.6829
15482TIP3    H267938   3.682   0.364   1.727  0.7685 -1.7094 -1.3525
15483TIP3   OH267939   2.011   5.789   0.707  0.3543 -0.2863  0.3316
15483TIP3    H167940   2.012   5.695   0.687  0.5655 -0.1566 -0.2932
15483TIP3    H267941   1.932   5.802   0.760  0.9301 -1.0034  1.4012
15484TIP3   OH267942   2.431   0.806   2.098  0.0500 -0.1647  0.6551
15484TIP3    H167943   2.343   0.833   2.070  0.2835 -0.4749 -0.4289
15484TIP3    H267944   2.459   0.875   2.158 -1.3486 -0.5976  1.8468
15485TIP3   OH267945   1.721   2.290   2.213 -0.3219  0.0385 -0.2435
15485TIP3    H167946   1.657   2.330   2.271  0.2330  2.1062 -0.9837
15485TIP3    H267947   1.788   2.255   2.272 -1.5473 -1.2335  0.4766
15486TIP3   OH267948   4.280   4.262   6.599 -0.4902  0.5443 -0.1453
15486TIP3    H167949   4.299   4.194   6.663 -0.2326 -0.5211 -1.3022
15486TIP3    H267950   4.331   4.337   6.628  0.5491 -0.2883  0.2506
15487TIP3   OH267951   6.574   6.491  11.912  0.0165  0.4903  0.2851
15487TIP3    H167952   6.481   6.501  11.889  0.1381  1.4909  0.1657
15487TIP3    H267953   6.577   6.509  12.006  0.2252  1.5164  0.0930
15488TIP3   OH267954   2.644   5.815   5.735  0.7831 -0.7376 -0.3125
15488TIP3    H167955   2.712   5.871   5.698  0.2903  0.4167  0.4632
15488TIP3    H267956   2.592   5.786   5.660  2.3342 -1.9615 -0.9611
15489TIP3   OH267957   0.953   1.552   4.744 -0.5336  0.5144  0.6675
15489TIP3    H167958   0.965   1.511   4.830  0.2679  0.1939  0.4192
15489TIP3    H267959   0.936   1.478   4.684 -1.4460  0.7673  0.6057
15490TIP3   OH267960   0.217   1.267  14.045  0.2906  0.4081 -0.2084
15490TIP3    H167961   0.262   1.190  14.011  0.6590 -0.1711  1.4888
15490TIP3    H267962   0.196   1.244  14.136 -1.3476  1.5611 -0.2433
15491TIP3   OH267963   1.559   5.288   3.877 -0.2232 -0.8605 -0.3843
15491TIP3    H167964   1.548   5.383   3.868 -0.1114 -0.4569  2.7358
15491TIP3    H267965   1.470   5.253   3.871 -0.5114 -0.3068  0.5641
15492TIP3   OH267966   3.434   2.307   1.050  0.6111 -0.4764 -0.2767
15492TIP3    H167967   3.361   2.255   1.015  1.6392 -0.7721 -2.1472
15492TIP3    H267968   3.507   2.245   1.055  1.1374  0.1611  0.0875
15493TIP3   OH267969   4.484   3.049  15.961 -0.6944  0.4126 -0.2394
15493TIP3    H167970   4.415   2.985  15.947  0.5608 -1.1027  0.2181
15493TIP3    H267971   4.502   3.086  15.875 -0.3549 -1.0216 -0.8019
15494TIP3   OH267972   5.974   5.794  12.925 -0.6609 -0.0835  0.3236
15494TIP3    H167973   6.067   5.775  12.934 -0.3582  0.4336 -1.3508
15494TIP3    H267974   5.930   5.709  12.934  0.1682 -0.6836 -1.0843
15495TIP3   OH267975   5.657   4.151  15.177 -0.6800  0.1451 -0.7917
15495TIP3    H167976   5.747   4.183  15.172 -0.9573  0.8993 -1.2368
15495TIP3    H267977   5.613   4.212  15.235 -0.3229 -1.7295  1.5995
15496TIP3   OH267978   2.520   6.468  11.989  0.1990 -0.5936  0.0547
15496TIP3    H167979   2.525   6.382  12.031  0.6159 -0.8515 -0.5029
15496TIP3    H267980   2.426   6.482  11.976  0.1801 -1.7592 -1.3902
15497TIP3   OH267981   1.018   2.142  14.173  0.3118 -0.1428  0.4372
15497TIP3    H167982   0.977   2.060  14.202  2.2872 -0.3471  3.0666
15497TIP3    H267983   1.062   2.120  14.091 -0.8137 -1.1650  0.0886
15498TIP3   OH267984   5.558   1.883   4.931  0.5385 -0.1768  0.1127
15498TIP3    H167985   5.619   1.914   4.864  1.7564 -1.2383  0.6855
15498TIP3    H267986   5.523   1.962   4.971  2.3697  0.4872  0.4934
15499TIP3   OH267987   3.086   6.205   0.922 -0.1363  0.1864 -0.0140
15499TIP3    H167988   2.992   6.203   0.939 -0.6066  1.8145 -2.0476
15499TIP3    H267989   3.124   6.234   1.005 -1.7316  2.2582  0.0771
15500TIP3   OH267990   3.862   4.422   4.108 -0.0008 -0.4170 -1.3009
15500TIP3    H167991   3.871   4.502   4.056  0.5933  0.2191 -0.2732
15500TIP3    H267992   3.884   4.450   4.197  0.7083 -1.8451 -1.0065
15501TIP3   OH267993   4.808   3.222   0.385 -0.2783 -0.2770  0.0226
15501TIP3    H167994   4.817   3.302   0.333  0.2167  0.8902  1.8272
15501TIP3    H267995   4.832   3.152   0.324 -1.0462  0.8839 -1.7042
15502TIP3   OH267996   3.631   5.955  12.964 -0.8409 -0.3964 -0.2922
15502TIP3    H167997   3.648   6.048  12.974 -1.4346 -0.4814  1.8513
15502TIP3    H267998   3.618   5.943  12.869 -1.1576  1.7378 -0.5552
15503TIP3   OH267999   6.774   1.399  11.672 -0.1250  0.3405  0.1726
15503TIP3    H168000   6.686   1.394  11.634  0.2723 -0.7482 -0.6388
15503TIP3    H268001   6.821   1.325  11.635  0.5506 -0.2940  2.1600
15504TIP3   OH268002   6.772   5.499   3.809  0.9826  0.4369 -0.0101
15504TIP3    H168003   6.689   5.528   3.847  0.7831  1.3704 -1.1079
15504TIP3    H268004   6.836   5.564   3.838  2.1104 -1.9233  3.5016
15505TIP3   OH268005   3.946   6.447  13.903  0.3002 -0.0213 -0.3868
15505TIP3    H168006   4.008   6.428  13.973  0.9486  2.0278 -0.3454
15505TIP3    H268007   3.992   6.422  13.823  0.5927  0.0687 -0.2479
15506TIP3   OH268008   5.104   5.539   4.276 -0.0480  0.3109  0.0177
15506TIP3    H168009   5.183   5.491   4.249  0.8409  1.0098  1.2411
15506TIP3    H268010   5.122   5.629   4.252  0.6014  0.8905  2.3675
15507TIP3   OH268011   6.151   0.431   6.047 -0.2339  0.2631 -0.4438
15507TIP3    H168012   6.148   0.520   6.013  1.6579  0.5298 -0.0111
15507TIP3    H268013   6.240   0.401   6.028 -0.6968 -1.3739 -0.1632
15508TIP3   OH268014   0.743   3.238  11.808 -0.2515 -0.1537 -0.4496
15508TIP3    H168015   0.684   3.312  11.820  0.3737  0.5633 -1.6418
15508TIP3    H268016   0.826   3.268  11.846  0.4280  0.3643 -2.2658
15509TIP3   OH268017   0.646   0.408  16.163  0.1286  0.3147 -0.1500
15509TIP3    H168018   0.709   0.458  16.110 -0.0805  1.2231  0.4288
15509TIP3    H268019   0.687   0.323  16.175  0.8148  0.5733 -0.5795
15510TIP3   OH268020   2.717   2.969  11.671 -0.4133  0.2129  0.1876
15510TIP3    H168021   2.710   3.055  11.712  0.5388  1.4104 -1.9743
15510TIP3    H268022   2.626   2.942  11.658 -0.7565 -0.2107  2.9020
15511TIP3   OH268023   5.653   5.067   2.762  0.6553  0.2422  0.7983
15511TIP3    H168024   5.639   5.133   2.695  0.2173 -2.6296 -2.1672
15511TIP3    H268025   5.697   5.114   2.833 -0.6422  3.8797 -0.5937
15512TIP3   OH268026   2.254   3.590  12.824  0.2074  0.7129 -0.0365
15512TIP3    H168027   2.299   3.671  12.801  0.2532  0.6894 -0.0314
15512TIP3    H268028   2.163   3.604  12.797  0.6118  0.0059 -1.9247
15513TIP3   OH268029   5.952   1.205   0.250  0.5111 -0.2352  0.4178
15513TIP3    H168030   5.913   1.208   0.337  0.3492 -0.1042  0.3403
15513TIP3    H268031   6.041   1.237   0.263  0.9776 -1.6281  0.8032
15514TIP3   OH268032   3.454   5.838  15.360 -0.1162  0.1624 -0.1307
15514TIP3    H168033   3.543   5.821  15.391 -0.0729 -0.0226 -0.3502
15514TIP3    H268034   3.417   5.751  15.343  0.1355  0.2763 -1.3476
15515TIP3   OH268035   3.220   1.441  10.246  0.7323  0.0861  0.1955
15515TIP3    H168036   3.207   1.364  10.301  0.9929  0.8519  1.3798
15515TIP3    H268037   3.175   1.512  10.293  0.3866  0.6412 -0.9252
15516TIP3   OH268038   4.640   1.400  12.106 -0.7823  0.0693  0.2384
15516TIP3    H168039   4.630   1.357  12.021 -1.0985  0.8795 -0.1435
15516TIP3    H268040   4.662   1.490  12.085 -0.1618  0.1115  1.0333
15517TIP3   OH268041   3.465   0.749   4.036 -0.1821 -0.2384 -0.1697
15517TIP3    H168042   3.431   0.666   4.000 -0.4009  0.9519 -3.0049
15517TIP3    H268043   3.560   0.738   4.034 -0.2061 -0.3918 -0.6138
15518TIP3   OH268044   4.289   4.228  14.240  0.0901  0.0776 -0.7000
15518TIP3    H168045   4.372   4.268  14.264  0.0625 -1.1793  1.8046
15518TIP3    H268046   4.300   4.203  14.148  2.7999 -0.6974 -0.2533
15519TIP3   OH268047   4.283   2.606   1.777  0.0156 -0.4898  0.7548
15519TIP3    H168048   4.196   2.626   1.743  0.2553  0.1859  0.5209
15519TIP3    H268049   4.333   2.686   1.762  0.6032 -0.7834  1.1309
15520TIP3   OH268050   6.764   3.779   4.106 -0.1953 -0.4111 -0.2842
15520TIP3    H168051   6.848   3.821   4.086 -1.2174  0.5674 -2.9927
15520TIP3    H268052   6.724   3.835   4.172  1.9696 -1.9292  2.5244
15521TIP3   OH268053   5.676   4.083  14.068  0.4853 -0.6064 -0.0686
15521TIP3    H168054   5.658   4.169  14.105  1.4050 -0.6039  0.4176
15521TIP3    H268055   5.627   4.022  14.123  0.9695 -0.5071  0.4779
15522TIP3   OH268056   3.582   2.491   5.946  0.0406  0.2832  0.7394
15522TIP3    H168057   3.536   2.528   6.022 -0.0101  0.6731  0.5180
15522TIP3    H268058   3.517   2.491   5.876 -0.2272 -1.0110  0.9451
15523TIP3   OH268059   4.105   4.855   5.679 -0.3032  0.5298 -0.1756
15523TIP3    H168060   4.188   4.808   5.684  0.0731  1.2128 -0.0398
15523TIP3    H268061   4.079   4.849   5.587 -1.9129 -2.7769  0.3005
15524TIP3   OH268062   0.901   3.287  14.564 -0.0882  0.1465 -0.0052
15524TIP3    H168063   0.889   3.359  14.502 -1.0740 -0.4036 -0.4554
15524TIP3    H268064   0.851   3.215  14.529 -0.1919 -0.3649  1.1364
15525TIP3   OH268065   2.449   1.963  11.278  0.2890  0.2106  0.1432
15525TIP3    H168066   2.501   1.997  11.351  2.2639 -0.7634 -0.7167
15525TIP3    H268067   2.433   1.872  11.302 -2.4437  0.8600  1.0951
15526TIP3   OH268068   2.036   6.603   4.823  0.3637  0.1136  0.4397
15526TIP3    H168069   2.073   6.616   4.910  0.0728 -0.0002  0.5801
15526TIP3    H268070   2.010   6.511   4.821  0.2764  0.1422  0.2686
15527TIP3   OH268071   0.686   5.742  15.649 -0.0085 -0.0503  0.9205
15527TIP3    H168072   0.759   5.800  15.626  1.1349 -1.8556 -0.2167
15527TIP3    H268073   0.629   5.744  15.572  1.4009 -2.3865 -0.3242
15528TIP3   OH268074   1.062   4.001  15.066 -0.1490 -0.1840  0.4632
15528TIP3    H168075   0.971   4.029  15.079  0.5590  3.4188 -1.0969
15528TIP3    H268076   1.111   4.050  15.132  0.8910 -0.2866 -0.2131
15529TIP3   OH268077   0.729   2.726  15.506  0.2054  0.2539  0.6995
15529TIP3    H168078   0.665   2.778  15.554  0.3742  0.9096  0.2342
15529TIP3    H268079   0.794   2.699  15.571  0.1440  0.6728  0.9317
15530TIP3   OH268080   1.288   1.718  15.861  0.5182 -0.9216 -0.4350
15530TIP3    H168081   1.341   1.687  15.787  0.2806 -0.2350 -0.9087
15530TIP3    H268082   1.239   1.792  15.825  0.2042 -0.7411  0.3491
15531TIP3   OH268083   2.360   2.028  12.169  0.3319 -0.4438  0.6265
15531TIP3    H168084   2.294   2.081  12.214 -0.2254  0.2279 -0.9134
15531TIP3    H268085   2.329   1.938  12.180 -0.3469 -0.2074  0.7126
15532TIP3   OH268086   3.562   3.653  11.949  0.9567 -0.0280  0.1308
15532TIP3    H168087   3.489   3.701  11.911 -0.0019 -0.3071  1.5262
15532TIP3    H268088   3.635   3.715  11.949  0.4691  0.5521 -0.4743
15533TIP3   OH268089   0.349   3.512  16.987 -0.1344  0.1662 -0.4996
15533TIP3    H168090   0.370   3.490  16.897  0.6540  0.8229 -0.4936
15533TIP3    H268091   0.430   3.549  17.022 -0.9836  1.7710 -0.1284
15534TIP3   OH268092   2.147   0.471  15.366  0.6397 -0.3827 -0.2994
15534TIP3    H168093   2.203   0.441  15.295  0.7944  1.5765 -1.0720
15534TIP3    H268094   2.076   0.519  15.323 -1.5604 -2.5307  0.6578
15535TIP3   OH268095   4.138   6.193   1.356 -0.1288 -0.2542  0.1831
15535TIP3    H168096   4.127   6.197   1.452  1.4178 -0.1643  0.3757
15535TIP3    H268097   4.128   6.101   1.334  1.4468 -0.5704  0.7048
15536TIP3   OH268098   2.025   2.530  15.867 -0.0563 -0.0086 -0.0400
15536TIP3    H168099   1.990   2.526  15.778  1.0712 -0.0800 -0.4951
15536TIP3    H268100   1.989   2.452  15.910  0.2554 -0.5691 -0.7623
15537TIP3   OH268101   6.761   5.444  13.838 -0.0191 -0.1413 -0.3770
15537TIP3    H168102   6.841   5.425  13.887 -0.6318  0.4181  0.8906
15537TIP3    H268103   6.756   5.375  13.772  0.8244 -0.9462  0.3776
15538TIP3   OH268104   6.684   1.355   2.852 -0.0403  0.1388 -0.0142
15538TIP3    H168105   6.772   1.363   2.814 -0.4183 -2.7973 -1.8395
15538TIP3    H268106   6.642   1.439   2.831  1.9246  1.1774 -0.1027
15539TIP3   OH268107   5.679   4.532   4.448 -0.1937 -0.3246 -0.1097
15539TIP3    H168108   5.657   4.465   4.384 -1.5157  1.6183 -1.8438
15539TIP3    H268109   5.622   4.606   4.426  1.6829  1.6464  1.1914
15540TIP3   OH268110   4.049   6.599   2.357 -0.5379  0.0205 -0.1967
15540TIP3    H168111   4.031   6.679   2.309 -0.2484  0.7341  0.8555
15540TIP3    H268112   4.094   6.628   2.437 -1.2350 -1.0964  0.6319
15541TIP3   OH268113   6.047   1.138   3.088 -0.4323  0.2804  0.0471
15541TIP3    H168114   6.025   1.046   3.071 -0.7544  0.2583  0.5724
15541TIP3    H268115   6.063   1.142   3.182 -1.3798  0.9539  0.1907
15542TIP3   OH268116   1.705   3.106   4.202 -0.5742  0.0083 -0.4436
15542TIP3    H168117   1.782   3.095   4.258 -1.5523 -1.1485  0.7307
15542TIP3    H268118   1.720   3.189   4.156  1.5513 -0.3677 -0.5559
15543TIP3   OH268119   4.427   4.444   5.197  0.5760 -0.2758 -0.4593
15543TIP3    H168120   4.385   4.497   5.130  0.2616 -0.9593 -0.8136
15543TIP3    H268121   4.361   4.381   5.223  0.9199 -0.4492  0.0066
15544TIP3   OH268122   4.984   4.984   2.144 -0.2602  0.1917 -0.3181
15544TIP3    H168123   4.889   4.991   2.155 -0.0683 -0.7563  2.9662
15544TIP3    H268124   5.010   4.911   2.200  2.5572  1.2472 -0.0662
15545TIP3   OH268125   6.838   2.250   1.167  0.2955  0.2210 -0.5344
15545TIP3    H168126   6.750   2.289   1.166  0.4511  0.5786 -1.3383
15545TIP3    H268127   6.875   2.274   1.082  0.6901 -1.0460 -0.7366
15546TIP3   OH268128   6.414   3.873   3.658 -0.1704 -0.5792  0.5335
15546TIP3    H168129   6.500   3.830   3.654  0.1098 -0.1244  1.5184
15546TIP3    H268130   6.381   3.851   3.745 -1.1367 -0.8919  0.0944
15547TIP3   OH268131   1.122   6.408  16.414 -0.3642 -0.8098  0.2397
15547TIP3    H168132   1.169   6.324  16.419 -0.4307 -0.7679  2.8090
15547TIP3    H268133   1.054   6.401  16.481  0.4525  1.7717  1.4382
15548TIP3   OH268134   4.194   4.719  11.177  0.2498  0.1960 -0.7138
15548TIP3    H168135   4.165   4.701  11.267 -1.8154  1.4530 -1.0545
15548TIP3    H268136   4.234   4.637  11.148 -1.4124 -1.1224  0.5034
15549TIP3   OH268137   2.269   1.248  14.790  0.2023  0.4475  0.0028
15549TIP3    H168138   2.253   1.342  14.799  0.2586  0.4416  0.1631
15549TIP3    H268139   2.288   1.236  14.697 -1.4300  0.3610 -0.3626
15550TIP3   OH268140   1.572   2.984  16.410 -0.2984 -0.1365 -0.2473
15550TIP3    H168141   1.491   2.971  16.459 -0.7864 -0.9565 -1.2368
15550TIP3    H268142   1.642   2.964  16.473 -0.8108  1.1536  0.7922
15551TIP3   OH268143   2.700   5.990   2.502 -0.1763  0.4205 -0.3460
15551TIP3    H168144   2.690   5.999   2.596 -0.4349 -0.7758 -0.2355
15551TIP3    H268145   2.785   6.029   2.482  1.4545 -2.2347  0.8936
15552TIP3   OH268146   0.027   1.445   2.244  0.3952 -0.1071  0.2129
15552TIP3    H168147   0.058   1.380   2.307  0.9262 -0.7004 -0.6399
15552TIP3    H268148  -0.056   1.409   2.213 -0.0774  0.3934  0.8665
15553TIP3   OH268149   3.546   2.566  17.170  0.1487  0.1757 -0.2315
15553TIP3    H168150   3.634   2.547  17.139  0.2627 -0.6244  0.5521
15553TIP3    H268151   3.553   2.652  17.210  0.5054  0.2384 -0.4214
15554TIP3   OH268152   5.623   6.662  11.678 -0.1024 -0.1498 -0.1513
15554TIP3    H168153   5.528   6.672  11.686 -0.2259 -1.7902  0.9674
15554TIP3    H268154   5.635   6.603  11.603 -0.0365 -0.7557  0.3289
15555TIP3   OH268155   2.836   6.699  12.224  0.3708 -0.0488 -0.8135
15555TIP3    H168156   2.788   6.739  12.296  3.2954  1.0434  0.7039
15555TIP3    H268157   2.818   6.605  12.231 -1.9075  0.3448 -0.7302
15556TIP3   OH268158   6.726   0.508   6.397 -0.0480 -0.0307  0.1850
15556TIP3    H168159   6.637   0.531   6.369 -0.3005  0.2457  1.1686
15556TIP3    H268160   6.746   0.571   6.466 -0.4956 -2.2731  2.5338
15557TIP3   OH268161   4.687   5.953  14.264  0.0409  0.5918 -0.2275
15557TIP3    H168162   4.713   5.991  14.179  1.8649 -2.8375 -1.3902
15557TIP3    H268163   4.689   5.859  14.249 -1.9620 -0.1111  3.0581
15558TIP3   OH268164   5.645   3.297   1.108 -0.0736  0.0930 -0.6368
15558TIP3    H168165   5.561   3.296   1.063  0.2802 -0.3552 -1.3025
15558TIP3    H268166   5.705   3.251   1.049  0.1645 -1.4240  0.7069
15559TIP3   OH268167   6.653   5.120  16.855 -0.3343 -0.5125  0.4757
15559TIP3    H168168   6.737   5.122  16.811 -0.6909  0.8861 -0.1842
15559TIP3    H268169   6.630   5.027  16.858  0.9620 -0.8628  0.1788
15560TIP3   OH268170   6.417   6.827  16.046  0.2594  0.1761 -0.0396
15560TIP3    H168171   6.384   6.821  16.136  0.0304  0.0348 -0.1310
15560TIP3    H268172   6.402   6.919  16.022  1.1324  0.4335  0.3695
15561TIP3   OH268173   6.608   3.918  16.509  0.1249  0.6177  0.3471
15561TIP3    H168174   6.689   3.956  16.543 -0.1512 -0.1803  1.9613
15561TIP3    H268175   6.544   3.988  16.515  1.1728  2.1686 -3.4223
15562TIP3   OH268176   2.035   2.431  14.727  0.4113  0.3393  0.1876
15562TIP3    H168177   1.948   2.450  14.762  0.7359  1.5128  0.4222
15562TIP3    H268178   2.045   2.337  14.738 -0.2419  0.3971  1.5629
15563TIP3   OH268179   5.627   4.668   5.013 -0.8040  0.3993  0.4151
15563TIP3    H168180   5.645   4.611   4.939 -1.6695  0.8679 -0.1782
15563TIP3    H268181   5.606   4.609   5.085  0.2436 -0.0664  0.3542
15564TIP3   OH268182   2.350   5.180   5.357 -0.0259 -0.2609  0.6405
15564TIP3    H168183   2.387   5.209   5.274  3.0957 -2.1115  1.2408
15564TIP3    H268184   2.315   5.260   5.398 -0.5092  0.8763 -1.8378
15565TIP3   OH268185   1.464   0.529  15.091  0.4649  0.2773 -0.5501
15565TIP3    H168186   1.556   0.508  15.079  0.6781 -0.1406  1.4284
15565TIP3    H268187   1.431   0.545  15.002  1.6132 -2.9763 -1.7213
15566TIP3   OH268188   5.120   5.082  11.535 -0.4026  0.3553  0.7227
15566TIP3    H168189   5.031   5.086  11.498 -1.6517 -2.2098  3.0366
15566TIP3    H268190   5.116   5.140  11.611  0.7290  2.1337 -0.5340
15567TIP3   OH268191   6.241   3.646   2.115 -0.0522  0.8449  0.5446
15567TIP3    H168192   6.304   3.582   2.081  0.3528  1.7231 -0.4189
15567TIP3    H268193   6.254   3.723   2.060 -2.0777  1.0054  0.2076
15568TIP3   OH268194   5.452   5.489   6.462 -0.3325 -0.1264 -0.0300
15568TIP3    H168195   5.479   5.422   6.399  0.0221  0.7143 -0.7954
15568TIP3    H268196   5.530   5.545   6.472 -0.0167 -0.8282  1.9631
15569TIP3   OH268197   2.708   0.283  16.730 -0.1143  0.1062 -0.2745
15569TIP3    H168198   2.678   0.327  16.809  0.6234  0.5230 -0.2169
15569TIP3    H268199   2.700   0.189  16.750  0.1309  0.2089  0.3181
15570TIP3   OH268200   4.594   4.192   1.270 -0.4387 -0.1106  0.1375
15570TIP3    H168201   4.584   4.115   1.215 -1.3112 -1.3316  1.9186
15570TIP3    H268202   4.675   4.233   1.239  1.3849 -3.0407  0.5962
15571TIP3   OH268203   4.033   5.874   5.017  0.8414  0.2784  0.5283
15571TIP3    H168204   3.978   5.834   5.084  0.2453 -0.2743 -0.2703
15571TIP3    H268205   3.986   5.859   4.935  1.5275  0.9860 -0.0152
15572TIP3   OH268206   0.977   5.876  11.302 -0.3940 -0.0651  0.8587
15572TIP3    H168207   0.919   5.948  11.328  0.0784 -0.1795  2.3331
15572TIP3    H268208   1.045   5.874  11.369  0.0727 -1.3538  0.3822
15573TIP3   OH268209   0.829   4.410   4.130 -0.1812  0.0681 -0.0600
15573TIP3    H168210   0.868   4.478   4.075  2.7748 -2.4881 -1.4336
15573TIP3    H268211   0.790   4.348   4.068 -0.3374 -0.8831  0.9483
15574TIP3   OH268212   4.990   0.536  14.711 -0.4098  0.3018 -0.5962
15574TIP3    H168213   4.981   0.442  14.700  1.6907  0.1171 -1.1464
15574TIP3    H268214   4.907   0.572  14.680 -1.1924 -1.3513 -0.4867
15575TIP3   OH268215   4.524   6.455  14.300 -0.5646  0.4016  0.1396
15575TIP3    H168216   4.568   6.439  14.217 -0.5954  0.7871  0.0491
15575TIP3    H268217   4.540   6.376  14.351  1.6656  1.1945  0.7545
15576TIP3   OH268218   0.335   4.547   1.998 -0.0611  0.1116  0.0208
15576TIP3    H168219   0.363   4.480   1.936 -0.1417  0.9791 -0.9815
15576TIP3    H268220   0.415   4.594   2.021 -0.2132  0.5731 -0.3823
15577TIP3   OH268221   4.655   1.500  12.766 -0.3214  0.3442 -0.4171
15577TIP3    H168222   4.677   1.590  12.740  0.8732  1.0214  2.5510
15577TIP3    H268223   4.717   1.445  12.718  1.0546  1.3992  0.0852
15578TIP3   OH268224   1.848   5.536   0.659 -0.1169  0.4321  0.4046
15578TIP3    H168225   1.845   5.453   0.612  2.3950  0.1572  0.5809
15578TIP3    H268226   1.796   5.522   0.737 -1.2267 -0.3494 -0.4587
15579TIP3   OH268227   5.286   4.789  14.991 -0.4124  0.4568  0.6650
15579TIP3    H168228   5.292   4.799  15.086 -0.5091 -2.2388  1.0312
15579TIP3    H268229   5.192   4.788  14.973 -0.4203  3.1620  0.1765
15580TIP3   OH268230   0.409   4.578   0.347 -0.3757 -0.4754 -0.0553
15580TIP3    H168231   0.484   4.531   0.310  0.4394  0.1612  0.7471
15580TIP3    H268232   0.417   4.565   0.441 -1.2254 -0.3039  0.0464
15581TIP3   OH268233   4.076   3.308   0.614 -0.6288 -0.1099 -0.1341
15581TIP3    H168234   3.997   3.255   0.621 -0.9012  0.4454  1.2300
15581TIP3    H268235   4.102   3.326   0.705  0.8377  0.0578 -0.5510
15582TIP3   OH268236   5.474   0.380   4.623 -0.0506 -0.3833  0.6561
15582TIP3    H168237   5.522   0.438   4.682 -2.1979 -0.0025  2.1505
15582TIP3    H268238   5.447   0.436   4.551  1.6433 -0.5941 -0.1769
15583TIP3   OH268239   1.069   5.698   1.899 -0.1106  0.6269  0.4558
15583TIP3    H168240   1.110   5.784   1.887  2.3468 -0.4824  0.1673
15583TIP3    H268241   1.142   5.640   1.922 -1.8569 -1.1741  1.8783
15584TIP3   OH268242   6.639   0.660  12.730 -0.4261  0.4135  0.1749
15584TIP3    H168243   6.675   0.614  12.805 -0.7664 -0.2813 -0.0698
15584TIP3    H268244   6.635   0.751  12.756 -1.3465  0.0610  1.3284
15585TIP3   OH268245   3.100   1.156   3.518 -0.9525 -0.1379  0.0314
15585TIP3    H168246   3.082   1.119   3.431  0.0187 -0.7662  0.0764
15585TIP3    H268247   3.018   1.146   3.566 -1.3139 -0.3551 -0.6224
15586TIP3   OH268248   4.548   4.649  13.954  0.2222  0.6720  0.1254
15586TIP3    H168249   4.567   4.556  13.943 -1.0271  0.4542 -0.2948
15586TIP3    H268250   4.616   4.680  14.014  1.1104 -0.3367 -0.3228
15587TIP3   OH268251   0.822   2.691  12.395  0.2472  0.1402  0.0090
15587TIP3    H168252   0.807   2.720  12.305  1.7408 -0.0576 -0.3305
15587TIP3    H268253   0.843   2.771  12.443  0.2186  0.1438  0.0158
15588TIP3   OH268254   4.873   6.543  16.993  0.1980  0.0463 -0.0644
15588TIP3    H168255   4.873   6.488  16.915  1.3007 -1.2410  0.7938
15588TIP3    H268256   4.818   6.497  17.056 -1.7975  1.7482 -0.4645
15589TIP3   OH268257   5.599   5.834  11.554  0.4979  0.1519  0.2430
15589TIP3    H168258   5.668   5.803  11.495 -1.3852 -1.8498 -1.0992
15589TIP3    H268259   5.525   5.851  11.497 -0.6828  0.5193  1.8108
15590TIP3   OH268260   5.620   1.736  14.121  0.4665 -0.3417 -0.6085
15590TIP3    H168261   5.542   1.734  14.177 -0.7009  2.5045 -1.9610
15590TIP3    H268262   5.588   1.713  14.034  1.7779 -2.1087 -0.6892
15591TIP3   OH268263   0.532   4.655  12.368  0.3487 -0.2510  0.4995
15591TIP3    H168264   0.500   4.625  12.453  0.7647  1.8102  1.4318
15591TIP3    H268265   0.558   4.746  12.383 -1.0483  0.7018 -2.1961
15592TIP3   OH268266   0.759   4.282   2.518 -0.1710  0.0618 -0.0192
15592TIP3    H168267   0.730   4.373   2.524 -0.1436  0.0752 -0.0816
15592TIP3    H268268   0.682   4.235   2.485 -1.1124 -0.4333  2.6522
15593TIP3   OH268269   0.977   1.360  13.294  0.3373  0.3180 -0.5215
15593TIP3    H168270   1.050   1.406  13.253  1.7341 -1.1960  0.1684
15593TIP3    H268271   1.013   1.275  13.321 -1.6447 -0.4458 -0.0494
15594TIP3   OH268272   0.838   4.227   5.133  0.3206 -0.0924 -0.0170
15594TIP3    H168273   0.927   4.192   5.132  0.0695 -0.7463  0.0349
15594TIP3    H268274   0.806   4.210   5.221 -0.1230 -0.5679 -0.2621
15595TIP3   OH268275   1.423   1.503  13.458 -0.6436  0.0883 -0.1077
15595TIP3    H168276   1.454   1.594  13.456 -1.2588  0.3288  0.7796
15595TIP3    H268277   1.351   1.504  13.522 -0.1351 -1.2000  0.5018
15596TIP3   OH268278   0.406   6.383  15.274 -0.1714  0.0360 -0.0226
15596TIP3    H168279   0.457   6.439  15.333  1.7378 -0.2570 -1.2865
15596TIP3    H268280   0.387   6.305  15.325 -0.1455  0.5485  0.7810
15597TIP3   OH268281   6.265   2.766   1.364  0.3190 -0.2557  0.4032
15597TIP3    H168282   6.188   2.764   1.307  1.1129  0.4536 -0.7392
15597TIP3    H268283   6.339   2.749   1.305  1.2210  1.1323  1.0646
15598TIP3   OH268284   3.381   3.779  10.936 -0.4726  0.0417 -0.4389
15598TIP3    H168285   3.423   3.702  10.973 -1.6094 -0.8044 -0.8151
15598TIP3    H268286   3.300   3.745  10.896 -1.4535  1.5543  0.1589
15599TIP3   OH268287   5.204   2.228   2.037 -0.1129 -0.1804 -0.4909
15599TIP3    H168288   5.191   2.309   2.087 -0.5308  0.8778 -2.2483
15599TIP3    H268289   5.210   2.159   2.104  1.6353  1.4358  1.1343
15600TIP3   OH268290   4.777   0.452  11.365 -0.1116 -0.2079  0.0287
15600TIP3    H168291   4.731   0.532  11.393 -0.4179 -0.2921 -0.2234
15600TIP3    H268292   4.711   0.403  11.315 -0.0628 -0.8370  0.5762
15601TIP3   OH268293   6.290   1.389  15.797 -0.1419 -0.4625 -0.2426
15601TIP3    H168294   6.333   1.416  15.878 -0.5600 -1.1250  0.1986
15601TIP3    H268295   6.216   1.336  15.825 -1.1701  0.5144 -0.9990
15602TIP3   OH268296   1.907   6.507  12.759 -0.6461 -0.3978 -0.1826
15602TIP3    H168297   1.838   6.487  12.823 -0.7145  0.0543 -0.1120
15602TIP3    H268298   1.910   6.602  12.757  0.6512 -0.4002  0.5414
15603TIP3   OH268299   1.048   5.199   3.309  0.5599 -0.5111  0.2572
15603TIP3    H168300   1.061   5.164   3.221  0.3068  0.3904 -0.1461
15603TIP3    H268301   1.103   5.144   3.365  1.0930 -0.7883 -0.5270
15604TIP3   OH268302   6.761   5.713   0.917  0.2844 -0.0881  1.0324
15604TIP3    H168303   6.803   5.726   0.832  0.1118 -2.5712  0.4765
15604TIP3    H268304   6.833   5.721   0.980  0.3615  2.0801  0.7363
15605TIP3   OH268305   2.501   1.179  12.054 -0.0353 -0.1178  0.4007
15605TIP3    H168306   2.515   1.273  12.064 -2.5296  0.4429 -0.5637
15605TIP3    H268307   2.405   1.169  12.052  0.1218 -2.3042 -2.3449
15606TIP3   OH268308   5.676   0.501   5.098  0.8107  0.2103 -0.4125
15606TIP3    H168309   5.653   0.414   5.065  1.4014  0.3176 -1.1377
15606TIP3    H268310   5.683   0.490   5.193  2.2560 -0.8623 -0.6139
15607TIP3   OH268311   2.952   6.760  14.656 -1.0363 -0.4571  0.1873
15607TIP3    H168312   3.019   6.743  14.590 -0.9046 -0.4315  0.3140
15607TIP3    H268313   2.927   6.851  14.641 -1.1638 -0.5181  0.0310
15608TIP3   OH268314   1.370   3.838   3.700  0.6565  0.1714 -0.2816
15608TIP3    H168315   1.406   3.850   3.612 -0.0015  0.2351 -0.5427
15608TIP3    H268316   1.330   3.751   3.698  2.9473 -1.0185  0.7653
15609TIP3   OH268317   4.586   2.825  10.674  0.4232 -0.2553  0.9548
15609TIP3    H168318   4.679   2.811  10.694  0.9274  1.3466 -0.0196
15609TIP3    H268319   4.553   2.739  10.650  2.0562 -0.6422 -0.1276
15610TIP3   OH268320   4.174   4.433  11.117  0.4920  0.3920  0.0577
15610TIP3    H168321   4.254   4.392  11.151  0.1091 -0.4521 -0.0428
15610TIP3    H268322   4.161   4.393  11.031 -0.9098 -0.6635  0.7294
15611TIP3   OH268323   0.793   2.111   4.690  0.0004  0.4934  0.3145
15611TIP3    H168324   0.738   2.044   4.649  1.2311  0.1639 -0.8961
15611TIP3    H268325   0.738   2.150   4.757 -1.2085 -0.7992  0.1189
15612TIP3   OH268326   0.051   6.735   5.211 -0.0772 -0.0640  0.0404
15612TIP3    H168327   0.016   6.702   5.294  1.1716  0.4518  0.8099
15612TIP3    H268328   0.118   6.799   5.238 -2.2399  3.0013 -1.3419
15613TIP3   OH268329   1.227   3.931  11.361  0.0882  0.0633  0.1504
15613TIP3    H168330   1.140   3.905  11.391 -0.2290 -0.2820 -1.0419
15613TIP3    H268331   1.287   3.872  11.408 -0.4037 -0.5346  0.0320
15614TIP3   OH268332   4.383   0.159   0.722 -0.5955  0.3704 -0.6045
15614TIP3    H168333   4.460   0.197   0.681  0.2211 -0.7001 -0.1060
15614TIP3    H268334   4.344   0.103   0.654 -1.0298  1.0323 -0.9059
15615TIP3   OH268335   0.763   0.741   0.302 -0.0520  0.0271 -0.1737
15615TIP3    H168336   0.822   0.672   0.331  0.4089  0.4962  0.0185
15615TIP3    H268337   0.726   0.777   0.382  1.9157  1.9365 -0.0324
15616TIP3   OH268338   5.321   6.121  16.721  0.2202 -0.2121  0.0656
15616TIP3    H168339   5.315   6.131  16.816  2.5099  0.2441  0.2118
15616TIP3    H268340   5.411   6.146  16.700  0.5373 -2.6455 -1.9169
15617TIP3   OH268341   6.413   0.367   2.107  0.2080  0.3531 -0.0010
15617TIP3    H168342   6.337   0.348   2.162  0.0729 -0.0598 -0.3281
15617TIP3    H268343   6.478   0.301   2.132  0.4425  0.6682  0.2365
15618TIP3   OH268344   1.768   3.248   6.078 -0.0833 -0.1176  0.1000
15618TIP3    H168345   1.733   3.324   6.123 -1.0533 -0.0264 -0.7546
15618TIP3    H268346   1.843   3.220   6.131  0.4667  1.5894  0.2698
15619TIP3   OH268347   5.752   3.597   0.100  0.5804 -0.1023 -0.0400
15619TIP3    H168348   5.837   3.583   0.141 -0.1246  0.1255  1.5845
15619TIP3    H268349   5.691   3.603   0.173 -0.6468  1.0498 -1.0982
15620TIP3   OH268350   3.513   4.118   3.492  0.1346  0.1404 -0.0823
15620TIP3    H168351   3.444   4.153   3.549  0.0913  0.0427 -0.0740
15620TIP3    H268352   3.574   4.076   3.551 -0.2358 -0.5111 -0.1599
15621TIP3   OH268353   5.527   1.005  16.565 -0.3495 -0.3267 -0.0067
15621TIP3    H168354   5.601   1.011  16.505 -1.8579 -1.1201 -2.0515
15621TIP3    H268355   5.514   1.094  16.597  0.7409  0.0363 -0.5251
15622TIP3   OH268356   4.691   0.897  11.813  0.1449  0.4182  0.0965
15622TIP3    H168357   4.779   0.934  11.819 -0.0482  0.9005 -0.0007
15622TIP3    H268358   4.632   0.972  11.821 -0.3477 -0.1656  2.7717
15623TIP3   OH268359   4.624   1.681   3.280  0.0345  0.2207  0.1259
15623TIP3    H168360   4.640   1.773   3.260 -1.0261  0.2456 -0.6780
15623TIP3    H268361   4.625   1.637   3.195 -1.9990 -0.0843  0.1961
15624TIP3   OH268362   0.226   6.536  15.140 -0.5567  0.3699  0.2484
15624TIP3    H168363   0.168   6.466  15.113 -0.4709  0.8211 -1.1989
15624TIP3    H268364   0.301   6.492  15.181 -1.0559 -0.3041  0.4384
15625TIP3   OH268365   0.407   4.966  14.176 -0.0601  0.0703  0.6368
15625TIP3    H168366   0.357   4.989  14.254 -0.8508  0.3362  0.0717
15625TIP3    H268367   0.407   4.871  14.174 -2.6356  0.0014 -0.5940
15626TIP3   OH268368   5.477   2.009   0.956 -0.4781 -0.1785 -0.0989
15626TIP3    H168369   5.484   2.104   0.963 -1.3125 -0.1095 -0.1008
15626TIP3    H268370   5.412   1.985   1.022 -1.4539 -0.5629 -1.1745
15627TIP3   OH268371   2.062   5.647  12.259 -0.2051  0.0271 -0.3723
15627TIP3    H168372   2.066   5.649  12.163  0.6365  0.6292 -0.3324
15627TIP3    H268373   2.036   5.736  12.283 -1.2235 -0.3460 -0.0675
15628TIP3   OH268374   3.991   5.710  11.601  0.3270 -0.2858 -0.1770
15628TIP3    H168375   4.075   5.680  11.635 -0.5351  0.1420  2.6214
15628TIP3    H268376   3.999   5.805  11.599 -0.4250 -0.1480  1.3404
15629TIP3   OH268377   2.086   3.822  11.035  0.1046 -0.1621 -0.0947
15629TIP3    H168378   2.035   3.901  11.018 -0.0259  0.0660  1.2513
15629TIP3    H268379   2.026   3.750  11.017 -0.0294  0.0590 -0.5449
15630TIP3   OH268380   2.724   1.458  12.974  0.0728  0.4420  0.5739
15630TIP3    H168381   2.740   1.442  12.881  2.3050  1.0779  0.7903
15630TIP3    H268382   2.657   1.527  12.976 -0.2562  0.1664 -0.5434
15631TIP3   OH268383   4.623   4.369   0.967  0.3383 -0.3471 -0.4033
15631TIP3    H168384   4.553   4.313   0.935  0.1338  0.1353 -0.8179
15631TIP3    H268385   4.583   4.456   0.975  0.0006 -0.6625  2.4149
15632TIP3   OH268386   1.213   4.121   2.058  0.7749 -0.1653 -0.7969
15632TIP3    H168387   1.266   4.100   2.136  1.6178 -0.1400 -1.3504
15632TIP3    H268388   1.237   4.211   2.036  0.9336 -0.3479 -1.3883
15633TIP3   OH268389   0.373   2.500   2.839 -0.1032  0.4211  0.1343
15633TIP3    H168390   0.329   2.419   2.814  0.7412  0.3080 -1.1047
15633TIP3    H268391   0.352   2.562   2.769  1.9716  0.2453 -0.7279
15634TIP3   OH268392   6.040   4.612   2.549  0.2754 -0.2539 -0.6759
15634TIP3    H168393   6.042   4.706   2.533  2.1787 -0.1777 -0.2314
15634TIP3    H268394   6.021   4.573   2.463  0.6778  0.4783 -1.1039
15635TIP3   OH268395   5.517   6.631  10.599  0.5488  0.5199 -0.1970
15635TIP3    H168396   5.493   6.670  10.515  1.2525 -2.9206 -2.1449
15635TIP3    H268397   5.442   6.578  10.623  1.3199 -0.4963  0.0339
15636TIP3   OH268398   5.450   0.159   0.500 -0.5228 -0.0073 -0.4607
15636TIP3    H168399   5.542   0.166   0.526 -0.6446  2.1471 -0.3640
15636TIP3    H268400   5.447   0.201   0.413 -1.2786 -0.8431 -0.8513
15637TIP3   OH268401   4.063   5.556  14.653  0.3036  0.2439 -0.2906
15637TIP3    H168402   4.139   5.509  14.619 -0.2185  0.0741 -1.2557
15637TIP3    H268403   4.016   5.585  14.575 -2.0140 -1.8856  0.1733
15638TIP3   OH268404   4.880   4.489  16.736  0.2917  0.1763 -0.0476
15638TIP3    H168405   4.956   4.452  16.782  0.0904  1.5859  1.5254
15638TIP3    H268406   4.811   4.491  16.802 -0.4125  1.0778 -0.7896
15639TIP3   OH268407   4.194   5.028  14.411  0.3570 -0.8422  0.3520
15639TIP3    H168408   4.109   5.068  14.394 -0.2979 -2.5138 -0.4744
15639TIP3    H268409   4.202   5.030  14.507 -0.6606 -0.7733  0.4473
15640TIP3   OH268410   2.984   3.961   6.806 -0.0471 -0.5722  0.1641
15640TIP3    H168411   3.075   3.989   6.795 -0.4768  0.7383 -0.2759
15640TIP3    H268412   2.974   3.889   6.743  0.4786 -0.2067 -0.3552
15641TIP3   OH268413   6.719   6.759  11.597 -0.3863  0.2618  0.2407
15641TIP3    H168414   6.753   6.772  11.685  0.4495  0.4042 -0.0956
15641TIP3    H268415   6.707   6.847  11.562  0.4123  0.2054 -0.2029
15642TIP3   OH268416   2.225   0.935   1.140  0.1556  0.5006 -0.4016
15642TIP3    H168417   2.143   0.933   1.091  1.1133  1.8416 -2.2229
15642TIP3    H268418   2.247   1.028   1.145  2.1836  0.1040 -1.1231
15643TIP3   OH268419   5.753   5.352  13.860 -0.3447 -0.0601 -0.4603
15643TIP3    H168420   5.701   5.421  13.901  1.7289 -0.0639  2.5573
15643TIP3    H268421   5.716   5.270  13.893  0.1045 -0.1494 -0.1603
15644TIP3   OH268422   2.962   5.375  12.959  0.4834  0.1447  0.4564
15644TIP3    H168423   2.946   5.464  12.927 -0.2495 -0.0264  0.3368
15644TIP3    H268424   2.989   5.326  12.881 -2.6484 -0.6176 -0.2842
15645TIP3   OH268425   2.897   2.294  13.419 -0.7312  0.7247  0.2626
15645TIP3    H168426   2.834   2.334  13.359 -1.1234  1.1512  0.9555
15645TIP3    H268427   2.889   2.344  13.500 -0.9606 -0.4985  1.0245
15646TIP3   OH268428   3.869   4.372  15.284 -0.3010  0.1557  0.3582
15646TIP3    H168429   3.835   4.290  15.250 -0.8931 -1.4066  4.1797
15646TIP3    H268430   3.963   4.356  15.297  0.2733  1.3211 -1.8234
15647TIP3   OH268431   6.338   1.745   6.122  0.3079  0.0648  0.1164
15647TIP3    H168432   6.262   1.802   6.131 -0.0302 -0.5045  0.9802
15647TIP3    H268433   6.357   1.745   6.028 -1.5042 -0.7516 -0.2821
15648TIP3   OH268434   5.260   1.875   5.761 -0.1170  0.0155 -0.3225
15648TIP3    H168435   5.199   1.834   5.823  0.2879 -1.4697 -0.8498
15648TIP3    H268436   5.287   1.956   5.803  0.4127 -1.1142  1.6148
15649TIP3   OH268437   6.692   0.124  12.491 -0.0774 -0.2091  0.4144
15649TIP3    H168438   6.718   0.182  12.563  1.0414 -0.4371  0.2271
15649TIP3    H268439   6.713   0.174  12.412  0.1556 -0.5587  0.2521
15650TIP3   OH268440   3.096   3.355   2.489 -0.0680  0.0336 -0.1570
15650TIP3    H168441   3.182   3.392   2.508  0.7743 -3.0114  2.8850
15650TIP3    H268442   3.109   3.303   2.410  1.1392 -1.0301  0.7187
15651TIP3   OH268443   5.356   6.024   2.119 -0.0871  0.1435  0.2241
15651TIP3    H168444   5.353   5.938   2.160  0.2344  1.2085  2.6713
15651TIP3    H268445   5.447   6.036   2.091 -0.1503 -0.3116 -0.1895
15652TIP3   OH268446   5.043   0.741  15.380  0.0165  0.2810 -0.8550
15652TIP3    H168447   4.957   0.700  15.388  0.1451  0.1478 -0.0495
15652TIP3    H268448   5.056   0.787  15.463  0.5491  0.6395 -1.1287
15653TIP3   OH268449   1.376   4.115  14.650  0.2497  0.7845  0.0190
15653TIP3    H168450   1.463   4.089  14.620 -0.2471 -0.0536 -0.7495
15653TIP3    H268451   1.385   4.122  14.745  0.3538 -2.7845  0.4271
15654TIP3   OH268452   1.153   3.237   2.224 -0.7297 -0.3936  0.4071
15654TIP3    H168453   1.194   3.319   2.253 -2.6981  1.2148 -1.0844
15654TIP3    H268454   1.085   3.219   2.289 -1.4925  0.1725 -0.2236
15655TIP3   OH268455   0.522   3.375   6.200 -0.1592  0.2250 -0.3937
15655TIP3    H168456   0.489   3.286   6.192 -0.0167  0.1407 -0.0665
15655TIP3    H268457   0.520   3.410   6.110 -1.0399  0.1931 -0.3916
15656TIP3   OH268458   4.621   1.576   4.502 -0.1069  0.1341  0.6336
15656TIP3    H168459   4.540   1.609   4.462  1.0192  0.2453 -1.7255
15656TIP3    H268460   4.604   1.483   4.517  0.0631 -0.4240 -2.1109
15657TIP3   OH268461   2.758   2.947  13.801 -0.2260 -0.9527 -0.4228
15657TIP3    H168462   2.791   3.020  13.854 -0.5669 -2.1587  1.5401
15657TIP3    H268463   2.664   2.964  13.793 -0.1921 -0.8257 -0.5577
15658TIP3   OH268464   0.114   2.357   4.302  0.2507  0.7665 -0.0193
15658TIP3    H168465   0.200   2.330   4.269 -0.3866 -2.0402  0.3840
15658TIP3    H268466   0.057   2.357   4.225  0.2766  1.2408 -0.0451
15659TIP3   OH268467   4.430   1.356   5.829 -0.4026  0.1676 -0.7300
15659TIP3    H168468   4.512   1.341   5.876  0.1068 -0.7305 -1.8555
15659TIP3    H268469   4.362   1.347   5.896  0.2783 -1.3808 -0.1967
15660TIP3   OH268470   4.382   6.067  13.677  0.2176 -0.0978  0.7385
15660TIP3    H168471   4.441   5.998  13.646  1.3250  0.9159  0.4966
15660TIP3    H268472   4.400   6.141  13.619 -0.3555  0.6585  1.5000
15661TIP3   OH268473   1.516   6.213   0.827 -0.0943 -0.0456  0.4775
15661TIP3    H168474   1.469   6.290   0.862  0.1347  1.2868 -1.9368
15661TIP3    H268475   1.475   6.197   0.742  1.6636 -0.9155 -0.2428
15662TIP3   OH268476   3.062   0.743  13.066 -0.5506 -0.2223 -0.5190
15662TIP3    H168477   2.981   0.789  13.086  0.1049  1.8690 -2.3271
15662TIP3    H268478   3.124   0.773  13.133 -0.3379  0.9814 -1.2356
15663TIP3   OH268479   2.322   5.607   1.582  0.0173 -0.7541  0.0095
15663TIP3    H168480   2.368   5.587   1.501  0.0607 -0.7630  0.0358
15663TIP3    H268481   2.231   5.582   1.566 -0.0795 -0.2632 -0.2168
15664TIP3   OH268482   0.532   5.350   2.216  0.9567 -0.0280 -0.2040
15664TIP3    H168483   0.552   5.374   2.126 -2.3110 -0.1829 -1.1097
15664TIP3    H268484   0.541   5.254   2.218  1.6215  0.0315 -0.1725
15665TIP3   OH268485   0.634   6.664  14.404  0.3568  0.2243  0.1266
15665TIP3    H168486   0.564   6.729  14.411 -1.7040 -1.8437  0.2749
15665TIP3    H268487   0.664   6.651  14.494 -0.6631 -0.4364  0.3916
15666TIP3   OH268488   0.650   1.605  11.756 -0.2952  0.2414  0.3623
15666TIP3    H168489   0.647   1.700  11.747  0.3914  0.1636 -1.0221
15666TIP3    H268490   0.618   1.573  11.672 -2.8401 -0.8153  1.6224
15667TIP3   OH268491   1.962   1.157  11.953 -0.6512  0.3934 -0.3598
15667TIP3    H168492   1.917   1.239  11.934 -0.4546  0.0981 -2.2726
15667TIP3    H268493   2.020   1.144  11.878 -0.3879 -1.3018  0.1068
15668TIP3   OH268494   5.367   3.333   3.331  0.2747 -0.1087 -0.0100
15668TIP3    H168495   5.459   3.335   3.357  0.4545 -0.0046 -0.6503
15668TIP3    H268496   5.366   3.368   3.242 -0.7564  2.6930  1.0203
15669TIP3   OH268497   5.982   0.376  12.990  0.3307  0.3290  0.1166
15669TIP3    H168498   5.981   0.299  12.932  0.8236 -1.2772  2.1195
15669TIP3    H268499   5.981   0.450  12.930 -0.6030 -1.2021 -1.9285
15670TIP3   OH268500   2.507   1.466  12.016  0.0968  0.4979  0.3188
15670TIP3    H168501   2.457   1.453  11.935  0.8716  1.9928 -0.4489
15670TIP3    H268502   2.510   1.561  12.027  3.4614  0.5654 -0.1603
15671TIP3   OH268503   3.263   6.436  15.458 -0.1740  0.1646  0.0162
15671TIP3    H168504   3.311   6.456  15.538  0.9111 -0.5695 -0.4275
15671TIP3    H268505   3.288   6.506  15.397 -2.6996  1.9984  0.9334
15672TIP3   OH268506   6.310   6.231  16.690  0.2745  0.2111 -0.6315
15672TIP3    H168507   6.366   6.192  16.757 -0.4012 -0.2640 -0.3253
15672TIP3    H268508   6.301   6.323  16.716  2.4253  0.7854 -1.7221
15673TIP3   OH268509   6.596   5.480   0.312  0.2277  0.0950 -0.4059
15673TIP3    H168510   6.541   5.556   0.296 -1.8536 -1.3616 -0.5443
15673TIP3    H268511   6.586   5.426   0.234  1.6711 -0.3508 -0.3161
15674TIP3   OH268512   1.690   6.148   5.791  0.2171 -0.3789 -0.3345
15674TIP3    H168513   1.695   6.103   5.875  1.3471  1.3460  0.5887
15674TIP3    H268514   1.683   6.078   5.727 -0.5078 -1.7528  1.1714
15675TIP3   OH268515   3.487   6.345   3.655 -0.0239  0.0329  0.0533
15675TIP3    H168516   3.470   6.258   3.622  1.5990  0.0940 -1.0701
15675TIP3    H268517   3.524   6.331   3.742  1.8460 -0.5501 -0.7857
15676TIP3   OH268518   2.457   4.740   3.931  0.2579  0.3157  0.2565
15676TIP3    H168519   2.527   4.803   3.946 -0.5867  2.2219 -2.9137
15676TIP3    H268520   2.500   4.665   3.891  0.5578  1.4510 -1.6226
15677TIP3   OH268521   3.879   4.289   0.875 -0.4611 -0.0543 -0.1713
15677TIP3    H168522   3.872   4.193   0.878 -0.2825 -0.0650 -0.0430
15677TIP3    H268523   3.828   4.319   0.951 -0.1655 -0.0710  0.0376
15678TIP3   OH268524   5.576   2.454  16.422 -0.0956  0.0268  0.6912
15678TIP3    H168525   5.565   2.391  16.350 -1.2302 -0.0844  0.9479
15678TIP3    H268526   5.668   2.445  16.448 -0.3782 -1.9763  1.1260
15679TIP3   OH268527   5.587   4.643   0.226 -0.0866  0.2823  0.3208
15679TIP3    H168528   5.624   4.729   0.208  2.0335 -0.8038 -0.9067
15679TIP3    H268529   5.543   4.618   0.146 -0.9342  0.3181  0.7671
15680TIP3   OH268530   1.535   2.373  11.422  0.1102 -0.3956  0.4511
15680TIP3    H168531   1.495   2.412  11.344 -0.7103  0.7428  1.4064
15680TIP3    H268532   1.506   2.428  11.494  2.0676 -0.5207  1.4106
15681TIP3   OH268533   5.106   3.996   1.399  0.2229 -0.0696 -0.6447
15681TIP3    H168534   5.063   3.989   1.313 -0.6966 -1.2136 -0.1132
15681TIP3    H268535   5.034   3.995   1.462  0.8811  0.9128  0.1614
15682TIP3   OH268536   2.572   0.534  16.806 -0.3599  0.1629  0.7809
15682TIP3    H168537   2.626   0.520  16.883 -0.6612 -2.1018  0.6524
15682TIP3    H268538   2.484   0.508  16.834 -0.6574  0.2518 -0.0518
15683TIP3   OH268539   2.024   5.100   4.678  0.2699 -0.0294 -0.0538
15683TIP3    H168540   2.110   5.081   4.715  0.8570  1.1340 -0.7571
15683TIP3    H268541   1.976   5.017   4.684  1.5488 -0.7835  0.0374
15684TIP3   OH268542   2.841   3.300   4.665  0.1522 -0.4056 -0.2671
15684TIP3    H168543   2.819   3.336   4.751  0.8438  0.0988 -0.2933
15684TIP3    H268544   2.935   3.314   4.657 -0.2609  1.7461 -2.1100
15685TIP3   OH268545   0.727   1.109   0.586 -0.2302 -0.7114 -0.1588
15685TIP3    H168546   0.781   1.155   0.521 -0.6063  1.3312  0.8766
15685TIP3    H268547   0.762   1.139   0.670 -1.6654 -0.9673  0.5515
15686TIP3   OH268548   1.699   2.206  17.077 -0.4318  0.1717  0.0087
15686TIP3    H168549   1.774   2.265  17.087 -0.3039 -0.0618  0.4836
15686TIP3    H268550   1.660   2.202  17.165 -0.7684 -0.0164 -0.1466
15687TIP3   OH268551   4.002   5.250  16.831 -0.3308 -0.2981  0.2145
15687TIP3    H168552   4.069   5.311  16.861 -1.1034 -0.2042  1.8826
15687TIP3    H268553   4.020   5.169  16.879 -1.1370 -0.3922  0.3785
15688TIP3   OH268554   6.071   1.442  13.866  0.0330 -0.0249  0.4865
15688TIP3    H168555   6.130   1.380  13.910  2.5373  2.7811  1.4335
15688TIP3    H268556   6.074   1.415  13.774  0.2770 -1.8246  0.9743
15689TIP3   OH268557   0.682   3.805  12.551  0.2605  0.6433 -0.3388
15689TIP3    H168558   0.676   3.733  12.613 -1.1846  2.9404  2.4544
15689TIP3    H268559   0.748   3.863  12.589 -1.3526  2.5779 -0.3231
15690TIP3   OH268560   2.898   2.533  13.897  0.0623  0.5675 -0.4579
15690TIP3    H168561   2.967   2.483  13.854 -1.4442  0.7398 -3.3328
15690TIP3    H268562   2.943   2.582  13.966  2.3472 -1.1398 -0.6097
15691TIP3   OH268563   6.523   6.426  14.134  0.0065 -0.1120  0.5478
15691TIP3    H168564   6.618   6.419  14.147  0.4235  1.5330 -1.1596
15691TIP3    H268565   6.502   6.516  14.156 -1.0773 -0.3006  0.3487
15692TIP3   OH268566   3.903   5.995  13.474  0.6090 -0.0372  0.3692
15692TIP3    H168567   3.875   6.084  13.495 -0.6612 -0.2902 -0.1282
15692TIP3    H268568   3.821   5.944  13.474  1.1000 -0.8758 -0.9652
15693TIP3   OH268569   0.035   6.306  16.994  0.1871 -0.7368  0.5478
15693TIP3    H168570   0.119   6.275  16.959  2.0734  1.5860  2.6310
15693TIP3    H268571   0.007   6.235  17.052  0.9327 -1.3935  0.1345
15694TIP3   OH268572   0.966   3.295  12.142  0.3274 -0.4727 -0.1270
15694TIP3    H168573   0.885   3.252  12.169 -1.3580  2.2076 -0.5034
15694TIP3    H268574   0.979   3.270  12.051  0.5344 -1.7452  0.2417
15695TIP3   OH268575   0.194   5.012   3.800 -0.3710  0.1106 -0.7887
15695TIP3    H168576   0.178   5.045   3.712 -0.3850 -1.3374 -1.3577
15695TIP3    H268577   0.109   4.979   3.829 -0.7449  1.9685  0.4295
15696TIP3   OH268578   2.515   2.872  16.823 -0.9473  0.6227 -0.3992
15696TIP3    H168579   2.581   2.936  16.849 -1.1268  0.6074  0.1163
15696TIP3    H268580   2.474   2.845  16.906  0.5613 -1.7439 -0.3462
15697TIP3   OH268581   3.115   6.248  16.970  0.4900  0.6207 -0.3155
15697TIP3    H168582   3.022   6.236  16.952  0.2251  0.1094  1.2929
15697TIP3    H268583   3.145   6.163  17.001  0.9032  1.4183  1.5845
15698TIP3   OH268584   1.731   0.992  16.000  0.3167 -0.5239  0.2555
15698TIP3    H168585   1.683   1.008  15.919 -0.6879 -1.0398  0.7254
15698TIP3    H268586   1.781   0.912  15.983  1.6967  0.4567 -0.5115
15699TIP3   OH268587   2.857   1.272  11.967 -0.1545 -0.3852  0.7616
15699TIP3    H168588   2.775   1.299  11.927 -2.2088 -2.5072  3.1691
15699TIP3    H268589   2.874   1.340  12.033  0.5752  0.5374 -0.3476
15700TIP3   OH268590   4.418   1.488   1.363  0.1067 -0.2996  0.1106
15700TIP3    H168591   4.461   1.504   1.447  1.1130  0.3810 -0.5133
15700TIP3    H268592   4.394   1.575   1.331 -0.9813 -0.6094  0.0455
15701TIP3   OH268593   3.232   2.348  11.906  0.1292 -0.2883  0.2410
15701TIP3    H168594   3.195   2.418  11.852 -1.2758  0.2653  1.8474
15701TIP3    H268595   3.315   2.384  11.937  0.7496 -0.4466 -1.1667
15702TIP3   OH268596   2.833   2.013   4.326 -0.1515 -0.1256 -0.2663
15702TIP3    H168597   2.834   1.995   4.232 -2.1332  0.7256 -0.5023
15702TIP3    H268598   2.866   1.934   4.366  1.0697 -0.3796 -1.6931
15703TIP3   OH268599   6.679   3.563  16.082 -0.3797 -0.2780 -0.1927
15703TIP3    H168600   6.658   3.627  16.150  1.7615 -0.2067  0.4820
15703TIP3    H268601   6.597   3.516  16.067 -1.1493  0.3337  1.7694
15704TIP3   OH268602   5.120   3.836  12.842 -0.4137  0.6708 -0.2859
15704TIP3    H168603   5.211   3.852  12.815 -0.4962  1.1858 -0.2807
15704TIP3    H268604   5.127   3.773  12.914 -0.1153  0.1329 -0.7821
15705TIP3   OH268605   2.751   4.028  14.037 -0.2333 -0.1484  0.0510
15705TIP3    H168606   2.760   4.119  14.007  1.2358 -0.3023 -0.0529
15705TIP3    H268607   2.689   4.032  14.109 -1.3979  0.7034 -0.9610
15706TIP3   OH268608   0.870   0.319   3.990 -0.3301  0.1010  0.0532
15706TIP3    H168609   0.778   0.333   4.016 -1.0882 -1.1371 -1.7515
15706TIP3    H268610   0.884   0.225   4.002  0.9298  0.3712  0.8788
15707TIP3   OH268611   1.077   2.683   0.739  0.8753  0.0813 -0.3267
15707TIP3    H168612   1.167   2.651   0.734  0.5578 -0.6333 -2.0064
15707TIP3    H268613   1.057   2.714   0.651 -0.0750  1.5458  0.3684
15708TIP3   OH268614   2.684   3.657   2.370 -0.3760 -0.0815 -0.1524
15708TIP3    H168615   2.753   3.591   2.368  0.4727  0.5708  2.7449
15708TIP3    H268616   2.606   3.609   2.397  0.4121  0.0631  2.7600
15709TIP3   OH268617   4.284   4.164   5.837  0.1137  0.3452  0.5094
15709TIP3    H168618   4.236   4.190   5.915 -0.5899 -1.0742  0.5746
15709TIP3    H268619   4.353   4.231   5.827 -2.8308  3.5157 -0.5697
15710TIP3   OH268620   5.274   0.276   1.383  0.0395  0.2398 -0.2370
15710TIP3    H168621   5.209   0.280   1.454  0.5007  0.1893  0.1945
15710TIP3    H268622   5.248   0.346   1.324  0.4205  1.1786  0.6685
15711TIP3   OH268623   6.121   0.148   1.975  0.3053 -0.1774  0.3545
15711TIP3    H168624   6.077   0.231   1.992 -0.5492 -0.4695 -0.3556
15711TIP3    H268625   6.206   0.173   1.938  0.1689  0.3761  0.4081
15712TIP3   OH268626   5.585   1.466   1.183  0.0147  0.3564 -0.3958
15712TIP3    H168627   5.584   1.385   1.131 -0.0183 -0.4722  0.8607
15712TIP3    H268628   5.648   1.523   1.138  1.5316 -1.1121 -0.2139
15713TIP3   OH268629   1.653   1.061   1.217  0.2412 -0.4292  0.1374
15713TIP3    H168630   1.732   1.068   1.270 -0.7565  1.1481  1.5153
15713TIP3    H268631   1.651   1.141   1.165  0.3015 -1.1587 -1.0293
15714TIP3   OH268632   2.488   2.345  13.807 -0.3685 -0.5082 -0.1490
15714TIP3    H168633   2.500   2.275  13.742 -1.9680  0.6523 -1.7873
15714TIP3    H268634   2.393   2.351  13.818 -0.2606  1.2122  0.1411
15715TIP3   OH268635   4.783   2.300   3.811  0.5499  0.3998  0.0256
15715TIP3    H168636   4.704   2.289   3.865  0.1527  2.5981 -0.0201
15715TIP3    H268637   4.751   2.301   3.721  0.6738  0.9226 -0.0139
15716TIP3   OH268638   3.531   6.188  14.200 -0.4368 -0.0585  0.2884
15716TIP3    H168639   3.514   6.150  14.286  0.2374 -0.7476  0.1365
15716TIP3    H268640   3.624   6.171  14.185 -0.5049  0.2230 -0.4947
15717TIP3   OH268641   2.516   3.730   0.320  0.0448  0.2468  0.1667
15717TIP3    H168642   2.450   3.723   0.389  1.4186 -0.9244  1.4208
15717TIP3    H268643   2.600   3.729   0.366  1.0155 -0.4685 -1.5197
15718TIP3   OH268644   0.897   5.388  14.909  0.0627  0.6058 -0.3948
15718TIP3    H168645   0.970   5.350  14.860 -0.0230 -0.6876  0.4113
15718TIP3    H268646   0.920   5.374  15.001  0.2966  3.1249 -0.0005
15719TIP3   OH268647   4.597   0.152   2.413  0.6383 -0.3846  0.3418
15719TIP3    H168648   4.506   0.157   2.385  0.6393 -0.1369  0.3847
15719TIP3    H268649   4.647   0.177   2.336  0.6821 -0.7536  0.2448
15720TIP3   OH268650   5.087   3.659   0.977  0.3604  0.0570  0.0130
15720TIP3    H168651   5.066   3.626   0.890  2.2365  0.4631 -0.6487
15720TIP3    H268652   5.082   3.754   0.969  0.8974  0.1102  0.2305
15721TIP3   OH268653   1.049   4.423   0.229  0.2455 -0.3532 -0.0200
15721TIP3    H168654   1.004   4.495   0.185  1.4381  0.5258  0.1284
15721TIP3    H268655   1.027   4.346   0.177 -2.0094 -0.1125  0.4947
15722TIP3   OH268656   2.974   0.855  15.237 -0.0973  0.1563  0.4676
15722TIP3    H168657   3.026   0.776  15.221  0.2028  0.4297  0.0807
15722TIP3    H268658   3.006   0.918  15.172 -0.7614  0.3964  0.3704
15723TIP3   OH268659   0.442   5.153   0.471  0.0208 -0.5963 -0.4496
15723TIP3    H168660   0.443   5.213   0.396 -1.3704 -0.2308 -0.2049
15723TIP3    H268661   0.350   5.127   0.479 -0.2308  0.8859  2.3260
15724TIP3   OH268662   3.770   2.185   4.883  0.0675 -0.3660  0.0317
15724TIP3    H168663   3.744   2.125   4.814 -1.5812 -0.4117  0.6414
15724TIP3    H268664   3.731   2.269   4.859 -0.7622 -0.4464  1.0191
15725TIP3   OH268665   1.355   4.072   6.161 -0.5999 -0.2284 -0.0955
15725TIP3    H168666   1.270   4.065   6.204 -0.1100  0.8777  1.1012
15725TIP3    H268667   1.385   4.161   6.180  1.5005 -1.0729  0.8089
15726TIP3   OH268668   1.262   2.005  11.567 -0.1954 -0.3882 -0.1941
15726TIP3    H168669   1.207   2.041  11.497 -1.4411  1.7695  1.7664
15726TIP3    H268670   1.341   2.058  11.565  0.2098 -0.9819 -0.5428
15727TIP3   OH268671   3.320   1.120  17.168 -0.5319  0.5428 -0.0511
15727TIP3    H168672   3.277   1.205  17.179 -0.3908  0.9330 -2.0879
15727TIP3    H268673   3.292   1.090  17.081 -0.4958 -1.4582  0.5786
15728TIP3   OH268674   3.961   3.216   4.049  0.2095 -0.8007  0.2471
15728TIP3    H168675   4.056   3.207   4.063  0.2940 -2.3141 -1.0455
15728TIP3    H268676   3.939   3.146   3.988 -1.2651  1.2249 -1.7247
15729TIP3   OH268677   6.692   4.596  11.481  0.8763  0.0055 -0.3563
15729TIP3    H168678   6.651   4.581  11.396  0.9107 -0.3791 -0.3098
15729TIP3    H268679   6.753   4.523  11.491 -0.9442 -1.4273  1.0848
15730TIP3   OH268680   5.813   1.602  14.286 -0.1489 -0.2763  0.1456
15730TIP3    H168681   5.876   1.574  14.220  1.1384  1.2433  0.6849
15730TIP3    H268682   5.742   1.643  14.236 -0.3716 -1.3015 -0.4111
15731TIP3   OH268683   4.829   2.945  15.006 -0.1945 -0.0050 -0.0852
15731TIP3    H168684   4.852   2.863  14.962 -0.5198  0.1377 -0.5287
15731TIP3    H268685   4.762   2.920  15.070 -0.5396 -0.0297 -0.4555
15732TIP3   OH268686   4.016   6.543   1.440 -0.2297  0.1969  0.3282
15732TIP3    H168687   4.018   6.507   1.529  2.3886 -1.1502 -0.1696
15732TIP3    H268688   4.053   6.631   1.449 -0.4666  0.2656  0.6377
15733TIP3   OH268689   5.909   5.096  11.064  0.2575  0.2662  0.3458
15733TIP3    H168690   5.834   5.037  11.068 -1.4388  2.1169 -1.5854
15733TIP3    H268691   5.972   5.050  11.009  0.5264 -1.2299  1.8362
15734TIP3   OH268692   3.416   2.907   4.831 -0.0183 -0.7300  0.0975
15734TIP3    H168693   3.357   2.950   4.893  0.1858 -0.7435  0.2985
15734TIP3    H268694   3.360   2.845   4.785 -0.4585  0.1527 -0.6118
15735TIP3   OH268695   3.103   6.543   4.413 -0.1763  0.4715  0.3872
15735TIP3    H168696   3.197   6.563   4.412 -0.1876  0.5523  0.9155
15735TIP3    H268697   3.067   6.597   4.482 -0.0260 -2.0383  2.6034
15736TIP3   OH268698   5.725   6.468  13.134 -0.7214 -0.5318  0.0285
15736TIP3    H168699   5.719   6.487  13.227 -0.4868 -0.2256 -0.0171
15736TIP3    H268700   5.697   6.376  13.126 -0.7734 -0.5477  0.3937
15737TIP3   OH268701   3.291   1.399   6.763  0.2395  0.1556  0.5328
15737TIP3    H168702   3.347   1.365   6.693 -0.7109 -0.7754  0.2100
15737TIP3    H268703   3.234   1.462   6.719  0.2544  0.2561  0.6551
15738TIP3   OH268704   2.059   0.930  14.074 -1.0285 -0.4442 -0.4806
15738TIP3    H168705   2.036   0.922  13.982 -0.9936 -0.5152 -0.4830
15738TIP3    H268706   2.026   0.850  14.115  0.3198 -1.1447 -0.7024
15739TIP3   OH268707   4.858   6.678  12.323  0.3320 -0.3578  0.4100
15739TIP3    H168708   4.799   6.726  12.266  0.4906 -0.8218 -0.1582
15739TIP3    H268709   4.939   6.730  12.323  0.1527 -0.0764  0.6459
15740TIP3   OH268710   3.436   2.124   5.839 -0.2007  0.2795  0.8317
15740TIP3    H168711   3.405   2.180   5.768 -2.0074 -1.1036  0.4618
15740TIP3    H268712   3.407   2.169   5.919  0.9485  1.3220  0.6867
15741TIP3   OH268713   1.478   1.846   1.500 -0.1838  0.4406 -0.0383
15741TIP3    H168714   1.570   1.836   1.474 -0.0825  1.3572 -0.0644
15741TIP3    H268715   1.482   1.879   1.590 -0.4525  1.6253 -0.4440
15742TIP3   OH268716   6.637   2.834   5.165  0.1478  0.1618  0.4291
15742TIP3    H168717   6.729   2.809   5.159  0.0358 -0.4774  1.2452
15742TIP3    H268718   6.599   2.772   5.227 -1.1363 -0.4188 -0.8668
15743TIP3   OH268719   1.202   4.095   3.434  0.2810  0.2122 -0.2161
15743TIP3    H168720   1.291   4.109   3.464 -0.4885  1.4434  1.7040
15743TIP3    H268721   1.155   4.062   3.511 -1.1866  0.7982 -0.8090
15744TIP3   OH268722   0.626   4.256   4.962  0.7600 -0.0220 -0.2960
15744TIP3    H168723   0.549   4.293   5.006  1.1566  2.6245 -1.6059
15744TIP3    H268724   0.695   4.258   5.028  1.0478  2.8351 -0.5249
15745TIP3   OH268725   6.461   4.535   2.325 -0.1991  0.0734 -0.6419
15745TIP3    H168726   6.430   4.546   2.415 -0.4336  1.6360 -0.8824
15745TIP3    H268727   6.496   4.621   2.301  0.5701 -0.5344 -1.7885
15746TIP3   OH268728   6.419   4.293   4.509  0.5582 -0.2554 -0.1012
15746TIP3    H168729   6.502   4.262   4.545  0.9008  0.7421 -0.0097
15746TIP3    H268730   6.365   4.213   4.500  1.6441 -0.9655 -0.5203
15747TIP3   OH268731   2.901   4.068   1.107 -0.3316 -0.0487 -0.1312
15747TIP3    H168732   2.812   4.105   1.108  0.4254  1.9275 -1.0375
15747TIP3    H268733   2.892   3.985   1.061 -1.3770  1.1924 -2.3223
15748TIP3   OH268734   1.079   2.713  10.987 -0.4967  0.4781  0.0502
15748TIP3    H168735   1.021   2.784  10.959  1.7301  2.4365  0.0662
15748TIP3    H268736   1.091   2.659  10.908 -3.4005 -0.8744  0.4190
15749TIP3   OH268737   2.427   5.934  13.636 -0.1447  0.4033  0.3082
15749TIP3    H168738   2.447   6.021  13.670 -3.0319  1.6477 -0.9066
15749TIP3    H268739   2.482   5.926  13.558 -0.9984  1.8764 -0.4980
15750TIP3   OH268740   5.947   1.588   1.867 -0.2212 -0.3148  0.2958
15750TIP3    H168741   5.886   1.657   1.894  0.9203  0.7887  0.1426
15750TIP3    H268742   5.913   1.559   1.782 -0.9488 -0.2510  0.5530
15751TIP3   OH268743   0.163   4.370   6.244  0.0152 -0.4974  0.0602
15751TIP3    H168744   0.080   4.331   6.272 -0.2903 -0.1920 -0.4146
15751TIP3    H268745   0.227   4.336   6.306 -0.5792 -0.1795  0.8737
15752TIP3   OH268746   3.816   5.005   1.277  0.0824 -0.4675  0.3483
15752TIP3    H168747   3.722   5.017   1.291  0.2823  2.0418 -0.0214
15752TIP3    H268748   3.858   5.050   1.350  0.9845  0.5200 -0.7259
15753TIP3   OH268749   0.862   3.972   3.520  0.0685 -0.0350  0.2857
15753TIP3    H168750   0.919   3.968   3.443  0.2537 -0.3152  0.4388
15753TIP3    H268751   0.919   3.997   3.592  0.0026 -0.3206  0.4398
15754TIP3   OH268752   1.033   2.756   4.541 -0.5765  0.7232  0.5169
15754TIP3    H168753   1.025   2.680   4.598  0.5936  1.1831  1.3271
15754TIP3    H268754   0.945   2.767   4.504 -1.0947 -0.2149  1.4002
15755TIP3   OH268755   1.459   0.252  12.349 -0.6275  0.0192  0.8880
15755TIP3    H168756   1.370   0.274  12.325 -0.4876  2.0382  1.9654
15755TIP3    H268757   1.450   0.191  12.422 -1.1247  0.1836  0.9640
15756TIP3   OH268758   0.379   3.251  12.102 -0.0107 -0.1354 -0.1155
15756TIP3    H168759   0.419   3.288  12.181 -1.7857  0.1105  0.7406
15756TIP3    H268760   0.356   3.326  12.049 -0.6126 -0.1777  0.0756
15757TIP3   OH268761   0.658   5.179   4.452  0.5497 -0.6331  0.3322
15757TIP3    H168762   0.669   5.267   4.488 -0.8917 -0.7241  1.0319
15757TIP3    H268763   0.675   5.190   4.358 -1.7565  0.8573  0.0252
15758TIP3   OH268764   5.837   6.094  15.941 -0.1073 -0.2796 -0.2976
15758TIP3    H168765   5.821   6.185  15.917 -0.0017 -0.2846 -0.3880
15758TIP3    H268766   5.881   6.056  15.864  0.6255 -0.1848  0.0664
15759TIP3   OH268767   2.646   1.357   3.199  0.5918  0.0138  0.1588
15759TIP3    H168768   2.643   1.282   3.140 -2.6489  0.2177 -0.1133
15759TIP3    H268769   2.555   1.386   3.207  1.6595  4.0620  0.1050
15760TIP3   OH268770   5.677   1.755   2.487 -0.5156 -0.1990 -0.3896
15760TIP3    H168771   5.636   1.800   2.561 -2.0955 -0.2523 -1.1820
15760TIP3    H268772   5.764   1.793   2.481 -0.5191  0.1443  1.1887
15761TIP3   OH268773   0.524   1.564  14.787 -0.3880  0.3979 -0.3599
15761TIP3    H168774   0.523   1.613  14.705 -1.5570 -2.8117 -2.4701
15761TIP3    H268775   0.592   1.497  14.774  0.0717  0.3904  1.7134
15762TIP3   OH268776   6.671   5.432   3.191  0.4210 -0.1807  0.0485
15762TIP3    H168777   6.595   5.421   3.133 -0.1068 -1.5760  0.9594
15762TIP3    H268778   6.644   5.393   3.274  1.7105  0.4279  0.7866
15763TIP3   OH268779   5.155   2.253  11.268 -0.3888  0.7778 -0.3750
15763TIP3    H168780   5.178   2.161  11.251 -2.2066  0.1235  0.3996
15763TIP3    H268781   5.206   2.303  11.205  0.6700 -0.7638 -0.8018
15764TIP3   OH268782   1.240   4.581  11.983 -0.5434 -0.7118  0.1567
15764TIP3    H168783   1.213   4.672  11.975 -2.0549 -1.1866 -0.5808
15764TIP3    H268784   1.322   4.584  12.032 -0.1558  1.0869 -0.5341
15765TIP3   OH268785   0.546   2.243   3.336 -0.1453 -0.3683 -0.0461
15765TIP3    H168786   0.568   2.157   3.374  1.1340  0.4051  1.0773
15765TIP3    H268787   0.468   2.227   3.283  0.5379 -2.3947 -0.5369
15766TIP3   OH268788   3.901   6.332   5.044 -0.3086 -0.7320  0.1814
15766TIP3    H168789   3.975   6.273   5.061  1.8806  1.9284  0.7435
15766TIP3    H268790   3.860   6.344   5.130  2.5635  2.4449  1.3683
15767TIP3   OH268791   4.934   1.413  10.700  0.0174  0.2104 -0.3517
15767TIP3    H168792   4.939   1.345  10.632  1.0381  0.3701 -0.4438
15767TIP3    H268793   4.980   1.488  10.663 -0.0702  0.5581  0.2296
15768TIP3   OH268794   0.135   5.122   3.573  0.1665  0.1128 -0.7197
15768TIP3    H168795   0.094   5.208   3.561 -0.9150 -0.4115 -0.8907
15768TIP3    H268796   0.071   5.060   3.538  1.0593 -0.7436 -0.8570
15769TIP3   OH268797   5.955   0.019  16.045 -0.1402 -0.3055 -0.5365
15769TIP3    H168798   5.868   0.059  16.035  0.1415  0.4776  0.0519
15769TIP3    H268799   6.014   0.093  16.059  0.6886 -0.8068 -1.2942
15770TIP3   OH268800   4.860   4.004   0.033  0.0897 -0.3315 -0.6727
15770TIP3    H168801   4.914   4.081   0.051 -1.0691  0.7030 -1.3900
15770TIP3    H268802   4.805   3.995   0.111  0.1790 -0.3843 -0.6163
15771TIP3   OH268803   5.623   1.558   1.784 -0.2332 -0.1308  0.1207
15771TIP3    H168804   5.622   1.579   1.691 -1.1026  0.2736  0.2140
15771TIP3    H268805   5.536   1.521   1.802 -1.9486  4.1079  1.7048
15772TIP3   OH268806   1.707   3.483   4.421  0.0586 -0.1370  0.0531
15772TIP3    H168807   1.658   3.484   4.338  1.0719 -0.5714 -0.5642
15772TIP3    H268808   1.796   3.507   4.397 -0.0115  1.5079  1.3023
15773TIP3   OH268809   5.986   5.385   1.886  0.1340 -0.2152  0.0908
15773TIP3    H168810   6.033   5.332   1.821  0.0630 -0.3198  0.1252
15773TIP3    H268811   6.046   5.391   1.960  0.0302 -0.4763  0.1945
15774TIP3   OH268812   5.284   0.879  11.460  0.5130  0.0255  0.8674
15774TIP3    H168813   5.282   0.800  11.513  0.1856 -0.6262 -0.0855
15774TIP3    H268814   5.271   0.950  11.522  2.0757 -0.5620  1.9152
15775TIP3   OH268815   4.368   2.212  10.905 -0.0684 -0.0165 -0.4513
15775TIP3    H168816   4.362   2.304  10.933  0.8872 -0.2434  0.5431
15775TIP3    H268817   4.280   2.192  10.871  0.0662  1.6532 -1.9654
15776TIP3   OH268818   3.336   0.411  16.727  0.0040 -0.4191 -0.1770
15776TIP3    H168819   3.392   0.474  16.772  0.1385 -0.6273 -0.0476
15776TIP3    H268820   3.318   0.344  16.794 -0.2661 -0.4345 -0.2630
15777TIP3   OH268821   5.843   2.725   2.927 -0.0555 -0.1169 -0.7017
15777TIP3    H168822   5.926   2.767   2.952  0.9769 -2.0751 -0.6547
15777TIP3    H268823   5.864   2.677   2.847 -1.1996 -0.5535 -0.7546
15778TIP3   OH268824   2.594   5.207   0.928 -0.2914  0.1108 -0.0989
15778TIP3    H168825   2.561   5.145   0.993  0.3906 -1.4342 -1.1515
15778TIP3    H268826   2.520   5.264   0.908 -1.2068 -0.9305  0.2785
15779TIP3   OH268827   2.001   3.716   3.018  0.1394 -0.1087  0.7453
15779TIP3    H168828   2.060   3.672   2.956 -0.5577  1.0023 -0.7740
15779TIP3    H268829   1.914   3.680   2.998 -0.1784  0.6867  0.6634
15780TIP3   OH268830   6.767   0.187  11.189 -0.2370  0.4012 -0.2365
15780TIP3    H168831   6.821   0.177  11.110 -0.7538  0.6620 -0.6286
15780TIP3    H268832   6.826   0.227  11.253  0.5403 -0.9412 -0.0887
15781TIP3   OH268833   2.384   2.803   0.170  0.5756  0.5926  0.1323
15781TIP3    H168834   2.324   2.778   0.099 -0.9499  0.6641  1.3377
15781TIP3    H268835   2.458   2.844   0.125 -1.4851  3.0254 -1.3681
15782TIP3   OH268836   3.496   2.161  15.434 -0.3038 -0.6030 -0.6106
15782TIP3    H168837   3.435   2.228  15.465  0.4472  0.2156 -0.8641
15782TIP3    H268838   3.582   2.192  15.462 -0.1083 -2.5651  1.2137
15783TIP3   OH268839   6.013   2.481   3.388 -0.5253  0.3516 -0.0863
15783TIP3    H168840   6.017   2.541   3.313 -0.0532  0.5297  0.0791
15783TIP3    H268841   6.071   2.520   3.453 -1.2389  0.4128  0.5349
15784TIP3   OH268842   4.797   0.461  13.482 -0.1268  0.1656  0.0226
15784TIP3    H168843   4.817   0.543  13.527 -0.1343  0.9960 -1.4280
15784TIP3    H268844   4.768   0.488  13.395  2.5700 -1.4613 -1.5002
15785TIP3   OH268845   0.934   3.631   5.819  0.0291  0.1780  0.6071
15785TIP3    H168846   0.974   3.598   5.738 -0.7509 -1.0593  0.7112
15785TIP3    H268847   1.008   3.643   5.879  0.2943 -2.5840  0.9764
15786TIP3   OH268848   5.378   4.465   4.183 -0.3759 -0.0169 -0.4217
15786TIP3    H168849   5.310   4.499   4.125 -0.6928  0.7690  0.3958
15786TIP3    H268850   5.393   4.534   4.247 -0.2832 -1.0053  0.6540
15787TIP3   OH268851   6.578   2.207  15.542  0.2847 -0.0203  0.4573
15787TIP3    H168852   6.574   2.138  15.475  2.4036 -0.2483  0.4962
15787TIP3    H268853   6.631   2.276  15.501 -0.8887  1.1308  0.8307
15788TIP3   OH268854   6.638   3.203   1.193  0.0723 -0.6644 -0.1057
15788TIP3    H168855   6.605   3.194   1.282 -0.1962 -0.0031 -0.1345
15788TIP3    H268856   6.570   3.164   1.138 -0.2729 -0.0828 -0.0993
15789TIP3   OH268857   4.261   4.333   1.722  0.3418 -0.2526  0.2094
15789TIP3    H168858   4.209   4.271   1.671  1.2604  0.4645 -1.6917
15789TIP3    H268859   4.298   4.281   1.793 -0.9735 -1.2869  0.1858
15790TIP3   OH268860   6.559   6.025   3.575  0.8071 -0.2871 -0.5316
15790TIP3    H168861   6.606   5.983   3.647  0.0901  0.3918  0.3494
15790TIP3    H268862   6.475   5.978   3.572  0.1880  0.7398  0.1545
15791TIP3   OH268863   4.098   0.222   1.916  0.0173  0.4890 -0.4163
15791TIP3    H168864   4.168   0.158   1.903 -2.2123 -2.3215  0.5222
15791TIP3    H268865   4.027   0.173   1.957 -2.0929  3.4712 -0.1599
15792TIP3   OH268866   3.977   6.231  16.595  1.3616  0.0280 -0.1331
15792TIP3    H168867   3.900   6.252  16.646  1.7850  2.8727 -0.5143
15792TIP3    H268868   3.945   6.175  16.524 -0.0111 -0.2455  0.6814
15793TIP3   OH268869   3.352   6.370  12.381  0.0770 -0.1215 -0.7127
15793TIP3    H168870   3.389   6.421  12.453  1.9088 -2.0534 -0.1575
15793TIP3    H268871   3.347   6.430  12.307  1.0036  1.1364  0.2198
15794TIP3   OH268872   5.711   2.875   0.206  0.1179  0.6475 -0.1240
15794TIP3    H168873   5.772   2.940   0.172 -1.0096  1.1869 -1.2068
15794TIP3    H268874   5.650   2.926   0.259 -1.4605  0.7261 -1.9050
15795TIP3   OH268875   6.111   4.154   0.191  0.3594 -0.4687  0.2350
15795TIP3    H168876   6.027   4.150   0.237  0.2622 -0.4936  0.0534
15795TIP3    H268877   6.173   4.112   0.251  0.0516 -1.3628 -0.0585
15796TIP3   OH268878   2.929   1.047   4.567 -0.5064  0.0671  0.2178
15796TIP3    H168879   2.999   0.983   4.552  1.6056  1.7369  2.2193
15796TIP3    H268880   2.927   1.100   4.487 -0.3204 -0.7306 -0.3266
15797TIP3   OH268881   0.975   1.976   4.231 -0.2181  0.9191 -0.1042
15797TIP3    H168882   1.056   1.986   4.181  1.5031  2.9545  2.8259
15797TIP3    H268883   0.923   2.053   4.210 -1.7036 -0.5397 -2.2339
15798TIP3   OH268884   1.247   3.378   3.169 -0.3121  0.2098  0.4787
15798TIP3    H168885   1.165   3.419   3.141  0.3610  1.5320  0.3637
15798TIP3    H268886   1.258   3.407   3.260  0.1257  0.1991  0.4291
15799TIP3   OH268887   5.758   4.926  14.459 -0.9271 -0.0632 -0.2909
15799TIP3    H168888   5.840   4.943  14.506 -1.6203 -0.1602  1.0147
15799TIP3    H268889   5.769   4.838  14.423 -1.1998 -0.9666  1.6607
15800TIP3   OH268890   2.704   1.923  10.943 -0.0718 -0.4983  0.0975
15800TIP3    H168891   2.644   1.914  10.870 -0.0904 -1.2114  0.1942
15800TIP3    H268892   2.677   2.004  10.987  0.0281  0.0021 -0.7549
15801TIP3   OH268893   5.288   3.539   5.379 -0.6366  0.3707 -0.6936
15801TIP3    H168894   5.332   3.549   5.295 -0.2716 -1.0021 -0.6799
15801TIP3    H268895   5.253   3.450   5.378 -0.6886  0.3553  0.5801
15802TIP3   OH268896   4.609   5.159   0.049  0.1210 -0.0267  0.0541
15802TIP3    H168897   4.617   5.212  -0.030 -1.9999  0.7420  0.2776
15802TIP3    H268898   4.655   5.209   0.116 -1.6443  1.4982  0.2030
15803TIP3   OH268899   5.795   5.736  16.304  0.0990  0.6871 -0.2376
15803TIP3    H168900   5.805   5.643  16.281 -0.2033  0.9893 -1.6809
15803TIP3    H268901   5.884   5.769  16.308  0.5007 -0.3832  3.7771
15804TIP3   OH268902   2.506   6.289   0.260 -0.4611  0.5212  0.2153
15804TIP3    H168903   2.514   6.302   0.166 -0.4972  2.6812  0.4706
15804TIP3    H268904   2.414   6.264   0.273 -0.8536  1.6856 -0.1986
15805TIP3   OH268905   3.313   5.650  14.164 -0.0120  0.5868  0.4051
15805TIP3    H168906   3.239   5.603  14.125  2.0235 -1.6646 -1.0017
15805TIP3    H268907   3.330   5.722  14.104  0.7241 -0.6201 -0.8774
15806TIP3   OH268908   4.456   5.372  11.871 -0.1966 -0.0682 -0.2818
15806TIP3    H168909   4.533   5.338  11.917 -1.2957 -2.4954 -0.0933
15806TIP3    H268910   4.420   5.437  11.931  0.2042 -0.8673  0.8837
15807TIP3   OH268911   1.251   0.059  14.539  0.1888 -0.1002  0.2549
15807TIP3    H168912   1.211   0.005  14.607 -3.1091  1.6455 -0.0616
15807TIP3    H268913   1.233   0.149  14.567  2.6095  0.7928 -0.8218
15808TIP3   OH268914   2.544   0.777  12.510  0.1724 -0.0227 -0.3757
15808TIP3    H168915   2.580   0.862  12.536 -0.9067 -0.3163  2.4236
15808TIP3    H268916   2.450   0.793  12.499  0.2184 -0.5107 -1.5728
15809TIP3   OH268917   2.301   4.964   0.400  0.1847 -0.2058 -0.2822
15809TIP3    H168918   2.283   4.940   0.491 -3.5146  2.1894 -0.1486
15809TIP3    H268919   2.248   4.903   0.349 -0.6638  0.7500 -0.5656
15810TIP3   OH268920   1.125   1.895   6.205 -0.3082 -0.4093 -0.0533
15810TIP3    H168921   1.136   1.892   6.300 -1.8282  0.4703  0.1874
15810TIP3    H268922   1.197   1.843   6.171  2.7317  2.4936  1.3812
15811TIP3   OH268923   4.814   4.409  15.109  0.5905  0.3257  0.1023
15811TIP3    H168924   4.737   4.393  15.055  1.2710  1.7553 -1.4292
15811TIP3    H268925   4.888   4.390  15.051  1.3687  0.4010  1.0437
15812TIP3   OH268926   2.596   0.632  13.877 -0.2977  0.3174 -0.2017
15812TIP3    H168927   2.636   0.711  13.842 -0.0291 -0.4222 -1.6203
15812TIP3    H268928   2.666   0.567  13.877 -0.7015 -0.1279  0.2451
15813TIP3   OH268929   5.386   4.595  11.353  0.1393 -0.3763  0.1443
15813TIP3    H168930   5.420   4.549  11.276  0.8748  0.5616 -0.1025
15813TIP3    H268931   5.400   4.533  11.425  0.2219 -0.9275 -0.3374
15814TIP3   OH268932   1.119   3.330  13.373  0.1046 -0.3952 -0.2206
15814TIP3    H168933   1.175   3.408  13.376 -0.0572  0.0120 -3.5675
15814TIP3    H268934   1.159   3.275  13.306 -1.2031 -2.0371  0.2928
15815TIP3   OH268935   6.761   1.868  13.013  0.0433 -0.0648 -0.1915
15815TIP3    H168936   6.844   1.841  12.974 -0.2897 -0.0042 -0.9616
15815TIP3    H268937   6.708   1.789  13.016 -0.1914  0.0716 -0.5491
15816TIP3   OH268938   6.069   0.254  16.024 -0.4700 -0.2809  0.7297
15816TIP3    H168939   5.990   0.284  15.979  0.1007  0.9690  0.5298
15816TIP3    H268940   6.091   0.325  16.084  2.6373  1.1987 -1.8873
15817TIP3   OH268941   3.305   0.809  14.796  0.0910  0.8435 -0.4392
15817TIP3    H168942   3.344   0.849  14.718 -0.4930  0.5718 -0.8855
15817TIP3    H268943   3.330   0.717  14.791 -0.7638  0.6169 -0.8548
15818TIP3   OH268944   6.461   2.924  15.772 -0.6980 -0.2854 -0.0792
15818TIP3    H168945   6.530   2.986  15.748 -0.4111 -0.5555  0.0529
15818TIP3    H268946   6.502   2.838  15.765 -0.5865 -0.3786  1.4290
15819TIP3   OH268947   1.972   0.452   4.002 -0.0610 -0.3218  0.0652
15819TIP3    H168948   2.064   0.446   3.976 -0.7648 -1.6495 -2.4107
15819TIP3    H268949   1.939   0.530   3.956  0.1576  1.2377  2.3681
15820TIP3   OH268950   0.827   1.112   2.781  0.2917 -0.4738  0.4049
15820TIP3    H168951   0.870   1.094   2.865 -0.0739 -2.4315  0.2161
15820TIP3    H268952   0.898   1.136   2.722  0.7000 -0.2920  0.9587
15821TIP3   OH268953   1.909   0.326  11.304  0.2976 -0.1412 -0.8564
15821TIP3    H168954   1.974   0.296  11.241  0.2960  1.0970 -1.4958
15821TIP3    H268955   1.960   0.362  11.376  0.3107 -0.5545 -0.6606
15822TIP3   OH268956   4.356   5.455   4.850 -0.2029 -0.2780  0.0600
15822TIP3    H168957   4.358   5.447   4.945 -2.4788 -1.4790  0.0763
15822TIP3    H268958   4.326   5.369   4.819 -1.0730  0.5721 -1.6294
15823TIP3   OH268959   4.197   6.690   4.002  0.2415  0.3214  0.1820
15823TIP3    H168960   4.276   6.636   4.004 -0.3336 -0.5449 -0.1282
15823TIP3    H268961   4.207   6.749   4.076  1.2218  0.2830  0.1015
15824TIP3   OH268962   2.141   1.148  16.756 -0.9687  0.2170  0.6342
15824TIP3    H168963   2.182   1.101  16.829 -1.9166  1.4834  2.0176
15824TIP3    H268964   2.102   1.078  16.703 -0.2122 -0.7400  1.2952
15825TIP3   OH268965   4.821   3.882   4.577 -0.6905 -0.0283 -0.6282
15825TIP3    H168966   4.764   3.828   4.523  0.1347 -0.6023 -0.9424
15825TIP3    H268967   4.906   3.879   4.534 -0.0552 -0.3462  0.5863
15826TIP3   OH268968   2.639   4.720   0.162 -0.0545  0.4160  0.2380
15826TIP3    H168969   2.566   4.676   0.206  0.1103 -0.8204 -0.6448
15826TIP3    H268970   2.717   4.677   0.197  0.3003  2.0233  1.4899
15827TIP3   OH268971   4.856   5.263  15.046 -0.0502 -0.1395 -0.0366
15827TIP3    H168972   4.772   5.217  15.047  0.6440 -1.5882 -2.0668
15827TIP3    H268973   4.915   5.206  15.095  0.8348 -1.6351 -2.6364
15828TIP3   OH268974   2.867   1.528  14.940 -0.3322  0.3238 -0.1929
15828TIP3    H168975   2.926   1.591  14.898 -0.9637  0.6593 -0.5761
15828TIP3    H268976   2.847   1.464  14.872  0.8897 -0.7347  0.3885
15829TIP3   OH268977   0.600   5.650   4.020 -1.1601  0.3642 -0.3252
15829TIP3    H168978   0.593   5.611   4.108  0.7151  1.8178  0.5282
15829TIP3    H268979   0.654   5.589   3.970 -1.8457 -0.2391 -0.3371
15830TIP3   OH268980   3.137   5.529   0.467 -0.5951  0.0324  0.3969
15830TIP3    H168981   3.143   5.542   0.562 -2.5110  0.5069  0.4991
15830TIP3    H268982   3.126   5.617   0.431  0.7416 -0.0834 -0.3493
15831TIP3   OH268983   3.849   2.633  15.962  0.3847  0.0837  0.0715
15831TIP3    H168984   3.756   2.619  15.983  0.0669  1.4104 -0.3234
15831TIP3    H268985   3.850   2.640  15.866  0.9469 -0.2170  0.0531
15832TIP3   OH268986   0.607   1.297  11.602 -0.0213  0.4873  0.7425
15832TIP3    H168987   0.524   1.255  11.623  0.0384  0.4078  0.8217
15832TIP3    H268988   0.583   1.383  11.569 -0.1994  0.0408 -0.3416
15833TIP3   OH268989   2.418   2.021  15.248 -0.6585 -0.4656 -0.1256
15833TIP3    H168990   2.329   2.053  15.264 -0.4537 -0.3836  0.9316
15833TIP3    H268991   2.466   2.098  15.217 -0.4972 -0.0416  1.1280
15834TIP3   OH268992   3.037   5.903   3.365 -0.3399 -0.0319 -0.1313
15834TIP3    H168993   3.058   5.954   3.287 -0.4881  1.0695  0.5301
15834TIP3    H268994   3.122   5.884   3.405 -0.1958 -1.4347 -1.0581
15835TIP3   OH268995   6.464   2.029  12.923  0.2819 -0.4706  0.4363
15835TIP3    H168996   6.430   2.056  13.009  1.5790 -1.7902  1.4172
15835TIP3    H268997   6.425   1.942  12.908 -1.1292  0.3595 -1.0660
15836TIP3   OH268998   5.407   3.836  16.394 -0.4436 -0.0740 -0.1957
15836TIP3    H168999   5.446   3.750  16.378  2.9657  0.9836  1.4455
15836TIP3    H269000   5.364   3.828  16.479 -0.6302 -0.3238 -0.3135
15837TIP3   OH269001   5.995   0.770   4.387 -0.3070 -0.0294  0.2723
15837TIP3    H169002   6.067   0.715   4.416  0.5350  0.8526 -0.0915
15837TIP3    H269003   6.004   0.773   4.292 -3.2625 -3.2122 -0.3113
15838TIP3   OH269004   0.636   3.067   3.462 -0.1079 -0.3522  0.2862
15838TIP3    H169005   0.698   3.128   3.502 -0.0043  0.1532 -0.6126
15838TIP3    H269006   0.580   3.122   3.408  0.8163 -1.1531 -1.6028
15839TIP3   OH269007   0.781   0.869  16.983 -0.1096 -0.3956 -0.1919
15839TIP3    H169008   0.819   0.803  17.042  0.2989 -1.6424 -1.7684
15839TIP3    H269009   0.702   0.828  16.949 -0.2202  0.2071 -0.6813
15840TIP3   OH269010   5.758   6.227   2.653  0.4226 -0.3327  0.3324
15840TIP3    H169011   5.839   6.239   2.604  0.2339 -1.9822 -0.4562
15840TIP3    H269012   5.786   6.187   2.735  0.5621  0.7794  0.8434
15841TIP3   OH269013   1.079   1.667  10.643 -0.2811  0.6349  0.1512
15841TIP3    H169014   1.052   1.585  10.686 -0.4199  1.3468  1.4576
15841TIP3    H269015   1.172   1.655  10.625 -0.2508  0.2805  0.5249
15842TIP3   OH269016   6.167   6.012  10.866 -0.1786  0.2002 -0.0942
15842TIP3    H169017   6.157   5.934  10.812 -2.9151  1.9760 -2.4484
15842TIP3    H269018   6.205   6.077  10.806 -2.5517  2.0114  0.2274
15843TIP3   OH269019   1.304   2.271  14.630 -0.1845  0.3063 -0.7385
15843TIP3    H169020   1.236   2.216  14.590 -0.5018  0.3569 -0.2795
15843TIP3    H269021   1.351   2.211  14.688 -0.2304  0.4106 -0.5936
15844TIP3   OH269022   0.047   0.465  15.487 -0.0154 -0.1403 -0.1999
15844TIP3    H169023   0.089   0.379  15.500 -0.7661 -0.4579  0.1725
15844TIP3    H269024   0.035   0.472  15.392 -2.1861 -1.5548 -0.0912
15845TIP3   OH269025   5.729   6.813   4.060 -0.5268 -0.4072  0.3371
15845TIP3    H169026   5.814   6.855   4.076  0.1127 -1.2476 -0.7370
15845TIP3    H269027   5.670   6.886   4.039  0.0296  0.1442  0.6539
15846TIP3   OH269028   3.615   3.506  13.696 -0.3237 -0.1237 -0.6486
15846TIP3    H169029   3.684   3.551  13.745 -0.9939  1.3144 -0.9772
15846TIP3    H269030   3.549   3.485  13.762 -0.3701  0.0971 -0.6242
15847TIP3   OH269031   6.236   3.317  15.624 -0.0986 -0.2199  0.3640
15847TIP3    H169032   6.199   3.252  15.564 -0.1140  0.6281 -0.5852
15847TIP3    H269033   6.164   3.377  15.641 -0.1940 -0.6616  1.5477
15848TIP3   OH269034   5.274   4.024  15.304  0.3488  0.9138 -0.3304
15848TIP3    H169035   5.319   3.997  15.224  1.0093 -0.9972  0.6083
15848TIP3    H269036   5.306   3.962  15.371  0.3745  2.8674  1.5748
15849TIP3   OH269037   1.629   4.850  12.081 -0.1149 -0.4580 -0.0200
15849TIP3    H169038   1.656   4.927  12.131 -0.7567 -1.5148  2.1059
15849TIP3    H269039   1.662   4.865  11.993  0.8724  1.6478  0.6467
15850TIP3   OH269040   5.919   6.763  16.864 -0.2345 -0.4511  0.5511
15850TIP3    H169041   5.984   6.813  16.814  0.2088 -2.9713 -1.6752
15850TIP3    H269042   5.971   6.701  16.916 -0.7987  0.1958  1.9285
15851TIP3   OH269043   3.950   1.284   1.036 -0.6006  0.2687 -0.4108
15851TIP3    H169044   3.985   1.235   0.962 -0.6376  1.9681 -1.6094
15851TIP3    H269045   4.027   1.304   1.090 -0.5986 -1.1200  0.1416
15852TIP3   OH269046   1.426   6.206  16.264  0.0496  0.4499  0.1747
15852TIP3    H169047   1.340   6.203  16.221  1.1794  0.9815 -2.3092
15852TIP3    H269048   1.424   6.131  16.324 -1.4611 -0.7661 -1.2542
15853TIP3   OH269049   5.811   1.722  13.299 -0.6254 -0.6065 -0.1787
15853TIP3    H169050   5.903   1.745  13.290 -0.1358 -1.9691  0.9704
15853TIP3    H269051   5.805   1.680  13.385 -2.7259  1.2435  0.6841
15854TIP3   OH269052   1.718   6.536  12.992 -0.0291  0.1433 -0.7515
15854TIP3    H169053   1.764   6.494  13.066 -0.7347  0.7252  0.0297
15854TIP3    H269054   1.682   6.616  13.029 -1.3646 -0.1197 -1.4550
15855TIP3   OH269055   0.395   6.045  14.118 -0.4112 -0.2148 -0.7039
15855TIP3    H169056   0.476   6.035  14.068 -0.2522 -0.6803 -0.3505
15855TIP3    H269057   0.423   6.068  14.206 -0.7142  1.8338 -1.0703
15856TIP3   OH269058   1.362   4.616  12.544  0.7475 -0.1622 -0.3478
15856TIP3    H169059   1.269   4.627  12.564  0.5444 -1.0896 -0.7194
15856TIP3    H269060   1.404   4.692  12.582  0.1173 -0.7871  1.7266
15857TIP3   OH269061   3.930   2.838  10.751 -0.3434  0.1951  0.3456
15857TIP3    H169062   3.849   2.796  10.780 -0.1031 -1.1509 -0.8680
15857TIP3    H269063   3.901   2.904  10.687 -0.4491 -0.7967 -0.6523
15858TIP3   OH269064   4.909   4.757   2.803  0.8277  0.1073 -0.1633
15858TIP3    H169065   4.898   4.662   2.802  1.1988  0.0386  0.9366
15858TIP3    H269066   4.840   4.789   2.861  0.6302  0.5198 -0.6211
15859TIP3   OH269067   6.611   3.581   0.045 -0.0153 -0.3996 -0.4201
15859TIP3    H169068   6.575   3.503   0.089  1.7220 -2.0431 -1.7256
15859TIP3    H269069   6.688   3.603   0.097 -0.9194  0.9928  0.3888
15860TIP3   OH269070   4.247   4.551   2.956  0.2818 -0.3688 -0.1095
15860TIP3    H169071   4.273   4.489   2.889 -1.0066 -0.4653 -0.5406
15860TIP3    H269072   4.160   4.580   2.930 -1.4248 -2.3226  2.8079
15861TIP3   OH269073   3.578   1.989   1.974 -0.1342  0.4521  0.6007
15861TIP3    H169074   3.568   2.051   2.046  3.8455 -0.6780  2.4498
15861TIP3    H269075   3.661   2.013   1.933 -1.3962 -0.0955 -2.5489
15862TIP3   OH269076   1.134   5.005  15.682  0.2318  0.5087 -0.5819
15862TIP3    H169077   1.061   5.008  15.621  1.3550  0.1331 -1.9987
15862TIP3    H269078   1.175   5.092  15.674  0.0626  0.6528  0.0622
15863TIP3   OH269079   1.530   4.992  11.402 -0.4499  0.1188 -0.3248
15863TIP3    H169080   1.517   4.930  11.330 -0.0881  0.3611 -0.6027
15863TIP3    H269081   1.484   5.071  11.373  1.2918  0.8688 -1.1670
15864TIP3   OH269082   2.379   6.008   3.258 -0.5013 -0.4537 -0.7006
15864TIP3    H169083   2.349   6.032   3.346  0.5288 -0.7346 -0.2463
15864TIP3    H269084   2.409   6.090   3.220  2.6554 -0.7959  0.7046
15865TIP3   OH269085   5.388   5.044  13.110 -0.3796  0.3613  0.5306
15865TIP3    H169086   5.351   5.118  13.062  0.2064  0.2788 -0.0603
15865TIP3    H269087   5.408   4.979  13.044  1.4828  0.6880  0.7096
15866TIP3   OH269088   4.572   2.122   3.857  0.4190  0.5230 -0.1738
15866TIP3    H169089   4.579   2.174   3.777 -0.0466  1.0565  0.1229
15866TIP3    H269090   4.486   2.146   3.893 -0.1054 -0.9429 -0.3724
15867TIP3   OH269091   5.608   5.801  16.583 -0.3323  0.5574  0.0765
15867TIP3    H169092   5.643   5.835  16.665  0.2965  1.1880 -0.4337
15867TIP3    H269093   5.518   5.775  16.604 -0.0126  0.2304  1.0738
15868TIP3   OH269094   1.580   3.189  11.273  0.3405  0.1387 -0.9368
15868TIP3    H169095   1.499   3.155  11.311  0.7582 -2.3544 -2.1136
15868TIP3    H269096   1.643   3.184  11.345 -0.0361  0.1955 -0.5923
15869TIP3   OH269097   2.372   6.266  16.153  0.4380 -0.4065  0.2395
15869TIP3    H169098   2.346   6.271  16.061  1.3798 -1.3819 -0.0969
15869TIP3    H269099   2.289   6.254  16.201  0.0113 -0.7091 -0.5532
15870TIP3   OH269100   5.595   5.609  14.590  0.5556  0.2034  0.3949
15870TIP3    H169101   5.645   5.675  14.637  2.0229 -0.0412 -0.7509
15870TIP3    H269102   5.659   5.566  14.533 -0.6603 -1.1977  0.0254
15871TIP3   OH269103   2.857   6.191   3.933  0.4092 -0.8712 -0.0352
15871TIP3    H169104   2.914   6.117   3.955  1.6544  0.0722  0.0574
15871TIP3    H269105   2.911   6.247   3.877 -0.4089  0.1150  0.1317
15872TIP3   OH269106   0.475   5.951  11.362  0.5425  0.1350  0.7057
15872TIP3    H169107   0.542   5.898  11.317  0.6959  0.3330  0.6984
15872TIP3    H269108   0.392   5.911  11.336  0.5297  1.1513 -0.9667
15873TIP3   OH269109   0.054   3.538  13.889  0.5836  0.0026 -0.6533
15873TIP3    H169110   0.036   3.588  13.968 -1.2718 -1.6401  0.0397
15873TIP3    H269111   0.012   3.587  13.818  0.1629  0.2474 -0.2366
15874TIP3   OH269112   3.654   4.444  12.897  0.4386 -0.2340 -0.7253
15874TIP3    H169113   3.697   4.522  12.933  2.6656 -1.0407 -1.4476
15874TIP3    H269114   3.610   4.404  12.972  0.8255  0.7276  0.0311
15875TIP3   OH269115   6.415   5.516   2.306 -0.6276  0.4691  0.1401
15875TIP3    H169116   6.501   5.539   2.342 -0.8077 -0.8070  1.4984
15875TIP3    H269117   6.424   5.424   2.281 -0.4757  1.3075 -3.3850
15876TIP3   OH269118   4.827   2.552  15.631  0.0283 -0.2454 -0.5371
15876TIP3    H169119   4.756   2.511  15.680  1.4975 -0.6478  1.3763
15876TIP3    H269120   4.793   2.639  15.608 -1.4202 -0.7975 -0.5434
15877TIP3   OH269121   6.712   1.309   5.969  0.1248 -0.1352  0.2723
15877TIP3    H169122   6.633   1.363   5.978 -0.4258 -0.8938  0.0498
15877TIP3    H269123   6.755   1.316   6.054  0.7308  1.6649 -0.1338
15878TIP3   OH269124   5.203   4.264   0.588 -0.0683  0.0225 -0.5450
15878TIP3    H169125   5.125   4.249   0.642 -0.8033  0.7388 -1.3792
15878TIP3    H269126   5.276   4.229   0.641 -0.4589  2.4550  1.8470
15879TIP3   OH269127   1.135   1.861  11.098  0.6859  0.5662  0.1317
15879TIP3    H169128   1.089   1.805  11.035  0.6729  0.3298  0.3484
15879TIP3    H269129   1.217   1.883  11.054 -0.0418  1.8111 -0.6723
15880TIP3   OH269130   4.389   4.030  11.917  0.4130  0.3530 -0.6024
15880TIP3    H169131   4.303   4.066  11.899  0.3243 -0.6164 -2.3324
15880TIP3    H269132   4.378   3.936  11.910  1.1995  0.0882  1.1980
15881TIP3   OH269133   3.509   1.512   2.103  0.1981 -0.4520 -0.5295
15881TIP3    H169134   3.514   1.606   2.121  0.1837 -0.2497 -1.5188
15881TIP3    H269135   3.429   1.501   2.052  0.2403 -0.9833 -0.4856
15882TIP3   OH269136   0.750   0.501  15.074 -0.6244  0.3986  0.5002
15882TIP3    H169137   0.701   0.564  15.127 -1.2247 -0.3748  0.8822
15882TIP3    H269138   0.749   0.420  15.125  0.9371  0.3060  0.4520
15883TIP3   OH269139   1.057   6.041  11.071  0.1823  0.5793  0.5742
15883TIP3    H169140   1.034   5.994  11.150 -0.7570  1.7180  1.0047
15883TIP3    H269141   1.153   6.037  11.068  0.1252 -1.8324  0.2552
15884TIP3   OH269142   6.087   2.171   0.335  0.1721 -0.1306 -0.6034
15884TIP3    H169143   6.173   2.202   0.363  0.3144  0.2688 -1.4378
15884TIP3    H269144   6.028   2.198   0.404  0.8094 -1.0013  0.3114
15885TIP3   OH269145   3.543   3.371   1.810 -0.3698  0.4400 -0.8063
15885TIP3    H169146   3.510   3.330   1.890 -0.5170 -0.9240 -1.5466
15885TIP3    H269147   3.637   3.383   1.826 -0.3695  0.0364 -0.4856
15886TIP3   OH269148   3.147   6.426   0.028 -0.6735  0.2121  0.0755
15886TIP3    H169149   3.097   6.417   0.109 -2.5135  0.3188 -0.9872
15886TIP3    H269150   3.144   6.340  -0.013 -0.2435  0.3024 -0.1628
15887TIP3   OH269151   4.274   3.956   4.497  0.2603  0.7283 -0.4296
15887TIP3    H169152   4.275   3.954   4.401 -1.2836 -0.6532 -0.4808
15887TIP3    H269153   4.246   4.045   4.519  0.5770  1.0431 -1.2524
15888TIP3   OH269154   4.921   4.863  17.158  0.0466 -0.5054  0.1977
15888TIP3    H169155   4.897   4.813  17.236  0.3711  1.7158  1.8415
15888TIP3    H269156   5.003   4.907  17.182  2.0863 -2.3865 -2.6895
15889TIP3   OH269157   3.345   1.361   4.014  0.3226 -0.3036 -0.0417
15889TIP3    H169158   3.296   1.364   3.932  1.1187 -0.0412 -0.5229
15889TIP3    H269159   3.427   1.408   3.995 -0.2011  1.3097  1.3965
15890TIP3   OH269160   6.003   1.216   1.773 -0.1295  0.5322 -0.1311
15890TIP3    H169161   6.046   1.155   1.834  0.3204  1.1959  0.2335
15890TIP3    H269162   6.038   1.193   1.687  1.7211  1.6664  0.2704
15891TIP3   OH269163   3.398   2.017   3.697  0.6934  0.1581  0.0249
15891TIP3    H169164   3.354   2.035   3.780  2.7333  1.6656  0.8701
15891TIP3    H269165   3.408   1.922   3.696 -1.3547 -0.1143  0.3750
15892TIP3   OH269166   1.107   4.210  11.704 -0.0132  0.3539  0.6533
15892TIP3    H169167   1.034   4.244  11.652  0.1970  1.6478  1.1636
15892TIP3    H269168   1.099   4.254  11.789 -0.3744 -1.7275  1.7947
15893TIP3   OH269169   4.214   1.774   5.731 -0.0939  0.5122 -0.2754
15893TIP3    H169170   4.292   1.828   5.721  1.6740 -2.0687 -1.6153
15893TIP3    H269171   4.214   1.747   5.823 -0.1225  1.4849  0.0180
15894TIP3   OH269172   4.955   5.317   4.943 -0.1803  0.4649  0.1969
15894TIP3    H169173   5.046   5.302   4.917 -0.0598  0.2262  0.7522
15894TIP3    H269174   4.911   5.233   4.929 -0.4370  0.7148 -0.5508
15895TIP3   OH269175   0.158   2.985   4.921  0.4642  0.1771  0.5544
15895TIP3    H169176   0.157   3.071   4.964 -0.7658  1.2925 -1.5741
15895TIP3    H269177   0.160   3.004   4.827 -0.3801 -2.1227 -0.0081
15896TIP3   OH269178   4.059   4.414   3.274  0.2229 -0.0841  0.4847
15896TIP3    H169179   3.997   4.397   3.345 -1.0907  1.9229 -0.0927
15896TIP3    H269180   4.031   4.355   3.203  0.8259 -1.2609  1.1954
15897TIP3   OH269181   1.749   2.278   5.214  0.8603  0.3468 -0.0233
15897TIP3    H169182   1.791   2.193   5.228  1.1674  0.6902  1.2767
15897TIP3    H269183   1.734   2.282   5.120  0.4073 -1.3522 -0.0696
15898TIP3   OH269184   1.172   6.172  12.881 -0.2840 -0.0305 -1.1067
15898TIP3    H169185   1.108   6.153  12.812 -0.4283  0.3393 -1.0759
15898TIP3    H269186   1.170   6.094  12.937 -0.8683  0.0671 -0.9849
15899TIP3   OH269187   4.339   2.722  16.659 -0.2908 -0.5669 -0.4905
15899TIP3    H169188   4.330   2.699  16.752 -0.1893  0.1264 -0.2988
15899TIP3    H269189   4.331   2.817  16.658 -1.0882 -0.6382 -1.2926
15900TIP3   OH269190   4.266   2.865  14.695  0.5447  0.1577 -0.4178
15900TIP3    H169191   4.328   2.938  14.697  0.7841 -0.0550  0.6195
15900TIP3    H269192   4.252   2.844  14.787 -0.7413 -0.0810 -0.6518
15901TIP3   OH269193   2.978   1.003  13.849 -0.2313  0.3136 -0.0681
15901TIP3    H169194   3.026   1.069  13.899  0.3850 -1.2849  1.5749
15901TIP3    H269195   3.047   0.950  13.808 -0.5771 -1.1497  1.1569
15902TIP3   OH269196   3.471   3.541   0.218 -0.1766  0.6440 -0.3972
15902TIP3    H169197   3.504   3.530   0.129  0.7228  0.2393 -0.0253
15902TIP3    H269198   3.409   3.614   0.212 -0.0636  0.6677 -1.3333
15903TIP3   OH269199   0.114   2.833  13.944 -0.1905  0.0342  0.1059
15903TIP3    H169200   0.178   2.803  13.879 -0.7871 -0.1159 -0.4223
15903TIP3    H269201   0.079   2.914  13.907  0.0009  0.3454  0.5973
15904TIP3   OH269202   4.074   0.642  16.691 -0.4880 -0.2512  0.3087
15904TIP3    H169203   4.072   0.568  16.629 -0.4438 -0.9352  1.1093
15904TIP3    H269204   4.080   0.720  16.635 -0.3998 -0.8586 -0.5474
15905TIP3   OH269205   3.782   4.131  10.487 -0.3677  0.2000 -0.5157
15905TIP3    H169206   3.744   4.218  10.506  1.2180  0.4132  2.2960
15905TIP3    H269207   3.730   4.098  10.414 -1.6541  3.1140 -1.0924
15906TIP3   OH269208   3.885   3.311   0.847  0.3409 -0.2503  0.0171
15906TIP3    H169209   3.801   3.311   0.802  0.3970 -1.3398 -0.1290
15906TIP3    H269210   3.879   3.238   0.909  0.4323  0.9263  1.4783
15907TIP3   OH269211   4.598   2.211  13.693  0.4553 -0.2090  0.0074
15907TIP3    H169212   4.604   2.304  13.668  0.7494  0.1475  1.3215
15907TIP3    H269213   4.543   2.211  13.772 -0.6469 -1.3148 -0.7154
15908TIP3   OH269214   6.671   0.159  10.816  0.1024 -0.2395  0.1263
15908TIP3    H169215   6.626   0.244  10.815 -0.5446 -0.5400  1.4664
15908TIP3    H269216   6.749   0.174  10.868 -1.5914 -1.1533  3.1569
15909TIP3   OH269217   0.104   4.840  15.744 -0.5314 -0.5854 -0.0256
15909TIP3    H169218   0.125   4.757  15.786  0.7591 -0.2547  0.0176
15909TIP3    H269219   0.081   4.898  15.816 -0.4173 -0.6155  0.0351
15910TIP3   OH269220   6.237   5.404   4.103  0.5564  0.8756 -0.0024
15910TIP3    H169221   6.255   5.367   4.189 -0.1524 -0.4849 -0.4094
15910TIP3    H269222   6.198   5.489   4.120  1.8392  1.2938  0.9793
15911TIP3   OH269223   6.778   3.760   1.877 -0.4659  0.1729 -0.4147
15911TIP3    H169224   6.744   3.842   1.912 -2.4493 -0.4610 -0.7851
15911TIP3    H269225   6.777   3.771   1.782 -0.4102 -0.1619 -0.4571
15912TIP3   OH269226   2.493   5.133   3.572  0.8474  0.1668  0.5768
15912TIP3    H169227   2.567   5.162   3.519 -0.2039  0.9460 -0.5362
15912TIP3    H269228   2.507   5.040   3.585  0.5584 -0.3493 -2.1695
15913TIP3   OH269229   1.563   5.938  14.247  0.3830 -0.2390 -0.0081
15913TIP3    H169230   1.469   5.958  14.244  0.0557 -1.5235  0.8864
15913TIP3    H269231   1.577   5.897  14.332  1.2134 -2.5151 -1.1393
15914TIP3   OH269232   0.766   3.030  16.482  0.5607  0.8682  0.2635
15914TIP3    H169233   0.750   3.081  16.403 -1.3283 -0.4454 -0.2911
15914TIP3    H269234   0.816   2.954  16.452 -0.1237  0.3874  0.3133
15915TIP3   OH269235   0.344   5.085   5.894 -0.1247  0.2452  0.0386
15915TIP3    H169236   0.279   5.150   5.921 -1.4282 -0.2355 -1.7559
15915TIP3    H269237   0.363   5.035   5.974  1.1348  2.9310  1.5324
15916TIP3   OH269238   3.016   3.835  14.611 -0.4036  0.0298 -0.3755
15916TIP3    H169239   2.930   3.839  14.653 -1.3050 -2.3476 -1.8156
15916TIP3    H269240   3.040   3.927  14.598 -2.5204  0.7693  0.4107
15917TIP3   OH269241   0.999   2.024   3.149  0.3301  0.1941  0.0751
15917TIP3    H169242   1.046   1.940   3.153 -1.6906 -0.9311  1.8927
15917TIP3    H269243   0.909   2.000   3.129  0.3368  2.3076 -3.3050
15918TIP3   OH269244   6.114   1.439  15.072  0.1309  0.3168  0.0537
15918TIP3    H169245   6.146   1.361  15.026  1.4533  0.6631  0.3396
15918TIP3    H269246   6.193   1.479  15.108 -0.8002  0.1089  2.5418
15919TIP3   OH269247   1.256   2.176  15.422  0.5822 -0.2018 -0.4122
15919TIP3    H169248   1.324   2.196  15.358  0.8105  1.2203  0.2236
15919TIP3    H269249   1.194   2.249  15.414 -1.1567 -1.7162 -1.3272
15920TIP3   OH269250   5.167   5.600   2.925 -0.0043  0.8377 -0.2261
15920TIP3    H169251   5.080   5.619   2.890  0.2565  0.8370 -0.8890
15920TIP3    H269252   5.158   5.514   2.966 -0.9188  1.8763  1.8474
15921TIP3   OH269253   4.840   2.762  15.311  0.0031 -0.0018 -0.2073
15921TIP3    H169254   4.762   2.815  15.296 -0.8113 -1.3259 -0.7803
15921TIP3    H269255   4.901   2.822  15.354 -1.0446  1.2654 -0.4166
15922TIP3   OH269256   0.927   2.591   1.651  0.1823  0.0092 -0.5036
15922TIP3    H169257   0.883   2.667   1.613  0.3234  0.1561 -0.3774
15922TIP3    H269258   0.967   2.547   1.576 -0.2760 -0.1919 -0.6344
15923TIP3   OH269259   2.484   5.342  16.134  0.2225  0.2824  0.4049
15923TIP3    H169260   2.457   5.428  16.103  0.3971 -0.0265 -0.6478
15923TIP3    H269261   2.507   5.294  16.055  0.6991 -0.5406  1.0252
15924TIP3   OH269262   3.620   2.855  10.619  0.4299 -1.1664  0.1203
15924TIP3    H169263   3.623   2.784  10.683 -1.0637 -0.8553  0.5740
15924TIP3    H269264   3.527   2.870  10.604  0.6651  1.1080  0.4991
15925TIP3   OH269265   4.398   6.822   0.497  0.9440 -0.0206  0.1528
15925TIP3    H169266   4.353   6.864   0.424  1.3416 -0.0675 -0.1201
15925TIP3    H269267   4.400   6.729   0.473 -0.3443 -0.2894  0.9628
15926TIP3   OH269268   1.682   2.646   3.326 -0.0537  0.2788 -0.4874
15926TIP3    H169269   1.616   2.711   3.300 -0.8580 -0.4082 -0.2054
15926TIP3    H269270   1.647   2.609   3.407  0.5595 -0.2760 -0.4736
15927TIP3   OH269271   4.009   5.147  13.215  0.1799  0.0570  0.1694
15927TIP3    H169272   3.922   5.135  13.255  0.4949  0.7538  1.1100
15927TIP3    H269273   4.046   5.059  13.211  0.1693 -0.0326  1.5498
15928TIP3   OH269274   0.257   3.744   1.869 -0.4715  0.4653 -0.8132
15928TIP3    H169275   0.244   3.825   1.919 -1.7972 -0.0779 -0.2139
15928TIP3    H269276   0.177   3.694   1.885 -0.2004 -0.4380 -2.1750
15929TIP3   OH269277   4.872   0.621   1.777  1.0062 -0.3736  0.1913
15929TIP3    H169278   4.822   0.572   1.843 -0.9811  0.7340 -0.4192
15929TIP3    H269279   4.841   0.586   1.693  0.3463  1.1156 -0.2268
15930TIP3   OH269280   5.804   2.190  13.849 -0.1685  0.1278  0.0382
15930TIP3    H169281   5.789   2.167  13.757  0.1652  0.1759 -0.0320
15930TIP3    H269282   5.741   2.137  13.898  1.6525 -2.2619  0.0274
15931TIP3   OH269283   1.828   4.280  16.069 -0.0117 -0.2527  0.0810
15931TIP3    H169284   1.921   4.284  16.091 -0.2051  0.5245  0.8026
15931TIP3    H269285   1.783   4.287  16.153 -0.7270 -1.1821 -0.2081
15932TIP3   OH269286   0.168   4.159   0.522  0.0943  0.8508 -0.3760
15932TIP3    H169287   0.240   4.190   0.468 -1.6036  1.3575 -2.4832
15932TIP3    H269288   0.093   4.213   0.497 -0.5883  1.9085  3.3660
15933TIP3   OH269289   2.495   2.304  16.403 -0.8317  0.4486 -0.2827
15933TIP3    H169290   2.558   2.365  16.442  0.5524 -0.4445 -1.0408
15933TIP3    H269291   2.546   2.257  16.337 -2.4872  0.1909 -1.4282
15934TIP3   OH269292   3.354   0.534  10.829 -0.2126 -0.1926  0.8623
15934TIP3    H169293   3.349   0.439  10.838  0.1821 -0.3617 -0.5507
15934TIP3    H269294   3.276   0.557  10.778 -0.4005  0.2755  1.3472
15935TIP3   OH269295   3.816   0.209   4.679 -0.1956 -0.2936 -0.1214
15935TIP3    H169296   3.745   0.181   4.737  0.7485 -1.4356  0.5247
15935TIP3    H269297   3.780   0.283   4.630 -2.0944 -1.3265 -0.3744
15936TIP3   OH269298   0.897   4.106  12.178  0.0414 -0.3007  0.2265
15936TIP3    H169299   0.978   4.105  12.126  0.3037 -0.4896  0.6308
15936TIP3    H269300   0.857   4.190  12.157  0.5270 -0.0433  0.2983
15937TIP3   OH269301   0.026   5.083  11.578 -0.3906 -0.2443 -0.3731
15937TIP3    H169302   0.047   4.995  11.546 -1.4854  0.2319 -2.5660
15937TIP3    H269303   0.075   5.142  11.520  0.3225  0.6285  1.0583
15938TIP3   OH269304   0.172   1.744   2.968  0.9151  0.1759  0.5648
15938TIP3    H169305   0.131   1.815   3.017 -3.3334 -0.1261 -1.9730
15938TIP3    H269306   0.130   1.665   3.001  2.3531 -0.6909  0.3999
15939TIP3   OH269307   3.956   4.176   4.655 -0.3846  0.5703 -0.2327
15939TIP3    H169308   3.899   4.203   4.583 -2.0858 -1.0891  0.4145
15939TIP3    H269309   3.984   4.258   4.696 -0.0418  1.5130 -2.2435
15940TIP3   OH269310   4.430   1.202  15.739  0.1781 -0.6760  0.0921
15940TIP3    H169311   4.467   1.272  15.792 -0.0723  0.2939 -0.9578
15940TIP3    H269312   4.493   1.190  15.668  0.2373 -1.5529  0.2855
15941TIP3   OH269313   5.137   4.425   2.570 -0.4164 -0.4573 -0.4635
15941TIP3    H169314   5.054   4.446   2.615 -0.9189 -0.4418 -1.3829
15941TIP3    H269315   5.178   4.360   2.626 -1.2995 -0.8508 -0.2515
15942TIP3   OH269316   4.544   4.191  12.404 -0.2196  0.3575  0.5051
15942TIP3    H169317   4.503   4.166  12.321 -1.3004  0.6856  0.9250
15942TIP3    H269318   4.606   4.120  12.423  2.4972  1.7659 -2.1800
15943TIP3   OH269319   6.164   2.772  14.142 -0.4113  0.0742  0.4742
15943TIP3    H169320   6.199   2.691  14.104 -1.0490 -0.4277  0.9396
15943TIP3    H269321   6.136   2.823  14.066  0.0700 -0.0976  0.1687
15944TIP3   OH269322   0.824   3.253   1.389 -0.2839  0.1685 -0.6964
15944TIP3    H169323   0.828   3.164   1.352  0.1237  0.1462 -0.5980
15944TIP3    H269324   0.824   3.239   1.484  0.8264  0.3164 -0.6695
15945TIP3   OH269325   2.039   5.904  13.418  0.0764  0.2600 -0.5600
15945TIP3    H169326   2.107   5.840  13.441  0.9729  0.8115 -1.5524
15945TIP3    H269327   2.026   5.892  13.323 -0.2455  1.0717 -0.6269
15946TIP3   OH269328   1.086   6.162  14.371 -0.0043 -0.3184 -0.1803
15946TIP3    H169329   1.150   6.109  14.322  0.2512 -1.1706  1.0419
15946TIP3    H269330   1.065   6.109  14.448 -1.5662  0.3195 -0.1376
15947TIP3   OH269331   0.128   1.564  15.035 -0.0957 -0.5298  0.4754
15947TIP3    H169332   0.147   1.658  15.038  1.3728 -0.7684 -0.4471
15947TIP3    H269333   0.151   1.532  15.122  1.4894 -0.3739  0.1422
15948TIP3   OH269334   4.589   2.849   5.434 -0.4956 -0.0545  0.1917
15948TIP3    H169335   4.595   2.933   5.390  2.0697 -0.4403 -0.3726
15948TIP3    H269336   4.496   2.840   5.458 -0.9778  2.5169 -0.4505
15949TIP3   OH269337   4.689   5.580   2.511  0.1420 -0.0233 -0.3596
15949TIP3    H169338   4.627   5.532   2.566 -0.1521 -0.4592 -1.0564
15949TIP3    H269339   4.754   5.614   2.573  0.0592 -0.8633  0.2180
15950TIP3   OH269340   0.708   4.058  13.108  0.4790 -0.2202  1.0810
15950TIP3    H169341   0.687   3.969  13.135 -0.8936  0.1785  1.3972
15950TIP3    H269342   0.623   4.101  13.097  1.1163  1.2199  1.5159
15951TIP3   OH269343   0.114   3.157  13.499  0.2337  0.0934 -0.1349
15951TIP3    H169344   0.148   3.244  13.481  0.1917  0.3795  1.1248
15951TIP3    H269345   0.170   3.098  13.447 -0.3232  0.9199 -1.7174
15952TIP3   OH269346   4.504   5.880  16.336 -0.0338 -0.2359  0.0359
15952TIP3    H169347   4.592   5.842  16.341 -0.6820 -1.7868  0.3944
15952TIP3    H269348   4.465   5.840  16.258 -0.7545 -0.3488  0.4424
15953TIP3   OH269349   2.209   2.039   0.365  0.1358 -0.1186  0.2871
15953TIP3    H169350   2.219   2.103   0.434  0.5028  0.2053 -0.0654
15953TIP3    H269351   2.227   2.087   0.284  0.3947 -0.6571  0.0197
15954TIP3   OH269352   5.416   1.738  16.716  0.6715 -0.1461 -0.0005
15954TIP3    H169353   5.495   1.687  16.695  0.1706 -0.1429 -2.1242
15954TIP3    H269354   5.443   1.796  16.787  2.0332 -1.4598  0.6090
15955TIP3   OH269355   1.104   1.480  15.113  0.6807  0.2943 -0.3279
15955TIP3    H169356   1.118   1.559  15.060  4.4085 -1.7459 -2.8084
15955TIP3    H269357   1.075   1.414  15.050  0.7801 -1.1333  1.0785
15956TIP3   OH269358   6.383   4.429   2.105 -0.4696  0.3846  0.0766
15956TIP3    H169359   6.366   4.447   2.198  0.1318  0.4630  0.1734
15956TIP3    H269360   6.476   4.446   2.094 -0.1529 -1.3380 -0.1400
15957TIP3   OH269361   3.825   1.509   4.517 -0.1435  0.3368  0.1523
15957TIP3    H169362   3.823   1.472   4.606 -0.9323 -0.2910 -0.1137
15957TIP3    H269363   3.739   1.548   4.506 -0.9053 -1.5482 -1.1286
15958TIP3   OH269364   2.320   5.235   4.579  0.1851  0.1051  0.1957
15958TIP3    H169365   2.401   5.271   4.542  0.4907 -0.1460  0.6144
15958TIP3    H269366   2.307   5.153   4.532 -1.1277  1.2468 -1.5811
15959TIP3   OH269367   0.707   3.546  15.323 -0.2245  0.4814 -0.1159
15959TIP3    H169368   0.678   3.614  15.262 -0.4294  1.9678  1.5305
15959TIP3    H269369   0.647   3.473  15.309 -2.0424  1.8442  0.1827
15960TIP3   OH269370   0.853   1.029   3.423 -0.1748 -0.1451 -0.0507
15960TIP3    H169371   0.838   0.999   3.513 -0.8075 -2.8239 -0.9310
15960TIP3    H269372   0.784   1.094   3.407 -0.0034  0.4195  1.4005
15961TIP3   OH269373   1.000   3.311  14.014  0.0781  0.0517  0.2907
15961TIP3    H169374   1.035   3.364  13.942  1.3703 -1.1925 -0.0308
15961TIP3    H269375   0.950   3.373  14.067  0.7859  1.4028 -0.5712
15962TIP3   OH269376   2.516   1.946  10.765 -0.0633  0.0324 -0.0982
15962TIP3    H169377   2.432   1.901  10.770 -0.1436  0.2452  0.4687
15962TIP3    H269378   2.508   2.004  10.689 -1.1047  1.4179  1.0212
15963TIP3   OH269379   6.806   2.615   3.901 -0.1383  0.0220 -0.3774
15963TIP3    H169380   6.812   2.528   3.862 -1.2979  0.3138 -1.2600
15963TIP3    H269381   6.731   2.610   3.960  0.0794  0.2987 -0.0716
15964TIP3   OH269382   5.621   4.977   4.083  0.8127  0.1929  0.5304
15964TIP3    H169383   5.699   4.983   4.027 -0.0880 -1.0589 -0.9542
15964TIP3    H269384   5.600   4.883   4.085 -2.3978  0.6883 -1.7414
15965TIP3   OH269385   5.573   0.203  17.040  0.2736  0.0782 -0.1886
15965TIP3    H169386   5.641   0.183  16.976  1.4647 -1.2215  1.3789
15965TIP3    H269387   5.523   0.122  17.049 -2.7970  1.5110 -2.6507
15966TIP3   OH269388   1.313   1.714  13.194  0.1391 -0.2024  0.0082
15966TIP3    H169389   1.245   1.781  13.205  1.0826  0.6465  0.8055
15966TIP3    H269390   1.390   1.751  13.236  0.8743 -1.5109 -0.1507
15967TIP3   OH269391   6.068   6.247  13.145 -0.4114  0.3248 -0.1900
15967TIP3    H169392   6.031   6.159  13.142 -0.0002  0.1660 -0.8204
15967TIP3    H269393   6.041   6.288  13.063 -1.1986  1.0454  0.4148
15968TIP3   OH269394   4.500   4.994   3.099 -0.1191  0.0286 -0.0350
15968TIP3    H169395   4.412   4.994   3.137 -0.4450  0.4817 -0.7645
15968TIP3    H269396   4.503   5.073   3.044  0.6926 -0.0559 -0.1307
15969TIP3   OH269397   2.763   5.282   4.949 -0.0770  0.5222  0.3779
15969TIP3    H169398   2.699   5.236   4.896 -1.0361 -0.2629  2.1321
15969TIP3    H269399   2.819   5.327   4.885 -1.2403 -0.2408 -1.2587
15970TIP3   OH269400   2.840   2.646   1.440  0.5524 -0.3501  0.2403
15970TIP3    H169401   2.919   2.624   1.392  0.5075 -0.5864  0.2685
15970TIP3    H269402   2.770   2.603   1.390  0.2275  1.2654 -0.7455
15971TIP3   OH269403   6.466   1.742  15.355 -0.5690 -0.3122 -0.3892
15971TIP3    H169404   6.512   1.814  15.312 -0.8244 -0.6039 -1.1513
15971TIP3    H269405   6.384   1.781  15.386 -1.0579 -0.4405 -1.4741
15972TIP3   OH269406   1.689   1.364   2.235  0.2701 -0.2423  0.5215
15972TIP3    H169407   1.649   1.328   2.156 -0.1389  0.0713  0.5816
15972TIP3    H269408   1.619   1.415   2.276  1.4461  2.5927 -0.7738
15973TIP3   OH269409   5.941   2.702  13.740  0.1641 -0.1308  0.1139
15973TIP3    H169410   5.909   2.736  13.657  0.0574 -0.1573  0.1436
15973TIP3    H269411   5.923   2.608  13.737 -0.9452  0.0487  0.6607
15974TIP3   OH269412   4.277   4.002   1.770  0.3659 -0.1514 -0.4509
15974TIP3    H169413   4.286   4.068   1.839  0.9226  0.0050 -0.6686
15974TIP3    H269414   4.186   3.975   1.776  0.2557  0.2777 -0.0306
15975TIP3   OH269415   1.996   1.201  10.862  0.2179 -0.4658  0.1361
15975TIP3    H169416   2.005   1.274  10.801  2.0322 -0.4499  0.3788
15975TIP3    H269417   1.951   1.133  10.812  0.1728  0.1470 -0.6660
15976TIP3   OH269418   0.415   4.596  12.023 -0.3329 -0.0527  0.0545
15976TIP3    H169419   0.505   4.614  12.047  0.5515  2.3368 -4.0777
15976TIP3    H269420   0.421   4.540  11.946 -2.4635 -0.6473  0.2499
15977TIP3   OH269421   1.076   1.341   1.712  0.4318 -0.0952  0.0778
15977TIP3    H169422   1.059   1.436   1.715 -1.5336 -0.4103  1.0097
15977TIP3    H269423   1.006   1.306   1.657 -1.0878 -1.3269  2.5886
15978TIP3   OH269424   4.727   0.607   2.375  0.4216 -0.5255 -0.3395
15978TIP3    H169425   4.660   0.657   2.422  0.3512 -1.0758  0.1468
15978TIP3    H269426   4.684   0.580   2.294  1.1141  2.0553 -1.7058
15979TIP3   OH269427   2.783   1.765   4.967  0.2595 -0.3347 -0.3503
15979TIP3    H169428   2.809   1.709   4.895 -0.1521 -2.5044  1.1086
15979TIP3    H269429   2.697   1.733   4.994  0.8891 -0.4009  1.8357
15980TIP3   OH269430   1.691   0.513   2.596 -0.0317  0.4042 -0.0633
15980TIP3    H169431   1.683   0.473   2.510 -1.6819  2.4286 -0.9404
15980TIP3    H269432   1.784   0.511   2.616  0.2691 -0.9173 -1.4652
15981TIP3   OH269433   0.972   4.770   3.356 -1.0716 -0.2845  0.1683
15981TIP3    H169434   0.966   4.674   3.352 -3.0068 -0.1689 -1.1574
15981TIP3    H269435   0.881   4.800   3.351 -0.4757  1.6456  0.0989
15982TIP3   OH269436   6.562   0.015   5.209  0.4838  0.1442 -0.7181
15982TIP3    H169437   6.586  -0.074   5.236  2.9935  0.6118 -1.2521
15982TIP3    H269438   6.627   0.071   5.251 -2.5671  2.1437  1.8689
15983TIP3   OH269439   3.348   5.202  11.460 -0.4039 -0.4064 -0.4411
15983TIP3    H169440   3.347   5.293  11.490 -1.7131 -0.6083  0.2362
15983TIP3    H269441   3.432   5.167  11.490 -1.0871 -0.2168  1.8922
15984TIP3   OH269442   3.681   0.963  16.102 -0.4882  0.0116 -0.0382
15984TIP3    H169443   3.589   0.948  16.082  0.2407 -3.5036 -1.4744
15984TIP3    H269444   3.708   0.888  16.155  1.8859  0.0811 -0.9911
15985TIP3   OH269445   1.986   5.088  11.873  0.4045 -0.3863  0.7840
15985TIP3    H169446   1.946   5.021  11.929  0.9995 -1.7643 -0.3686
15985TIP3    H269447   1.937   5.168  11.893 -1.6694 -1.5798  0.8089
15986TIP3   OH269448   0.413   4.412   3.196  0.2425  0.3018 -0.2385
15986TIP3    H169449   0.336   4.386   3.246  0.1412  0.5251 -0.2751
15986TIP3    H269450   0.408   4.361   3.115 -2.0864  3.1820 -2.1050
15987TIP3   OH269451   2.257   5.971   0.019  0.1314  0.3584  0.3743
15987TIP3    H169452   2.293   5.961   0.107  0.6472  0.6510  0.1977
15987TIP3    H269453   2.327   5.943  -0.040 -0.3230 -0.1460  0.0639
15988TIP3   OH269454   6.388   4.150   1.694 -0.6666 -0.1905  0.1725
15988TIP3    H169455   6.421   4.129   1.782 -0.7902  0.5464  0.4008
15988TIP3    H269456   6.293   4.154   1.705 -0.7018 -0.4120 -0.0629
15989TIP3   OH269457   6.331   3.608   1.753 -0.0337  0.5746  0.2341
15989TIP3    H169458   6.374   3.667   1.816  2.2409 -0.6161 -0.0946
15989TIP3    H269459   6.320   3.661   1.674 -0.2006  1.2367  0.6937
15990TIP3   OH269460   3.004   1.959   5.494 -0.2518 -0.5109 -0.7747
15990TIP3    H169461   3.028   1.883   5.547 -2.3667 -1.7331 -1.4570
15990TIP3    H269462   3.011   2.033   5.554  1.8610 -1.1943 -0.0908
15991TIP3   OH269463   4.037   4.425  11.752 -0.0374 -0.0384  0.7957
15991TIP3    H169464   4.077   4.509  11.775 -2.3087  0.7508  2.1484
15991TIP3    H269465   3.952   4.449  11.714 -0.2622 -1.7124  0.1681
15992TIP3   OH269466   4.296   1.113   1.076 -0.1783 -0.5652  0.0662
15992TIP3    H169467   4.276   1.158   1.158  0.2996 -0.3940  0.0910
15992TIP3    H269468   4.327   1.026   1.103  0.4143 -0.3533  0.0976
15993TIP3   OH269469   3.185   1.871  14.988  0.6476  0.2449 -0.2906
15993TIP3    H169470   3.255   1.810  15.010  1.4860  0.9143 -1.0325
15993TIP3    H269471   3.225   1.958  14.995 -0.2355  0.6651 -0.2614
15994TIP3   OH269472   3.210   3.266  14.742  0.0053 -0.4471  0.1675
15994TIP3    H169473   3.180   3.217  14.819 -0.5426 -1.0130 -0.3904
15994TIP3    H269474   3.132   3.277  14.688  0.5581 -0.8933 -0.7569
15995TIP3   OH269475   5.784   6.605  12.510  0.2218 -0.1668  0.1468
15995TIP3    H169476   5.741   6.540  12.566 -0.7157  0.7563  0.5238
15995TIP3    H269477   5.763   6.576  12.421 -0.5298 -0.1724  0.3164
15996TIP3   OH269478   5.745   5.337  14.625  0.0116  0.0482 -0.5979
15996TIP3    H169479   5.807   5.322  14.554  0.8593 -2.3923  0.5360
15996TIP3    H269480   5.676   5.272  14.611 -0.8042  0.7947 -0.2122
15997TIP3   OH269481   0.591   1.667   4.246 -1.1311 -0.2186 -0.3994
15997TIP3    H169482   0.653   1.624   4.305 -1.9093  0.5840  1.0868
15997TIP3    H269483   0.630   1.753   4.229 -1.6609  0.1675  0.2829
15998TIP3   OH269484   5.805   2.228   4.621  0.2805 -0.0215  0.5272
15998TIP3    H169485   5.746   2.153   4.611  0.2599  0.2795 -3.1115
15998TIP3    H269486   5.749   2.304   4.609  1.0824  0.2978 -1.6941
15999TIP3   OH269487   4.576   4.315  16.952  0.2262 -0.3643 -0.1761
15999TIP3    H169488   4.533   4.232  16.973  0.2993 -0.2609  0.3847
15999TIP3    H269489   4.658   4.312  17.000  0.9229 -0.6127 -1.3342
16000TIP3   OH269490   1.732   0.185   3.643  0.5939 -0.1159 -0.2022
16000TIP3    H169491   1.683   0.225   3.716  1.2384 -0.8330  0.6389
16000TIP3    H269492   1.824   0.196   3.667  0.7901 -1.7880 -0.1219
16001TIP3   OH269493   1.148   3.426  12.283  0.2283 -1.2312 -0.1059
16001TIP3    H169494   1.097   3.372  12.222  0.5225 -1.8158  0.1583
16001TIP3    H269495   1.139   3.383  12.367  2.4196 -2.2517 -0.3395
16002TIP3   OH269496   2.367   2.924  10.758  0.3973  0.4868 -0.1852
16002TIP3    H169497   2.385   2.885  10.843 -1.0888  0.5407  0.1800
16002TIP3    H269498   2.426   2.878  10.698  2.6399  1.5429  1.0651
16003TIP3   OH269499   3.886   1.279   5.126  0.3636  0.2601  0.4640
16003TIP3    H169500   3.813   1.218   5.121  0.7293 -0.1523  0.1660
16003TIP3    H269501   3.960   1.233   5.087  0.3013  1.4046 -1.1109
16004TIP3   OH269502   4.695   4.544  14.475 -0.5559  0.1885  0.4913
16004TIP3    H169503   4.655   4.462  14.446 -1.7233  0.5336  1.0534
16004TIP3    H269504   4.707   4.532  14.569  0.9851 -0.0207  0.2881
16005TIP3   OH269505   6.020   3.728  11.764  0.3820  0.3871 -0.0669
16005TIP3    H169506   5.958   3.738  11.692 -0.2129  1.1771  0.5408
16005TIP3    H269507   6.001   3.641  11.800 -1.0833  1.0043  0.7373
16006TIP3   OH269508   2.654   3.135   0.165  0.1896  0.4958  0.1139
16006TIP3    H169509   2.565   3.125   0.199 -1.1381  1.3280 -2.7413
16006TIP3    H269510   2.677   3.049   0.130  0.6141  0.2429  0.9776
16007TIP3   OH269511   1.015   6.701  15.974  0.8321 -0.3891 -0.5243
16007TIP3    H169512   0.967   6.774  15.934 -0.8481 -1.0012  0.2863
16007TIP3    H269513   1.011   6.717  16.068  0.4692 -1.4945 -0.3345
16008TIP3   OH269514   5.184   3.472   2.671  0.1566 -0.4286  0.2757
16008TIP3    H169515   5.136   3.433   2.597 -0.5418 -1.0115  1.0141
16008TIP3    H269516   5.216   3.556   2.637 -0.0831 -0.7198 -0.7121
16009TIP3   OH269517   0.095   0.346   3.274  0.7558 -0.1594  0.1507
16009TIP3    H169518   0.149   0.330   3.351 -0.9029  0.4018  1.4802
16009TIP3    H269519   0.082   0.259   3.235 -0.5201 -0.8641  2.0146
16010TIP3   OH269520   3.063   5.500  13.313  0.1648  0.1437  0.1046
16010TIP3    H169521   3.138   5.533  13.363  0.4793  1.5865 -1.2649
16010TIP3    H269522   3.102   5.465  13.233 -0.7122  2.4102 -1.3821
16011TIP3   OH269523   1.725   6.650  15.427 -0.1893 -0.3631 -0.4435
16011TIP3    H169524   1.774   6.693  15.497 -1.4333  0.5249 -0.1036
16011TIP3    H269525   1.783   6.579  15.399  2.0888  1.6697 -1.2474
16012TIP3   OH269526   5.188   1.623  15.204  0.5067  0.5388 -0.6171
16012TIP3    H169527   5.114   1.675  15.236  0.1552  1.5041 -2.7841
16012TIP3    H269528   5.192   1.643  15.110  1.1419 -2.4338 -1.3101
16013TIP3   OH269529   3.399   6.294   1.136 -0.3782 -0.2931  0.6126
16013TIP3    H169530   3.410   6.260   1.225  1.7065 -0.2113  0.4313
16013TIP3    H269531   3.460   6.242   1.083 -0.2433  0.9005 -0.4399
16014TIP3   OH269532   1.645   2.648   2.828 -0.8554 -0.1898 -0.1739
16014TIP3    H169533   1.608   2.621   2.744  0.1525  0.9175 -1.0142
16014TIP3    H269534   1.730   2.685   2.805  0.4519 -1.9251  1.5874
16015TIP3   OH269535   3.665   5.294   2.917  0.1590 -0.0414  0.0053
16015TIP3    H169536   3.716   5.374   2.930 -0.3048  0.2120  0.2972
16015TIP3    H269537   3.581   5.325   2.883 -0.2835 -0.3403  0.8021
16016TIP3   OH269538   6.131   6.499   0.203  0.0678  0.3780  0.0831
16016TIP3    H169539   6.077   6.441   0.256 -0.1214 -0.2690 -0.7895
16016TIP3    H269540   6.188   6.544   0.266 -0.2549 -0.2461  0.8339
16017TIP3   OH269541   4.416   6.530   4.000  0.5597  0.2158  0.4299
16017TIP3    H169542   4.486   6.595   3.998  0.2713  0.5222  0.1282
16017TIP3    H269543   4.449   6.461   4.057  0.6540  0.8802  1.2050
16018TIP3   OH269544   1.059   4.684  15.848  0.2960 -0.5316 -0.1250
16018TIP3    H169545   0.983   4.734  15.819 -0.1996 -1.0352  0.2780
16018TIP3    H269546   1.127   4.704  15.784  0.6184  1.9168  0.8664
16019TIP3   OH269547   6.193   3.874   4.221 -0.0869 -0.6143  0.3753
16019TIP3    H169548   6.217   3.954   4.269  0.0986 -0.2852 -0.2595
16019TIP3    H269549   6.231   3.803   4.274  2.2446 -0.1271 -0.5118
16020TIP3   OH269550   4.021   5.815  15.765  0.0987 -0.2412  0.1849
16020TIP3    H169551   3.965   5.861  15.701 -0.1223 -0.5859  0.1275
16020TIP3    H269552   4.001   5.723  15.752  0.7436 -0.3750  0.1100
16021TIP3   OH269553   1.795   0.578   5.756  0.1759  0.3049  0.6831
16021TIP3    H169554   1.818   0.505   5.698  1.3060  0.9847  0.2573
16021TIP3    H269555   1.866   0.580   5.820 -0.3632  0.4258  1.2866
16022TIP3   OH269556   2.641   4.966  14.520  0.4698  0.1479 -0.2814
16022TIP3    H169557   2.569   5.029  14.519 -0.0594 -0.4208  0.7944
16022TIP3    H269558   2.687   4.982  14.602 -1.3821 -2.6788  1.5094
16023TIP3   OH269559   5.948   6.457  13.619  0.1446 -0.1661 -0.0233
16023TIP3    H169560   5.996   6.520  13.671 -0.1445  0.1845 -0.1785
16023TIP3    H269561   6.015   6.409  13.571  0.3144  0.7086 -0.6776
16024TIP3   OH269562   4.276   1.436   4.292 -0.8323  0.0708  0.2033
16024TIP3    H169563   4.368   1.437   4.265 -1.3701  0.0730 -1.8185
16024TIP3    H269564   4.278   1.445   4.387  1.2744 -0.5390  0.2553
16025TIP3   OH269565   1.988   1.931   6.431 -0.1962  0.1422  0.0696
16025TIP3    H169566   2.019   2.007   6.480 -1.4057  0.8341 -0.1962
16025TIP3    H269567   1.991   1.958   6.340 -0.2320 -0.2848 -0.0626
16026TIP3   OH269568   1.577   3.982   1.177 -0.3782 -0.0024 -0.5085
16026TIP3    H169569   1.509   3.999   1.243 -0.3403  2.6046 -1.0179
16026TIP3    H269570   1.602   3.891   1.191 -3.3681 -0.8124  0.2600
16027TIP3   OH269571   3.068   6.824   4.208 -0.1556  0.2830  0.0677
16027TIP3    H169572   2.987   6.869   4.183  0.2870  1.3015  0.4235
16027TIP3    H269573   3.053   6.733   4.181 -1.6742  0.2996  0.7098
16028TIP3   OH269574   2.775   1.129   2.471 -0.2433 -0.2685 -0.6504
16028TIP3    H169575   2.789   1.057   2.533  0.3844  0.0844 -0.3668
16028TIP3    H269576   2.771   1.087   2.386  1.1310 -0.5746 -0.5973
16029TIP3   OH269577   4.536   4.262   5.554 -0.3348 -0.1816  0.2082
16029TIP3    H169578   4.502   4.189   5.502 -2.1366  1.2137 -0.6576
16029TIP3    H269579   4.581   4.318   5.490  1.1928 -0.5661  0.8942
16030TIP3   OH269580   4.777   0.072  14.219 -0.2078 -0.1720 -0.1428
16030TIP3    H169581   4.804  -0.011  14.179 -1.2004 -0.0935 -1.0152
16030TIP3    H269582   4.812   0.139  14.160 -0.7066 -0.0184 -0.2656
16031TIP3   OH269583   0.314   4.920   1.805  0.7396  0.1900  0.7376
16031TIP3    H169584   0.233   4.888   1.845  0.1646 -0.5762 -0.9479
16031TIP3    H269585   0.358   4.968   1.875 -0.9843  0.2977  1.7968
16032TIP3   OH269586   5.233   1.731   3.209 -0.2486  0.0857 -0.2389
16032TIP3    H169587   5.291   1.728   3.285  1.3882  0.2847 -1.4237
16032TIP3    H269588   5.278   1.677   3.143 -0.7271  1.3642 -1.6557
16033TIP3   OH269589   2.412   5.300   5.111  0.7234 -0.3808  0.0172
16033TIP3    H169590   2.364   5.368   5.063 -0.1834 -1.7782 -1.1333
16033TIP3    H269591   2.495   5.342   5.134  0.6768  0.7666 -1.6853
16034TIP3   OH269592   0.201   0.225  14.020  0.4022 -0.3617 -0.6087
16034TIP3    H169593   0.158   0.181  14.093 -0.2120  2.7220  1.0817
16034TIP3    H269594   0.149   0.200  13.944 -1.1122 -0.9598  0.5552
16035TIP3   OH269595   0.549   1.005  14.380 -0.6746  0.2243 -0.0698
16035TIP3    H169596   0.483   1.066  14.413 -0.9620 -0.8586  1.4389
16035TIP3    H269597   0.590   0.969  14.458  0.4616 -0.4869 -0.9600
16036TIP3   OH269598   6.636   0.614  12.166 -0.1013  0.1156 -0.4450
16036TIP3    H169599   6.612   0.578  12.081  1.2132 -1.9159 -0.0118
16036TIP3    H269600   6.710   0.560  12.196  0.1881  1.4682  1.4996
16037TIP3   OH269601   4.274   1.220  16.135  0.0486  0.3100 -0.0646
16037TIP3    H169602   4.249   1.268  16.056 -0.2694  0.5310  0.1692
16037TIP3    H269603   4.343   1.274  16.174 -0.6869  0.8599  0.4860
16038TIP3   OH269604   4.637   4.762   1.678 -0.0438 -0.0521  0.0485
16038TIP3    H169605   4.622   4.842   1.728 -0.8546  0.9376 -1.6798
16038TIP3    H269606   4.680   4.792   1.597  2.0420 -1.6770  0.4613
16039TIP3   OH269607   1.117   4.959   4.375 -0.4615  0.0707 -0.4640
16039TIP3    H169608   1.088   5.047   4.401 -2.2911 -0.0963 -1.7656
16039TIP3    H269609   1.078   4.901   4.440  0.3077  0.1461  0.0847
16040TIP3   OH269610   3.758   4.720   3.564  0.5529  0.1746  0.0001
16040TIP3    H169611   3.785   4.691   3.476  2.8108  0.1585  0.6386
16040TIP3    H269612   3.690   4.658   3.590 -0.4172  0.3893 -1.8588
16041TIP3   OH269613   6.213   0.857  11.738 -0.0654 -0.2847  0.4141
16041TIP3    H169614   6.210   0.943  11.695 -0.3089 -0.4148  0.1657
16041TIP3    H269615   6.125   0.847  11.776  0.3487  0.1223  1.5312
16042TIP3   OH269616   6.558   2.111   6.009  0.1697  0.7374  0.1274
16042TIP3    H169617   6.555   2.041   5.944 -0.3059 -0.2833  1.2190
16042TIP3    H269618   6.647   2.146   6.002  0.6027 -0.3544 -0.0500
16043TIP3   OH269619   4.842   3.019  12.778  0.6251  0.2823 -0.5403
16043TIP3    H169620   4.778   3.084  12.807  0.5328 -0.2211  0.4507
16043TIP3    H269621   4.872   2.978  12.859  0.6235 -0.9628 -1.1482
16044TIP3   OH269622   3.598   6.410  12.913  0.1304  0.0726  0.0968
16044TIP3    H169623   3.603   6.503  12.938 -0.6282 -0.3178  1.8486
16044TIP3    H269624   3.538   6.372  12.976  0.9187 -1.7614 -0.2135
16045TIP3   OH269625   5.157   2.714  16.038 -0.7289  0.0838  0.4524
16045TIP3    H169626   5.235   2.665  16.065 -1.6274 -0.4783  2.1407
16045TIP3    H269627   5.107   2.652  15.986 -1.2199 -0.3781  1.4574
16046TIP3   OH269628   4.010   4.037  12.050 -0.7694  0.5752 -0.2306
16046TIP3    H169629   3.973   3.984  12.122 -0.2670 -0.4767 -0.7160
16046TIP3    H269630   3.999   3.983  11.972 -0.4199  1.2841 -0.7863
16047TIP3   OH269631   5.608   5.489   5.225  0.1149 -0.5260  0.0357
16047TIP3    H169632   5.662   5.432   5.279 -0.8198 -0.2458  1.3023
16047TIP3    H269633   5.537   5.518   5.283 -1.1934 -0.5899 -1.4724
16048TIP3   OH269634   1.492   4.673   3.303  0.2403  0.4456  0.2034
16048TIP3    H169635   1.478   4.690   3.396  0.5747  3.1601 -0.1729
16048TIP3    H269636   1.584   4.697   3.288  1.1771 -2.9255 -0.2899
16049TIP3   OH269637   5.976   3.937   3.506 -0.0057  0.1763 -0.0071
16049TIP3    H169638   5.937   3.873   3.566 -0.0118 -0.3245 -0.5295
16049TIP3    H269639   6.067   3.909   3.496  0.5513  1.4329  1.3231
16050TIP3   OH269640   4.190   2.314  17.168 -0.5142  0.3019  0.0264
16050TIP3    H169641   4.238   2.234  17.147  1.0592  1.0112  0.7390
16050TIP3    H269642   4.203   2.325  17.263 -3.0703 -0.0651  0.4943
16051TIP3   OH269643   6.484   1.788  15.882  0.2556  0.6648 -0.1984
16051TIP3    H169644   6.417   1.834  15.832 -0.5058 -0.1580  0.0472
16051TIP3    H269645   6.552   1.768  15.818  0.9495  2.7210 -0.1828
16052TIP3   OH269646   0.594   6.219   0.774 -0.2525  0.1694 -0.2328
16052TIP3    H169647   0.638   6.296   0.738 -0.4371  0.0339 -0.7653
16052TIP3    H269648   0.654   6.184   0.840  0.6964 -0.3334 -1.3297
16053TIP3   OH269649   2.714   0.432  17.056  0.2181 -0.5255  0.1149
16053TIP3    H169650   2.730   0.339  17.037  0.3815 -0.1650 -1.6950
16053TIP3    H269651   2.794   0.476  17.028 -1.2967  0.5726 -2.9764
16054TIP3   OH269652   2.244   4.314   3.787  0.5612 -0.0390 -0.5454
16054TIP3    H169653   2.292   4.364   3.853  0.1442 -0.8859  0.4329
16054TIP3    H269654   2.299   4.238   3.770  0.0329 -0.5181 -0.1432
16055TIP3   OH269655   0.103   0.071  15.292  0.0586  0.1567 -0.1971
16055TIP3    H169656   0.016   0.107  15.306  1.0145  2.5936 -0.1003
16055TIP3    H269657   0.108   0.056  15.198 -0.3444  0.3233 -0.2470
16056TIP3   OH269658   6.776   2.986   6.007  0.3218  0.0942  0.1423
16056TIP3    H169659   6.742   2.900   6.033 -1.1958  0.9029  1.0095
16056TIP3    H269660   6.702   3.028   5.963  1.9766 -0.1809 -3.2542
16057TIP3   OH269661   5.508   6.730  12.756 -0.4734 -0.0333  0.6069
16057TIP3    H169662   5.439   6.793  12.778  0.5447  0.6104  2.1590
16057TIP3    H269663   5.578   6.749  12.818  0.7488 -1.2728 -0.3307
16058TIP3   OH269664   2.918   5.122   3.230  0.6778  0.5130  0.2460
16058TIP3    H169665   2.931   5.217   3.234  0.0068  0.7236 -1.5492
16058TIP3    H269666   2.831   5.109   3.267  1.0803  0.4803  1.2199
16059TIP3   OH269667   3.477   6.635  16.580  0.4569 -0.6793  0.3202
16059TIP3    H169668   3.451   6.727  16.583  4.1542  0.5257  0.9433
16059TIP3    H269669   3.414   6.594  16.521 -0.5082  2.5499 -1.1405
16060TIP3   OH269670   1.947   6.796  12.756  0.1196  0.0729 -0.4051
16060TIP3    H169671   2.041   6.791  12.738  0.4928  1.0135  1.1059
16060TIP3    H269672   1.915   6.863  12.696  0.1079 -1.2276 -1.9178
16061TIP3   OH269673   3.408   2.245  15.961  0.0096 -0.4601  0.5778
16061TIP3    H169674   3.476   2.204  16.015  0.2169 -0.2000  0.5197
16061TIP3    H269675   3.326   2.225  16.006  0.1720 -0.3389  0.9324
16062TIP3   OH269676   4.875   2.623  13.780 -0.2423  0.4998  0.4176
16062TIP3    H169677   4.791   2.667  13.769 -0.2866  0.6034  1.1433
16062TIP3    H269678   4.852   2.529  13.780  0.0041  0.3614 -2.5083
16063TIP3   OH269679   2.181   2.201  16.073 -0.5694  0.2432  0.5042
16063TIP3    H169680   2.169   2.108  16.093  1.6556 -0.1063  0.4728
16063TIP3    H269681   2.208   2.240  16.156  2.6283 -0.0270 -0.2645
16064TIP3   OH269682   2.545   3.324  14.703  0.0753  0.3012  0.1013
16064TIP3    H169683   2.578   3.397  14.755  0.1808  1.1328 -1.0811
16064TIP3    H269684   2.479   3.364  14.646 -0.9059 -0.8084  0.4450
16065TIP3   OH269685   6.661   0.272  16.745 -0.1682  0.2326 -0.1845
16065TIP3    H169686   6.688   0.181  16.759 -0.5220  0.1145 -0.2710
16065TIP3    H269687   6.622   0.273  16.658 -0.2694  0.4450 -0.1372
16066TIP3   OH269688   1.607   5.041   0.450 -0.1483 -0.0065  0.1960
16066TIP3    H169689   1.622   4.946   0.452 -0.3153 -0.1162 -1.8257
16066TIP3    H269690   1.689   5.077   0.416  0.6250  0.8133  2.7143
16067TIP3   OH269691   1.801   0.834   0.715 -0.2857  0.0513  0.4737
16067TIP3    H169692   1.859   0.871   0.782  1.6043 -3.0604  0.7445
16067TIP3    H269693   1.849   0.847   0.632  0.2999 -1.4611  0.5480
16068TIP3   OH269694   0.038   0.808  13.060 -0.7834  0.0027 -0.0110
16068TIP3    H169695   0.005   0.718  13.067  0.8598 -0.6078  0.3561
16068TIP3    H269696   0.123   0.805  13.103 -1.7050  2.3152  2.2904
16069TIP3   OH269697   0.252   6.523  11.445 -0.0006 -0.0352 -0.4135
16069TIP3    H169698   0.295   6.606  11.464  0.4856 -0.4411  0.3186
16069TIP3    H269699   0.208   6.500  11.527 -0.9668 -0.0169 -0.9141
16070TIP3   OH269700   0.906   3.221  13.146 -0.2587  0.1219  0.0135
16070TIP3    H169701   0.972   3.290  13.141  0.6660 -0.7783 -0.5459
16070TIP3    H269702   0.822   3.268  13.134  0.3455  1.1419 -0.3969
16071TIP3   OH269703   2.744   1.210  14.477 -0.1461  0.3209  0.3986
16071TIP3    H169704   2.668   1.234  14.424  0.4237  1.4689  0.0615
16071TIP3    H269705   2.819   1.247  14.429  0.6063 -0.6216  0.8226
16072TIP3   OH269706   0.545   2.889  12.610 -0.1047 -0.1504 -0.4259
16072TIP3    H169707   0.516   2.869  12.522  3.3249 -1.6722 -1.3935
16072TIP3    H269708   0.570   2.982  12.607 -2.8380  0.6863 -0.0462
16073TIP3   OH269709   0.633   4.464  15.080  0.1845  0.4438 -0.8050
16073TIP3    H169710   0.710   4.478  15.135 -0.5469  1.5392 -0.0178
16073TIP3    H269711   0.561   4.507  15.126 -1.6377 -3.1258  0.0746
16074TIP3   OH269712   2.080   2.505   5.398  0.8470 -0.1399 -0.5065
16074TIP3    H169713   2.076   2.502   5.302  0.1297 -2.2499 -0.4515
16074TIP3    H269714   2.108   2.595   5.417  1.1182  0.3089 -2.6806
16075TIP3   OH269715   0.861   5.658  13.130  0.0422  0.1008 -0.0428
16075TIP3    H169716   0.815   5.728  13.177  1.6817  1.0349  0.2529
16075TIP3    H269717   0.832   5.578  13.173  0.2368  0.8127  1.4768
16076TIP3   OH269718   3.495   4.356   0.151  0.1400 -0.6521  0.9836
16076TIP3    H169719   3.525   4.440   0.116  0.5414 -0.1185  2.5200
16076TIP3    H269720   3.507   4.364   0.245 -1.5093 -1.7755  1.3244
16077TIP3   OH269721   1.974   0.491  12.675 -0.0631  0.2179 -0.2148
16077TIP3    H169722   1.954   0.510  12.767 -0.7413 -0.8075 -0.1382
16077TIP3    H269723   1.898   0.442  12.643  0.6872 -0.4770 -0.9797
16078TIP3   OH269724   4.562   0.059   5.776 -0.4145 -0.2027  1.1084
16078TIP3    H169725   4.591   0.115   5.704  2.4229 -0.6700  1.7540
16078TIP3    H269726   4.480   0.022   5.746  0.4623 -0.0670 -1.7513
16079TIP3   OH269727   4.112   2.204   5.287  0.2078  0.3113  1.0124
16079TIP3    H169728   4.083   2.147   5.217  0.9104 -0.2043  1.1371
16079TIP3    H269729   4.067   2.287   5.271  0.1825  0.1243  0.0959
16080TIP3   OH269730   6.816   4.034  13.923  0.0471 -0.3498  0.0775
16080TIP3    H169731   6.853   4.115  13.887  0.5154 -0.0762  1.1224
16080TIP3    H269732   6.753   4.064  13.989 -0.3369 -0.8306 -0.0700
16081TIP3   OH269733   1.129   6.606  13.846 -0.5118  0.2367  0.0213
16081TIP3    H169734   1.166   6.684  13.888 -0.9001  0.3371  0.1828
16081TIP3    H269735   1.069   6.640  13.780 -0.1436  0.0745 -0.3936
16082TIP3   OH269736   1.747   4.426  12.024  0.1163 -0.4341  0.2194
16082TIP3    H169737   1.722   4.333  12.019 -1.9496  0.0947 -0.4923
16082TIP3    H269738   1.751   4.454  11.933  0.9369  0.1452  0.4247
16083TIP3   OH269739   2.092   5.952  14.096  0.2271  0.0057  0.1423
16083TIP3    H169740   2.156   6.004  14.047 -0.0311 -0.4237 -0.6733
16083TIP3    H269741   2.027   5.927  14.031  0.3304 -1.3120  0.5171
16084TIP3   OH269742   3.355   2.843  16.800 -0.3056 -0.0812  0.0570
16084TIP3    H169743   3.340   2.779  16.730 -0.8666  2.3070 -2.1714
16084TIP3    H269744   3.272   2.890  16.808  1.1891  3.1691 -1.5372
16085TIP3   OH269745   3.533   6.713   1.093  0.4227 -0.1458  0.0568
16085TIP3    H169746   3.509   6.747   1.179  0.7182  1.2295 -0.3761
16085TIP3    H269747   3.614   6.665   1.107  0.5378  0.1818  0.5289
16086TIP3   OH269748   4.743   5.793   2.757 -0.2921 -0.2768  0.6016
16086TIP3    H169749   4.652   5.821   2.758 -0.1278  0.6401 -1.8598
16086TIP3    H269750   4.785   5.852   2.694  1.4045 -2.3206 -0.2955
16087TIP3   OH269751   0.433   4.998   4.774 -0.0516  0.3307 -0.0506
16087TIP3    H169752   0.341   4.976   4.787 -0.1771  0.2056 -1.0648
16087TIP3    H269753   0.434   5.054   4.696  0.5657  1.6900  0.8919
16088TIP3   OH269754   1.851   1.509   3.798  0.1504  0.0513 -0.4529
16088TIP3    H169755   1.757   1.496   3.784 -0.0351  0.1751  0.6110
16088TIP3    H269756   1.886   1.421   3.812 -0.0343  0.1059  0.4192
16089TIP3   OH269757   5.423   4.945   5.486 -0.0760  0.0784  0.5043
16089TIP3    H169758   5.405   4.851   5.477 -0.8366  0.2495  0.1240
16089TIP3    H269759   5.498   4.961   5.429  0.9269 -0.5380  1.6050
16090TIP3   OH269760   6.506   5.948   0.423 -0.0644  0.2688  0.6310
16090TIP3    H169761   6.444   5.987   0.362  1.1886  0.1979 -0.7449
16090TIP3    H269762   6.563   6.020   0.449 -1.1732  0.5234  2.5585
16091TIP3   OH269763   6.647   4.094   3.545 -0.7865 -0.1597 -0.4393
16091TIP3    H169764   6.572   4.129   3.593  0.0263 -0.4064  1.0944
16091TIP3    H269765   6.665   4.010   3.588  0.7170  0.1768 -0.3751
16092TIP3   OH269766   6.798   5.554  14.255 -0.3171 -0.1973  0.2690
16092TIP3    H169767   6.711   5.592  14.270  0.7001  1.7131  1.6597
16092TIP3    H269768   6.839   5.554  14.341  0.4946 -2.7208 -0.0275
16093TIP3   OH269769   1.901   6.278  15.721 -0.3977 -0.7359 -0.2086
16093TIP3    H169770   1.960   6.353  15.720 -1.0255 -0.2138  0.7625
16093TIP3    H269771   1.959   6.202  15.730  0.2428 -0.3947 -1.2323
16094TIP3   OH269772   2.332   6.697  10.706  0.0411 -0.3126  0.6122
16094TIP3    H169773   2.339   6.602  10.718 -0.3510 -0.3051  0.9120
16094TIP3    H269774   2.272   6.725  10.774 -0.7166 -0.0019 -0.1748
16095TIP3   OH269775   3.064   0.819   2.974  0.1644 -0.4446  0.5177
16095TIP3    H169776   2.989   0.772   2.940 -0.8870  0.0425  2.0451
16095TIP3    H269777   3.037   0.911   2.975  1.0070 -0.1823  0.5153
16096TIP3   OH269778   6.583   0.518  15.903  0.1794  0.3132  0.7856
16096TIP3    H169779   6.663   0.512  15.850  0.7484 -1.1920  1.7811
16096TIP3    H269780   6.516   0.476  15.849  0.4113  0.1276  0.6410
16097TIP3   OH269781   2.444   6.337   3.944 -0.0165  0.1267  0.0621
16097TIP3    H169782   2.371   6.332   4.005 -0.4669  1.7175 -0.3035
16097TIP3    H269783   2.468   6.246   3.928 -0.8691 -0.3624  1.4207
16098TIP3   OH269784   6.003   5.588   1.287  0.0674  0.6819  0.1744
16098TIP3    H169785   6.074   5.594   1.351  0.6692 -2.3794 -0.0891
16098TIP3    H269786   5.925   5.617   1.334  1.1869  2.8078  0.8666
16099TIP3   OH269787   2.765   2.657   1.993 -0.1065 -0.4820 -0.1102
16099TIP3    H169788   2.753   2.588   1.927  0.9570 -0.5696 -0.2344
16099TIP3    H269789   2.815   2.615   2.063 -1.4390 -0.4603  0.8966
16100TIP3   OH269790   1.616   2.306   3.404  0.1590  0.6539  0.4602
16100TIP3    H169791   1.585   2.368   3.470  0.5842 -1.1768  2.4730
16100TIP3    H269792   1.694   2.266   3.443 -0.0783 -1.1157 -0.7782
16101TIP3   OH269793   2.434   0.366  12.651 -0.1220  0.2444 -0.4169
16101TIP3    H169794   2.466   0.418  12.725  0.1423 -0.6520  0.1181
16101TIP3    H269795   2.470   0.410  12.574  2.7550 -0.8477  0.1451
16102TIP3   OH269796   0.657   6.826  11.699  0.1084  0.0999 -0.2250
16102TIP3    H169797   0.603   6.867  11.767  0.2662 -0.9455  0.5432
16102TIP3    H269798   0.602   6.830  11.620  0.1915  1.9522 -0.2493
16103TIP3   OH269799   6.163   6.131   6.089 -0.3341 -0.0403  0.4193
16103TIP3    H169800   6.250   6.123   6.128  0.9570 -1.3774 -2.3812
16103TIP3    H269801   6.179   6.122   5.995 -3.2216  2.5129 -0.4519
16104TIP3   OH269802   5.614   5.674  16.923  0.6953 -0.1327  0.1556
16104TIP3    H169803   5.613   5.769  16.915  2.5781 -0.1034 -0.0301
16104TIP3    H269804   5.700   5.648  16.891 -0.7653 -2.1497 -2.5390
16105TIP3   OH269805   1.443   0.027  14.868  0.0742 -0.6415 -0.1006
16105TIP3    H169806   1.491   0.052  14.947  0.3615 -1.6030  0.0465
16105TIP3    H269807   1.483   0.080  14.798  1.0904 -1.1217  0.0928
16106TIP3   OH269808   2.082   0.806  13.797  0.0245  0.5940  0.9601
16106TIP3    H169809   2.023   0.735  13.821  0.6655 -0.5008 -0.5581
16106TIP3    H269810   2.135   0.770  13.726  0.3811  2.5900  0.1545
16107TIP3   OH269811   6.154   4.529  12.990  0.5042  0.4164 -0.3287
16107TIP3    H169812   6.083   4.476  13.025  1.4208 -1.2858 -0.9481
16107TIP3    H269813   6.135   4.537  12.897  1.8248 -1.2806 -0.7827
16108TIP3   OH269814   6.817   1.851   2.494 -0.3251 -0.4595  0.0088
16108TIP3    H169815   6.815   1.759   2.518 -2.3690 -0.5714 -0.3616
16108TIP3    H269816   6.809   1.851   2.398 -0.7955  0.1015  0.0401
16109TIP3   OH269817   0.230   2.228   0.355 -0.5310  0.0707 -0.0582
16109TIP3    H169818   0.240   2.294   0.423 -0.1534 -0.6803  0.6370
16109TIP3    H269819   0.137   2.206   0.355 -0.6660  0.6197 -0.3237
16110TIP3   OH269820   4.146   5.872   4.537 -0.2749  0.3343  0.1230
16110TIP3    H169821   4.121   5.951   4.586 -1.2651  0.6364 -0.8337
16110TIP3    H269822   4.124   5.800   4.596  0.7560  0.7606  1.0585
16111TIP3   OH269823   1.586   2.230  14.442  0.1585 -0.7746 -0.2043
16111TIP3    H169824   1.529   2.304  14.424 -0.4313 -0.8672  1.1178
16111TIP3    H269825   1.527   2.155  14.446  0.8758 -1.5604 -2.6261
16112TIP3   OH269826   6.544   0.054  15.584 -0.4687 -0.2137  0.2770
16112TIP3    H169827   6.605   0.122  15.556  0.3627 -1.8363 -2.1523
16112TIP3    H269828   6.558   0.047  15.679  3.5958 -0.8331 -0.1977
16113TIP3   OH269829   2.662   3.920   2.442  0.3662 -0.8466  0.8719
16113TIP3    H169830   2.720   3.924   2.518  0.9931 -2.1238  0.4916
16113TIP3    H269831   2.654   3.826   2.423 -0.0453 -0.5667 -0.4255
16114TIP3   OH269832   4.667   3.101   2.946 -0.4390 -0.7684  0.0061
16114TIP3    H169833   4.590   3.157   2.954 -0.0692 -0.0885 -1.0128
16114TIP3    H269834   4.740   3.156   2.975 -0.2860 -1.2862  0.6202
16115TIP3   OH269835   2.184   5.545  12.538  0.4171 -0.1299  0.2098
16115TIP3    H169836   2.194   5.534  12.632  0.4113 -0.9394  0.1222
16115TIP3    H269837   2.166   5.639  12.526  2.7298  0.4603  0.8077
16116TIP3   OH269838   4.190   0.058  12.366  0.0039  0.1876 -0.0114
16116TIP3    H169839   4.193  -0.038  12.371  2.2789  0.1798 -0.3147
16116TIP3    H269840   4.273   0.086  12.404  0.0654  1.9668 -1.3412
16117TIP3   OH269841   1.097   4.643  12.598 -0.7076 -0.4722 -0.0763
16117TIP3    H169842   1.087   4.563  12.649  1.3653  0.4934  2.0602
16117TIP3    H269843   1.081   4.714  12.661  2.9044  0.7936 -0.3070
16118TIP3   OH269844   3.150   1.760   3.713  0.2310  0.1047 -0.1535
16118TIP3    H169845   3.154   1.822   3.786  1.8517 -2.6785  2.3106
16118TIP3    H269846   3.134   1.675   3.754  0.8139 -1.5502 -3.0902
16119TIP3   OH269847   5.059   3.681   5.363 -0.0864  0.2293 -0.3668
16119TIP3    H169848   5.048   3.739   5.438  0.2500  2.4450 -1.9321
16119TIP3    H269849   5.145   3.641   5.377 -0.2653  0.1686  0.6779
16120TIP3   OH269850   3.530   2.791   2.986 -0.0152  0.0739  0.4093
16120TIP3    H169851   3.498   2.863   2.931 -0.9760  0.2072  1.1017
16120TIP3    H269852   3.456   2.730   2.991  0.7970 -1.0053 -0.1950
16121TIP3   OH269853   4.813   5.135   2.405 -0.4939 -0.0562 -0.0005
16121TIP3    H169854   4.842   5.060   2.456 -2.0371 -1.8868 -1.6362
16121TIP3    H269855   4.893   5.172   2.368  0.2641 -1.1201  0.5503
16122TIP3   OH269856   3.965   0.869  13.900  0.2817 -0.2759  0.1741
16122TIP3    H169857   3.877   0.840  13.924  0.7185  0.4644  3.0478
16122TIP3    H269858   3.954   0.959  13.870  0.0335 -0.2509  0.3416
16123TIP3   OH269859   1.600   0.049   5.606 -0.2889  0.1412 -0.2155
16123TIP3    H169860   1.539   0.108   5.650  0.7372  1.5879 -0.6688
16123TIP3    H269861   1.587   0.067   5.513  1.2388  0.9306 -0.3000
16124TIP3   OH269862   4.847   3.727  12.176  0.0557  0.3965 -0.0682
16124TIP3    H169863   4.890   3.808  12.202 -1.0947  0.6115  1.3058
16124TIP3    H269864   4.896   3.659  12.223 -0.6473  0.5821  0.9808
16125TIP3   OH269865   5.586   2.669  17.140 -0.1352  0.1870 -0.5432
16125TIP3    H169866   5.621   2.660  17.228 -0.8384 -0.0552 -0.2788
16125TIP3    H269867   5.639   2.738  17.100  0.7829 -0.3365 -0.2448
16126TIP3   OH269868   5.451   1.573  15.666  0.3085 -0.6182  0.1696
16126TIP3    H169869   5.418   1.577  15.756  0.0601  0.5684  0.0456
16126TIP3    H269870   5.385   1.619  15.614  1.0743 -0.1344 -0.4099
16127TIP3   OH269871   0.939   4.128   4.359  0.2470  0.5179 -0.1424
16127TIP3    H169872   0.849   4.109   4.330 -0.2916  1.7855  0.5868
16127TIP3    H269873   0.932   4.214   4.401  1.8697  0.7683 -0.3309
16128TIP3   OH269874   1.769   4.875  11.839 -0.7525  0.0987 -0.2394
16128TIP3    H169875   1.703   4.815  11.806  0.1098 -0.1083 -1.6467
16128TIP3    H269876   1.750   4.959  11.796  0.3052 -0.1445 -1.2419
16129TIP3   OH269877   1.118   0.407  15.007  0.2497  0.0524 -0.2275
16129TIP3    H169878   1.074   0.336  15.053  0.6085 -0.7093 -1.0305
16129TIP3    H269879   1.192   0.365  14.963  0.1547  0.8241 -1.1525
16130TIP3   OH269880   5.765   2.010   1.799  0.4401 -0.0069  0.0094
16130TIP3    H169881   5.855   2.007   1.831  1.1765  2.1121 -1.6288
16130TIP3    H269882   5.717   2.058   1.866  0.5494 -0.9632  0.7912
16131TIP3   OH269883   3.498   2.521  16.221  0.6966  0.7637  0.2814
16131TIP3    H169884   3.492   2.427  16.238 -1.3705  0.9775  1.1227
16131TIP3    H269885   3.430   2.538  16.156  1.0444  1.6780  0.1347
16132TIP3   OH269886   1.359   1.488   2.512 -0.3972 -0.3804  0.1131
16132TIP3    H169887   1.289   1.552   2.500 -0.4923 -0.5625 -0.3267
16132TIP3    H269888   1.361   1.439   2.430  1.3059  0.6388 -0.5088
16133TIP3   OH269889   1.893   6.671  12.100  0.0191  0.5985 -0.2143
16133TIP3    H169890   1.933   6.731  12.164 -0.1892  1.0351 -0.4840
16133TIP3    H269891   1.927   6.585  12.124 -0.7276  0.6263  1.0214
16134TIP3   OH269892   0.612   6.718  15.986 -0.1645  0.0697  0.1335
16134TIP3    H169893   0.530   6.676  15.961  0.0701 -0.1298 -0.3050
16134TIP3    H269894   0.612   6.714  16.082 -0.6025 -0.0454  0.1332
16135TIP3   OH269895   4.677   0.906   2.465 -0.6124  0.3406 -0.1819
16135TIP3    H169896   4.740   0.880   2.398  1.2375  1.4119  1.0525
16135TIP3    H269897   4.678   1.002   2.462  1.9440  0.6315  3.3207
16136TIP3   OH269898   3.287   1.527   2.689 -0.5086  0.5152 -0.0517
16136TIP3    H169899   3.252   1.449   2.647 -0.6367  0.2398  0.5583
16136TIP3    H269900   3.372   1.500   2.723 -1.2262  0.1760  1.5454
16137TIP3   OH269901   3.909   5.864   4.761 -0.3884  0.1838  0.5065
16137TIP3    H169902   3.932   5.957   4.761  1.8552 -0.3266 -0.2720
16137TIP3    H269903   3.849   5.854   4.687  1.0823  0.6530 -0.7988
16138TIP3   OH269904   6.579   3.631  12.877 -0.0335 -0.2284 -0.2022
16138TIP3    H169905   6.567   3.691  12.803 -0.6128  0.0460  0.1096
16138TIP3    H269906   6.493   3.589  12.888  0.1313 -0.4851  0.1317
16139TIP3   OH269907   4.489   6.316   4.181  0.2711  0.1167  0.6253
16139TIP3    H169908   4.581   6.289   4.183  0.4798  0.8408  0.7481
16139TIP3    H269909   4.441   6.234   4.165  1.0254 -0.0689 -0.8354
16140TIP3   OH269910   3.865   2.795   0.381 -0.0512 -0.4610 -0.9145
16140TIP3    H169911   3.787   2.845   0.354 -0.1453 -0.5116 -0.7359
16140TIP3    H269912   3.929   2.862   0.404 -0.6408 -0.4160  0.6681
16141TIP3   OH269913   3.213   6.068   1.606  0.0043 -0.2343  0.3924
16141TIP3    H169914   3.307   6.076   1.623 -0.0336 -1.1726  1.0915
16141TIP3    H269915   3.180   6.011   1.675 -0.5894 -2.2785 -1.4761
16142TIP3   OH269916   5.221   5.981  11.915 -0.3410  0.1790 -0.1982
16142TIP3    H169917   5.267   6.009  11.835  0.7122 -2.7361 -0.7257
16142TIP3    H269918   5.249   6.043  11.982 -0.3750  2.0413 -1.8214
16143TIP3   OH269919   3.850   6.551  13.465 -0.4440 -0.1715  0.4405
16143TIP3    H169920   3.894   6.636  13.458 -1.1353  0.1901  0.3865
16143TIP3    H269921   3.763   6.572  13.501 -1.9239 -0.4231 -2.6626
16144TIP3   OH269922   2.149   3.987  17.164  0.4352  0.3610  0.1859
16144TIP3    H169923   2.098   4.064  17.141 -1.4582 -0.6930  0.6471
16144TIP3    H269924   2.140   3.928  17.089  1.8612  0.5502 -0.1651
16145TIP3   OH269925   1.402   5.055  15.383  0.5135 -0.2017 -0.1084
16145TIP3    H169926   1.433   5.083  15.469 -0.2132 -2.8838  1.1566
16145TIP3    H269927   1.458   4.981  15.360  0.0695 -0.1390 -1.5130
16146TIP3   OH269928   6.754   3.949   4.903 -0.6381 -0.0558  0.5127
16146TIP3    H169929   6.794   4.032   4.929  1.5048 -1.4522  1.9156
16146TIP3    H269930   6.660   3.964   4.916 -0.3009  2.0340  1.0100
16147TIP3   OH269931   1.536   2.132  15.752  0.7174  0.7623  0.6967
16147TIP3    H169932   1.498   2.045  15.740  0.9755  0.6923  0.3523
16147TIP3    H269933   1.466   2.192  15.727  0.7212  0.6401  0.3832
16148TIP3   OH269934   1.818   4.459   5.382  0.2114 -0.4373 -0.6079
16148TIP3    H169935   1.873   4.395   5.429 -1.0659 -1.1747 -0.0693
16148TIP3    H269936   1.763   4.498   5.450  0.6115  0.8870 -1.0187
16149TIP3   OH269937   3.342   5.710  10.765 -0.5700  0.0541 -0.0724
16149TIP3    H169938   3.289   5.787  10.787 -0.7458  0.0423 -0.4482
16149TIP3    H269939   3.327   5.649  10.838  1.6762  1.3916  1.6453
16150TIP3   OH269940   0.130   6.025  15.673  0.8360 -0.7022  0.0935
16150TIP3    H169941   0.115   5.942  15.719 -1.1763  0.0447  0.8832
16150TIP3    H269942   0.200   6.068  15.723  1.9602 -1.9093 -0.3718
16151TIP3   OH269943   6.511   4.983   3.690 -0.2563  0.8279 -0.4182
16151TIP3    H169944   6.491   4.905   3.639 -0.3428 -0.4589  1.4651
16151TIP3    H269945   6.604   4.999   3.675  0.5816 -1.5922  1.5672
16152TIP3   OH269946   3.373   5.353  16.646 -0.4949  0.5357  0.8062
16152TIP3    H169947   3.347   5.287  16.581 -4.1217  2.7996 -0.3683
16152TIP3    H269948   3.377   5.305  16.728  0.6859 -1.7643 -0.4831
16153TIP3   OH269949   3.400   1.884  11.304 -0.2185  0.2600  0.1809
16153TIP3    H169950   3.324   1.901  11.249 -1.2573 -0.7078  1.2836
16153TIP3    H269951   3.370   1.821  11.369  1.6636 -0.5643  0.3239
16154TIP3   OH269952   2.582   2.332   1.850 -0.1058 -0.3813 -0.1683
16154TIP3    H169953   2.633   2.408   1.822 -1.4997  2.0469  3.1980
16154TIP3    H269954   2.645   2.261   1.856  1.7732  1.1363 -1.0750
16155TIP3   OH269955   2.638   1.150  15.327  0.8790 -0.5516  0.4336
16155TIP3    H169956   2.721   1.193  15.303  1.3298 -1.5540  0.1395
16155TIP3    H269957   2.596   1.211  15.388  0.7105  1.0925 -1.2275
16156TIP3   OH269958   4.719   0.689  16.027 -0.0227 -0.2021  0.2184
16156TIP3    H169959   4.755   0.601  16.041 -0.9203 -0.5939  0.1397
16156TIP3    H269960   4.624   0.676  16.028 -0.2229  0.2181 -2.9752
16157TIP3   OH269961   4.999   0.411   4.633  0.2374  0.2307 -0.2634
16157TIP3    H169962   4.997   0.316   4.623 -1.3569  0.2737 -0.6271
16157TIP3    H269963   4.959   0.445   4.553  0.9415  1.2274 -0.2188
16158TIP3   OH269964   3.311   3.954  14.144  0.5134  0.3241  0.0458
16158TIP3    H169965   3.223   3.922  14.126  0.3206 -0.4726  2.1065
16158TIP3    H269966   3.349   3.888  14.202  2.6782  0.3837 -1.1790
16159TIP3   OH269967   0.863   0.131  14.678  1.1491  0.2113  0.0504
16159TIP3    H169968   0.855   0.038  14.660 -3.0860  0.6355 -1.4192
16159TIP3    H269969   0.855   0.139  14.773 -0.9786 -0.8755  0.0147
16160TIP3   OH269970   2.412   6.411  16.410 -0.4714  0.2421  0.2923
16160TIP3    H169971   2.436   6.413  16.317  1.1706  0.2738  0.6783
16160TIP3    H269972   2.401   6.317  16.429 -1.3859  0.2672 -0.0451
16161TIP3   OH269973   2.820   5.275   3.573 -0.4943 -0.2708 -0.2265
16161TIP3    H169974   2.794   5.354   3.619 -1.7277 -1.2499  0.8355
16161TIP3    H269975   2.739   5.243   3.533  0.0452 -0.8251 -0.8996
16162TIP3   OH269976   5.601   3.076   3.699  0.3437  0.1163  0.8687
16162TIP3    H169977   5.576   2.987   3.673 -1.1487  0.8614 -0.3749
16162TIP3    H269978   5.693   3.083   3.673  0.3427 -0.9090  0.5487
16163TIP3   OH269979   3.326   1.616   5.479 -0.1032 -0.5109  0.0455
16163TIP3    H169980   3.296   1.542   5.531 -0.4418  0.4195  1.2253
16163TIP3    H269981   3.394   1.580   5.423 -2.0158 -2.2600 -1.2908
16164TIP3   OH269982   2.411   2.099   3.099  0.6450  0.5050 -0.3761
16164TIP3    H169983   2.339   2.056   3.052  1.4062 -0.6566 -0.5318
16164TIP3    H269984   2.369   2.144   3.172 -0.2010 -0.6400 -0.1266
16165TIP3   OH269985   2.360   0.115  12.649 -0.3671  0.2486 -0.4277
16165TIP3    H169986   2.377   0.103  12.555 -0.4741 -1.2745 -0.2725
16165TIP3    H269987   2.401   0.199  12.669  2.3207 -0.7574 -1.2201
16166TIP3   OH269988   0.345   3.226   5.899 -0.1683  0.1499 -0.0252
16166TIP3    H169989   0.277   3.278   5.856  0.2539  1.5124  0.8864
16166TIP3    H269990   0.300   3.144   5.922 -1.1121  0.4639 -0.6597
16167TIP3   OH269991   4.441   4.953  16.596  0.0294  0.8539  0.5037
16167TIP3    H169992   4.536   4.951  16.597  0.0822  2.2070 -0.2065
16167TIP3    H269993   4.415   4.954  16.688  0.7368  1.5415  0.6985
16168TIP3   OH269994   3.298   3.143   5.946 -0.3434 -0.1334 -0.3198
16168TIP3    H169995   3.321   3.053   5.971 -0.4269  0.3041  1.4270
16168TIP3    H269996   3.375   3.195   5.968 -0.5528  0.3328 -0.6774
16169TIP3   OH269997   6.322   5.887   3.519 -0.2802  0.7783 -0.1576
16169TIP3    H169998   6.235   5.878   3.479  0.3228  2.1440 -1.8638
16169TIP3    H269999   6.303   5.902   3.612 -1.7591 -1.3447 -0.0489
16170TIP3   OH270000   3.854   0.600  12.987  0.3133  0.0951  0.0184
16170TIP3    H170001   3.830   0.510  12.963 -1.1891  0.4107  0.2614
16170TIP3    H270002   3.783   0.630  13.043  0.1588  1.8591 -1.0356
16171TIP3   OH270003   5.059   3.706   6.107  0.4307  0.1806 -0.0291
16171TIP3    H170004   5.032   3.774   6.169  0.2822 -0.4713  0.6395
16171TIP3    H270005   5.035   3.624   6.150 -1.2309 -0.2722 -1.6675
16172TIP3   OH270006   1.039   5.237   5.106  0.2324  0.0175  0.1819
16172TIP3    H170007   0.979   5.247   5.032  0.6830  0.3309 -0.1468
16172TIP3    H270008   1.126   5.230   5.066  0.5302  0.6156  0.6924
16173TIP3   OH270009   5.759   3.203  14.370 -0.5835  0.0468  0.4930
16173TIP3    H170010   5.736   3.177  14.281  0.0323 -0.9149  0.6053
16173TIP3    H270011   5.764   3.299  14.367  0.5755 -0.0316 -0.7879
16174TIP3   OH270012   5.536   0.049   6.615 -0.4631 -0.2736 -0.3155
16174TIP3    H170013   5.520  -0.020   6.680 -0.5610 -0.2266 -0.2889
16174TIP3    H270014   5.565   0.002   6.537 -0.5928 -0.3494 -0.3185
16175TIP3   OH270015   6.159   6.088   2.894 -0.2443  0.0589 -0.1659
16175TIP3    H170016   6.250   6.116   2.890 -0.5871  1.0934 -3.5986
16175TIP3    H270017   6.111   6.166   2.922 -0.5722  1.4253 -4.0423
16176TIP3   OH270018   4.329   2.033   0.406 -0.3415 -0.1916  0.1597
16176TIP3    H170019   4.257   2.065   0.351 -0.0221 -1.4921 -1.0881
16176TIP3    H270020   4.289   1.965   0.460  0.1379 -1.8742 -1.4827
16177TIP3   OH270021   3.450   5.372   0.749 -0.3136 -0.1114  0.3059
16177TIP3    H170022   3.471   5.291   0.703 -0.6821  0.3548 -0.7229
16177TIP3    H270023   3.507   5.438   0.709 -1.1843  0.4537 -0.0168
16178TIP3   OH270024   1.404   5.548  14.385  0.4660  0.1917 -0.0718
16178TIP3    H170025   1.409   5.534  14.291  2.3527  2.0398 -0.3319
16178TIP3    H270026   1.331   5.610  14.396  1.8315  2.0012 -0.6845
16179TIP3   OH270027   3.282   2.904  12.412  0.2699 -0.8745  0.2579
16179TIP3    H170028   3.279   2.939  12.323  0.4068  0.9403  0.9264
16179TIP3    H270029   3.274   2.809  12.401 -0.2297 -0.6464 -1.6436
16180TIP3   OH270030   3.714   1.975   1.406 -0.4657 -0.1996 -0.2338
16180TIP3    H170031   3.754   2.031   1.340 -0.4565 -2.0042 -1.8438
16180TIP3    H270032   3.779   1.971   1.476  0.7763 -0.4633 -1.3571
16181TIP3   OH270033   0.631   5.644  11.054  0.2775 -0.1127  0.2179
16181TIP3    H170034   0.595   5.605  10.974 -0.3815  2.6869 -0.9489
16181TIP3    H270035   0.710   5.689  11.026  0.4807  0.2394  1.3042
16182TIP3   OH270036   5.369   4.040  17.039 -0.1053 -0.0993  0.4799
16182TIP3    H170037   5.405   4.104  16.978  0.3484 -1.2142 -0.4578
16182TIP3    H270038   5.446   3.991  17.070 -0.6095 -1.4244 -0.2863
16183TIP3   OH270039   1.016   6.791   0.701  0.1814  0.3395  0.5532
16183TIP3    H170040   1.074   6.739   0.645 -0.8816 -0.3071  0.0083
16183TIP3    H270041   1.066   6.807   0.781  0.9096 -0.6644  0.3092
16184TIP3   OH270042   3.131   4.773  13.664 -0.5815  0.3873 -0.4193
16184TIP3    H170043   3.141   4.849  13.606  0.4455  0.9916  0.5093
16184TIP3    H270044   3.042   4.741  13.647 -0.7567  1.3329 -1.3780
16185TIP3   OH270045   3.875   6.148   4.783  0.1208  0.2892 -0.5076
16185TIP3    H170046   3.869   6.204   4.706 -0.0628  0.6741 -0.2209
16185TIP3    H270047   3.967   6.151   4.808 -0.1714  2.0096  0.6059
16186TIP3   OH270048   1.665   3.996   1.867 -0.0916  0.1301  0.3002
16186TIP3    H170049   1.747   3.957   1.897  0.0680  0.9779  0.9848
16186TIP3    H270050   1.600   3.927   1.880  0.4675 -0.4903 -0.0941
16187TIP3   OH270051   3.395   0.652   2.016  0.0458  0.0664 -0.1542
16187TIP3    H170052   3.484   0.661   2.050  0.4207  0.7652 -1.2688
16187TIP3    H270053   3.339   0.675   2.089  0.7839 -0.2737  0.5352
16188TIP3   OH270054   5.795   4.900  11.983 -0.5818 -0.5119 -0.0733
16188TIP3    H170055   5.704   4.926  11.968 -0.5444  0.0584  0.6767
16188TIP3    H270056   5.788   4.810  12.015 -0.9831 -0.0518  1.2070
16189TIP3   OH270057   5.463   6.135   4.643  0.3820 -0.1222  0.0841
16189TIP3    H170058   5.550   6.100   4.662 -0.1526 -1.4705  0.1631
16189TIP3    H270059   5.415   6.061   4.607 -0.2594  1.0207 -1.5065
16190TIP3   OH270060   4.404   2.029   1.898  0.3630 -0.4554  0.2671
16190TIP3    H170061   4.334   2.088   1.869 -3.3892 -4.1007  1.0296
16190TIP3    H270062   4.428   2.061   1.985 -2.1913 -0.4580  1.0318
16191TIP3   OH270063   6.482   1.156  12.576  0.6435 -0.1626  0.1173
16191TIP3    H170064   6.420   1.227  12.594 -0.3346 -0.7973 -0.6247
16191TIP3    H270065   6.538   1.190  12.506 -0.7559 -0.6072 -1.2739
16192TIP3   OH270066   1.687   4.317  11.415  0.2456  0.7908 -0.2816
16192TIP3    H170067   1.666   4.265  11.493  0.2433 -0.4683 -1.1032
16192TIP3    H270068   1.693   4.407  11.448 -1.0048  0.4675  0.9525
16193TIP3   OH270069   5.736   6.666   5.338  0.0525 -0.2603  0.1346
16193TIP3    H170070   5.749   6.735   5.273  2.8469  0.3633  1.1817
16193TIP3    H270071   5.764   6.705   5.421 -0.2395 -2.0324  1.1309
16194TIP3   OH270072   4.864   0.858   3.722 -0.0281 -0.2648  0.0546
16194TIP3    H170073   4.894   0.836   3.811 -0.5608  0.0942  0.3294
16194TIP3    H270074   4.884   0.780   3.670 -0.3128 -0.7327  0.6367
16195TIP3   OH270075   2.712   4.828  16.090  0.4501 -0.5060  0.0322
16195TIP3    H170076   2.763   4.891  16.039  0.6009 -0.1974  0.5589
16195TIP3    H270077   2.622   4.838  16.058  0.7666 -1.3261 -1.1726
16196TIP3   OH270078   3.300   1.087   1.784 -0.4861 -0.7069  0.9979
16196TIP3    H170079   3.215   1.095   1.830 -0.1159 -1.8742  1.9384
16196TIP3    H270080   3.316   1.175   1.750 -2.2919 -0.5545  0.3909
16197TIP3   OH270081   5.776   4.185  16.968  0.1272  0.0337 -0.2727
16197TIP3    H170082   5.746   4.112  17.021 -0.0234  1.2463  1.3672
16197TIP3    H270083   5.793   4.146  16.881 -2.8926 -1.3540 -0.3474
16198TIP3   OH270084   3.378   5.481   5.765  0.3478 -0.3173  0.2918
16198TIP3    H170085   3.472   5.474   5.750  0.2534  0.6030 -0.9214
16198TIP3    H270086   3.361   5.423   5.839  1.6313 -1.6148 -0.3691
16199TIP3   OH270087   6.388   0.580   5.157 -0.1652 -0.3943 -0.3863
16199TIP3    H170088   6.373   0.493   5.194 -0.9281  1.1490  3.3925
16199TIP3    H270089   6.300   0.616   5.143  0.1256  0.2132 -0.7184
16200TIP3   OH270090   5.207   5.312   4.859  0.1561 -0.0796 -0.7800
16200TIP3    H170091   5.213   5.255   4.783  1.0853 -1.5710  0.3584
16200TIP3    H270092   5.292   5.306   4.901 -0.7682 -0.4473  1.1557
16201TIP3   OH270093   3.738   5.699   5.583  0.1154  0.2020 -0.4081
16201TIP3    H170094   3.821   5.652   5.582  0.0100  0.0164 -0.6225
16201TIP3    H270095   3.761   5.790   5.602  0.5149  0.4253 -1.8687
16202TIP3   OH270096   6.026   5.132   5.068  0.1755 -0.6550  0.7942
16202TIP3    H170097   6.107   5.181   5.079  0.0424 -0.6738  1.9181
16202TIP3    H270098   6.054   5.042   5.051  0.4741 -0.0360 -2.8293
16203TIP3   OH270099   2.031   3.438   3.518 -0.2044 -0.7262 -0.1308
16203TIP3    H170100   2.069   3.479   3.440  0.0764 -1.6254 -0.4729
16203TIP3    H270101   2.106   3.402   3.566 -0.2258  0.8552  1.2148
16204TIP3   OH270102   2.624   0.576   0.112  0.3176  0.4888 -0.8372
16204TIP3    H170103   2.536   0.606   0.090  0.4173 -0.3440 -2.5948
16204TIP3    H270104   2.650   0.521   0.037  1.3768 -1.3071  0.7509
16205TIP3   OH270105   3.133   5.729   6.152 -0.7658  0.2899  0.2109
16205TIP3    H170106   3.198   5.706   6.218  0.0515  0.6570 -0.4406
16205TIP3    H270107   3.051   5.691   6.184  0.1575 -1.9746  0.0394
16206TIP3   OH270108   1.248   2.311  13.488 -0.3795 -0.0547 -0.2233
16206TIP3    H170109   1.323   2.358  13.524  0.1183 -1.3202  0.4513
16206TIP3    H270110   1.274   2.288  13.399  0.2090 -0.8315  0.1380
16207TIP3   OH270111   3.079   5.563  12.283  0.0382 -0.5769  0.2916
16207TIP3    H170112   3.015   5.493  12.295  0.1035 -1.3979 -3.0589
16207TIP3    H270113   3.139   5.554  12.356 -0.3421 -3.6028  0.3552
16208TIP3   OH270114   3.067   6.368  14.074 -0.2209 -0.0942 -0.1349
16208TIP3    H170115   3.139   6.338  14.128  0.9284  2.3518 -0.2018
16208TIP3    H270116   3.006   6.410  14.135 -1.5440 -1.9323 -0.1082
16209TIP3   OH270117   5.080   3.072  16.150 -0.2625 -0.1542  0.3217
16209TIP3    H170118   5.165   3.113  16.131 -0.5035  0.2435  0.0822
16209TIP3    H270119   5.053   3.034  16.067 -0.1758 -0.5498  0.4751
16210TIP3   OH270120   3.322   4.343  11.804  0.3973  0.0699  0.4313
16210TIP3    H170121   3.402   4.313  11.848  0.6643 -0.0479 -0.1241
16210TIP3    H270122   3.346   4.427  11.765  0.3541 -0.1279 -0.0238
16211TIP3   OH270123   2.196   0.590   3.587  0.5039  0.1663  0.0006
16211TIP3    H170124   2.183   0.665   3.529  0.2088 -0.6104 -0.9648
16211TIP3    H270125   2.273   0.545   3.552  0.2853 -0.3509  0.1734
16212TIP3   OH270126   5.985   5.731  17.073 -0.1348  0.1246  0.1529
16212TIP3    H170127   5.949   5.803  17.020  1.3462 -0.5548 -1.8881
16212TIP3    H270128   5.957   5.652  17.028  2.7554 -0.4453 -0.8725
16213TIP3   OH270129   4.874   4.760  15.759  0.2744 -0.2219  0.0397
16213TIP3    H170130   4.966   4.764  15.785  0.1397 -1.0663  0.6999
16213TIP3    H270131   4.865   4.676  15.714  0.2250  0.6842 -1.7048
16214TIP3   OH270132   2.129   6.654  15.079 -0.8559 -0.0230 -0.0688
16214TIP3    H170133   2.099   6.744  15.098 -0.8925 -0.2551  1.0845
16214TIP3    H270134   2.193   6.664  15.008 -1.8505  0.7582 -0.8758
16215TIP3   OH270135   2.073   1.403  16.608  0.3274 -0.0923  0.2956
16215TIP3    H170136   2.112   1.336  16.664 -0.0574 -0.3068  0.3121
16215TIP3    H270137   2.075   1.483  16.660  1.2644  0.0294  0.0825
16216TIP3   OH270138   0.700   5.520  12.320 -0.1394 -0.0931  0.3516
16216TIP3    H170139   0.609   5.492  12.313 -0.4322  0.6313  1.0950
16216TIP3    H270140   0.730   5.485  12.404  0.4164 -0.7200 -0.0986
16217TIP3   OH270141   2.447   3.081   2.085 -0.5656  0.0414  0.1090
16217TIP3    H170142   2.521   3.141   2.094 -0.7666  0.0387  2.1305
16217TIP3    H270143   2.486   2.994   2.081 -0.4617 -0.0476  2.2717
16218TIP3   OH270144   6.472   0.076   4.001 -0.6749 -0.8137 -0.1646
16218TIP3    H170145   6.438   0.030   4.078  0.1448 -0.6172  0.3328
16218TIP3    H270146   6.443   0.167   4.013  1.5869 -0.1968  1.2893
16219TIP3   OH270147   1.828   2.195  14.693 -0.0821  0.0213 -0.1907
16219TIP3    H170148   1.763   2.195  14.622  1.0602 -2.6643 -1.3556
16219TIP3    H270149   1.909   2.168  14.651  0.4059 -2.8383  2.2786
16220TIP3   OH270150   1.246   0.917   0.461  0.0683  0.0028  0.2639
16220TIP3    H170151   1.307   0.972   0.411 -0.7660  0.9355  0.2259
16220TIP3    H270152   1.265   0.828   0.432  0.2663  0.4311 -0.9987
16221TIP3   OH270153   0.778   0.121   4.359  0.2304 -0.2120 -0.0324
16221TIP3    H170154   0.732   0.168   4.428  0.3302  0.6215 -0.5265
16221TIP3    H270155   0.719   0.125   4.284 -0.0613 -1.4731  0.1031
16222TIP3   OH270156   1.427   4.189  15.364  0.2815 -0.4515 -0.0789
16222TIP3    H170157   1.479   4.242  15.304  0.1617 -1.8256 -1.4572
16222TIP3    H270158   1.489   4.124  15.399 -0.1061 -0.9558 -0.3200
16223TIP3   OH270159   0.680   2.437   1.051 -0.3261  0.0245  0.7660
16223TIP3    H170160   0.625   2.372   1.094 -1.7188  0.7638  0.1853
16223TIP3    H270161   0.718   2.488   1.122 -0.0973 -0.7187  1.1870
16224TIP3   OH270162   0.151   1.730  17.111 -0.3587 -0.4450  0.3678
16224TIP3    H170163   0.242   1.704  17.121 -0.0755  0.6968  0.9303
16224TIP3    H270164   0.143   1.812  17.160 -1.5554 -0.2409 -0.1073
16225TIP3   OH270165   2.713   5.150  15.552  0.4615  0.3004  0.2063
16225TIP3    H170166   2.658   5.150  15.474  1.9343 -0.3680 -0.9021
16225TIP3    H270167   2.757   5.235  15.551  1.0342  0.0051 -0.1195
16226TIP3   OH270168   2.986   2.163  13.779  0.2991  0.1371 -0.0433
16226TIP3    H170169   2.898   2.163  13.740 -0.0284 -0.4596  0.6745
16226TIP3    H270170   2.990   2.244  13.829  0.6318  0.7896 -1.0929
16227TIP3   OH270171   3.312   5.950  16.300  0.2731 -0.2602 -0.6267
16227TIP3    H170172   3.287   5.936  16.208 -2.2705  2.2925 -0.4913
16227TIP3    H270173   3.233   5.986  16.340  1.9263  0.6159  2.0852
16228TIP3   OH270174   6.178   6.832  13.134  0.1921  0.7765  0.5989
16228TIP3    H170175   6.147   6.768  13.198 -0.5489  2.6326  2.2017
16228TIP3    H270176   6.236   6.889  13.183  2.1417  0.4431 -1.1768
16229TIP3   OH270177   1.901   5.677   1.310  0.2206 -0.2897  0.0138
16229TIP3    H170178   1.907   5.764   1.271  1.2120 -0.0535  0.6528
16229TIP3    H270179   1.933   5.618   1.241 -0.9601 -0.2169 -0.6084
16230TIP3   OH270180   6.050   5.882   3.486  0.2943  0.7533  0.0828
16230TIP3    H170181   5.990   5.878   3.560  0.6137  0.7121  0.3436
16230TIP3    H270182   6.009   5.828   3.419 -0.8616  2.1689 -0.4043
16231TIP3   OH270183   4.068   3.209   4.407 -0.2071  0.7581  0.0194
16231TIP3    H170184   4.141   3.256   4.365 -0.7596  1.1911 -0.4718
16231TIP3    H270185   4.110   3.154   4.473  1.0143 -1.8790 -2.6929
16232TIP3   OH270186   3.775   3.358  12.359 -0.3639 -0.7498 -0.3342
16232TIP3    H170187   3.817   3.438  12.390 -0.6154 -0.7718  0.0679
16232TIP3    H270188   3.844   3.313  12.309  0.6264 -1.5594  1.6419
16233TIP3   OH270189   4.501   1.348   2.556  1.2331 -0.5676  0.0043
16233TIP3    H170190   4.562   1.419   2.576  0.0734  0.5449 -0.3042
16233TIP3    H270191   4.482   1.308   2.641  0.6750  0.5243  0.4124
16234TIP3   OH270192   6.491   3.465  13.997  0.4240  0.0962  0.3098
16234TIP3    H170193   6.481   3.445  14.090  0.8347  1.9662  0.8072
16234TIP3    H270194   6.556   3.535  13.994  0.4080  0.0859 -1.3917
16235TIP3   OH270195   2.617   3.923  13.022  0.3901 -0.6763 -0.0805
16235TIP3    H170196   2.641   3.853  12.960  0.3254 -0.9068  0.1553
16235TIP3    H270197   2.665   4.000  12.990  0.0606 -0.6958 -0.6429
16236TIP3   OH270198   2.554   5.576  15.049 -0.2640  0.1725  0.0469
16236TIP3    H170199   2.480   5.634  15.031  1.0167  2.1710  0.8209
16236TIP3    H270200   2.594   5.612  15.128  1.1928 -1.2035 -0.0141
16237TIP3   OH270201   1.812   4.795  13.035 -0.2543 -0.3124 -0.2776
16237TIP3    H170202   1.818   4.890  13.021  1.1783 -0.2457  0.6418
16237TIP3    H270203   1.831   4.758  12.949 -0.6174  0.2268 -0.5988
16238TIP3   OH270204   6.466   3.493   1.985 -0.2251 -1.0135 -0.8084
16238TIP3    H170205   6.452   3.444   1.904 -1.5022 -2.3148  0.1476
16238TIP3    H270206   6.562   3.499   1.993 -0.0730 -1.2834 -2.1407
16239TIP3   OH270207   6.448   3.319   0.720 -0.4148 -0.0281  0.3247
16239TIP3    H170208   6.409   3.258   0.783 -0.6725 -0.5901 -0.3696
16239TIP3    H270209   6.493   3.263   0.657  0.3178  0.5560  0.3163
16240TIP3   OH270210   2.241   1.825   4.713 -0.2807  0.9313  0.3000
16240TIP3    H170211   2.256   1.834   4.807  2.1300 -0.0936  0.0919
16240TIP3    H270212   2.183   1.748   4.705  1.0123 -0.1484  0.9150
16241TIP3   OH270213   2.259   5.472  16.807 -0.1138 -0.2199 -0.2692
16241TIP3    H170214   2.352   5.454  16.824  0.2349 -1.9915 -3.2897
16241TIP3    H270215   2.213   5.395  16.842 -0.3039  0.0346  0.0437
16242TIP3   OH270216   2.118   1.652  11.476  0.3730 -0.1214  0.4572
16242TIP3    H170217   2.068   1.619  11.550  0.4129  1.0630  1.0387
16242TIP3    H270218   2.052   1.681  11.413  0.2957  1.2196  1.1232
16243TIP3   OH270219   1.514   4.792  12.758 -0.3201 -0.3026  0.5565
16243TIP3    H170220   1.446   4.830  12.703 -1.8228 -2.6892  0.6273
16243TIP3    H270221   1.511   4.844  12.838  0.2466  1.6834 -0.6380
16244TIP3   OH270222   6.330   5.439  12.183 -0.1513  0.2374 -0.3838
16244TIP3    H170223   6.386   5.484  12.119  0.7373 -0.9196 -0.4546
16244TIP3    H270224   6.365   5.350  12.187  0.4066  0.4952  2.4151
16245TIP3   OH270225   2.667   2.253   0.394 -0.0986 -0.7945  0.2693
16245TIP3    H170226   2.749   2.302   0.389 -0.3494 -0.4505 -0.7496
16245TIP3    H270227   2.602   2.317   0.423 -0.3102 -0.6663 -0.4774
16246TIP3   OH270228   6.543   0.273   4.963  0.5931  0.5119  0.5419
16246TIP3    H170229   6.509   0.250   5.050  2.8640  1.0214  1.6415
16246TIP3    H270230   6.607   0.342   4.980  1.3731  0.3403 -1.5005
16247TIP3   OH270231   3.492   1.899  10.982 -0.0026  0.0196  0.2363
16247TIP3    H170232   3.414   1.877  11.034  0.0924  1.3488  0.9809
16247TIP3    H270233   3.458   1.912  10.893 -0.3475 -1.0917  0.1855
16248TIP3   OH270234   4.096   4.736  16.337  0.0988 -0.2781  0.4012
16248TIP3    H170235   4.177   4.786  16.323 -0.3859  0.1437 -1.0699
16248TIP3    H270236   4.082   4.689  16.255 -1.2234 -0.2134  0.5646
16249TIP3   OH270237   3.213   0.842   3.866  0.2016  0.0409  0.3540
16249TIP3    H170238   3.275   0.788   3.915  0.2945  1.0302  1.3651
16249TIP3    H270239   3.253   0.854   3.780  0.7123 -0.5344  0.5062
16250TIP3   OH270240   5.542   1.631  13.875 -0.5603  0.2415 -0.3483
16250TIP3    H170241   5.631   1.596  13.884 -0.9228 -0.4438  0.7648
16250TIP3    H270242   5.507   1.588  13.798  0.3118  1.0790 -1.2454
16251TIP3   OH270243   5.725   6.110  15.039 -0.0862 -0.2904  0.2179
16251TIP3    H170244   5.755   6.019  15.038  1.7538  0.2716 -0.7672
16251TIP3    H270245   5.733   6.138  14.947 -0.5072  0.9038  0.5317
16252TIP3   OH270246   3.474   2.263  14.578  0.1063  0.1216 -0.0336
16252TIP3    H170247   3.406   2.310  14.625  0.2061 -0.7296  1.0197
16252TIP3    H270248   3.551   2.267  14.636  0.4612 -0.3201 -0.4598
16253TIP3   OH270249   1.684   3.771   2.810 -0.0288  0.1129  0.0248
16253TIP3    H170250   1.627   3.847   2.821  1.0725  0.9207  0.3470
16253TIP3    H270251   1.697   3.763   2.716  0.7715  1.0419  0.0467
16254TIP3   OH270252   3.391   0.356  13.132 -0.2198  0.3506  0.3745
16254TIP3    H170253   3.402   0.446  13.101 -0.2722 -0.2057 -1.3744
16254TIP3    H270254   3.309   0.358  13.181 -0.3096  1.2252  0.2098
16255TIP3   OH270255   2.131   5.783  15.448 -0.2241  1.1622 -0.1104
16255TIP3    H170256   2.142   5.832  15.529  0.5888  1.3599 -0.3266
16255TIP3    H270257   2.046   5.740  15.457 -0.0114  0.9450  0.9621
16256TIP3   OH270258   1.933   3.241   1.858 -0.2765  0.5955 -0.2924
16256TIP3    H170259   1.991   3.260   1.932  0.0050  1.2250 -0.6700
16256TIP3    H270260   1.989   3.244   1.781 -0.6713  0.4858 -0.5884
16257TIP3   OH270261   2.813   3.254  14.852 -0.0367 -0.3887  0.2873
16257TIP3    H170262   2.870   3.222  14.782  0.6112 -0.8702  1.0209
16257TIP3    H270263   2.858   3.330  14.888 -1.4933  1.3597 -1.3394
16258TIP3   OH270264   6.681   6.414   1.521 -0.2094 -0.4611 -0.9213
16258TIP3    H170265   6.714   6.418   1.610  1.3410  0.5380 -1.5086
16258TIP3    H270266   6.597   6.460   1.524  0.4797  0.7796 -0.2382
16259TIP3   OH270267   3.348   4.273   4.012  0.7424  0.0236  0.6910
16259TIP3    H170268   3.371   4.181   3.996  0.6295 -0.0978  1.1829
16259TIP3    H270269   3.428   4.311   4.049  0.7865  0.1205  0.4953
16260TIP3   OH270270   3.711   4.560  15.421  0.8349 -0.2012  0.1267
16260TIP3    H170271   3.761   4.496  15.371  0.3101 -0.9564  0.5374
16260TIP3    H270272   3.642   4.588  15.361  2.3326  1.6542 -0.8187
16261TIP3   OH270273   4.574   1.059  15.193  0.0844 -0.0488 -0.0144
16261TIP3    H170274   4.598   0.972  15.225  1.9234  0.1547 -0.7214
16261TIP3    H270275   4.618   1.120  15.253 -0.0587  0.3901 -0.3486
16262TIP3   OH270276   6.172   0.705   3.227  0.2303  0.8212 -0.2258
16262TIP3    H170277   6.236   0.740   3.165  0.8910  1.4020  0.7459
16262TIP3    H270278   6.171   0.768   3.299 -1.4221  0.7915 -0.1864
16263TIP3   OH270279   3.073   1.890  16.988 -0.5251 -0.2010 -0.1452
16263TIP3    H170280   3.054   1.811  16.937 -1.3109 -0.1832  0.1086
16263TIP3    H270281   3.163   1.912  16.965 -0.0731 -1.5390  0.2545
16264TIP3   OH270282   0.432   3.418  12.314  0.1616  0.2534 -0.3216
16264TIP3    H170283   0.385   3.349  12.361 -0.6161 -0.5878 -2.1854
16264TIP3    H270284   0.468   3.474  12.382 -3.0229  0.5772  1.2802
16265TIP3   OH270285   1.470   4.282   2.687 -0.1918 -0.6387  0.0450
16265TIP3    H170286   1.395   4.275   2.628 -1.4249 -0.4581  1.5205
16265TIP3    H270287   1.473   4.375   2.711  0.1627 -0.7428  0.4234
16266TIP3   OH270288   6.337   1.408  12.886  0.1787 -0.2354  0.0416
16266TIP3    H170289   6.283   1.335  12.855 -1.1526  0.6964  0.0772
16266TIP3    H270290   6.275   1.469  12.925  0.9568  1.9134 -1.8787
16267TIP3   OH270291   5.383   2.550  16.036  0.1949 -0.0263  0.5748
16267TIP3    H170292   5.450   2.602  16.081 -1.2961  1.8167  0.8107
16267TIP3    H270293   5.417   2.540  15.947  1.2427 -0.0265  0.9588
16268TIP3   OH270294   3.562   4.188  15.693  0.2495 -0.0750 -0.2211
16268TIP3    H170295   3.559   4.278  15.661 -2.6635  0.7136  1.7810
16268TIP3    H270296   3.535   4.135  15.618 -0.1579  0.9961 -0.8567
16269TIP3   OH270297   6.147   0.935   0.907 -0.0319  0.5578 -0.2015
16269TIP3    H170298   6.236   0.963   0.886  0.2865 -0.1934  0.1303
16269TIP3    H270299   6.136   0.852   0.860  0.8683 -1.4469  2.8261
16270TIP3   OH270300   5.166   3.214   0.373 -0.1167 -0.1511  0.4170
16270TIP3    H170301   5.259   3.191   0.372 -0.2498 -0.7895  1.6234
16270TIP3    H270302   5.122   3.139   0.412 -1.1325  0.2098  0.0233
16271TIP3   OH270303   3.570   0.318  14.060 -0.0292 -0.5590 -0.4160
16271TIP3    H170304   3.605   0.401  14.091  1.6342 -0.8993 -1.2318
16271TIP3    H270305   3.634   0.253  14.090 -1.8803 -1.7340  1.2153
16272TIP3   OH270306   6.820   2.354  11.112 -0.5104 -0.1256 -0.3165
16272TIP3    H170307   6.778   2.388  11.033  0.1621 -0.3197 -0.7657
16272TIP3    H270308   6.750   2.353  11.178 -1.3617 -1.0135 -1.2045
16273TIP3   OH270309   0.082   4.134  13.408 -0.4774 -0.5343 -0.0579
16273TIP3    H170310   0.161   4.125  13.355 -1.3993 -1.2883 -1.3766
16273TIP3    H270311   0.111   4.119  13.498  1.0824  0.5293 -0.3556
16274TIP3   OH270312   3.874   4.419  11.132 -0.5768 -0.6562 -0.0053
16274TIP3    H170313   3.864   4.421  11.228 -0.5829  1.7638 -0.0168
16274TIP3    H270314   3.952   4.470  11.115 -2.0076  1.1786 -1.4195
16275TIP3   OH270315   6.189   5.189   2.558  0.0174 -0.1896 -0.1205
16275TIP3    H170316   6.252   5.151   2.619  1.7676  0.7000 -1.2831
16275TIP3    H270317   6.145   5.258   2.609  1.0976  0.2132  0.2942
16276TIP3   OH270318   6.083   3.173  16.947  0.3532  0.0280  0.7790
16276TIP3    H170319   6.038   3.181  16.863 -0.2755  1.9118  1.2415
16276TIP3    H270320   6.170   3.139  16.925 -0.6586 -2.0223 -0.3135
16277TIP3   OH270321   1.348   5.209  16.264 -0.2778  0.5166  0.1907
16277TIP3    H170322   1.361   5.161  16.183 -1.8569  0.4367 -0.0440
16277TIP3    H270323   1.437   5.230  16.294  0.3316  0.7598 -1.6560
16278TIP3   OH270324   2.902   1.525   6.456 -0.0963  0.1108 -0.0355
16278TIP3    H170325   2.816   1.511   6.417  0.0202  0.3526 -0.3842
16278TIP3    H270326   2.902   1.617   6.483 -0.7257 -0.3994  1.9126
16279TIP3   OH270327   4.844   5.086  11.382 -0.2090 -0.1728  0.1319
16279TIP3    H170328   4.822   5.147  11.312 -1.2919 -1.6566 -0.8853
16279TIP3    H270329   4.764   5.080  11.434 -0.0504 -0.5563  0.3330
16280TIP3   OH270330   6.297   1.605  13.925  0.0146  0.2482 -0.3675
16280TIP3    H170331   6.218   1.558  13.897 -0.2376  0.1098  0.5364
16280TIP3    H270332   6.347   1.540  13.975  0.3688  0.5286 -0.3518
16281TIP3   OH270333   0.492   1.515  11.505  0.5841  0.3872 -1.0614
16281TIP3    H170334   0.517   1.516  11.413 -0.0093  1.1786 -1.2210
16281TIP3    H270335   0.424   1.582  11.512  0.2625 -0.0258 -0.1525
16282TIP3   OH270336   2.816   0.156   6.013 -0.0935 -0.4852 -0.0973
16282TIP3    H170337   2.858   0.070   6.009  0.8958  0.0126 -0.8550
16282TIP3    H270338   2.770   0.156   6.097  0.6444 -1.4058  0.3334
16283TIP3   OH270339   3.970   0.433  14.877 -0.0939 -0.2374 -0.3084
16283TIP3    H170340   3.916   0.508  14.854  1.2621  0.3434 -1.7363
16283TIP3    H270341   3.997   0.395  14.793  2.1276 -0.1917  0.3179
16284TIP3   OH270342   4.889   1.015  15.227 -0.3095 -0.2370 -0.3199
16284TIP3    H170343   4.937   0.998  15.146 -0.6394 -1.3645 -0.2971
16284TIP3    H270344   4.842   0.934  15.244  0.5370 -0.3688  1.5466
16285TIP3   OH270345   0.157   5.205   0.480  0.0586 -0.9805  0.3583
16285TIP3    H170346   0.168   5.194   0.386 -0.4090  0.6350  0.0720
16285TIP3    H270347   0.096   5.279   0.488 -0.7073 -1.7431  1.9249
16286TIP3   OH270348   2.020   3.904  15.615 -0.2598  0.5345 -0.5009
16286TIP3    H170349   1.964   3.832  15.642 -0.0730  0.5338 -0.1102
16286TIP3    H270350   2.067   3.871  15.538 -2.0495  1.1220 -1.9060
16287TIP3   OH270351   0.678   1.436   3.073 -0.0455  0.7607 -0.1746
16287TIP3    H170352   0.654   1.369   3.010 -1.9371  0.7760  0.4769
16287TIP3    H270353   0.702   1.512   3.019  0.0033  0.2567 -0.8749
16288TIP3   OH270354   1.209   2.945  12.125  0.2007 -0.4883  0.3151
16288TIP3    H170355   1.259   2.934  12.045  0.1118  1.1687 -0.0213
16288TIP3    H270356   1.259   2.899  12.192  1.2455 -0.3358 -0.3457
16289TIP3   OH270357   0.973   0.758  12.153  0.0422  0.6244 -0.1463
16289TIP3    H170358   0.905   0.818  12.124 -0.7266 -0.9737 -1.7982
16289TIP3    H270359   1.024   0.739  12.075  0.3063 -0.8045  0.3371
16290TIP3   OH270360   5.999   0.125   5.832  0.0758  0.1856 -0.1150
16290TIP3    H170361   5.981   0.044   5.785 -0.5696  2.1188 -3.4782
16290TIP3    H270362   5.956   0.112   5.917 -1.0136 -2.5207 -0.9499
16291TIP3   OH270363   6.054   4.939  10.903 -0.1929 -0.1859  0.1148
16291TIP3    H170364   6.015   4.903  10.824  1.8677  0.4157 -1.2333
16291TIP3    H270365   6.135   4.981  10.874  2.4688 -2.8623  2.9303
16292TIP3   OH270366   5.401   3.600   0.071 -0.5219  0.3765  0.2257
16292TIP3    H170367   5.465   3.546   0.025 -1.2826 -1.1792  0.9396
16292TIP3    H270368   5.431   3.601   0.162 -2.1836 -1.5051  0.8519
16293TIP3   OH270369   6.809   4.087  16.619  0.5062  0.3671 -0.2600
16293TIP3    H170370   6.845   4.047  16.698 -2.6575 -2.5459 -0.0547
16293TIP3    H270371   6.745   4.150  16.652 -2.1781 -2.1688 -0.2696
16294TIP3   OH270372   1.173   3.793   5.593  0.1883  0.7407 -0.1885
16294TIP3    H170373   1.231   3.793   5.669 -1.1596  0.0503  0.8836
16294TIP3    H270374   1.091   3.829   5.626 -0.4175  0.4527 -1.3377
16295TIP3   OH270375   1.101   5.079  12.652  0.1530 -0.1919  0.2707
16295TIP3    H170376   1.117   5.173  12.643  0.6358 -0.2905  0.0959
16295TIP3    H270377   1.029   5.061  12.591 -0.3506  0.1707  0.7482
16296TIP3   OH270378   2.691   1.737   2.937  0.6865 -0.1286  0.0499
16296TIP3    H170379   2.617   1.766   2.990  0.7488 -0.0947  0.1168
16296TIP3    H270380   2.744   1.815   2.924  0.8968 -0.2284  0.2990
16297TIP3   OH270381   1.772   1.057   2.468  0.0745  0.2760  0.7746
16297TIP3    H170382   1.822   1.138   2.484 -3.4058  2.9853 -0.6277
16297TIP3    H270383   1.803   1.027   2.382  2.7382 -1.1819  2.1070
16298TIP3   OH270384   4.538   3.298  13.921 -0.7189  0.3427 -0.1892
16298TIP3    H170385   4.451   3.300  13.961  0.5564  0.5909  2.8456
16298TIP3    H270386   4.598   3.315  13.993  1.9093 -0.2327 -2.0840
16299TIP3   OH270387   1.483   4.738   5.309  0.8373  0.3504 -0.4247
16299TIP3    H170388   1.473   4.781   5.394  0.6029  1.5747 -1.0477
16299TIP3    H270389   1.458   4.805   5.245 -1.0580 -1.1687 -1.3918
16300TIP3   OH270390   1.584   1.207  13.731 -0.3384  0.3879 -0.1393
16300TIP3    H170391   1.551   1.282  13.781  0.5532  0.5357  0.2478
16300TIP3    H270392   1.678   1.223  13.723  0.2154 -1.5650  1.5364
16301TIP3   OH270393   5.070   1.482   5.413 -0.2628 -0.0278  0.1557
16301TIP3    H170394   4.990   1.506   5.366 -0.4858 -0.8590  0.0924
16301TIP3    H270395   5.038   1.436   5.491  0.1724 -1.2856 -0.3962
16302TIP3   OH270396   3.845   5.131  14.715 -0.2264  0.2149 -0.2378
16302TIP3    H170397   3.906   5.205  14.717 -0.6961  0.6115 -0.3119
16302TIP3    H270398   3.899   5.054  14.732  0.3640  0.5089 -0.7589
16303TIP3   OH270399   6.109   5.549   5.498 -0.3886  0.4893 -0.2208
16303TIP3    H170400   6.181   5.537   5.560 -1.8479 -0.1794  1.4163
16303TIP3    H270401   6.096   5.462   5.460 -1.0235  0.3416  0.3114
16304TIP3   OH270402   6.165   5.092  15.937  0.1960 -0.3621 -0.3628
16304TIP3    H170403   6.079   5.133  15.920  0.4778  0.1242 -0.6473
16304TIP3    H270404   6.206   5.150  16.001  0.5381 -0.2802 -0.6557
16305TIP3   OH270405   2.541   1.530  13.676  0.6232 -0.1486  0.2232
16305TIP3    H170406   2.582   1.616  13.690  0.8693 -0.4184  1.2212
16305TIP3    H270407   2.481   1.520  13.751  0.2536 -0.6451 -0.1364
16306TIP3   OH270408   5.561   6.689  15.221  0.4843  0.1750 -0.2851
16306TIP3    H170409   5.603   6.605  15.200 -1.0102 -0.3824 -1.1565
16306TIP3    H270410   5.565   6.694  15.317  0.5390 -0.9132 -0.2161
16307TIP3   OH270411   2.117   2.366   1.883  0.4235 -0.5206 -0.3528
16307TIP3    H170412   2.048   2.335   1.941  0.8234  1.4461  1.2901
16307TIP3    H270413   2.071   2.403   1.808 -0.5337  2.3844  1.5201
16308TIP3   OH270414   4.749   5.437  15.839  0.3511 -0.2639 -0.4089
16308TIP3    H170415   4.829   5.407  15.882 -0.7901 -0.3790  1.7364
16308TIP3    H270416   4.679   5.386  15.880 -1.0856  1.5065 -0.5435
16309TIP3   OH270417   2.293   5.183   0.099  0.2917  0.4521 -0.2711
16309TIP3    H170418   2.371   5.202   0.047 -0.8520  0.8507 -1.9095
16309TIP3    H270419   2.283   5.088   0.095  1.2200  0.2936  0.7720
16310TIP3   OH270420   4.992   2.403   2.953  0.0444  0.6983 -0.4684
16310TIP3    H170421   5.029   2.366   3.034  0.9676 -1.2962 -1.7210
16310TIP3    H270422   4.992   2.498   2.968 -0.9745  0.3603  2.3244
16311TIP3   OH270423   4.800   6.023  16.172  1.0341 -0.2387  0.9273
16311TIP3    H170424   4.711   6.025  16.207  0.3858  0.3758 -0.6834
16311TIP3    H270425   4.802   5.947  16.115  0.9237  0.7899 -0.5092
16312TIP3   OH270426   1.688   2.345   1.628 -0.1544 -0.0691 -0.2841
16312TIP3    H170427   1.693   2.311   1.539  0.5390  0.3825 -0.4249
16312TIP3    H270428   1.644   2.430   1.619  0.3718  0.2074 -0.2661
16313TIP3   OH270429   5.716   5.811   2.445  1.0274 -0.2338 -0.5132
16313TIP3    H170430   5.792   5.792   2.501  0.6598 -1.4774 -0.4154
16313TIP3    H270431   5.647   5.754   2.479  0.5770 -0.4350 -1.7373
16314TIP3   OH270432   2.868   3.729  15.694  0.5876  0.2636  0.4130
16314TIP3    H170433   2.850   3.776  15.612 -1.2446 -1.5455 -0.3069
16314TIP3    H270434   2.964   3.730  15.701  0.7302  1.7567 -0.9381
16315TIP3   OH270435   1.020   4.495   1.923 -0.0277  0.5872  0.5936
16315TIP3    H170436   0.947   4.538   1.967 -0.1784  2.2626 -1.1740
16315TIP3    H270437   1.098   4.536   1.962 -0.0438 -0.1611  1.4479
16316TIP3   OH270438   2.427   6.270  13.519 -0.1938 -0.0389 -0.0856
16316TIP3    H170439   2.361   6.236  13.459 -1.5830  1.9732  0.2002
16316TIP3    H270440   2.428   6.365  13.503  2.1081  0.0964  0.4497
16317TIP3   OH270441   0.423   2.210  12.734 -0.2394  0.1992  0.5082
16317TIP3    H170442   0.451   2.150  12.804 -0.0921  0.5269  0.7319
16317TIP3    H270443   0.385   2.153  12.667 -0.9966 -0.0626  1.1488
16318TIP3   OH270444   0.593   3.215  16.641  0.5322  1.2163 -0.7565
16318TIP3    H170445   0.631   3.127  16.637  0.2779  1.1117 -0.9050
16318TIP3    H270446   0.573   3.236  16.550 -1.3321  0.5820 -0.5349
16319TIP3   OH270447   0.848   5.508  16.099 -0.3587 -0.0963 -0.0661
16319TIP3    H170448   0.908   5.552  16.159 -2.1047 -1.1886  2.7159
16319TIP3    H270449   0.809   5.578  16.048  2.0345  0.7694 -0.8350
16320TIP3   OH270450   4.260   1.035  13.712  0.0477 -0.1705 -0.2781
16320TIP3    H170451   4.355   1.021  13.705  0.1396 -1.3232  2.1022
16320TIP3    H270452   4.227   0.955  13.754 -1.6536  1.0142  0.7977
16321TIP3   OH270453   3.005   0.300   3.589 -0.2193 -0.3007  0.5422
16321TIP3    H170454   2.990   0.249   3.669 -0.1385 -1.1315  0.0448
16321TIP3    H270455   3.000   0.391   3.617 -1.2496 -0.5704  1.3058
16322TIP3   OH270456   5.853   3.136   4.244 -0.0367  0.1729  0.1765
16322TIP3    H170457   5.902   3.138   4.161 -0.3739 -1.4236 -0.0918
16322TIP3    H270458   5.761   3.130   4.218 -0.1326 -0.5766  0.6470
16323TIP3   OH270459   0.726   4.748   0.600  0.8671  0.6507 -0.3930
16323TIP3    H170460   0.813   4.781   0.577  1.4775  0.7643  1.8864
16323TIP3    H270461   0.737   4.709   0.687 -1.4517  0.9875  0.1126
16324TIP3   OH270462   2.737   3.863   3.374 -0.3612  0.5351 -0.0334
16324TIP3    H170463   2.824   3.855   3.414  0.1557 -2.8199 -1.5232
16324TIP3    H270464   2.686   3.792   3.412 -1.7299  0.9857 -0.9510
16325TIP3   OH270465   0.134   2.096   2.247  0.4070  0.0937  0.2167
16325TIP3    H170466   0.137   2.004   2.219  1.7826 -1.4276  4.6340
16325TIP3    H270467   0.191   2.141   2.184 -0.7144 -1.8531 -2.4191
16326TIP3   OH270468   3.636   2.681  13.146  0.3214 -0.3409 -0.3900
16326TIP3    H170469   3.560   2.728  13.112  0.7589  0.8905  0.2860
16326TIP3    H270470   3.711   2.719  13.101  0.5886 -1.3058 -0.7914
16327TIP3   OH270471   6.147   4.457  16.813  0.3430  0.4251  0.2268
16327TIP3    H170472   6.125   4.368  16.786 -1.2482  1.5344 -2.5400
16327TIP3    H270473   6.062   4.498  16.832  0.6790  2.1729 -1.6426
16328TIP3   OH270474   3.213   3.994   2.475  0.1081 -0.1415  0.0410
16328TIP3    H170475   3.154   4.000   2.400  0.3966 -1.1184 -0.2703
16328TIP3    H270476   3.298   3.971   2.437  0.4511  0.1984  0.5890
16329TIP3   OH270477   3.915   5.121   6.142 -0.2169 -0.0149 -0.1335
16329TIP3    H170478   4.009   5.104   6.139 -0.0841  0.3289  1.4102
16329TIP3    H270479   3.886   5.082   6.225 -1.7453 -1.4919 -1.2887
16330TIP3   OH270480   4.858   5.785  14.650 -0.6850 -0.2540  0.1501
16330TIP3    H170481   4.861   5.878  14.625 -0.5099  0.1020  1.4121
16330TIP3    H270482   4.768   5.771  14.678 -0.4837 -0.2088  0.8436
16331TIP3   OH270483   5.681   5.273  12.345 -0.5446  0.0299 -0.2067
16331TIP3    H170484   5.692   5.298  12.436 -1.5539 -0.5620  0.0835
16331TIP3    H270485   5.604   5.322  12.315 -0.6607 -0.3401 -0.5261
16332TIP3   OH270486   3.751   2.233  11.524 -0.2174  0.0739  0.3524
16332TIP3    H170487   3.726   2.162  11.582 -0.7075  0.1715  0.2660
16332TIP3    H270488   3.699   2.308  11.554  0.0002  0.2921  0.1925
16333TIP3   OH270489   5.731   3.949   0.483  0.2623 -0.3045 -0.2407
16333TIP3    H170490   5.658   3.994   0.526  1.4298  2.0987 -0.5523
16333TIP3    H270491   5.776   3.903   0.555 -0.1826  0.2165  0.3868
16334TIP3   OH270492   3.155   1.253  13.917  0.6959  0.6901 -0.3518
16334TIP3    H170493   3.178   1.222  13.829 -1.8371 -0.4175 -0.7287
16334TIP3    H270494   3.179   1.345  13.918  2.0209  0.3912 -1.7070
16335TIP3   OH270495   6.683   4.027   2.088  0.2646  0.0993 -0.1251
16335TIP3    H170496   6.625   3.990   2.154  0.0088 -0.0658 -0.4408
16335TIP3    H270497   6.769   4.033   2.131 -0.0609  0.6698  0.4558
16336TIP3   OH270498   4.144   3.465   4.964  0.0827  0.2700  0.0463
16336TIP3    H170499   4.185   3.476   5.049  0.2307 -0.8800  0.1415
16336TIP3    H270500   4.173   3.379   4.934 -0.6508  0.2927 -0.7882
16337TIP3   OH270501   0.182   2.417  13.240 -0.0242 -0.2033 -0.2243
16337TIP3    H170502   0.232   2.348  13.283  1.2120 -0.9990 -2.7611
16337TIP3    H270503   0.180   2.392  13.148 -0.4608  2.5977 -1.0702
16338TIP3   OH270504   4.246   3.882  16.556 -0.1135 -0.9606  0.2454
16338TIP3    H170505   4.319   3.903  16.614  2.3249  1.4392 -3.2464
16338TIP3    H270506   4.263   3.792  16.528  0.4031 -1.0879  0.9428
16339TIP3   OH270507   5.590   3.465  13.028  0.0568  0.0133  0.2651
16339TIP3    H170508   5.619   3.378  13.054  0.7255  0.5575  1.4240
16339TIP3    H270509   5.666   3.505  12.986 -0.1537  0.1437  0.0054
16340TIP3   OH270510   4.785   0.764  13.316  0.2820 -0.1747  0.0921
16340TIP3    H170511   4.864   0.775  13.263  0.1012 -0.6177 -0.2770
16340TIP3    H270512   4.719   0.818  13.272  0.0092 -0.8978 -0.4078
16341TIP3   OH270513   2.113   0.251  11.124  0.2331 -0.4144  0.6193
16341TIP3    H170514   2.151   0.164  11.129  0.9647 -0.1943 -0.6579
16341TIP3    H270515   2.129   0.279  11.034  1.8528  1.8551  1.5076
16342TIP3   OH270516   6.562   3.082   5.207 -0.0989  0.5591 -0.1590
16342TIP3    H170517   6.480   3.068   5.256 -0.8818  0.2686 -1.5083
16342TIP3    H270518   6.598   2.994   5.197 -1.6629  0.1348 -2.9448
16343TIP3   OH270519   5.863   1.429   4.648 -0.0014 -0.1701 -0.1565
16343TIP3    H170520   5.822   1.390   4.571 -2.0618  1.2011  0.1582
16343TIP3    H270521   5.846   1.366   4.718 -0.6429 -0.1264 -0.2644
16344TIP3   OH270522   6.565   6.162   4.043 -0.4001 -0.3320 -0.4346
16344TIP3    H170523   6.540   6.070   4.052 -1.8598 -0.0121 -0.9207
16344TIP3    H270524   6.569   6.177   3.949  1.6420 -0.3356 -0.3774
16345TIP3   OH270525   2.918   3.450  15.670  0.7213  0.4112  0.4581
16345TIP3    H170526   2.992   3.471  15.612  0.2575 -0.6463 -0.5612
16345TIP3    H270527   2.861   3.526  15.664 -0.1245 -0.3167 -1.8357
16346TIP3   OH270528   1.167   5.588  13.598  0.0435 -0.1773  0.2075
16346TIP3    H170529   1.208   5.608  13.514  3.1003 -3.4863  0.6278
16346TIP3    H270530   1.226   5.625  13.663 -1.6358  1.2808  0.9767
16347TIP3   OH270531   1.903   6.425   6.290 -0.0607  0.0699  0.2511
16347TIP3    H170532   1.981   6.371   6.303  1.5435  2.6950  2.7665
16347TIP3    H270533   1.928   6.487   6.221 -1.7133 -1.8782 -2.2704
16348TIP3   OH270534   2.729   2.086  13.802 -0.3953  0.0255 -0.0523
16348TIP3    H170535   2.699   2.061  13.889 -0.3808 -0.4052 -0.1690
16348TIP3    H270536   2.734   2.004  13.754 -0.5501  0.2811 -0.5071
16349TIP3   OH270537   1.576   2.729  13.382  0.2409 -0.2427  0.2475
16349TIP3    H170538   1.549   2.699  13.296 -0.5493 -1.7615  0.9747
16349TIP3    H270539   1.528   2.811  13.395 -1.3652 -1.0995  0.0700
16350TIP3   OH270540   6.644   5.974   5.227 -0.1043 -0.1289 -0.1419
16350TIP3    H170541   6.613   5.969   5.136 -1.5257  1.1537  0.2222
16350TIP3    H270542   6.733   6.009   5.220 -0.3676  0.4212 -1.0357
16351TIP3   OH270543   1.007   1.413   5.513 -0.2950 -0.1481  0.1287
16351TIP3    H170544   1.065   1.449   5.581  1.2920 -0.5403 -0.9517
16351TIP3    H270545   0.961   1.489   5.478  1.3860  0.5739 -0.6253
16352TIP3   OH270546   4.676   6.323   0.421  0.3295  0.1320  0.4697
16352TIP3    H170547   4.763   6.285   0.417  1.0981  1.8330 -0.0703
16352TIP3    H270548   4.691   6.416   0.439 -0.9832  1.5896 -4.3813
16353TIP3   OH270549   5.667   3.565   2.319  0.3415  0.1720 -0.0176
16353TIP3    H170550   5.636   3.566   2.228 -0.7457  2.1045  0.3191
16353TIP3    H270551   5.762   3.555   2.311  0.2746  0.3535 -1.3772
16354TIP3   OH270552   2.211   1.148  12.074  0.1399 -0.0888 -0.1936
16354TIP3    H170553   2.117   1.139  12.062  0.2500 -3.8127  0.5893
16354TIP3    H270554   2.224   1.142  12.169  1.1730  0.6808 -0.2628
16355TIP3   OH270555   0.956   4.243   4.690 -0.1405  1.2396 -0.1446
16355TIP3    H170556   0.957   4.275   4.600  0.6112  1.1205 -0.1818
16355TIP3    H270557   1.020   4.298   4.736  1.3130 -0.2963 -0.2471
16356TIP3   OH270558   3.470   1.757   0.510  0.1318  0.3794 -0.1671
16356TIP3    H170559   3.376   1.751   0.495 -0.3572  3.9887  0.4711
16356TIP3    H270560   3.505   1.793   0.428  1.2773 -2.1530 -0.8933
16357TIP3   OH270561   3.438   2.869  15.483 -0.3574  0.1012  0.3135
16357TIP3    H170562   3.475   2.923  15.413 -0.4451  0.9139  0.8741
16357TIP3    H270563   3.355   2.911  15.504  0.0230  0.3425  1.4244
16358TIP3   OH270564   6.466   6.496  11.320 -0.5576 -0.2147 -0.3701
16358TIP3    H170565   6.455   6.574  11.374  2.4824  0.0815  0.0399
16358TIP3    H270566   6.502   6.430  11.380 -2.1921 -1.6877 -0.9117
16359TIP3   OH270567   1.258   4.347   3.143 -0.0586  0.7491 -0.0493
16359TIP3    H170568   1.310   4.307   3.214 -0.6704 -0.6711 -0.3614
16359TIP3    H270569   1.323   4.394   3.090  0.8025 -0.2909  0.0358
16360TIP3   OH270570   5.165   5.122  12.709  0.0457 -0.6851  0.1923
16360TIP3    H170571   5.230   5.191  12.696  0.3789 -0.7181  1.5611
16360TIP3    H270572   5.184   5.058  12.641  0.0649  0.3120 -0.7768
16361TIP3   OH270573   4.669   4.388   5.365  0.7955  0.5148 -0.2833
16361TIP3    H170574   4.664   4.354   5.276  0.2202  1.9353 -0.8201
16361TIP3    H270575   4.752   4.437   5.367  2.5718 -2.3152  1.0410
16362TIP3   OH270576   3.616   6.067   2.735  0.2941 -0.1161  0.4094
16362TIP3    H170577   3.662   6.147   2.712 -0.1347 -0.1957 -0.8257
16362TIP3    H270578   3.684   6.000   2.737  0.4877  0.0764  0.3456
16363TIP3   OH270579   2.606   5.599  14.602  0.3670  0.1903  0.0148
16363TIP3    H170580   2.579   5.678  14.554 -1.1702 -0.9393 -1.0451
16363TIP3    H270581   2.660   5.550  14.540  0.9876  0.1892  0.5386
16364TIP3   OH270582   0.381   3.234   0.708 -0.2711 -0.3877  0.0069
16364TIP3    H170583   0.475   3.226   0.689  0.0535  0.2073  1.2515
16364TIP3    H270584   0.370   3.190   0.792 -1.1503 -0.5969 -0.2110
16365TIP3   OH270585   6.491   5.866  15.109 -0.6221 -0.1776 -0.1901
16365TIP3    H170586   6.414   5.837  15.159  0.5703 -1.3939  1.0346
16365TIP3    H270587   6.555   5.889  15.177 -0.0602  1.3292 -1.1832
16366TIP3   OH270588   1.969   3.591   4.801  0.1769  0.5631 -0.0414
16366TIP3    H170589   2.042   3.579   4.739  0.9887  1.0570  0.7895
16366TIP3    H270590   1.896   3.618   4.746  0.5371 -0.2073 -0.9349
16367TIP3   OH270591   5.382   2.782  14.677  0.5250 -0.0334  0.3581
16367TIP3    H170592   5.413   2.766  14.588 -0.1006 -0.1055  0.1453
16367TIP3    H270593   5.461   2.787  14.730  0.8378 -2.8485  0.3059
16368TIP3   OH270594   0.917   1.832   2.743  0.0045 -0.0666  0.7450
16368TIP3    H170595   0.907   1.846   2.649  0.2129 -0.2000  0.7014
16368TIP3    H270596   0.841   1.780   2.768 -0.4966  0.6877  0.8124
16369TIP3   OH270597   1.961   3.052   6.184  0.3964  0.6562  0.2450
16369TIP3    H170598   1.924   2.973   6.144  0.8700 -0.3090  1.6243
16369TIP3    H270599   1.938   3.045   6.277  2.1112  1.1303  0.7451
16370TIP3   OH270600   1.330   5.319   0.417  0.2213 -0.0749  0.4567
16370TIP3    H170601   1.361   5.255   0.481 -0.7803 -0.4275  0.5992
16370TIP3    H270602   1.359   5.403   0.452  1.7484 -0.4403  0.1521
16371TIP3   OH270603   1.837   3.406   3.886  0.0043 -0.1491  0.2892
16371TIP3    H170604   1.843   3.497   3.916  1.0804 -0.4405  0.9642
16371TIP3    H270605   1.747   3.381   3.906 -0.2058  0.6564  0.4026
16372TIP3   OH270606   4.701   6.337   6.009  0.1947  0.1960  0.1333
16372TIP3    H170607   4.737   6.266   5.956 -2.5602 -0.3224 -1.2474
16372TIP3    H270608   4.710   6.306   6.099  1.2280 -0.7973 -0.2857
16373TIP3   OH270609   1.335   1.406  16.951  0.3530 -0.1804  0.1879
16373TIP3    H170610   1.319   1.314  16.929  2.1214 -0.4981  0.0391
16373TIP3    H270611   1.248   1.446  16.955 -0.3516 -1.2913 -2.1777
16374TIP3   OH270612   2.072   1.992  12.287  0.3783 -0.0857  0.1134
16374TIP3    H170613   2.021   1.911  12.285  1.3631 -0.7243  0.3945
16374TIP3    H270614   2.110   1.995  12.375  1.5085 -0.0585 -0.3554
16375TIP3   OH270615   0.754   5.564  12.812  0.6416  0.2298  0.3587
16375TIP3    H170616   0.819   5.635  12.816  1.9408 -0.8549 -0.7347
16375TIP3    H270617   0.805   5.484  12.819 -0.5603 -0.6694 -0.6744
16376TIP3   OH270618   6.784   5.395  11.287 -0.3312 -0.2332 -0.3176
16376TIP3    H170619   6.746   5.405  11.199 -0.1155  3.6950 -0.1567
16376TIP3    H270620   6.714   5.419  11.346  0.4908  0.5716  0.3580
16377TIP3   OH270621   0.945   4.937   2.783  0.1945 -0.7409 -0.5055
16377TIP3    H170622   0.963   4.845   2.801 -1.1615 -0.9090  0.1195
16377TIP3    H270623   0.870   4.936   2.723  0.4216 -0.0549 -0.8125
16378TIP3   OH270624   3.696   0.319  16.019 -0.5404  0.8527 -0.4766
16378TIP3    H170625   3.636   0.291  15.949  0.8474 -0.4742 -1.2041
16378TIP3    H270626   3.647   0.305  16.100 -0.6317 -1.9986 -0.9288
16379TIP3   OH270627   4.977   4.285  12.485 -0.3882 -0.3295 -0.0179
16379TIP3    H170628   5.038   4.358  12.494 -3.1306  1.9813  1.7087
16379TIP3    H270629   5.012   4.217  12.543  1.0251  0.5201  0.1566
16380TIP3   OH270630   2.830   3.038   1.696  0.1852  0.2918 -0.1050
16380TIP3    H170631   2.797   2.985   1.624  1.4848  1.0113 -1.2720
16380TIP3    H270632   2.847   2.975   1.766 -0.5595 -0.4988 -0.6261
16381TIP3   OH270633   2.688   1.675  13.402 -0.0244 -0.1622 -0.1220
16381TIP3    H170634   2.648   1.729  13.470 -0.3531  0.5511 -0.8590
16381TIP3    H270635   2.760   1.729  13.368  1.3316 -1.2603  0.8951
16382TIP3   OH270636   2.425   5.501   3.648 -0.4105  0.0317  1.0207
16382TIP3    H170637   2.506   5.517   3.697  1.1100 -2.4807 -0.4756
16382TIP3    H270638   2.382   5.430   3.695 -1.4888  0.9191  1.4310
16383TIP3   OH270639   0.134   1.619  12.211  0.0200  0.3514 -0.2481
16383TIP3    H170640   0.057   1.654  12.166  0.4627  0.4096 -0.9686
16383TIP3    H270641   0.103   1.598  12.299 -0.8949  0.1110 -0.6166
16384TIP3   OH270642   5.856   1.190   0.510  0.4341  0.3628  0.2448
16384TIP3    H170643   5.887   1.136   0.582 -1.5499  1.7996  2.3057
16384TIP3    H270644   5.776   1.231   0.543  0.5061  2.6255 -2.0688
16385TIP3   OH270645   0.538   1.009   4.227  0.4239 -0.0205  0.1332
16385TIP3    H170646   0.528   1.098   4.196  0.1318  0.4240  1.4481
16385TIP3    H270647   0.524   1.014   4.322 -0.9933 -1.6780  0.0586
16386TIP3   OH270648   3.251   4.536   0.023  0.2928  0.0444  0.5787
16386TIP3    H170649   3.247   4.444  -0.002 -2.9285  0.8723 -2.8925
16386TIP3    H270650   3.283   4.581  -0.055  0.5513  1.9996  1.7324
16387TIP3   OH270651   6.179   1.518  10.829  0.1437 -0.4992  0.2354
16387TIP3    H170652   6.244   1.456  10.795  0.7668  0.2157  0.0928
16387TIP3    H270653   6.109   1.463  10.862 -0.5081 -1.2427 -2.2000
16388TIP3   OH270654   3.295   4.160  15.010  0.0630 -0.0448  0.4762
16388TIP3    H170655   3.226   4.168  14.944 -0.0300  2.3075  0.7827
16388TIP3    H270656   3.278   4.231  15.071  2.6147  0.4714  0.7049
16389TIP3   OH270657   3.298   3.213  16.260 -0.1607  0.1896 -0.5853
16389TIP3    H170658   3.211   3.178  16.281 -0.3920 -0.4036 -2.3427
16389TIP3    H270659   3.341   3.221  16.344 -1.3982 -0.9396  0.2070
16390TIP3   OH270660   1.413   0.281   6.091 -0.5805  0.0966 -0.1076
16390TIP3    H170661   1.498   0.324   6.100 -0.3125 -0.2944 -0.7755
16390TIP3    H270662   1.353   0.351   6.066 -0.5175  0.4204  0.6068
16391TIP3   OH270663   5.159   0.904   0.281  0.9333  0.1468  0.1019
16391TIP3    H170664   5.116   0.989   0.275 -0.4746 -0.5785 -0.4118
16391TIP3    H270665   5.235   0.920   0.337  0.4812  1.6488  0.3347
16392TIP3   OH270666   4.396   6.231  10.991  0.4093  0.4855 -0.8297
16392TIP3    H170667   4.330   6.285  10.948 -0.3739 -0.8983 -1.4306
16392TIP3    H270668   4.366   6.222  11.081  0.7533  1.3512 -0.6181
16393TIP3   OH270669   0.247   2.958   4.358  0.2240 -0.0269  0.0439
16393TIP3    H170670   0.254   3.001   4.443  0.2930  0.4799 -0.2172
16393TIP3    H270671   0.162   2.913   4.361  1.4369 -2.4570  1.4997
16394TIP3   OH270672   2.812   4.824   2.534  0.0672 -0.1793  0.5733
16394TIP3    H170673   2.720   4.827   2.558 -0.1103  0.7243 -0.1751
16394TIP3    H270674   2.838   4.915   2.522  0.1373 -0.4866 -2.4844
16395TIP3   OH270675   5.335   0.081  15.975 -0.2678 -0.1454 -0.7809
16395TIP3    H170676   5.369   0.035  15.898  1.1900  0.1394 -0.3374
16395TIP3    H270677   5.382   0.164  15.976 -0.2680 -0.1456  0.4193
16396TIP3   OH270678   5.240   0.165  13.049  0.6665  0.1756 -0.5827
16396TIP3    H170679   5.255   0.120  12.966  0.3312 -1.4814  0.2101
16396TIP3    H270680   5.292   0.117  13.113 -0.3870  0.3531  0.4587
16397TIP3   OH270681   2.180   5.041   0.782 -0.3481 -0.3300  0.0145
16397TIP3    H170682   2.166   4.997   0.866  1.5362 -0.6252  0.2262
16397TIP3    H270683   2.240   4.984   0.734  3.7969  2.6393  1.0586
16398TIP3   OH270684   0.384   4.919  15.894  0.5013 -0.4789  0.4572
16398TIP3    H170685   0.450   4.850  15.899  0.2024 -0.8089 -0.0028
16398TIP3    H270686   0.333   4.910  15.974  0.7994 -0.4454  0.6510
16399TIP3   OH270687   1.430   3.158  11.500 -0.4069  0.5307  0.6208
16399TIP3    H170688   1.359   3.218  11.477 -0.4224 -0.0157 -0.8262
16399TIP3    H270689   1.392   3.071  11.492  0.8164  0.1341 -1.8552
16400TIP3   OH270690   5.363   4.512   0.080 -0.5236 -0.0342 -0.3280
16400TIP3    H170691   5.268   4.500   0.076 -0.6383  0.5243  0.4224
16400TIP3    H270692   5.380   4.582   0.017 -0.9412  1.4580  1.1096
16401TIP3   OH270693   0.698   1.154   0.028 -0.5112  0.5051  0.6045
16401TIP3    H170694   0.719   1.165   0.121 -2.1080  0.2099  1.0353
16401TIP3    H270695   0.699   1.060   0.014  0.5587  0.5768  0.0880
16402TIP3   OH270696   4.770   6.049  15.242  0.3024  0.3046  0.1617
16402TIP3    H170697   4.744   6.098  15.320 -0.6373  0.8864 -0.4995
16402TIP3    H270698   4.863   6.029  15.257  0.3804  1.1944  1.0181
16403TIP3   OH270699   1.348   1.522   3.480  0.0677 -0.2933 -0.5502
16403TIP3    H170700   1.401   1.451   3.444  0.2684  0.1178 -1.0854
16403TIP3    H270701   1.257   1.496   3.461  0.0790 -0.9140  0.2153
16404TIP3   OH270702   5.009   2.486  12.691  0.3197 -0.0656 -0.0691
16404TIP3    H170703   4.961   2.500  12.772 -0.0893 -1.6889  0.0137
16404TIP3    H270704   5.056   2.568  12.675 -0.9556  0.8707  0.8759
16405TIP3   OH270705   4.022   2.738   0.035 -0.2583  0.0649 -0.2491
16405TIP3    H170706   4.041   2.651   0.069  0.6455 -0.4946 -2.0909
16405TIP3    H270707   3.939   2.728  -0.012  0.3015 -0.0451 -1.2373
16406TIP3   OH270708   0.464   5.809   5.757 -0.1283  0.2215  0.1214
16406TIP3    H170709   0.395   5.762   5.710  0.2154 -0.0940 -0.0812
16406TIP3    H270710   0.443   5.796   5.850  0.7687 -1.6354  0.1222
16407TIP3   OH270711   3.514   4.826  14.131 -0.6370 -0.5687 -0.1075
16407TIP3    H170712   3.583   4.893  14.125 -0.7602 -0.4717 -0.4819
16407TIP3    H270713   3.458   4.844  14.056 -2.5692  0.9968  1.6097
16408TIP3   OH270714   3.602   5.536  16.882 -0.2333  0.1734  0.7474
16408TIP3    H170715   3.565   5.448  16.875  1.4844 -0.5654  0.2719
16408TIP3    H270716   3.529   5.594  16.862 -0.7647 -1.2314 -1.9701
16409TIP3   OH270717   4.498   4.849  11.698  0.7010 -0.2313  0.1875
16409TIP3    H170718   4.591   4.838  11.721  1.0881 -0.0304 -1.1939
16409TIP3    H270719   4.457   4.766  11.724  1.6808 -1.1442 -1.0978
16410TIP3   OH270720   1.813   4.633   1.208  0.3795  0.1134  0.3789
16410TIP3    H170721   1.788   4.542   1.191  0.5412  0.1594 -0.1259
16410TIP3    H270722   1.905   4.638   1.182  0.2358  0.5430 -0.0613
16411TIP3   OH270723   6.169   6.158   2.171  0.5505 -0.3174  0.0152
16411TIP3    H170724   6.127   6.085   2.127  0.2939 -0.2299  0.1147
16411TIP3    H270725   6.172   6.228   2.105 -2.4715  0.8384  0.9243
16412TIP3   OH270726   1.350   6.765  16.251 -0.7378 -0.3652  0.6203
16412TIP3    H170727   1.374   6.763  16.159  0.4306  0.6579  0.8708
16412TIP3    H270728   1.356   6.673  16.279  0.4893 -0.4805  0.0465
16413TIP3   OH270729   2.273   4.812   5.378  0.8632 -0.0358 -0.9178
16413TIP3    H170730   2.204   4.747   5.372  0.0802  0.2478  2.8171
16413TIP3    H270731   2.354   4.764   5.359  0.1443 -1.7427  0.1673
16414TIP3   OH270732   5.316   2.944   1.068 -0.2103  0.4684 -0.0048
16414TIP3    H170733   5.371   2.912   0.996  0.8599 -0.9704  1.3863
16414TIP3    H270734   5.227   2.941   1.033  0.2791 -0.2695 -1.2570
16415TIP3   OH270735   6.591   2.293   2.087  0.0882  0.3020 -0.0328
16415TIP3    H170736   6.602   2.368   2.028 -0.1936  0.6906  0.3980
16415TIP3    H270737   6.610   2.217   2.033  0.3859  0.6844 -0.4811
16416TIP3   OH270738   2.018   0.609   1.052  0.6316 -0.6463  0.1940
16416TIP3    H170739   2.015   0.638   1.144  0.1466  1.6191 -0.4709
16416TIP3    H270740   2.084   0.665   1.012 -0.8091  0.0583 -1.3319
16417TIP3   OH270741   4.946   2.002   4.420  0.2086 -0.3931  0.5643
16417TIP3    H170742   4.968   1.989   4.328 -0.2509 -1.3823  0.5750
16417TIP3    H270743   4.902   1.920   4.446  0.7280 -0.3184  1.7781
16418TIP3   OH270744   3.822   0.088  16.305  0.3828  0.3225 -0.3029
16418TIP3    H170745   3.756   0.092  16.235 -0.4755 -2.0750  0.2848
16418TIP3    H270746   3.795   0.155  16.367 -2.8887 -1.9347  0.9647
16419TIP3   OH270747   2.538   3.535  16.123 -0.0181  0.3057 -0.7967
16419TIP3    H170748   2.444   3.524  16.133  0.0184 -0.2106 -0.9761
16419TIP3    H270749   2.572   3.541  16.212 -0.3560  1.7878 -0.7414
16420TIP3   OH270750   3.875   2.893  12.042  0.7011  0.1784  0.1910
16420TIP3    H170751   3.939   2.882  12.112  0.9849  0.2491 -0.0574
16420TIP3    H270752   3.844   2.805  12.023  1.6801 -0.0119 -0.5868
16421TIP3   OH270753   0.096   6.269  13.781 -0.8593 -0.5429 -0.5973
16421TIP3    H170754   0.117   6.340  13.720 -1.3682 -0.8995 -1.2095
16421TIP3    H270755   0.167   6.206  13.770 -0.1208  0.0955  0.3402
16422TIP3   OH270756   5.537   3.598  16.367 -0.0431 -0.4098  0.0408
16422TIP3    H170757   5.607   3.611  16.431  0.6445  3.3438 -1.2288
16422TIP3    H270758   5.576   3.544  16.298  1.0742  0.2642  0.1299
16423TIP3   OH270759   2.258   6.461  11.081  0.2789  0.3035 -0.2423
16423TIP3    H170760   2.317   6.439  11.153  0.2150 -2.2020 -0.8922
16423TIP3    H270761   2.304   6.433  11.002 -0.9654  0.1029 -0.9146
16424TIP3   OH270762   5.668   1.701  15.780 -0.5500 -0.5973  0.0869
16424TIP3    H170763   5.619   1.777  15.812  0.6924  0.3112 -0.0908
16424TIP3    H270764   5.601   1.641  15.748 -1.5223  1.0694 -1.2001
16425TIP3   OH270765   2.493   5.526   0.427 -0.8888 -0.2489  0.6369
16425TIP3    H170766   2.463   5.608   0.389  1.5243  0.5660  0.2835
16425TIP3    H270767   2.512   5.470   0.351 -1.5220 -0.7500  0.8424
16426TIP3   OH270768   1.187   6.186  16.141 -0.1370  0.1740  0.6973
16426TIP3    H170769   1.125   6.253  16.113 -0.5815 -0.1823  0.8186
16426TIP3    H270770   1.156   6.106  16.100  2.1728  0.5254 -2.1088
16427TIP3   OH270771   0.496   3.440   0.995  0.3947 -0.1646  0.1252
16427TIP3    H170772   0.433   3.444   1.067 -0.0050 -1.7808 -0.0799
16427TIP3    H270773   0.473   3.514   0.939 -0.5137  0.0030  0.7001
16428TIP3   OH270774   4.295   4.986   5.306 -0.1492  0.5697  0.7114
16428TIP3    H170775   4.273   4.900   5.270 -1.8766  0.5608  1.6696
16428TIP3    H270776   4.299   5.044   5.230 -0.9170  0.0068  0.2268
16429TIP3   OH270777   2.431   5.992  15.346 -0.0887 -0.4123  0.5258
16429TIP3    H170778   2.391   5.905  15.350  0.4756 -0.6433  1.5205
16429TIP3    H270779   2.401   6.028  15.262 -1.3200 -1.0764  0.6436
16430TIP3   OH270780   0.045   4.226   3.121 -0.2429  0.3871 -0.6705
16430TIP3    H170781   0.139   4.238   3.139 -0.1300  0.9657 -1.6036
16430TIP3    H270782   0.041   4.150   3.063 -0.5554 -1.0305  1.0911
16431TIP3   OH270783   5.481   2.625   4.932  0.0117  0.1011  0.2002
16431TIP3    H170784   5.431   2.705   4.947  1.2234  0.7800  0.7601
16431TIP3    H270785   5.485   2.583   5.018  0.3201 -0.0066  0.1330
16432TIP3   OH270786   0.825   6.328   0.161  0.8233  0.1934 -0.1504
16432TIP3    H170787   0.887   6.341   0.232  0.3901 -0.6881  0.4013
16432TIP3    H270788   0.764   6.401   0.169  0.9390  0.2532  0.2066
16433TIP3   OH270789   4.903   6.555  10.833  0.3519 -0.4968  0.8404
16433TIP3    H170790   4.875   6.466  10.851  0.3944 -0.5095  0.8419
16433TIP3    H270791   4.822   6.603  10.814  0.2247 -0.3031  1.8296
16434TIP3   OH270792   2.276   2.029  16.547 -0.9144 -0.1155 -0.1133
16434TIP3    H170793   2.251   2.121  16.550  0.2585  0.1873  2.1954
16434TIP3    H270794   2.235   1.996  16.467  0.2425  2.8495 -2.1209
16435TIP3   OH270795   3.223   3.756   2.086  0.0449 -0.0423  0.2784
16435TIP3    H170796   3.283   3.756   2.160 -0.8139  0.6318  0.9949
16435TIP3    H270797   3.175   3.673   2.094 -0.7356  0.4675  1.0721
16436TIP3   OH270798   4.908   0.085   2.481 -0.3507  0.0111 -0.1448
16436TIP3    H170799   4.957   0.162   2.511  0.8196 -1.2215  1.2635
16436TIP3    H270800   4.862   0.115   2.403 -1.4844  2.7082  1.4129
16437TIP3   OH270801   3.831   1.662  15.275 -0.2573 -0.2045 -0.2906
16437TIP3    H170802   3.894   1.591  15.268  0.3727  0.3957 -0.7979
16437TIP3    H270803   3.757   1.634  15.220 -0.0931 -0.5424 -0.3389
16438TIP3   OH270804   3.145   2.767  13.263 -0.4221 -0.3261 -0.5958
16438TIP3    H170805   3.163   2.675  13.283  1.1289  0.4470  2.0630
16438TIP3    H270806   3.232   2.808  13.259 -1.0344  0.9408 -2.4950
16439TIP3   OH270807   3.847   2.584   3.934  0.2328  0.0278  0.2539
16439TIP3    H170808   3.862   2.529   3.857  1.1072  0.2598  0.2471
16439TIP3    H270809   3.850   2.523   4.008 -0.2078 -0.1330  0.1466
16440TIP3   OH270810   3.954   5.858   6.171 -0.8921 -0.0539  0.5134
16440TIP3    H170811   3.923   5.775   6.134 -1.3752 -0.4704  1.7800
16440TIP3    H270812   3.925   5.924   6.109  1.8117 -0.9712 -1.9619
16441TIP3   OH270813   1.175   3.074  10.952  0.1861  0.0464  0.2674
16441TIP3    H170814   1.103   3.053  10.893 -0.8039  1.9163  0.7328
16441TIP3    H270815   1.226   3.140  10.905  0.1776  0.5343  0.9319
16442TIP3   OH270816   3.421   0.311   3.168 -0.1302  0.1898 -0.3169
16442TIP3    H170817   3.478   0.344   3.097  2.5385 -4.6222 -0.8417
16442TIP3    H270818   3.369   0.242   3.127 -1.3272 -0.1784  1.6864
16443TIP3   OH270819   0.817   4.968  16.023 -0.3465 -0.4929 -0.2540
16443TIP3    H170820   0.810   5.055  15.983  0.3809 -0.5594 -0.5332
16443TIP3    H270821   0.893   4.974  16.081  0.6854 -1.3785 -1.4463
16444TIP3   OH270822   4.983   1.094   0.536 -0.7022  0.2185  0.7353
16444TIP3    H170823   5.042   1.146   0.480 -0.8039  0.5264  0.9084
16444TIP3    H270824   5.042   1.043   0.591 -0.5948 -0.7771 -0.2675
16445TIP3   OH270825   1.014   2.847   3.930 -0.6100  0.0977  0.1734
16445TIP3    H170826   0.928   2.849   3.888 -0.5592 -0.7205  0.0179
16445TIP3    H270827   1.031   2.938   3.954 -1.9425  0.1447  1.0428
16446TIP3   OH270828   6.555   4.180   5.100  0.4088  0.5804 -0.3452
16446TIP3    H170829   6.477   4.138   5.064  0.0078  0.8526  0.1938
16446TIP3    H270830   6.526   4.269   5.123 -0.0728 -0.2937  2.9740
16447TIP3   OH270831   2.895   3.440   5.848  0.0689 -0.5311  0.6056
16447TIP3    H170832   2.918   3.464   5.937 -2.5023 -1.1621  1.5306
16447TIP3    H270833   2.868   3.348   5.854 -0.8853 -0.3622 -0.6393
16448TIP3   OH270834   2.577   2.065  14.543 -0.4603 -0.1913 -0.0420
16448TIP3    H170835   2.638   2.018  14.601 -0.1161  0.6984  0.3385
16448TIP3    H270836   2.629   2.137  14.508 -0.9474 -0.1627 -0.7129
16449TIP3   OH270837   0.355   0.421   6.494  0.3768  0.3738  0.4432
16449TIP3    H170838   0.379   0.359   6.425 -1.2105  0.4056 -0.1782
16449TIP3    H270839   0.276   0.385   6.533  1.4589  0.1579  2.5630
16450TIP3   OH270840   0.158   6.569  16.102 -1.0723  0.1675  0.1801
16450TIP3    H170841   0.134   6.488  16.146  0.7803  0.0996  1.1743
16450TIP3    H270842   0.083   6.590  16.046 -1.6934 -2.0708  0.1049
16451TIP3   OH270843   3.231   1.821   3.168 -0.0993  0.3437 -0.0900
16451TIP3    H170844   3.256   1.781   3.085  0.0234 -0.0403  0.1258
16451TIP3    H270845   3.148   1.780   3.190  0.1932 -0.0553  0.3018
16452TIP3   OH270846   3.578   3.377  15.880  0.2681 -0.1927  0.0099
16452TIP3    H170847   3.568   3.448  15.943  0.6547 -0.0017 -0.1347
16452TIP3    H270848   3.553   3.298  15.927 -0.6272  0.0978  0.0316
16453TIP3   OH270849   5.108   2.722   5.445 -0.2047  0.0591 -0.1028
16453TIP3    H170850   5.122   2.689   5.356  0.5802  0.8765 -0.3019
16453TIP3    H270851   5.048   2.796   5.434  0.6285  0.7568 -0.0898
16454TIP3   OH270852   5.974   6.736   5.478 -0.6497  0.1480 -0.0016
16454TIP3    H170853   6.036   6.677   5.522 -0.3669 -0.9152 -1.7217
16454TIP3    H270854   5.908   6.755   5.545  0.3832 -0.4126  1.2330
16455TIP3   OH270855   1.750   3.027  13.198 -0.0498 -0.0762  0.1163
16455TIP3    H170856   1.689   3.097  13.176 -1.4344 -1.4807 -0.7112
16455TIP3    H270857   1.717   2.992  13.281  0.7649  0.3631  0.6410
16456TIP3   OH270858   2.732   3.371  14.485 -0.0634 -0.5429 -0.4292
16456TIP3    H170859   2.685   3.366  14.402  0.0773  0.9050 -0.6300
16456TIP3    H270860   2.675   3.326  14.547 -0.5389 -0.9788 -1.1606
16457TIP3   OH270861   4.603   1.898   3.731  0.0356  0.0655  0.0738
16457TIP3    H170862   4.627   1.857   3.815 -0.9963 -0.6566  0.0309
16457TIP3    H270863   4.582   1.989   3.755 -1.7939 -0.5236  0.8958
16458TIP3   OH270864   0.635   0.013  15.529  0.2568 -0.5342 -0.4353
16458TIP3    H170865   0.609  -0.050  15.461  0.5432 -0.4232 -0.6523
16458TIP3    H270866   0.722   0.043  15.501 -0.0268  0.2210 -0.5132
16459TIP3   OH270867   5.749   3.980   4.851 -0.0084  0.7765 -0.3528
16459TIP3    H170868   5.762   3.911   4.916 -1.4074  0.2704 -0.5720
16459TIP3    H270869   5.772   4.061   4.896  1.2591  0.2238  0.0363
16460TIP3   OH270870   4.088   1.554   5.442  0.2956 -0.1780  0.1001
16460TIP3    H170871   4.087   1.461   5.466  0.2660  0.0539  1.0563
16460TIP3    H270872   4.008   1.590   5.482  0.6017  0.3672  0.2394
16461TIP3   OH270873   4.172   1.148   4.138  0.3291  0.7772  0.1848
16461TIP3    H170874   4.195   1.111   4.053 -1.5101  0.2461 -0.1149
16461TIP3    H270875   4.203   1.239   4.134 -0.2801  0.9444 -1.2970
16462TIP3   OH270876   4.273   4.573  14.018 -0.4558 -0.1055  0.1099
16462TIP3    H170877   4.263   4.667  14.003  1.0791 -0.0153 -0.4312
16462TIP3    H270878   4.366   4.556  14.007 -0.8859 -1.9227 -1.0900
16463TIP3   OH270879   4.141   4.227  11.383 -0.0471  1.4481  0.0909
16463TIP3    H170880   4.215   4.216  11.324 -0.2873  1.7496 -0.2699
16463TIP3    H270881   4.065   4.199  11.332 -0.0858  0.3531  0.7340
16464TIP3   OH270882   4.940   5.940  15.453 -0.5635 -0.0771 -0.2367
16464TIP3    H170883   4.942   5.903  15.541 -0.0522 -0.2949 -0.3377
16464TIP3    H270884   5.014   6.000  15.450 -1.3488  0.9190 -0.0979
16465TIP3   OH270885   6.260   5.281   0.567 -0.2554  0.3628 -0.2389
16465TIP3    H170886   6.329   5.241   0.515 -0.0418 -1.7960  1.5438
16465TIP3    H270887   6.276   5.249   0.656 -2.0416  1.8901  0.6968
16466TIP3   OH270888   3.402   3.687  16.728 -0.4733  0.9100  0.1595
16466TIP3    H170889   3.435   3.622  16.665  0.3975  0.1044  1.3994
16466TIP3    H270890   3.479   3.737  16.753 -0.9376  1.6672  0.1070
16467TIP3   OH270891   5.933   5.248  15.882  0.4737  0.2680  0.0361
16467TIP3    H170892   5.878   5.320  15.850  0.7817  1.3702  1.8258
16467TIP3    H270893   5.875   5.197  15.939  0.7230  0.1108  0.1527
16468TIP3   OH270894   3.649   2.114  12.417 -0.0581 -0.3071  0.0226
16468TIP3    H170895   3.654   2.155  12.504  1.8931  0.3483 -0.3543
16468TIP3    H270896   3.642   2.187  12.356  1.2423 -0.6044 -0.5186
16469TIP3   OH270897   5.232   4.930  11.345  0.5216  0.1338  0.0105
16469TIP3    H170898   5.218   4.980  11.426  1.2725  0.9703 -0.3575
16469TIP3    H270899   5.275   4.991  11.286 -0.9279 -0.1595 -1.4008
16470TIP3   OH270900   2.353   6.221   6.038 -0.2692  0.4538  0.0028
16470TIP3    H170901   2.367   6.149   6.100  1.0022  0.5646 -0.1449
16470TIP3    H270902   2.261   6.211   6.012 -1.3751  1.3382  3.0651
16471TIP3   OH270903   3.566   6.568  14.819 -0.2154 -0.3513  0.0978
16471TIP3    H170904   3.571   6.586  14.913 -2.5400  1.4042 -0.0147
16471TIP3    H270905   3.477   6.534  14.806 -0.5590  1.0791 -1.6817
16472TIP3   OH270906   1.876   1.946  13.701  0.0034 -0.3481  0.1772
16472TIP3    H170907   1.797   1.978  13.744  0.3511  0.9055 -0.0763
16472TIP3    H270908   1.894   2.010  13.632 -0.2311 -2.0255 -1.5191
16473TIP3   OH270909   1.218   1.731   0.493  0.4092  0.1152  0.8554
16473TIP3    H170910   1.245   1.792   0.424  1.5884  0.3721  1.5157
16473TIP3    H270911   1.186   1.788   0.563 -0.6587 -0.1385  0.5928
16474TIP3   OH270912   3.841   3.727   4.503  0.0599  0.0720 -0.1576
16474TIP3    H170913   3.753   3.699   4.527 -0.1799 -0.0563 -1.1662
16474TIP3    H270914   3.876   3.766   4.583 -0.5389 -0.7811  0.5335
16475TIP3   OH270915   3.470   1.916   5.153 -0.2236  0.3179 -0.3067
16475TIP3    H170916   3.500   1.994   5.106  1.4611 -0.2610 -0.2722
16475TIP3    H270917   3.397   1.946   5.206  0.6038  1.9537 -0.0421
16476TIP3   OH270918   5.544   4.715  16.792 -0.2350  0.4831  0.0554
16476TIP3    H170919   5.505   4.777  16.730 -0.0695  0.7819  0.2507
16476TIP3    H270920   5.633   4.701  16.760 -0.2563  0.3814  0.0392
16477TIP3   OH270921   5.005   5.895   5.263  0.4060  0.6183 -0.2025
16477TIP3    H170922   4.979   5.986   5.272 -0.7849  0.2944 -0.2522
16477TIP3    H270923   5.021   5.864   5.352  0.7463  0.8566 -0.1816
16478TIP3   OH270924   2.539   1.092  12.969  0.3861  0.3337 -0.1328
16478TIP3    H170925   2.538   1.044  13.051 -1.3265 -0.0272 -0.3202
16478TIP3    H270926   2.485   1.169  12.986 -0.5774 -0.0982 -1.0845
16479TIP3   OH270927   6.439   1.146  14.589  0.2603 -0.9569  0.6467
16479TIP3    H170928   6.452   1.085  14.663 -0.3733  1.0802  2.5529
16479TIP3    H270929   6.509   1.211  14.599  0.0122 -0.5029 -0.4267
16480TIP3   OH270930   0.642   6.025   5.736 -0.4967  0.4922  0.3301
16480TIP3    H170931   0.577   5.956   5.727  1.0706 -0.8547 -1.4981
16480TIP3    H270932   0.703   5.993   5.802  1.2081 -0.8488 -1.7299
16481TIP3   OH270933   3.939   4.647   2.547 -0.5128 -0.0103  0.3940
16481TIP3    H170934   3.955   4.673   2.457 -3.7572  0.1562 -0.2530
16481TIP3    H270935   3.924   4.729   2.594 -0.0403 -0.1661  0.8316
16482TIP3   OH270936   1.311   4.684   0.100  0.2228 -0.2533 -0.2375
16482TIP3    H170937   1.219   4.705   0.081  0.6829  0.7255 -1.5747
16482TIP3    H270938   1.350   4.672   0.013  1.1784 -1.4983  0.3475
16483TIP3   OH270939   3.366   2.612  14.791  0.9453  0.6138  0.4727
16483TIP3    H170940   3.368   2.658  14.875 -2.3597 -1.7239  2.0746
16483TIP3    H270941   3.427   2.539  14.802  0.0772 -0.0393  1.1812
16484TIP3   OH270942   4.310   1.192   6.500 -0.2101 -0.0155 -0.1060
16484TIP3    H170943   4.217   1.203   6.523  0.0157  1.4018  0.1979
16484TIP3    H270944   4.316   1.228   6.411 -0.1671 -1.2152 -0.6087
16485TIP3   OH270945   5.230   6.134  12.152 -0.1847  0.3924  0.2728
16485TIP3    H170946   5.137   6.115  12.164 -0.0924 -0.2097  0.0484
16485TIP3    H270947   5.267   6.127  12.240 -0.0086 -1.2991  0.0958
16486TIP3   OH270948   1.755   4.480   0.922  0.4021  0.4860  0.4172
16486TIP3    H170949   1.670   4.461   0.961 -0.2847  1.2982 -0.6135
16486TIP3    H270950   1.753   4.436   0.837  1.3360 -0.1327  0.6979
16487TIP3   OH270951   5.276   1.083   5.166  0.0550  1.2882  0.0973
16487TIP3    H170952   5.364   1.103   5.133 -0.8502  2.6504 -1.6483
16487TIP3    H270953   5.241   1.167   5.195 -1.3113  1.1179 -0.9321
16488TIP3   OH270954   0.665   4.521   2.190 -0.2585  0.4450  0.4853
16488TIP3    H170955   0.732   4.587   2.173 -1.3916  0.9030 -2.9250
16488TIP3    H270956   0.713   4.438   2.196  0.6691  0.4247 -4.0844
16489TIP3   OH270957   2.287   4.426   2.271  0.2651 -0.1737 -0.3709
16489TIP3    H170958   2.235   4.483   2.215  1.0403  0.9410 -0.0157
16489TIP3    H270959   2.226   4.360   2.303 -0.6963  0.5342 -0.7106
16490TIP3   OH270960   4.782   5.483   3.681  0.7844  0.2555  0.3785
16490TIP3    H170961   4.690   5.475   3.656  0.3669  0.5454  1.6904
16490TIP3    H270962   4.793   5.418   3.750  2.0652 -1.0199 -0.9865
16491TIP3   OH270963   2.281   4.325   0.243  0.7975 -0.0300 -0.3996
16491TIP3    H170964   2.359   4.349   0.193  0.7259 -0.0404 -0.5191
16491TIP3    H270965   2.303   4.240   0.282  1.4223  0.6876  0.8532
16492TIP3   OH270966   6.687   0.705   5.718 -0.5449  0.0803 -0.1838
16492TIP3    H170967   6.599   0.671   5.735 -1.8338  2.7726 -0.8727
16492TIP3    H270968   6.681   0.797   5.741  1.9735  0.4522 -0.8099
16493TIP3   OH270969   6.747   1.755   6.496 -0.7831  0.2512 -0.4859
16493TIP3    H170970   6.749   1.661   6.478  0.8256  0.4346 -1.4767
16493TIP3    H270971   6.791   1.795   6.420  0.3681  1.6308  0.8433
16494TIP3   OH270972   2.558   3.136   5.164  0.4372  0.1011 -0.1717
16494TIP3    H170973   2.505   3.196   5.216 -0.2338 -1.2117  0.7232
16494TIP3    H270974   2.508   3.122   5.084  0.4992  0.5747 -0.2933
16495TIP3   OH270975   0.991   6.840  11.026 -0.2375 -0.1593 -0.1878
16495TIP3    H170976   1.074   6.854  11.072 -0.1003 -1.1746 -0.0946
16495TIP3    H270977   1.016   6.823  10.935 -0.3671 -0.0569 -0.2415
16496TIP3   OH270978   1.560   2.842   2.047  0.1523  0.0159 -0.0389
16496TIP3    H170979   1.606   2.917   2.009 -1.0841  0.5951 -0.4414
16496TIP3    H270980   1.472   2.847   2.010 -0.2310 -1.0732  0.6954
16497TIP3   OH270981   3.840   3.145   2.165 -0.1803  0.2029 -0.0854
16497TIP3    H170982   3.852   3.223   2.110 -0.8724  0.8084  0.6033
16497TIP3    H270983   3.791   3.084   2.110 -0.5711  0.6720 -0.2661
16498TIP3   OH270984   3.041   1.972   4.669  0.1498  0.1314 -0.0514
16498TIP3    H170985   2.966   1.913   4.657 -1.5320  1.8301  1.3838
16498TIP3    H270986   3.112   1.914   4.698 -1.9841 -1.1121  3.3786
16499TIP3   OH270987   3.434   4.906   2.523 -0.4036  0.3771 -0.0894
16499TIP3    H170988   3.527   4.908   2.501 -0.0934  1.8517  1.2214
16499TIP3    H270989   3.393   4.865   2.446  1.3142 -0.4379 -0.6294
16500TIP3   OH270990   0.440   6.478   1.071  0.8983  0.3802  0.0934
16500TIP3    H170991   0.468   6.560   1.030  2.6399 -0.8540 -1.3294
16500TIP3    H270992   0.519   6.445   1.115 -0.1770  0.1771  1.9808
16501TIP3   OH270993   5.278   1.090  13.943  0.4796  0.4210  0.2637
16501TIP3    H170994   5.253   1.036  13.868  0.3128 -1.1994  1.4264
16501TIP3    H270995   5.367   1.060  13.965 -0.4053 -0.9989  2.2359
16502TIP3   OH270996   2.152   3.672  16.625  0.1565 -0.8118 -0.1342
16502TIP3    H170997   2.082   3.711  16.573 -0.4942  0.5885  1.6473
16502TIP3    H270998   2.189   3.746  16.674 -0.7408 -2.2701  3.0008
16503TIP3   OH270999   3.741   5.786   4.570 -0.0772 -0.2486 -0.1561
16503TIP3    H171000   3.752   5.846   4.496 -0.6448 -0.2734 -0.2681
16503TIP3    H271001   3.668   5.729   4.545  0.5058 -1.0419 -0.0780
16504TIP3   OH271002   3.433   0.408   0.990  0.3883  0.2290  0.4761
16504TIP3    H171003   3.351   0.420   0.942  1.0002  1.5898 -0.3053
16504TIP3    H271004   3.454   0.315   0.979 -0.3233  0.1662 -0.5240
16505TIP3   OH271005   2.998   5.358  11.400  0.1229  0.3178 -0.3134
16505TIP3    H171006   2.942   5.436  11.397 -0.5040 -0.0325  1.3154
16505TIP3    H271007   3.080   5.387  11.360  0.2742  2.1660  1.1752
16506TIP3   OH271008   0.341   0.334  10.958 -0.1126  0.5853  0.3505
16506TIP3    H171009   0.330   0.240  10.948 -1.5810  0.8987 -1.4823
16506TIP3    H271010   0.322   0.350  11.051 -1.4867 -0.7476  0.3493
16507TIP3   OH271011   4.969   1.360  13.617  0.2654 -0.1928 -0.4655
16507TIP3    H171012   5.055   1.340  13.655 -0.5648  0.2133  1.8067
16507TIP3    H271013   4.986   1.429  13.553  1.6850 -0.4343 -0.3816
16508TIP3   OH271014   4.507   4.592  14.858  0.0650  0.2970 -0.3056
16508TIP3    H171015   4.491   4.659  14.792  0.0186  1.2168  0.6099
16508TIP3    H271016   4.448   4.614  14.930 -1.3102 -1.8031 -0.6807
16509TIP3   OH271017   4.197   5.118  12.343 -0.1508  0.1899 -0.8410
16509TIP3    H171018   4.145   5.155  12.272 -1.7547 -0.4387 -0.0456
16509TIP3    H271019   4.142   5.048  12.379  0.1131  1.1720  1.6976
16510TIP3   OH271020   2.950   5.498  11.041  0.2405  0.1326 -0.2811
16510TIP3    H171021   2.884   5.561  11.069 -0.3769 -1.1350  1.3333
16510TIP3    H271022   2.899   5.424  11.007  0.8366 -0.5035  0.1749
16511TIP3   OH271023   2.697   3.715   3.586  0.0262 -0.2960  0.4935
16511TIP3    H171024   2.665   3.747   3.670  2.5265 -1.4419  1.9874
16511TIP3    H271025   2.665   3.625   3.580 -4.4802  1.1550 -2.3354
16512TIP3   OH271026   3.898   0.846  14.550  0.3891  0.1325  0.1846
16512TIP3    H171027   3.990   0.830  14.527 -0.2004 -0.6010 -1.8516
16512TIP3    H271028   3.894   0.941  14.563  0.9676  0.5934 -2.3340
16513TIP3   OH271029   5.425   0.890  12.695 -0.4201  0.1454 -0.2218
16513TIP3    H171030   5.520   0.884  12.687 -0.4828  0.0569 -1.0032
16513TIP3    H271031   5.410   0.918  12.785  0.3889  1.2495 -0.4087
16514TIP3   OH271032   0.482   2.546  16.338 -0.5477 -0.5002 -0.3279
16514TIP3    H171033   0.459   2.624  16.287  0.5135  0.8032  1.0776
16514TIP3    H271034   0.563   2.571  16.383 -0.3048 -2.3548  0.3254
16515TIP3   OH271035   6.668   5.503   0.706 -0.1826 -0.1016 -0.6534
16515TIP3    H171036   6.695   5.556   0.781 -0.1340 -0.7632 -0.1909
16515TIP3    H271037   6.589   5.546   0.673 -0.3472  0.0565 -0.0719
16516TIP3   OH271038   0.188   0.724   2.039 -0.2845 -0.1540 -0.7512
16516TIP3    H171039   0.217   0.770   1.960  2.5720 -1.4392 -0.5425
16516TIP3    H271040   0.263   0.727   2.098 -2.0950  0.1499  1.7225
16517TIP3   OH271041   1.223   0.029   4.743 -0.2535  0.3051 -1.0089
16517TIP3    H171042   1.306   0.009   4.700 -0.9794 -1.3447 -1.7409
16517TIP3    H271043   1.233  -0.008   4.831 -0.5179 -0.7688 -1.4061
16518TIP3   OH271044   4.156   2.564  12.337 -0.0231  0.2588  0.0867
16518TIP3    H171045   4.188   2.632  12.395 -1.3218  2.2227 -1.3763
16518TIP3    H271046   4.232   2.540  12.283  0.4051  0.6211  0.5216
16519TIP3   OH271047   2.635   6.581   5.421  0.1730  0.0780  0.2530
16519TIP3    H171048   2.675   6.667   5.427 -1.4613  0.9645 -0.8175
16519TIP3    H271049   2.545   6.593   5.451 -0.3392 -1.0353 -0.7144
16520TIP3   OH271050   1.148   3.707  13.215  0.0880 -0.0940 -0.6237
16520TIP3    H171051   1.218   3.680  13.274 -0.2634  0.0859 -0.1172
16520TIP3    H271052   1.070   3.709  13.270 -0.5745 -1.5164 -1.4530
16521TIP3   OH271053   6.665   2.827  14.772  0.5718  0.1924 -0.0203
16521TIP3    H171054   6.750   2.827  14.727  0.1159  0.7909 -0.9076
16521TIP3    H271055   6.601   2.819  14.702 -0.1156 -0.1102  0.6327
16522TIP3   OH271056   4.554   2.007   2.619  0.0617  0.1517 -0.1864
16522TIP3    H171057   4.518   1.927   2.580 -1.5478  0.0390  1.4136
16522TIP3    H271058   4.486   2.073   2.608 -0.5229  0.1002  2.3645
16523TIP3   OH271059   4.482   1.697   5.113  0.1041  0.2630  0.4666
16523TIP3    H171060   4.403   1.733   5.072  2.0216  1.6256 -2.4210
16523TIP3    H271061   4.506   1.762   5.179  0.1217  1.1853 -0.4060
16524TIP3   OH271062   5.154   6.283  15.745  0.1490 -0.6309 -0.1490
16524TIP3    H171063   5.123   6.277  15.835  0.9763 -0.6352  0.1467
16524TIP3    H271064   5.086   6.240  15.693 -0.7624  0.1605  0.3619
16525TIP3   OH271065   4.029   4.330   0.651 -0.0003  0.4986 -0.0927
16525TIP3    H171066   3.964   4.327   0.721 -1.8158  1.0452 -1.6840
16525TIP3    H271067   4.054   4.238   0.637 -0.9952  0.1988  0.0387
16526TIP3   OH271068   5.791   5.753  13.939  0.2942 -0.0728  0.3534
16526TIP3    H171069   5.741   5.754  14.020  0.4295 -1.0940  0.4686
16526TIP3    H271070   5.882   5.770  13.967  0.4369 -1.0420  0.5025
16527TIP3   OH271071   0.955   4.367  15.476  0.1485 -0.2655  0.0528
16527TIP3    H171072   0.984   4.356  15.567  0.1713  0.5006  0.1498
16527TIP3    H271073   0.859   4.376  15.483 -0.2893 -3.5776 -0.3381
16528TIP3   OH271074   5.058   1.742  14.045 -0.2070  0.5909  0.0022
16528TIP3    H171075   5.075   1.788  14.128  0.1232  1.0003 -0.2867
16528TIP3    H271076   5.090   1.802  13.978 -1.3316  0.6665 -0.4807
16529TIP3   OH271077   3.906   2.413   1.107 -0.6117 -0.0250 -0.3508
16529TIP3    H171078   3.970   2.418   1.037 -0.8103  2.1005 -0.4368
16529TIP3    H271079   3.833   2.363   1.070  0.7202 -2.0841 -0.3960
16530TIP3   OH271080   2.541   4.430  12.106 -0.4999  1.0370 -0.0414
16530TIP3    H171081   2.544   4.430  12.011 -1.3761  1.1435 -0.0783
16530TIP3    H271082   2.521   4.339  12.129 -0.9119  1.1399  0.0127
16531TIP3   OH271083   5.845   0.317  16.288  0.1088  0.0212 -0.1977
16531TIP3    H171084   5.874   0.246  16.344  1.2871 -1.0926 -2.1185
16531TIP3    H271085   5.774   0.279  16.236  0.9576  0.0892 -1.4606
16532TIP3   OH271086   5.671   1.088  11.557  0.5581  0.7316 -0.0670
16532TIP3    H171087   5.654   1.068  11.465  0.4132  1.9257 -0.3245
16532TIP3    H271088   5.734   1.161  11.555  0.3639  0.9380  0.7634
16533TIP3   OH271089   5.273   6.115   5.638  0.2271 -0.3573 -0.8532
16533TIP3    H171090   5.228   6.161   5.708  0.9730  0.5671 -0.9605
16533TIP3    H271091   5.204   6.064   5.594 -0.4373 -0.0803 -0.1470
16534TIP3   OH271092   3.953   2.377  14.209 -0.3001  0.1773 -0.9005
16534TIP3    H171093   3.893   2.326  14.155 -0.0557  0.3567 -1.3426
16534TIP3    H271094   3.896   2.429  14.265 -0.5561 -0.4585 -0.5529
16535TIP3   OH271095   5.159   3.950  12.382 -0.6351  0.2653  0.2550
16535TIP3    H171096   5.208   4.031  12.392 -3.2832  2.1336 -0.9567
16535TIP3    H271097   5.225   3.886  12.354  1.5566  1.8624  1.4137
16536TIP3   OH271098   2.394   2.754  10.945 -0.1046  0.6188  0.0884
16536TIP3    H171099   2.305   2.751  10.981 -0.6589 -0.5945 -1.2856
16536TIP3    H271100   2.436   2.676  10.981 -0.7353 -0.7333 -1.9585
16537TIP3   OH271101   6.788   1.716  15.331 -0.4727  0.1908  0.3579
16537TIP3    H171102   6.745   1.681  15.253 -0.3130  1.7173 -0.4584
16537TIP3    H271103   6.740   1.797  15.350 -0.3772 -0.0587  1.7305
16538TIP3   OH271104   2.524   2.252   3.677  0.6642  0.4494  0.3268
16538TIP3    H171105   2.485   2.338   3.692 -0.7650 -0.1193  0.0733
16538TIP3    H271106   2.610   2.256   3.718 -0.4668  1.0998  2.8058
16539TIP3   OH271107   5.052   5.204  17.100  0.5877  0.1930  0.4315
16539TIP3    H171108   4.963   5.201  17.063  0.8975 -0.0892 -0.3094
16539TIP3    H271109   5.042   5.171  17.189 -0.2052  1.0533  0.6745
16540TIP3   OH271110   4.282   4.077   5.540 -0.2529  0.5956  0.1157
16540TIP3    H171111   4.251   4.069   5.630  1.1526 -0.2220  0.5626
16540TIP3    H271112   4.262   3.992   5.500  0.1714  0.5446  0.0079
16541TIP3   OH271113   5.176   5.980  10.358 -0.2444 -0.3207 -0.0522
16541TIP3    H171114   5.117   6.048  10.390 -1.2055 -1.4811  0.7674
16541TIP3    H271115   5.148   5.901  10.405  1.9252 -0.9334  0.3109
16542TIP3   OH271116   6.607   6.282   0.499  0.2130  0.3169 -0.1901
16542TIP3    H171117   6.685   6.264   0.445  0.0516 -2.3764  0.3760
16542TIP3    H271118   6.632   6.255   0.587 -1.9236 -2.5656 -0.3446
16543TIP3   OH271119   0.462   2.560   3.413  0.2854 -0.8360  0.1241
16543TIP3    H171120   0.407   2.629   3.449  0.7741 -0.5571  0.3564
16543TIP3    H271121   0.438   2.554   3.321  1.3671  0.7882 -0.3053
16544TIP3   OH271122   4.975   1.935   2.519  0.3709  0.2720  0.2107
16544TIP3    H171123   5.016   1.860   2.476  0.5819 -0.4784  1.6605
16544TIP3    H271124   4.950   1.902   2.606  0.8525  1.9826  1.0464
16545TIP3   OH271125   4.062   3.029   5.296 -0.8162  0.7037 -0.2056
16545TIP3    H171126   4.038   3.118   5.322  1.3216  0.7756  1.9112
16545TIP3    H271127   4.142   3.039   5.246 -0.5109 -0.0281  0.1218
16546TIP3   OH271128   4.102   1.757  12.212 -0.0103  0.3782  0.0060
16546TIP3    H171129   4.174   1.757  12.275 -0.9251  0.0582  1.1064
16546TIP3    H271130   4.124   1.825  12.149  0.7281  1.0511  0.9556
16547TIP3   OH271131   5.507   2.043  16.539 -0.3542 -0.7958 -0.5933
16547TIP3    H171132   5.507   2.125  16.589  0.2533 -0.5921 -0.9120
16547TIP3    H271133   5.596   2.008  16.551 -0.0832 -0.5757 -1.7942
16548TIP3   OH271134   5.733   4.497   1.452 -0.1513 -0.6710  0.1876
16548TIP3    H171135   5.787   4.452   1.387  1.9101 -0.8152  1.9021
16548TIP3    H271136   5.707   4.429   1.513 -0.7317 -0.2531  0.4211
16549TIP3   OH271137   2.786   0.883   1.646 -0.2415 -0.2340  0.4900
16549TIP3    H171138   2.859   0.911   1.591 -1.2860  0.0221 -0.8130
16549TIP3    H271139   2.726   0.958   1.647 -3.5912 -2.4241 -3.8956
16550TIP3   OH271140   4.120   1.346   0.776  0.4096 -0.2267 -0.3000
16550TIP3    H171141   4.069   1.418   0.815 -1.5219 -0.8346 -1.5417
16550TIP3    H271142   4.061   1.270   0.780  1.4719 -1.1366 -1.2204
16551TIP3   OH271143   0.810   5.926   5.938 -0.0446 -0.2053  0.3495
16551TIP3    H171144   0.770   5.870   6.004 -2.1635  0.7987  0.0101
16551TIP3    H271145   0.873   5.869   5.893 -1.2549 -1.9516  0.7704
16552TIP3   OH271146   2.738   5.507  13.988 -0.0621 -0.4014  0.6276
16552TIP3    H171147   2.680   5.434  13.969  1.0150 -1.2159  0.3773
16552TIP3    H271148   2.739   5.558  13.907  1.1256 -1.4979 -0.0837
16553TIP3   OH271149   4.411   6.576  15.517 -0.7814  1.0855  0.3904
16553TIP3    H171150   4.433   6.553  15.426  1.9896  0.0848  1.2174
16553TIP3    H271151   4.356   6.503  15.548 -0.2694  0.5474  0.0429
16554TIP3   OH271152   6.085   0.247   3.194 -0.4575  0.0063 -0.3231
16554TIP3    H171153   6.091   0.318   3.257  0.7067 -0.3214 -0.0447
16554TIP3    H271154   6.172   0.242   3.154 -1.0729 -0.0206 -1.7175
16555TIP3   OH271155   5.211   1.062   1.883 -0.1333 -0.0019  0.0766
16555TIP3    H171156   5.138   1.034   1.827 -1.4756  4.4177 -0.8194
16555TIP3    H271157   5.177   1.139   1.929  2.5727 -0.5238  3.2780
16556TIP3   OH271158   1.176   4.132  15.287 -0.1403  0.9623 -0.4748
16556TIP3    H171159   1.151   4.066  15.351  0.6765  0.4457 -0.6781
16556TIP3    H271160   1.270   4.145  15.301  0.1377  0.5699 -1.7983
16557TIP3   OH271161   4.343   5.423   4.131  0.0980 -0.0613 -0.0169
16557TIP3    H171162   4.401   5.487   4.172  0.1332 -0.1025 -0.0019
16557TIP3    H271163   4.306   5.374   4.204  1.0972 -0.9458 -0.0758
16558TIP3   OH271164   0.126   4.032  12.888 -0.7450 -0.0809  0.3891
16558TIP3    H171165   0.043   3.984  12.888 -2.3840  2.5055 -1.0610
16558TIP3    H271166   0.117   4.094  12.960  0.2246 -0.2529  0.6578
16559TIP3   OH271167   2.373   2.127   4.856 -0.0405  0.0529  0.1492
16559TIP3    H171168   2.361   2.159   4.946 -0.2979 -0.7752  0.4158
16559TIP3    H271169   2.307   2.174   4.805 -1.5321 -1.2144  0.8251
16560TIP3   OH271170   6.356   6.208  12.600 -0.0197 -0.1517 -0.3834
16560TIP3    H171171   6.408   6.128  12.599 -0.9214 -0.7667  0.0832
16560TIP3    H271172   6.266   6.178  12.588 -0.2878  0.8791 -1.1035
16561TIP3   OH271173   1.628   0.718  14.175 -0.4056  0.8004 -0.2062
16561TIP3    H171174   1.660   0.638  14.133 -1.9829 -0.9160  1.6351
16561TIP3    H271175   1.533   0.715  14.163 -0.5215  2.3068  0.1005
16562TIP3   OH271176   5.356   0.932   2.547  0.4788  0.8311 -1.3974
16562TIP3    H171177   5.427   0.990   2.573  0.6241  0.3003 -0.5791
16562TIP3    H271178   5.277   0.979   2.571  0.6095  0.1856  0.4484
16563TIP3   OH271179   4.214   6.014  14.645  0.2782 -0.0945  0.1181
16563TIP3    H171180   4.190   6.006  14.553 -0.2813 -1.8026  0.3716
16563TIP3    H271181   4.303   5.979  14.651  1.2132  2.0568 -0.0812
16564TIP3   OH271182   0.059   3.883  12.072  0.5182 -0.3130  0.6787
16564TIP3    H171183   0.101   3.833  12.142  1.0929  0.1513  0.6727
16564TIP3    H271184   0.131   3.915  12.019  0.2970  1.9769  1.6454
16565TIP3   OH271185   6.676   1.537  13.551 -0.1439  0.2474  0.0722
16565TIP3    H171186   6.709   1.549  13.462  2.0824 -0.0841  0.7948
16565TIP3    H271187   6.611   1.607  13.562  0.5267  1.1383 -1.3469
16566TIP3   OH271188   5.837   4.479   0.973 -1.3325  0.1784  0.2708
16566TIP3    H171189   5.880   4.435   1.047  1.0006  1.0339 -0.4710
16566TIP3    H271190   5.744   4.465   0.987 -0.8340 -1.9404  1.9335
16567TIP3   OH271191   6.483   3.346   4.576 -0.1396  0.2521 -0.1163
16567TIP3    H171192   6.457   3.268   4.625  0.0452  0.1834 -0.1263
16567TIP3    H271193   6.525   3.403   4.640 -1.1117  0.7513  0.0842
16568TIP3   OH271194   2.005   3.435  13.887 -0.2629 -0.4075  0.4617
16568TIP3    H171195   1.931   3.489  13.912 -1.5016 -2.6770  2.0334
16568TIP3    H271196   1.985   3.348  13.922  1.3328 -2.0904 -2.3875
16569TIP3   OH271197   4.416   0.997  15.904 -0.3306  0.1048 -0.3535
16569TIP3    H171198   4.404   1.036  15.817 -1.8570  1.4196  0.4105
16569TIP3    H271199   4.440   1.070  15.960  1.9935 -0.9349  0.1517
16570TIP3   OH271200   2.037   1.750  12.002  0.4093  0.4365 -0.4707
16570TIP3    H171201   2.037   1.662  12.039  1.0301 -0.1057 -1.7031
16570TIP3    H271202   2.129   1.772  11.993  0.2576  1.2167 -0.1855
16571TIP3   OH271203   1.439   3.190   4.371  0.4303  0.4052  0.3021
16571TIP3    H171204   1.433   3.263   4.432  1.9936 -0.4661  1.5569
16571TIP3    H271205   1.526   3.198   4.332  1.1771 -1.4732  1.4454
16572TIP3   OH271206   3.594   2.544   4.566 -0.0605  0.3389 -0.1588
16572TIP3    H171207   3.657   2.614   4.549  0.0807  0.2434 -0.0382
16572TIP3    H271208   3.623   2.505   4.648 -0.1906  0.1972 -0.1787
16573TIP3   OH271209   4.027   1.894  11.367  0.7293 -0.1376  0.3974
16573TIP3    H171210   4.095   1.957  11.390  0.8996  0.5674 -1.7667
16573TIP3    H271211   4.072   1.809  11.367  1.4613  0.2308 -0.2961
16574TIP3   OH271212   0.540   2.247  14.263 -0.1683  0.0446 -0.5150
16574TIP3    H171213   0.543   2.317  14.198  0.6685  1.2999  0.8219
16574TIP3    H271214   0.479   2.279  14.330  0.5925 -0.2847  0.3450
16575TIP3   OH271215   0.371   6.745   4.537 -0.2314  0.2104  0.4661
16575TIP3    H171216   0.455   6.753   4.583 -0.0253  2.4549 -0.1695
16575TIP3    H271217   0.395   6.737   4.445 -0.6911  0.2605  0.3420
16576TIP3   OH271218   1.034   0.782   4.849  0.0453 -0.2203 -0.6236
16576TIP3    H171219   1.035   0.782   4.754  1.3927 -1.6012 -0.6452
16576TIP3    H271220   0.948   0.748   4.873 -0.9419  1.6880 -1.2883
16577TIP3   OH271221   6.762   3.623   5.084 -0.4380  0.5946  0.2864
16577TIP3    H171222   6.764   3.529   5.100  0.8065  0.7654  1.2498
16577TIP3    H271223   6.741   3.631   4.991  0.6823 -0.6813 -0.1102
16578TIP3   OH271224   5.339   3.748   5.547 -0.2571 -0.3437  0.0913
16578TIP3    H171225   5.416   3.794   5.513 -0.1665 -0.1577  0.5310
16578TIP3    H271226   5.348   3.658   5.515  0.8551 -0.6707  1.2446
16579TIP3   OH271227   5.449   1.566   4.532  0.1444 -0.2280 -0.3777
16579TIP3    H171228   5.459   1.472   4.515  0.8212 -0.2438  0.0573
16579TIP3    H271229   5.523   1.606   4.486  0.5071 -0.0233  0.3639
16580TIP3   OH271230   5.468   0.760   2.349 -0.1852 -0.3871 -0.4973
16580TIP3    H171231   5.428   0.779   2.434 -0.7127  1.3893 -1.1099
16580TIP3    H271232   5.410   0.802   2.285 -1.6550 -4.3137 -2.1043
16581TIP3   OH271233   0.747   4.864   0.170  0.4926  0.4947  0.3521
16581TIP3    H171234   0.680   4.878   0.237  0.5458 -1.1460  0.8030
16581TIP3    H271235   0.820   4.823   0.216  0.2633 -1.3114 -0.7852
16582TIP3   OH271236   6.044   3.554  15.553  0.2277 -0.2298 -0.9394
16582TIP3    H171237   5.996   3.551  15.470  1.1378  0.1428 -1.4929
16582TIP3    H271238   5.995   3.494  15.610 -0.5599 -0.3007 -1.6549
16583TIP3   OH271239   3.841   1.265  16.628 -0.1051 -0.1559  0.0637
16583TIP3    H171240   3.814   1.289  16.539  1.2507 -0.6728 -0.5164
16583TIP3    H271241   3.876   1.346  16.665  0.9321 -0.3225 -0.5163
16584TIP3   OH271242   5.772   0.151  15.178  0.5519  0.2616 -0.5962
16584TIP3    H171243   5.715   0.115  15.109  1.0310 -2.7048  0.4261
16584TIP3    H271244   5.844   0.191  15.130 -0.1070  0.0230 -1.8493
16585TIP3   OH271245   4.534   3.134   5.333  0.4540  0.1710  0.0869
16585TIP3    H171246   4.622   3.170   5.327  1.2448 -1.4512  1.2267
16585TIP3    H271247   4.490   3.187   5.399  0.8687  0.4027  0.1750
16586TIP3   OH271248   2.366   0.055   4.443  0.0852  0.1880 -0.0210
16586TIP3    H171249   2.316   0.064   4.361  0.1685 -0.6603 -0.1727
16586TIP3    H271250   2.319  -0.013   4.492 -0.5017  1.3408  1.0589
16587TIP3   OH271251   4.644   3.759  11.352  0.0690 -0.2131  0.1788
16587TIP3    H171252   4.610   3.845  11.378 -1.0933 -0.8668  0.8828
16587TIP3    H271253   4.570   3.715  11.310  1.2776 -0.0402 -2.3475
16588TIP3   OH271254   4.245   3.070   2.605 -0.3279  0.1131  0.4168
16588TIP3    H171255   4.338   3.077   2.584 -0.2022 -0.1066  0.8758
16588TIP3    H271256   4.203   3.049   2.522 -0.0920  1.1750  0.0127
16589TIP3   OH271257   0.381   5.077   0.093  0.1408  0.2114 -0.3407
16589TIP3    H171258   0.427   5.140   0.149  1.0524 -2.3181  2.0093
16589TIP3    H271259   0.289   5.089   0.116  0.0916  1.8556 -1.2754
16590TIP3   OH271260   0.761   2.887   2.318 -0.0371  0.1385 -0.2447
16590TIP3    H171261   0.712   2.947   2.374  0.6794 -0.6010  1.2237
16590TIP3    H271262   0.698   2.860   2.251 -1.0663  0.6908  0.4748
16591TIP3   OH271263   1.080   3.161  13.631 -0.1540 -0.3002  0.1229
16591TIP3    H171264   1.053   3.200  13.548  2.4023  2.7622  0.5328
16591TIP3    H271265   1.046   3.221  13.697  1.1543 -0.5127  1.0181
16592TIP3   OH271266   1.505   1.299   3.462  0.4049 -0.0333 -0.3880
16592TIP3    H171267   1.593   1.279   3.430  0.4325 -1.3082  0.4140
16592TIP3    H271268   1.474   1.217   3.501 -1.5786  0.0624 -1.5955
16593TIP3   OH271269   3.816   6.498   3.130  0.1532 -0.1898 -0.6180
16593TIP3    H171270   3.859   6.465   3.051 -0.1616 -1.4477 -0.2930
16593TIP3    H271271   3.748   6.557   3.097 -0.4850 -1.2960 -1.3360
16594TIP3   OH271272   2.793   5.640  11.764 -0.7461 -0.1779 -0.7559
16594TIP3    H171273   2.788   5.545  11.760  0.9952 -0.2839 -1.1676
16594TIP3    H271274   2.812   5.667  11.674  0.4687  0.4085 -0.3547
16595TIP3   OH271275   1.669   3.664   1.713 -0.0685  0.5248 -0.0332
16595TIP3    H171276   1.756   3.623   1.711  0.3878  1.4541  0.1225
16595TIP3    H271277   1.653   3.684   1.805  0.6993  2.6464 -0.2902
16596TIP3   OH271278   5.304   4.158  13.739  0.0421  0.3292  0.1277
16596TIP3    H171279   5.367   4.208  13.688  0.8346 -0.6444  0.1068
16596TIP3    H271280   5.317   4.188  13.829  1.3814 -0.6480  0.3038
16597TIP3   OH271281   3.138   2.103   3.361 -0.0022 -0.1673  0.1070
16597TIP3    H171282   3.089   2.023   3.383 -0.6485  0.5294  1.3399
16597TIP3    H271283   3.150   2.099   3.266 -2.0524 -0.6092 -0.1884
16598TIP3   OH271284   4.811   2.118   1.407 -0.1581  0.2099  0.0483
16598TIP3    H171285   4.833   2.068   1.328 -1.1233 -1.3206  0.7004
16598TIP3    H271286   4.718   2.102   1.420 -0.0238  0.4802  1.4734
16599TIP3   OH271287   1.679   3.223   0.479 -0.0982  0.2265  0.5407
16599TIP3    H171288   1.617   3.246   0.548  0.3694 -0.2558  1.1490
16599TIP3    H271289   1.740   3.162   0.522 -1.6463 -2.6957 -1.0859
16600TIP3   OH271290   5.447   0.778  12.429  0.3828 -0.6511  0.0260
16600TIP3    H171291   5.430   0.825  12.510  0.7297 -2.4799  1.2139
16600TIP3    H271292   5.538   0.750  12.435  0.1505 -1.6033 -0.5526
16601TIP3   OH271293   2.227   4.965  13.815 -0.2874  0.1917 -0.4078
16601TIP3    H171294   2.250   4.881  13.854 -0.3946  0.3724  0.0504
16601TIP3    H271295   2.311   5.003  13.788 -0.1696  0.2724  0.0700
16602TIP3   OH271296   4.882   6.187  13.757  0.3248 -0.0260 -0.0694
16602TIP3    H171297   4.969   6.150  13.747  0.2079 -0.0267 -1.1234
16602TIP3    H271298   4.884   6.268  13.706 -0.1090  0.2756  0.3825
16603TIP3   OH271299   4.089   5.077   0.810 -0.4254 -0.1133  0.1192
16603TIP3    H171300   4.089   5.052   0.903 -1.0014 -0.1507  0.1161
16603TIP3    H271301   4.141   5.010   0.767  0.6184  0.4087  0.5403
16604TIP3   OH271302   5.919   4.583   1.659 -0.1402 -0.3146  0.1670
16604TIP3    H171303   5.856   4.516   1.634 -0.8990  0.4193  0.0353
16604TIP3    H271304   5.884   4.620   1.740 -0.1367  0.4011 -0.1422
16605TIP3   OH271305   1.759   5.826  10.815  0.0446  0.6052 -0.3465
16605TIP3    H171306   1.823   5.761  10.843 -2.0969 -1.1966  0.6727
16605TIP3    H271307   1.705   5.781  10.751 -1.6780  1.2268  0.6108
16606TIP3   OH271308   0.912   0.963   5.461 -0.9902 -0.7373  0.1897
16606TIP3    H171309   0.997   0.944   5.499 -1.2882  0.0945  1.3538
16606TIP3    H271310   0.867   0.879   5.458 -0.1708 -1.1685 -0.3650
16607TIP3   OH271311   4.045   0.308   1.449 -0.3243 -0.3042 -1.0229
16607TIP3    H171312   3.992   0.340   1.375 -0.6726 -0.4533 -0.8410
16607TIP3    H271313   4.117   0.370   1.455 -1.2522  0.7561 -0.3716
16608TIP3   OH271314   1.663   5.868   3.958 -0.2530 -0.5441  0.8305
16608TIP3    H171315   1.678   5.958   3.928  0.0370 -1.4689 -2.2214
16608TIP3    H271316   1.750   5.829   3.959 -0.6538 -1.8031 -1.9843
16609TIP3   OH271317   4.302   1.662  16.761  0.9313  0.4826 -0.0249
16609TIP3    H171318   4.348   1.744  16.776  1.6652 -0.0467  0.7382
16609TIP3    H271319   4.371   1.596  16.758  0.3616 -0.0964 -0.7476
16610TIP3   OH271320   4.934   2.690  14.894  0.3750  0.0503 -0.2511
16610TIP3    H171321   5.006   2.753  14.892  1.1080 -0.7338  0.4813
16610TIP3    H271322   4.946   2.636  14.816  0.4818  0.0211 -0.2134
16611TIP3   OH271323   2.515   1.432  11.248  0.0367 -0.1365 -0.3700
16611TIP3    H171324   2.606   1.405  11.253  0.2659  0.5388 -0.7220
16611TIP3    H271325   2.482   1.393  11.167 -0.5308 -1.9108  0.6611
16612TIP3   OH271326   3.450   1.311  10.335  0.7117  0.1580  0.2594
16612TIP3    H171327   3.380   1.355  10.288  0.8904 -0.7933 -0.9365
16612TIP3    H271328   3.409   1.234  10.374  0.5796  0.8953  1.6619
16613TIP3   OH271329   4.663   3.280   2.269 -0.3318 -0.0548  0.5520
16613TIP3    H171330   4.582   3.252   2.225 -0.1555  0.0862  0.1355
16613TIP3    H271331   4.641   3.364   2.309  0.2133  1.0542 -1.3766
16614TIP3   OH271332   0.166   3.619   6.060  0.3911  0.0292  0.1602
16614TIP3    H171333   0.152   3.699   6.009 -0.4037 -1.0947 -1.4951
16614TIP3    H271334   0.170   3.648   6.151 -1.8505  1.7560 -0.2043
16615TIP3   OH271335   3.338   0.448  11.124 -0.5322 -0.0618  0.6081
16615TIP3    H171336   3.336   0.444  11.028 -1.3746  1.5999  0.5235
16615TIP3    H271337   3.254   0.485  11.148  0.2152  0.8440  1.9123
16616TIP3   OH271338   0.810   0.765  10.728 -0.0699 -0.3550 -0.5915
16616TIP3    H171339   0.811   0.859  10.710 -1.6857  0.3810  2.3536
16616TIP3    H271340   0.855   0.757  10.812  0.1156 -2.2491 -0.8383
16617TIP3   OH271341   3.533   1.869   0.270  0.2375  0.5190 -1.0597
16617TIP3    H171342   3.498   1.953   0.299  0.2164  0.7747 -1.8194
16617TIP3    H271343   3.496   1.856   0.183 -2.3479 -1.7762  0.2129
16618TIP3   OH271344   0.794   4.640   3.608  0.2173  0.1082 -0.2426
16618TIP3    H171345   0.765   4.717   3.657 -0.5885  0.2375 -0.9104
16618TIP3    H271346   0.723   4.577   3.618  0.3124 -0.0847 -0.7468
16619TIP3   OH271347   5.880   0.850  15.760 -0.4646 -0.3091 -0.1162
16619TIP3    H171348   5.947   0.892  15.706 -1.0493 -0.9325 -1.3726
16619TIP3    H271349   5.807   0.835  15.701 -0.8204 -1.7763  0.6334
16620TIP3   OH271350   2.509   3.025  11.970  0.3628 -0.3532  0.4948
16620TIP3    H171351   2.589   3.058  12.012  0.1013  0.8279  0.0975
16620TIP3    H271352   2.488   3.090  11.903 -0.2043 -1.3287 -0.3000
16621TIP3   OH271353   4.301   6.638  11.746  0.0057 -0.0739 -0.0379
16621TIP3    H171354   4.248   6.627  11.825  1.5923  2.0326  1.4437
16621TIP3    H271355   4.267   6.718  11.706 -0.0835 -0.5500 -0.9353
16622TIP3   OH271356   3.584   5.670   2.871 -0.5476  0.2105  0.5951
16622TIP3    H171357   3.647   5.607   2.906  0.9382  0.4701 -1.4496
16622TIP3    H271358   3.621   5.756   2.892  0.7089  0.3880 -1.9084
16623TIP3   OH271359   3.318   0.052   4.281  0.4703 -0.4264 -0.5715
16623TIP3    H171360   3.243  -0.007   4.272  1.7372 -2.0235 -1.2016
16623TIP3    H271361   3.365   0.020   4.358  0.5011  0.6088 -0.1327
16624TIP3   OH271362   4.543   0.027   1.744  0.7197 -0.2489 -0.2837
16624TIP3    H171363   4.556   0.121   1.762  0.1846 -0.1378 -0.4644
16624TIP3    H271364   4.616  -0.016   1.789 -1.1285 -0.1012  3.2121
16625TIP3   OH271365   5.972   2.127  12.213 -0.0313 -0.3011 -0.0544
16625TIP3    H171366   5.942   2.084  12.134 -1.1364  0.0969  0.1365
16625TIP3    H271367   6.054   2.170  12.188  0.3048 -1.2529 -0.6259
16626TIP3   OH271368   0.916   3.818   2.981 -0.5074  0.1714  0.4321
16626TIP3    H171369   0.872   3.787   3.060  0.5080  0.4266  1.1165
16626TIP3    H271370   0.974   3.747   2.956 -1.1209 -0.0753 -0.3411
16627TIP3   OH271371   1.346   3.254  15.472  0.4094  0.1642  0.1569
16627TIP3    H171372   1.393   3.266  15.389 -1.0021 -0.0190 -0.6893
16627TIP3    H271373   1.274   3.195  15.451  0.4642 -0.5050  1.7012
16628TIP3   OH271374   5.155   0.590   3.168 -0.2959 -0.2019 -0.3621
16628TIP3    H171375   5.090   0.520   3.171  0.3286 -0.7580  2.5594
16628TIP3    H271376   5.239   0.545   3.154 -0.2196  0.3149 -1.7781
16629TIP3   OH271377   5.855   4.499  14.025 -0.7529  0.4912  0.3884
16629TIP3    H171378   5.948   4.476  14.025 -1.0316 -0.7226  0.1865
16629TIP3    H271379   5.835   4.514  13.932 -0.7059  0.9692  0.4567
16630TIP3   OH271380   3.226   6.118  10.913 -0.9022 -0.5752  0.5376
16630TIP3    H171381   3.165   6.045  10.902 -0.4726 -1.1393  1.7261
16630TIP3    H271382   3.308   6.086  10.875 -1.1518 -0.0673 -0.4561
16631TIP3   OH271383   2.665   5.186  12.555  0.3261  0.0692 -0.3628
16631TIP3    H171384   2.746   5.167  12.508  0.2579  0.7365 -0.7646
16631TIP3    H271385   2.597   5.140  12.506  0.0715  1.7873 -1.7007
16632TIP3   OH271386   0.379   0.906  11.665  0.9408 -0.4355  0.6036
16632TIP3    H171387   0.337   0.978  11.712  1.6857 -0.4846  1.3546
16632TIP3    H271388   0.472   0.928  11.664  1.2827 -1.7459  1.4905
16633TIP3   OH271389   0.399   3.846  15.237  0.0175  0.0098  0.1352
16633TIP3    H171390   0.385   3.838  15.143 -2.7192  0.9945  0.3526
16633TIP3    H271391   0.393   3.756  15.270 -0.5258 -0.1993 -0.5033
16634TIP3   OH271392   5.641   3.617  10.482  0.5497  0.1047  0.4845
16634TIP3    H171393   5.563   3.660  10.517 -0.1818 -0.8292  0.0323
16634TIP3    H271394   5.616   3.525  10.471  1.4522 -0.0599 -0.3991
16635TIP3   OH271395   3.733   0.991  12.800  0.2864  0.5910  0.0116
16635TIP3    H171396   3.652   0.953  12.764 -0.1587  1.4841  0.0453
16635TIP3    H271397   3.784   1.014  12.722  0.1902  0.6927 -0.0224
16636TIP3   OH271398   5.234   3.132   1.382  0.5017 -0.2159  0.3410
16636TIP3    H171399   5.223   3.192   1.456  0.8921  0.4803 -0.1610
16636TIP3    H271400   5.319   3.091   1.397  1.4495  1.3084 -0.6900
16637TIP3   OH271401   6.142   5.920   2.682 -0.2119  0.2289  0.2734
16637TIP3    H171402   6.150   5.968   2.600  1.0889  0.1098  0.3129
16637TIP3    H271403   6.141   5.987   2.750 -0.9248  0.3089  0.1924
16638TIP3   OH271404   1.904   2.488  12.029 -0.0971 -0.3802  0.4836
16638TIP3    H171405   1.995   2.470  12.007 -0.4666 -0.7642 -0.8544
16638TIP3    H271406   1.908   2.554  12.097  1.1826 -0.6274  0.6717
16639TIP3   OH271407   0.604   0.762   0.826  0.0438  0.0797 -0.2502
16639TIP3    H171408   0.663   0.738   0.897 -0.4478 -3.0197 -0.7690
16639TIP3    H271409   0.552   0.834   0.862  0.9399 -0.2745  1.9225
16640TIP3   OH271410   5.410   0.468  12.475  0.7040 -0.4305 -0.2911
16640TIP3    H171411   5.405   0.543  12.533  1.8234 -0.2860 -0.3486
16640TIP3    H271412   5.319   0.447  12.454  0.3564  0.5367  0.1920
16641TIP3   OH271413   2.821   2.066   2.677 -0.1819 -0.2541  0.0602
16641TIP3    H171414   2.729   2.076   2.701 -0.4177  0.1072 -0.9308
16641TIP3    H271415   2.864   2.141   2.717 -0.1846 -0.8127  1.1307
16642TIP3   OH271416   0.741   2.050  14.295  0.4246 -0.1817  0.2734
16642TIP3    H171417   0.744   2.030  14.202  1.1203 -0.6678  0.3851
16642TIP3    H271418   0.675   2.118  14.304  1.8261  1.4316 -0.8794
16643TIP3   OH271419   5.314   2.758  12.806  0.3088  0.2971 -0.3900
16643TIP3    H171420   5.260   2.683  12.782  1.8818 -0.7022 -0.8823
16643TIP3    H271421   5.300   2.821  12.734 -0.5494  0.2574 -0.2716
16644TIP3   OH271422   5.639   2.621   4.347  0.4691 -0.2877 -0.0551
16644TIP3    H171423   5.699   2.588   4.279  1.0163  0.5254  0.0196
16644TIP3    H271424   5.671   2.709   4.366  0.4854 -0.5885  1.4402
16645TIP3   OH271425   5.261   4.708  14.005  0.4709  0.1322 -0.5537
16645TIP3    H171426   5.224   4.626  14.038  0.2777  0.5126  0.1761
16645TIP3    H271427   5.346   4.683  13.969  1.1440 -0.1331  1.1501
16646TIP3   OH271428   0.556   3.184  13.449  0.2884 -0.2283  0.0850
16646TIP3    H171429   0.629   3.239  13.476 -0.0065  0.1388  0.1498
16646TIP3    H271430   0.596   3.107  13.408  0.7768 -1.2002  2.2874
16647TIP3   OH271431   1.177   3.556   1.798 -0.1722 -0.0260  0.1898
16647TIP3    H171432   1.233   3.605   1.738 -1.5214  0.7029 -0.5397
16647TIP3    H271433   1.124   3.623   1.841 -0.1162 -0.6511  1.2496
16648TIP3   OH271434   4.794   4.146   4.203 -0.1825 -0.1865 -0.1454
16648TIP3    H171435   4.883   4.183   4.200 -0.3781  0.4493  1.0794
16648TIP3    H271436   4.807   4.053   4.222  0.2091  0.1751  1.5293
16649TIP3   OH271437   1.038   6.277  11.393 -0.5534 -0.5223 -0.0619
16649TIP3    H171438   1.115   6.240  11.349 -0.8029  1.0615 -1.9416
16649TIP3    H271439   1.072   6.316  11.474  0.7189  0.5221 -1.0672
16650TIP3   OH271440   0.606   1.967  15.126 -0.5530 -0.1468 -0.5383
16650TIP3    H171441   0.542   1.907  15.163  0.2849  0.3532  1.8925
16650TIP3    H271442   0.555   2.024  15.068 -2.2798  0.0656  1.0916
16651TIP3   OH271443   3.140   2.443  14.405  0.8429  0.2272  0.1355
16651TIP3    H171444   3.051   2.477  14.395  1.7322  3.2375  1.3555
16651TIP3    H271445   3.156   2.443  14.499  2.0438 -0.4920 -0.0417
16652TIP3   OH271446   3.021   2.788  15.350  0.1902 -0.3377  0.0112
16652TIP3    H171447   2.951   2.851  15.367 -0.3822 -0.5085 -1.5527
16652TIP3    H271448   3.054   2.811  15.263  2.8808  0.4331  1.1555
16653TIP3   OH271449   0.715   6.382  13.170 -0.1999  0.3277  0.1415
16653TIP3    H171450   0.711   6.300  13.120  0.3977  0.3582  0.0256
16653TIP3    H271451   0.675   6.361  13.254  1.9375 -0.7620  0.9833
16654TIP3   OH271452   3.461   5.982   1.315  0.3539  0.3003  0.2256
16654TIP3    H171453   3.504   5.898   1.330 -0.4097 -0.2583 -0.6513
16654TIP3    H271454   3.501   6.041   1.379  2.4168 -0.1896 -0.5312
16655TIP3   OH271455   1.066   4.103   0.151  0.3126  0.6937 -0.4675
16655TIP3    H171456   1.156   4.089   0.120 -0.0085  1.1614 -1.6900
16655TIP3    H271457   1.060   4.051   0.231  1.4281  0.0124 -0.7935
16656TIP3   OH271458   4.241   3.086   0.327 -0.0854 -0.0730 -0.1169
16656TIP3    H171459   4.334   3.109   0.325  0.6814 -2.7492  0.0913
16656TIP3    H271460   4.240   2.992   0.309 -2.7710 -0.1178 -0.0755
16657TIP3   OH271461   5.471   6.453  12.931 -0.1069 -0.1490 -0.3220
16657TIP3    H171462   5.404   6.518  12.953  0.3210  0.8671 -1.8624
16657TIP3    H271463   5.545   6.476  12.987 -0.6448 -0.6029  0.6041
16658TIP3   OH271464   3.901   1.393  15.248  0.4265  0.0102  0.6384
16658TIP3    H171465   3.975   1.331  15.245 -0.9519 -1.6801 -0.5544
16658TIP3    H271466   3.841   1.355  15.313  0.6884  1.5235  1.8125
16659TIP3   OH271467   1.216   0.949  10.741  0.3562  0.0300  0.9056
16659TIP3    H171468   1.234   0.950  10.647 -0.4619 -1.1250  0.7069
16659TIP3    H271469   1.192   1.039  10.762  0.8745  0.3739  0.0809
16660TIP3   OH271470   6.653   2.197   4.799  0.7592 -0.2311 -0.1381
16660TIP3    H171471   6.617   2.147   4.872  0.2629 -0.1773 -0.3408
16660TIP3    H271472   6.606   2.164   4.722  0.1587  0.7965 -0.2247
16661TIP3   OH271473   3.604   5.465   0.135 -0.2047  0.2412 -0.0267
16661TIP3    H171474   3.656   5.519   0.075 -1.9443 -0.1653 -2.0495
16661TIP3    H271475   3.527   5.518   0.155 -0.6883 -0.4751  0.0542
16662TIP3   OH271476   1.314   3.159   2.017  0.0180  0.3480 -0.1161
16662TIP3    H171477   1.302   3.200   2.103 -2.0971 -0.2166 -0.1065
16662TIP3    H271478   1.255   3.207   1.959 -2.0960 -2.1888 -0.2283
16663TIP3   OH271479   4.736   3.109   5.581 -0.2966  0.0166 -0.4368
16663TIP3    H171480   4.645   3.139   5.582 -0.7237 -1.1656  1.0325
16663TIP3    H271481   4.772   3.138   5.665  0.2981 -0.5574 -0.4802
16664TIP3   OH271482   6.152   2.581   4.700 -0.4272 -0.0733 -0.7775
16664TIP3    H171483   6.167   2.489   4.723 -0.3913  0.0073 -0.4702
16664TIP3    H271484   6.203   2.595   4.621 -0.6801 -0.4026 -1.0030
16665TIP3   OH271485   1.438   4.302  14.433 -0.1782 -0.0097  0.0748
16665TIP3    H171486   1.410   4.270  14.518  0.2127 -0.8013 -0.0855
16665TIP3    H271487   1.356   4.315  14.384 -0.4363  0.9427  0.7197
16666TIP3   OH271488   4.196   1.981  12.087 -0.1669 -0.5374 -0.2859
16666TIP3    H171489   4.280   2.028  12.094 -1.3959  1.7482  0.1041
16666TIP3    H271490   4.138   2.027  12.148 -2.8071  0.5822 -3.3475
16667TIP3   OH271491   5.329   2.240  13.328  0.0198 -0.3447  0.5038
16667TIP3    H171492   5.393   2.233  13.399 -0.0244  0.5740  0.6522
16667TIP3    H271493   5.274   2.315  13.353 -0.6765 -0.6882  0.0328
16668TIP3   OH271494   1.621   6.835  11.711  0.1818 -0.2901 -0.2721
16668TIP3    H171495   1.670   6.812  11.790  0.0927  0.9609  0.1686
16668TIP3    H271496   1.548   6.773  11.709 -0.0613 -0.0742  0.8737
16669TIP3   OH271497   1.837   6.027   2.922 -0.1866  0.8277 -0.4102
16669TIP3    H171498   1.759   6.000   2.873  0.3902  0.2981 -1.0414
16669TIP3    H271499   1.897   5.953   2.915  0.8356  1.6752 -0.9280
16670TIP3   OH271500   6.084   0.971   1.918 -0.2074 -0.3503  0.3432
16670TIP3    H171501   6.046   0.921   1.846  1.2279 -1.2873  0.1911
16670TIP3    H271502   6.029   0.952   1.994  0.1999 -2.0434  0.2390
16671TIP3   OH271503   1.195   1.685   3.757  0.6729  0.3762  0.4543
16671TIP3    H171504   1.226   1.755   3.699 -4.1013  0.7670 -2.1359
16671TIP3    H271505   1.189   1.608   3.700  5.3052 -2.4171  3.1055
16672TIP3   OH271506   2.490   1.296   3.500 -0.1688 -0.0601 -0.6786
16672TIP3    H171507   2.436   1.333   3.430  0.0937  0.5744 -0.5543
16672TIP3    H271508   2.560   1.360   3.513  0.5101 -0.7786 -0.7059
16673TIP3   OH271509   6.665   5.289   2.035  0.4130  0.9980 -0.1510
16673TIP3    H171510   6.705   5.319   2.117 -0.2251 -0.4147  0.7032
16673TIP3    H271511   6.738   5.284   1.974  1.2259  0.3088  0.8424
16674TIP3   OH271512   5.365   2.499   1.858 -0.0981  0.4492  0.9718
16674TIP3    H171513   5.299   2.446   1.814  1.7719 -2.0031  0.9672
16674TIP3    H271514   5.327   2.517   1.944 -1.2939  0.2297  0.5133
16675TIP3   OH271515   4.442   3.420  16.834  0.3398  0.2769 -0.1552
16675TIP3    H171516   4.527   3.462  16.847  0.6770 -0.8679  1.6588
16675TIP3    H271517   4.461   3.344  16.779  0.3330  0.4734 -0.4335
16676TIP3   OH271518   5.296   1.393  14.685 -0.0298 -0.1160 -0.0253
16676TIP3    H171519   5.329   1.369  14.599  0.2702 -1.4890  0.4416
16676TIP3    H271520   5.375   1.420  14.734 -0.1827  0.5498 -0.1338
16677TIP3   OH271521   4.574   1.749  11.683 -0.4070  0.0379 -0.4452
16677TIP3    H171522   4.575   1.703  11.599  1.2979 -1.1835  0.1961
16677TIP3    H271523   4.535   1.687  11.744  1.7144 -0.5538  0.3843
16678TIP3   OH271524   1.233   2.477   0.908  0.2856  0.4513  0.4783
16678TIP3    H171525   1.142   2.494   0.933 -0.1133 -2.9018  1.9656
16678TIP3    H271526   1.228   2.397   0.855  2.3063  0.5312  0.0993
16679TIP3   OH271527   0.779   0.021   5.704 -0.1646 -0.0420  0.1612
16679TIP3    H171528   0.838   0.007   5.630 -0.0034  1.8548 -0.0955
16679TIP3    H271529   0.805  -0.046   5.767 -0.1701 -1.5819 -1.3722
16680TIP3   OH271530   6.336   4.098  14.462 -0.3734  0.5449 -0.2147
16680TIP3    H171531   6.347   4.007  14.433  1.0614 -0.0339  1.9379
16680TIP3    H271532   6.259   4.129  14.413 -1.5657 -2.1468 -0.2560
16681TIP3   OH271533   5.237   3.890   1.805 -0.4111 -0.2944 -0.3044
16681TIP3    H171534   5.298   3.833   1.851 -1.3980 -1.5154 -0.4427
16681TIP3    H271535   5.272   3.895   1.716 -0.0626 -0.2904 -0.1690
16682TIP3   OH271536   3.626   0.559  15.330 -0.8814  0.3976 -0.4439
16682TIP3    H171537   3.704   0.598  15.291 -1.6109  0.2889 -2.1117
16682TIP3    H271538   3.660   0.489  15.386  0.2595  1.1743 -0.1286
16683TIP3   OH271539   4.448   5.933   4.142 -0.0778  0.4390  0.1296
16683TIP3    H171540   4.467   5.989   4.217 -0.4491 -1.0119  1.3682
16683TIP3    H271541   4.371   5.883   4.169  1.0131 -1.6057 -0.3488
16684TIP3   OH271542   1.453   0.957   1.015  0.2232  0.1496  0.3676
16684TIP3    H171543   1.509   0.982   1.089 -1.3226  1.7791  1.0664
16684TIP3    H271544   1.455   1.033   0.957 -0.8058  0.0172  0.1406
16685TIP3   OH271545   0.299   0.937   3.165 -0.2908 -0.5595 -0.8427
16685TIP3    H171546   0.240   0.955   3.238  1.6784 -0.5422  0.8576
16685TIP3    H271547   0.279   1.004   3.100  0.2736  1.7653  1.2305
16686TIP3   OH271548   1.891   3.953  11.554 -0.0727 -0.1086  0.5645
16686TIP3    H171549   1.929   3.927  11.470  0.1239 -0.1355  0.6600
16686TIP3    H271550   1.914   4.046  11.563 -0.5984  0.0495  0.3179
16687TIP3   OH271551   4.518   2.554  15.500  0.1208  0.3149 -0.3164
16687TIP3    H171552   4.597   2.502  15.513 -0.6951 -1.0789 -0.6525
16687TIP3    H271553   4.453   2.515  15.559  0.1572  2.6446  1.3847
16688TIP3   OH271554   0.962   0.186  16.757 -0.0567  0.4088 -0.5122
16688TIP3    H171555   1.038   0.235  16.727  1.7858 -0.8428  1.7070
16688TIP3    H271556   0.977   0.175  16.851 -1.7156 -2.0218 -0.4422
16689TIP3   OH271557   2.623   5.212   0.014  0.0578 -0.1057 -0.0355
16689TIP3    H171558   2.590   5.149   0.078  2.2778  0.9182  2.3596
16689TIP3    H271559   2.714   5.185  -0.000  0.3290  1.1583 -0.8155
16690TIP3   OH271560   6.779   2.231   0.341  0.4447 -0.1071  0.2852
16690TIP3    H171561   6.692   2.202   0.370 -0.3271  1.5773 -0.1815
16690TIP3    H271562   6.766   2.254   0.249  2.2393 -2.9794 -0.8179
16691TIP3   OH271563   1.913   4.779  13.319  0.1530 -0.0176 -0.0026
16691TIP3    H171564   1.888   4.748  13.232  0.9615  0.4874 -0.4276
16691TIP3    H271565   1.924   4.700  13.371 -0.4929 -0.3175 -0.3078
16692TIP3   OH271566   0.482   3.723   1.701 -0.4332  0.0523  0.1734
16692TIP3    H171567   0.432   3.764   1.630  0.2819  0.4359 -0.1168
16692TIP3    H271568   0.430   3.739   1.780  0.8164  3.4718  0.4671
16693TIP3   OH271569   3.237   2.412   3.284  0.1323 -0.0528  0.0237
16693TIP3    H171570   3.251   2.328   3.327 -0.5391 -0.1523  0.0561
16693TIP3    H271571   3.196   2.390   3.201  1.3393  0.1480 -0.6465
16694TIP3   OH271572   4.929   6.083   2.029 -0.1863  0.0316 -0.4951
16694TIP3    H171573   5.024   6.092   2.037 -0.0791 -1.7386  0.5434
16694TIP3    H271574   4.916   6.002   1.980 -1.1682  0.4464 -0.9489
16695TIP3   OH271575   2.611   4.390  12.878  0.1707 -0.1852  0.2286
16695TIP3    H171576   2.544   4.428  12.821  2.2658  0.4152 -1.9979
16695TIP3    H271577   2.623   4.454  12.948 -0.7595  0.2389  0.0109
16696TIP3   OH271578   1.605   0.698   4.820  0.4234 -0.5971 -0.1968
16696TIP3    H171579   1.559   0.762   4.767  0.4412  0.1095  0.6121
16696TIP3    H271580   1.590   0.615   4.776 -1.6562 -0.4049  0.0364
16697TIP3   OH271581   1.408   3.246  16.013  0.7040  0.4394  0.0405
16697TIP3    H171582   1.327   3.296  16.020  0.4244 -0.2435  2.7332
16697TIP3    H271583   1.477   3.311  16.027  0.6098  0.8311 -1.1856
16698TIP3   OH271584   1.268   2.584  12.372  0.5023 -0.3339 -0.0965
16698TIP3    H171585   1.204   2.528  12.415 -0.1931  1.4046  1.2817
16698TIP3    H271586   1.254   2.570  12.279 -1.0537 -0.9117  0.1900
16699TIP3   OH271587   5.340   0.262  10.716  0.0707 -0.2321 -0.3636
16699TIP3    H171588   5.258   0.303  10.690  0.8351  1.7693  0.1709
16699TIP3    H271589   5.319   0.169  10.726 -2.0585  0.1947 -0.4650
16700TIP3   OH271590   3.831   0.032  11.229 -0.5652 -0.4394 -0.1934
16700TIP3    H171591   3.838   0.090  11.305 -0.7221  1.1932 -1.3739
16700TIP3    H271592   3.921   0.006  11.210 -0.6725 -2.3309  1.5898
16701TIP3   OH271593   2.315   4.679   1.873 -0.1882 -0.0581  0.1133
16701TIP3    H171594   2.224   4.680   1.903 -0.1836 -1.8912  0.2954
16701TIP3    H271595   2.318   4.612   1.805  0.9438  0.2647 -0.1831
16702TIP3   OH271596   1.286   4.164   2.508 -0.1500  0.8350 -0.2549
16702TIP3    H171597   1.204   4.197   2.472  0.3843  0.9063 -1.4549
16702TIP3    H271598   1.265   4.075   2.535  0.0017 -0.2066 -3.1641
16703TIP3   OH271599   1.152   4.148   5.714  0.3894  0.4738  0.0158
16703TIP3    H171600   1.102   4.067   5.725  0.4626  0.4731  0.3788
16703TIP3    H271601   1.112   4.209   5.777  0.3582  0.7057 -0.2308
16704TIP3   OH271602   4.114   6.696   2.633  0.2724  0.8125 -0.6940
16704TIP3    H171603   4.206   6.722   2.637  0.0132  1.7044 -0.2067
16704TIP3    H271604   4.113   6.605   2.660  0.5749  1.9338  3.9756
16705TIP3   OH271605   1.637   5.621  11.463 -0.3490  0.2039 -0.1706
16705TIP3    H171606   1.656   5.708  11.427 -2.1830 -0.1835 -2.2822
16705TIP3    H271607   1.544   5.623  11.483 -0.5263 -1.4175 -0.7297
16706TIP3   OH271608   6.201   6.615  12.919  0.4878  0.2046  0.5755
16706TIP3    H171609   6.115   6.599  12.957 -0.2363  2.3611 -0.0222
16706TIP3    H271610   6.237   6.687  12.971  1.4160  0.1387  0.0412
16707TIP3   OH271611   1.201   5.959  16.786  0.1213  0.0461  0.1513
16707TIP3    H171612   1.111   5.944  16.756 -0.0877  0.5305  0.5103
16707TIP3    H271613   1.191   5.989  16.877  0.7392 -1.4614  0.7431
16708TIP3   OH271614   0.568   0.191   2.659  0.3362 -0.3721  0.1086
16708TIP3    H171615   0.560   0.270   2.713  2.5787  1.5030 -2.0452
16708TIP3    H271616   0.529   0.215   2.575 -0.8211 -2.3319  0.0379
16709TIP3   OH271617   0.272   6.615   3.173  0.3700 -0.0612 -0.3625
16709TIP3    H171618   0.220   6.534   3.178  2.7009 -1.5940  1.1960
16709TIP3    H271619   0.245   6.666   3.249  1.2256 -0.9420  0.5565
16710TIP3   OH271620   3.265   4.881   4.407 -0.0688  0.3274 -0.8708
16710TIP3    H171621   3.297   4.901   4.319  1.1870  0.1199 -0.4752
16710TIP3    H271622   3.309   4.944   4.464  1.6289 -1.5307  0.0022
16711TIP3   OH271623   2.682   0.269   3.472  0.5218 -0.3124  0.2160
16711TIP3    H171624   2.732   0.206   3.524  1.6696 -1.2372 -1.8731
16711TIP3    H271625   2.593   0.264   3.506  1.3617 -0.1914  2.6336
16712TIP3   OH271626   0.830   3.044  16.001 -0.3242 -0.2309  0.0764
16712TIP3    H171627   0.913   3.083  15.975 -0.8251  1.5296  0.9849
16712TIP3    H271628   0.836   3.035  16.097 -1.1272 -0.2052  0.1367
16713TIP3   OH271629   1.196   1.787  14.287 -0.0787 -0.4236  0.1536
16713TIP3    H171630   1.268   1.822  14.340 -1.6347  0.4956  1.7786
16713TIP3    H271631   1.183   1.698  14.321  0.1323 -0.5088  0.0139
16714TIP3   OH271632   6.576   5.364  16.948  0.0054 -0.5242 -0.2896
16714TIP3    H171633   6.605   5.288  16.898 -1.4798 -0.9046 -0.6365
16714TIP3    H271634   6.480   5.357  16.948 -0.2632  1.9739 -1.3898
16715TIP3   OH271635   0.838   0.620   2.544 -0.0242 -0.1701 -0.1872
16715TIP3    H171636   0.827   0.708   2.582  1.4084  0.3262 -0.8357
16715TIP3    H271637   0.871   0.567   2.616 -1.2983 -0.3060  0.3206
16716TIP3   OH271638   0.166   5.034   4.777 -0.4686  0.1182  0.0488
16716TIP3    H171639   0.114   5.111   4.755  0.3316  0.4930 -0.6374
16716TIP3    H271640   0.105   4.960   4.769 -1.1656  0.6461  0.4036
16717TIP3   OH271641   5.015   1.819  14.836  0.2755 -0.1177 -0.0801
16717TIP3    H171642   5.052   1.874  14.904 -0.6419 -1.0157  1.1896
16717TIP3    H271643   4.926   1.798  14.867 -0.1783 -0.5209 -1.5605
16718TIP3   OH271644   5.785   5.364   6.001 -0.3735 -0.3018  0.2891
16718TIP3    H171645   5.827   5.318   6.074 -1.3447 -1.4027  0.1856
16718TIP3    H271646   5.713   5.307   5.975 -0.5370  0.4637 -1.0192
16719TIP3   OH271647   3.638   0.988   0.353  0.4123 -0.1719 -0.0800
16719TIP3    H171648   3.620   1.001   0.260 -0.3296  1.5288  0.2721
16719TIP3    H271649   3.666   0.896   0.359  1.0206 -0.1659 -2.0402
16720TIP3   OH271650   6.636   5.876   1.488  0.6628  0.4252  0.0296
16720TIP3    H171651   6.555   5.850   1.443  0.5875 -0.9814  0.9125
16720TIP3    H271652   6.705   5.851   1.427  0.5657 -1.5966  0.6715
16721TIP3   OH271653   2.129   5.558  11.284  0.1586 -0.1388  0.1169
16721TIP3    H171654   2.114   5.585  11.193 -0.9638 -0.3556  0.2242
16721TIP3    H271655   2.177   5.476  11.277 -0.9009 -0.7405 -0.3199
16722TIP3   OH271656   5.907   5.851  16.588 -0.1323  0.7014 -0.0564
16722TIP3    H171657   5.851   5.801  16.528 -2.9709  1.2195  1.9399
16722TIP3    H271658   5.867   5.938  16.590  2.2471  1.8611 -0.3157
16723TIP3   OH271659   3.326   3.119   2.395 -0.3095 -0.2020 -0.6964
16723TIP3    H171660   3.272   3.158   2.327 -0.4922  0.2197 -0.3132
16723TIP3    H271661   3.271   3.119   2.473 -0.7225 -2.2343 -0.9153
16724TIP3   OH271662   4.616   3.983   3.775  0.0478 -0.0539 -0.1792
16724TIP3    H171663   4.521   3.976   3.775  0.0452 -0.0554  0.3001
16724TIP3    H271664   4.633   4.077   3.770 -0.0066  0.0683  1.3589
16725TIP3   OH271665   4.214   4.943   1.346  0.0447  0.0324 -0.0505
16725TIP3    H171666   4.182   4.860   1.382 -0.0530 -0.9873 -2.3417
16725TIP3    H271667   4.302   4.952   1.382  0.2297 -1.3042 -0.1415
16726TIP3   OH271668   4.978   4.582  13.144  0.2800  0.3906  0.3016
16726TIP3    H171669   5.043   4.645  13.113 -1.0365  0.9927 -1.3752
16726TIP3    H271670   4.935   4.550  13.064  0.5718 -2.3234  1.1085
16727TIP3   OH271671   0.737   6.738   0.021 -0.3391 -0.2617 -0.3411
16727TIP3    H171672   0.827   6.740  -0.012 -0.0805  0.1820  0.3609
16727TIP3    H271673   0.719   6.829   0.046 -0.2293 -0.7015  1.4705
16728TIP3   OH271674   2.645   4.074   1.248  0.0694 -0.1716 -0.0396
16728TIP3    H171675   2.582   4.060   1.318  1.2465  2.6307  1.7334
16728TIP3    H271676   2.686   3.988   1.236 -2.2586 -1.4430  0.4889
16729TIP3   OH271677   6.498   5.329   3.721  0.0747 -0.0996  0.7690
16729TIP3    H171678   6.553   5.266   3.767 -0.1255  0.1902  1.4339
16729TIP3    H271679   6.505   5.307   3.629 -1.2107 -2.1099  1.0928
16730TIP3   OH271680   0.907   4.039   1.339 -0.3327 -0.0953 -0.3556
16730TIP3    H171681   0.991   4.077   1.312 -0.4297  0.5001  0.1391
16730TIP3    H271682   0.869   4.106   1.396 -0.0306 -1.3865  1.4444
16731TIP3   OH271683   1.039   0.253  13.496 -0.2826  0.6704 -0.0709
16731TIP3    H171684   1.048   0.343  13.526  1.2066  0.1404  1.2219
16731TIP3    H271685   1.015   0.203  13.574  1.7830 -0.4564 -0.0750
16732TIP3   OH271686   4.808   6.180   0.972 -0.2458 -0.2676 -0.5103
16732TIP3    H171687   4.902   6.177   0.958  0.1436 -0.1957  1.7601
16732TIP3    H271688   4.798   6.192   1.066 -2.5435 -1.6843 -0.5065
16733TIP3   OH271689   0.434   1.737   5.230 -0.0420 -0.2108 -0.5349
16733TIP3    H171690   0.524   1.716   5.207 -0.4750 -1.2014 -1.4111
16733TIP3    H271691   0.441   1.793   5.307  1.2598 -3.4521  1.9522
16734TIP3   OH271692   2.578   1.827   2.203  0.2204 -0.5191  0.5919
16734TIP3    H171693   2.650   1.869   2.156  0.2927  0.2530  1.3555
16734TIP3    H271694   2.499   1.853   2.156  0.3923 -0.8038  0.1499
16735TIP3   OH271695   0.236   2.879  15.590  0.0229  0.8398 -0.4604
16735TIP3    H171696   0.239   2.962  15.542  1.0643 -0.1611 -2.2259
16735TIP3    H271697   0.265   2.813  15.527 -0.0526 -0.7881  1.1101
16736TIP3   OH271698   4.564   3.171   1.405  0.1038 -0.0727  0.5584
16736TIP3    H171699   4.582   3.145   1.315  0.5827 -0.0066  0.6328
16736TIP3    H271700   4.469   3.161   1.415 -0.6398  3.6815 -1.1814
16737TIP3   OH271701   2.250   2.727   3.098  0.0420  0.2268  0.2584
16737TIP3    H171702   2.334   2.682   3.098 -0.0192  0.0741 -1.2308
16737TIP3    H271703   2.219   2.721   3.189  0.4581 -1.9012  0.2971
16738TIP3   OH271704   6.243   0.278  11.996 -0.1523 -0.4831  0.6000
16738TIP3    H171705   6.185   0.330  11.940  1.3292 -0.5105 -1.0553
16738TIP3    H271706   6.255   0.196  11.948  1.3762 -0.3961  0.7956
16739TIP3   OH271707   0.268   3.146   4.549 -0.3297  0.7616  0.3387
16739TIP3    H171708   0.238   3.235   4.530  1.1686  0.8156 -2.0435
16739TIP3    H271709   0.362   3.155   4.565 -0.2018 -0.3695  0.2652
16740TIP3   OH271710   0.080   1.991   3.534 -0.6085  0.0429  0.1018
16740TIP3    H171711   0.122   1.911   3.566  0.4786 -0.2550 -1.9160
16740TIP3    H271712   0.141   2.061   3.557  0.0953 -0.1520 -1.0885
16741TIP3   OH271713   1.319   6.020   2.816 -0.4756  0.5295  0.3633
16741TIP3    H171714   1.245   6.070   2.849 -0.7695  1.1458 -1.1591
16741TIP3    H271715   1.297   6.002   2.725  0.1156 -1.4551  0.5593
16742TIP3   OH271716   5.767   5.618   0.581  0.1436 -0.3564 -0.6660
16742TIP3    H171717   5.850   5.619   0.629  0.5591 -0.2670 -1.3628
16742TIP3    H271718   5.702   5.589   0.645  0.0356  3.0536  0.9491
16743TIP3   OH271719   0.994   4.392  17.001 -0.0888  0.0254  0.4487
16743TIP3    H171720   1.038   4.312  16.972  0.8713  0.6391  0.1732
16743TIP3    H271721   0.921   4.402  16.940  0.3996 -0.0896 -0.1681
16744TIP3   OH271722   5.618   1.341   0.916  0.3724 -0.3037 -0.2598
16744TIP3    H171723   5.685   1.296   0.968  0.2626  1.0242  1.1232
16744TIP3    H271724   5.557   1.272   0.891  0.7545 -1.0997  0.8803
16745TIP3   OH271725   3.318   6.115   3.606  0.0976  0.4877 -0.1299
16745TIP3    H171726   3.258   6.087   3.675 -0.7837 -1.8128 -1.6897
16745TIP3    H271727   3.320   6.040   3.546 -0.6843  3.0361 -3.6027
16746TIP3   OH271728   1.558   5.615  13.977  0.2655 -0.3966 -0.4178
16746TIP3    H171729   1.560   5.710  13.963  0.0474 -0.3323 -0.0313
16746TIP3    H271730   1.615   5.601  14.052  2.6021 -0.9049 -2.1625
16747TIP3   OH271731   6.325   2.011  10.382  0.2947  0.1548  0.6125
16747TIP3    H171732   6.347   2.008  10.289  0.8578  0.1673  0.7430
16747TIP3    H271733   6.229   2.003  10.384  0.2483  0.4785  0.0182
16748TIP3   OH271734   0.353   5.516   5.628  0.5187 -0.0160  0.5172
16748TIP3    H171735   0.383   5.427   5.646 -0.3585 -0.5183 -0.4298
16748TIP3    H271736   0.262   5.517   5.658  0.3741  0.4142  0.0681
16749TIP3   OH271737   4.041   5.641   5.385 -0.0050  0.3144 -0.3753
16749TIP3    H171738   4.093   5.712   5.347  1.0809  0.6764  1.6491
16749TIP3    H271739   4.100   5.597   5.445 -1.2238 -1.1251 -0.1830
16750TIP3   OH271740   6.355   2.439  10.555  0.2907 -0.0464 -0.2603
16750TIP3    H171741   6.323   2.524  10.586  1.0453 -0.0040  0.4212
16750TIP3    H271742   6.275   2.387  10.543 -0.1504  0.6072 -0.2452
16751TIP3   OH271743   0.948   1.869  16.872 -0.1327 -0.1095 -0.1790
16751TIP3    H171744   0.942   1.826  16.786  0.6416  1.9732 -1.3447
16751TIP3    H271745   1.008   1.814  16.922 -0.1560 -1.0639 -1.1564
16752TIP3   OH271746   3.652   4.101  11.663 -0.4434 -0.7746 -0.2235
16752TIP3    H171747   3.603   4.184  11.662 -0.4996 -0.7965  0.2729
16752TIP3    H271748   3.586   4.035  11.684 -0.9085 -1.3181 -3.0164
16753TIP3   OH271749   5.220   0.549  10.995  0.3712  0.4362  0.2097
16753TIP3    H171750   5.135   0.509  10.976  0.8753 -1.2284  1.2686
16753TIP3    H271751   5.211   0.584  11.083  0.1857  2.1021 -0.4166
16754TIP3   OH271752   3.028   3.729   3.931 -0.2717 -0.1733  0.3556
16754TIP3    H171753   3.025   3.731   3.835  0.2535 -2.2560  0.2458
16754TIP3    H271754   3.083   3.654   3.951 -1.4712 -0.5953  2.2998
16755TIP3   OH271755   0.327   5.672  10.969  0.0381  0.3016 -0.4130
16755TIP3    H171756   0.407   5.655  10.920 -0.8152 -1.4260 -1.2787
16755TIP3    H271757   0.260   5.688  10.902 -0.5662  0.7059  0.2647
16756TIP3   OH271758   4.893   4.453   3.656  0.0728 -0.2955  0.6309
16756TIP3    H171759   4.931   4.424   3.573  0.0375  0.9794  0.1406
16756TIP3    H271760   4.962   4.438   3.720  0.5019 -0.3033  0.1796
16757TIP3   OH271761   3.964   0.539   5.711 -0.3090 -0.8154 -0.2012
16757TIP3    H171762   4.048   0.572   5.679 -0.2252  1.0656  1.7394
16757TIP3    H271763   3.930   0.610   5.765 -1.5937 -2.8002  1.7477
16758TIP3   OH271764   4.929   0.289   5.409  0.3733  0.0986 -0.7302
16758TIP3    H171765   4.893   0.244   5.333 -0.1250  0.2121 -0.5643
16758TIP3    H271766   4.985   0.223   5.451  0.7551  0.0795 -1.2624
16759TIP3   OH271767   4.401   1.787  17.119 -0.3580  0.2706 -0.0893
16759TIP3    H171768   4.449   1.762  17.039  1.3695  1.9065  0.3514
16759TIP3    H271769   4.403   1.709  17.174  0.6576 -0.1138 -0.6462
16760TIP3   OH271770   1.069   0.525  17.150 -0.3996 -0.0543 -0.1728
16760TIP3    H171771   1.153   0.566  17.170  0.8057 -1.5686 -1.8395
16760TIP3    H271772   1.057   0.459  17.219 -0.2416  0.1672  0.0686
16761TIP3   OH271773   1.602   1.506   3.708  0.0121  0.2351 -0.5202
16761TIP3    H171774   1.589   1.599   3.687  0.2273  0.0288 -1.6755
16761TIP3    H271775   1.586   1.461   3.625  0.4939 -0.7056 -0.1128
16762TIP3   OH271776   4.388   3.773  11.820  0.4353  0.4289  0.2068
16762TIP3    H171777   4.452   3.805  11.756  1.8475 -0.1114  1.2940
16762TIP3    H271778   4.338   3.707  11.773  1.9230 -0.4785 -0.1929
16763TIP3   OH271779   2.802   0.002   5.151 -0.1206 -0.3229 -0.2093
16763TIP3    H171780   2.756   0.060   5.090  0.0253 -0.9120 -0.8944
16763TIP3    H271781   2.855  -0.054   5.095  1.1669  0.0957  0.5487
16764TIP3   OH271782   3.063   0.561   2.368  0.6287  0.3161  0.4997
16764TIP3    H171783   2.980   0.538   2.411 -0.5159  2.7225 -0.2595
16764TIP3    H271784   3.101   0.477   2.344 -1.5553 -0.8807  0.9337
16765TIP3   OH271785   3.034   6.128  13.090 -0.5356  0.2311  0.2952
16765TIP3    H171786   2.993   6.060  13.143 -1.0031 -0.7980 -1.3015
16765TIP3    H271787   3.122   6.095  13.072  0.2468  1.3708  1.7920
16766TIP3   OH271788   3.265   6.733  16.418 -0.4091 -0.2651  0.1796
16766TIP3    H171789   3.215   6.804  16.457  0.9078  1.0947 -0.5120
16766TIP3    H271790   3.209   6.700  16.348 -0.7821  0.5333  0.0893
16767TIP3   OH271791   2.081   5.596   0.111 -0.1526 -0.3583 -0.0831
16767TIP3    H171792   1.990   5.624   0.124 -0.1219 -0.3965  0.2374
16767TIP3    H271793   2.103   5.549   0.192  0.5802  0.8073  0.4324
16768TIP3   OH271794   3.800   2.461  10.611  0.1708  0.3984  0.3567
16768TIP3    H171795   3.710   2.453  10.642  0.8316 -1.6332  1.9431
16768TIP3    H271796   3.799   2.425  10.522 -0.1706 -2.1265  1.3054
16769TIP3   OH271797   5.300   5.693  15.401 -0.0394 -0.1694 -0.2495
16769TIP3    H171798   5.221   5.736  15.370 -1.0781 -1.7735  0.0265
16769TIP3    H271799   5.295   5.700  15.496  0.0129 -0.4926 -0.2225
16770TIP3   OH271800   6.015   0.432   5.318 -0.7666 -0.7134  0.1715
16770TIP3    H171801   6.008   0.465   5.228 -0.6710 -0.4872  0.2484
16770TIP3    H271802   5.977   0.344   5.313  1.7816 -1.8683 -0.7271
16771TIP3   OH271803   3.444   4.363  10.649  0.4830 -0.2220 -0.0904
16771TIP3    H171804   3.386   4.288  10.636  0.7552 -0.1472 -2.0645
16771TIP3    H271805   3.386   4.434  10.674 -0.4087 -0.0475 -2.3911
16772TIP3   OH271806   4.586   6.608  13.582  0.2900  0.2079 -0.5324
16772TIP3    H171807   4.568   6.623  13.489 -2.0808 -1.5378 -0.4451
16772TIP3    H271808   4.520   6.659  13.628  1.1445  0.6777  0.2133
16773TIP3   OH271809   1.800   0.370   3.034 -0.4487  0.1011  0.2294
16773TIP3    H171810   1.741   0.351   3.107 -0.5648  0.7480  0.3155
16773TIP3    H271811   1.746   0.357   2.956 -0.5173  0.0577  0.2839
16774TIP3   OH271812   0.187   4.994  16.376 -0.2428 -0.1518 -0.3859
16774TIP3    H171813   0.094   4.987  16.358 -0.9189  1.7251  1.7648
16774TIP3    H271814   0.213   5.076  16.334  1.1327 -1.8213 -3.0768
16775TIP3   OH271815   0.841   3.851  11.946 -0.2158 -0.0357  0.5715
16775TIP3    H171816   0.860   3.898  11.865  0.2299 -0.7710  0.2404
16775TIP3    H271817   0.857   3.759  11.925 -2.7150 -0.5699  0.6934
16776TIP3   OH271818   5.396   3.422   1.893  0.0785  0.2849 -0.2450
16776TIP3    H171819   5.448   3.343   1.906 -0.0554  0.5502  2.5103
16776TIP3    H271820   5.305   3.394   1.902  0.0142  0.6699  0.3773
16777TIP3   OH271821   2.550   6.070  15.568 -0.0811 -0.2463 -0.0132
16777TIP3    H171822   2.492   6.146  15.579  2.8634  2.1007  0.6961
16777TIP3    H271823   2.520   6.029  15.487 -1.6266  1.8690 -0.6072
16778TIP3   OH271824   6.194   0.902  16.410  0.3072  0.1506  0.1232
16778TIP3    H171825   6.127   0.874  16.473 -0.6623 -0.9645 -1.3275
16778TIP3    H271826   6.277   0.876  16.449 -0.3578 -1.6515  0.4078
16779TIP3   OH271827   4.161   4.157   3.723 -0.0946 -0.0623 -0.4489
16779TIP3    H171828   4.234   4.216   3.706  0.2168 -0.6966 -1.4395
16779TIP3    H271829   4.113   4.154   3.640 -1.3514  0.4781  0.2438
16780TIP3   OH271830   1.158   0.756  13.530  0.2503  0.1867 -0.5311
16780TIP3    H171831   1.142   0.838  13.578 -1.5775 -1.2715  1.5716
16780TIP3    H271832   1.222   0.709  13.584 -2.8813 -2.0973  1.5706
16781TIP3   OH271833   1.697   4.435   5.738 -0.0811  0.4347 -0.2960
16781TIP3    H171834   1.668   4.500   5.675  1.2239  0.9771 -0.3775
16781TIP3    H271835   1.705   4.354   5.688  1.8867  1.0750 -1.1117
16782TIP3   OH271836   5.425   5.943  14.855  0.4452 -0.1704  0.3343
16782TIP3    H171837   5.510   5.912  14.822  1.0607  0.1231  1.6011
16782TIP3    H271838   5.392   5.870  14.908  1.0296  0.5737  1.7805
16783TIP3   OH271839   4.156   2.417  16.742  0.1510  0.4258 -0.1147
16783TIP3    H171840   4.245   2.406  16.776 -0.3513 -0.7866  0.8920
16783TIP3    H271841   4.154   2.364  16.662  0.8334  1.9290 -1.1907
16784TIP3   OH271842   2.318   2.681  16.466  0.4282  1.0890  0.4790
16784TIP3    H171843   2.390   2.740  16.488 -1.4763  2.7559  2.7633
16784TIP3    H271844   2.305   2.629  16.545  0.2288 -0.4280 -0.5224
16785TIP3   OH271845   4.871   5.140  13.471 -0.1247 -0.0159 -0.0769
16785TIP3    H171846   4.895   5.056  13.512 -1.1050 -0.3976 -0.2606
16785TIP3    H271847   4.902   5.206  13.533 -0.1947 -0.5483  0.5374
16786TIP3   OH271848   5.409   3.228  11.452 -0.5018 -0.3421 -0.0988
16786TIP3    H171849   5.462   3.173  11.394 -0.0672 -0.7866  0.7115
16786TIP3    H271850   5.394   3.309  11.401  2.6356  0.6592  0.3674
16787TIP3   OH271851   1.258   0.800   3.510  0.4224  0.2050  0.5951
16787TIP3    H171852   1.288   0.758   3.591  0.3167  1.4624  1.3097
16787TIP3    H271853   1.179   0.752   3.486  1.3552 -1.2505  0.3043
16788TIP3   OH271854   5.407   6.792  14.598 -0.3191 -0.2739 -0.3444
16788TIP3    H171855   5.394   6.865  14.659 -0.2431 -1.5555  1.2822
16788TIP3    H271856   5.481   6.818  14.544  0.9564  0.0933  1.4973
16789TIP3   OH271857   2.220   4.130  14.200 -0.4168  0.3396 -0.4086
16789TIP3    H171858   2.169   4.155  14.122 -1.2108  2.2931  0.6599
16789TIP3    H271859   2.296   4.188  14.198 -0.1097 -0.0441 -0.0488
16790TIP3   OH271860   2.794   1.951  11.302 -0.0520  0.3712 -0.3803
16790TIP3    H171861   2.810   2.025  11.243 -1.8104  1.5612  0.5386
16790TIP3    H271862   2.865   1.889  11.283  0.6368  1.6319 -2.2188
16791TIP3   OH271863   5.504   2.087   0.458 -0.4564 -0.6308 -0.7852
16791TIP3    H171864   5.415   2.052   0.465 -0.4441 -0.9649 -2.1720
16791TIP3    H271865   5.508   2.153   0.527 -1.5573 -1.0744 -0.2645
16792TIP3   OH271866   6.612   1.228  12.256 -0.7066 -0.1195 -0.2996
16792TIP3    H171867   6.674   1.283  12.303  0.3627 -1.1496 -0.4500
16792TIP3    H271868   6.652   1.141  12.256 -1.9557 -0.7207 -0.7815
16793TIP3   OH271869   5.300   2.845  15.793 -0.7384  0.2975  0.2356
16793TIP3    H171870   5.285   2.841  15.888  0.1984 -0.6381  0.3669
16793TIP3    H271871   5.215   2.820  15.755 -0.9557  0.0875  0.8428
16794TIP3   OH271872   1.091   6.067  13.337  0.3596  0.2532 -0.3581
16794TIP3    H171873   1.008   6.072  13.385 -0.0180  2.3619 -1.1310
16794TIP3    H271874   1.110   5.974  13.332 -2.2516 -0.3236 -0.6401
16795TIP3   OH271875   0.980   0.303   1.295  0.2618 -0.3071 -0.1435
16795TIP3    H171876   1.049   0.327   1.233  1.7316  0.1136  1.5606
16795TIP3    H271877   0.963   0.384   1.344 -0.9089 -0.6071 -0.0360
16796TIP3   OH271878   0.991   0.953  13.346 -0.3480 -0.0301  0.4533
16796TIP3    H171879   1.039   0.938  13.264 -1.4002  0.1950 -0.2200
16796TIP3    H271880   1.001   0.870  13.394 -0.8696 -0.6726 -0.5047
16797TIP3   OH271881   3.478   5.066  11.882  0.2422  0.0723  0.0709
16797TIP3    H171882   3.540   5.013  11.932 -0.3337 -0.8763 -0.1713
16797TIP3    H271883   3.427   5.113  11.949 -0.4978 -1.1544  0.4057
16798TIP3   OH271884   4.346   2.298  14.163 -0.2803  0.3567 -0.3306
16798TIP3    H171885   4.307   2.385  14.165 -0.8266  0.1358 -1.1873
16798TIP3    H271886   4.440   2.315  14.149 -0.5466  0.7776 -1.7482
16799TIP3   OH271887   1.864   3.956   4.469 -0.4223  0.1447 -0.0199
16799TIP3    H171888   1.791   4.018   4.469 -0.3117  0.2748  0.1028
16799TIP3    H271889   1.898   3.960   4.380 -2.4272 -2.1192 -0.9928
16800TIP3   OH271890   4.608   1.139  11.417  0.4589 -0.2353  0.0389
16800TIP3    H171891   4.585   1.063  11.471  1.2129  0.7895  1.8757
16800TIP3    H271892   4.533   1.149  11.358  0.7932 -3.0016 -1.0135
16801TIP3   OH271893   0.318   3.871   4.341 -0.0705  0.3955 -0.1984
16801TIP3    H171894   0.289   3.828   4.261 -1.0068 -0.2551  0.4750
16801TIP3    H271895   0.245   3.928   4.365 -1.2674 -1.8625  1.9594
16802TIP3   OH271896   5.909   3.532   0.439  0.1453 -0.1482 -0.4703
16802TIP3    H171897   5.932   3.459   0.496  2.8124  0.7108 -0.3052
16802TIP3    H271898   5.831   3.571   0.478  1.2690 -0.2330  2.0165
16803TIP3   OH271899   3.953   5.351   1.502  0.1066 -0.2918 -1.2035
16803TIP3    H171900   3.933   5.364   1.595  0.8852  0.0289 -1.0767
16803TIP3    H271901   3.884   5.292   1.471 -1.1141  0.8777 -0.8110
16804TIP3   OH271902   0.597   0.427  12.676 -0.0368  0.3171 -0.6822
16804TIP3    H171903   0.680   0.385  12.652  0.8358  1.7569 -0.2767
16804TIP3    H271904   0.559   0.455  12.592  0.9501  1.5689 -0.7361
16805TIP3   OH271905   6.219   2.922  15.637 -0.0710  0.1617  0.0075
16805TIP3    H171906   6.282   2.944  15.706 -1.1217  0.5660  0.8661
16805TIP3    H271907   6.271   2.877  15.570  1.2956  1.3261  0.2568
16806TIP3   OH271908   5.464   1.163  15.086  0.3373  0.7258 -0.3797
16806TIP3    H171909   5.423   1.081  15.058  0.9677  0.3189 -0.1409
16806TIP3    H271910   5.401   1.202  15.146 -0.7414  1.2766 -1.8052
16807TIP3   OH271911   5.299   0.595  13.060  0.0767  0.5350 -0.0026
16807TIP3    H171912   5.334   0.633  12.980  0.7664 -1.3833 -0.6857
16807TIP3    H271913   5.347   0.512  13.069 -2.2739 -0.8442  0.5901
16808TIP3   OH271914   6.427   2.328   4.461 -0.2196  0.0958  0.0820
16808TIP3    H171915   6.390   2.416   4.450 -0.5780 -0.3435 -2.8872
16808TIP3    H271916   6.369   2.285   4.524  0.0142  1.9374  1.6785
16809TIP3   OH271917   1.454   6.126   3.405 -0.1787 -0.4427  0.4326
16809TIP3    H171918   1.521   6.058   3.398 -0.3874 -0.4665 -2.8195
16809TIP3    H271919   1.374   6.078   3.427  0.1187 -0.9335  0.4585
16810TIP3   OH271920   3.605   4.004   0.796  0.4127  0.0165  0.2174
16810TIP3    H171921   3.587   3.947   0.721  0.1172  0.6721 -0.2105
16810TIP3    H271922   3.665   3.952   0.851  1.4302 -0.0947 -0.9476
16811TIP3   OH271923   6.499   5.324  12.817  0.3866  0.3453 -0.3300
16811TIP3    H171924   6.483   5.319  12.722 -0.0080  0.8814 -0.2972
16811TIP3    H271925   6.414   5.303  12.856  0.6800 -0.3868 -0.0832
16812TIP3   OH271926   2.197   4.940  14.568 -0.6290  0.1888  0.2459
16812TIP3    H171927   2.258   5.014  14.571 -1.2297  0.6881  0.5057
16812TIP3    H271928   2.142   4.952  14.645 -0.3931 -0.8377  0.5813
16813TIP3   OH271929   5.353   5.797   6.450  0.0625 -0.3857 -0.3217
16813TIP3    H171930   5.430   5.846   6.479  0.8727 -1.3110 -0.8170
16813TIP3    H271931   5.337   5.734   6.520  0.7209 -1.2082 -0.8804
16814TIP3   OH271932   0.651   5.617   5.829 -0.6771 -0.0603  0.6396
16814TIP3    H171933   0.740   5.614   5.793 -0.6516 -1.0860  0.7671
16814TIP3    H271934   0.616   5.699   5.797  1.5270  2.2483  3.5205
16815TIP3   OH271935   2.010   4.605  15.810  0.1472 -0.2653 -0.5980
16815TIP3    H171936   1.943   4.541  15.786  0.4497 -1.0405  0.4897
16815TIP3    H271937   2.091   4.570  15.773  0.4252 -0.8936  0.5366
16816TIP3   OH271938   1.631   2.286   1.892 -0.1596 -0.0857  0.3776
16816TIP3    H171939   1.712   2.312   1.936 -1.1490  0.3519  2.0449
16816TIP3    H271940   1.652   2.291   1.799  2.4911 -2.5351  0.6990
16817TIP3   OH271941   0.166   6.037  16.811  0.6224 -0.1430  0.0886
16817TIP3    H171942   0.158   6.120  16.763 -1.6249 -0.2577  0.1600
16817TIP3    H271943   0.147   5.970  16.746 -0.7326 -0.3973  0.7159
16818TIP3   OH271944   1.755   5.401   3.332 -0.2020 -0.5160 -0.2964
16818TIP3    H171945   1.760   5.379   3.425 -0.4397  0.9751  0.0950
16818TIP3    H271946   1.704   5.482   3.329  0.7694  0.0823 -1.6204
16819TIP3   OH271947   0.473   3.060   2.868  0.0666  0.4947 -0.4961
16819TIP3    H171948   0.554   3.089   2.911  0.3006 -0.3049 -0.3802
16819TIP3    H271949   0.459   2.971   2.901  0.0220  0.0129 -1.7486
16820TIP3   OH271950   5.335   5.371  12.692  0.6985  0.0205 -0.5023
16820TIP3    H171951   5.419   5.386  12.735  0.3748 -1.5130  0.7581
16820TIP3    H271952   5.311   5.456  12.656  1.5985  1.1082  1.3233
16821TIP3   OH271953   6.414   4.126   1.973 -0.1978 -0.1809 -0.2065
16821TIP3    H171954   6.362   4.078   2.038 -0.2231  1.9304  1.4315
16821TIP3    H271955   6.403   4.218   1.997  1.0008  0.5898 -2.3526
16822TIP3   OH271956   1.204   1.701  12.060 -0.2908 -0.1794  0.4379
16822TIP3    H171957   1.227   1.779  12.112 -1.3176 -0.3151  1.1259
16822TIP3    H271958   1.264   1.704  11.986  2.3616 -0.8594  2.4040
16823TIP3   OH271959   2.654   3.636  14.548 -0.0327  0.2484  0.3186
16823TIP3    H171960   2.668   3.547  14.515 -0.0353  0.4728 -0.3020
16823TIP3    H271961   2.681   3.632  14.639 -1.6042 -0.8157  0.7772
16824TIP3   OH271962   4.307   4.670  15.585 -0.0145  0.1098  0.0282
16824TIP3    H171963   4.284   4.595  15.531 -0.8545 -1.1307  1.9763
16824TIP3    H271964   4.395   4.650  15.618  1.0380  1.4594 -1.7666
16825TIP3   OH271965   6.045   5.815   0.371  0.0162  0.7585  0.0856
16825TIP3    H171966   6.067   5.786   0.460  2.4303  0.3153 -0.5842
16825TIP3    H271967   5.994   5.742   0.335  0.4818  0.1886  0.5545
16826TIP3   OH271968   2.764   2.182  12.316  0.0915  0.4728 -0.2749
16826TIP3    H171969   2.793   2.160  12.404  1.3787 -0.8962 -0.9796
16826TIP3    H271970   2.685   2.129  12.304 -1.0958  1.9726  0.6222
16827TIP3   OH271971   6.583   3.306   6.516 -0.1058  0.0709  0.0789
16827TIP3    H171972   6.509   3.287   6.458 -0.0951  1.2782 -0.3575
16827TIP3    H271973   6.652   3.338   6.457 -0.0443  1.1773  0.7261
16828TIP3   OH271974   4.371   3.929  15.098  0.3193  0.1120  0.4032
16828TIP3    H171975   4.343   3.865  15.163 -0.8558  0.8090  0.6217
16828TIP3    H271976   4.466   3.932  15.106  0.6838 -3.0533 -0.9771
16829TIP3   OH271977   5.385   5.969   1.418 -0.0370  0.1185  0.1976
16829TIP3    H171978   5.472   5.932   1.432  0.2701  0.6365 -0.3160
16829TIP3    H271979   5.327   5.913   1.470  0.2463 -1.8155 -1.4014
16830TIP3   OH271980   0.411   1.482  13.739  0.1614  0.1100  0.4646
16830TIP3    H171981   0.386   1.503  13.829 -1.0774 -0.0483  0.1732
16830TIP3    H271982   0.332   1.497  13.687  0.3969 -1.3115 -0.3719
16831TIP3   OH271983   3.411   0.454   1.249 -0.2082  0.2293  0.6564
16831TIP3    H171984   3.488   0.401   1.271  1.2566  2.5540  1.5029
16831TIP3    H271985   3.413   0.461   1.154  0.3810 -0.1013  0.6392
16832TIP3   OH271986   3.264   4.533  11.405  0.0547 -0.5096 -0.4893
16832TIP3    H171987   3.269   4.480  11.326  0.9916 -1.4383  0.1561
16832TIP3    H271988   3.237   4.620  11.375  2.0894 -0.3408 -2.0691
16833TIP3   OH271989   2.602   5.457   4.313  0.7360  0.4168 -0.6649
16833TIP3    H171990   2.534   5.468   4.246  0.2920  0.8239 -0.1555
16833TIP3    H271991   2.554   5.434   4.392  1.1097  1.4886 -0.1017
16834TIP3   OH271992   1.053   3.049  10.708  0.0752  0.2838  0.5571
16834TIP3    H171993   1.049   3.006  10.623  1.0197  1.7052 -0.2538
16834TIP3    H271994   0.963   3.074  10.727 -0.1327  0.0063 -0.0429
16835TIP3   OH271995   6.558   0.792   5.165 -0.5285  0.3727 -0.4293
16835TIP3    H171996   6.508   0.855   5.218 -2.6765  0.3545 -2.2706
16835TIP3    H271997   6.506   0.712   5.169 -0.1116  0.0375 -1.5786
16836TIP3   OH271998   6.236   4.614   0.405 -0.1269  0.6810  0.4088
16836TIP3    H171999   6.180   4.536   0.414 -1.1056  1.4178  0.8287
16836TIP3    H272000   6.309   4.598   0.464  1.4081 -1.3535 -1.8106
16837TIP3   OH272001   0.177   3.987   1.988 -0.1271 -0.4291  0.1709
16837TIP3    H172002   0.225   4.069   1.976  0.6641 -0.9535 -0.3428
16837TIP3    H272003   0.127   4.001   2.068 -1.4327  1.2284 -0.8485
16838TIP3   OH272004   1.113   0.073  12.585 -0.6934 -0.0013  0.4308
16838TIP3    H172005   1.082   0.096  12.497  1.0815  2.0500  0.2665
16838TIP3    H272006   1.111   0.155  12.634 -0.6674 -0.9115  2.0332
16839TIP3   OH272007   0.432   4.411  16.223  0.2471 -0.4115 -0.2691
16839TIP3    H172008   0.411   4.334  16.171 -0.3447  0.8027 -1.9042
16839TIP3    H272009   0.377   4.403  16.301 -1.0135 -0.8420 -1.1793
16840TIP3   OH272010   2.087   3.190  12.386 -0.2240 -0.6161 -0.1478
16840TIP3    H172011   2.131   3.273  12.366 -0.2599 -0.9688 -1.8962
16840TIP3    H272012   2.056   3.158  12.301 -2.0433 -1.4201  0.7614
16841TIP3   OH272013   6.586   5.662  13.355 -0.2460  0.7336 -0.5489
16841TIP3    H172014   6.513   5.607  13.383  0.2666  1.3034  2.2237
16841TIP3    H272015   6.548   5.750  13.346 -0.0628  0.9050  0.2586
16842TIP3   OH272016   6.057   1.405  15.505  0.2455  0.8410  0.5379
16842TIP3    H172017   5.985   1.372  15.452  0.9659  0.5647 -0.2965
16842TIP3    H272018   6.134   1.359  15.473  1.0023  2.0673  0.5245
16843TIP3   OH272019   6.298   5.268  13.022  0.2719  0.2862 -0.2779
16843TIP3    H172020   6.232   5.291  13.087  1.2254  2.2158  0.0942
16843TIP3    H272021   6.331   5.183  13.050  1.5240  1.5801  2.5633
16844TIP3   OH272022   3.405   0.533   2.316  0.3710  0.0736  0.1275
16844TIP3    H172023   3.476   0.564   2.259 -1.2504 -1.4223 -2.9523
16844TIP3    H272024   3.325   0.560   2.270 -1.0456 -2.7037  0.7755
16845TIP3   OH272025   0.580   2.622  13.177 -0.4821  0.3359 -0.2796
16845TIP3    H172026   0.613   2.673  13.250  0.1109  0.9753 -0.9718
16845TIP3    H272027   0.657   2.606  13.122 -0.8873 -0.2482 -0.6875
16846TIP3   OH272028   3.907   6.151   1.069  0.2471 -0.2227  0.0404
16846TIP3    H172029   3.864   6.173   0.986 -0.0066 -1.8867 -0.3027
16846TIP3    H272030   3.903   6.231   1.120 -0.4732  0.5523 -1.1809
16847TIP3   OH272031   5.035   5.306  11.979 -0.1161  0.4458  0.1895
16847TIP3    H172032   5.125   5.281  12.000  0.0923  0.1163 -0.9802
16847TIP3    H272033   4.984   5.283  12.057  0.6429 -0.3883  0.4547
16848TIP3   OH272034   0.693   0.964   4.765 -0.5457  0.2292 -0.6229
16848TIP3    H172035   0.712   0.964   4.859 -2.0582  0.4721 -0.2974
16848TIP3    H272036   0.744   0.890   4.731  0.3588  0.3975  0.2936
16849TIP3   OH272037   1.147   0.685  11.308  0.1950 -0.0065  0.2591
16849TIP3    H172038   1.161   0.742  11.233  1.6273 -0.2318  0.3210
16849TIP3    H272039   1.093   0.613  11.274 -1.3802  1.1851  0.1178
16850TIP3   OH272040   4.820   1.593  16.738 -0.3085  0.5532  0.0515
16850TIP3    H172041   4.822   1.522  16.673 -1.8075 -0.1371  0.6895
16850TIP3    H272042   4.865   1.556  16.814  0.9356  1.1526 -0.3672
16851TIP3   OH272043   6.092   2.173  13.421  0.5960 -0.5835 -0.6478
16851TIP3    H172044   6.169   2.166  13.477  0.4109  1.8403  0.0094
16851TIP3    H272045   6.020   2.192  13.481  0.1661  0.8320 -1.5714
16852TIP3   OH272046   0.610   6.747   1.215 -0.3605  0.2408 -0.4817
16852TIP3    H172047   0.584   6.708   1.131 -1.2887  0.9372 -0.5325
16852TIP3    H272048   0.672   6.816   1.191  0.4566 -0.4797 -0.4756
16853TIP3   OH272049   1.816   6.239   1.395  0.0738 -0.0991 -0.4914
16853TIP3    H172050   1.877   6.297   1.349 -0.9266  1.2799 -0.1415
16853TIP3    H272051   1.864   6.157   1.405  2.6427  1.4794  1.4442
16854TIP3   OH272052   6.196   3.563   6.101 -0.0539  0.1268  0.4045
16854TIP3    H172053   6.156   3.519   6.025  0.4717  1.2780 -0.5711
16854TIP3    H272054   6.154   3.523   6.177 -2.4102  0.6313 -0.5447
16855TIP3   OH272055   2.031   4.288  14.888 -0.2680 -0.4975 -0.0064
16855TIP3    H172056   2.048   4.304  14.981  1.0605 -0.1919 -0.2735
16855TIP3    H272057   1.954   4.231  14.887  0.2248 -1.2407  1.3219
16856TIP3   OH272058   6.210   2.355  13.211 -0.5115  0.2846 -0.3452
16856TIP3    H172059   6.178   2.302  13.284  0.5386  0.6852  0.4336
16856TIP3    H272060   6.137   2.413  13.189 -1.2364 -0.6216 -0.3874
16857TIP3   OH272061   4.393   0.947  16.691  0.2067  0.7159 -0.2488
16857TIP3    H172062   4.468   0.887  16.684 -0.2199 -0.0118  1.0333
16857TIP3    H272063   4.318   0.889  16.705 -0.4738  1.4815 -0.6658
16858TIP3   OH272064   2.024   3.448   4.430 -0.1942 -0.5059 -0.1057
16858TIP3    H172065   2.115   3.435   4.459 -0.6703 -2.4718  0.6913
16858TIP3    H272066   1.973   3.391   4.487 -2.1771  1.7984  0.5855
16859TIP3   OH272067   4.482   1.083  11.815 -0.2768  0.1717  0.2120
16859TIP3    H172068   4.514   1.172  11.799 -1.1688  0.8495  1.9818
16859TIP3    H272069   4.433   1.060  11.736 -0.7015  1.5636  0.0476
16860TIP3   OH272070   6.455   0.928  12.697 -0.7170 -0.4857  0.1714
16860TIP3    H172071   6.540   0.928  12.740 -0.3701 -0.7240 -0.4917
16860TIP3    H272072   6.459   1.001  12.636  0.0914 -2.1239 -1.8614
16861TIP3   OH272073   1.409   2.441  11.677  0.4938 -0.6374  0.3819
16861TIP3    H172074   1.354   2.418  11.752 -0.6762 -2.0529 -0.8583
16861TIP3    H272075   1.352   2.491  11.619  1.6153  1.1648  0.7304
16862TIP3   OH272076   2.553   1.534  16.867  0.1050  0.0534 -0.4220
16862TIP3    H172077   2.559   1.456  16.812 -0.8485  1.0717 -2.0399
16862TIP3    H272078   2.613   1.517  16.940 -1.4665 -3.0089  0.3309
16863TIP3   OH272079   4.622   0.061   5.201 -0.0130 -0.3830 -0.1950
16863TIP3    H172080   4.559  -0.005   5.172 -0.3170  0.2664 -1.0909
16863TIP3    H272081   4.581   0.145   5.178 -0.0300  0.1823  1.6946
16864TIP3   OH272082   0.491   2.687  14.595 -0.1753  0.4473  0.0794
16864TIP3    H172083   0.502   2.692  14.500  0.0814 -0.5272  0.0461
16864TIP3    H272084   0.396   2.686  14.609 -0.2155 -0.1468 -0.2190
16865TIP3   OH272085   6.135   6.397   6.153  0.2193 -0.8627 -0.5038
16865TIP3    H172086   6.188   6.435   6.223  1.1253  0.0429 -1.6248
16865TIP3    H272087   6.138   6.303   6.168  1.6280 -0.7817 -0.1774
16866TIP3   OH272088   5.020   2.817   6.327 -0.0322  0.1884  1.0135
16866TIP3    H172089   4.948   2.773   6.373 -0.4955 -0.2376 -0.0862
16866TIP3    H272090   5.099   2.778   6.364 -0.4175 -1.0220  0.6362
16867TIP3   OH272091   6.114   0.845  16.158  0.0586 -0.1982  0.0493
16867TIP3    H172092   6.138   0.871  16.246 -1.2022  0.4468  0.2286
16867TIP3    H272093   6.172   0.772  16.138  2.3603  1.4386  0.2897
16868TIP3   OH272094   5.503   1.637  13.087  0.1836 -0.7077  0.1633
16868TIP3    H172095   5.591   1.658  13.055  0.2459 -1.4648 -0.1984
16868TIP3    H272096   5.518   1.594  13.172  0.0210  1.2458  1.2329
16869TIP3   OH272097   4.235   4.833   6.423  0.0277  0.9657 -0.0866
16869TIP3    H172098   4.210   4.896   6.356 -0.3282 -0.1103 -0.9889
16869TIP3    H272099   4.287   4.768   6.376 -1.1073 -0.3677  0.4593
16870TIP3   OH272100   2.535   6.521   2.588 -0.1161 -0.3961  0.3875
16870TIP3    H172101   2.535   6.466   2.666  0.3735  0.2276  0.8466
16870TIP3    H272102   2.558   6.462   2.517  0.4582 -0.7765  0.8780
16871TIP3   OH272103   0.631   2.579  14.126  0.2157  0.1521  0.0131
16871TIP3    H172104   0.668   2.646  14.069 -1.3311  0.5640 -0.5620
16871TIP3    H272105   0.707   2.538  14.168  1.2690  1.2044 -0.8058
16872TIP3   OH272106   3.669   4.050  16.779  0.0895  0.1562  0.6079
16872TIP3    H172107   3.764   4.061  16.773  0.1491 -0.1217  1.0426
16872TIP3    H272108   3.654   3.960  16.752 -0.0218  0.1107  0.8198
16873TIP3   OH272109   0.517   1.380   3.657  0.1134 -0.1099  0.5978
16873TIP3    H172110   0.526   1.468   3.621  2.6216 -0.3698  0.4408
16873TIP3    H272111   0.519   1.392   3.752 -2.3125  0.1817  0.6851
16874TIP3   OH272112   6.352   5.831   3.127  0.6752  0.3328  0.5210
16874TIP3    H172113   6.271   5.811   3.081 -0.5847  1.1808  2.2476
16874TIP3    H272114   6.354   5.771   3.202  1.6665  0.2855  0.4766
16875TIP3   OH272115   3.587   1.526  12.073 -0.1352  0.0639  0.0123
16875TIP3    H172116   3.492   1.534  12.074 -0.0291  1.6326  0.3049
16875TIP3    H272117   3.607   1.490  11.986 -0.9993 -0.4743  0.0307
16876TIP3   OH272118   2.883   2.054  14.882  0.2759 -0.0530 -0.7574
16876TIP3    H172119   2.863   1.997  14.808 -1.3268  1.3260 -1.4581
16876TIP3    H272120   2.889   2.142  14.843 -1.2330  0.7998  0.8106
16877TIP3   OH272121   1.490   0.112   0.372 -0.0496  0.3544  0.0188
16877TIP3    H172122   1.414   0.063   0.340  0.2232  0.1664 -0.3415
16877TIP3    H272123   1.453   0.174   0.434 -0.5637  0.6011 -0.5250
16878TIP3   OH272124   3.149   0.725   1.633 -0.2234 -0.3295  0.2259
16878TIP3    H172125   3.132   0.812   1.597 -0.3150 -0.3188  0.2927
16878TIP3    H272126   3.230   0.735   1.682 -1.3101  0.2700  2.0324
16879TIP3   OH272127   1.596   1.454   2.647 -0.0686  0.2301 -0.0453
16879TIP3    H172128   1.538   1.479   2.719  0.6156 -2.5663  1.6410
16879TIP3    H272129   1.537   1.434   2.575 -0.9645  0.4566  0.5997
16880TIP3   OH272130   2.551   3.877   4.672  0.1327  0.3372  0.5462
16880TIP3    H172131   2.578   3.829   4.751  1.8353 -0.7451 -0.6322
16880TIP3    H272132   2.631   3.882   4.619 -1.1933  0.1282 -1.5624
16881TIP3   OH272133   3.029   5.996   3.665  0.1530 -0.6790 -0.0002
16881TIP3    H172134   3.022   5.965   3.575  1.7238 -2.6968  0.4832
16881TIP3    H272135   2.960   6.062   3.674 -0.1624 -0.5714 -2.5902
16882TIP3   OH272136   4.756   1.971   3.359  0.6957  0.3501 -0.1676
16882TIP3    H172137   4.779   1.921   3.437  0.2726  0.2224 -0.1234
16882TIP3    H272138   4.709   2.047   3.391  0.3055  0.1714 -0.3135
16883TIP3   OH272139   2.639   1.507   3.571  0.2125 -0.0154 -0.2932
16883TIP3    H172140   2.724   1.551   3.568 -0.0327  0.4348 -0.9232
16883TIP3    H272141   2.576   1.578   3.561 -0.2768 -0.2407  1.0539
16884TIP3   OH272142   3.336   5.927   1.081  0.0689  0.6474 -0.3441
16884TIP3    H172143   3.355   5.834   1.072  0.7637  0.7329  0.1478
16884TIP3    H272144   3.384   5.954   1.159 -0.2850  1.3772 -0.3680
16885TIP3   OH272145   2.492   2.092   5.771 -0.5362 -0.2061  0.1865
16885TIP3    H172146   2.476   2.041   5.692 -0.9676 -1.8841  1.3171
16885TIP3    H272147   2.545   2.166   5.741  0.3413 -1.4371 -1.4642
16886TIP3   OH272148   3.253   5.587  16.554  0.2329 -0.0958 -0.2184
16886TIP3    H172149   3.330   5.542  16.589 -1.5888 -3.7524 -0.4139
16886TIP3    H272150   3.269   5.590  16.459 -0.2193 -1.8541 -0.3932
16887TIP3   OH272151   3.679   3.361  14.283  0.6017 -0.1505  0.1184
16887TIP3    H172152   3.622   3.437  14.272 -2.0166 -1.9475  0.2397
16887TIP3    H272153   3.678   3.317  14.198 -0.2194 -1.4913  0.7859
16888TIP3   OH272154   3.621   4.225  15.246 -0.3411 -0.3965  0.2671
16888TIP3    H172155   3.666   4.214  15.330 -1.4575  0.6792  1.0591
16888TIP3    H272156   3.536   4.182  15.258 -0.4344 -0.4061 -0.3778
16889TIP3   OH272157   0.143   3.082  10.931  0.2269  0.2681 -0.4794
16889TIP3    H172158   0.185   3.003  10.963  1.3651  0.8383 -0.4942
16889TIP3    H272159   0.091   3.113  11.005  0.5686  0.0378 -0.1385
16890TIP3   OH272160   6.433   6.322   5.605 -1.0270  0.3081  0.4428
16890TIP3    H172161   6.420   6.407   5.562  0.4604  0.9473  1.1900
16890TIP3    H272162   6.361   6.268   5.572 -0.4417  1.0006 -2.2034
16891TIP3   OH272163   2.062   5.022  14.093 -0.3505  0.3052 -0.0613
16891TIP3    H172164   2.015   5.066  14.023  0.6163  0.7057 -0.4697
16891TIP3    H272165   2.125   4.966  14.048  0.9873  1.3402  0.4859
16892TIP3   OH272166   5.530   5.308   5.497 -0.0191  0.3311 -0.1300
16892TIP3    H172167   5.480   5.390   5.502  0.4573  0.7164 -1.3138
16892TIP3    H272168   5.577   5.303   5.580 -1.2058  0.4875  0.5744
16893TIP3   OH272169   5.774   0.273  15.431  0.2495  0.1910  0.0088
16893TIP3    H172170   5.752   0.224  15.352 -2.2362  2.4983 -0.8637
16893TIP3    H272171   5.866   0.297  15.420  0.3044 -0.6434 -1.5254
16894TIP3   OH272172   4.631   6.121   2.014  0.5681  0.2511 -0.2564
16894TIP3    H172173   4.725   6.117   2.026  0.4786 -0.7215  0.2154
16894TIP3    H272174   4.597   6.046   2.063 -0.4776  0.7680 -0.1546
16895TIP3   OH272175   2.935   4.290  13.077 -0.2471  0.2111  0.4661
16895TIP3    H172176   2.960   4.290  12.984  0.2684 -2.7836  0.4988
16895TIP3    H272177   2.940   4.382  13.103 -1.1996  1.2731 -2.6439
16896TIP3   OH272178   5.344   2.944   2.948  0.2419  0.4616 -0.4453
16896TIP3    H172179   5.336   3.001   3.025  2.3986  2.8197 -1.7928
16896TIP3    H272180   5.413   2.883   2.970  0.0979  0.4155 -0.1146
16897TIP3   OH272181   1.582   3.706   1.215 -0.2839 -0.3935  0.0609
16897TIP3    H172182   1.641   3.671   1.281  0.9183 -1.7597 -1.6229
16897TIP3    H272183   1.495   3.681   1.246  0.3596 -2.6818  0.2666
16898TIP3   OH272184   0.908   4.661  12.072  0.0200 -0.0166  0.1407
16898TIP3    H172185   0.975   4.607  12.114 -0.8424 -0.2221  1.3120
16898TIP3    H272186   0.955   4.713  12.007  1.0963 -1.0944  0.0470
16899TIP3   OH272187   2.063   0.336  16.911 -0.1597  0.7066 -0.2656
16899TIP3    H172188   2.011   0.336  16.831  0.5852  1.2018 -0.7683
16899TIP3    H272189   2.051   0.423  16.949  0.6297  0.9808 -0.6184
16900TIP3   OH272190   4.572   2.255   0.105  0.5548  0.0502 -0.3170
16900TIP3    H172191   4.524   2.311   0.166  2.2935  2.0536 -0.6817
16900TIP3    H272192   4.534   2.168   0.117 -1.8461  1.1576  0.7183
16901TIP3   OH272193   3.064   5.722   2.275  0.0416 -0.1024 -0.0183
16901TIP3    H172194   3.082   5.789   2.209  0.1454  0.1207  0.2346
16901TIP3    H272195   3.148   5.711   2.321 -0.4765  1.0502  1.2692
16902TIP3   OH272196   6.237   2.265   2.643 -0.3847 -0.6701 -1.0772
16902TIP3    H172197   6.238   2.361   2.642 -0.2908 -0.6706 -1.7929
16902TIP3    H272198   6.231   2.240   2.550  1.3447 -1.3729 -1.0385
16903TIP3   OH272199   6.128   5.324  12.814 -0.2173  0.0174 -0.0882
16903TIP3    H172200   6.182   5.325  12.893 -0.4578 -0.7022  0.0926
16903TIP3    H272201   6.165   5.255  12.760 -2.0696 -1.8295  0.8614
16904TIP3   OH272202   4.232   4.120  15.952 -0.3671  0.2571  0.2666
16904TIP3    H172203   4.220   4.206  15.913  0.1038 -0.5179 -1.7434
16904TIP3    H272204   4.285   4.072  15.887 -0.3244 -1.4195  1.4802
16905TIP3   OH272205   0.530   0.932   2.351 -0.0454 -0.4777  0.2460
16905TIP3    H172206   0.510   0.932   2.444  0.5247  1.2632  0.3933
16905TIP3    H272207   0.506   1.019   2.321  0.6445 -0.7074 -1.0496
16906TIP3   OH272208   5.619   0.590  13.581 -0.1327 -0.8262 -0.0592
16906TIP3    H172209   5.644   0.498  13.591  1.4472 -0.4736 -0.4784
16906TIP3    H272210   5.643   0.612  13.491  0.8885  0.3701  0.4730
16907TIP3   OH272211   6.122   4.527   3.452  0.2616 -0.4801  0.5908
16907TIP3    H172212   6.202   4.503   3.405 -0.9903 -0.5474 -1.6605
16907TIP3    H272213   6.072   4.446   3.457  0.2768 -0.4322  1.9736
16908TIP3   OH272214   4.199   1.374  15.503 -0.5830 -0.1847  0.2397
16908TIP3    H172215   4.128   1.414  15.553  0.1289  1.3877  0.0256
16908TIP3    H272216   4.271   1.436  15.509 -0.5441  0.2067 -2.9535
16909TIP3   OH272217   3.547   0.067   0.547 -0.9707  0.0242  0.2656
16909TIP3    H172218   3.567   0.030   0.633 -0.3747 -0.7514 -0.1906
16909TIP3    H272219   3.473   0.125   0.562 -1.4316 -0.7762  1.1436
16910TIP3   OH272220   3.705   4.465   0.670 -0.0073  0.0253 -0.2146
16910TIP3    H172221   3.722   4.372   0.655  0.0059  0.1043 -0.7135
16910TIP3    H272222   3.646   4.467   0.745  0.1364 -0.3779 -0.0891
16911TIP3   OH272223   5.073   4.858  14.192  0.4243  0.6331  0.2462
16911TIP3    H172224   5.061   4.796  14.265 -2.2501  1.7698  0.8802
16911TIP3    H272225   5.132   4.813  14.132  0.6659 -1.4198  1.9071
16912TIP3   OH272226   3.467   5.360  15.965 -0.3573 -0.5355  0.1070
16912TIP3    H172227   3.505   5.326  16.046  0.0332  1.1140  0.6473
16912TIP3    H272228   3.533   5.343  15.898  0.3284  0.1856  0.5894
16913TIP3   OH272229   2.075   1.316   5.330  0.6118  0.4206  0.2663
16913TIP3    H172230   1.980   1.318   5.314  0.6336 -0.4012 -0.0105
16913TIP3    H272231   2.088   1.239   5.385  1.0458  0.9184  0.8646
16914TIP3   OH272232   2.652   0.603  13.170  0.3541  0.2447 -0.0112
16914TIP3    H172233   2.681   0.636  13.086  1.0507 -2.0673 -0.7678
16914TIP3    H272234   2.557   0.597  13.162 -0.0690  3.7461  0.8951
16915TIP3   OH272235   1.251   0.843   1.839  0.1279  0.1009  0.0262
16915TIP3    H172236   1.190   0.901   1.793  0.9390  0.4499 -0.6340
16915TIP3    H272237   1.251   0.762   1.789 -0.4831 -0.2353  0.5563
16916TIP3   OH272238   4.029   5.797   3.675 -0.2941 -0.3680 -0.7162
16916TIP3    H172239   4.121   5.825   3.674  0.1169 -1.6206 -0.0408
16916TIP3    H272240   4.011   5.779   3.768 -0.6286 -1.9856 -1.0700
16917TIP3   OH272241   1.018   3.027   3.435 -0.2262 -0.3038  0.4030
16917TIP3    H172242   1.052   2.959   3.494  0.8607  1.2523  1.6734
16917TIP3    H272243   0.938   3.057   3.478  0.0276  0.1435  0.5673
16918TIP3   OH272244   4.121   4.611   3.766  0.2273 -0.0232  0.1394
16918TIP3    H172245   4.080   4.698   3.772  1.8808  0.7494  1.1614
16918TIP3    H272246   4.048   4.550   3.768 -0.9316  1.3126  1.0056
16919TIP3   OH272247   5.845   4.324   2.873 -0.0537  0.3466 -0.2904
16919TIP3    H172248   5.755   4.291   2.878 -0.7841  1.9246 -1.7811
16919TIP3    H272249   5.847   4.395   2.938  0.1264  0.3194 -0.2662
16920TIP3   OH272250   0.665   0.794  15.317 -0.0346 -0.6968 -0.5718
16920TIP3    H172251   0.591   0.806  15.376 -0.3816 -1.2787 -0.8842
16920TIP3    H272252   0.728   0.742  15.368 -0.9467 -2.4809 -1.1911
16921TIP3   OH272253   6.191   6.561  14.828  0.2966  0.2684 -0.3004
16921TIP3    H172254   6.207   6.551  14.922 -2.0562  0.2921  0.1804
16921TIP3    H272255   6.228   6.482  14.789 -1.5521 -1.3913  1.1089
16922TIP3   OH272256   6.157   1.004   4.903  0.3494 -0.2382 -0.6886
16922TIP3    H172257   6.066   1.031   4.890  1.0757  2.7120 -0.1858
16922TIP3    H272258   6.198   1.013   4.817  0.4831 -0.2392 -0.6253
16923TIP3   OH272259   6.036   0.147   0.542  0.2053  0.1127  0.0764
16923TIP3    H172260   6.006   0.238   0.539  0.2210  0.1299  0.4854
16923TIP3    H272261   5.958   0.096   0.562  0.0544 -0.0390 -0.8323
16924TIP3   OH272262   6.528   0.957   1.488 -0.5819  0.7245 -0.0727
16924TIP3    H172263   6.566   1.044   1.479  0.4413  0.3122  0.1878
16924TIP3    H272264   6.538   0.935   1.581  1.0573 -0.5001 -0.5020
16925TIP3   OH272265   0.081   3.923   3.408  0.2854  0.4337  0.8238
16925TIP3    H172266   0.109   4.013   3.424  2.5082  0.1050 -0.7552
16925TIP3    H272267   0.072   3.917   3.313 -0.0289 -0.9573  0.9234
16926TIP3   OH272268   2.016   5.128  15.297 -0.0146  0.2823 -0.4528
16926TIP3    H172269   2.047   5.195  15.236 -0.2010  0.3356 -0.4888
16926TIP3    H272270   2.030   5.046  15.250  0.2404  0.2925 -0.3968
16927TIP3   OH272271   2.847   5.717   6.068  0.3167 -0.1090  0.3069
16927TIP3    H172272   2.896   5.798   6.052 -1.2860  1.0172  0.8927
16927TIP3    H272273   2.836   5.714   6.163 -0.4994 -0.4796  0.2070
16928TIP3   OH272274   1.710   5.719   2.384 -0.5989 -0.1846  0.2249
16928TIP3    H172275   1.650   5.779   2.340 -0.2502 -0.2518 -0.3571
16928TIP3    H272276   1.792   5.769   2.391  0.4010 -1.3097 -2.2851
16929TIP3   OH272277   2.365   3.661  14.844 -0.3085 -0.4564  0.4287
16929TIP3    H172278   2.362   3.702  14.758 -0.5371  1.2539  1.2184
16929TIP3    H272279   2.280   3.682  14.883 -0.1966 -1.1922  1.0890
16930TIP3   OH272280   3.939   6.499  12.434  0.3340  0.0492  0.1557
16930TIP3    H172281   3.965   6.520  12.344  2.4271 -0.2874  0.6193
16930TIP3    H272282   4.006   6.437  12.463 -0.6105 -0.2457  1.7778
16931TIP3   OH272283   2.525   6.829  14.715 -0.4758 -0.1517  0.2668
16931TIP3    H172284   2.556   6.858  14.801  0.0596 -0.0828  0.0531
16931TIP3    H272285   2.535   6.905  14.659  2.0454 -1.0287 -0.5871
16932TIP3   OH272286   2.321   2.262   5.105  0.3014 -0.3809  0.2207
16932TIP3    H172287   2.368   2.346   5.109 -3.0948  1.7061  0.0679
16932TIP3    H272288   2.309   2.237   5.197  0.7370 -0.3723  0.2830
16933TIP3   OH272289   0.837   2.134  15.483  0.2467  0.4101 -0.3514
16933TIP3    H172290   0.912   2.087  15.446  1.0753  2.2416 -1.1083
16933TIP3    H272291   0.820   2.205  15.422 -1.5537  0.5849  0.2874
16934TIP3   OH272292   1.504   3.736  17.134 -0.2672  0.4719  0.0967
16934TIP3    H172293   1.520   3.764  17.224 -0.3717 -0.6861  0.5020
16934TIP3    H272294   1.562   3.790  17.081 -0.1462  1.1124  0.8696
16935TIP3   OH272295   6.810   4.930  12.314 -0.4699 -0.0041  0.3343
16935TIP3    H172296   6.879   4.981  12.271  0.2293 -0.8504  0.4026
16935TIP3    H272297   6.764   4.887  12.242 -0.2764 -0.2289  0.3443
16936TIP3   OH272298   0.052   3.784  12.753  0.5799 -0.4056 -0.2429
16936TIP3    H172299   0.015   3.703  12.718 -0.0482 -0.8670  1.3884
16936TIP3    H272300   0.051   3.845  12.679 -4.0483 -0.1855 -0.2756
16937TIP3   OH272301   3.594   0.401  14.757  0.1705  0.0627 -0.1597
16937TIP3    H172302   3.628   0.311  14.750 -1.0749 -0.3418 -1.3008
16937TIP3    H272303   3.620   0.429  14.845 -0.0643 -1.6803  0.5034
16938TIP3   OH272304   3.864   2.347  16.073  0.0709 -0.2830  0.1522
16938TIP3    H172305   3.885   2.380  16.161 -2.0422  1.6325  0.0082
16938TIP3    H272306   3.849   2.425  16.020  2.8119 -1.3115 -2.4306
16939TIP3   OH272307   6.286   3.061   3.533 -0.7793 -0.2128  0.2169
16939TIP3    H172308   6.354   3.094   3.473  0.6355 -3.0029  0.1031
16939TIP3    H272309   6.206   3.060   3.480  0.1332 -1.2646 -1.2206
16940TIP3   OH272310   2.911   2.748  17.007  0.6925 -0.3190 -0.3636
16940TIP3    H172311   2.953   2.684  16.951 -0.2790  0.1693 -1.6886
16940TIP3    H272312   2.903   2.704  17.092  1.9366 -1.1623 -0.6678
16941TIP3   OH272313   0.160   4.754   3.503 -0.5148 -0.1263  0.2477
16941TIP3    H172314   0.104   4.752   3.425 -0.1509  1.6880 -0.0974
16941TIP3    H272315   0.117   4.693   3.564 -1.1419 -1.1293 -1.1175
16942TIP3   OH272316   6.698   3.513   1.186  0.5955  0.1128 -0.0399
16942TIP3    H172317   6.678   3.445   1.250 -0.1994 -0.0615 -0.4553
16942TIP3    H272318   6.771   3.561   1.223 -0.4778  0.6484  1.4717
16943TIP3   OH272319   1.667   0.645  13.421  0.3438  0.3787  0.6787
16943TIP3    H172320   1.706   0.622  13.505  1.1628  0.8242  0.4328
16943TIP3    H272321   1.698   0.733  13.403  0.1163  0.3196 -0.0575
16944TIP3   OH272322   6.739   0.850  12.025  0.0698 -0.5185 -0.1860
16944TIP3    H172323   6.796   0.795  11.971 -0.4499 -1.5468  0.2906
16944TIP3    H272324   6.686   0.788  12.076 -1.1811  0.4007 -0.3015
16945TIP3   OH272325   5.372   6.722  13.936  0.0273  0.2018 -0.2141
16945TIP3    H172326   5.295   6.692  13.886 -0.6364 -0.1366  0.9818
16945TIP3    H272327   5.407   6.643  13.976 -0.8795  0.7465  1.7847
16946TIP3   OH272328   3.289   3.371   5.646  0.0772  0.0206 -0.0260
16946TIP3    H172329   3.383   3.359   5.631  0.3809  1.9063  0.1082
16946TIP3    H272330   3.284   3.416   5.730 -1.0311 -0.9526  0.4536
16947TIP3   OH272331   0.970   4.320  15.769  0.0539 -0.0895 -0.4657
16947TIP3    H172332   0.875   4.326  15.770  0.0461 -0.2028  0.5723
16947TIP3    H272333   0.989   4.233  15.805  0.5058 -1.1192 -2.9225
16948TIP3   OH272334   2.150   2.877  14.666 -0.1811  0.0363  0.0665
16948TIP3    H172335   2.078   2.931  14.633  0.9671  1.9363  0.5179
16948TIP3    H272336   2.147   2.797  14.613 -1.6733  0.7323 -0.9399
16949TIP3   OH272337   2.141   6.423  11.856 -0.2296  0.2547 -0.0683
16949TIP3    H172338   2.141   6.436  11.762  0.6133 -0.3586 -0.1652
16949TIP3    H272339   2.142   6.512  11.893 -0.7030  0.4942 -0.6242
16950TIP3   OH272340   6.651   5.731   3.181  0.4682 -0.1327 -0.6860
16950TIP3    H172341   6.588   5.710   3.249 -0.1728 -1.1275 -1.5603
16950TIP3    H272342   6.657   5.827   3.183 -1.3750  0.0260 -0.8329
16951TIP3   OH272343   1.100   3.919   0.362 -0.0215 -0.0473 -0.9151
16951TIP3    H172344   1.147   3.876   0.434  0.9094 -1.9736 -2.5785
16951TIP3    H272345   1.023   3.956   0.404 -0.1704 -2.1652  0.9263
16952TIP3   OH272346   2.196   5.202   1.868 -0.2075 -0.6214 -0.3973
16952TIP3    H172347   2.149   5.222   1.786 -2.0554 -2.5290  0.0919
16952TIP3    H272348   2.146   5.130   1.906 -1.0162  1.7848  3.7188
16953TIP3   OH272349   2.540   3.325  13.890 -0.5902 -0.5468  0.5711
16953TIP3    H172350   2.568   3.416  13.901 -0.7704 -0.7206  2.8633
16953TIP3    H272351   2.451   3.331  13.856  0.0093  0.0731 -0.9811
16954TIP3   OH272352   6.628   6.494   3.990 -0.3560 -0.2362 -0.4931
16954TIP3    H172353   6.539   6.476   3.959  0.4398 -1.4520 -2.2756
16954TIP3    H272354   6.632   6.454   4.077 -1.3139 -0.9047 -0.7437
16955TIP3   OH272355   1.913   4.024  10.997 -0.6388 -0.0484  0.7023
16955TIP3    H172356   1.908   4.113  11.031 -2.8163  0.1476  0.0524
16955TIP3    H272357   1.857   4.025  10.919  0.9723 -1.4847 -0.5666
16956TIP3   OH272358   0.758   2.227  16.216 -0.2307 -0.6151  0.0390
16956TIP3    H172359   0.672   2.197  16.245  0.6314 -1.8146  1.4989
16956TIP3    H272360   0.768   2.190  16.129 -1.6003  0.4416 -0.6153
16957TIP3   OH272361   2.667   2.501  17.159  0.2214 -0.1946 -0.0015
16957TIP3    H172362   2.688   2.409  17.178  1.1458  0.2955  1.5707
16957TIP3    H272363   2.740   2.550  17.195 -0.5634  1.2060 -0.2462
16958TIP3   OH272364   0.106   6.819   3.923  0.1028  0.1352 -0.3626
16958TIP3    H172365   0.118   6.914   3.930  1.0583 -0.1025  1.6243
16958TIP3    H272366   0.022   6.810   3.878  0.8163  1.8812 -2.2399
16959TIP3   OH272367   0.191   0.333  16.910  0.6843  0.0197  0.0031
16959TIP3    H172368   0.131   0.376  16.848  0.0524 -0.2452  0.4156
16959TIP3    H272369   0.152   0.351  16.996  0.9331 -0.5751  0.2407
16960TIP3   OH272370   0.014   1.927   5.895  0.2517 -0.2173 -0.4936
16960TIP3    H172371   0.078   1.861   5.923 -0.5681 -0.2402  1.5046
16960TIP3    H272372  -0.071   1.887   5.914 -0.2768  1.1435  0.1380
16961TIP3   OH272373   4.909   2.042  12.137 -0.2785  0.2859  0.1442
16961TIP3    H172374   4.856   2.102  12.190 -0.6846  1.1661 -1.2034
16961TIP3    H272375   4.873   2.051  12.049  0.4914 -1.0096 -0.3188
16962TIP3   OH272376   5.593   3.514   0.555  0.0659  0.0014 -0.0084
16962TIP3    H172377   5.655   3.458   0.601 -0.4621  0.3644  1.2042
16962TIP3    H272378   5.554   3.568   0.624 -1.2994  0.0660 -0.7884
16963TIP3   OH272379   6.048   4.444  16.517 -0.6159 -0.5640  0.3819
16963TIP3    H172380   6.009   4.531  16.524  1.5013  0.5071 -0.5938
16963TIP3    H272381   5.991   4.397  16.456 -1.6802  0.1618  0.7864
16964TIP3   OH272382   0.976   3.734   2.455 -0.3439  0.3735  0.0834
16964TIP3    H172383   0.946   3.747   2.545  0.1676 -1.4745  0.5620
16964TIP3    H272384   1.068   3.712   2.464 -0.6749 -1.5550 -0.6957
16965TIP3   OH272385   5.480   0.567   6.493  0.6717  0.2136  0.2868
16965TIP3    H172386   5.471   0.477   6.462 -1.1607 -0.1455  1.7342
16965TIP3    H272387   5.395   0.607   6.477  0.7206  0.9764  1.8058
16966TIP3   OH272388   4.014   2.060   3.697 -0.2484 -0.0825 -0.4828
16966TIP3    H172389   4.050   2.079   3.611  2.7097 -1.6386  0.2463
16966TIP3    H272390   4.015   1.964   3.703  1.1908 -0.0207  1.7778
16967TIP3   OH272391   4.236   0.455  14.449  0.4289  0.1666 -0.2038
16967TIP3    H172392   4.316   0.406  14.430  0.2572 -0.5487  0.8360
16967TIP3    H272393   4.186   0.451  14.368  1.0301 -0.1986 -0.5662
16968TIP3   OH272394   4.027   3.107  11.748  0.8717  0.0217  0.3023
16968TIP3    H172395   4.071   3.133  11.829 -0.2302 -0.2623  1.0143
16968TIP3    H272396   4.083   3.038  11.712  0.6696 -0.8578  1.5808
16969TIP3   OH272397   0.634   6.278   5.590  0.4473  0.1968 -0.1239
16969TIP3    H172398   0.656   6.211   5.524  0.3082 -0.0967  0.1266
16969TIP3    H272399   0.666   6.242   5.672 -0.6655 -0.0896  0.2006
16970TIP3   OH272400   6.830   3.049  11.472 -0.0671 -0.1120 -0.2894
16970TIP3    H172401   6.745   3.048  11.515  0.7595  0.4722  1.4608
16970TIP3    H272402   6.837   2.963  11.430 -0.0624 -1.6639  2.6232
16971TIP3   OH272403   5.344   0.409  15.038 -0.1649  0.3711  0.3779
16971TIP3    H172404   5.290   0.438  15.111 -0.1694  1.7731 -0.1566
16971TIP3    H272405   5.413   0.475  15.031  0.2813 -0.1533 -0.4101
16972TIP3   OH272406   2.006   1.826   5.177 -0.0249  0.0278 -0.2058
16972TIP3    H172407   1.960   1.835   5.261  1.4152  1.7212  0.4740
16972TIP3    H272408   1.942   1.786   5.119 -1.8246  0.8193  1.1167
16973TIP3   OH272409   5.606   0.942  14.477 -0.5856 -0.0341  0.2353
16973TIP3    H172410   5.624   0.882  14.550 -1.9339 -0.2536  0.4306
16973TIP3    H272411   5.661   1.018  14.493 -1.2340  0.1457  1.8055
16974TIP3   OH272412   6.594   0.880  11.706  0.0445  0.3204  0.6736
16974TIP3    H172413   6.626   0.886  11.796  0.8064 -0.1176  0.4491
16974TIP3    H272414   6.593   0.970  11.675 -0.9758  0.5628  1.3602
16975TIP3   OH272415   4.808   3.797   3.427  0.9105 -0.4606 -0.3597
16975TIP3    H172416   4.860   3.857   3.481  0.2457  0.4915 -0.7523
16975TIP3    H272417   4.722   3.838   3.421 -0.5122 -2.8102  1.6686
16976TIP3   OH272418   1.152   2.437   3.342  0.0356 -0.8029  0.3498
16976TIP3    H172419   1.088   2.379   3.300 -0.6675  0.0159  0.2638
16976TIP3    H272420   1.104   2.478   3.414  0.3146  0.1749  0.0012
16977TIP3   OH272421   2.517   0.893  15.707  0.0351  0.3223  0.1272
16977TIP3    H172422   2.538   0.835  15.781 -2.5593 -0.5184  0.3163
16977TIP3    H272423   2.552   0.847  15.631  2.1789  0.8881  0.7002
16978TIP3   OH272424   0.584   1.624   5.610 -0.2195 -0.0758 -0.6063
16978TIP3    H172425   0.515   1.560   5.632 -0.2199 -0.5000 -1.7688
16978TIP3    H272426   0.623   1.647   5.694 -1.2175 -0.4841 -0.0148
16979TIP3   OH272427   3.839   3.845   2.831  0.4327 -0.0215 -0.0752
16979TIP3    H172428   3.818   3.786   2.758  1.2774 -0.7857  0.2799
16979TIP3    H272429   3.755   3.858   2.875 -0.1174  0.5499 -1.2330
16980TIP3   OH272430   2.469   3.703   0.056 -0.0685 -0.6108  0.4298
16980TIP3    H172431   2.559   3.670   0.054 -0.5954 -2.1367  0.4811
16980TIP3    H272432   2.454   3.727   0.148  0.8435  1.3745  0.1054
16981TIP3   OH272433   4.917   5.704   5.016 -0.1402  0.0494  0.0314
16981TIP3    H172434   4.836   5.743   4.983  1.0172  0.2528 -2.9563
16981TIP3    H272435   4.955   5.770   5.074 -1.7360  0.2255  0.9079
16982TIP3   OH272436   2.733   3.702  17.118 -0.1830  0.3767 -0.2054
16982TIP3    H172437   2.745   3.703  17.024 -1.1106  0.0337 -0.3429
16982TIP3    H272438   2.820   3.683  17.154 -0.1525 -1.3040 -1.0775
16983TIP3   OH272439   6.365   0.008   2.394 -0.2742  0.1573  0.1393
16983TIP3    H172440   6.278   0.047   2.405  0.1030  1.2807 -0.6678
16983TIP3    H272441   6.361  -0.036   2.309  0.5899  2.1714 -1.0358
16984TIP3   OH272442   1.917   1.260  11.639  0.0220  0.0490  0.0030
16984TIP3    H172443   1.870   1.233  11.717 -0.1270 -2.0503 -0.7436
16984TIP3    H272444   1.941   1.178  11.595  0.1239  1.1346 -2.1310
16985TIP3   OH272445   3.423   2.295  13.181 -0.0728 -0.0015 -0.2254
16985TIP3    H172446   3.417   2.330  13.092  0.0085 -0.7888 -0.5503
16985TIP3    H272447   3.345   2.240  13.190 -0.5346  0.7444  0.5021
16986TIP3   OH272448   2.840   1.558   5.894  0.1490 -0.5323 -0.6051
16986TIP3    H172449   2.928   1.577   5.926  0.3295 -1.1396 -0.7327
16986TIP3    H272450   2.799   1.507   5.964 -0.7761  1.3403  0.2947
16987TIP3   OH272451   3.796   0.498  11.454  0.5078  0.2020 -0.1214
16987TIP3    H172452   3.807   0.582  11.409 -0.4822  0.8401  0.7732
16987TIP3    H272453   3.831   0.433  11.393  1.6526  1.2913 -0.6680
16988TIP3   OH272454   1.097   2.136  11.031 -0.3275 -0.8064  0.3656
16988TIP3    H172455   1.078   2.191  10.955 -1.6124  0.6383  1.6451
16988TIP3    H272456   1.119   2.050  10.995 -0.3960 -0.0281 -1.6251
16989TIP3   OH272457   0.627   3.402  14.731 -0.1093  0.0328 -0.1944
16989TIP3    H172458   0.574   3.322  14.731  1.4712 -1.0491  0.5687
16989TIP3    H272459   0.681   3.395  14.652 -0.3695  0.6406 -0.4325
16990TIP3   OH272460   2.777   0.047   0.507  0.3189 -0.5489  0.3700
16990TIP3    H172461   2.755   0.011   0.421  1.1264 -0.2857  0.0382
16990TIP3    H272462   2.741  -0.015   0.570 -2.8367  0.6658 -0.0471
16991TIP3   OH272463   2.904   4.608  16.108 -0.1086  0.1662 -0.2701
16991TIP3    H172464   2.939   4.676  16.166  0.4153  0.2413 -0.6661
16991TIP3    H272465   2.869   4.657  16.033 -2.0473  0.1737  0.5911
16992TIP3   OH272466   3.730   2.596   2.792 -0.2038  0.5310 -0.6083
16992TIP3    H172467   3.754   2.687   2.771 -0.3364  0.6972 -0.0634
16992TIP3    H272468   3.774   2.544   2.725  0.8374  0.9079 -0.2520
16993TIP3   OH272469   5.748   2.768  15.549  0.3603  0.0765 -0.3708
16993TIP3    H172470   5.841   2.755  15.533 -0.2967 -2.7459 -2.6279
16993TIP3    H272471   5.740   2.766  15.645  2.3359 -2.0652 -0.1703
16994TIP3   OH272472   6.106   1.646  15.654  0.1473 -0.4938 -0.4542
16994TIP3    H172473   6.155   1.647  15.736 -0.0577  1.0132 -0.3377
16994TIP3    H272474   6.119   1.557  15.620  2.6481 -0.2553 -0.2504
16995TIP3   OH272475   1.571   2.749  10.813 -0.1280  0.3771  0.0402
16995TIP3    H172476   1.552   2.757  10.719 -0.3996  1.2653  0.1625
16995TIP3    H272477   1.511   2.682  10.845 -0.2483  0.2948 -0.3572
16996TIP3   OH272478   3.220   1.246   4.608 -0.2268  0.3758 -0.2783
16996TIP3    H172479   3.249   1.224   4.519 -1.2163  0.5402 -0.6539
16996TIP3    H272480   3.254   1.335   4.622  1.9058 -0.4723  0.4178
16997TIP3   OH272481   2.958   0.466  14.804  0.0502 -0.6054  0.0801
16997TIP3    H172482   2.921   0.544  14.845  1.3300 -0.5086  1.0920
16997TIP3    H272483   2.985   0.495  14.717 -0.8095 -0.3111 -0.1058
16998TIP3   OH272484   3.096   6.729   4.666  0.1990 -0.0423 -0.1161
16998TIP3    H172485   3.159   6.797   4.690  0.4670 -0.6335  0.8953
16998TIP3    H272486   3.012   6.775   4.661  0.2410  0.2365  1.3254
16999TIP3   OH272487   5.594   3.546   3.204 -0.2660 -0.0222 -0.1608
16999TIP3    H172488   5.513   3.505   3.174 -0.6061  1.2060 -0.9665
16999TIP3    H272489   5.663   3.493   3.165 -0.6939  1.0104 -2.5032
17000TIP3   OH272490   2.496   1.984  12.935 -0.2215  0.1794  0.0422
17000TIP3    H172491   2.454   2.069  12.943 -0.6296 -0.1321  1.8875
17000TIP3    H272492   2.568   1.987  12.999  0.5634 -0.4255 -0.7837
17001TIP3   OH272493   6.098   2.583  10.796 -0.1198 -0.0651 -0.8972
17001TIP3    H172494   6.133   2.584  10.885 -1.4445  1.2790 -0.3364
17001TIP3    H272495   6.173   2.603  10.740  0.3550  1.0887  0.1064
17002TIP3   OH272496   2.415   6.787  13.687  0.3870 -0.1230  0.5518
17002TIP3    H172497   2.429   6.761  13.778  0.2056  2.0711  1.2728
17002TIP3    H272498   2.493   6.756  13.641  1.4611  0.4898  1.8765
17003TIP3   OH272499   4.952   4.978   5.586 -0.5624  0.5634  0.1664
17003TIP3    H172500   4.946   4.925   5.507 -0.8590 -0.1019  0.6245
17003TIP3    H272501   4.862   4.985   5.617 -0.3344 -0.1651  1.0645
17004TIP3   OH272502   3.207   4.380  16.210 -0.5351 -0.2155 -0.5831
17004TIP3    H172503   3.149   4.438  16.258  0.0419  0.9362 -1.2133
17004TIP3    H272504   3.256   4.333  16.277  1.3147  2.4188  0.0820
17005TIP3   OH272505   5.814   2.634  14.699 -0.1467  0.2941  0.0809
17005TIP3    H172506   5.821   2.587  14.616  0.3943 -0.3486  0.4833
17005TIP3    H272507   5.901   2.670  14.713 -0.4566  1.1211 -0.0363
17006TIP3   OH272508   0.465   4.597   0.620  0.2983 -0.1817  0.1462
17006TIP3    H172509   0.510   4.535   0.677  1.3623 -0.0743 -0.5578
17006TIP3    H272510   0.531   4.662   0.598 -0.3238  0.2378 -0.5476
17007TIP3   OH272511   4.255   6.321   0.209 -0.0756  0.0718 -0.4412
17007TIP3    H172512   4.208   6.272   0.141  0.6769  0.0459 -0.9559
17007TIP3    H272513   4.265   6.409   0.173 -0.4275  0.3024  0.0089
17008TIP3   OH272514   0.372   2.125   5.098 -0.2221  0.1432 -0.5289
17008TIP3    H172515   0.420   2.062   5.152  0.0225  0.0282 -0.8757
17008TIP3    H272516   0.340   2.073   5.024 -2.4319 -0.2011  0.5718
17009TIP3   OH272517   3.592   1.011  13.763 -0.2552  0.7843 -0.0782
17009TIP3    H172518   3.656   1.065  13.716  0.4738 -0.8379 -1.0295
17009TIP3    H272519   3.619   0.921  13.747 -2.2260  0.0593  0.2990
17010TIP3   OH272520   3.463   3.471  14.478 -0.5382 -0.4713 -0.3217
17010TIP3    H172521   3.426   3.539  14.421 -0.9340 -0.9138 -0.6099
17010TIP3    H272522   3.533   3.515  14.525 -2.7144  1.0202  1.8083
17011TIP3   OH272523   6.724   0.203  15.241 -0.7699 -0.0623 -0.2635
17011TIP3    H172524   6.705   0.285  15.194  1.0214 -0.0433 -1.0564
17011TIP3    H272525   6.673   0.209  15.321  0.9812  2.9393  0.8041
17012TIP3   OH272526   1.473   2.184  13.682 -0.0909  0.3350  0.0710
17012TIP3    H172527   1.484   2.149  13.593 -2.2733  0.5507 -0.3328
17012TIP3    H272528   1.431   2.113  13.730 -0.5559  0.8532  0.4390
17013TIP3   OH272529   3.051   2.381   4.289 -0.1052 -0.1247 -0.3492
17013TIP3    H172530   3.089   2.294   4.275  2.5995  0.4990  2.0262
17013TIP3    H272531   2.978   2.366   4.349  2.1749 -0.6693  2.5427
17014TIP3   OH272532   0.533   6.052   2.446 -0.2079 -0.2931  0.4575
17014TIP3    H172533   0.572   5.967   2.467 -0.4045 -1.0037 -1.7494
17014TIP3    H272534   0.607   6.107   2.421 -0.0062  0.4480  2.5429
17015TIP3   OH272535   0.290   2.902  13.387 -0.4276  0.6051 -0.1895
17015TIP3    H172536   0.303   2.820  13.339 -1.1751 -0.6104  1.5734
17015TIP3    H272537   0.339   2.890  13.468  0.8044  2.6033 -0.5807
17016TIP3   OH272538   3.484   5.967  14.693 -0.2881 -0.3744  0.1563
17016TIP3    H172539   3.476   5.927  14.779  1.2270  0.8904  0.9421
17016TIP3    H272540   3.397   6.003  14.675 -0.3208  0.4628  1.7628
17017TIP3   OH272541   5.475   2.210  13.694  0.0155  0.2917 -0.1785
17017TIP3    H172542   5.508   2.265  13.623  1.2675  0.8885  0.8216
17017TIP3    H272543   5.492   2.261  13.773  3.3036 -2.3724  1.0484
17018TIP3   OH272544   0.931   5.531   0.008  0.3417  0.2891  0.0243
17018TIP3    H172545   0.985   5.497   0.079 -1.1660 -2.4090  0.0088
17018TIP3    H272546   0.989   5.533  -0.068  1.4257  1.2799  0.8513
17019TIP3   OH272547   2.046   6.670  13.016 -0.7178  0.0196  0.0776
17019TIP3    H172548   1.959   6.709  13.029 -1.2780 -1.3373  0.5560
17019TIP3    H272549   2.061   6.677  12.922 -0.4343  2.0840  0.2285
17020TIP3   OH272550   5.503   5.920   5.300  0.6649 -0.0372 -0.6026
17020TIP3    H172551   5.485   5.885   5.387 -0.5692  1.1261 -0.3559
17020TIP3    H272552   5.478   5.851   5.240 -1.9233  0.4204 -0.1377
17021TIP3   OH272553   0.821   6.780   3.329  0.7180  0.2581 -0.0598
17021TIP3    H172554   0.747   6.765   3.389 -0.0357  1.4958 -0.6399
17021TIP3    H272555   0.780   6.801   3.246  1.7564 -1.6227 -1.1064
17022TIP3   OH272556   2.303   1.255   1.438  0.1027  0.3451  0.0678
17022TIP3    H172557   2.296   1.347   1.463  0.4597  0.4017 -0.0402
17022TIP3    H272558   2.227   1.213   1.479 -1.9007  1.2478 -2.4318
17023TIP3   OH272559   0.255   6.833  16.811  0.5006  0.1022  0.2412
17023TIP3    H172560   0.267   6.844  16.905 -0.3704 -0.3212  0.4106
17023TIP3    H272561   0.303   6.905  16.772  0.3410  0.6486  1.0411
17024TIP3   OH272562   2.540   0.524  15.188 -0.4627 -0.1595  0.1749
17024TIP3    H172563   2.586   0.543  15.270 -1.3664  0.6469  0.5192
17024TIP3    H272564   2.610   0.515  15.123  0.2875 -1.1727  1.0841
17025TIP3   OH272565   1.515   2.704   4.599 -0.3009 -0.3046  0.0987
17025TIP3    H172566   1.600   2.724   4.561 -0.4814  2.6604  1.0150
17025TIP3    H272567   1.456   2.699   4.525  0.4991 -1.8416 -0.4942
17026TIP3   OH272568   4.531   2.428  12.152  0.0532 -0.6981  0.4352
17026TIP3    H172569   4.479   2.507  12.135 -1.2679 -1.3188  1.4325
17026TIP3    H272570   4.608   2.461  12.199  0.4925  0.2110 -0.8727
17027TIP3   OH272571   4.310   2.097  12.463  0.2407 -0.5531  0.4434
17027TIP3    H172572   4.368   2.125  12.393 -0.3237 -2.0660 -0.7025
17027TIP3    H272573   4.226   2.082  12.420 -0.6663  0.3334  1.8154
17028TIP3   OH272574   5.371   1.081  11.967  0.0742  0.3731 -0.3238
17028TIP3    H172575   5.345   1.115  12.053 -1.5353  0.8704 -0.9788
17028TIP3    H272576   5.464   1.103  11.960  0.6553 -1.0188  1.9081
17029TIP3   OH272577   6.359   5.948  16.174 -0.2171 -0.3435 -0.2793
17029TIP3    H172578   6.393   5.978  16.259 -2.0240 -1.3803  0.8642
17029TIP3    H272579   6.407   6.001  16.110  0.7526  0.9296  1.3949
17030TIP3   OH272580   5.304   2.382   2.852  0.5176  0.5836  0.4958
17030TIP3    H172581   5.215   2.417   2.846  0.8419  1.3192 -0.0803
17030TIP3    H272582   5.338   2.385   2.763  1.0150  0.0071  0.6579
17031TIP3   OH272583   2.170   3.288  15.382  0.0093 -0.7163 -0.2013
17031TIP3    H172584   2.238   3.226  15.358  0.2317 -0.1826 -1.0007
17031TIP3    H272585   2.199   3.371  15.345 -1.0895 -0.4823 -0.5772
17032TIP3   OH272586   3.061   3.252  16.610 -0.0179 -0.6189  0.4397
17032TIP3    H172587   3.025   3.322  16.664  0.0853 -0.6726  0.5770
17032TIP3    H272588   3.036   3.276  16.520 -0.8650 -0.9360  0.5811
17033TIP3   OH272589   6.084   3.880   3.956  0.1226  0.1567 -0.3283
17033TIP3    H172590   5.995   3.871   3.990 -0.2963  0.9446 -1.1592
17033TIP3    H272591   6.140   3.882   4.034 -0.4898 -1.1972  0.1763
17034TIP3   OH272592   5.552   1.836  16.178 -0.1324 -0.2148 -0.2492
17034TIP3    H172593   5.515   1.770  16.237 -1.7263 -1.0168 -2.0413
17034TIP3    H272594   5.490   1.909  16.182 -0.1081 -0.1651 -0.6994
17035TIP3   OH272595   1.244   1.732   5.856 -0.0487  0.0292 -0.1651
17035TIP3    H172596   1.237   1.674   5.931 -0.2636  0.9903  0.5733
17035TIP3    H272597   1.154   1.746   5.827 -0.4579  3.0687  2.1018
17036TIP3   OH272598   0.205   2.899   4.055  0.6510  0.0364 -0.3609
17036TIP3    H172599   0.216   2.916   4.149 -0.4456  0.6179 -0.3155
17036TIP3    H272600   0.223   2.984   4.014 -1.2477  0.4283 -0.4545
17037TIP3   OH272601   1.838   3.051  11.782 -0.3195  1.0651  0.0525
17037TIP3    H172602   1.924   3.086  11.758  0.4638 -0.8742 -0.1535
17037TIP3    H272603   1.818   2.988  11.712 -1.5100  0.8659  0.5477
17038TIP3   OH272604   2.485   3.439   3.083 -0.3181  0.6058  0.5346
17038TIP3    H172605   2.459   3.356   3.123  0.9505 -1.0023 -1.7655
17038TIP3    H272606   2.578   3.447   3.102  0.0572  0.3651 -1.0435
17039TIP3   OH272607   1.381   5.752   1.901 -1.0679  0.2699 -0.4805
17039TIP3    H172608   1.417   5.722   1.984  0.3556  0.9381 -0.8319
17039TIP3    H272609   1.327   5.827   1.925  0.4309  1.3295 -0.2630
17040TIP3   OH272610   6.196   6.573  10.439  0.3592 -0.5309 -0.1186
17040TIP3    H172611   6.250   6.581  10.360 -0.3989 -0.3066 -0.6219
17040TIP3    H272612   6.218   6.486  10.474 -0.5257 -1.3527 -1.5146
17041TIP3   OH272613   5.478   5.396   3.864 -0.2169 -0.3162  0.4008
17041TIP3    H172614   5.556   5.391   3.919 -0.0394 -1.0176  0.0903
17041TIP3    H272615   5.498   5.341   3.789 -1.0994 -0.6845  0.4254
17042TIP3   OH272616   4.597   1.834  12.448 -0.1273  0.2642  0.4276
17042TIP3    H172617   4.635   1.790  12.524  0.4778 -1.2403 -0.7005
17042TIP3    H272618   4.568   1.919  12.482  0.9714  0.0177  2.1291
17043TIP3   OH272619   4.723   2.531  10.821  0.5031  0.3682 -0.4244
17043TIP3    H172620   4.745   2.602  10.760  1.3827 -0.9308 -1.6777
17043TIP3    H272621   4.807   2.496  10.849  0.1597 -1.8163 -1.8610
17044TIP3   OH272622   6.141   1.424  12.020  0.4186  0.9278 -0.5324
17044TIP3    H172623   6.158   1.329  12.016 -1.1468  0.5559  0.5686
17044TIP3    H272624   6.210   1.463  11.966  3.8213 -0.4714  2.3752
17045TIP3   OH272625   6.177   6.807  11.225 -0.2831  0.0467  0.8337
17045TIP3    H172626   6.118   6.841  11.158 -0.4317  0.5512  1.2162
17045TIP3    H272627   6.229   6.740  11.179 -0.2075  0.5599  0.1550
17046TIP3   OH272628   0.455   3.609  14.537 -0.4893  0.6512 -0.0279
17046TIP3    H172629   0.449   3.585  14.630  1.7409 -2.5301 -0.5314
17046TIP3    H272630   0.417   3.535  14.491  0.0334  1.3872 -1.6987
17047TIP3   OH272631   5.668   2.405  12.070  0.2146  0.1643 -0.0380
17047TIP3    H172632   5.606   2.477  12.082 -0.0453 -0.2844  1.4917
17047TIP3    H272633   5.616   2.326  12.077  0.5377 -0.2242 -1.5038
17048TIP3   OH272634   3.239   2.103   3.042 -0.0310  0.6370 -0.0944
17048TIP3    H172635   3.313   2.108   2.982 -0.0913  1.2374 -0.1314
17048TIP3    H272636   3.179   2.040   3.001 -0.2087  1.2719 -0.8339
17049TIP3   OH272637   0.607   4.925  11.585  0.5614  0.2544 -0.4076
17049TIP3    H172638   0.539   4.960  11.643 -0.5394 -1.7915 -0.3998
17049TIP3    H272639   0.565   4.920  11.499  0.4182 -1.7126 -0.2569
17050TIP3   OH272640   5.315   5.888  14.345  0.0673 -0.4986 -0.7548
17050TIP3    H172641   5.235   5.937  14.363 -0.2213 -0.4652 -1.9901
17050TIP3    H272642   5.385   5.952  14.355  0.0798 -0.8080  1.4839
17051TIP3   OH272643   0.626   1.322   1.574 -0.6741 -0.0585 -0.3240
17051TIP3    H172644   0.537   1.350   1.556 -0.2431  1.1319 -0.6851
17051TIP3    H272645   0.647   1.260   1.504 -1.0174  0.0856 -0.5525
17052TIP3   OH272646   6.207   1.449   2.783  0.3459 -0.1972  0.4453
17052TIP3    H172647   6.267   1.438   2.857 -0.6627 -0.4620  1.2482
17052TIP3    H272648   6.256   1.502   2.720  1.6169 -0.8600  0.8367
17053TIP3   OH272649   2.089   0.239  15.676 -0.1261  0.4468 -0.5449
17053TIP3    H172650   1.994   0.247  15.681 -0.4074 -1.1649 -2.1418
17053TIP3    H272651   2.112   0.277  15.591  0.2141 -1.8444 -1.5585
17054TIP3   OH272652   1.647   4.606  16.915 -0.7047  0.6223  0.2882
17054TIP3    H172653   1.603   4.663  16.978 -3.2203 -1.3588  0.4892
17054TIP3    H272654   1.609   4.520  16.931  1.0446 -0.6013 -1.7313
17055TIP3   OH272655   4.514   2.025  14.038  0.5876  0.2237  0.0005
17055TIP3    H172656   4.480   2.084  13.971 -1.8570 -0.1357  0.8401
17055TIP3    H272657   4.549   2.084  14.105 -1.4667  0.7893  0.6489
17056TIP3   OH272658   3.115   1.920  13.417 -0.2722 -0.4263  0.7737
17056TIP3    H172659   3.154   1.993  13.368  2.0084 -1.4117  1.0038
17056TIP3    H272660   3.115   1.950  13.508 -0.8437 -0.1221  0.6822
17057TIP3   OH272661   5.063   6.540  13.571 -0.3811  0.3351 -0.2792
17057TIP3    H172662   4.984   6.582  13.538 -0.1600 -0.9486 -2.6732
17057TIP3    H272663   5.128   6.610  13.575 -0.6557  0.7216 -1.8816
17058TIP3   OH272664   5.096   6.310   0.015 -0.4718 -0.6678 -0.4230
17058TIP3    H172665   5.127   6.272   0.097 -2.6268  0.8112  1.1557
17058TIP3    H272666   5.063   6.396   0.038  0.6131  0.6255 -3.2231
17059TIP3   OH272667   4.261   6.128   4.358  0.4260 -0.4864  0.1581
17059TIP3    H172668   4.356   6.114   4.367  1.0353  0.5721 -3.1606
17059TIP3    H272669   4.231   6.149   4.446  3.3029 -0.7179  1.2964
17060TIP3   OH272670   1.609   0.231  12.100 -0.4519  0.3169  0.2066
17060TIP3    H172671   1.545   0.159  12.100  1.6699 -1.7165  1.7112
17060TIP3    H272672   1.602   0.270  12.188  1.3052 -0.9193  0.9568
17061TIP3   OH272673   2.273   3.625   5.890 -0.9329 -0.1286  0.5371
17061TIP3    H172674   2.243   3.624   5.981 -1.0124 -3.5499  0.6071
17061TIP3    H272675   2.367   3.614   5.895 -0.9830 -0.7649  0.2325
17062TIP3   OH272676   5.037   5.404   4.513  0.7888  0.3787  0.4127
17062TIP3    H172677   5.027   5.461   4.589 -1.6318  1.3663 -0.5760
17062TIP3    H272678   5.036   5.463   4.438  0.6193 -0.7834 -0.5283
17063TIP3   OH272679   1.243   0.753   0.078  0.6709  0.1355 -0.2425
17063TIP3    H172680   1.264   0.738   0.170  0.7192 -1.4102 -0.4706
17063TIP3    H272681   1.197   0.837   0.077  0.3947  0.0318  1.2234
17064TIP3   OH272682   6.797   1.750  14.255 -0.7244  0.0177  0.0999
17064TIP3    H172683   6.867   1.702  14.299 -1.7142 -1.9198 -0.2913
17064TIP3    H272684   6.840   1.827  14.218  1.1325 -0.9611  0.0855
17065TIP3   OH272685   3.020   2.464   2.401 -0.1163  0.2264 -0.9043
17065TIP3    H172686   3.092   2.471   2.464 -2.7566  0.6100  2.3622
17065TIP3    H272687   2.984   2.552   2.396 -1.9081 -0.4300 -0.3709
17066TIP3   OH272688   5.365   0.422  15.620 -0.4856 -0.2510 -0.2203
17066TIP3    H172689   5.405   0.406  15.706 -1.6736 -1.5490  0.1303
17066TIP3    H272690   5.370   0.337  15.575 -0.6202  0.2050 -1.1243
17067TIP3   OH272691   2.232   1.245   0.158  0.5821  0.3146 -0.6772
17067TIP3    H172692   2.262   1.336   0.166  1.2784  0.1623 -1.4371
17067TIP3    H272693   2.174   1.246   0.081 -0.0610  0.2708 -0.2005
17068TIP3   OH272694   0.962   3.091   2.376 -0.2281 -0.3670  0.3453
17068TIP3    H172695   1.031   3.041   2.418  0.0081 -1.1694 -0.9466
17068TIP3    H272696   0.940   3.041   2.297 -1.5743  0.3928  0.2058
17069TIP3   OH272697   5.857   3.762   4.981 -0.0864  0.0646  0.3265
17069TIP3    H172698   5.795   3.749   5.053 -1.9239  1.2502 -0.9294
17069TIP3    H272699   5.835   3.694   4.917 -1.3115  1.4722 -0.8438
17070TIP3   OH272700   4.936   0.314   5.113  0.2510  0.3714 -0.0345
17070TIP3    H172701   4.856   0.303   5.061 -0.5778  0.7729  1.0896
17070TIP3    H272702   4.998   0.251   5.077 -1.1666 -1.2243  0.1857
17071TIP3   OH272703   5.530   3.637   3.802  0.1082 -0.5954  0.2711
17071TIP3    H172704   5.438   3.647   3.824 -0.2243 -0.4429 -1.0729
17071TIP3    H272705   5.531   3.569   3.734  1.1742 -1.7988  1.4415
17072TIP3   OH272706   4.188   3.339   2.363  0.3285  0.6438  0.3524
17072TIP3    H172707   4.257   3.341   2.296  1.1424 -1.1395  1.0854
17072TIP3    H272708   4.106   3.338   2.313  0.8567  1.1769 -0.5562
17073TIP3   OH272709   5.834   5.705   5.171  0.0148  0.1521 -0.0790
17073TIP3    H172710   5.758   5.649   5.188 -0.2748  0.5587 -0.0081
17073TIP3    H272711   5.800   5.775   5.115 -0.1839  1.4840  1.5945
17074TIP3   OH272712   5.846   2.234  10.817  0.1083 -0.1592  0.2040
17074TIP3    H172713   5.799   2.161  10.777 -1.6672  1.6310 -1.1354
17074TIP3    H272714   5.803   2.247  10.901 -0.1495 -0.0958  0.0621
17075TIP3   OH272715   3.141   1.452  14.816 -0.2037 -0.0953  0.6452
17075TIP3    H172716   3.139   1.382  14.881 -2.0878 -0.5178  0.2109
17075TIP3    H272717   3.109   1.410  14.736  0.3852  0.8399 -0.0928
17076TIP3   OH272718   5.291   6.829   2.954 -0.0092 -0.1844  0.0532
17076TIP3    H172719   5.323   6.902   3.007 -0.1513 -0.6582  0.8087
17076TIP3    H272720   5.282   6.756   3.016 -0.9422 -0.5290 -0.4689
17077TIP3   OH272721   6.453   1.366  16.719 -0.0086  0.2890  0.2712
17077TIP3    H172722   6.513   1.420  16.668 -1.7481  3.2367  1.0543
17077TIP3    H272723   6.385   1.340  16.658 -1.6206  3.0783  0.6756
17078TIP3   OH272724   4.848   2.054   5.849  0.1850  0.7486  0.2332
17078TIP3    H172725   4.791   2.121   5.812  0.4886 -0.1390 -1.9980
17078TIP3    H272726   4.932   2.098   5.864 -0.2930  1.4129  1.0749
17079TIP3   OH272727   3.011   3.861   3.519 -0.3842 -0.1277 -0.0004
17079TIP3    H172728   2.953   3.891   3.589 -2.0725 -0.4059 -1.2198
17079TIP3    H272729   3.063   3.938   3.496 -0.9755  0.4087  0.4219
17080TIP3   OH272730   6.065   2.739  12.137 -0.0942 -0.2352 -0.0807
17080TIP3    H172731   6.027   2.767  12.220 -1.0367  0.1075 -0.6150
17080TIP3    H272732   6.061   2.643  12.140  1.1782 -0.2800  0.8517
17081TIP3   OH272733   1.697   1.820  11.906  0.0039 -0.0605  0.2233
17081TIP3    H172734   1.752   1.796  11.831  1.6251 -1.1702  1.6781
17081TIP3    H272735   1.727   1.907  11.930 -0.0759  0.0390 -0.0327
17082TIP3   OH272736   5.572   2.606   6.417  0.4501  0.3657 -0.1778
17082TIP3    H172737   5.611   2.534   6.467  1.0634  2.3609  2.4101
17082TIP3    H272738   5.647   2.649   6.375  0.3394  0.7853  0.0563
17083TIP3   OH272739   3.812   4.788  12.443  0.5365  0.1540  0.0141
17083TIP3    H172740   3.777   4.748  12.523 -0.8815  0.3574 -0.4776
17083TIP3    H272741   3.757   4.865  12.430  1.6545  0.8963 -0.4076
17084TIP3   OH272742   3.446   3.485  12.696 -0.1249  0.0462  0.2675
17084TIP3    H172743   3.498   3.563  12.676  2.4788 -1.4521  0.8170
17084TIP3    H272744   3.487   3.415  12.645 -1.2492 -1.3470  1.2042
17085TIP3   OH272745   5.547   1.212   3.261 -0.7250 -0.1736 -0.1931
17085TIP3    H172746   5.625   1.156   3.259 -1.0487 -0.6143 -1.3002
17085TIP3    H272747   5.571   1.287   3.206 -1.2885 -0.6284 -1.0950
17086TIP3   OH272748   2.711   4.981   4.581  0.0720  0.3801  0.0858
17086TIP3    H172749   2.728   4.888   4.567 -1.3595  0.1182 -0.0375
17086TIP3    H272750   2.642   5.003   4.519 -0.6549  1.1687  1.1443
17087TIP3   OH272751   1.918   2.271   4.805 -0.0733  0.3887  0.0881
17087TIP3    H172752   1.990   2.334   4.808 -0.4019  0.7485  0.7103
17087TIP3    H272753   1.957   2.188   4.831 -0.2788  0.9919  2.5870
17088TIP3   OH272754   3.272   0.178  13.540  0.3712  0.0453  0.8104
17088TIP3    H172755   3.259   0.262  13.584 -0.9537 -0.1314  0.8046
17088TIP3    H272756   3.184   0.141  13.533  0.9176 -1.3037  0.7262
17089TIP3   OH272757   6.701   0.549   3.313 -0.6903  0.1376 -0.4122
17089TIP3    H172758   6.770   0.532   3.249  0.1297 -0.5903  0.6212
17089TIP3    H272759   6.722   0.491   3.386 -0.9601  1.7449  0.9977
17090TIP3   OH272760   0.126   1.581   6.221  0.1868  0.0521  0.9976
17090TIP3    H172761   0.083   1.498   6.199  0.1542  0.0737  0.9801
17090TIP3    H272762   0.056   1.646   6.220  0.1332  0.0046  1.4598
17091TIP3   OH272763   4.136   0.436   2.871  0.1437  0.1404  0.3637
17091TIP3    H172764   4.215   0.414   2.822  0.0880  2.4884 -0.9199
17091TIP3    H272765   4.166   0.496   2.940 -0.4637  1.0512 -0.1356
17092TIP3   OH272766   1.278   1.558   1.032  0.2667  0.3255  0.6137
17092TIP3    H172767   1.214   1.539   0.963 -0.6725 -1.0346  1.7926
17092TIP3    H272768   1.225   1.589   1.106  0.8633 -1.3471  1.7979
17093TIP3   OH272769   1.315   0.741  10.883  0.6455  0.3473  0.2482
17093TIP3    H172770   1.311   0.812  10.819 -1.0115  0.2582  0.2118
17093TIP3    H272771   1.379   0.679  10.846  1.4308  1.3742 -0.1620
17094TIP3   OH272772   5.974   0.544   5.061  0.0690  0.1430  0.8204
17094TIP3    H172773   5.895   0.589   5.035  0.4625 -0.9585 -2.7911
17094TIP3    H272774   6.040   0.613   5.068 -0.4489  0.6774  0.5078
17095TIP3   OH272775   3.477   4.823  12.933 -0.0997 -0.2549 -0.0218
17095TIP3    H172776   3.490   4.915  12.911  1.7881 -0.7001 -1.0547
17095TIP3    H272777   3.397   4.799  12.887  0.7255  0.2892 -1.8642
17096TIP3   OH272778   0.644   0.304  12.359 -0.1651  0.3746 -0.3856
17096TIP3    H172779   0.724   0.259  12.385 -1.2434 -1.4194 -0.0262
17096TIP3    H272780   0.643   0.297  12.263 -0.2986 -0.2973 -0.3330
17097TIP3   OH272781   6.231   0.556  12.091 -0.1377 -0.5247 -0.2379
17097TIP3    H172782   6.148   0.557  12.043 -0.2025  0.1916 -0.1160
17097TIP3    H272783   6.267   0.468  12.076 -0.9741 -0.8779 -0.1894
17098TIP3   OH272784   3.009   6.519   6.792  0.4422  0.1326 -0.0262
17098TIP3    H172785   2.985   6.428   6.811 -0.2109  0.5628  1.2828
17098TIP3    H272786   2.931   6.556   6.750  0.8924 -0.0357 -1.0460
17099TIP3   OH272787   1.343   3.246   1.029 -0.1744  0.3150  0.6081
17099TIP3    H172788   1.314   3.159   1.000  1.0617  0.9091 -2.9707
17099TIP3    H272789   1.435   3.250   1.005 -0.1912  2.5901  0.7078
17100TIP3   OH272790   1.612   3.898   5.690  0.3860  0.2065  0.6275
17100TIP3    H172791   1.628   3.990   5.710  0.6731  0.2754  0.0824
17100TIP3    H272792   1.658   3.850   5.760  0.3140  0.4708  0.8567
17101TIP3   OH272793   2.763   6.683   1.446 -0.1228 -0.1692  0.1234
17101TIP3    H172794   2.800   6.667   1.360 -0.1333  1.4693 -0.2174
17101TIP3    H272795   2.814   6.628   1.505  1.1115  0.0767 -0.6816
17102TIP3   OH272796   2.836   0.928  12.012 -0.2173  0.1850 -0.2882
17102TIP3    H172797   2.886   0.989  11.959 -0.4389 -0.8938 -1.7877
17102TIP3    H272798   2.829   0.849  11.959  1.8692 -2.0050  2.3464
17103TIP3   OH272799   0.778   1.190  11.386  0.1192 -0.7345  0.4158
17103TIP3    H172800   0.709   1.187  11.452  0.6988  1.0013  1.1529
17103TIP3    H272801   0.731   1.198  11.303 -0.5865 -1.2343  0.7544
17104TIP3   OH272802   1.537   0.899   0.656 -0.0061  0.5309 -0.2274
17104TIP3    H172803   1.496   0.830   0.708 -0.1186  0.1854 -0.7593
17104TIP3    H272804   1.627   0.903   0.687 -0.3605  1.1042  0.7592
17105TIP3   OH272805   2.422   0.015  16.160  0.2015  0.4466  0.0908
17105TIP3    H172806   2.505   0.027  16.206 -0.4203  0.1858  1.3229
17105TIP3    H272807   2.427  -0.073  16.123  0.5413  0.5038  0.0008
17106TIP3   OH272808   1.688   4.178  12.834  0.2187 -0.1960 -0.0796
17106TIP3    H172809   1.610   4.143  12.877 -0.2049  0.2764 -0.4541
17106TIP3    H272810   1.757   4.117  12.858 -0.1182 -0.2512  0.8165
17107TIP3   OH272811   4.569   5.212   4.502 -0.3535 -0.3996  0.4479
17107TIP3    H172812   4.618   5.183   4.425 -1.5653 -2.1948  0.2858
17107TIP3    H272813   4.632   5.264   4.552  1.3502 -1.5817 -0.3616
17108TIP3   OH272814   6.758   5.720   5.487 -0.0125  0.3058 -0.3336
17108TIP3    H172815   6.692   5.670   5.536 -0.1709  0.4801 -0.3698
17108TIP3    H272816   6.789   5.659   5.420  0.5348 -0.0885  0.2687
17109TIP3   OH272817   4.938   6.224   2.899  0.4832 -0.1103  0.2567
17109TIP3    H172818   4.979   6.160   2.840 -1.3273  0.1892 -1.4306
17109TIP3    H272819   4.845   6.217   2.879 -0.3707 -0.6990  3.8547
17110TIP3   OH272820   4.707   2.923   0.522 -0.1743 -0.4793 -0.0929
17110TIP3    H172821   4.709   2.931   0.426 -2.1886 -0.6253 -0.1745
17110TIP3    H272822   4.715   3.013   0.554 -1.9492 -0.1409 -0.4925
17111TIP3   OH272823   2.015   6.103   6.189  0.4629  0.7217 -0.1120
17111TIP3    H172824   2.095   6.143   6.225  1.8907 -1.9956  0.0018
17111TIP3    H272825   2.023   6.115   6.095  0.9696  0.5924 -0.0910
17112TIP3   OH272826   2.794   3.811  15.412  0.3553 -0.5066  0.2739
17112TIP3    H172827   2.843   3.890  15.390  1.6045 -0.5187  2.6573
17112TIP3    H272828   2.706   3.827  15.378  0.6687  1.7509  0.3587
17113TIP3   OH272829   6.744   2.788   1.817  0.0253  0.4154  0.2986
17113TIP3    H172830   6.654   2.775   1.846 -1.2927  2.7812 -2.2006
17113TIP3    H272831   6.798   2.762   1.892 -2.6452 -1.7969  1.6203
17114TIP3   OH272832   4.901   6.702  16.175 -0.2921 -0.1184  0.2824
17114TIP3    H172833   4.835   6.667  16.115  0.2478 -0.8393  0.0914
17114TIP3    H272834   4.985   6.673  16.139  0.1377  0.7769  0.5236
17115TIP3   OH272835   2.200   4.211  14.656 -0.0763  0.3341 -0.2830
17115TIP3    H172836   2.136   4.214  14.585 -0.5022  1.3482  0.1199
17115TIP3    H272837   2.147   4.211  14.736  0.4022 -0.5948  0.0500
17116TIP3   OH272838   5.152   5.859   0.705 -0.0506 -0.5159 -0.1981
17116TIP3    H172839   5.114   5.844   0.618 -1.2427 -0.0318  0.2323
17116TIP3    H272840   5.196   5.943   0.697 -0.4084 -0.3327 -0.2483
17117TIP3   OH272841   4.558   5.528  15.400  0.2316  0.7452  0.3531
17117TIP3    H172842   4.547   5.623  15.393  1.8705  0.8301 -2.1884
17117TIP3    H272843   4.484   5.492  15.352  0.7560  0.8178 -0.5265
17118TIP3   OH272844   1.711   2.049  13.057 -0.1400 -0.0471 -0.1055
17118TIP3    H172845   1.721   1.955  13.044 -3.2009 -0.2653 -1.9943
17118TIP3    H272846   1.747   2.088  12.977  0.2100  0.3363  0.2336
17119TIP3   OH272847   0.869   6.235  13.741  0.3845 -0.4835  0.3845
17119TIP3    H172848   0.789   6.287  13.742  0.4904 -0.2822 -0.6346
17119TIP3    H272849   0.885   6.214  13.833 -0.6642 -0.2655  0.6287
17120TIP3   OH272850   0.901   1.938  11.819 -0.4921  0.2091 -0.4174
17120TIP3    H172851   0.979   1.912  11.769 -0.7738  1.4407 -1.5404
17120TIP3    H272852   0.911   1.893  11.903  1.0339 -0.2872 -0.8294
17121TIP3   OH272853   1.584   6.349  16.460 -0.2489  0.4272  0.1158
17121TIP3    H172854   1.670   6.326  16.426  0.1629  1.1089  0.6979
17121TIP3    H272855   1.525   6.283  16.421  0.8572 -1.4975  1.5556
17122TIP3   OH272856   5.125   2.821   4.700 -0.1436 -0.0493  0.1774
17122TIP3    H172857   5.127   2.783   4.612 -1.7992 -0.6619  0.3674
17122TIP3    H272858   5.197   2.778   4.746 -0.0674 -0.6836 -0.5078
17123TIP3   OH272859   0.552   2.442   5.929  0.1834  0.9367 -0.5641
17123TIP3    H172860   0.494   2.446   6.005  0.0792 -0.0515 -0.5735
17123TIP3    H272861   0.640   2.453   5.966  0.1406  0.3726 -0.2735
17124TIP3   OH272862   1.713   1.729   6.272 -0.1510 -0.6104 -0.2612
17124TIP3    H172863   1.738   1.638   6.285  0.6218 -0.3237  0.3100
17124TIP3    H272864   1.710   1.766   6.360  2.1484  0.5855 -0.6243
17125TIP3   OH272865   0.835   4.301   2.135  0.2972 -0.1956 -0.6204
17125TIP3    H172866   0.918   4.331   2.171  0.2461  1.9066 -2.0509
17125TIP3    H272867   0.858   4.252   2.056  0.2215  1.2645 -1.6007
17126TIP3   OH272868   3.960   6.087  14.676 -0.3486  0.5508  0.1101
17126TIP3    H172869   3.918   6.017  14.625 -1.5764 -0.5771  2.5065
17126TIP3    H272870   4.053   6.063  14.678 -0.7785 -1.1803  1.0410
17127TIP3   OH272871   5.610   3.265  12.452  0.4924  0.1195 -0.0646
17127TIP3    H172872   5.633   3.270  12.359  0.0774 -1.9871 -0.3125
17127TIP3    H272873   5.516   3.282  12.455  0.3425 -0.6982 -0.1315
17128TIP3   OH272874   2.746   0.899  15.428  0.3233  0.2566  0.7370
17128TIP3    H172875   2.790   0.883  15.344 -2.4857 -1.1105 -0.6368
17128TIP3    H272876   2.684   0.969  15.409 -1.0037 -0.7050  1.3632
17129TIP3   OH272877   4.486   3.331   0.965 -0.1899  0.5272  0.5592
17129TIP3    H172878   4.562   3.370   0.921  1.0843  0.2632  2.4028
17129TIP3    H272879   4.439   3.286   0.895  0.6178  1.7804 -0.8725
17130TIP3   OH272880   1.947   3.702   1.423 -0.2102  0.2369  0.0637
17130TIP3    H172881   1.929   3.740   1.337  0.4920 -0.6116 -0.4734
17130TIP3    H272882   1.931   3.773   1.484  2.3227  1.8644 -0.9954
17131TIP3   OH272883   1.205   1.052  12.845 -0.1838 -0.4316  0.3062
17131TIP3    H172884   1.113   1.040  12.866 -1.0169 -0.2848 -2.8408
17131TIP3    H272885   1.216   1.147  12.837 -0.1530 -0.5042 -0.6874
17132TIP3   OH272886   3.540   4.905   3.041  0.2236  0.4120 -0.2581
17132TIP3    H172887   3.511   4.960   3.115 -1.8624 -3.1059  1.8308
17132TIP3    H272888   3.460   4.889   2.991 -0.2105 -3.3760  1.2873
17133TIP3   OH272889   2.633   4.695  14.103  0.3065 -0.0460  0.0451
17133TIP3    H172890   2.701   4.664  14.162 -0.3104 -1.2745  0.1492
17133TIP3    H272891   2.586   4.762  14.153  0.4358 -0.3453  0.5780
17134TIP3   OH272892   4.160   6.326  17.055  0.2969 -0.3086 -0.4854
17134TIP3    H172893   4.247   6.321  17.094  0.2776 -0.4579 -0.4600
17134TIP3    H272894   4.150   6.244  17.006 -0.4084 -1.0095  0.7536
17135TIP3   OH272895   6.806   0.999   2.590  0.2644 -0.2533 -0.1559
17135TIP3    H172896   6.871   0.945   2.545 -0.5522 -0.8523 -0.6448
17135TIP3    H272897   6.764   0.940   2.653 -1.0975 -0.3995 -1.1522
17136TIP3   OH272898   1.061   2.358   0.214  0.1953 -0.9747  0.1694
17136TIP3    H172899   1.090   2.271   0.187 -0.5401 -1.1222 -0.1534
17136TIP3    H272900   0.968   2.348   0.233 -0.5653  0.2864 -2.4460
17137TIP3   OH272901   0.401   0.707   2.241 -0.6164  0.0954 -0.0558
17137TIP3    H172902   0.443   0.786   2.275  0.9275 -0.8213  0.2694
17137TIP3    H272903   0.440   0.636   2.291 -0.6745 -1.0204 -1.5204
17138TIP3   OH272904   4.970   0.704   0.231 -0.0719 -0.2686  0.3861
17138TIP3    H172905   5.030   0.778   0.222 -0.2570  0.2461  2.7279
17138TIP3    H272906   5.020   0.628   0.199 -0.5450  0.9729 -3.9751
17139TIP3   OH272907   1.196   3.122   5.118 -0.2127  0.4134  0.0827
17139TIP3    H172908   1.248   3.157   5.046  0.6955 -0.3183  0.3430
17139TIP3    H272909   1.106   3.144   5.097  0.0862  0.6426 -1.0234
17140TIP3   OH272910   2.190   1.015   2.658 -0.6852 -0.1862 -0.2166
17140TIP3    H172911   2.198   0.921   2.672 -0.2370 -0.1169  0.0221
17140TIP3    H272912   2.277   1.050   2.679 -1.5306  0.6081  2.3327
17141TIP3   OH272913   6.239   4.281  15.880  0.6266 -0.1785  0.5292
17141TIP3    H172914   6.313   4.342  15.873  1.4447 -1.2175 -0.2302
17141TIP3    H272915   6.272   4.210  15.935  0.1910 -0.6540  0.1814
17142TIP3   OH272916   3.113   4.934  12.347  0.4826  0.0585  0.4058
17142TIP3    H172917   3.130   4.937  12.441  0.8287  2.7480  0.3329
17142TIP3    H272918   3.195   4.960  12.306  0.9464 -2.8996 -0.8414
17143TIP3   OH272919   3.873   1.840  14.987  0.4108 -0.3841  0.1934
17143TIP3    H172920   3.936   1.850  15.058  0.5060 -0.1113  0.0699
17143TIP3    H272921   3.911   1.889  14.914 -0.0467 -0.0460  0.1804
17144TIP3   OH272922   2.631   3.729   4.889 -0.1118 -0.4691  0.1733
17144TIP3    H172923   2.620   3.644   4.931  0.6269 -0.2957  0.7363
17144TIP3    H272924   2.723   3.751   4.903  0.6680 -1.1691 -3.0053
17145TIP3   OH272925   6.245   6.005  12.261 -0.4224 -0.2174 -0.0028
17145TIP3    H172926   6.195   6.044  12.190 -0.8094 -1.5762 -0.5198
17145TIP3    H272927   6.220   6.054  12.339 -0.2145  1.1065 -0.7363
17146TIP3   OH272928   1.410   3.170  12.665  0.2146  0.3174  0.3301
17146TIP3    H172929   1.461   3.128  12.596  0.3539 -1.3192  1.3746
17146TIP3    H272930   1.465   3.163  12.743 -1.3110 -0.9987  1.3593
17147TIP3   OH272931   5.226   3.707   4.316  0.5656  0.5306  0.0967
17147TIP3    H172932   5.283   3.762   4.262  2.9312 -1.1074  0.7266
17147TIP3    H272933   5.254   3.724   4.406 -2.2272  2.0334  0.8067
17148TIP3   OH272934   2.568   0.748   1.776  0.7697 -0.3981 -0.0944
17148TIP3    H172935   2.662   0.736   1.762  0.8678 -0.2923  0.4464
17148TIP3    H272936   2.561   0.832   1.821  0.2143  0.8441 -2.3813
17149TIP3   OH272937   1.754   5.965  11.704  0.2598 -0.1261 -0.6522
17149TIP3    H172938   1.734   5.934  11.793 -1.5504  0.5931 -0.7621
17149TIP3    H272939   1.781   6.056  11.715 -1.1738  0.3508 -0.9195
17150TIP3   OH272940   0.265   0.691  14.861 -0.2269  0.8665 -0.0008
17150TIP3    H172941   0.316   0.622  14.903 -0.5154 -0.3562 -1.5649
17150TIP3    H272942   0.331   0.749  14.823  0.0496 -0.1702 -1.1718
17151TIP3   OH272943   0.680   2.101   5.048  0.3779 -0.2329  0.5905
17151TIP3    H172944   0.656   2.009   5.035  3.0659 -0.8445 -0.6468
17151TIP3    H272945   0.623   2.149   4.987  0.8337 -1.3944 -0.8082
17152TIP3   OH272946   3.777   6.460   5.562 -0.1103  0.7440  0.6303
17152TIP3    H172947   3.838   6.511   5.509 -1.4961  1.7404 -0.0862
17152TIP3    H272948   3.814   6.372   5.564 -0.0966  0.5885 -2.2671
17153TIP3   OH272949   5.088   1.807   5.959  0.2350  0.1251  0.0886
17153TIP3    H172950   5.070   1.764   6.043 -0.3640  0.8994  0.3616
17153TIP3    H272951   5.155   1.872   5.979 -3.2650  3.7600  1.0871
17154TIP3   OH272952   5.372   0.756   0.021  0.5320 -0.0012 -0.7101
17154TIP3    H172953   5.351   0.687   0.084  0.7840  0.7740  0.2459
17154TIP3    H272954   5.443   0.806   0.063  1.2560  0.0582 -1.9590
17155TIP3   OH272955   0.687   6.475   0.699  0.0878  0.5271  0.2072
17155TIP3    H172956   0.635   6.502   0.623 -1.2935  0.7547  1.1859
17155TIP3    H272957   0.676   6.546   0.761  2.4997  1.0837  0.0679
17156TIP3   OH272958   0.610   0.985  13.600 -0.3299 -0.5214 -0.1868
17156TIP3    H172959   0.682   0.946  13.551 -1.9824 -1.1718 -2.2224
17156TIP3    H272960   0.634   1.078  13.608  0.8354 -0.7766 -0.5962
17157TIP3   OH272961   2.435   0.473  15.656  0.3429 -0.1456  0.1263
17157TIP3    H172962   2.382   0.542  15.617  0.1294 -0.4554 -0.1375
17157TIP3    H272963   2.459   0.417  15.582 -0.4075 -0.9748  0.5018
17158TIP3   OH272964   4.284   2.372  13.668  0.4679  0.3194 -0.0862
17158TIP3    H172965   4.241   2.434  13.610  0.0487 -0.4281 -0.6045
17158TIP3    H272966   4.227   2.295  13.666  0.9015 -0.0329  0.6421
17159TIP3   OH272967   0.891   1.921  13.705  0.4906 -0.1615 -0.8195
17159TIP3    H172968   0.846   2.004  13.695 -0.3350 -0.1786  1.7894
17159TIP3    H272969   0.820   1.856  13.710  1.0508 -0.8294 -1.3761
17160TIP3   OH272970   0.294   3.591  15.512 -0.6541  0.1402  0.3590
17160TIP3    H172971   0.312   3.554  15.426  0.8805  0.5539  0.4659
17160TIP3    H272972   0.379   3.588  15.557 -0.8953  2.0519  1.0275
17161TIP3   OH272973   6.057   2.046  13.779  0.1273  0.0989 -0.0868
17161TIP3    H172974   5.983   2.104  13.761 -0.5426 -0.7534 -0.1354
17161TIP3    H272975   6.057   1.984  13.706  0.1773 -0.6137  0.5099
17162TIP3   OH272976   5.821   3.862   4.360  0.2323 -0.0894 -0.0743
17162TIP3    H172977   5.834   3.896   4.448 -1.7560 -2.6343  1.3248
17162TIP3    H272978   5.889   3.795   4.350  1.1617  0.9323 -0.9961
17163TIP3   OH272979   0.670   6.438   4.331 -1.1292  0.0676  0.0846
17163TIP3    H172980   0.628   6.524   4.322 -0.0376  0.8029  1.6410
17163TIP3    H272981   0.762   6.458   4.346 -1.0388 -1.3181  1.6537
17164TIP3   OH272982   3.766   3.399   2.589 -0.8117 -0.7687  0.5693
17164TIP3    H172983   3.854   3.359   2.592 -0.3207  0.1697 -0.6199
17164TIP3    H272984   3.723   3.357   2.515 -2.0622 -2.4878  2.1579
17165TIP3   OH272985   3.717   0.979  11.806  0.3383 -0.3239  0.8185
17165TIP3    H172986   3.724   0.955  11.713  2.8907 -1.3924  1.2090
17165TIP3    H272987   3.623   0.989  11.821 -0.1457  3.6254 -2.7652
17166TIP3   OH272988   6.771   1.399  11.199  0.4400 -0.0848  0.8631
17166TIP3    H172989   6.727   1.454  11.135  1.8847  1.3996  1.0868
17166TIP3    H272990   6.792   1.318  11.152  4.3852  2.1267 -1.7512
17167TIP3   OH272991   3.713   2.425   1.549  0.9580 -0.5031  0.3041
17167TIP3    H172992   3.659   2.482   1.494  0.3876  0.0697  1.4109
17167TIP3    H272993   3.667   2.423   1.633  2.5954 -0.0784  1.2583
17168TIP3   OH272994   4.208   1.373  16.774 -0.2875  0.0631  0.1723
17168TIP3    H172995   4.191   1.441  16.839  1.9382  0.5162  0.3535
17168TIP3    H272996   4.204   1.291  16.823  0.5480  0.3435  0.7290
17169TIP3   OH272997   6.762   1.176   4.918  0.6394  0.0342  0.1808
17169TIP3    H172998   6.754   1.152   5.010  1.9906  0.0284  0.3125
17169TIP3    H272999   6.791   1.267   4.920  1.8369 -0.3228 -0.2032
17170TIP3   OH273000   3.272   6.424  16.060 -0.2186  0.4970 -0.0501
17170TIP3    H173001   3.212   6.387  16.124  0.3827  0.7499  0.6803
17170TIP3    H273002   3.236   6.399  15.975 -0.4810 -0.7155  0.3975
17171TIP3   OH273003   3.360   0.780   1.364 -0.0219 -0.4380  0.1523
17171TIP3    H173004   3.278   0.797   1.318  0.9808  2.2909 -0.8428
17171TIP3    H273005   3.383   0.864   1.405  2.7323 -0.8071 -0.4006
17172TIP3   OH273006   2.022   4.744  14.201 -0.0987  0.6966  0.4517
17172TIP3    H173007   2.076   4.751  14.123 -0.9102  0.3156 -0.1626
17172TIP3    H273008   1.956   4.813  14.191 -2.2781 -1.4267 -0.9181
17173TIP3   OH273009   4.871   3.303  10.545  0.3199  0.3047  0.3529
17173TIP3    H173010   4.785   3.271  10.518  0.3451  1.8216 -1.8020
17173TIP3    H273011   4.854   3.390  10.581  0.8329  0.1595  0.9635
17174TIP3   OH273012   2.388   4.256   4.220  0.2696  0.0878 -0.0946
17174TIP3    H173013   2.405   4.210   4.303 -1.3129 -1.1449 -0.4195
17174TIP3    H273014   2.329   4.199   4.172 -0.3570  1.6678 -1.2961
17175TIP3   OH273015   5.722   5.572   5.802  0.5985 -0.0546  0.2952
17175TIP3    H173016   5.627   5.568   5.813  0.4022  2.1847 -0.1125
17175TIP3    H273017   5.756   5.509   5.866 -1.0433  1.3336  2.6818
17176TIP3   OH273018   5.589   0.721  13.055 -0.3050  0.2323  0.0415
17176TIP3    H173019   5.542   0.638  13.047 -2.7401  1.4967  0.3178
17176TIP3    H273020   5.629   0.735  12.969 -1.0325 -0.5618 -0.4354
17177TIP3   OH273021   3.869   4.685   0.684  0.5778  0.0200  0.3329
17177TIP3    H173022   3.925   4.669   0.761  1.1679  0.6121  0.0394
17177TIP3    H273023   3.831   4.600   0.664  0.2724 -0.1020  1.3969
17178TIP3   OH273024   0.743   5.291  12.556  0.6107 -0.3738  0.0957
17178TIP3    H173025   0.825   5.340  12.550  0.9818 -0.8724  0.8872
17178TIP3    H273026   0.728   5.279  12.650 -0.0455 -0.8242 -0.0549
17179TIP3   OH273027   4.752   1.736   0.664  0.3743  0.1019  0.3548
17179TIP3    H173028   4.753   1.643   0.641 -1.8955  0.2706 -0.7985
17179TIP3    H273029   4.665   1.750   0.702  0.5772  1.7913  0.2666
17180TIP3   OH273030   6.000   5.957  13.128 -0.1344 -0.2603 -0.3529
17180TIP3    H173031   5.986   5.917  13.043 -2.1343 -0.3755 -0.0373
17180TIP3    H273032   6.028   5.885  13.185 -2.1050 -0.9425 -0.1689
17181TIP3   OH273033   1.905   1.171  12.504  0.7082  0.4486 -0.3611
17181TIP3    H173034   1.827   1.123  12.476 -0.5582  1.4507  1.2089
17181TIP3    H273035   1.887   1.262  12.481  1.2556  0.7431  0.3290
17182TIP3   OH273036   2.032   4.273  14.440 -0.1002 -0.0655 -0.3602
17182TIP3    H173037   2.052   4.353  14.391 -2.6711  0.4904 -0.6136
17182TIP3    H273038   1.967   4.227  14.386  2.0973 -3.0035 -0.8143
17183TIP3   OH273039   5.674   6.212   0.149  0.1309 -0.7042 -0.2356
17183TIP3    H173040   5.707   6.302   0.156  0.8682 -0.9469 -0.5973
17183TIP3    H273041   5.681   6.177   0.238 -0.6536 -0.2408  0.0219
17184TIP3   OH273042   2.993   1.503  11.648 -0.3963 -0.1845  0.6351
17184TIP3    H173043   2.966   1.494  11.557  1.3657  0.4188  0.0103
17184TIP3    H273044   3.042   1.423  11.667 -0.3963 -0.1201  0.9141
17185TIP3   OH273045   6.805   3.508  15.829 -0.1284  0.3057  0.2857
17185TIP3    H173046   6.786   3.575  15.764 -0.2576  1.9417  1.9018
17185TIP3    H273047   6.770   3.543  15.911 -0.5282 -1.9358  1.1518
17186TIP3   OH273048   0.089   2.728   5.013 -0.4951 -0.1805 -0.1120
17186TIP3    H173049   0.098   2.709   5.106 -1.4263  0.0896  0.0467
17186TIP3    H273050   0.117   2.819   5.003 -0.3848 -0.2131 -0.0936
17187TIP3   OH273051   5.148   0.301  15.954  0.1771  0.1798 -0.0785
17187TIP3    H173052   5.219   0.237  15.952 -0.8599 -0.9953 -1.3497
17187TIP3    H273053   5.192   0.385  15.958  1.6511 -0.5220 -0.6587
17188TIP3   OH273054   1.600   1.333   0.426 -0.5627  0.2211  0.1532
17188TIP3    H173055   1.577   1.241   0.438  0.2864 -0.0110  0.1086
17188TIP3    H273056   1.526   1.382   0.462  0.0834 -0.4529  2.5515
17189TIP3   OH273057   1.450   1.982  16.051 -0.2244  0.5304  0.2417
17189TIP3    H173058   1.362   1.976  16.014 -0.0739  1.9908 -0.4012
17189TIP3    H273059   1.437   2.016  16.140 -0.2401  2.2025 -0.3679
17190TIP3   OH273060   4.354   0.885   4.194  0.1080 -0.2113  0.2190
17190TIP3    H173061   4.343   0.974   4.163 -0.2961  0.4117  2.0066
17190TIP3    H273062   4.316   0.830   4.125 -2.6532  1.2008  0.4659
17191TIP3   OH273063   2.412   1.876  13.249  0.0548  0.2819  0.0441
17191TIP3    H173064   2.506   1.866  13.268 -0.1194  1.5802  1.9543
17191TIP3    H273065   2.397   1.970  13.256 -1.7530 -0.0749  1.8721
17192TIP3   OH273066   2.435   6.084   1.973 -0.5987  0.5489  0.4391
17192TIP3    H173067   2.453   5.991   1.981 -0.1644  0.6212  0.3502
17192TIP3    H273068   2.480   6.124   2.047  2.3958  1.0855 -1.4701
17193TIP3   OH273069   4.965   6.381   2.544  0.4588  0.4304 -0.1436
17193TIP3    H173070   4.996   6.294   2.569 -1.3234 -0.1089  0.3217
17193TIP3    H273071   4.888   6.364   2.490  1.0404  1.7071 -1.4187
17194TIP3   OH273072   2.094   3.369  12.952 -0.5665  0.2770 -0.7371
17194TIP3    H173073   2.091   3.451  13.001 -1.2824 -0.4260  0.4462
17194TIP3    H273074   2.186   3.342  12.956 -0.7404 -0.2201  1.0759
17195TIP3   OH273075   6.122   4.547  13.664 -0.3184 -0.5837 -0.1953
17195TIP3    H173076   6.092   4.566  13.575 -1.7393  1.8026  0.7034
17195TIP3    H273077   6.124   4.452  13.669 -0.8743 -0.7739 -2.5555
17196TIP3   OH273078   1.212   2.104  16.361 -0.2683 -0.1553  0.5416
17196TIP3    H173079   1.279   2.035  16.364  1.2613  1.3008  1.1219
17196TIP3    H273080   1.261   2.184  16.344 -2.1242  0.6858 -1.2399
17197TIP3   OH273081   0.419   2.005  10.538 -0.3035  0.0118  0.2877
17197TIP3    H173082   0.456   1.973  10.456  0.6223 -2.5269  1.5935
17197TIP3    H273083   0.372   1.930  10.574 -1.3194  1.2860  1.7637
17198TIP3   OH273084   3.355   4.840   1.253  0.0228 -0.3180 -0.4159
17198TIP3    H173085   3.323   4.763   1.206 -0.8144 -0.7786  0.8483
17198TIP3    H273086   3.297   4.911   1.225 -0.4848 -0.5945 -0.0875
17199TIP3   OH273087   1.792   5.602   1.554 -0.0372  0.0528  0.4713
17199TIP3    H173088   1.846   5.622   1.478  1.0037  0.6885  1.3616
17199TIP3    H273089   1.741   5.682   1.569 -0.6436 -0.2614  0.1264
17200TIP3   OH273090   5.509   3.353  13.411 -0.2940 -0.0089 -0.0018
17200TIP3    H173091   5.515   3.432  13.356 -0.4217  0.2910  0.4081
17200TIP3    H273092   5.596   3.342  13.447 -0.3058  0.0123  0.0328
17201TIP3   OH273093   2.271   0.235   0.133  0.5117 -0.3044 -0.2851
17201TIP3    H173094   2.363   0.211   0.122  0.7821  0.8523 -0.6184
17201TIP3    H273095   2.231   0.217   0.048  0.6363  0.0601 -0.4235
17202TIP3   OH273096   5.900   6.612   3.800 -0.2942 -0.1476  0.2341
17202TIP3    H173097   5.895   6.572   3.887 -1.9230  1.5552  0.9963
17202TIP3    H273098   5.838   6.562   3.747 -0.7179 -0.0035  0.5875
17203TIP3   OH273099   1.343   0.624   1.677 -0.8727 -0.3681  0.3386
17203TIP3    H173100   1.430   0.584   1.679  0.0724  1.5245 -0.2398
17203TIP3    H273101   1.283   0.552   1.696  0.7853 -1.7978  0.4348
17204TIP3   OH273102   4.557   6.004   1.124 -0.1766 -0.0537 -0.1990
17204TIP3    H173103   4.468   6.014   1.158 -0.0020  1.2466 -0.0467
17204TIP3    H273104   4.614   6.010   1.201  0.0276 -1.9037 -0.1615
17205TIP3   OH273105   6.770   4.763  17.068  0.2100  0.6244  0.7323
17205TIP3    H173106   6.801   4.694  17.126  0.9086  1.1570  1.0052
17205TIP3    H273107   6.829   4.760  16.993 -0.2491  0.4100  0.3678
17206TIP3   OH273108   1.506   6.139  15.863 -0.2258 -0.0545  0.1907
17206TIP3    H173109   1.548   6.073  15.807 -0.4933 -0.2606  0.2326
17206TIP3    H273110   1.544   6.222  15.834 -1.3409 -0.0068 -1.2325
17207TIP3   OH273111   4.932   4.244  13.070 -0.0686 -0.1358 -0.6520
17207TIP3    H173112   4.937   4.221  12.977  0.9958 -0.0054 -0.6390
17207TIP3    H273113   5.020   4.225  13.104 -0.3178  0.2492  0.2262
17208TIP3   OH273114   0.407   6.593   4.774  0.3461 -0.2248  0.1810
17208TIP3    H173115   0.339   6.592   4.841 -0.2260 -0.1698 -0.3894
17208TIP3    H273116   0.374   6.652   4.707  0.3564 -1.2101 -0.7164
17209TIP3   OH273117   3.853   1.058   1.216  0.2010 -0.1295  0.3578
17209TIP3    H173118   3.924   1.045   1.278 -0.1139  0.4082  0.8465
17209TIP3    H273119   3.890   1.114   1.148  0.7779 -1.3669 -0.3665
17210TIP3   OH273120   5.292   4.177   3.372 -0.3136  0.5014  0.6726
17210TIP3    H173121   5.276   4.156   3.464 -0.3611  1.0635  0.7955
17210TIP3    H273122   5.275   4.095   3.325 -1.2794  0.4731  1.0582
17211TIP3   OH273123   2.638   1.734   5.237 -0.3021  0.6483  0.2334
17211TIP3    H173124   2.610   1.788   5.311  0.1471 -0.7999  1.5128
17211TIP3    H273125   2.734   1.735   5.242 -0.2265  1.4182 -1.0154
17212TIP3   OH273126   5.027   6.020  17.067 -0.5286 -0.1996 -0.3904
17212TIP3    H173127   5.107   6.072  17.063 -0.2724 -0.5058  0.4336
17212TIP3    H273128   4.991   6.024  16.979 -0.7288  1.6915 -0.2666
17213TIP3   OH273129   4.524   2.028   1.020  0.2765 -0.0381  0.1650
17213TIP3    H173130   4.570   1.958   1.067 -4.2494 -2.7750  1.2291
17213TIP3    H273131   4.517   2.099   1.083  0.9908 -0.5171  0.7979
17214TIP3   OH273132   5.248   2.820  14.353 -0.0083 -0.3466  0.3481
17214TIP3    H173133   5.266   2.898  14.300 -1.3581 -0.6548 -0.6084
17214TIP3    H273134   5.183   2.848  14.417  2.0234  0.1695  2.3007
17215TIP3   OH273135   0.226   2.911  11.561 -0.3243 -0.4532 -0.3504
17215TIP3    H173136   0.215   2.854  11.485 -1.6453  0.1052 -0.6025
17215TIP3    H273137   0.151   2.892  11.616 -0.4416  0.5698 -0.1367
17216TIP3   OH273138   2.010   1.901   1.397  0.6574  0.7661  0.4748
17216TIP3    H173139   1.999   1.903   1.492 -1.6409  1.5476  0.2455
17216TIP3    H273140   1.956   1.972   1.365  0.7737  0.0357 -1.4904
17217TIP3   OH273141   2.370   4.566   5.994  0.1260  0.1666 -0.1045
17217TIP3    H173142   2.356   4.543   6.086  0.6574 -2.0604 -0.5155
17217TIP3    H273143   2.458   4.604   5.992  0.4750 -0.6060  0.1968
17218TIP3   OH273144   4.790   3.250   5.353  0.3629 -0.0114 -0.2649
17218TIP3    H173145   4.864   3.300   5.389 -0.5667  0.8220  0.5607
17218TIP3    H273146   4.760   3.196   5.427  1.8985 -2.5591 -1.3680
17219TIP3   OH273147   6.066   1.976   6.414 -0.5832  0.0079  0.3959
17219TIP3    H173148   6.064   1.899   6.357  0.9388  0.6083 -0.5325
17219TIP3    H273149   6.141   1.961   6.471 -1.4272 -0.0609  1.5350
17220TIP3   OH273150   0.898   0.158  15.484  0.5635  0.3534 -0.2872
17220TIP3    H173151   0.879   0.223  15.553 -1.7902  0.7936 -1.2300
17220TIP3    H273152   0.985   0.126  15.504  0.4043  1.2836  2.2468
17221TIP3   OH273153   2.936   2.887   6.088  0.4353  0.1392  0.6365
17221TIP3    H173154   3.015   2.833   6.088 -1.0188 -2.1880  2.1313
17221TIP3    H273155   2.962   2.967   6.133  1.7335 -0.9989  2.0311
17222TIP3   OH273156   2.212   2.682   2.700 -0.1095 -0.0439 -0.5673
17222TIP3    H173157   2.256   2.640   2.773 -1.6904 -1.2700 -0.2724
17222TIP3    H273158   2.149   2.617   2.669 -2.6017  2.0240 -0.1654
17223TIP3   OH273159   1.801   4.179   3.396 -0.1755  0.1289 -0.3194
17223TIP3    H173160   1.790   4.132   3.479 -0.3987 -0.8878 -0.9091
17223TIP3    H273161   1.895   4.193   3.389 -0.1588  0.2809  0.1259
17224TIP3   OH273162   3.626   0.461   2.976 -0.0993 -0.7141  0.5302
17224TIP3    H173163   3.684   0.410   3.032 -2.0212 -1.1887  2.2085
17224TIP3    H273164   3.627   0.416   2.892  1.0196 -1.4020  0.9000
17225TIP3   OH273165   2.873   4.697   5.575  0.0788 -0.0301  0.2148
17225TIP3    H173166   2.844   4.635   5.641 -0.1116 -0.4294 -0.2390
17225TIP3    H273167   2.941   4.748   5.618 -1.5041  1.1670  1.4383
17226TIP3   OH273168   6.168   2.703  16.442  0.2138  0.3814 -0.3476
17226TIP3    H173169   6.145   2.694  16.349 -0.2351 -1.3618 -0.0927
17226TIP3    H273170   6.226   2.629  16.459  2.9191  2.4330  0.0265
17227TIP3   OH273171   1.701   1.710  13.593  0.3448 -0.6287 -0.2429
17227TIP3    H173172   1.773   1.680  13.538 -0.4494 -0.8905 -1.1691
17227TIP3    H273173   1.730   1.795  13.626  1.2171 -0.8904 -0.3192
17228TIP3   OH273174   5.932   1.473  16.783 -0.1673 -0.4386 -0.3339
17228TIP3    H173175   5.993   1.519  16.841 -0.0531 -0.4602 -0.4356
17228TIP3    H273176   5.893   1.405  16.838  0.4184 -0.8788 -0.4441
17229TIP3   OH273177   2.110   5.611   4.983 -0.1510  0.3038 -0.1363
17229TIP3    H173178   2.033   5.556   4.971 -0.3662  0.2550  1.3328
17229TIP3    H273179   2.078   5.700   4.969  0.1534  0.1387 -2.3037
17230TIP3   OH273180   3.562   2.483  13.336  0.4579 -0.6059 -0.1357
17230TIP3    H173181   3.592   2.556  13.281  3.6587 -1.0482  0.8586
17230TIP3    H273182   3.535   2.416  13.273 -0.1356  0.4896 -1.0845
17231TIP3   OH273183   2.558   5.990   3.665  0.0905  0.1040  0.1683
17231TIP3    H173184   2.579   6.053   3.734 -0.7938  0.4703  0.1201
17231TIP3    H273185   2.498   5.928   3.707  0.9147 -0.6890  0.1997
17232TIP3   OH273186   1.172   0.195   5.880  0.2312  0.2385 -0.5998
17232TIP3    H173187   1.132   0.115   5.845  1.2356 -0.7491  0.4142
17232TIP3    H273188   1.119   0.266   5.844 -2.5371 -0.9709  0.7550
17233TIP3   OH273189   6.739   3.518   1.987 -0.6819 -0.3811  0.4335
17233TIP3    H173190   6.832   3.496   1.979 -0.1952  1.9496 -1.4503
17233TIP3    H273191   6.737   3.614   1.987 -3.0548 -0.3591  1.4026
17234TIP3   OH273192   4.857   3.565   1.683 -0.3295 -0.5524 -0.4927
17234TIP3    H173193   4.886   3.652   1.654  1.2530 -0.8064  0.2311
17234TIP3    H273194   4.792   3.539   1.618 -0.5022  0.9780 -0.9825
17235TIP3   OH273195   1.585   3.290   2.991 -0.0900  0.2588 -0.2323
17235TIP3    H173196   1.513   3.233   3.018  0.6540 -1.2410 -1.2460
17235TIP3    H273197   1.630   3.311   3.073  0.2155 -1.5071  0.1061
17236TIP3   OH273198   5.865   2.325  11.329  0.0734 -0.1282  0.5800
17236TIP3    H173199   5.931   2.271  11.372  1.6765 -0.1546 -1.7502
17236TIP3    H273200   5.889   2.415  11.351  0.9816 -0.1334 -0.3325
17237TIP3   OH273201   1.500   2.119   4.798  0.6650  0.1137 -0.9375
17237TIP3    H173202   1.421   2.065   4.795 -1.3162  2.3353  2.8858
17237TIP3    H273203   1.549   2.086   4.874  0.9539  1.7169 -0.3893
17238TIP3   OH273204   1.201   0.277   0.131  0.3145 -0.6129 -0.2679
17238TIP3    H173205   1.145   0.201   0.146 -1.4117  0.7172  0.3487
17238TIP3    H273206   1.247   0.290   0.213 -1.1334  0.3267  0.4433
17239TIP3   OH273207   6.576   2.933  15.018 -0.1575 -0.2455  0.0048
17239TIP3    H173208   6.608   3.024  15.022 -1.6408  0.3592 -0.9748
17239TIP3    H273209   6.623   2.895  14.945  1.6681 -0.8138  1.3944
17240TIP3   OH273210   3.064   2.902  13.599  0.3021 -0.0556  0.2969
17240TIP3    H173211   3.024   2.927  13.682 -2.6265  0.6604 -1.2105
17240TIP3    H273212   3.036   2.811  13.585  0.1292  0.0776 -0.2579
17241TIP3   OH273213   6.574   4.555  12.075 -0.1700  0.0274  0.1933
17241TIP3    H173214   6.615   4.623  12.128  1.2946 -0.0586 -0.7528
17241TIP3    H273215   6.498   4.598  12.034  0.3996  0.9341  0.0590
17242TIP3   OH273216   0.658   5.717   3.358  0.3441 -0.1154  0.3154
17242TIP3    H173217   0.712   5.651   3.403 -0.2791  0.1995  1.5599
17242TIP3    H273218   0.684   5.800   3.397 -0.6591  0.0940  0.5573
17243TIP3   OH273219   0.987   3.342   1.127  0.3952 -0.1452 -0.3173
17243TIP3    H173220   0.918   3.359   1.191 -0.2470  0.1043 -1.0677
17243TIP3    H273221   0.941   3.324   1.046  1.0231 -3.9905 -0.0114
17244TIP3   OH273222   5.094   3.818  13.458 -0.0200  0.0086 -0.0752
17244TIP3    H173223   5.008   3.860  13.459  0.6685  1.5167  1.1971
17244TIP3    H273224   5.076   3.725  13.474 -1.4820  0.0363 -1.3085
17245TIP3   OH273225   2.908   5.886   0.941 -0.3999 -0.3322  0.0131
17245TIP3    H173226   2.817   5.908   0.963 -0.4735 -0.4918 -0.1379
17245TIP3    H273227   2.959   5.927   1.012 -0.5472  0.2090 -0.1860
17246TIP3   OH273228   0.505   2.047   0.696  0.2512  0.1526 -0.2690
17246TIP3    H173229   0.449   2.039   0.773  0.7978 -0.1056  0.1032
17246TIP3    H273230   0.481   1.971   0.642  0.7448 -0.3653  0.2234
17247TIP3   OH273231   6.433   3.190  13.476 -0.3367  0.5953 -0.3248
17247TIP3    H173232   6.373   3.225  13.542 -0.0089 -1.1810  0.9879
17247TIP3    H273233   6.426   3.251  13.403 -1.4227  2.1195  0.9774
17248TIP3   OH273234   4.971   3.825  14.505  0.3023 -0.2642 -0.0594
17248TIP3    H173235   4.958   3.911  14.544  0.0442 -0.6594  0.7485
17248TIP3    H273236   5.022   3.777  14.570  0.9292 -0.5469 -0.7468
17249TIP3   OH273237   5.917   3.875   5.637  0.4719  0.0465  0.3125
17249TIP3    H173238   5.947   3.840   5.553  0.4942 -0.1071  0.3846
17249TIP3    H273239   5.914   3.799   5.695  3.0539  0.5509  1.2276
17250TIP3   OH273240   1.061   6.753  14.648  0.2449 -0.3211  0.4057
17250TIP3    H173241   1.043   6.667  14.611  0.4443  0.2591 -1.1407
17250TIP3    H273242   1.045   6.743  14.742  1.7657 -2.4409  0.5160
17251TIP3   OH273243   6.000   3.638  14.688  0.2674  0.3701 -0.5590
17251TIP3    H173244   6.014   3.616  14.780 -2.7161  1.0014  0.1660
17251TIP3    H273245   6.010   3.733  14.684  0.7114  0.3087 -0.9658
17252TIP3   OH273246   6.488   4.681   0.469  0.0412  0.6628  0.0918
17252TIP3    H173247   6.562   4.663   0.528 -0.1032 -0.0065  0.0763
17252TIP3    H273248   6.498   4.773   0.447  0.2806  0.8494  0.9183
17253TIP3   OH273249   2.475   3.679  13.340  0.1847 -0.4916  0.3522
17253TIP3    H173250   2.496   3.640  13.255  0.0363 -0.9271  0.5164
17253TIP3    H273251   2.554   3.669  13.392  0.7339  0.9330 -0.1429
17254TIP3   OH273252   5.655   1.422   5.343  0.3504 -0.6109 -0.1114
17254TIP3    H173253   5.652   1.494   5.405  1.0631 -1.1779  0.6009
17254TIP3    H273254   5.597   1.449   5.272  0.5292  0.6093  0.1870
17255TIP3   OH273255   1.543   1.343   0.067  0.6313  0.2285  0.1746
17255TIP3    H173256   1.456   1.336   0.105  0.4685  0.6227 -0.1250
17255TIP3    H273257   1.538   1.290  -0.013  1.0847 -0.9179  0.8866
17256TIP3   OH273258   1.546   0.246   0.127 -0.1039  0.3003 -0.3395
17256TIP3    H173259   1.546   0.203   0.213  1.8699  2.0827  0.6293
17256TIP3    H273260   1.520   0.336   0.146  3.1889  1.5169 -1.0837
17257TIP3   OH273261   5.923   0.308   2.096  0.3708  0.1030  0.1161
17257TIP3    H173262   5.891   0.286   2.183 -0.5704  0.9678  0.0188
17257TIP3    H273263   5.885   0.242   2.038 -0.7609  0.7478  0.0923
17258TIP3   OH273264   2.764   6.574   3.547  0.6744 -0.1304  0.2558
17258TIP3    H173265   2.847   6.564   3.499  0.2808 -1.2691 -0.2224
17258TIP3    H273266   2.789   6.564   3.639  1.0811 -0.4490  0.1167
17259TIP3   OH273267   2.839   4.532  12.055  0.5638 -0.2499 -0.1668
17259TIP3    H173268   2.754   4.576  12.052  1.0827  0.8375  0.3927
17259TIP3    H273269   2.825   4.449  12.008 -1.2306 -0.8792  1.3677
17260TIP3   OH273270   5.957   1.826  11.365 -0.1554 -0.2518  0.4358
17260TIP3    H173271   5.947   1.920  11.382  2.2949 -0.0016  0.8973
17260TIP3    H273272   6.051   1.809  11.376  0.0262 -2.1695 -2.5837
17261TIP3   OH273273   6.573   4.290  11.644 -1.1416 -0.7918  0.1493
17261TIP3    H173274   6.645   4.227  11.643 -0.4906 -0.0786  0.4334
17261TIP3    H273275   6.499   4.244  11.606 -0.2761 -1.2521 -1.0262
17262TIP3   OH273276   3.379   0.983   5.405 -0.6019  0.1169 -0.2685
17262TIP3    H173277   3.295   0.938   5.391 -0.5685 -0.5645  1.4755
17262TIP3    H273278   3.442   0.931   5.356 -0.7745 -1.0493  0.6964
17263TIP3   OH273279   2.127   6.465   1.798  0.1249 -0.7136  0.1387
17263TIP3    H173280   2.206   6.484   1.748 -0.1338 -0.1474 -0.0633
17263TIP3    H273281   2.154   6.400   1.863  0.3314 -1.9064 -1.0957
17264TIP3   OH273282   0.475   3.518  12.577 -0.0567  0.1831 -0.0061
17264TIP3    H173283   0.569   3.533  12.574  0.3096 -1.4591  1.5080
17264TIP3    H273284   0.460   3.479  12.663 -2.2865  1.3393  0.1945
17265TIP3   OH273285   5.471   3.250  10.324  0.5131 -1.1274  0.1868
17265TIP3    H173286   5.469   3.307  10.401 -0.6478  0.1541 -0.7344
17265TIP3    H273287   5.564   3.248  10.300  0.6283  0.2062  0.3972
17266TIP3   OH273288   3.404   0.543  11.448 -0.9358  0.3797 -0.6136
17266TIP3    H173289   3.400   0.567  11.540  0.9248 -0.8454 -0.1423
17266TIP3    H273290   3.448   0.616  11.405  0.2048  0.0208 -0.0965
17267TIP3   OH273291   4.791   3.289  13.739  0.0436 -0.5134 -0.1628
17267TIP3    H173292   4.740   3.302  13.819 -1.3831 -2.8999 -0.5777
17267TIP3    H273293   4.776   3.369  13.688 -0.8514  0.0961  0.9903
17268TIP3   OH273294   3.454   4.025  16.275  0.3977  0.7912  0.3971
17268TIP3    H173295   3.440   4.114  16.306  0.9718  1.4327 -1.1152
17268TIP3    H273296   3.545   4.023  16.246  0.3138 -0.1962  0.1608
17269TIP3   OH273297   3.385   3.363   4.732  0.3565 -0.3890 -0.1646
17269TIP3    H173298   3.402   3.329   4.820 -1.6705 -1.5762 -0.1732
17269TIP3    H273299   3.371   3.457   4.745  4.6826  0.4235  0.0495
17270TIP3   OH273300   1.141   5.340  12.638 -0.1729 -0.5430 -0.2352
17270TIP3    H173301   1.212   5.395  12.672 -1.1244  0.7127 -0.2146
17270TIP3    H273302   1.095   5.395  12.576 -0.6681 -1.6079 -0.8451
17271TIP3   OH273303   3.239   1.958   1.111  0.1716  0.3050  0.5835
17271TIP3    H173304   3.274   2.006   1.186  0.2358 -2.3244  2.3821
17271TIP3    H273305   3.185   1.889   1.150 -1.7202  0.2605 -1.9142
17272TIP3   OH273306   2.643   4.161  15.957  0.2748 -0.1579 -0.0359
17272TIP3    H173307   2.675   4.247  15.933 -1.0608 -0.0971 -1.7642
17272TIP3    H273308   2.636   4.113  15.874 -0.9543 -1.2288  0.6448
17273TIP3   OH273309   0.256   3.771  13.001 -0.2723  0.8741 -0.2731
17273TIP3    H173310   0.216   3.848  12.960 -0.9246  0.1943 -0.9290
17273TIP3    H273311   0.335   3.754  12.949 -0.6760  0.4861 -0.7592
17274TIP3   OH273312   4.487   5.440  16.414  0.1835 -0.6107  0.0220
17274TIP3    H173313   4.501   5.455  16.320 -0.5529 -0.9915 -0.1562
17274TIP3    H273314   4.438   5.358  16.418 -2.0719  0.6783  0.5828
17275TIP3   OH273315   3.096   5.219   2.477  0.1997  0.1894  0.2924
17275TIP3    H173316   3.101   5.130   2.511  0.2687  0.5815  1.3171
17275TIP3    H273317   3.121   5.275   2.550 -1.7110  1.1806  0.2314
17276TIP3   OH273318   3.796   4.332  12.662  0.1539 -0.5619 -0.4639
17276TIP3    H173319   3.871   4.369  12.616  0.7744  0.0144  0.9568
17276TIP3    H273320   3.786   4.387  12.740 -0.6592 -1.6821  0.2527
17277TIP3   OH273321   3.784   1.031   5.639 -0.3177 -0.0419  0.6181
17277TIP3    H173322   3.711   0.969   5.645 -0.1763 -0.2269  0.4256
17277TIP3    H273323   3.812   1.026   5.548  2.8348 -3.3061  1.5357
17278TIP3   OH273324   6.058   1.120  12.737  0.1118  0.4115  0.2508
17278TIP3    H173325   5.978   1.067  12.742  0.3491 -0.1172 -1.0856
17278TIP3    H273326   6.094   1.100  12.651  1.5651  0.8323  0.7373
17279TIP3   OH273327   4.811   0.557  14.964  0.0713  0.1844  0.3533
17279TIP3    H173328   4.841   0.515  15.045 -1.3159 -0.4118  0.6062
17279TIP3    H273329   4.885   0.551  14.904  0.4196 -1.3198  0.8880
17280TIP3   OH273330   1.770   4.380   3.939  0.2179 -0.0172 -0.0806
17280TIP3    H173331   1.764   4.292   3.902 -1.7813  0.4398 -0.9727
17280TIP3    H273332   1.752   4.439   3.866 -1.2776  1.0002  1.0190
17281TIP3   OH273333   5.256   1.819  12.410 -0.0267 -0.0342  0.4323
17281TIP3    H173334   5.215   1.904  12.428  0.9684  0.2455  1.5416
17281TIP3    H273335   5.345   1.828  12.446  0.2948 -1.3345  0.0016
17282TIP3   OH273336   1.783   4.168   5.252 -0.7380 -0.0857 -0.0906
17282TIP3    H173337   1.761   4.203   5.339  0.8299 -0.0870  0.3340
17282TIP3    H273338   1.748   4.232   5.191 -1.5071  0.1208  0.5422
17283TIP3   OH273339   0.213   6.664  16.579  0.3410 -0.5841  0.8642
17283TIP3    H173340   0.201   6.712  16.660 -0.6020 -0.2101  0.5212
17283TIP3    H273341   0.168   6.717  16.513 -1.7902 -2.4676  0.6773
17284TIP3   OH273342   5.884   3.252   5.066  0.2994  0.0618  0.2672
17284TIP3    H173343   5.934   3.319   5.113  0.0386 -0.0911  0.7687
17284TIP3    H273344   5.925   3.169   5.090 -0.1182 -0.0539  0.5875
17285TIP3   OH273345   0.034   5.500   5.363 -0.5748  0.2671  0.7550
17285TIP3    H173346   0.112   5.512   5.308 -2.2423 -0.1511 -1.8777
17285TIP3    H273347   0.068   5.496   5.452  2.3671  0.4418 -0.2513
17286TIP3   OH273348   3.252   2.868  14.432 -0.6186 -0.0351 -0.1761
17286TIP3    H173349   3.216   2.812  14.364 -2.0827 -0.2568  0.7453
17286TIP3    H273350   3.268   2.952  14.389  0.0814 -0.6492 -1.1719
17287TIP3   OH273351   4.319   1.733  12.405  0.2774  0.7031  0.2460
17287TIP3    H173352   4.395   1.779  12.370 -0.3828  2.0630  0.5165
17287TIP3    H273353   4.349   1.697  12.489  1.0229 -0.0488 -0.3245
17288TIP3   OH273354   3.373   2.414   1.996 -0.4099  0.1151 -0.7811
17288TIP3    H173355   3.402   2.503   2.016 -1.0325 -0.2144  1.9236
17288TIP3    H273356   3.288   2.405   2.038  1.2777 -2.8831  2.5387
17289TIP3   OH273357   4.989   1.065   5.688 -0.8949 -0.4313 -0.5954
17289TIP3    H173358   5.021   1.093   5.603 -0.6241  0.7802 -0.1185
17289TIP3    H273359   5.024   0.977   5.699  0.1815 -0.0980 -1.1758
17290TIP3   OH273360   1.805   1.807   4.935  0.0119  0.4783  0.1008
17290TIP3    H173361   1.731   1.751   4.958 -1.2034  2.2168  0.5413
17290TIP3    H273362   1.853   1.756   4.870  0.5350 -2.2689  2.4197
17291TIP3   OH273363   0.175   5.990  16.200  0.7635 -0.2318  0.0699
17291TIP3    H173364   0.176   6.085  16.217 -1.9749 -0.2238  0.8308
17291TIP3    H273365   0.243   5.955  16.257  0.1053  1.0808  1.7911
17292TIP3   OH273366   3.784   4.652   5.959  0.3697  0.1570 -0.1730
17292TIP3    H173367   3.753   4.578   5.907  0.4191 -0.3066  0.4479
17292TIP3    H273368   3.857   4.617   6.010  0.7473  0.7752 -0.2719
17293TIP3   OH273369   3.962   3.392   0.123  0.3605 -0.2705  0.0523
17293TIP3    H173370   4.003   3.322   0.072  0.7906  0.5954 -0.8063
17293TIP3    H273371   4.018   3.399   0.201  1.3271  0.2699 -0.6708
17294TIP3   OH273372   3.730   1.898   0.894  0.7953 -0.6362 -0.1312
17294TIP3    H173373   3.774   1.938   0.818 -1.4982  1.1051 -0.6524
17294TIP3    H273374   3.741   1.804   0.881  3.6319 -0.3320 -0.5938
17295TIP3   OH273375   5.553   0.745   3.182 -0.8895  0.1289  0.2592
17295TIP3    H173376   5.508   0.826   3.210 -0.1147  0.6150  0.1341
17295TIP3    H273377   5.491   0.675   3.204 -2.1081  0.8392 -0.7674
17296TIP3   OH273378   5.828   4.044  16.023  0.0528 -0.0391  0.0192
17296TIP3    H173379   5.782   3.969  16.061  0.8451  0.5967  2.4597
17296TIP3    H273380   5.811   4.116  16.085  2.6688  0.7080 -0.0033
17297TIP3   OH273381   2.734   6.626  14.576  0.6466 -0.1025 -0.1329
17297TIP3    H173382   2.648   6.665  14.588  0.9228 -0.0339  1.8838
17297TIP3    H273383   2.795   6.687  14.617  1.6590 -0.2979 -1.2618
17298TIP3   OH273384   6.039   2.911  16.971  0.2235  0.3389 -0.2337
17298TIP3    H173385   6.132   2.915  16.949  0.4405 -0.2208  0.5301
17298TIP3    H273386   6.014   3.002  16.986  0.4372  0.5745 -1.2428
17299TIP3   OH273387   6.573   6.563   0.433  0.1275  0.4171  0.2297
17299TIP3    H173388   6.546   6.504   0.502 -0.8090  0.1900 -0.3141
17299TIP3    H273389   6.570   6.510   0.353  2.2176  0.3721  0.1257
17300TIP3   OH273390   3.090   3.522   5.357 -0.1037  0.0513 -0.1920
17300TIP3    H173391   3.022   3.501   5.293 -0.2715 -0.2213  0.0711
17300TIP3    H273392   3.054   3.491   5.440 -0.4608  1.5635  0.2553
17301TIP3   OH273393   0.904   2.067   1.150  0.4686 -0.2828  0.3500
17301TIP3    H173394   0.928   1.977   1.124  0.4310  0.2328 -1.6644
17301TIP3    H273395   0.986   2.115   1.147  0.2174  0.1167 -0.3096
17302TIP3   OH273396   4.096   3.199   0.006 -0.0738  0.9278  0.7802
17302TIP3    H173397   4.165   3.241  -0.045 -1.0316  0.8989 -0.5901
17302TIP3    H273398   4.142   3.135   0.060  0.8906  0.0893 -0.9350
17303TIP3   OH273399   5.060   4.227  16.767 -0.0419 -0.0973 -0.4499
17303TIP3    H173400   5.097   4.218  16.855  0.3530  0.3070 -0.5684
17303TIP3    H273401   5.103   4.158  16.716  0.9157  0.6477 -0.6942
17304TIP3   OH273402   3.863   3.582  16.717  0.3055 -0.1348 -0.4542
17304TIP3    H173403   3.949   3.585  16.760 -0.4924 -0.7666  1.2622
17304TIP3    H273404   3.846   3.489  16.704 -0.2930 -0.0349 -0.4034
17305TIP3   OH273405   3.710   6.418  13.243 -0.2787  0.0019  0.6417
17305TIP3    H173406   3.760   6.452  13.169 -0.3874 -0.8819  0.1489
17305TIP3    H273407   3.738   6.471  13.317  1.6385 -0.6545  0.4469
17306TIP3   OH273408   6.379   3.234  12.107  0.1418  0.0923  0.4293
17306TIP3    H173409   6.337   3.262  12.188 -0.1500 -2.1091  1.1092
17306TIP3    H273410   6.362   3.140  12.103  0.7795  0.0254 -1.8314
17307TIP3   OH273411   3.315   6.475   1.627 -0.2746 -0.4202 -0.6249
17307TIP3    H173412   3.386   6.412   1.630 -0.8062 -1.0100  1.7222
17307TIP3    H273413   3.352   6.555   1.666 -1.1319 -1.0782  1.6811
17308TIP3   OH273414   1.431   6.312   5.114  0.5882 -0.3523  0.0762
17308TIP3    H173415   1.462   6.380   5.173  1.6481 -1.6875  1.1378
17308TIP3    H273416   1.444   6.348   5.026  1.5215  0.6378  0.5954
17309TIP3   OH273417   3.843   1.871   3.521 -0.7479 -0.0718 -0.5192
17309TIP3    H173418   3.769   1.856   3.580 -0.3218 -0.7306 -0.1430
17309TIP3    H273419   3.870   1.784   3.492 -0.3728  0.1869 -0.9786
17310TIP3   OH273420   5.188   5.910  12.879 -0.0085  0.2628 -0.4832
17310TIP3    H173421   5.165   6.000  12.902  0.0664  0.5681 -1.5150
17310TIP3    H273422   5.123   5.885  12.813 -0.1243 -0.4999 -0.0925
17311TIP3   OH273423   5.289   6.584  16.903 -0.0660 -0.3275 -0.4927
17311TIP3    H173424   5.227   6.515  16.877  1.1022 -0.9867 -1.6569
17311TIP3    H273425   5.267   6.658  16.846 -1.1003  0.1728  0.5235
17312TIP3   OH273426   5.645   3.410  12.183 -0.2228  0.4173  0.1661
17312TIP3    H173427   5.636   3.317  12.158  1.7032 -0.1789  1.4814
17312TIP3    H273428   5.651   3.456  12.099  0.3174 -0.8396 -0.5221
17313TIP3   OH273429   6.196   5.029   1.295  0.1318  0.4507 -0.5577
17313TIP3    H173430   6.127   5.040   1.360 -1.0509 -0.2028 -1.6510
17313TIP3    H273431   6.228   5.117   1.279  0.3745  0.6344  0.8141
17314TIP3   OH273432   5.069   3.442   5.170 -0.2179  0.1258  0.6680
17314TIP3    H173433   5.159   3.455   5.138 -0.8700  2.4544 -0.3844
17314TIP3    H273434   5.048   3.524   5.215 -3.1296  1.3267 -2.4989
17315TIP3   OH273435   6.764   4.717  14.266  0.0781 -0.9940 -0.0705
17315TIP3    H173436   6.710   4.691  14.192  0.3719 -0.8952 -0.3199
17315TIP3    H273437   6.852   4.726  14.230 -0.0982  0.8945 -0.1399
17316TIP3   OH273438   6.371   4.815   3.122  0.1077  0.5815  0.0356
17316TIP3    H173439   6.280   4.826   3.094 -0.1634  2.0849  1.3684
17316TIP3    H273440   6.366   4.795   3.215  1.1521  1.9834  0.4347
17317TIP3   OH273441   6.283   2.486  14.641  0.2718 -0.0586 -0.3077
17317TIP3    H173442   6.243   2.487  14.728 -0.1290  0.1313 -0.4940
17317TIP3    H273443   6.302   2.394  14.624 -1.2959 -0.3212 -0.7677
17318TIP3   OH273444   0.375   1.294   4.356  0.7686  0.3354  0.4018
17318TIP3    H173445   0.283   1.308   4.381  0.6868  1.8118 -0.5859
17318TIP3    H273446   0.420   1.281   4.439 -0.2210  0.3364  0.9600
17319TIP3   OH273447   4.062   3.483   1.864 -0.0740  0.3217  0.0338
17319TIP3    H173448   4.126   3.425   1.823  1.0972 -0.5848  2.8946
17319TIP3    H273449   3.980   3.464   1.819 -0.1322 -4.7718  1.6331
17320TIP3   OH273450   3.159   1.985   5.991  0.2769 -0.1823  0.2910
17320TIP3    H173451   3.248   2.007   6.020 -0.4009  2.3830  0.6397
17320TIP3    H273452   3.104   2.004   6.067 -1.0529  2.7527 -1.2767
17321TIP3   OH273453   6.101   3.192  13.467  0.6807 -0.3936  0.0892
17321TIP3    H173454   6.056   3.224  13.389  2.0587  0.6556 -0.3056
17321TIP3    H273455   6.119   3.271  13.518  0.1231 -1.0286  1.3237
17322TIP3   OH273456   0.492   5.102   1.615  0.0175  0.6390 -0.1111
17322TIP3    H173457   0.567   5.043   1.606  0.9984  1.5660  1.5796
17322TIP3    H273458   0.428   5.051   1.665  1.4976  1.4299  2.7986
17323TIP3   OH273459   3.835   4.395   5.547 -0.2039  0.6272  0.1425
17323TIP3    H173460   3.826   4.384   5.641 -0.4594 -0.4325  0.0059
17323TIP3    H273461   3.749   4.373   5.511  0.1002  0.2926 -0.3941
17324TIP3   OH273462   0.133   1.478   3.525 -0.2802  0.4799  0.5001
17324TIP3    H173463   0.161   1.507   3.438  1.1205  0.1388  0.8180
17324TIP3    H273464   0.064   1.414   3.508 -1.0824  1.5185 -0.3028
17325TIP3   OH273465   2.420   0.636   2.712 -0.3220 -0.2483  0.0759
17325TIP3    H173466   2.459   0.709   2.663  2.8573 -0.5835  1.8497
17325TIP3    H273467   2.424   0.563   2.651 -0.3175  0.2756 -0.5687
17326TIP3   OH273468   1.990   6.291   0.166  0.2828  0.5382  0.3426
17326TIP3    H173469   1.930   6.217   0.169  0.7643  0.1504  0.4861
17326TIP3    H273470   2.061   6.267   0.225 -0.8538  2.2992  2.5924
17327TIP3   OH273471   5.372   1.389   2.877 -0.0196 -0.2878  0.8376
17327TIP3    H173472   5.408   1.475   2.900  0.6919  0.5509 -2.7561
17327TIP3    H273473   5.434   1.353   2.814 -1.5162 -2.4090  0.4724
17328TIP3   OH273474   0.381   2.665   2.612  0.0534  0.2903  0.1563
17328TIP3    H173475   0.426   2.744   2.642 -0.9083  1.3064 -0.9325
17328TIP3    H273476   0.380   2.673   2.516 -2.6101  0.4873  0.1285
17329TIP3   OH273477   6.545   3.577  13.151  0.2796 -0.0168 -0.0069
17329TIP3    H173478   6.545   3.622  13.066 -0.6134  0.6917  0.3501
17329TIP3    H273479   6.471   3.616  13.199 -0.2969 -1.5968  0.4625
17330TIP3   OH273480   0.221   2.323  12.956  0.3559  0.7017 -0.1469
17330TIP3    H173481   0.200   2.357  12.869  2.9008 -0.5701 -1.3584
17330TIP3    H273482   0.314   2.341  12.968  0.6092 -1.1997  1.3134
17331TIP3   OH273483   5.322   4.371   3.149  0.7367  0.3995 -0.3694
17331TIP3    H173484   5.309   4.303   3.215  0.3226  0.3271 -0.5176
17331TIP3    H273485   5.376   4.437   3.192  0.4173  0.3846  0.0647
17332TIP3   OH273486   4.930   3.971   5.981  0.3427  0.7339  0.1461
17332TIP3    H173487   5.004   3.926   6.021  2.0850  0.9832 -2.5651
17332TIP3    H273488   4.855   3.944   6.033  1.7432 -2.6889  0.6775
17333TIP3   OH273489   1.393   0.155   2.120 -0.4724  0.1721  0.2408
17333TIP3    H173490   1.449   0.221   2.079 -0.6631 -0.0996 -0.4656
17333TIP3    H273491   1.378   0.090   2.052  1.9820 -2.0952  1.6687
17334TIP3   OH273492   6.775   5.138   1.091 -0.1567 -0.1303  0.7000
17334TIP3    H173493   6.805   5.227   1.074  2.8031 -0.8820  1.4683
17334TIP3    H273494   6.812   5.086   1.020  0.5203 -1.1382  1.7547
17335TIP3   OH273495   1.961   5.493  15.370  0.3270  0.3379  0.3220
17335TIP3    H173496   2.028   5.504  15.303 -1.4060  0.4285 -1.4954
17335TIP3    H273497   1.990   5.418  15.422  1.2701 -0.3341 -1.1373
17336TIP3   OH273498   3.432   4.686   2.702  0.3506  0.4126  0.2461
17336TIP3    H173499   3.446   4.704   2.609  1.5356 -0.9711  0.1319
17336TIP3    H273500   3.374   4.757   2.731 -0.3768  0.6475 -1.6234
17337TIP3   OH273501   6.702   5.147   2.649 -0.1269  0.2723 -0.1994
17337TIP3    H173502   6.672   5.222   2.699  1.3237  1.7301 -1.3871
17337TIP3    H273503   6.778   5.180   2.600  1.4335 -2.3303  0.2856
17338TIP3   OH273504   2.011   6.454   5.652 -0.2139 -0.4263  0.2424
17338TIP3    H173505   1.980   6.369   5.684  0.8886 -0.0991  2.3227
17338TIP3    H273506   2.097   6.435   5.615 -0.3015 -0.3329 -0.0114
17339TIP3   OH273507   5.618   5.722   4.231 -0.0631  0.5610  0.3494
17339TIP3    H173508   5.564   5.722   4.152  0.2000  0.2386  0.1658
17339TIP3    H273509   5.698   5.675   4.206  0.3091  1.0428  0.6144
17340TIP3   OH273510   0.310   5.682  15.341  0.0816 -0.2403  0.1900
17340TIP3    H173511   0.243   5.674  15.410  0.1127  2.0767  0.5641
17340TIP3    H273512   0.381   5.626  15.370  0.2350  0.9178  2.2938
17341TIP3   OH273513   1.438   3.700  13.749  0.2199 -0.4140 -0.6644
17341TIP3    H173514   1.344   3.701  13.762  0.2297 -1.0077 -0.5270
17341TIP3    H273515   1.453   3.760  13.675 -0.0950  0.8963  0.2925
17342TIP3   OH273516   3.530   1.699  12.787  0.5884  0.5968 -0.2533
17342TIP3    H173517   3.568   1.762  12.849  0.7996  1.5697 -1.3272
17342TIP3    H273518   3.446   1.675  12.825  0.9065  0.8385  0.6255
17343TIP3   OH273519   0.129   5.704   1.106 -0.4921  0.4091  0.4090
17343TIP3    H173520   0.135   5.615   1.139 -0.3673 -0.6119 -2.0951
17343TIP3    H273521   0.220   5.731   1.093 -0.4108 -1.0761 -3.3676
17344TIP3   OH273522   2.215   4.158  12.372  0.1752  0.1736  0.2129
17344TIP3    H173523   2.127   4.185  12.347  0.6316  1.8809  0.3058
17344TIP3    H273524   2.203   4.080  12.426 -1.0889 -1.2855 -2.0216
17345TIP3   OH273525   2.052   5.738  14.696  0.0837 -0.2050  0.5143
17345TIP3    H173526   2.012   5.767  14.614 -0.5375 -0.1947  0.8164
17345TIP3    H273527   2.119   5.804  14.715  0.7413 -0.5912 -0.3492
17346TIP3   OH273528   1.266   5.597   0.602  0.2350  0.1379  0.2465
17346TIP3    H173529   1.345   5.650   0.604  0.6354 -0.4580  1.1867
17346TIP3    H273530   1.229   5.606   0.690 -1.8980  2.0564 -0.7375
17347TIP3   OH273531   6.048   0.807  12.203  0.2972  0.4038 -0.3237
17347TIP3    H173532   5.980   0.858  12.246  1.7376  0.4218  2.0910
17347TIP3    H273533   6.130   0.847  12.230  1.3728 -1.0481 -1.2298
17348TIP3   OH273534   3.297   6.125  16.716 -0.2009 -0.3934 -1.0940
17348TIP3    H173535   3.337   6.085  16.793 -0.6891  1.9827  0.4936
17348TIP3    H273536   3.371   6.158  16.665  0.0566 -0.6931 -0.9231
17349TIP3   OH273537   1.800   6.751  14.784  0.1568 -0.4328 -0.1965
17349TIP3    H173538   1.891   6.735  14.757  0.3428 -0.9372  0.7073
17349TIP3    H273539   1.790   6.703  14.866 -0.7838  0.0259 -0.0277
17350TIP3   OH273540   4.018   5.975   1.781 -0.3118  0.1938 -0.1656
17350TIP3    H173541   3.923   5.965   1.768 -0.4848  0.5747  0.7641
17350TIP3    H273542   4.056   5.897   1.741 -0.9776  0.2875 -1.0124
17351TIP3   OH273543   6.614   0.404  13.130  0.0208 -0.0269  0.0261
17351TIP3    H173544   6.530   0.359  13.116  0.5968 -1.1084 -0.0904
17351TIP3    H273545   6.617   0.418  13.224  0.8910 -2.4919  0.4419
17352TIP3   OH273546   0.623   4.051   0.583 -0.1968 -0.0957 -0.4205
17352TIP3    H173547   0.642   4.038   0.676 -2.1015  3.1862  0.5883
17352TIP3    H273548   0.549   3.992   0.566 -0.3162 -0.1845  0.3478
17353TIP3   OH273549   4.458   0.958   2.245  0.0821 -0.2730 -0.2729
17353TIP3    H173550   4.519   1.021   2.283 -1.3305  0.4862  0.8126
17353TIP3    H273551   4.502   0.874   2.253  1.0981  0.2885  0.2200
17354TIP3   OH273552   4.689   4.259   2.832  0.2905  0.2670  0.7050
17354TIP3    H173553   4.647   4.271   2.747  1.3480 -2.8721 -0.3877
17354TIP3    H273554   4.620   4.227   2.890 -0.3391  2.0309  0.9945
17355TIP3   OH273555   2.546   4.551   0.382 -0.0362  0.3499 -0.2623
17355TIP3    H173556   2.536   4.496   0.459  1.5242  1.6178  0.9358
17355TIP3    H273557   2.637   4.538   0.354 -0.2869  0.6584 -1.2767
17356TIP3   OH273558   4.558   5.459  12.584 -0.0058  0.0277  0.4313
17356TIP3    H173559   4.595   5.430  12.501 -0.1912 -0.9966  0.7009
17356TIP3    H273560   4.474   5.499  12.560 -0.0724 -0.2875  0.1288
17357TIP3   OH273561   6.152   1.066   4.095 -0.2716  0.1664 -0.5867
17357TIP3    H173562   6.234   1.074   4.047  0.6284  0.2896  0.9235
17357TIP3    H273563   6.141   0.971   4.107 -0.5858  0.1255 -1.1568
17358TIP3   OH273564   2.638   2.333   2.638 -0.3674 -0.0310 -0.1111
17358TIP3    H173565   2.661   2.402   2.701 -0.1956 -0.1911  0.0027
17358TIP3    H273566   2.621   2.256   2.692 -0.9747  0.0289 -0.2065
17359TIP3   OH273567   3.721   6.026   2.360 -0.2488  0.2731 -0.2143
17359TIP3    H173568   3.744   6.040   2.268  1.7080 -0.4874  0.1134
17359TIP3    H273569   3.631   5.991   2.358  0.6340 -2.1590 -2.0432
17360TIP3   OH273570   4.135   2.482  12.021 -0.0348 -0.0467  0.7223
17360TIP3    H173571   4.081   2.547  11.976  1.3336  0.9443  0.4157
17360TIP3    H273572   4.212   2.532  12.051  0.9895 -1.5003  0.6221
17361TIP3   OH273573   3.737   1.654  10.436  0.3738 -0.2212 -0.5965
17361TIP3    H173574   3.755   1.733  10.488  0.5772  0.4731 -1.6884
17361TIP3    H273575   3.652   1.672  10.395  0.8131 -0.1932 -1.5173
17362TIP3   OH273576   1.440   4.822  11.170  0.0668  1.2335  0.1715
17362TIP3    H173577   1.471   4.764  11.102  0.5466  1.1030  0.4963
17362TIP3    H273578   1.348   4.837  11.149 -0.2361 -0.1558  0.4390
17363TIP3   OH273579   4.200   6.623  12.009  0.4239 -0.4067  0.1515
17363TIP3    H173580   4.265   6.672  12.058 -0.3276  2.2235 -1.2757
17363TIP3    H273581   4.117   6.642  12.052  0.2275 -1.3986  0.2444
17364TIP3   OH273582   0.523   1.509  15.795 -0.0681  0.4887  0.4699
17364TIP3    H173583   0.472   1.442  15.749 -0.7996  0.0254  1.8872
17364TIP3    H273584   0.511   1.588  15.742 -2.4740  0.4485  0.8131
17365TIP3   OH273585   2.846   1.578  16.704  0.1698 -0.2771  0.1536
17365TIP3    H173586   2.841   1.593  16.798  0.5393  3.5065 -0.2765
17365TIP3    H273587   2.774   1.519  16.685 -1.0779  0.3434  2.5586
17366TIP3   OH273588   4.148   1.174  16.985 -0.0997 -0.2425 -0.1930
17366TIP3    H173589   4.074   1.229  17.011 -0.2415  0.1529 -1.3721
17366TIP3    H273590   4.172   1.126  17.064 -0.9230  0.4303  0.4747
17367TIP3   OH273591   2.364   4.412  14.621  0.0816 -0.0177  0.4256
17367TIP3    H173592   2.328   4.484  14.569 -0.6426 -0.1043  0.8057
17367TIP3    H273593   2.289   4.360  14.646  0.7338 -1.7960 -1.1266
17368TIP3   OH273594   1.256   6.109   5.128  0.1579  0.4496  0.2525
17368TIP3    H173595   1.277   6.088   5.219  0.9220 -2.2474 -0.4611
17368TIP3    H273596   1.325   6.169   5.101  1.7722 -1.1785  0.5967
17369TIP3   OH273597   0.775   5.094   1.896 -0.4178 -0.2559 -0.2607
17369TIP3    H173598   0.807   5.014   1.854 -1.5402 -2.0546  2.0662
17369TIP3    H273599   0.779   5.075   1.990  0.9433  3.1300  0.5095
17370TIP3   OH273600   6.537   6.189   6.458 -0.1631  0.0113  0.5085
17370TIP3    H173601   6.559   6.257   6.522 -0.1086  0.8929 -0.4253
17370TIP3    H273602   6.620   6.142   6.445  0.5410  1.5298 -0.8766
17371TIP3   OH273603   3.293   5.282  14.030  0.3497 -0.1505 -0.1231
17371TIP3    H173604   3.345   5.216  14.074  1.0260 -0.1838 -0.9459
17371TIP3    H273605   3.311   5.363  14.078  2.4973  0.1785 -1.3842
17372TIP3   OH273606   5.680   2.782  11.940  0.5492 -0.6541 -0.9356
17372TIP3    H173607   5.620   2.742  12.003 -0.3705  0.4189 -1.0991
17372TIP3    H273608   5.628   2.795  11.861  0.6594  1.2453 -0.7496
17373TIP3   OH273609   1.848   3.747  10.408  0.2177  0.0654  0.0860
17373TIP3    H173610   1.778   3.803  10.376 -0.4586  0.1240  1.5501
17373TIP3    H273611   1.804   3.666  10.434  1.0578 -0.8479 -1.1913
17374TIP3   OH273612   4.531   1.327  13.150  0.3061  0.3715  0.7176
17374TIP3    H173613   4.456   1.329  13.209  1.2860  0.4391  2.0082
17374TIP3    H273614   4.510   1.391  13.082 -0.5462  0.8292  1.3943
17375TIP3   OH273615   2.162   2.879   1.548  0.8117  0.1284  0.2749
17375TIP3    H173616   2.257   2.873   1.559  0.8069  0.6886  0.6660
17375TIP3    H273617   2.127   2.819   1.614  0.9056 -0.9843 -0.6505
17376TIP3   OH273618   3.007   5.449   5.462 -0.7015 -0.9833  0.1813
17376TIP3    H173619   3.015   5.473   5.369  0.1805 -1.9078 -0.0057
17376TIP3    H273620   2.964   5.363   5.460  2.3162 -2.6319  0.3655
17377TIP3   OH273621   4.210   2.144   0.643  0.2238 -0.5458 -0.1464
17377TIP3    H173622   4.300   2.149   0.609  0.6525 -1.5033  0.7661
17377TIP3    H273623   4.216   2.184   0.730  0.2749 -2.4740  0.7933
17378TIP3   OH273624   3.957   2.930   3.475 -0.0914 -0.0892  0.3829
17378TIP3    H173625   3.959   2.925   3.571 -0.2210  0.0107  0.3907
17378TIP3    H273626   3.982   2.842   3.446 -0.4492 -0.2325  0.5109
17379TIP3   OH273627   6.338   1.953   0.271 -0.0394 -0.4840  0.0087
17379TIP3    H173628   6.393   2.006   0.214 -0.5901 -0.6846 -0.7258
17379TIP3    H273629   6.287   1.899   0.211 -1.0432 -0.2908  0.6717
17380TIP3   OH273630   1.490   5.412  12.299  0.1168  0.7450 -0.2581
17380TIP3    H173631   1.397   5.432  12.308 -0.5797 -1.9415 -0.5716
17380TIP3    H273632   1.511   5.357  12.375  1.2549  0.6655 -0.6035
17381TIP3   OH273633   0.759   3.714   1.340 -0.1736 -0.5534 -0.0633
17381TIP3    H173634   0.751   3.724   1.435 -0.7357 -0.2763 -0.1316
17381TIP3    H273635   0.783   3.802   1.309  2.1077 -1.0831  0.0024
17382TIP3   OH273636   5.370   1.287  12.698 -0.9224 -0.4443  0.1546
17382TIP3    H173637   5.358   1.244  12.783  0.3987 -1.4395 -0.1343
17382TIP3    H273638   5.429   1.360  12.717 -0.5861 -0.6969  0.1040
17383TIP3   OH273639   3.581   0.347   2.448  0.5806  0.0761 -0.1684
17383TIP3    H173640   3.529   0.405   2.392 -1.6075  1.7056  3.1703
17383TIP3    H273641   3.606   0.274   2.392 -2.5482  0.8756 -2.8913
17384TIP3   OH273642   5.609   4.340   1.158  0.3846  0.0346 -0.1035
17384TIP3    H173643   5.697   4.361   1.190  0.1431 -0.4175  0.8900
17384TIP3    H273644   5.620   4.260   1.107  0.7545  0.7005 -1.1068
17385TIP3   OH273645   1.266   2.696   1.689  0.1352 -0.3840  0.5486
17385TIP3    H173646   1.318   2.618   1.707 -1.1374 -1.1362  1.1106
17385TIP3    H273647   1.199   2.666   1.628 -0.2225  0.3326  0.5809
17386TIP3   OH273648   2.658   5.792  15.590 -0.3812 -0.2836 -0.0849
17386TIP3    H173649   2.611   5.875  15.602 -0.8688 -0.5082 -0.4326
17386TIP3    H273650   2.750   5.818  15.582 -0.7505  0.5095 -2.9953
17387TIP3   OH273651   4.026   4.297   2.833 -0.0255 -0.2853 -0.0013
17387TIP3    H173652   4.115   4.261   2.829  0.2165  0.2341  0.4719
17387TIP3    H273653   4.005   4.300   2.926 -0.8896 -1.2034 -0.1537
17388TIP3   OH273654   5.424   3.022   4.431 -0.2097  0.1391 -0.0707
17388TIP3    H173655   5.342   3.045   4.476  0.1271 -0.0140  0.6334
17388TIP3    H273656   5.487   3.007   4.502  0.6236  0.9402 -0.6265
17389TIP3   OH273657   5.439   6.337   2.328  0.5342 -0.0609 -0.2424
17389TIP3    H173658   5.490   6.256   2.328  0.7373  0.0644  0.0965
17389TIP3    H273659   5.388   6.333   2.409 -0.3056 -0.3718 -0.7628
17390TIP3   OH273660   3.660   4.875   6.833 -0.2066  0.2749 -0.2608
17390TIP3    H173661   3.615   4.829   6.762 -0.6276  0.2827 -0.0001
17390TIP3    H273662   3.753   4.872   6.809 -0.3805  0.5874 -0.9908
17391TIP3   OH273663   1.809   6.351  17.133 -0.0390 -0.0758  0.2042
17391TIP3    H173664   1.874   6.366  17.201  0.4451  0.2214 -0.3174
17391TIP3    H273665   1.746   6.290  17.173 -0.6640  1.3375  1.4920
17392TIP3   OH273666   4.669   3.822  11.721  0.4687  0.1561  0.2143
17392TIP3    H173667   4.699   3.777  11.799 -0.4631 -0.7672  0.0620
17392TIP3    H273668   4.743   3.820  11.661  0.8341 -0.0694  0.6741
17393TIP3   OH273669   2.164   3.151  14.039  0.5058  0.0825 -0.4714
17393TIP3    H173670   2.193   3.090  14.107 -0.0638  0.0464 -0.2572
17393TIP3    H273671   2.118   3.220  14.086  1.7016  1.0287 -0.6559
17394TIP3   OH273672   2.963   1.229   0.165  0.1324  0.1645 -0.3820
17394TIP3    H173673   3.018   1.201   0.238 -1.4870  0.6937  1.1075
17394TIP3    H273674   3.017   1.292   0.118  2.0509 -1.8077 -1.0290
17395TIP3   OH273675   4.594   5.905   3.215  0.2461 -0.3189  0.2414
17395TIP3    H173676   4.684   5.935   3.228  0.0056 -0.2699  2.0422
17395TIP3    H273677   4.600   5.810   3.212  0.3524 -0.3218  0.5066
17396TIP3   OH273678   3.985   5.190  14.349  0.0648 -0.1419 -0.2750
17396TIP3    H173679   3.975   5.261  14.413 -2.1805  0.0596 -0.7562
17396TIP3    H273680   3.925   5.213  14.279 -0.8830 -2.6001 -0.3530
17397TIP3   OH273681   4.666   2.040  16.707  0.1145  0.1034  0.1334
17397TIP3    H173682   4.635   2.015  16.621 -2.3960 -0.7020  1.1830
17397TIP3    H273683   4.756   2.008  16.711  0.3412  0.3077 -2.1927
17398TIP3   OH273684   0.688   4.974   0.425 -0.1696  0.5201 -0.2784
17398TIP3    H173685   0.623   5.038   0.453 -0.4976  0.6603 -1.3187
17398TIP3    H273686   0.699   4.916   0.500  0.3685  1.9642  0.7901
17399TIP3   OH273687   5.564   1.596   0.604 -0.1059  0.1565  0.6134
17399TIP3    H173688   5.568   1.642   0.519  2.2724 -0.2998  0.4093
17399TIP3    H273689   5.595   1.661   0.667  0.5276 -0.2744  0.7501
17400TIP3   OH273690   3.421   6.416   4.881 -0.1345  0.3452 -0.2445
17400TIP3    H173691   3.512   6.388   4.882 -0.5627 -1.1713 -0.9119
17400TIP3    H273692   3.388   6.392   4.968  0.2815  1.5988  0.2771
17401TIP3   OH273693   2.873   2.341   3.327 -0.5917  0.3582 -0.3736
17401TIP3    H173694   2.964   2.317   3.344 -0.5274  0.6744 -0.2497
17401TIP3    H273695   2.827   2.258   3.318  0.3007  0.1148 -3.7858
17402TIP3   OH273696   5.707   1.694  11.965  0.4333 -0.7250 -0.4851
17402TIP3    H173697   5.693   1.748  11.888  0.2507  0.4332  0.3453
17402TIP3    H273698   5.739   1.610  11.930 -1.7518 -1.0199 -1.9671
17403TIP3   OH273699   1.146   6.481   3.337  1.0405  0.2483  0.1015
17403TIP3    H173700   1.051   6.490   3.332  1.1053  2.3745  1.4209
17403TIP3    H273701   1.161   6.430   3.416  0.9973 -0.8827 -0.6044
17404TIP3   OH273702   3.586   1.779  13.633  0.3009  0.3367 -1.0739
17404TIP3    H173703   3.674   1.744  13.624  0.2353 -0.7767  1.6379
17404TIP3    H273704   3.594   1.849  13.698 -0.9278 -0.3597 -0.1285
17405TIP3   OH273705   4.993   4.305   0.749  0.5874  0.0687 -0.1740
17405TIP3    H173706   4.939   4.277   0.675  2.0858 -1.8825 -0.6282
17405TIP3    H273707   5.005   4.399   0.736 -1.8880  0.4095 -0.5215
17406TIP3   OH273708   6.517   4.616   4.776  0.1015  0.2014  0.6986
17406TIP3    H173709   6.511   4.527   4.812  0.1929  0.1744  0.6478
17406TIP3    H273710   6.426   4.644   4.766  0.0318 -0.5307 -0.8919
17407TIP3   OH273711   5.879   4.644  16.933 -0.0131 -0.2232 -0.5037
17407TIP3    H173712   5.899   4.566  16.984 -0.0314  0.2166  0.1822
17407TIP3    H273713   5.816   4.692  16.986 -0.3472  0.0405 -1.1291
17408TIP3   OH273714   6.478   2.762   1.887 -0.8984  0.5346  0.1318
17408TIP3    H173715   6.383   2.766   1.879 -1.1334  0.0485  2.1226
17408TIP3    H273716   6.501   2.839   1.939 -0.2816  0.2703  0.2639
17409TIP3   OH273717   2.913   5.958  15.081 -0.0663  0.1747 -0.1461
17409TIP3    H173718   2.922   5.912  14.998 -1.8477  0.3332 -0.4594
17409TIP3    H273719   2.979   6.027  15.077 -0.2061  0.2566 -1.4814
17410TIP3   OH273720   6.179   1.372   0.317  0.0909 -0.2924 -0.3086
17410TIP3    H173721   6.169   1.443   0.380 -1.6241 -1.0134  0.2892
17410TIP3    H273722   6.247   1.316   0.354 -0.1905 -0.1775  0.4041
17411TIP3   OH273723   1.368   4.413  13.570  0.1065  0.0829  0.7086
17411TIP3    H173724   1.303   4.362  13.618  1.3244 -0.9231  1.3485
17411TIP3    H273725   1.399   4.353  13.502 -0.9687  1.1944 -0.8387
17412TIP3   OH273726   0.871   6.539  15.657  0.0337  0.4271 -0.1049
17412TIP3    H173727   0.955   6.582  15.670  0.7223 -1.1402  0.8097
17412TIP3    H273728   0.844   6.511  15.744 -0.8061 -0.2492 -0.5661
17413TIP3   OH273729   5.107   0.302   2.531 -0.7858 -0.1119 -0.4706
17413TIP3    H173730   5.192   0.327   2.567 -0.6183 -0.2987 -0.7391
17413TIP3    H273731   5.069   0.385   2.502 -0.2492 -0.1551 -1.3114
17414TIP3   OH273732   0.877   4.471  11.833 -0.4047 -0.2327  0.1453
17414TIP3    H173733   0.874   4.563  11.806 -2.5747 -0.7788 -1.7999
17414TIP3    H273734   0.966   4.458  11.865  0.5635  2.0343 -1.3932
17415TIP3   OH273735   6.478   4.580   0.802 -0.1311  0.2786 -0.6003
17415TIP3    H173736   6.463   4.486   0.786  3.0467 -0.5608  0.6272
17415TIP3    H273737   6.492   4.586   0.897 -0.2946  2.0387 -0.6570
17416TIP3   OH273738   2.220   2.276  15.094 -0.2389 -0.3958  0.1826
17416TIP3    H173739   2.218   2.236  15.181 -2.4656 -0.0009  0.3531
17416TIP3    H273740   2.140   2.328  15.089  0.7112  1.0094 -1.4696
17417TIP3   OH273741   3.994   0.828  16.484  0.1180  0.3650 -0.6203
17417TIP3    H173742   4.069   0.887  16.480  1.8597 -1.7574 -0.4943
17417TIP3    H273743   3.919   0.887  16.500  1.5521  2.6389 -1.6969
17418TIP3   OH273744   2.599   6.492  11.727  0.2419  0.3830  0.8036
17418TIP3    H173745   2.624   6.584  11.720  0.5356  0.3627  1.4429
17418TIP3    H273746   2.584   6.478  11.821  0.8309 -0.3692  0.8026
17419TIP3   OH273747   1.480   2.712  13.030  0.4731  0.2776  0.4502
17419TIP3    H173748   1.444   2.697  12.943 -0.6896  0.3059  0.9042
17419TIP3    H273749   1.499   2.624  13.064 -1.6127  0.0517  1.1757
17420TIP3   OH273750   0.779   3.057   4.670  0.6388 -0.3514 -0.3573
17420TIP3    H173751   0.757   3.018   4.755 -0.8055 -0.6434 -0.8333
17420TIP3    H273752   0.870   3.032   4.655  1.0574  0.0822  1.3022
17421TIP3   OH273753   5.699   2.049  12.561  0.1479 -0.1449 -0.6420
17421TIP3    H173754   5.623   2.002  12.529  0.0611 -0.4427 -0.0208
17421TIP3    H273755   5.773   2.013  12.511  0.3877 -2.4579  1.2126
17422TIP3   OH273756   2.022   2.793  15.719  0.5465 -0.0290  0.0417
17422TIP3    H173757   1.965   2.716  15.717  1.3358 -0.6209 -0.2930
17422TIP3    H273758   1.974   2.857  15.771 -1.1465  0.0748 -1.5724
17423TIP3   OH273759   3.128   3.940   4.041 -0.0915 -0.1738  0.2974
17423TIP3    H173760   3.089   3.865   3.997  0.8104 -0.9639  0.7895
17423TIP3    H273761   3.210   3.955   3.993 -0.2799  0.5204  0.1864
17424TIP3   OH273762   6.645   2.552  16.072  0.0560 -0.1010 -0.8936
17424TIP3    H173763   6.682   2.466  16.095 -1.8400 -0.8982 -0.6120
17424TIP3    H273764   6.713   2.615  16.096  0.6797 -1.3765  0.8976
17425TIP3   OH273765   3.734   0.010   5.891 -0.4654  0.2709  0.3254
17425TIP3    H173766   3.784   0.057   5.958 -0.1549 -0.5669  0.6826
17425TIP3    H273767   3.800  -0.031   5.835 -0.7118 -2.0854  1.6771
17426TIP3   OH273768   4.742   4.489  14.749  0.1265 -0.5533 -0.5850
17426TIP3    H173769   4.671   4.427  14.759  1.0803 -1.6298 -0.3201
17426TIP3    H273770   4.746   4.535  14.833  0.8767 -1.7468  0.0651
17427TIP3   OH273771   3.975   2.989   4.642  0.2364 -0.5799  0.3387
17427TIP3    H173772   3.897   3.039   4.667  0.1089  0.5741 -2.0609
17427TIP3    H273773   3.939   2.907   4.607  0.1333 -0.3032 -0.2068
17428TIP3   OH273774   4.774   1.415   5.804 -0.4116  0.2058  0.0525
17428TIP3    H173775   4.754   1.403   5.897  0.9703  0.9306  0.4837
17428TIP3    H273776   4.711   1.480   5.774 -1.3593 -0.5827  0.2646
17429TIP3   OH273777   4.993   6.119  14.223  0.4422 -0.4652 -0.1947
17429TIP3    H173778   4.997   6.127  14.318  0.0933 -0.3658 -0.1866
17429TIP3    H273779   4.921   6.176  14.197  0.5617 -0.4629 -0.5217
17430TIP3   OH273780   6.669   0.748  14.271  0.7511  0.6249 -0.1598
17430TIP3    H173781   6.661   0.667  14.322 -0.7642  1.3996  0.9025
17430TIP3    H273782   6.752   0.786  14.300  0.7384  0.1906  0.4701
17431TIP3   OH273783   0.331   4.019  15.649 -0.3537  0.0257  0.3834
17431TIP3    H173784   0.383   3.997  15.572  1.7128  1.7773  1.1833
17431TIP3    H273785   0.384   3.992  15.724 -0.5290  1.8441  1.2291
17432TIP3   OH273786   5.537   2.842  16.748  0.2114  0.3839 -0.2837
17432TIP3    H173787   5.484   2.865  16.824 -1.9262  1.1958 -1.9320
17432TIP3    H273788   5.557   2.749  16.761 -2.8406 -0.3791 -0.2193
17433TIP3   OH273789   6.500   0.860  16.460 -0.3188 -0.2224 -0.1207
17433TIP3    H173790   6.541   0.926  16.405  0.3282 -0.6230 -0.1336
17433TIP3    H273791   6.528   0.776  16.422 -1.5698 -0.5174 -0.4375
17434TIP3   OH273792   6.364   1.769   2.209  0.0521  0.3265 -0.1353
17434TIP3    H173793   6.334   1.856   2.183  0.6904  0.5108 -0.2743
17434TIP3    H273794   6.440   1.786   2.265  1.8813 -0.1965 -2.3479
17435TIP3   OH273795   3.719   3.266   0.188 -0.0903  0.1770  0.4645
17435TIP3    H173796   3.639   3.315   0.170  0.6412  1.4206  0.4808
17435TIP3    H273797   3.790   3.324   0.161  0.8159 -0.9441  0.3386
17436TIP3   OH273798   2.961   1.589  12.483  0.3132  0.0512 -0.0097
17436TIP3    H173799   2.952   1.507  12.434  2.8688 -0.0553 -0.4080
17436TIP3    H273800   2.997   1.564  12.568  2.4084  0.8082 -0.6143
17437TIP3   OH273801   6.813   3.644   5.502 -0.0051 -0.3109  0.1933
17437TIP3    H173802   6.892   3.634   5.449  1.4295 -2.6690  2.5349
17437TIP3    H273803   6.841   3.694   5.579 -1.3644  0.7058  0.0672
17438TIP3   OH273804   1.127   5.598   5.700  0.0644  0.4226  0.1266
17438TIP3    H173805   1.177   5.598   5.619  1.3752 -1.5305  0.8503
17438TIP3    H273806   1.117   5.690   5.723  3.0672  0.9416 -0.2575
17439TIP3   OH273807   6.292   0.099   0.625 -0.2447 -0.3036 -0.6386
17439TIP3    H173808   6.209   0.114   0.580 -0.3368  0.5141 -0.2100
17439TIP3    H273809   6.296   0.004   0.636 -2.3439 -0.2082  1.5899
17440TIP3   OH273810   6.590   0.152   5.983  0.6646 -0.7778  0.1945
17440TIP3    H173811   6.501   0.188   5.991 -0.2362 -2.3227 -1.7898
17440TIP3    H273812   6.602   0.100   6.062  0.7935  1.3086  1.6289
17441TIP3   OH273813   4.754   5.728   0.530  0.0300 -0.0745  0.3129
17441TIP3    H173814   4.738   5.648   0.580  0.4619 -1.1090 -1.1239
17441TIP3    H273815   4.757   5.797   0.595 -0.4010 -1.2267  1.5965
17442TIP3   OH273816   1.477   1.623  17.096  0.8409  0.3696  0.4500
17442TIP3    H173817   1.567   1.594  17.107  1.1140  0.5611 -1.0256
17442TIP3    H273818   1.451   1.589  17.011 -0.5438  0.1846  0.9263
17443TIP3   OH273819   0.621   3.436  13.828 -0.0597 -0.6304 -0.7538
17443TIP3    H173820   0.607   3.354  13.874 -0.0750 -1.8985 -2.8817
17443TIP3    H273821   0.591   3.503  13.889 -3.0417 -2.3804 -0.0976
17444TIP3   OH273822   2.591   4.139   3.027  0.3533 -0.1581 -0.3142
17444TIP3    H173823   2.610   4.066   2.968 -1.4864 -0.2747 -0.8272
17444TIP3    H273824   2.530   4.103   3.092 -0.1243  0.7602 -0.2283
17445TIP3   OH273825   3.796   4.130   3.332 -0.1343  0.1214 -0.2841
17445TIP3    H173826   3.835   4.078   3.262  1.8902 -1.3216  1.7871
17445TIP3    H273827   3.742   4.068   3.381  1.0941  0.2617  1.3242
17446TIP3   OH273828   6.326   0.490  11.358 -0.6383  0.6746 -0.5880
17446TIP3    H173829   6.283   0.542  11.425  0.0780  0.4056  0.0940
17446TIP3    H273830   6.282   0.405  11.362  0.0878  0.3198  0.2786
17447TIP3   OH273831   2.246   2.440  13.976 -0.0428  0.3726 -0.1454
17447TIP3    H173832   2.190   2.498  14.029 -0.4805  1.0390 -1.3117
17447TIP3    H273833   2.185   2.383  13.931  0.0961  1.7470 -2.1937
17448TIP3   OH273834   2.903   4.060  14.293  0.4097  0.5104  0.1155
17448TIP3    H173835   2.843   3.988  14.312  0.2331  0.6935  0.2472
17448TIP3    H273836   2.975   4.019  14.245  0.7017  0.0935  0.8847
17449TIP3   OH273837   2.399   0.674  17.116 -0.5172  0.1535 -0.4306
17449TIP3    H173838   2.308   0.689  17.090 -0.9797 -1.5415  0.0607
17449TIP3    H273839   2.425   0.596  17.067  0.6187  0.5193 -0.4322
17450TIP3   OH273840   5.281   4.592  15.486 -0.4659 -0.1073 -0.0360
17450TIP3    H173841   5.373   4.610  15.469 -0.8630  2.6072  0.2863
17450TIP3    H273842   5.237   4.607  15.403 -0.6723 -1.3242 -0.1729
17451TIP3   OH273843   1.346   1.216  16.285  0.0842  0.4755 -0.1505
17451TIP3    H173844   1.401   1.270  16.229  0.5453 -0.5266 -0.6943
17451TIP3    H273845   1.349   1.129  16.244  0.4340 -0.2815  1.4337
17452TIP3   OH273846   6.645   3.129  16.553  0.1153 -0.2616 -0.0322
17452TIP3    H173847   6.639   3.037  16.581  1.0210 -0.5401 -0.7028
17452TIP3    H273848   6.555   3.161  16.557 -0.3134 -1.3649 -0.3728
17453TIP3   OH273849   1.465   3.024   1.263 -0.0771  0.3986  0.0701
17453TIP3    H173850   1.480   2.946   1.317  2.8978  0.2357 -0.8164
17453TIP3    H273851   1.494   3.097   1.319  2.8674  0.2425 -1.0828
17454TIP3   OH273852   6.348   6.821  15.381  0.0086 -0.0648  0.3956
17454TIP3    H173853   6.320   6.883  15.315  1.3231 -0.3471 -0.4605
17454TIP3    H273854   6.443   6.817  15.373  0.2969  0.3640  2.7254
17455TIP3   OH273855   6.145   4.287   1.077 -0.0200 -0.0553  0.0397
17455TIP3    H173856   6.111   4.211   1.123 -2.0436  1.2497  0.8614
17455TIP3    H273857   6.240   4.275   1.076 -0.2759 -2.6572 -0.0737
17456TIP3   OH273858   3.344   4.915  13.901 -0.2630 -0.0289 -0.2183
17456TIP3    H173859   3.285   4.849  13.938 -0.9031  0.9137  0.5144
17456TIP3    H273860   3.287   4.991  13.884  0.7339  0.9293  0.5688
17457TIP3   OH273861   5.520   4.253  11.976  0.5233 -0.3913 -0.1142
17457TIP3    H173862   5.591   4.315  11.960 -0.3488  0.4156 -0.9726
17457TIP3    H273863   5.500   4.263  12.069 -0.8604  2.0479 -0.6004
17458TIP3   OH273864   4.512   1.895   1.673 -0.1781  0.2834  0.1668
17458TIP3    H173865   4.467   1.934   1.748 -1.5375  1.4450 -1.1872
17458TIP3    H273866   4.500   1.959   1.603  2.0654 -0.2289 -0.7495
17459TIP3   OH273867   2.012   0.974   2.331  0.0125 -0.1263  0.2169
17459TIP3    H173868   2.096   0.960   2.376  0.3441  1.2986  0.0960
17459TIP3    H273869   2.034   0.969   2.238 -0.0559  0.0707  0.1886
17460TIP3   OH273870   1.911   3.667   3.625 -0.2446  0.7714  0.3471
17460TIP3    H173871   1.817   3.681   3.612 -0.4526  1.0532  1.9948
17460TIP3    H273872   1.927   3.578   3.592 -1.0326  0.8011 -0.1444
17461TIP3   OH273873   3.052   6.027  16.368 -0.9150  0.2536  0.4718
17461TIP3    H173874   2.987   6.024  16.298 -1.2707  0.4873  0.7858
17461TIP3    H273875   3.000   6.031  16.448 -0.5246  1.0970  0.6949
17462TIP3   OH273876   4.070   0.746  12.548 -0.5455 -0.4243  0.0960
17462TIP3    H173877   4.126   0.726  12.473 -1.3589  0.1623 -0.6915
17462TIP3    H273878   4.125   0.801  12.604 -1.0107  2.1540 -1.7854
17463TIP3   OH273879   1.320   4.986   1.510 -0.3067 -0.1125  0.2323
17463TIP3    H173880   1.229   5.001   1.535 -1.3024 -1.0164 -2.4671
17463TIP3    H273881   1.328   5.029   1.424  2.4600  1.7627  1.2757
17464TIP3   OH273882   2.644   1.090  12.281 -0.1750  0.0922 -0.0565
17464TIP3    H173883   2.705   1.093  12.207 -0.3144  1.0703 -0.1412
17464TIP3    H273884   2.558   1.085  12.240 -0.1951 -0.6020  0.0589
17465TIP3   OH273885   2.132   4.333   0.653 -0.2091 -0.4991  0.0796
17465TIP3    H173886   2.216   4.288   0.651 -0.4582 -0.9627 -0.1755
17465TIP3    H273887   2.128   4.373   0.740  1.3880  1.7147 -0.7662
17466TIP3   OH273888   4.811   5.053   0.846 -0.0535 -0.4770  0.3621
17466TIP3    H173889   4.892   5.033   0.894  0.6299  0.1225 -0.5255
17466TIP3    H273890   4.758   5.101   0.910  1.4629  1.6724  0.1244
17467TIP3   OH273891   3.073   1.567  12.757  0.1216  0.3297  0.5217
17467TIP3    H173892   3.084   1.551  12.851  3.0944  0.6240  0.3233
17467TIP3    H273893   3.030   1.652  12.752  0.0177  0.3522  1.6313
17468TIP3   OH273894   2.143   3.658   4.223  0.3331  0.2422 -0.0852
17468TIP3    H173895   2.178   3.574   4.254  0.0424  0.1563  0.0126
17468TIP3    H273896   2.087   3.688   4.295  0.6321  0.6396 -0.0173
17469TIP3   OH273897   0.284   6.613   4.121  0.2443  0.6947  0.6549
17469TIP3    H173898   0.249   6.534   4.161  1.1157 -0.1467 -0.1940
17469TIP3    H273899   0.210   6.654   4.077 -0.1206  0.0921  0.7066
17470TIP3   OH273900   1.226   1.581  16.126 -0.2785 -0.0098  0.4697
17470TIP3    H173901   1.301   1.578  16.185  1.7926 -1.9623 -2.0338
17470TIP3    H273902   1.253   1.640  16.055 -0.8674 -1.0664 -0.6847
17471TIP3   OH273903   5.802   2.226  16.360 -0.2472  0.2698  0.1113
17471TIP3    H173904   5.851   2.267  16.432  0.4698  0.8324 -0.6825
17471TIP3    H273905   5.784   2.137  16.391  1.2033  0.0809  0.4683
17472TIP3   OH273906   5.062   2.986   0.961  0.1145 -0.1417  0.6034
17472TIP3    H173907   4.978   2.955   0.993  0.5672 -0.2242  1.7599
17472TIP3    H273908   5.041   3.054   0.897 -0.8416 -1.0749 -0.1117
17473TIP3   OH273909   2.188   3.315  16.367  0.3272 -0.3443 -0.8673
17473TIP3    H173910   2.208   3.276  16.452 -0.6797  1.0909  0.0780
17473TIP3    H273911   2.117   3.261  16.331  0.4593 -0.7033 -0.5864
17474TIP3   OH273912   4.725   1.130  13.463  0.1171  0.5807 -0.0581
17474TIP3    H173913   4.759   1.187  13.394  1.8758  0.0331  0.3071
17474TIP3    H273914   4.802   1.103  13.512 -1.1430  1.9087  2.9299
17475TIP3   OH273915   6.540   6.304  11.512  0.3162  0.6357  0.4787
17475TIP3    H173916   6.604   6.358  11.559 -0.6786  0.9311  1.5330
17475TIP3    H273917   6.555   6.216  11.545  1.0022  0.4781 -0.2122
17476TIP3   OH273918   1.804   3.247  12.950 -0.1384  0.2939 -0.3329
17476TIP3    H173919   1.819   3.165  12.997 -1.0682  0.9946  1.2628
17476TIP3    H273920   1.871   3.306  12.985  0.9213  0.1073 -1.9105
17477TIP3   OH273921   1.251   5.447  11.079  0.3324  0.3737 -0.4005
17477TIP3    H173922   1.199   5.378  11.118  1.4658 -0.8885 -1.0400
17477TIP3    H273923   1.287   5.496  11.154 -0.5220  0.3229  0.0503
17478TIP3   OH273924   2.541   0.546  12.855  0.4192  0.4562 -0.0381
17478TIP3    H173925   2.464   0.587  12.815  0.5651 -0.6284 -1.5028
17478TIP3    H273926   2.602   0.618  12.867 -0.3860  1.1383  0.0779
17479TIP3   OH273927   3.115   5.377   5.941 -0.2199  0.1824 -0.9930
17479TIP3    H173928   3.136   5.289   5.911  2.8417  0.8357 -1.0680
17479TIP3    H273929   3.173   5.392   6.015 -1.2309  1.8660 -0.4919
17480TIP3   OH273930   6.358   1.785  14.484 -0.3086 -0.2872 -0.0952
17480TIP3    H173931   6.266   1.761  14.474 -1.1422  2.1827  0.9246
17480TIP3    H273932   6.381   1.759  14.573 -0.8292  1.3503  0.5535
17481TIP3   OH273933   5.292   3.240   5.335  0.1926  0.4504  0.6008
17481TIP3    H173934   5.321   3.242   5.244  0.8136  0.7587  0.7984
17481TIP3    H273935   5.359   3.189   5.381 -1.1465 -1.4294  0.5477
17482TIP3   OH273936   0.752   1.827   4.549 -0.2921 -0.3051  0.2761
17482TIP3    H173937   0.671   1.815   4.599 -0.3440  1.1529  0.5687
17482TIP3    H273938   0.728   1.886   4.478  0.4196 -0.2008  0.1188
17483TIP3   OH273939   5.926   0.710   1.501 -0.6058  0.3209 -0.3802
17483TIP3    H173940   5.873   0.630   1.497  2.7074 -2.2286  1.5986
17483TIP3    H273941   5.967   0.715   1.414  1.1522 -1.8251  0.2068
17484TIP3   OH273942   2.124   4.064  16.307  0.5134 -0.4036  0.6582
17484TIP3    H173943   2.174   4.026  16.234  0.3619 -0.7360  0.7278
17484TIP3    H273944   2.035   4.029  16.296  0.3899 -0.1241  0.7615
17485TIP3   OH273945   0.901   5.712  10.653  0.4223  0.2100 -0.1515
17485TIP3    H173946   0.809   5.713  10.680  0.7099  0.2948  0.8469
17485TIP3    H273947   0.932   5.801  10.668  1.1129 -0.2236  1.1222
17486TIP3   OH273948   3.894   3.155   1.607 -0.2815 -0.6588  0.4820
17486TIP3    H173949   3.957   3.098   1.652  0.4634 -0.4348 -0.2402
17486TIP3    H273950   3.927   3.160   1.517  0.8170  2.4274  0.9188
17487TIP3   OH273951   2.570   3.431  17.043 -0.0692  0.2549 -0.3094
17487TIP3    H173952   2.617   3.348  17.037 -1.0087 -0.1813 -2.5606
17487TIP3    H273953   2.589   3.463  17.132 -0.8984 -3.0621  1.1986
17488TIP3   OH273954   6.115   5.703   1.704 -0.2166 -0.4601 -0.6865
17488TIP3    H173955   6.177   5.656   1.647  2.0915  1.6505 -0.0761
17488TIP3    H273956   6.059   5.752   1.643 -0.0164 -0.8710 -1.2139
17489TIP3   OH273957   0.233   5.559   4.040  0.9502  0.0823  0.9400
17489TIP3    H173958   0.165   5.605   4.091 -0.1585 -0.5565  0.0771
17489TIP3    H273959   0.193   5.475   4.018  1.2637  0.4549 -1.2441
17490TIP3   OH273960   3.030   0.484  15.276  0.2550  0.1979  0.4268
17490TIP3    H173961   3.055   0.429  15.201 -0.8015 -1.5668  1.2944
17490TIP3    H273962   3.109   0.488  15.329 -0.0203 -1.8552  1.1035
17491TIP3   OH273963   0.048   1.929   0.471 -0.4604  0.2013  0.1528
17491TIP3    H173964  -0.003   1.917   0.551 -1.1325  0.8941 -0.1562
17491TIP3    H273965   0.009   2.006   0.429  0.2575  0.1979 -0.5525
17492TIP3   OH273966   3.232   4.600  15.998 -0.1071 -0.0146 -0.2992
17492TIP3    H173967   3.200   4.521  16.041 -2.4741 -0.2970 -2.3290
17492TIP3    H273968   3.289   4.642  16.063  1.1214 -3.2476  0.9180
17493TIP3   OH273969   1.368   6.423  14.782  0.0763 -0.7767  0.6922
17493TIP3    H173970   1.420   6.424  14.862 -0.6992  1.4698  1.2339
17493TIP3    H273971   1.404   6.493  14.728 -1.3874 -0.1887  0.4380
17494TIP3   OH273972   2.665   6.655   0.608  0.1501  0.0156  1.0651
17494TIP3    H173973   2.737   6.596   0.630  0.3441 -0.4959 -0.8021
17494TIP3    H273974   2.639   6.630   0.519 -0.8210  1.6881  0.8322
17495TIP3   OH273975   2.297   0.631  12.722 -0.4498  0.1127  0.5173
17495TIP3    H173976   2.209   0.646  12.688 -0.5180  0.3299  0.7904
17495TIP3    H273977   2.335   0.718  12.732 -0.0911  0.0089  0.1168
17496TIP3   OH273978   4.107   6.229  15.886  0.0287 -0.1302  0.5646
17496TIP3    H173979   4.156   6.236  15.968  0.1543 -0.3743  0.5108
17496TIP3    H273980   4.148   6.293  15.827  0.3989 -0.4652  0.4607
17497TIP3   OH273981   2.757   2.615   2.296 -0.0901 -0.1554 -0.1239
17497TIP3    H173982   2.671   2.577   2.278 -0.3354  0.9634 -1.5079
17497TIP3    H273983   2.811   2.541   2.322 -1.6554 -0.7819  1.5939
17498TIP3   OH273984   4.525   5.006   4.114  0.2346 -0.6310 -0.4076
17498TIP3    H173985   4.525   4.918   4.153  1.5253 -1.2905 -1.8014
17498TIP3    H273986   4.570   5.060   4.179  2.1521 -1.6705 -0.7718
17499TIP3   OH273987   3.235   0.314  11.508 -0.0200  0.0127 -0.1123
17499TIP3    H173988   3.157   0.267  11.479  0.5355 -0.2850 -1.1548
17499TIP3    H273989   3.202   0.385  11.563 -1.0128 -0.1135 -0.5436
17500TIP3   OH273990   1.283   5.258  13.958  0.0750 -0.0306 -0.1581
17500TIP3    H173991   1.314   5.302  14.038  1.3711 -2.0221  0.4917
17500TIP3    H273992   1.340   5.291  13.889 -0.1318  0.6363 -0.0217
17501TIP3   OH273993   1.437   5.720  16.185  0.1427  0.4067 -0.4239
17501TIP3    H173994   1.458   5.807  16.149 -0.8091  1.1424  0.7544
17501TIP3    H273995   1.375   5.682  16.122  0.7132  0.4798 -1.0457
17502TIP3   OH273996   6.070   2.873  15.939 -0.3041 -0.2055  0.2007
17502TIP3    H173997   6.107   2.851  16.024 -0.7370 -1.0078  0.1895
17502TIP3    H273998   6.138   2.850  15.876  0.5107  1.5549  0.3910
17503TIP3   OH273999   4.206   3.228   5.464  0.1616 -0.2523  0.3744
17503TIP3    H174000   4.225   3.195   5.552 -1.5350  0.7688  1.1870
17503TIP3    H274001   4.115   3.255   5.468  0.9340  2.9398 -0.6727
17504TIP3   OH274002   0.705   5.200  13.376 -0.0221 -0.4666  0.2007
17504TIP3    H174003   0.612   5.186  13.389 -0.2094 -0.8300 -1.3171
17504TIP3    H274004   0.743   5.112  13.379  0.2020 -0.3639  0.3708
17505TIP3   OH274005   3.787   2.175  13.500  0.2073  0.1875  0.1369
17505TIP3    H174006   3.744   2.090  13.503  0.3528  0.1395  1.3442
17505TIP3    H274007   3.719   2.237  13.526  0.6642  0.1714  1.4915
17506TIP3   OH274008   5.058   2.105  11.618  0.7150 -0.5526  0.0511
17506TIP3    H174009   5.041   2.117  11.711  0.4302  0.5462 -0.1264
17506TIP3    H274010   5.096   2.188  11.590 -0.1146 -0.5078 -1.0111
17507TIP3   OH274011   6.795   2.163  11.574  0.3317  0.2559 -0.2057
17507TIP3    H174012   6.834   2.082  11.542  0.3804  0.5361 -0.8530
17507TIP3    H274013   6.834   2.233  11.522  2.0779  0.9738  1.8972
17508TIP3   OH274014   0.825   4.661   4.429 -0.1629 -0.2219  0.0219
17508TIP3    H174015   0.890   4.674   4.360 -1.4902 -0.3211 -1.2980
17508TIP3    H274016   0.864   4.701   4.507  0.1384  2.7404 -1.4953
17509TIP3   OH274017   1.850   2.443   2.891 -0.1947 -0.6357 -0.0058
17509TIP3    H174018   1.772   2.485   2.855 -0.2018  1.7151  2.4818
17509TIP3    H274019   1.836   2.443   2.985  1.3988 -3.2405  0.3250
17510TIP3   OH274020   1.415   0.976   3.263  0.1465  0.3122 -0.1738
17510TIP3    H174021   1.412   0.881   3.276  0.6114  0.1971 -0.8559
17510TIP3    H274022   1.405   1.013   3.351 -1.6131 -0.3218 -0.0766
17511TIP3   OH274023   5.261   5.682   5.738  0.5427  0.1278  0.1011
17511TIP3    H174024   5.210   5.717   5.811  1.5475  0.2985  0.7267
17511TIP3    H274025   5.300   5.602   5.772 -0.2809 -0.6613 -0.7645
17512TIP3   OH274026   2.218   3.143   2.879 -0.3001  0.0960 -0.9755
17512TIP3    H174027   2.286   3.090   2.921  1.1468  0.8830 -2.2608
17512TIP3    H274028   2.193   3.207   2.946 -0.1656 -0.5096 -0.3267
17513TIP3   OH274029   6.341   4.407   6.250  0.2166  0.2564 -0.2600
17513TIP3    H174030   6.400   4.391   6.177 -0.0481  0.5509 -0.5384
17513TIP3    H274031   6.264   4.448   6.211 -0.0343  0.1780  0.1468
17514TIP3   OH274032   4.860   4.841   6.256 -0.2054 -0.0561  0.3981
17514TIP3    H174033   4.875   4.918   6.202  0.1540 -0.2070  0.2857
17514TIP3    H274034   4.764   4.837   6.265 -0.2096  0.7665  0.9328
17515TIP3   OH274035   0.819   0.536  15.983  0.3228 -0.0102 -0.1042
17515TIP3    H174036   0.848   0.583  15.905  0.9062 -1.5617 -0.8678
17515TIP3    H274037   0.824   0.444  15.958 -1.7654 -0.4684  0.9830
17516TIP3   OH274038   5.727   3.363   3.031 -0.1009  0.2118 -0.1303
17516TIP3    H174039   5.673   3.290   3.061  1.0134 -0.6376 -0.1137
17516TIP3    H274040   5.693   3.384   2.944  0.1495 -0.9490 -0.5242
17517TIP3   OH274041   1.094   1.476   0.490  0.1991 -0.0272 -0.2397
17517TIP3    H174042   1.003   1.492   0.514  0.7678  0.7073  1.5415
17517TIP3    H274043   1.135   1.562   0.490  1.5992 -0.5946  2.1998
17518TIP3   OH274044   3.670   3.012   0.330 -0.4931  0.4013  0.1573
17518TIP3    H174045   3.707   3.092   0.291  0.2354 -0.8126 -1.8106
17518TIP3    H274046   3.575   3.022   0.321 -0.5059  1.7046  1.3966
17519TIP3   OH274047   5.359   0.127  12.256  0.1101  0.4443  0.5376
17519TIP3    H174048   5.417   0.103  12.184 -1.2390 -1.2417 -0.0484
17519TIP3    H274049   5.355   0.049  12.311 -0.5618  0.9966  1.2957
17520TIP3   OH274050   1.356   6.682   2.198  0.3003  0.2668  0.4571
17520TIP3    H174051   1.407   6.638   2.267 -0.7291 -1.2373  0.2978
17520TIP3    H274052   1.378   6.634   2.118  0.5783  1.2527 -0.0684
17521TIP3   OH274053   0.129   3.621  14.492  0.4149 -0.3159  0.5138
17521TIP3    H174054   0.055   3.560  14.485  0.8032 -0.7084 -0.2859
17521TIP3    H274055   0.090   3.702  14.524 -0.0573 -1.0822  2.0090
17522TIP3   OH274056   6.341   1.999   3.218 -0.3456 -0.0708  0.2621
17522TIP3    H174057   6.310   1.974   3.305  2.8920  0.3991  1.7019
17522TIP3    H274058   6.358   2.093   3.224 -0.6232  0.0934 -1.1108
17523TIP3   OH274059   4.043   0.331  14.204  0.3079  0.1516 -0.2314
17523TIP3    H174060   3.980   0.384  14.154  0.4559  0.6698  0.1235
17523TIP3    H274061   3.990   0.262  14.244 -0.2226  1.1774  0.9117
17524TIP3   OH274062   4.443   5.024  13.413  0.0743  0.6162  0.3770
17524TIP3    H174063   4.510   5.081  13.450  0.8332  1.0466 -1.5425
17524TIP3    H274064   4.487   4.979  13.340 -0.5206 -2.3369  1.6795
17525TIP3   OH274065   5.836   3.134   2.439  0.0435 -0.2015 -0.0830
17525TIP3    H174066   5.909   3.104   2.494  0.1584 -1.6228 -0.9684
17525TIP3    H274067   5.768   3.068   2.451 -0.8182  0.7000  0.1219
17526TIP3   OH274068   0.369   5.787   4.507  0.0629 -0.2877 -0.5454
17526TIP3    H174069   0.412   5.784   4.592  1.0454  0.8757 -0.9659
17526TIP3    H274070   0.339   5.877   4.499  0.3794 -0.2631 -1.6096
17527TIP3   OH274071   5.267   3.708   3.894  0.3339 -0.1604  0.5457
17527TIP3    H174072   5.222   3.783   3.932 -0.5389 -0.4061  0.0187
17527TIP3    H274073   5.218   3.631   3.925  1.3665 -0.5469  1.2866
17528TIP3   OH274074   1.640   4.536   3.537  0.5301 -0.0983 -0.5034
17528TIP3    H174075   1.706   4.468   3.552  0.3116 -0.8605 -2.6166
17528TIP3    H274076   1.690   4.614   3.513  0.7339  0.1936  0.7812
17529TIP3   OH274077   6.792   3.137   2.891  0.1389 -0.1858  0.2505
17529TIP3    H174078   6.777   3.208   2.954  0.4499 -1.2635  1.5818
17529TIP3    H274079   6.745   3.165   2.813 -1.3195  0.6475  1.3601
17530TIP3   OH274080   1.854   3.659   5.162 -0.1306 -0.0129 -0.4438
17530TIP3    H174081   1.859   3.732   5.224 -1.9313  1.4407 -1.8798
17530TIP3    H274082   1.944   3.628   5.154  0.6768  1.9261  0.3881
17531TIP3   OH274083   3.714   1.352  13.382 -0.1010 -0.3454 -0.0822
17531TIP3    H174084   3.779   1.338  13.451 -1.7182 -0.2953  1.5132
17531TIP3    H274085   3.695   1.264  13.349 -0.7931 -0.6054  0.9681
17532TIP3   OH274086   5.112   1.035   3.291  0.2744 -0.2821  0.0912
17532TIP3    H174087   5.043   0.982   3.251  1.8530 -1.4380 -1.2929
17532TIP3    H274088   5.070   1.119   3.311 -1.6715 -1.1733 -0.0159
17533TIP3   OH274089   6.610   0.938  11.349 -0.5529  0.5357  0.5837
17533TIP3    H174090   6.705   0.943  11.335 -0.3961 -1.2641  0.7306
17533TIP3    H274091   6.590   0.845  11.340 -2.1901  0.7836  1.3527
17534TIP3   OH274092   6.389   0.255   6.140  0.2532  0.4859 -0.1676
17534TIP3    H174093   6.316   0.212   6.096 -0.5983  0.8366  0.8595
17534TIP3    H274094   6.365   0.254   6.233  2.6127 -1.4612  0.5020
17535TIP3   OH274095   3.802   3.668  13.795 -0.0407 -0.5897 -0.3779
17535TIP3    H174096   3.769   3.634  13.879  0.1542 -0.9263 -0.4359
17535TIP3    H274097   3.877   3.722  13.819 -1.2538  1.0780 -0.1380
17536TIP3   OH274098   3.291   5.010  15.480  0.9112  0.5111 -0.4848
17536TIP3    H174099   3.294   5.050  15.393  1.4110 -1.6531 -1.5174
17536TIP3    H274100   3.200   4.985  15.492  0.7966  1.0217 -0.2757
17537TIP3   OH274101   4.147   0.448  12.298  0.6634 -0.1547 -0.5215
17537TIP3    H174102   4.103   0.522  12.340 -0.7160 -0.9218 -0.5618
17537TIP3    H274103   4.110   0.371  12.341  2.2612 -0.8412 -0.2921
17538TIP3   OH274104   5.529   1.558  11.017  0.0552 -0.5297 -0.0696
17538TIP3    H174105   5.523   1.654  11.022  0.2416 -0.4608 -0.9708
17538TIP3    H274106   5.447   1.526  11.055  0.0108 -0.0159  0.2771
17539TIP3   OH274107   6.379   1.580   3.002 -0.3555  0.2695 -0.1332
17539TIP3    H174108   6.317   1.534   3.059 -0.5002 -0.6450 -1.0187
17539TIP3    H274109   6.465   1.544   3.026 -0.2401  0.9678  0.5402
17540TIP3   OH274110   1.228   1.949   6.485 -0.5279  0.0227  0.0932
17540TIP3    H174111   1.179   1.872   6.516 -0.6971 -0.6601 -1.7562
17540TIP3    H274112   1.161   2.015   6.470 -0.5656 -0.0067  0.1289
17541TIP3   OH274113   5.049   3.134   2.700  0.1214 -0.3370 -0.3279
17541TIP3    H174114   5.049   3.091   2.786  3.3817 -1.6522 -0.8419
17541TIP3    H274115   5.010   3.069   2.641  0.3941 -0.5565 -0.2694
17542TIP3   OH274116   0.296   6.533  11.008  0.3221  0.6369  0.6700
17542TIP3    H174117   0.213   6.550  10.964  0.4384  0.5353  0.4088
17542TIP3    H274118   0.350   6.490  10.942  0.9503  1.6423  0.5006
17543TIP3   OH274119   1.287   6.652   0.570  0.1166 -0.3655  0.3727
17543TIP3    H174120   1.340   6.721   0.612 -2.0988  0.5458  1.8737
17543TIP3    H274121   1.335   6.632   0.489  0.1570  4.1085 -1.0390
17544TIP3   OH274122   5.321   4.901  13.361 -0.1565 -0.5319  0.1801
17544TIP3    H174123   5.342   4.970  13.297 -0.5236 -0.1602  0.4534
17544TIP3    H274124   5.401   4.890  13.411  0.3007 -1.1798 -0.6550
17545TIP3   OH274125   6.767   0.004   0.897  0.0894 -0.2273  0.1600
17545TIP3    H174126   6.818  -0.068   0.860 -0.1962 -0.1140 -0.4722
17545TIP3    H274127   6.815   0.031   0.975  0.0807 -1.2445  0.5231
17546TIP3   OH274128   3.160   5.867  16.064  0.4536 -0.0742 -0.0320
17546TIP3    H174129   3.233   5.857  16.003 -0.0695 -0.1960 -0.6467
17546TIP3    H274130   3.092   5.910  16.013  0.4791  1.0786  0.8468
17547TIP3   OH274131   2.262   5.731  13.542 -0.1509 -0.3788  0.5382
17547TIP3    H174132   2.324   5.659  13.526  0.5181 -0.2173  2.1092
17547TIP3    H274133   2.316   5.799  13.583 -0.8336  0.9263 -0.6492
17548TIP3   OH274134   3.503   0.302   4.763  0.1602  0.0871  0.5339
17548TIP3    H174135   3.414   0.336   4.774 -0.1526 -0.8524  1.0622
17548TIP3    H274136   3.560   0.375   4.785 -0.4808  0.8057 -0.1624
17549TIP3   OH274137   3.792   4.031  12.680  0.3040 -0.1892  0.0901
17549TIP3    H174138   3.807   4.124  12.696  0.9579 -0.1852 -0.5155
17549TIP3    H274139   3.732   4.004  12.750  0.9812  0.4232  0.9238
17550TIP3   OH274140   3.386   6.528   0.936  0.2992 -0.2271 -0.0007
17550TIP3    H174141   3.424   6.609   0.971  1.7030 -0.6942 -0.3831
17550TIP3    H274142   3.409   6.461   1.000 -2.3580 -0.1241  1.2405
17551TIP3   OH274143   2.021   5.395   2.803 -0.2599 -0.1384 -0.0734
17551TIP3    H174144   2.048   5.381   2.712 -3.1847  3.0633 -1.7306
17551TIP3    H274145   2.027   5.309   2.844  1.4323 -1.6958 -3.1943
17552TIP3   OH274146   1.969   1.831   3.479 -0.6282 -0.1750 -0.4448
17552TIP3    H174147   1.969   1.806   3.571  0.3091  0.1812 -0.3415
17552TIP3    H274148   1.881   1.867   3.463 -0.8034 -0.2751  0.2857
17553TIP3   OH274149   0.045   4.831  13.881 -0.2532  0.0713 -0.0622
17553TIP3    H174150   0.018   4.769  13.812 -1.3863  0.0138  0.4070
17553TIP3    H274151   0.006   4.914  13.855 -0.0702  0.2209  0.1382
17554TIP3   OH274152   1.433   5.068  13.247  0.4654 -0.3196  0.1338
17554TIP3    H174153   1.343   5.070  13.280  0.5746 -1.6540  0.5632
17554TIP3    H274154   1.472   4.990  13.286  1.8049  0.2019 -0.0902
17555TIP3   OH274155   3.282   2.521  13.355 -0.0561 -0.0458  0.2995
17555TIP3    H174156   3.285   2.442  13.300 -0.6873  0.7200 -0.8959
17555TIP3    H274157   3.368   2.526  13.395 -0.0288 -1.3743  0.4550
17556TIP3   OH274158   3.142   3.702   0.493 -0.4363  0.2442  0.1604
17556TIP3    H174159   3.065   3.752   0.467 -0.2504 -0.0802 -1.1218
17556TIP3    H274160   3.131   3.686   0.586 -1.5130  0.8957  0.1603
17557TIP3   OH274161   3.837   3.993   3.893  0.6563  0.1703  0.2726
17557TIP3    H174162   3.838   4.049   3.971 -0.3981 -1.3527  1.4348
17557TIP3    H274163   3.889   3.916   3.919  1.1097  0.0667 -0.8855
17558TIP3   OH274164   4.945   4.193  11.228  0.3903 -0.3284 -0.5363
17558TIP3    H174165   5.026   4.145  11.244  0.1462 -1.6162 -2.6906
17558TIP3    H274166   4.900   4.194  11.312  0.6846 -3.4115 -0.2471
17559TIP3   OH274167   0.583   1.935   1.899 -0.2768  0.4354  0.1989
17559TIP3    H174168   0.633   1.871   1.849 -1.0486 -0.4335  0.5287
17559TIP3    H274169   0.630   1.941   1.982 -0.7916 -0.5002  0.5700
17560TIP3   OH274170   2.666   0.559  11.967  0.6426 -0.4222 -0.6475
17560TIP3    H174171   2.630   0.590  12.050  0.6973  0.7883 -1.0468
17560TIP3    H274172   2.677   0.465  11.978 -2.3488 -0.8181 -0.3912
17561TIP3   OH274173   1.767   5.585  11.750 -0.1425 -0.0431 -0.1906
17561TIP3    H174174   1.736   5.661  11.798 -2.6712 -1.6507  0.9621
17561TIP3    H274175   1.805   5.620  11.670 -1.5811  2.4093  0.1031
17562TIP3   OH274176   5.032   4.694  10.922  0.5624 -0.8239  0.2634
17562TIP3    H174177   5.083   4.686  11.003  0.2832  0.2650  0.5615
17562TIP3    H274178   4.998   4.606  10.907  1.2299 -1.2083  0.9249
17563TIP3   OH274179   5.314   2.627   3.476  0.3522 -0.2089 -0.0550
17563TIP3    H174180   5.271   2.555   3.523  1.0340 -0.5696  0.0222
17563TIP3    H274181   5.277   2.706   3.515 -0.9144 -0.4984 -0.6021
17564TIP3   OH274182   3.741   4.183   2.928  0.3108  0.3133  0.1256
17564TIP3    H174183   3.751   4.173   2.833 -1.6165  0.9868 -0.2051
17564TIP3    H274184   3.665   4.129   2.949 -0.8445  2.1245  0.8255
17565TIP3   OH274185   5.506   5.163  14.563 -0.1182 -0.2005  0.4558
17565TIP3    H174186   5.470   5.244  14.598  2.1301  1.0990 -0.0659
17565TIP3    H274187   5.480   5.162  14.471 -1.6867 -1.0610  0.8572
17566TIP3   OH274188   4.595   1.333  15.970 -0.1389  0.3723 -0.1054
17566TIP3    H174189   4.642   1.291  16.043  0.0963  2.1685  0.8234
17566TIP3    H274190   4.522   1.379  16.012 -1.7701 -0.9460 -1.3411
17567TIP3   OH274191   0.073   1.905   3.169 -0.1332 -0.1473  0.2501
17567TIP3    H174192   0.122   1.858   3.237  0.4986 -0.0051 -0.1086
17567TIP3    H274193   0.005   1.952   3.218  0.0581 -0.3713  0.7420
17568TIP3   OH274194   5.623   3.462   5.049  0.4656 -0.0472 -0.6725
17568TIP3    H174195   5.546   3.489   5.099 -0.0623 -0.5173 -1.2182
17568TIP3    H274196   5.688   3.442   5.116 -0.0263 -0.0560 -0.1849
17569TIP3   OH274197   0.136   5.908   4.845  0.1408 -0.2665 -0.5344
17569TIP3    H174198   0.065   5.972   4.840 -1.5524 -2.0970 -2.0798
17569TIP3    H274199   0.098   5.828   4.808  2.0472 -2.2493  1.4825
17570TIP3   OH274200   3.840   1.091  15.950  0.4340 -0.0200  0.0501
17570TIP3    H174201   3.780   1.046  16.010  0.9917 -1.9240 -0.7385
17570TIP3    H274202   3.792   1.169  15.923 -1.5734 -1.2882 -0.2775
17571TIP3   OH274203   5.185   5.526   0.965  0.1559 -0.0771 -0.3323
17571TIP3    H174204   5.254   5.584   0.932 -0.3886 -0.4166 -2.1687
17571TIP3    H274205   5.110   5.542   0.908 -1.6388  0.9080  2.1289
17572TIP3   OH274206   2.398   0.203  14.511 -0.2742 -0.2004 -0.1862
17572TIP3    H174207   2.387   0.203  14.415  0.8883 -2.1950 -0.3726
17572TIP3    H274208   2.314   0.171  14.544  0.6326 -3.6582 -0.8673
17573TIP3   OH274209   5.472   4.656   1.415 -0.3538 -0.2124  0.0964
17573TIP3    H174210   5.496   4.748   1.398 -1.3923  0.1349  0.4475
17573TIP3    H274211   5.555   4.614   1.439 -0.0161  0.8460  0.8658
17574TIP3   OH274212   5.070   0.119  15.699  0.6027 -0.6992 -0.3211
17574TIP3    H174213   5.073   0.032  15.739  0.8316 -0.9213 -0.8148
17574TIP3    H274214   5.117   0.109  15.616 -2.3841 -1.0025 -2.1055
17575TIP3   OH274215   0.544   0.422   2.805 -0.4140 -0.1370  0.6285
17575TIP3    H174216   0.544   0.481   2.729 -1.6361  0.0085  0.7246
17575TIP3    H274217   0.452   0.400   2.818  0.0574 -2.7137  0.1044
17576TIP3   OH274218   3.338   6.769   2.790  0.5199 -0.6268  0.1323
17576TIP3    H174219   3.249   6.801   2.774  0.0109 -0.6539  2.5202
17576TIP3    H274220   3.391   6.811   2.722 -1.2063 -0.1420 -0.9809
17577TIP3   OH274221   1.808   6.138  12.652 -0.1023  0.3241 -0.2460
17577TIP3    H174222   1.846   6.173  12.571 -0.3586  0.5999 -0.2543
17577TIP3    H274223   1.723   6.103  12.625 -0.5309  1.1148  0.0261
17578TIP3   OH274224   3.709   0.238   5.713  0.1035 -0.2335  0.6002
17578TIP3    H174225   3.696   0.148   5.744 -2.1660 -0.2546 -0.2267
17578TIP3    H274226   3.798   0.260   5.740 -0.1638 -1.8009  3.1583
17579TIP3   OH274227   5.254   5.750   2.130  0.3233 -0.1410 -0.1036
17579TIP3    H174228   5.162   5.739   2.104  0.1656  1.4790 -0.2995
17579TIP3    H274229   5.254   5.826   2.187  1.4943 -0.3850  0.2357
17580TIP3   OH274230   2.208   0.351  16.625 -0.1120 -0.2824 -0.2447
17580TIP3    H174231   2.194   0.363  16.531 -1.1799  1.0276  0.0510
17580TIP3    H274232   2.188   0.259  16.640 -1.5492 -0.1441 -1.0684
17581TIP3   OH274233   4.695   2.504   0.796 -0.4421  0.4481 -0.1210
17581TIP3    H174234   4.672   2.596   0.806 -0.1540  0.3773  1.3856
17581TIP3    H274235   4.706   2.493   0.701  1.1478  2.3611 -0.2286
17582TIP3   OH274236   5.826   0.573  16.409  0.3999 -0.3345  0.3289
17582TIP3    H174237   5.848   0.645  16.350 -2.0620  0.1498 -0.1171
17582TIP3    H274238   5.842   0.494  16.358  1.1021 -0.0248  0.0661
17583TIP3   OH274239   0.980   1.484   4.184  0.9029 -0.1433  0.0641
17583TIP3    H174240   1.053   1.423   4.189 -0.7643 -2.1779  0.8075
17583TIP3    H274241   1.007   1.557   4.240  1.3375 -2.0444  2.5081
17584TIP3   OH274242   4.388   3.971  12.293  0.7199 -0.2085  0.2028
17584TIP3    H174243   4.342   4.052  12.271  0.0749 -0.1043  1.8259
17584TIP3    H274244   4.397   3.925  12.209 -3.3414 -0.7405 -0.1400
17585TIP3   OH274245   5.237   6.166   1.886 -0.8343  0.6660 -0.4365
17585TIP3    H174246   5.280   6.248   1.862 -2.1310  1.5122  0.0437
17585TIP3    H274247   5.287   6.134   1.961  0.1599  0.6028 -1.1126
17586TIP3   OH274248   1.154   1.963  12.421 -0.1123 -0.0579  0.2452
17586TIP3    H174249   1.247   1.979  12.406 -0.0321 -1.3392 -0.8075
17586TIP3    H274250   1.115   2.050  12.427  0.7918  0.5322 -1.8131
17587TIP3   OH274251   2.561   5.442   0.175 -0.0929  0.0405  0.4121
17587TIP3    H174252   2.636   5.501   0.168 -0.5331  0.5711  0.0783
17587TIP3    H274253   2.599   5.358   0.202  0.6935  0.1432 -0.3199
17588TIP3   OH274254   5.301   0.953   4.771 -0.3907 -0.5121 -0.4088
17588TIP3    H174255   5.365   0.901   4.820  0.8159 -0.3718 -1.7934
17588TIP3    H274256   5.315   0.930   4.680  0.9565  2.9680 -1.2490
17589TIP3   OH274257   4.180   6.165  11.747 -0.6373  0.1979  0.0702
17589TIP3    H174258   4.212   6.083  11.710  1.2900  1.6220 -1.6545
17589TIP3    H274259   4.085   6.152  11.757 -0.5261 -1.8645 -1.0383
17590TIP3   OH274260   3.074   4.165   5.506 -0.3535  0.0170 -0.0074
17590TIP3    H174261   3.106   4.208   5.427  1.1058 -1.0954 -0.0635
17590TIP3    H274262   3.100   4.073   5.496 -0.5954 -0.2459  1.5224
17591TIP3   OH274263   4.427   3.057  14.216  0.0358  0.3428  0.0499
17591TIP3    H174264   4.503   2.999  14.206 -0.5019 -0.8162  2.1345
17591TIP3    H274265   4.464   3.138  14.251  0.2531 -0.6527  2.3040
17592TIP3   OH274266   2.184   4.933   5.611 -0.1917 -0.1684  0.4601
17592TIP3    H174267   2.213   4.898   5.527 -0.9708  0.3407 -0.0412
17592TIP3    H274268   2.259   4.922   5.669  1.2119  1.5368 -0.9032
17593TIP3   OH274269   1.401   6.498  16.282  0.1966 -0.0897  0.5342
17593TIP3    H174270   1.444   6.412  16.290  2.2162  0.8461  0.3547
17593TIP3    H274271   1.321   6.489  16.334 -0.3187 -2.4686 -0.5199
17594TIP3   OH274272   2.612   4.456   1.348  0.6510  0.8038  0.0530
17594TIP3    H174273   2.596   4.542   1.387 -1.9962  0.1880  0.5023
17594TIP3    H274274   2.608   4.395   1.421 -3.8262 -0.2998 -0.8413
17595TIP3   OH274275   0.431   6.466  16.256 -0.1683 -0.4360 -0.0679
17595TIP3    H174276   0.451   6.519  16.333 -1.7623  0.5939 -0.3094
17595TIP3    H274277   0.493   6.393  16.260 -0.2280 -0.4271  2.1761
17596TIP3   OH274278   0.342   2.253   3.144  0.0921 -0.7437 -0.6258
17596TIP3    H174279   0.306   2.323   3.197  3.0669  0.4858 -0.0624
17596TIP3    H274280   0.289   2.253   3.064 -1.6338  0.3189  0.4733
17597TIP3   OH274281   3.741   1.606  11.473  0.0075 -0.4766 -0.4262
17597TIP3    H174282   3.650   1.582  11.493 -0.5456  1.3463 -0.6134
17597TIP3    H274283   3.734   1.685  11.420  1.7451  0.6277  0.8989
17598TIP3   OH274284   5.361   1.340   3.430 -0.3137  0.0910 -0.3513
17598TIP3    H174285   5.280   1.298   3.459  0.4612 -0.5148  1.0129
17598TIP3    H274286   5.389   1.287   3.355 -1.0436  0.1665 -0.6906
17599TIP3   OH274287   4.557   4.831   2.004 -0.3699 -0.2979 -0.3108
17599TIP3    H174288   4.519   4.918   2.012 -1.5381 -0.8454  0.4295
17599TIP3    H274289   4.629   4.841   1.942  1.6855  1.8986  2.1979
17600TIP3   OH274290   5.286   6.423   3.525  0.0712  0.2145  0.7964
17600TIP3    H174291   5.299   6.509   3.486  0.3790 -0.3831 -0.4762
17600TIP3    H274292   5.337   6.363   3.470  0.5571 -0.6761  2.1546
17601TIP3   OH274293   0.093   2.164  16.636  0.0800 -0.0122  0.2925
17601TIP3    H174294   0.049   2.126  16.561  0.3427 -0.8805  0.5644
17601TIP3    H274295   0.085   2.098  16.705 -1.7636  1.5141  1.6254
17602TIP3   OH274296   4.057   2.620   2.921  0.1883 -0.1262  0.2990
17602TIP3    H174297   3.983   2.658   2.967 -0.3184 -2.3609  1.4248
17602TIP3    H274298   4.091   2.692   2.867 -2.0909  1.2491  0.5845
17603TIP3   OH274299   1.189   0.301   3.955 -0.4712 -0.1786  0.7863
17603TIP3    H174300   1.136   0.255   4.020 -0.1529  1.3390  2.1728
17603TIP3    H274301   1.234   0.369   4.004  0.1189  0.7622 -0.9651
17604TIP3   OH274302   3.522   4.826   3.743 -0.3708  0.4033  0.3774
17604TIP3    H174303   3.602   4.875   3.760 -1.5257  1.8658  1.9906
17604TIP3    H274304   3.516   4.822   3.648  0.5874  2.0396  0.2124
17605TIP3   OH274305   4.243   5.449  14.045  0.4474  0.4399 -0.5006
17605TIP3    H174306   4.277   5.419  13.961  0.4405 -1.2956  0.0844
17605TIP3    H274307   4.319   5.485  14.091  0.9179 -0.7044 -0.3671
17606TIP3   OH274308   0.469   6.584  16.524 -0.2003  0.4638 -0.4984
17606TIP3    H174309   0.376   6.610  16.527  0.0112  1.3366 -1.0552
17606TIP3    H274310   0.507   6.621  16.603  0.0992  1.9115 -1.2871
17607TIP3   OH274311   1.004   4.924  16.466  0.3543 -0.1086  0.3683
17607TIP3    H174312   1.022   4.851  16.407 -0.9290  0.3634 -0.6446
17607TIP3    H274313   0.965   4.991  16.410 -0.0930  0.6918  1.5981
17608TIP3   OH274314   1.909   3.706  15.132 -0.5349  0.2351  0.0374
17608TIP3    H174315   1.891   3.762  15.057  1.0969  2.8869  1.4587
17608TIP3    H274316   1.823   3.679  15.164 -1.2889  0.1531 -1.9548
17609TIP3   OH274317   1.743   0.855  12.620 -0.2500 -0.4620  0.1978
17609TIP3    H174318   1.732   0.780  12.561 -0.6991 -1.6516  1.7259
17609TIP3    H274319   1.811   0.908  12.578 -0.3588 -1.3955 -1.2440
17610TIP3   OH274320   4.678   0.066  11.759 -0.5078 -0.0570 -0.8268
17610TIP3    H174321   4.635  -0.019  11.768  1.1041 -0.8247 -0.0514
17610TIP3    H274322   4.728   0.060  11.678 -0.6925  0.3100 -0.9735
17611TIP3   OH274323   3.465   2.569   3.610 -0.1969  0.2106  0.1425
17611TIP3    H174324   3.499   2.608   3.529  0.8562  1.6792  1.2501
17611TIP3    H274325   3.386   2.620   3.630 -1.0819 -0.8565 -0.4942
17612TIP3   OH274326   6.745   5.795  15.025 -0.2443 -0.4827 -0.4935
17612TIP3    H174327   6.652   5.806  15.044  0.1108 -1.2658  2.0783
17612TIP3    H274328   6.778   5.741  15.096  2.0113 -1.0750 -1.8771
17613TIP3   OH274329   3.910   0.152  14.490  0.1615 -0.2785 -0.0893
17613TIP3    H174330   3.961   0.113  14.561  1.7380 -0.8681 -1.4774
17613TIP3    H274331   3.890   0.078  14.432 -0.1551  0.3682 -0.8246
17614TIP3   OH274332   4.519   1.042  16.416  0.4047  0.4974  0.2554
17614TIP3    H174333   4.534   0.982  16.343  2.6347  0.8715  0.3320
17614TIP3    H274334   4.514   0.985  16.493 -1.4339  0.1418 -0.1003
17615TIP3   OH274335   1.517   1.577   2.271 -0.0402  0.2967  0.4018
17615TIP3    H174336   1.548   1.667   2.261  1.3896 -0.3248 -1.5753
17615TIP3    H274337   1.447   1.582   2.336  0.1330  2.7851  0.4873
17616TIP3   OH274338   6.162   3.044   3.843  0.0336 -0.4643  0.2049
17616TIP3    H174339   6.138   2.964   3.797  2.2341  0.4094 -2.7457
17616TIP3    H274340   6.253   3.032   3.867 -0.4787 -0.0283  2.6173
17617TIP3   OH274341   2.899   2.385   0.415 -0.3543 -0.3372  0.0955
17617TIP3    H174342   2.898   2.480   0.424  1.1914 -0.2342 -0.6274
17617TIP3    H274343   2.980   2.365   0.370 -0.5677 -2.0300  0.3744
17618TIP3   OH274344   6.187   6.361   5.108 -0.0030 -0.1680  0.5584
17618TIP3    H174345   6.123   6.335   5.042  0.1409  0.5733  0.1184
17618TIP3    H274346   6.173   6.455   5.119  0.4999 -0.1406  1.0202
17619TIP3   OH274347   5.422   1.057  13.237  0.7174 -0.1877 -0.3886
17619TIP3    H174348   5.373   1.115  13.295  0.1749  0.4142 -1.4334
17619TIP3    H274349   5.443   1.111  13.161  1.2977 -1.0086 -0.8267
17620TIP3   OH274350   2.811   2.346   3.794 -0.2354 -0.4307 -0.3687
17620TIP3    H174351   2.872   2.385   3.857  0.2797 -2.1255  0.2431
17620TIP3    H274352   2.867   2.299   3.732 -0.6119  2.4069 -3.0920
17621TIP3   OH274353   6.563   0.558  15.043  0.3209  0.2267 -0.1588
17621TIP3    H174354   6.488   0.590  15.094 -0.1786 -1.0709 -0.0110
17621TIP3    H274355   6.544   0.585  14.953  0.1899  0.7965  0.0366
17622TIP3   OH274356   4.815   3.185  10.290 -0.5073 -0.6598 -0.5633
17622TIP3    H174357   4.765   3.177  10.372 -0.6957  1.6209 -0.3807
17622TIP3    H274358   4.764   3.136  10.226 -1.2922 -1.0058  0.3011
17623TIP3   OH274359   2.425   5.648   5.173 -0.1229  0.4640  0.1812
17623TIP3    H174360   2.505   5.616   5.131  0.4121  0.6138  1.0475
17623TIP3    H274361   2.417   5.739   5.142  0.0348  0.4437  0.0788
17624TIP3   OH274362   5.356   6.428  12.635 -0.0876 -0.1184  0.8088
17624TIP3    H174363   5.388   6.494  12.696 -0.3690  0.3723  0.4329
17624TIP3    H274364   5.278   6.467  12.596 -1.0267 -1.1865  1.5397
17625TIP3   OH274365   0.227   0.561  11.172  0.4944 -0.4217 -0.6799
17625TIP3    H174366   0.215   0.655  11.160 -1.1260 -0.8055 -2.7615
17625TIP3    H274367   0.248   0.550  11.265  0.8829  1.9738 -0.4310
17626TIP3   OH274368   5.758   5.169   0.926 -0.0273  0.3147 -0.3691
17626TIP3    H174369   5.767   5.100   0.861  0.4095 -0.7367  0.7546
17626TIP3    H274370   5.841   5.217   0.922  0.6983 -0.8167  0.5574
17627TIP3   OH274371   5.866   2.396  14.919  0.3247  0.0286  0.0684
17627TIP3    H174372   5.860   2.463  14.986  1.2422  0.0999  0.0929
17627TIP3    H274373   5.777   2.388  14.884 -0.1021  0.1658  1.1102
17628TIP3   OH274374   2.774   3.468   3.140  0.5025 -0.3377 -0.0864
17628TIP3    H174375   2.849   3.491   3.195  0.9788 -1.6836 -0.1421
17628TIP3    H274376   2.809   3.408   3.074 -0.0094  1.3878 -2.0259
17629TIP3   OH274377   0.433   4.233   0.499  0.8493 -0.2935  0.2699
17629TIP3    H174378   0.470   4.272   0.420  2.0946 -1.0044  0.4806
17629TIP3    H274379   0.504   4.180   0.535  0.5515  0.5633  2.2463
17630TIP3   OH274380   1.484   6.692   5.183  0.4976 -0.3721 -0.7534
17630TIP3    H174381   1.517   6.661   5.098 -1.1632 -1.6398 -0.9762
17630TIP3    H274382   1.511   6.625   5.245  1.3066  0.3259 -0.3282
17631TIP3   OH274383   4.604   2.935   4.309 -0.2595 -0.3813 -0.0920
17631TIP3    H174384   4.633   2.850   4.341  0.2769 -0.5144 -0.8951
17631TIP3    H274385   4.546   2.969   4.378  0.5477 -0.8190  0.8239
17632TIP3   OH274386   3.641   2.097   2.609  0.2623  0.6731 -0.0744
17632TIP3    H174387   3.704   2.104   2.681  0.4077 -1.3356  0.0740
17632TIP3    H274388   3.677   2.151   2.539  1.1190  1.1244  0.6885
17633TIP3   OH274389   4.880   3.313  14.817 -0.5647  0.2310  0.1541
17633TIP3    H174390   4.927   3.352  14.742 -1.6443  1.7048  0.1950
17633TIP3    H274391   4.836   3.387  14.858  0.0334 -0.5463  2.3154
17634TIP3   OH274392   6.602   0.428  11.415 -0.5506 -0.3047 -0.2560
17634TIP3    H174393   6.558   0.406  11.332 -1.4337 -0.7704  0.3138
17634TIP3    H274394   6.543   0.490  11.458  0.0795  0.2165 -0.1365
17635TIP3   OH274395   4.872   2.004  12.545  0.3987 -0.5393  0.1870
17635TIP3    H174396   4.852   2.090  12.583 -1.0159 -1.1858  1.0105
17635TIP3    H274397   4.789   1.956  12.551  1.2644 -2.1023  0.1445
17636TIP3   OH274398   5.187   1.244   1.691  0.2820  0.1181  0.2252
17636TIP3    H174399   5.192   1.206   1.603  1.0195  0.1785  0.2300
17636TIP3    H274400   5.160   1.172   1.747  1.8275 -0.4790  0.2611
17637TIP3   OH274401   5.703   4.882  13.149 -0.1307  0.5523  0.4134
17637TIP3    H174402   5.742   4.829  13.218  0.3666  1.7558  1.0803
17637TIP3    H274403   5.648   4.820  13.100  3.9964 -1.8097 -1.8459
17638TIP3   OH274404   4.345   5.787   1.060 -0.3410 -0.0020  0.0503
17638TIP3    H174405   4.413   5.762   1.123  1.2075 -1.9440 -2.2489
17638TIP3    H274406   4.268   5.739   1.089  0.0162 -0.0002  1.0738
17639TIP3   OH274407   1.188   3.809   6.066  0.2395  0.2781  0.4940
17639TIP3    H174408   1.188   3.889   6.119  0.4279  0.7608 -0.2171
17639TIP3    H274409   1.107   3.764   6.092  0.2230  0.5998  1.0406
17640TIP3   OH274410   6.260   1.178   3.537 -1.0422 -0.0395 -0.1964
17640TIP3    H174411   6.184   1.168   3.594 -0.6003  0.5776  0.5211
17640TIP3    H274412   6.301   1.260   3.566  0.1983 -0.6374 -0.1866
17641TIP3   OH274413   3.765   2.181  11.869 -0.3082 -0.2695  0.2048
17641TIP3    H174414   3.715   2.114  11.823  2.3697 -2.6736  0.5035
17641TIP3    H274415   3.767   2.151  11.960 -0.2891  1.0517  0.6701
17642TIP3   OH274416   3.909   3.687   3.226 -0.2307 -0.1631  0.1787
17642TIP3    H174417   3.969   3.613   3.239 -0.5252 -0.4798 -0.2430
17642TIP3    H274418   3.842   3.653   3.167  0.1383  0.7151 -0.7658
17643TIP3   OH274419   0.393   1.950  12.593 -0.3949 -0.2237 -0.1383
17643TIP3    H174420   0.371   1.866  12.553  0.7691 -1.3635  1.4803
17643TIP3    H274421   0.487   1.959  12.579 -0.2667  0.1375  0.8695
17644TIP3   OH274422   1.762   5.845  13.377  0.1918 -0.2030 -0.6598
17644TIP3    H174423   1.711   5.764  13.380  0.3761 -0.3648 -1.6512
17644TIP3    H274424   1.851   5.817  13.357  0.4970  0.1586  0.1355
17645TIP3   OH274425   4.430   1.635  16.335  0.0893  0.0301  0.2184
17645TIP3    H174426   4.363   1.701  16.351 -0.4967 -0.6622  0.7068
17645TIP3    H274427   4.389   1.553  16.362  1.2456 -0.3698  0.8306
17646TIP3   OH274428   0.571   5.869   0.132  0.5366  0.6442 -0.1946
17646TIP3    H174429   0.607   5.894   0.217  2.8639 -1.4258 -0.4510
17646TIP3    H274430   0.647   5.858   0.076 -0.7558 -0.6976 -1.7911
17647TIP3   OH274431   3.832   2.918   5.200  0.0213  0.3105 -0.4217
17647TIP3    H174432   3.905   2.969   5.235  0.3915  0.8040 -1.8204
17647TIP3    H274433   3.767   2.984   5.174  0.1797  0.0533 -1.5388
17648TIP3   OH274434   6.416   4.568   1.725  0.2116  0.6412 -0.2689
17648TIP3    H174435   6.328   4.595   1.699 -0.1670 -2.3229 -2.6627
17648TIP3    H274436   6.473   4.597   1.654  0.1892 -2.1307 -1.5572
17649TIP3   OH274437   6.156   6.467   1.200 -0.0466  0.0460 -0.2904
17649TIP3    H174438   6.215   6.397   1.229 -0.8179 -1.0095 -1.1588
17649TIP3    H274439   6.132   6.513   1.280  0.2895 -0.8537  0.3456
17650TIP3   OH274440   2.926   6.474  13.859  0.2329 -0.0691 -0.0194
17650TIP3    H174441   2.971   6.494  13.777  2.1465  1.2596  1.2644
17650TIP3    H274442   2.996   6.454  13.921 -1.2346 -2.5109  0.9802
17651TIP3   OH274443   5.737   5.939   0.919 -0.1950  0.7400  0.6232
17651TIP3    H174444   5.800   5.974   0.982 -0.2648 -0.8623  1.6496
17651TIP3    H274445   5.732   5.846   0.940 -1.7820  0.5558 -0.4206
17652TIP3   OH274446   1.722   0.322   2.195 -0.3171 -0.2402 -0.6749
17652TIP3    H174447   1.796   0.332   2.255  0.3524  1.3494 -1.7041
17652TIP3    H274448   1.647   0.310   2.252  0.6021 -1.0114  0.4198
17653TIP3   OH274449   4.112   5.476   3.568 -0.4301 -0.2888  0.4735
17653TIP3    H174450   4.155   5.551   3.608 -0.9032 -0.3251  1.0703
17653TIP3    H274451   4.025   5.508   3.545 -0.7813 -0.7669  1.1159
17654TIP3   OH274452   2.374   6.484  14.965  0.5245 -0.0174 -0.3085
17654TIP3    H174453   2.281   6.463  14.971  1.0900 -2.7979  0.7180
17654TIP3    H274454   2.402   6.449  14.880  0.6923  0.5739 -0.5021
17655TIP3   OH274455   2.020   4.485   0.904 -0.4695  0.0398  0.6294
17655TIP3    H174456   2.060   4.540   0.971 -0.9148  2.7013 -1.1231
17655TIP3    H274457   1.929   4.474   0.933 -0.1912 -0.4179  1.3484
17656TIP3   OH274458   2.101   0.124   1.642 -0.9888 -0.3123 -0.1015
17656TIP3    H174459   2.143   0.202   1.678 -0.7103 -0.7225  0.4673
17656TIP3    H274460   2.009   0.132   1.669 -0.4735 -1.4479  2.1955
17657TIP3   OH274461   3.352   5.460   0.304 -0.5826  0.4165 -0.3251
17657TIP3    H174462   3.307   5.497   0.228 -0.4888 -0.7237 -0.9467
17657TIP3    H274463   3.308   5.500   0.379 -1.8001  0.2764 -0.9460
17658TIP3   OH274464   3.102   2.704   4.355  0.1605 -0.4236 -0.0775
17658TIP3    H174465   3.161   2.633   4.380  0.3326 -0.7228 -1.2990
17658TIP3    H274466   3.015   2.665   4.355  0.0772 -0.2654  0.6041
17659TIP3   OH274467   6.774   0.534  15.219 -0.3271  0.4632 -0.4417
17659TIP3    H174468   6.856   0.508  15.179 -0.3293 -0.2699  0.0070
17659TIP3    H274469   6.713   0.544  15.146 -0.2777 -0.6493 -0.6514
17660TIP3   OH274470   6.334   0.227  15.927  0.0348 -0.3106  0.3351
17660TIP3    H174471   6.249   0.247  15.965  0.4258  2.3005 -0.0042
17660TIP3    H274472   6.328   0.256  15.836  1.4278  0.3769  0.4375
17661TIP3   OH274473   1.638   5.538  16.057 -0.7677 -0.1350  0.0830
17661TIP3    H174474   1.636   5.520  16.151  0.0180 -1.5474 -0.1423
17661TIP3    H274475   1.559   5.589  16.041 -0.3083  1.1656  1.6971
17662TIP3   OH274476   1.499   1.838   2.096  0.3491  0.2709 -0.3067
17662TIP3    H174477   1.432   1.854   2.163  0.6091  1.2314 -0.2639
17662TIP3    H274478   1.548   1.920   2.091 -1.2367  1.1681 -3.4859
17663TIP3   OH274479   0.223   5.988   1.914 -0.2457  0.0723  0.5564
17663TIP3    H174480   0.240   6.069   1.963  0.5827 -0.4878  1.2175
17663TIP3    H274481   0.251   5.918   1.973  0.1388 -0.6524 -0.4669
17664TIP3   OH274482   3.094   3.716  13.848 -0.2758 -0.0786  0.1377
17664TIP3    H174483   3.183   3.728  13.812 -0.3026  2.1117  0.6716
17664TIP3    H274484   3.038   3.714  13.771 -0.1375  2.7339 -0.1484
17665TIP3   OH274485   1.534   0.862   3.992 -0.3079 -0.0763 -0.0229
17665TIP3    H174486   1.501   0.951   3.978 -1.6580 -0.7049 -1.1224
17665TIP3    H274487   1.528   0.821   3.906  1.5980 -0.8427  0.1675
17666TIP3   OH274488   2.066   1.765  14.242 -0.4130 -0.0624  0.0683
17666TIP3    H174489   2.028   1.684  14.276  0.6718  0.0673  1.6978
17666TIP3    H274490   1.991   1.813  14.206 -1.0936 -1.6875 -0.7972
17667TIP3   OH274491   6.002   1.305  17.114 -0.2025 -0.1090 -0.1790
17667TIP3    H174492   5.961   1.243  17.175  0.1781  1.1037  1.3721
17667TIP3    H274493   5.957   1.388  17.130 -0.1442  0.2365 -1.6448
17668TIP3   OH274494   1.515   2.775  15.733 -0.7173  0.3465  0.1886
17668TIP3    H174495   1.536   2.683  15.750 -0.5891  0.4351  0.5096
17668TIP3    H274496   1.507   2.780  15.638  0.0498  0.1701  0.1079
17669TIP3   OH274497   0.593   5.105  15.238 -0.7513 -0.0916 -0.2942
17669TIP3    H174498   0.616   5.098  15.331 -3.9806 -1.8635  0.5089
17669TIP3    H274499   0.665   5.062  15.192  1.6786  2.1560  1.1403
17670TIP3   OH274500   5.738   6.518  12.250  0.1120  0.0213  0.6849
17670TIP3    H174501   5.670   6.524  12.183 -1.0977  0.0852  1.8654
17670TIP3    H274502   5.820   6.518  12.201 -0.7549 -1.8498 -0.9156
17671TIP3   OH274503   2.359   1.798   2.402 -0.3555  1.1616 -0.7084
17671TIP3    H174504   2.264   1.797   2.413 -0.2497  1.8257  0.5321
17671TIP3    H274505   2.379   1.886   2.372  0.0650  1.9368  1.6456
17672TIP3   OH274506   1.616   2.334   2.659 -0.0426  0.2515 -0.2614
17672TIP3    H174507   1.581   2.317   2.747  0.6913 -0.1151 -0.0395
17672TIP3    H274508   1.578   2.265   2.604 -0.2048  0.2623 -0.1640
17673TIP3   OH274509   0.025   4.267  16.130 -0.0086 -0.7922  0.4960
17673TIP3    H174510   0.106   4.233  16.091  0.2502  0.1850  0.1659
17673TIP3    H274511   0.035   4.248  16.224  0.9418 -0.0378  0.5678
17674TIP3   OH274512   1.274   1.424  11.893  0.0464 -0.3082 -0.2092
17674TIP3    H174513   1.247   1.485  11.824  0.7897 -0.1662 -0.3803
17674TIP3    H274514   1.194   1.409  11.945  0.1250  1.7802  0.5949
17675TIP3   OH274515   2.449   2.924  14.162 -0.1904  0.4672 -0.2138
17675TIP3    H174516   2.381   2.975  14.205 -0.4119  0.0647 -0.0855
17675TIP3    H274517   2.401   2.865  14.104  0.0078 -0.3744  0.4686
17676TIP3   OH274518   0.171   4.733   6.256  0.5952 -0.1864 -0.0533
17676TIP3    H174519   0.120   4.813   6.268  0.3993 -0.6751  3.4984
17676TIP3    H274520   0.114   4.676   6.206 -1.0275  0.4648  0.9762
17677TIP3   OH274521   4.673   2.361  16.597  0.2922  0.3528  0.2869
17677TIP3    H174522   4.676   2.380  16.691  0.4065 -0.0783  0.3750
17677TIP3    H274523   4.747   2.302  16.583  0.6062  0.8530 -0.1803
17678TIP3   OH274524   0.931   1.240   4.262 -0.3303  0.4080  0.7824
17678TIP3    H174525   0.907   1.330   4.237  1.1370  0.7314  0.4812
17678TIP3    H274526   0.946   1.196   4.178 -2.8544 -0.7113  0.8021
17679TIP3   OH274527   5.449   2.717   4.005 -0.2422 -0.3487  0.1398
17679TIP3    H174528   5.366   2.735   4.049 -1.1515 -0.0866 -1.6055
17679TIP3    H274529   5.428   2.650   3.940  0.7167  0.3293 -0.9027
17680TIP3   OH274530   4.716   4.744  13.481 -0.2432 -0.1599 -0.1322
17680TIP3    H174531   4.737   4.810  13.548 -0.5914 -0.2345  0.0537
17680TIP3    H274532   4.729   4.660  13.525 -0.1080 -0.2130 -0.2737
17681TIP3   OH274533   1.739   5.077  16.042 -0.2231  0.5769  0.3205
17681TIP3    H174534   1.744   5.009  15.975 -1.1305 -0.1398  0.9751
17681TIP3    H274535   1.698   5.151  15.997  0.2383  0.5123 -0.2282
17682TIP3   OH274536   1.818   4.929  13.732  0.1311  0.4100 -0.8619
17682TIP3    H174537   1.733   4.895  13.758  0.8752 -0.0575  1.1234
17682TIP3    H274538   1.857   4.859  13.679  0.2163 -0.3531  0.1975
17683TIP3   OH274539   2.496   2.512   0.457 -0.4825 -0.0214 -0.2325
17683TIP3    H174540   2.559   2.542   0.392 -1.2327  1.4815 -0.2962
17683TIP3    H274541   2.426   2.577   0.455 -0.8179 -0.2600  1.6486
17684TIP3   OH274542   3.044   0.425   4.619  0.1462 -0.2149 -0.2517
17684TIP3    H174543   2.985   0.494   4.589  0.5160 -0.3699 -1.3628
17684TIP3    H274544   3.070   0.379   4.540  0.4872 -1.1766  0.3978
17685TIP3   OH274545   3.472   1.386  12.509  0.0794  0.2934 -0.2366
17685TIP3    H174546   3.530   1.352  12.577 -0.5793  2.6418  1.6836
17685TIP3    H274547   3.497   1.479  12.501 -2.4876  1.0614 -0.2565
17686TIP3   OH274548   4.208   3.701   5.608  0.2890 -0.0142 -0.6698
17686TIP3    H174549   4.183   3.615   5.643 -3.4597  1.1398  0.0114
17686TIP3    H274550   4.225   3.754   5.686  1.8318  0.0891 -1.0583
17687TIP3   OH274551   1.369   1.689   6.209 -0.1213  0.1315  0.0034
17687TIP3    H174552   1.369   1.643   6.293  1.6676 -2.2372 -1.1753
17687TIP3    H274553   1.426   1.764   6.223 -1.2505  0.7711  1.3583
17688TIP3   OH274554   3.217   0.088   4.868 -0.2649 -0.2701  0.4483
17688TIP3    H174555   3.297   0.050   4.904 -0.1444 -1.1161 -0.6762
17688TIP3    H274556   3.237   0.181   4.859 -0.0147 -0.1758  1.7492
17689TIP3   OH274557   3.931   1.377  14.926  0.2812  0.3329 -0.1453
17689TIP3    H174558   3.869   1.446  14.902  1.1946  2.3638  2.7330
17689TIP3    H274559   3.939   1.384  15.022  1.5434 -2.8545  0.1138
17690TIP3   OH274560   1.398   0.404   2.549 -0.1599  0.4163 -0.2282
17690TIP3    H174561   1.419   0.485   2.595 -1.5834  0.3728  0.5580
17690TIP3    H274562   1.349   0.352   2.613 -1.3732 -0.0564 -1.4892
17691TIP3   OH274563   2.340   4.471  11.612  0.5345 -0.1849 -0.1109
17691TIP3    H174564   2.390   4.419  11.550  0.4909 -0.0650 -0.2471
17691TIP3    H274565   2.367   4.440  11.698  0.7655 -0.1906 -0.1862
17692TIP3   OH274566   0.065   2.601  15.555  0.2325  0.5616  0.8149
17692TIP3    H174567   0.149   2.634  15.522 -0.2868  1.6089  0.5003
17692TIP3    H274568   0.010   2.679  15.563 -1.4116 -0.3509 -1.0157
17693TIP3   OH274569   1.431   2.838  12.230  0.1309 -0.3520 -0.2060
17693TIP3    H174570   1.512   2.867  12.188 -0.7565 -0.9356 -2.4493
17693TIP3    H274571   1.428   2.744  12.212 -0.6707 -0.4752  0.5374
17694TIP3   OH274572   5.573   1.614   6.009  0.0359  0.0427  0.0740
17694TIP3    H174573   5.520   1.585   5.935 -0.1005 -1.0730  0.5829
17694TIP3    H274574   5.541   1.702   6.028  1.1619  0.9968 -2.1587
17695TIP3   OH274575   3.274   3.451   0.970  0.3259 -0.0541 -0.3641
17695TIP3    H174576   3.191   3.453   1.017 -0.2964 -0.0135 -1.4274
17695TIP3    H274577   3.288   3.359   0.949  0.8908 -0.1439  0.3936
17696TIP3   OH274578   0.384   5.272  10.870 -0.2166  0.0015  0.0659
17696TIP3    H174579   0.310   5.217  10.892  0.7327 -0.7909  1.4808
17696TIP3    H274580   0.349   5.339  10.811 -1.9296 -0.6072  0.3569
17697TIP3   OH274581   0.810   4.964  15.165  0.4652  1.0971 -0.5630
17697TIP3    H174582   0.815   4.915  15.247  0.6310 -0.0320 -1.2295
17697TIP3    H274583   0.901   4.985  15.144  0.4298  1.3025 -0.5177
17698TIP3   OH274584   2.646   1.443   3.867  1.0134 -0.5582 -0.6347
17698TIP3    H174585   2.646   1.463   3.774  0.7757 -0.4428 -0.6108
17698TIP3    H274586   2.582   1.373   3.877  1.6318 -1.1387 -0.6747
17699TIP3   OH274587   2.300   0.922  11.953 -0.6420 -0.0212 -0.2446
17699TIP3    H174588   2.271   0.999  12.002 -0.1147  0.6063 -0.8995
17699TIP3    H274589   2.239   0.916  11.879 -0.2124  0.2314 -0.6231
17700TIP3   OH274590   1.862   0.527   1.690  0.0483  0.0230  0.4688
17700TIP3    H174591   1.919   0.509   1.615  0.5929 -1.5971  1.2324
17700TIP3    H274592   1.850   0.622   1.688  1.7937  0.2752 -0.4248
17701TIP3   OH274593   4.887   3.127   0.737  0.1612  0.4410  0.0042
17701TIP3    H174594   4.941   3.203   0.761 -0.0174  0.2465  1.0905
17701TIP3    H274595   4.945   3.073   0.683  0.7109  0.7425  0.2759
17702TIP3   OH274596   3.364   4.303   5.314  0.1435 -0.1946  0.5469
17702TIP3    H174597   3.277   4.275   5.286 -0.5918  0.7521  1.8137
17702TIP3    H274598   3.372   4.393   5.281  0.5920 -0.2344  0.5435
17703TIP3   OH274599   4.376   0.002   1.474 -0.1104 -0.1437  0.1661
17703TIP3    H174600   4.420  -0.082   1.461  1.6313  0.7103  0.2087
17703TIP3    H274601   4.388   0.022   1.567  0.0001  0.4218  0.0349
17704TIP3   OH274602   6.805   5.570   5.921 -0.1346  0.3212 -0.1352
17704TIP3    H174603   6.806   5.586   6.015 -1.3066  0.6101 -0.1520
17704TIP3    H274604   6.735   5.505   5.909  1.1118 -0.9893 -0.6390
17705TIP3   OH274605   0.386   6.737   0.304 -0.3053  0.1246  0.1031
17705TIP3    H174606   0.298   6.745   0.339 -0.2386  0.0656  0.2884
17705TIP3    H274607   0.375   6.697   0.218 -0.5272  0.9210 -0.2375
17706TIP3   OH274608   1.509   3.708   4.506  0.4895  0.0726  0.1075
17706TIP3    H174609   1.556   3.718   4.424  1.2064 -1.2680  0.3336
17706TIP3    H274610   1.418   3.731   4.484  0.4370 -1.3221 -1.3441
17707TIP3   OH274611   0.821   4.991  11.741  0.3720 -0.4892 -0.1008
17707TIP3    H174612   0.784   5.046  11.810  1.7096  1.6446 -0.9605
17707TIP3    H274613   0.746   4.967  11.687 -0.1625  1.8116 -0.5238
17708TIP3   OH274614   1.922   5.446   6.042  0.6453  0.3578 -0.1238
17708TIP3    H174615   1.893   5.377   5.982 -1.4576  0.0124  1.1699
17708TIP3    H274616   1.982   5.402   6.102 -0.9774 -0.5533  0.9346
17709TIP3   OH274617   0.632   6.537  11.687 -0.1094  0.5926  0.3884
17709TIP3    H174618   0.714   6.508  11.646 -1.4947  0.0888 -2.2561
17709TIP3    H274619   0.654   6.619  11.730  1.8351  0.3607 -0.0755
17710TIP3   OH274620   1.936   4.021  12.860 -0.2541 -0.0363  0.3809
17710TIP3    H174621   2.003   4.077  12.898 -0.8340  0.1803  1.1082
17710TIP3    H274622   1.944   4.034  12.766  2.6258 -2.1774  0.2131
17711TIP3   OH274623   0.826   4.703  13.529 -0.4192 -0.0388 -0.2126
17711TIP3    H174624   0.834   4.718  13.623  0.0600  0.1173 -0.2807
17711TIP3    H274625   0.791   4.614  13.523 -1.8598  0.4648  0.1429
17712TIP3   OH274626   3.502   0.222  12.268 -0.2386 -0.3184  0.4017
17712TIP3    H174627   3.415   0.226  12.229  0.0089  0.5505 -0.0784
17712TIP3    H274628   3.562   0.234  12.195  0.2965 -0.8772  0.7330
17713TIP3   OH274629   3.225   3.952  11.457  0.2721  0.0884  0.3720
17713TIP3    H174630   3.205   3.987  11.370 -0.5191 -0.2491  0.4162
17713TIP3    H274631   3.194   4.019  11.518  2.6617  1.2845  0.3934
17714TIP3   OH274632   2.878   5.132  13.556 -0.3865  0.1084  0.0360
17714TIP3    H174633   2.884   5.117  13.651  0.4122 -0.4955 -0.1021
17714TIP3    H274634   2.785   5.149  13.541 -0.4466  0.7667  1.0040
17715TIP3   OH274635   4.718   6.008   3.625 -0.4553 -0.0229 -0.3096
17715TIP3    H174636   4.761   6.091   3.609 -1.0950  0.4890  0.5513
17715TIP3    H274637   4.733   5.990   3.718 -0.2211 -0.9290 -0.5170
17716TIP3   OH274638   6.326   0.635  16.100 -0.5234  0.1607 -0.1699
17716TIP3    H174639   6.385   0.648  16.174 -1.1993 -2.0186  0.8325
17716TIP3    H274640   6.381   0.653  16.023  1.4870 -1.5880  0.7174
17717TIP3   OH274641   1.274   3.662  16.290  0.4156  0.5357 -0.3257
17717TIP3    H174642   1.193   3.640  16.335  0.1122  2.5312  0.2356
17717TIP3    H274643   1.328   3.704  16.358  1.5896 -0.0299 -0.8871
17718TIP3   OH274644   1.618   0.135   4.664  0.2628 -0.2089 -1.0403
17718TIP3    H174645   1.589   0.199   4.730 -0.1464 -2.3444  1.0113
17718TIP3    H274646   1.624   0.052   4.713  0.6855 -1.7677 -3.5727
17719TIP3   OH274647   5.756   0.377  16.755  0.1497  0.1992 -0.3761
17719TIP3    H174648   5.825   0.371  16.689  0.2255  0.9035 -0.3606
17719TIP3    H274649   5.743   0.286  16.783  1.1087  0.0675 -0.3283
17720TIP3   OH274650   3.855   2.207  10.838  0.0364  0.2074 -0.1317
17720TIP3    H174651   3.875   2.114  10.826 -0.3800 -0.1994  2.0426
17720TIP3    H274652   3.921   2.252  10.786  2.7739 -1.2117  1.8630
17721TIP3   OH274653   2.871   2.416  11.679 -0.5984  0.0418 -0.1827
17721TIP3    H174654   2.802   2.392  11.740 -1.1279  0.4070 -0.6299
17721TIP3    H274655   2.880   2.341  11.621 -1.1318  0.2711 -0.5745
17722TIP3   OH274656   3.879   6.351   1.260 -0.5251 -0.1946  0.0798
17722TIP3    H174657   3.930   6.404   1.321  1.8973 -0.0122 -1.9472
17722TIP3    H274658   3.831   6.415   1.208  0.5043 -0.0693 -0.7562
17723TIP3   OH274659   3.585   3.022   2.827  0.2135 -0.5066 -0.2684
17723TIP3    H174660   3.612   3.098   2.878 -1.1276 -0.0388 -0.2245
17723TIP3    H274661   3.543   3.059   2.749 -1.8638 -1.1429  0.4768
17724TIP3   OH274662   4.139   6.395   6.484 -0.0078  0.9191 -0.4865
17724TIP3    H174663   4.067   6.420   6.427  0.7334  0.2821 -1.7642
17724TIP3    H274664   4.187   6.476   6.500 -0.1083  1.0740 -0.9548
17725TIP3   OH274665   2.300   4.061   2.419  0.0542 -0.0172 -0.0924
17725TIP3    H174666   2.388   4.093   2.396  0.0295  0.2810  0.2131
17725TIP3    H274667   2.241   4.127   2.385  0.0089  0.3370  0.6545
17726TIP3   OH274668   0.321   1.042   3.845 -0.8517  0.0878  0.0843
17726TIP3    H174669   0.308   1.094   3.765  2.7257  0.0330 -0.7276
17726TIP3    H274670   0.233   1.013   3.870 -2.6102  3.5675 -1.4032
17727TIP3   OH274671   1.646   6.189   0.121 -0.3769  0.1107  0.0229
17727TIP3    H174672   1.694   6.161   0.199 -0.0494 -0.4641 -0.3791
17727TIP3    H274673   1.560   6.214   0.154  0.5025  2.1783  0.9097
17728TIP3   OH274674   2.869   0.138  14.531 -0.0875 -0.1286 -0.5847
17728TIP3    H174675   2.912   0.205  14.478 -1.3034 -1.0089 -2.8029
17728TIP3    H274676   2.818   0.188  14.595 -0.1845  1.0575 -1.5466
17729TIP3   OH274677   4.612   3.775   4.783  0.1778 -0.1869  0.2802
17729TIP3    H174678   4.671   3.801   4.712 -0.3726 -1.4914 -0.7086
17729TIP3    H274679   4.530   3.819   4.763  0.5346  0.9287  1.1715
17730TIP3   OH274680   6.601   1.986  11.945  0.0180 -0.4678  0.1019
17730TIP3    H174681   6.543   1.911  11.948  1.5618 -1.6997  0.7077
17730TIP3    H274682   6.661   1.967  11.873  1.8684 -0.9848  1.6949
17731TIP3   OH274683   4.768   0.555   0.948 -0.8228 -0.2970  0.3231
17731TIP3    H174684   4.711   0.626   0.919 -2.0771 -1.0798  0.8160
17731TIP3    H274685   4.709   0.483   0.970  0.1673 -0.4492  2.8600
17732TIP3   OH274686   3.168   4.410   2.554 -0.2520 -0.7474  0.2247
17732TIP3    H174687   3.076   4.387   2.556 -0.5753  0.1895 -1.5505
17732TIP3    H274688   3.215   4.327   2.567 -1.3386 -1.4318 -0.1605
17733TIP3   OH274689   1.948   0.266  16.339 -0.7095  0.2245 -0.3278
17733TIP3    H174690   1.950   0.230  16.427 -1.1618  0.5205 -0.1949
17733TIP3    H274691   2.030   0.315  16.332 -0.0081 -0.9439 -0.5676
17734TIP3   OH274692   2.830   4.159   1.432 -0.7033 -0.2596  0.1661
17734TIP3    H174693   2.765   4.124   1.371 -0.0264 -1.1933 -0.0425
17734TIP3    H274694   2.821   4.104   1.510 -1.4971  0.8630  0.9102
17735TIP3   OH274695   3.757   3.986  15.055 -0.3602 -0.3662 -0.1241
17735TIP3    H174696   3.686   4.036  15.095  0.9552  1.5242 -0.0541
17735TIP3    H274697   3.732   3.979  14.963 -0.0452  1.4669 -0.3867
17736TIP3   OH274698   6.030   4.570  11.414 -0.4885  0.0380 -0.2969
17736TIP3    H174699   5.991   4.608  11.492  0.5818 -0.2574  0.4097
17736TIP3    H274700   5.969   4.503  11.385 -0.3413 -0.6660  0.9847
17737TIP3   OH274701   4.792   2.818  13.529 -0.8083 -0.0380  1.2251
17737TIP3    H174702   4.797   2.852  13.619 -1.9735 -1.9018  2.0540
17737TIP3    H274703   4.743   2.885  13.481  0.8693  1.5705  1.6029
17738TIP3   OH274704   4.869   2.551  13.427  0.0609 -0.0063  1.0932
17738TIP3    H174705   4.837   2.599  13.503  0.5758 -0.5484  1.6629
17738TIP3    H274706   4.883   2.618  13.360 -0.0780  0.5189  1.5859
17739TIP3   OH274707   5.768   2.542  12.806  0.6696  0.1329 -0.8081
17739TIP3    H174708   5.860   2.515  12.810  0.6162  0.0119 -0.2876
17739TIP3    H274709   5.737   2.509  12.722  0.4808 -1.8558 -0.0257
17740TIP3   OH274710   4.641   1.155  13.847 -0.4140 -0.0743 -0.1290
17740TIP3    H174711   4.575   1.121  13.908 -1.0881 -0.9590 -1.3311
17740TIP3    H274712   4.637   1.250  13.859 -0.5633 -0.2252  1.1627
17741TIP3   OH274713   3.572   4.091   0.083  0.3232 -0.5798 -0.2836
17741TIP3    H174714   3.529   4.175   0.096 -0.8303 -1.0571 -0.8239
17741TIP3    H274715   3.665   4.109   0.095  0.2248  1.0148 -1.5586
17742TIP3   OH274716   2.077   2.083   4.914  0.4241  0.3719  0.3710
17742TIP3    H174717   2.147   2.018   4.922  0.5092  0.5761  1.5096
17742TIP3    H274718   2.056   2.105   5.005  1.3371  2.9598  0.0215
17743TIP3   OH274719   3.445   2.780   6.585 -0.5689  0.0738 -0.3891
17743TIP3    H174720   3.432   2.688   6.607 -0.5521 -0.1770 -1.3806
17743TIP3    H274721   3.539   2.788   6.570 -0.6062  0.1831 -0.5718
17744TIP3   OH274722   3.643   6.331   2.402 -0.2725  0.0638  0.1085
17744TIP3    H174723   3.580   6.281   2.453 -1.3507 -0.0838 -1.2974
17744TIP3    H274724   3.711   6.268   2.378  0.0160  0.0363  0.9742
17745TIP3   OH274725   6.228   2.988   4.273 -0.1137 -0.4701 -0.1108
17745TIP3    H174726   6.147   3.006   4.322 -0.3934  1.0884 -1.0638
17745TIP3    H274727   6.298   3.015   4.332 -0.4334  1.0978 -0.4045
17746TIP3   OH274728   5.831   6.128  16.631  0.2697 -0.7790 -0.2740
17746TIP3    H174729   5.885   6.130  16.710  0.6235 -1.7199 -0.4830
17746TIP3    H274730   5.884   6.171  16.564 -0.6814  1.5244  0.3649
17747TIP3   OH274731   2.715   5.211  13.803  0.2149  0.2899 -0.2345
17747TIP3    H174732   2.714   5.158  13.883 -0.0311  1.0617  0.2783
17747TIP3    H274733   2.632   5.259  13.804 -0.5808 -0.9430 -1.8192
17748TIP3   OH274734   5.171   0.049  12.526 -0.2298 -0.1774  0.3308
17748TIP3    H174735   5.249   0.102  12.506 -0.3139 -0.1165  0.1670
17748TIP3    H274736   5.097   0.106  12.505 -0.3217  0.0548  1.2363
17749TIP3   OH274737   0.112   3.361   3.752  0.3530 -0.2754  0.1927
17749TIP3    H174738   0.129   3.320   3.667 -2.2150  0.6694 -0.8858
17749TIP3    H274739   0.043   3.307   3.791 -0.1444  0.6340  0.6042
17750TIP3   OH274740   1.223   0.017   2.360 -0.0667 -0.5023 -0.5489
17750TIP3    H174741   1.251   0.013   2.269  1.8203  0.8692 -0.1145
17750TIP3    H274742   1.302  -0.005   2.410 -0.5931  0.4173  0.7481
17751TIP3   OH274743   4.133   1.470   5.158 -0.1910 -0.4721 -0.1801
17751TIP3    H174744   4.099   1.504   5.241 -0.6995 -1.0969 -0.1211
17751TIP3    H274745   4.058   1.426   5.118 -0.6102  1.8069 -2.0930
17752TIP3   OH274746   5.274   2.648   6.320  0.1580  0.5949 -0.0600
17752TIP3    H174747   5.328   2.684   6.389 -1.2665 -2.0617  2.6854
17752TIP3    H274748   5.331   2.644   6.243  3.4325 -0.7145  2.2438
17753TIP3   OH274749   6.576   3.201   4.297 -0.8955  0.2125 -0.0205
17753TIP3    H174750   6.508   3.251   4.251 -2.4265 -0.5675  1.3035
17753TIP3    H274751   6.613   3.264   4.360  0.2175  0.8680 -1.2775
17754TIP3   OH274752   6.246   2.663   0.412 -0.4541  0.2700  0.1349
17754TIP3    H174753   6.281   2.646   0.324 -2.6703  0.4329 -0.8714
17754TIP3    H274754   6.242   2.576   0.453 -0.6062  0.0007 -0.4337
17755TIP3   OH274755   5.036   1.282   3.304  0.2120 -0.0089 -0.0749
17755TIP3    H174756   5.107   1.337   3.270  0.4403 -0.7136 -0.7495
17755TIP3    H274757   5.024   1.313   3.395 -0.0769  1.5528 -0.6029
17756TIP3   OH274758   3.643   6.560  16.260  0.2287  0.1395 -0.9429
17756TIP3    H174759   3.634   6.485  16.318 -0.0882  1.1164  0.3200
17756TIP3    H274760   3.738   6.576  16.256  0.2096  0.7124  0.2203
17757TIP3   OH274761   1.409   4.158  15.791  0.0975 -0.4033 -0.4379
17757TIP3    H174762   1.353   4.081  15.797 -0.7030 -0.1300 -3.1684
17757TIP3    H274763   1.488   4.126  15.748  0.2588  0.0817 -0.5035
17758TIP3   OH274764   3.728   4.127  14.182 -0.2049 -0.0148  0.2087
17758TIP3    H174765   3.776   4.195  14.228 -0.0745 -0.2924  0.4829
17758TIP3    H274766   3.640   4.164  14.170  0.5845  1.3732 -2.1427
17759TIP3   OH274767   0.787   6.311   5.130 -0.2579 -0.0683  0.1567
17759TIP3    H174768   0.755   6.282   5.044  0.3616  0.3206 -0.2131
17759TIP3    H274769   0.871   6.266   5.141 -0.8103 -0.9226  1.0293
17760TIP3   OH274770   2.325   0.362   2.651 -0.2421  0.2777 -0.2219
17760TIP3    H174771   2.303   0.366   2.558 -0.5361  0.2003 -0.1573
17760TIP3    H274772   2.246   0.328   2.693 -0.0372  0.1027  0.0299
17761TIP3   OH274773   2.751   0.540  15.639 -0.4292  0.2438 -0.3505
17761TIP3    H174774   2.723   0.458  15.681  1.3590  0.2013  0.8793
17761TIP3    H274775   2.846   0.542  15.651 -0.4231  2.4870 -0.3666
17762TIP3   OH274776   3.926   4.512  12.487  0.3206  0.2752  0.2322
17762TIP3    H174777   3.948   4.572  12.558  0.0967  0.6485 -0.0163
17762TIP3    H274778   4.006   4.507  12.434  1.0334 -1.2170  1.3597
17763TIP3   OH274779   0.247   2.744  12.512  0.0411 -0.4105  0.4856
17763TIP3    H174780   0.198   2.670  12.477  1.1698 -1.0795  0.2678
17763TIP3    H274781   0.297   2.708  12.585  0.3287  0.2150  0.6100
17764TIP3   OH274782   2.108   0.859   4.443  0.5512  0.2032  0.0712
17764TIP3    H174783   2.064   0.912   4.376  0.3059  0.0002  0.0658
17764TIP3    H274784   2.194   0.898   4.452  0.4964  0.3895 -0.1832
17765TIP3   OH274785   2.428   6.369  13.968  0.7327 -0.0594 -0.3104
17765TIP3    H174786   2.378   6.405  13.895  1.3779  1.2085 -0.1373
17765TIP3    H274787   2.519   6.372  13.939  0.9413 -0.0737  0.3336
17766TIP3   OH274788   6.321   4.355  10.988  0.6386  0.3694 -0.1016
17766TIP3    H174789   6.340   4.282  10.929  0.5151  0.9245 -0.8454
17766TIP3    H274790   6.376   4.426  10.957  0.4453  0.7226  0.3550
17767TIP3   OH274791   3.733   4.590   3.270  0.5113 -0.0449 -0.4948
17767TIP3    H174792   3.708   4.503   3.237  1.8923 -0.8242  0.4185
17767TIP3    H274793   3.653   4.642   3.260 -0.4983 -1.5275 -0.6775
17768TIP3   OH274794   3.312   6.145   5.858 -0.3310  0.3193  0.1224
17768TIP3    H174795   3.309   6.158   5.763 -1.2256 -1.1045 -0.0743
17768TIP3    H274796   3.253   6.072   5.874  0.3482  0.0732  1.7054
17769TIP3   OH274797   2.080   4.480  16.668  0.0325 -0.0850 -0.0178
17769TIP3    H174798   2.065   4.385  16.658  0.6673 -0.4312  1.8409
17769TIP3    H274799   2.169   4.486  16.702 -0.2043  1.1341  0.4210
17770TIP3   OH274800   1.374   6.344   1.021 -0.2192 -0.1675  0.2081
17770TIP3    H174801   1.350   6.282   1.090  0.0211 -1.3652 -0.7431
17770TIP3    H274802   1.317   6.419   1.036 -1.1244 -0.9613  0.8942
17771TIP3   OH274803   0.508   4.545   3.552  0.2071 -0.0395  0.2896
17771TIP3    H174804   0.481   4.623   3.503  1.6304 -0.3099 -1.0024
17771TIP3    H274805   0.528   4.480   3.485  2.5530 -0.3195  1.1676
17772TIP3   OH274806   1.381   4.059   2.264 -0.1834  0.7726 -0.1390
17772TIP3    H174807   1.357   4.088   2.352  0.8737 -0.2516  0.5220
17772TIP3    H274808   1.436   4.129   2.229  0.9074  0.3930  0.7546
17773TIP3   OH274809   2.971   1.751  14.785 -0.0042  0.1816  0.2095
17773TIP3    H174810   3.057   1.773  14.749  0.1801 -0.2478  0.3771
17773TIP3    H274811   2.916   1.734  14.709  0.1408  0.1635  0.1093
17774TIP3   OH274812   1.964   2.431   2.345  0.1712 -0.4835 -0.0163
17774TIP3    H174813   1.871   2.442   2.325  0.0164  0.1629  0.9539
17774TIP3    H274814   2.005   2.511   2.311 -0.0440  0.4617  1.7765
17775TIP3   OH274815   0.059   1.324  12.188  0.5582 -0.6708  0.2211
17775TIP3    H174816   0.049   1.231  12.164 -1.6008 -0.4744  0.2279
17775TIP3    H274817   0.040   1.371  12.107 -1.4424 -0.1786  0.9222
17776TIP3   OH274818   0.428   0.441   3.593 -0.2503  0.1446  0.1638
17776TIP3    H174819   0.517   0.452   3.561  0.5881  0.7701  2.4578
17776TIP3    H274820   0.383   0.521   3.568 -0.8134 -0.9691 -2.6939
17777TIP3   OH274821   5.453   3.118   5.516  0.5763 -0.2537  1.1836
17777TIP3    H174822   5.476   3.098   5.425  1.0244  0.7442  1.0706
17777TIP3    H274823   5.537   3.124   5.562  0.4349  0.8694  1.3124
17778TIP3   OH274824   6.583   6.633   5.577 -0.2448  0.0903 -0.1277
17778TIP3    H174825   6.504   6.652   5.528  0.2149  0.9239 -0.5819
17778TIP3    H274826   6.561   6.653   5.668 -1.3577 -2.2711  0.1705
17779TIP3   OH274827   0.674   6.097   4.992  0.4242  0.1855  0.2436
17779TIP3    H174828   0.623   6.050   4.926  1.1554 -0.9107  0.4387
17779TIP3    H274829   0.616   6.167   5.022 -0.7816 -0.7198  0.0923
17780TIP3   OH274830   6.803   5.181   4.632  0.6103 -0.6830  0.5000
17780TIP3    H174831   6.858   5.247   4.676  0.0870  1.5376 -1.8884
17780TIP3    H274832   6.851   5.161   4.551 -0.3352 -1.5544  0.1409
17781TIP3   OH274833   2.376   1.645  14.516 -0.0657  0.2049 -0.6436
17781TIP3    H174834   2.342   1.730  14.488 -1.5578 -0.3436 -0.5914
17781TIP3    H274835   2.431   1.616  14.443 -1.0512  0.3858 -1.4795
17782TIP3   OH274836   5.592   6.569  15.758 -0.7703 -0.1723 -0.0579
17782TIP3    H174837   5.520   6.632  15.764  0.2498  1.1339 -1.0236
17782TIP3    H274838   5.638   6.578  15.842 -0.6704  0.3356 -0.1635
17783TIP3   OH274839   3.400   4.881   0.505  0.7063 -0.3361 -0.9528
17783TIP3    H174840   3.395   4.858   0.598  3.0580 -1.6978 -1.0702
17783TIP3    H274841   3.366   4.804   0.460  2.2570 -0.9069 -1.2230
17784TIP3   OH274842   3.942   4.208   5.774  0.2868 -0.2551  0.3880
17784TIP3    H174843   4.005   4.272   5.807  0.0453  1.5121 -2.2977
17784TIP3    H274844   3.857   4.246   5.796  0.1481 -0.7966  0.7835
17785TIP3   OH274845   6.261   1.256  13.909 -0.1432  0.1534  0.4471
17785TIP3    H174846   6.346   1.211  13.913 -0.8547 -1.3359 -0.0691
17785TIP3    H274847   6.273   1.324  13.843  0.1085 -1.4292 -1.2532
17786TIP3   OH274848   2.280   5.814  12.559 -0.6010 -0.3814  0.4195
17786TIP3    H174849   2.239   5.887  12.606  0.2126  0.0524  0.4858
17786TIP3    H274850   2.366   5.805  12.601  0.3448  0.3167 -1.2392
17787TIP3   OH274851   6.229   3.110  14.250 -0.5107 -0.4412  0.7846
17787TIP3    H174852   6.259   3.042  14.310 -1.2429 -1.5066 -0.0260
17787TIP3    H274853   6.172   3.166  14.303  1.3601  0.5293  1.8707
17788TIP3   OH274854   6.163   0.525  16.510  0.5284  0.7328  0.3172
17788TIP3    H174855   6.095   0.587  16.484  0.7430  0.8659  0.0595
17788TIP3    H274856   6.232   0.537  16.444 -1.4477 -3.3936 -3.0478
17789TIP3   OH274857   1.609   0.098   6.221 -0.0618  0.4218 -0.5043
17789TIP3    H174858   1.540   0.157   6.190 -0.4781  0.2279  0.0484
17789TIP3    H274859   1.562   0.027   6.264  0.4612 -0.0523 -0.7153
17790TIP3   OH274860   6.000   5.016  11.835  0.3648 -0.1535 -0.4748
17790TIP3    H174861   5.925   4.964  11.864  1.0796 -0.9272  0.0165
17790TIP3    H274862   6.050   5.032  11.915  0.2305  1.1818 -0.6417
17791TIP3   OH274863   2.875   6.427  11.851 -0.2276 -0.7857  0.3500
17791TIP3    H174864   2.924   6.409  11.771 -0.7343  0.4549 -0.2613
17791TIP3    H274865   2.804   6.363  11.850 -1.6426  0.6842 -1.4655
17792TIP3   OH274866   3.518   6.151   0.637  0.4046  0.3877  0.2457
17792TIP3    H174867   3.577   6.076   0.636  1.6497  1.3324 -0.0395
17792TIP3    H274868   3.489   6.158   0.728  0.5266 -0.2259  0.3394
17793TIP3   OH274869   2.876   5.019   2.356  0.7515  0.1848  0.1528
17793TIP3    H174870   2.907   4.956   2.291  2.2327  0.8956  0.1120
17793TIP3    H274871   2.947   5.083   2.363 -0.3352  1.3718  0.8295
17794TIP3   OH274872   2.724   5.725  16.034  0.2591 -0.1895 -0.6864
17794TIP3    H174873   2.782   5.699  16.106 -1.1987  0.0255  0.6284
17794TIP3    H274874   2.670   5.794  16.072 -0.6861 -0.2158 -1.9459
17795TIP3   OH274875   2.458   5.857   2.907 -0.1636  0.0362 -0.0920
17795TIP3    H174876   2.421   5.832   2.992  1.2660 -0.9793  0.2606
17795TIP3    H274877   2.552   5.839   2.915 -0.1723 -1.4274 -2.3436
17796TIP3   OH274878   2.993   2.211   3.612  0.3799  0.0204  0.7041
17796TIP3    H174879   3.088   2.205   3.604  0.5334  2.2951  0.1955
17796TIP3    H274880   2.959   2.180   3.528  0.4565 -3.1662  1.7171
17797TIP3   OH274881   4.335   5.551   0.529 -0.3927  0.3121  0.1653
17797TIP3    H174882   4.301   5.608   0.460 -0.0697  0.0183 -0.2433
17797TIP3    H274883   4.262   5.539   0.589 -0.6063  0.7646 -0.0053
17798TIP3   OH274884   5.959   2.597   2.708 -0.1718  0.2134  0.1193
17798TIP3    H174885   6.052   2.578   2.696  0.4826  2.0519  1.6324
17798TIP3    H274886   5.930   2.630   2.623  0.0708 -1.9349 -0.8615
17799TIP3   OH274887   1.428   5.153   2.465 -0.7162  0.2131  0.3924
17799TIP3    H174888   1.497   5.194   2.413  0.6397 -0.8866  1.2577
17799TIP3    H274889   1.394   5.223   2.520 -1.7369  1.2472 -1.4511
17800TIP3   OH274890   4.717   0.223  14.888  0.1466  0.1287 -0.7494
17800TIP3    H174891   4.728   0.129  14.869  0.2425  0.0343 -0.2300
17800TIP3    H274892   4.800   0.250  14.926 -0.7214 -0.1904  1.5661
17801TIP3   OH274893   6.755   5.532  16.028  0.3823 -0.8384 -0.1426
17801TIP3    H174894   6.670   5.561  16.060  0.1286 -0.4282 -1.1712
17801TIP3    H274895   6.808   5.611  16.024  0.7575 -1.0602  0.2891
17802TIP3   OH274896   2.477   1.712  12.108 -0.5436  0.1015 -0.2137
17802TIP3    H174897   2.537   1.718  12.183  1.1439 -1.3901 -1.3437
17802TIP3    H274898   2.391   1.730  12.144  0.0487 -1.6478  2.3484
17803TIP3   OH274899   4.113   3.078  15.720  0.1012  0.5678 -0.0351
17803TIP3    H174900   4.111   3.167  15.754 -1.3685  0.5574 -0.0007
17803TIP3    H274901   4.021   3.050  15.722  0.2472 -0.1869 -2.0081
17804TIP3   OH274902   1.427   6.694   2.992 -0.6108 -0.4737 -0.7790
17804TIP3    H174903   1.500   6.646   2.953 -0.3901 -0.9166  0.1616
17804TIP3    H274904   1.469   6.765   3.042 -0.8781 -0.0652 -1.1269
17805TIP3   OH274905   1.580   6.306  12.879 -0.3214 -0.1658 -0.5079
17805TIP3    H174906   1.526   6.334  12.805  0.2946  1.2174 -0.4717
17805TIP3    H274907   1.628   6.385  12.905 -3.4687  0.6794  3.9846
17806TIP3   OH274908   4.438   0.383   2.452  0.1656  0.3165 -0.5387
17806TIP3    H174909   4.529   0.355   2.443  0.1535  0.2286 -0.3701
17806TIP3    H274910   4.425   0.396   2.545 -0.2367 -0.4724 -0.4743
17807TIP3   OH274911   4.024   1.073  12.057  0.3621 -0.0614  0.3337
17807TIP3    H174912   3.950   1.088  12.114 -2.7714  0.7891 -3.5016
17807TIP3    H274913   4.051   1.161  12.028  2.9017 -0.3508  1.5032
17808TIP3   OH274914   2.591   6.234   0.576 -0.2704 -0.5092  0.2309
17808TIP3    H174915   2.601   6.243   0.482 -2.5619  0.5761  0.0292
17808TIP3    H274916   2.658   6.170   0.601 -0.9107 -2.3772 -2.4283
17809TIP3   OH274917   4.900   0.086  12.595  0.6526 -0.4754 -0.0055
17809TIP3    H174918   4.889   0.171  12.638  2.9914 -1.2931  2.5368
17809TIP3    H274919   4.904   0.106  12.502  0.6177  2.1343  0.4744
17810TIP3   OH274920   6.631   6.007   3.177 -0.2260  0.0936  0.1907
17810TIP3    H174921   6.646   6.048   3.263  0.0566 -2.8517  1.6818
17810TIP3    H274922   6.541   6.031   3.155 -0.4002  0.6806  1.4499
17811TIP3   OH274923   5.571   5.581   4.443  0.5816  0.0958 -0.3359
17811TIP3    H174924   5.549   5.500   4.396 -1.9579  1.4106 -1.5978
17811TIP3    H274925   5.602   5.640   4.375 -0.0495  0.9857  0.1332
17812TIP3   OH274926   0.483   2.951  13.911  0.4447  0.0270 -0.1863
17812TIP3    H174927   0.411   2.908  13.866 -0.5987 -1.4992  2.6564
17812TIP3    H274928   0.486   3.039  13.874 -2.1771 -0.2011 -1.1543
17813TIP3   OH274929   5.838   4.132   6.175 -0.2724 -0.0702  0.2693
17813TIP3    H174930   5.918   4.179   6.150 -1.0467  0.8574 -0.5863
17813TIP3    H274931   5.771   4.200   6.179 -1.3536 -1.0447 -0.5986
17814TIP3   OH274932   2.536   5.593   3.924  0.2842  0.0243 -0.1918
17814TIP3    H174933   2.489   5.536   3.985  0.4103 -0.9196 -0.9466
17814TIP3    H274934   2.475   5.664   3.904  0.1138  0.1507  0.7487
17815TIP3   OH274935   2.993   5.984   1.189 -0.6041 -0.1192  0.2569
17815TIP3    H174936   3.011   5.892   1.209 -0.7481 -0.8392 -2.5604
17815TIP3    H274937   3.074   6.029   1.210  0.3353 -1.3290 -0.6028
17816TIP3   OH274938   4.297   5.259  16.184  0.2801  0.3299 -0.1309
17816TIP3    H174939   4.297   5.182  16.127 -0.0425 -1.4514  2.1408
17816TIP3    H274940   4.335   5.228  16.266 -0.8388  2.3195  1.2180
17817TIP3   OH274941   4.296   0.509   3.847 -0.2868 -0.0736 -0.6683
17817TIP3    H174942   4.301   0.439   3.912  0.8733  1.9763  1.6078
17817TIP3    H274943   4.269   0.464   3.766 -1.5181 -2.7986  1.0829
17818TIP3   OH274944   0.460   3.628  11.400  0.2711 -0.2219 -0.1476
17818TIP3    H174945   0.552   3.602  11.393  0.1265 -0.6689 -0.4424
17818TIP3    H274946   0.439   3.617  11.493 -0.3916 -3.3555 -0.5404
17819TIP3   OH274947   1.535   4.559   2.788  0.0863  0.2627  0.3122
17819TIP3    H174948   1.592   4.634   2.772  0.0108  0.6535  1.7459
17819TIP3    H274949   1.457   4.597   2.829 -0.3509 -0.4961  0.1969
17820TIP3   OH274950   5.514   3.650   4.617 -0.0813 -0.0050 -0.3148
17820TIP3    H174951   5.420   3.649   4.597 -0.1584 -0.0095  0.0388
17820TIP3    H274952   5.553   3.591   4.553 -0.2262  0.5176 -0.9025
17821TIP3   OH274953   6.248   3.996   3.493  0.1341  0.0234  0.3125
17821TIP3    H174954   6.271   4.086   3.471 -1.1299  0.6298  1.3524
17821TIP3    H274955   6.304   3.975   3.568  0.5213 -0.1147 -0.0109
17822TIP3   OH274956   2.240   3.702   6.161  0.5801  0.4349  0.2121
17822TIP3    H174957   2.154   3.706   6.203 -0.1809  0.0401 -1.2239
17822TIP3    H274958   2.291   3.643   6.216 -1.0338 -1.7343 -0.4662
17823TIP3   OH274959   1.579   0.347   4.851 -0.3453 -0.6707  0.0721
17823TIP3    H174960   1.507   0.395   4.892 -0.7371 -1.8184  0.7676
17823TIP3    H274961   1.591   0.270   4.906  2.4503  0.2235  0.9091
17824TIP3   OH274962   0.179   2.687  12.231 -0.2757 -0.3850 -0.2928
17824TIP3    H174963   0.159   2.611  12.176 -0.8159 -1.4702  1.3288
17824TIP3    H274964   0.096   2.707  12.274  0.2827  0.0077  0.6267
17825TIP3   OH274965   5.200   0.549  11.289 -0.3143 -0.3105  0.1155
17825TIP3    H174966   5.242   0.553  11.375 -0.4873  0.2757  0.1758
17825TIP3    H274967   5.157   0.634  11.279 -1.2106 -0.7843 -0.0910
17826TIP3   OH274968   5.017   3.717  14.763  0.2759  0.1749 -0.1494
17826TIP3    H174969   5.004   3.760  14.848  0.4716 -0.0976  0.0191
17826TIP3    H274970   4.930   3.685  14.739  0.1082  0.7492 -0.3234
17827TIP3   OH274971   1.639   2.283  16.682 -0.0360 -0.5964 -0.5026
17827TIP3    H174972   1.607   2.373  16.672  0.1639 -0.3687  0.7664
17827TIP3    H274973   1.733   2.289  16.664 -0.3006 -0.8762 -2.0985
17828TIP3   OH274974   6.538   1.734  10.302  0.5312 -1.1404  0.1949
17828TIP3    H174975   6.603   1.674  10.266  1.8628  0.4536 -0.1738
17828TIP3    H274976   6.471   1.741  10.234  1.4327 -0.5898 -0.6457
17829TIP3   OH274977   3.262   5.505  12.473 -0.3284 -0.2512  0.4600
17829TIP3    H174978   3.264   5.418  12.513  0.0770 -0.4195  0.0791
17829TIP3    H274979   3.307   5.562  12.537  0.7505 -0.6095  0.0512
17830TIP3   OH274980   3.714   3.624   3.037 -0.2985 -0.2596  0.2246
17830TIP3    H174981   3.673   3.600   2.954 -0.6558 -0.4961  0.4679
17830TIP3    H274982   3.683   3.712   3.056 -2.1151 -1.0732  1.2797
17831TIP3   OH274983   1.424   6.651   2.688 -0.3510 -0.1132  0.3145
17831TIP3    H174984   1.462   6.720   2.633  1.7790 -0.6764  0.9800
17831TIP3    H274985   1.392   6.697   2.766  2.1646  0.0721  1.3170
17832TIP3   OH274986   5.821   4.682  14.365  0.0319  0.2135  0.0683
17832TIP3    H174987   5.914   4.685  14.341 -0.6575 -2.7878 -4.2157
17832TIP3    H274988   5.820   4.640  14.451  2.6058  0.4863  0.3176
17833TIP3   OH274989   0.171   1.084  12.448 -0.3424 -0.2920  0.7348
17833TIP3    H174990   0.238   1.149  12.425 -0.3617 -0.2387  0.8279
17833TIP3    H274991   0.166   1.027  12.371 -1.1998  0.5533  0.1350
17834TIP3   OH274992   3.488   4.805   3.474  0.3043  0.0184 -0.5793
17834TIP3    H174993   3.412   4.748   3.481  0.4777 -0.6037 -2.9245
17834TIP3    H274994   3.501   4.816   3.380  2.2654  1.2743 -0.2183
17835TIP3   OH274995   3.608   2.881  16.929 -0.2090 -0.0975 -0.0134
17835TIP3    H174996   3.519   2.883  16.895  0.1040 -0.8218 -0.9444
17835TIP3    H274997   3.660   2.846  16.856  1.2134  2.3725 -0.2817
17836TIP3   OH274998   5.278   6.421   1.727 -0.1011  0.9174  0.9163
17836TIP3    H174999   5.271   6.477   1.803  1.3441 -0.4052  2.0955
17836TIP3    H275000   5.188   6.391   1.710 -0.4142  1.0312  2.2617
17837TIP3   OH275001   1.717   6.428   6.498  0.6774 -0.2096  0.6563
17837TIP3    H175002   1.796   6.429   6.444 -0.2737 -2.3889 -0.9310
17837TIP3    H275003   1.676   6.513   6.483  0.7479 -0.5223 -1.7052
17838TIP3   OH275004   3.784   0.389  11.899 -0.2931 -0.0071  0.1540
17838TIP3    H175005   3.876   0.376  11.875  0.3935  0.2547  2.4204
17838TIP3    H275006   3.759   0.470  11.855  0.2869 -0.4960 -1.1333
17839TIP3   OH275007   1.498   4.859   3.083 -0.1384  0.1362 -0.3967
17839TIP3    H175008   1.468   4.814   3.162 -0.3265 -0.6949 -0.9248
17839TIP3    H275009   1.552   4.794   3.038 -2.3607 -0.4693 -2.3795
17840TIP3   OH275010   2.757   4.292   4.866 -0.6387  0.5525 -1.0424
17840TIP3    H175011   2.706   4.239   4.805  2.3375  0.1627 -3.4338
17840TIP3    H275012   2.770   4.375   4.820 -0.6252  1.3217  0.3064
17841TIP3   OH275013   1.212   5.039  14.907 -0.2504  0.5644  0.4739
17841TIP3    H175014   1.304   5.016  14.895 -0.6715 -0.7918 -0.3822
17841TIP3    H275015   1.198   5.110  14.843 -1.1255 -3.0488 -3.8700
17842TIP3   OH275016   4.474   0.978  13.990  0.5910  0.4373 -0.5024
17842TIP3    H175017   4.499   0.916  14.058  2.0742  2.6937  1.1795
17842TIP3    H275018   4.392   0.943  13.955  0.1914 -1.2950  1.8623
17843TIP3   OH275019   1.691   4.774  10.662  0.6116 -0.3898  0.5730
17843TIP3    H175020   1.675   4.748  10.571  0.5689 -1.2836  0.8281
17843TIP3    H275021   1.605   4.797  10.696  0.6807  0.3495  0.2784
17844TIP3   OH275022   1.899   2.093  15.239  0.5578 -0.1448 -0.1450
17844TIP3    H175023   1.861   2.005  15.232 -0.5219  0.3258 -0.3295
17844TIP3    H275024   1.918   2.118  15.149 -0.8159  0.5201 -0.2676
17845TIP3   OH275025   3.494   5.660  11.534 -0.2636  0.4435 -0.6595
17845TIP3    H175026   3.439   5.635  11.459 -1.6160 -0.1243  0.4638
17845TIP3    H275027   3.477   5.753  11.545  0.8533  0.7990 -1.7506
17846TIP3   OH275028   6.167   1.667  15.912  0.1993  0.4189 -0.0987
17846TIP3    H175029   6.256   1.635  15.925 -0.0082  0.5215  1.7654
17846TIP3    H275030   6.111   1.600  15.950 -0.5262  0.5285 -0.9291
17847TIP3   OH275031   2.112   4.271  15.860  0.2516 -0.2484  0.4239
17847TIP3    H175032   2.082   4.256  15.949  0.3544  2.4020  0.9819
17847TIP3    H275033   2.168   4.348  15.866 -0.7199  0.7551 -2.1154
17848TIP3   OH275034   1.828   0.150  14.448 -0.3402 -0.0947 -0.0934
17848TIP3    H175035   1.902   0.093  14.430 -0.9379 -0.5387 -1.2834
17848TIP3    H275036   1.797   0.178  14.361 -0.3012  1.7407  0.4284
17849TIP3   OH275037   3.244   4.323   5.777  0.8140  0.4805  0.1617
17849TIP3    H175038   3.175   4.359   5.832  0.4586 -2.1805  1.6090
17849TIP3    H275039   3.224   4.357   5.689 -0.2280  2.5855  1.1312
17850TIP3   OH275040   3.863   0.003   3.748 -0.4516  0.0131  0.2044
17850TIP3    H175041   3.839   0.081   3.698 -0.0369 -0.7477 -1.2513
17850TIP3    H275042   3.801  -0.064   3.719  0.8189 -0.8813 -0.5708
17851TIP3   OH275043   4.021   6.729  13.743  0.0170 -0.3157  0.4022
17851TIP3    H175044   3.951   6.759  13.685  0.6598  1.9562  0.6870
17851TIP3    H275045   4.010   6.781  13.822  0.3347 -1.9769  1.5904
17852TIP3   OH275046   4.808   3.550   2.499 -0.1383  0.1094 -0.4946
17852TIP3    H175047   4.797   3.582   2.588 -0.2996 -0.5139 -0.2856
17852TIP3    H275048   4.720   3.524   2.472  0.0504 -0.4888 -0.5324
17853TIP3   OH275049   2.035   4.166   0.206  0.2043 -0.2106 -0.2079
17853TIP3    H175050   2.033   4.180   0.301 -0.2500 -0.1028 -0.2276
17853TIP3    H275051   2.006   4.076   0.195 -2.2096  0.4986 -0.3555
17854TIP3   OH275052   0.637   4.706   1.405  0.6720 -0.2428 -0.0297
17854TIP3    H175053   0.594   4.760   1.470  1.6830 -0.8168  1.1593
17854TIP3    H275054   0.654   4.623   1.449  0.8628 -0.8590 -1.2119
17855TIP3   OH275055   3.089   3.180  11.509 -0.8228  0.7029 -0.4156
17855TIP3    H175056   3.173   3.171  11.464  1.1631 -0.2159  3.1219
17855TIP3    H275057   3.100   3.257  11.565 -1.2865 -0.8413  1.9605
17856TIP3   OH275058   3.357   0.013  14.149  0.1324 -0.1555  0.2186
17856TIP3    H175059   3.318  -0.059  14.199  0.2044  0.7457  1.6182
17856TIP3    H275060   3.435   0.038  14.199  0.6720  0.2394 -0.7898
17857TIP3   OH275061   0.043   4.297  16.450 -0.0826 -0.6693  0.1953
17857TIP3    H175062   0.095   4.343  16.516  0.5174  1.0466 -1.3786
17857TIP3    H275063   0.003   4.224  16.497  0.8388  0.0977  2.2831
17858TIP3   OH275064   3.386   2.190   3.428  0.6629  0.1204 -0.0984
17858TIP3    H175065   3.423   2.154   3.508  1.1763  1.9551  0.5474
17858TIP3    H275066   3.298   2.151   3.422  0.5946  0.0137  1.3986
17859TIP3   OH275067   5.388   5.435   2.854  0.1976  0.4577  0.0378
17859TIP3    H175068   5.410   5.398   2.939 -0.1122  2.5730  1.0878
17859TIP3    H275069   5.328   5.506   2.873  1.9131  2.5208 -1.7091
17860TIP3   OH275070   0.134   3.733   0.827 -0.1053 -0.3444  0.4707
17860TIP3    H175071   0.135   3.768   0.737 -2.2335 -0.7052  0.2578
17860TIP3    H275072   0.163   3.642   0.817 -3.4053 -1.4233 -0.4380
17861TIP3   OH275073   4.237   2.104  16.280  0.1455  0.6161 -0.7980
17861TIP3    H175074   4.169   2.143  16.225  1.6648  1.7531 -1.9534
17861TIP3    H275075   4.234   2.011  16.259 -1.7947  0.4465  0.0371
17862TIP3   OH275076   5.838   1.821   5.774 -0.2795 -0.3736  0.0801
17862TIP3    H175077   5.819   1.782   5.859 -0.0442  0.2667  0.4286
17862TIP3    H275078   5.906   1.886   5.792 -1.4045  0.9383 -0.3279
17863TIP3   OH275079   6.253   0.852  13.382 -0.3562  0.6665  0.9941
17863TIP3    H175080   6.344   0.829  13.401 -0.1714 -1.1553 -1.4482
17863TIP3    H275081   6.204   0.825  13.460  0.9839 -0.1226  1.6002
17864TIP3   OH275082   3.684   3.653   2.658  0.5450 -0.0304  0.1378
17864TIP3    H175083   3.590   3.666   2.646  0.1952 -0.2370  2.2423
17864TIP3    H275084   3.698   3.561   2.635  0.5171  0.3517 -1.5145
17865TIP3   OH275085   4.353   5.485   1.646  0.3413 -0.1807  0.1410
17865TIP3    H175086   4.284   5.515   1.587 -0.7781 -0.6577  1.1747
17865TIP3    H275087   4.371   5.560   1.702 -0.0752 -0.3645  0.5306
17866TIP3   OH275088   0.418   0.963  12.740  0.0546 -0.2615 -0.5323
17866TIP3    H175089   0.507   0.990  12.717 -0.1754  0.1091 -1.0246
17866TIP3    H275090   0.403   0.884  12.689  0.7430 -1.3848  0.9422
17867TIP3   OH275091   0.141   5.775   4.197  0.4146  0.2766  0.0886
17867TIP3    H175092   0.140   5.743   4.288  0.7191 -0.6823 -0.2281
17867TIP3    H275093   0.116   5.867   4.204 -0.2763  0.0406  1.0722
17868TIP3   OH275094   6.490   4.758   2.887  0.4053 -0.0015  0.7802
17868TIP3    H175095   6.468   4.783   2.977 -0.1581 -1.2186  1.0090
17868TIP3    H275096   6.441   4.819   2.832  0.5149  0.5621  1.3098
17869TIP3   OH275097   1.921   2.372  17.144  0.2686 -0.0372  0.6578
17869TIP3    H175098   1.966   2.386  17.061  3.1412 -0.8588  1.9592
17869TIP3    H275099   1.878   2.456  17.162  1.8433  1.0490 -0.3946
17870TIP3   OH275100   5.606   3.029  13.897  0.2734  0.1385 -0.3534
17870TIP3    H175101   5.667   2.959  13.921  0.5210  0.1374 -0.9842
17870TIP3    H275102   5.519   2.988  13.901  0.3884 -0.1057 -0.3642
17871TIP3   OH275103   4.253   3.774   2.071 -0.3327  0.4955  0.3069
17871TIP3    H175104   4.202   3.846   2.109 -3.3366 -0.9971 -0.5467
17871TIP3    H275105   4.230   3.775   1.978 -0.5087 -1.5605  0.2869
17872TIP3   OH275106   3.483   1.837   0.012  0.0709 -0.3787  0.6707
17872TIP3    H175107   3.430   1.766  -0.024  0.5908 -0.1002 -0.7307
17872TIP3    H275108   3.547   1.856  -0.058 -0.0876  1.4836  0.9930
17873TIP3   OH275109   2.325   4.657  12.824 -0.0927 -0.6607 -0.0130
17873TIP3    H175110   2.303   4.748  12.804 -1.9574 -1.0795 -0.0893
17873TIP3    H275111   2.267   4.634  12.896  0.1420 -1.8829 -0.1957
17874TIP3   OH275112   6.811   1.569   4.428  0.4192  0.5870  0.4023
17874TIP3    H175113   6.792   1.560   4.334  0.0265 -2.8229  0.6715
17874TIP3    H275114   6.892   1.520   4.441  0.7898  1.5049  1.7819
17875TIP3   OH275115   2.022   6.110   2.211  0.7387 -0.0538 -0.1726
17875TIP3    H175116   2.111   6.086   2.236  0.2131 -1.5698  0.3575
17875TIP3    H275117   2.020   6.100   2.116  1.2010  0.2638 -0.2195
17876TIP3   OH275118   5.885   5.377  15.565  0.4417  0.1331 -0.4325
17876TIP3    H175119   5.965   5.325  15.558  0.5180  0.3193 -0.9960
17876TIP3    H275120   5.845   5.371  15.478 -0.7499 -0.8950  0.1543
17877TIP3   OH275121   4.204   3.451  13.072  0.0593 -1.2612 -0.3853
17877TIP3    H175122   4.270   3.514  13.042 -1.6451 -0.0607 -1.7916
17877TIP3    H275123   4.251   3.368  13.079  1.8315 -0.3284 -0.7965
17878TIP3   OH275124   2.505   2.107  17.040  0.3655 -0.0095  0.1110
17878TIP3    H175125   2.464   2.022  17.054  1.7017 -0.6075  0.5675
17878TIP3    H275126   2.490   2.127  16.948 -0.9438 -0.1964  0.2733
17879TIP3   OH275127   5.522   6.422  15.024  0.4986 -0.4937 -0.7621
17879TIP3    H175128   5.615   6.404  15.037  0.0780 -3.7497 -1.4299
17879TIP3    H275129   5.478   6.343  15.055 -1.8766  0.0370 -2.5147
17880TIP3   OH275130   2.476   5.003   5.554  0.2714  0.3544 -0.1670
17880TIP3    H175131   2.410   5.048   5.501  0.9291  0.6544 -0.7394
17880TIP3    H275132   2.449   4.911   5.552 -1.3221  0.7357  1.3606
17881TIP3   OH275133   1.745   6.078   4.984  0.4550 -0.2669  0.8330
17881TIP3    H175134   1.678   6.031   5.033 -0.0199  1.8353  2.3198
17881TIP3    H275135   1.701   6.102   4.902  0.0427 -0.6212  0.9440
17882TIP3   OH275136   5.329   6.095   5.050 -0.6746 -0.0730 -0.5238
17882TIP3    H175137   5.289   6.170   5.095 -0.7224 -0.0409 -0.6215
17882TIP3    H275138   5.398   6.134   4.996  0.6048 -0.2616  0.8875
17883TIP3   OH275139   6.061   2.749   2.259 -0.5335 -0.4064  0.1654
17883TIP3    H175140   6.020   2.662   2.262  3.4585 -2.5169  0.8051
17883TIP3    H275141   6.079   2.770   2.351  0.9290 -0.2340 -0.1374
17884TIP3   OH275142   6.517   1.557  10.773  0.2790  0.2328  0.0646
17884TIP3    H175143   6.606   1.538  10.742  0.1748 -2.1701  0.9730
17884TIP3    H275144   6.464   1.485  10.740 -0.8478  0.3783  1.4347
17885TIP3   OH275145   6.671   1.843   5.203  0.2325 -0.0572 -0.2285
17885TIP3    H175146   6.651   1.857   5.296  2.0869  1.0547  0.0475
17885TIP3    H275147   6.686   1.748   5.196  1.1547 -0.0158  0.8610
17886TIP3   OH275148   4.536   1.448   4.226 -0.4678  0.5740 -0.2583
17886TIP3    H175149   4.548   1.533   4.183 -0.6368  1.3134  1.1182
17886TIP3    H275150   4.611   1.396   4.197  0.2175  1.5486 -0.2785
17887TIP3   OH275151   5.715   1.080   0.889  0.0686 -0.6196  0.9523
17887TIP3    H175152   5.769   1.121   0.957  1.1602  1.2085 -0.9009
17887TIP3    H275153   5.718   0.987   0.910  4.2496 -0.7113  0.9193
17888TIP3   OH275154   5.208   5.704  11.829 -0.1474  0.0818  0.1269
17888TIP3    H175155   5.302   5.699  11.847 -0.0008  1.9435  0.0188
17888TIP3    H275156   5.178   5.782  11.875 -1.7565 -0.7405  0.5486
17889TIP3   OH275157   1.865   0.536  16.542  1.0612  0.5198 -0.0600
17889TIP3    H175158   1.857   0.509  16.634  0.5863 -0.2817 -0.3216
17889TIP3    H275159   1.959   0.548  16.528  1.1565  0.4115  0.4627
17890TIP3   OH275160   6.563   6.070  11.836 -0.1567 -0.1450  0.5231
17890TIP3    H175161   6.623   6.111  11.899 -1.0662 -0.9024  1.9350
17890TIP3    H275162   6.477   6.108  11.857 -0.2817  0.5729 -1.1581
17891TIP3   OH275163   4.524   5.122  15.217  0.0626 -0.6801 -0.1185
17891TIP3    H175164   4.560   5.133  15.129  2.3616 -0.2568  0.8000
17891TIP3    H275165   4.600   5.104  15.272 -1.0200  1.0500  2.1292
17892TIP3   OH275166   3.623   1.143   0.832 -0.0223  0.2939 -0.1017
17892TIP3    H175167   3.578   1.129   0.749 -0.9713 -0.6273  0.5445
17892TIP3    H275168   3.601   1.066   0.885  0.3144  0.9971  1.1119
17893TIP3   OH275169   4.377   3.924   1.494 -0.1470 -0.1725  0.3848
17893TIP3    H175170   4.427   3.843   1.504 -1.1648 -0.8779 -0.0685
17893TIP3    H275171   4.327   3.932   1.576 -2.1481 -1.5200 -0.6106
17894TIP3   OH275172   5.303   5.929  16.528  0.0819  0.1552 -0.0835
17894TIP3    H175173   5.301   5.992  16.600  0.2938  2.0450 -1.6623
17894TIP3    H275174   5.248   5.857  16.559 -1.0587  1.5632  1.3811
17895TIP3   OH275175   1.513   1.211   4.484 -0.4492  0.1133  0.1481
17895TIP3    H175176   1.448   1.254   4.539 -1.5195  2.0665 -2.4363
17895TIP3    H275177   1.477   1.123   4.469 -1.1746  0.2835  0.8205
17896TIP3   OH275178   4.015   5.669  16.214  0.2553  0.2032 -0.0801
17896TIP3    H175179   4.055   5.586  16.189  0.9696  0.1123  1.2511
17896TIP3    H275180   3.967   5.649  16.295  0.0441  0.9751 -0.0059
17897TIP3   OH275181   6.135   3.371   1.981  0.1122  0.5254  0.3485
17897TIP3    H175182   6.072   3.406   1.918  0.6409  0.3236 -0.3053
17897TIP3    H275183   6.221   3.394   1.944  0.4374 -0.2167  0.6232
17898TIP3   OH275184   4.099   6.194   3.583  0.1117 -0.2626  0.7547
17898TIP3    H175185   4.152   6.257   3.633  0.9650 -1.4272  1.3505
17898TIP3    H275186   4.162   6.149   3.526 -0.6137 -0.0457 -0.2463
17899TIP3   OH275187   4.152   4.480   5.485 -0.1358  0.1386 -0.0382
17899TIP3    H175188   4.068   4.457   5.525  1.1408 -1.9685  1.6696
17899TIP3    H275189   4.138   4.468   5.391 -1.7830 -0.0377  0.2029
17900TIP3   OH275190   2.717   4.524   0.925  0.2119 -0.0301  0.4241
17900TIP3    H175191   2.653   4.472   0.974  0.8602  0.6220  2.0029
17900TIP3    H275192   2.768   4.459   0.877  0.2732 -0.7849  1.4765
17901TIP3   OH275193   2.241   5.590   5.361 -0.2423 -0.3896  0.4796
17901TIP3    H175194   2.316   5.612   5.306  0.1230 -0.7344  0.8343
17901TIP3    H275195   2.276   5.591   5.450 -1.3700  2.6619  1.0101
17902TIP3   OH275196   4.631   4.295  14.357  0.0156 -0.4563 -0.0113
17902TIP3    H175197   4.668   4.298  14.269  0.2980 -1.7188  0.0468
17902TIP3    H275198   4.612   4.202  14.372  1.6395 -0.5362  1.9394
17903TIP3   OH275199   1.478   0.526   3.961 -0.0348 -0.1101 -0.4160
17903TIP3    H175200   1.551   0.570   4.004  0.2494  1.8581 -2.6576
17903TIP3    H275201   1.519   0.472   3.894 -0.5734 -0.0138 -0.8257
17904TIP3   OH275202   1.220   3.911  16.111 -0.2733  0.1530  0.0783
17904TIP3    H175203   1.125   3.901  16.111 -0.3332  0.6966 -0.7455
17904TIP3    H275204   1.252   3.833  16.157 -1.1330  0.2084  0.7936
17905TIP3   OH275205   0.682   2.496   2.335  0.4843  0.7941  0.2827
17905TIP3    H175206   0.748   2.474   2.402  0.1150  2.8798  1.4289
17905TIP3    H275207   0.730   2.495   2.253  1.4423  0.2406  0.8240
17906TIP3   OH275208   0.736   3.698  16.326 -0.1659 -0.0370  0.2383
17906TIP3    H175209   0.766   3.624  16.379  0.0361 -0.2044 -0.1057
17906TIP3    H275210   0.644   3.707  16.348 -0.3955 -0.9241 -0.3333
17907TIP3   OH275211   4.559   0.338   1.425 -0.7023 -0.0013 -0.2982
17907TIP3    H175212   4.485   0.280   1.435 -1.3203  0.9875  1.1514
17907TIP3    H275213   4.530   0.404   1.362 -0.2523 -0.8098 -1.3903
17908TIP3   OH275214   6.561   2.484   1.868 -0.6254 -0.1208  0.4069
17908TIP3    H175215   6.607   2.467   1.786  1.1701 -1.0465  1.5315
17908TIP3    H275216   6.551   2.579   1.871 -1.5727 -0.1272 -1.2779
17909TIP3   OH275217   1.044   6.551  10.785  0.2392  0.2701 -0.0419
17909TIP3    H175218   1.060   6.524  10.694 -0.5333 -0.2175 -0.0406
17909TIP3    H275219   1.037   6.646  10.781 -0.4896  0.2017 -0.6169
17910TIP3   OH275220   6.816   3.078   6.262 -0.3633 -0.3137  0.3699
17910TIP3    H175221   6.793   2.985   6.269  0.8775 -0.5239  2.2927
17910TIP3    H275222   6.878   3.082   6.190 -0.4972 -0.9654  0.2112
17911TIP3   OH275223   5.419   2.926   1.909  0.4558 -0.6028 -0.1621
17911TIP3    H175224   5.390   2.912   1.999  1.9651  0.3976  0.5210
17911TIP3    H275225   5.339   2.946   1.861 -0.4270 -1.5182  0.8659
17912TIP3   OH275226   6.754   6.744   0.323  0.1117 -0.0776  0.3441
17912TIP3    H175227   6.679   6.691   0.350 -1.2080  1.2512 -0.5580
17912TIP3    H275228   6.821   6.724   0.388 -1.0710 -1.1602  1.3069
17913TIP3   OH275229   6.491   2.142  14.489  0.3818  0.0606  0.5984
17913TIP3    H175230   6.545   2.216  14.457 -0.5802  0.6700  0.3528
17913TIP3    H275231   6.536   2.065  14.455 -0.6381  0.6634 -2.4872
17914TIP3   OH275232   6.246   0.015   1.457  0.5850 -0.1555  0.1792
17914TIP3    H175233   6.244   0.108   1.478  0.2088  0.4129 -2.1134
17914TIP3    H275234   6.249  -0.029   1.542 -1.0901  1.8846  1.3885
17915TIP3   OH275235   3.481   6.392  16.728  0.5159  0.1915  0.3145
17915TIP3    H175236   3.562   6.442  16.715  0.5172  0.1484  0.1583
17915TIP3    H275237   3.419   6.430  16.666  0.8630 -0.7778 -0.6503
17916TIP3   OH275238   5.663   4.678   3.359  0.3558 -0.0542 -0.3190
17916TIP3    H175239   5.585   4.669   3.304  0.0514 -0.6889  0.1904
17916TIP3    H275240   5.635   4.646   3.445  0.8307  0.8621  0.2011
17917TIP3   OH275241   4.866   6.389  15.724  0.2938  0.2849  0.7322
17917TIP3    H175242   4.919   6.336  15.665 -2.8820 -0.9803 -1.2556
17917TIP3    H275243   4.848   6.332  15.798  0.4986  0.1772  0.6993
17918TIP3   OH275244   2.527   2.106   1.234 -0.1300  0.2432  0.0673
17918TIP3    H175245   2.552   2.089   1.325  1.4852  1.4781 -0.1103
17918TIP3    H275246   2.591   2.058   1.182  0.1576  1.1370 -0.4133
17919TIP3   OH275247   5.562   2.980  11.260 -0.2554 -0.6332  0.2958
17919TIP3    H175248   5.602   3.061  11.291 -1.2188  0.2354 -0.6442
17919TIP3    H275249   5.523   3.004  11.175  0.1172 -2.2746 -0.3757
17920TIP3   OH275250   1.537   4.761  11.729 -0.0357 -0.4459 -0.2633
17920TIP3    H175251   1.554   4.734  11.638 -2.0619 -1.0858 -0.5140
17920TIP3    H275252   1.463   4.822  11.722  0.6953  0.6209  0.8627
17921TIP3   OH275253   0.967   3.127   1.604  0.2376 -0.8425 -0.4311
17921TIP3    H175254   0.893   3.139   1.664  0.6990 -0.5547  0.0970
17921TIP3    H275255   1.044   3.154   1.655  0.5109  0.7056 -1.5767
17922TIP3   OH275256   0.169   3.897   3.854  0.5608  0.3751 -0.2126
17922TIP3    H175257   0.088   3.941   3.826 -0.5615 -1.7505 -0.5305
17922TIP3    H275258   0.233   3.920   3.787 -0.5177  0.0442 -1.4102
17923TIP3   OH275259   1.182   2.632  14.946  0.0797 -0.2607 -0.1211
17923TIP3    H175260   1.233   2.709  14.973  0.8951 -0.5688 -0.7416
17923TIP3    H275261   1.136   2.605  15.025  1.2041 -0.2145  0.5635
17924TIP3   OH275262   6.258   3.511  11.634 -0.3487  0.1707 -0.8973
17924TIP3    H175263   6.258   3.416  11.619 -1.9179  0.0979 -0.6350
17924TIP3    H275264   6.328   3.525  11.698 -0.6164 -0.9197 -0.3306
17925TIP3   OH275265   5.008   3.989   3.534 -0.6207 -0.3959 -0.1758
17925TIP3    H175266   4.985   4.023   3.620 -0.9019 -1.2089  0.0830
17925TIP3    H275267   5.045   3.902   3.551 -2.7096 -1.5170 -1.0065
17926TIP3   OH275268   5.566   6.534   5.676 -0.1189 -0.2689 -0.3910
17926TIP3    H175269   5.629   6.493   5.735 -2.0922 -2.8702  0.0868
17926TIP3    H275270   5.512   6.588   5.733 -0.1523 -0.3858 -0.3119
17927TIP3   OH275271   4.236   3.732  14.875 -0.6637 -0.0410  0.0223
17927TIP3    H175272   4.192   3.816  14.879  0.5801  0.6314  0.2334
17927TIP3    H275273   4.178   3.676  14.825 -1.5383  0.9267 -0.0646
17928TIP3   OH275274   5.936   0.216   5.017 -0.0760 -0.2109  0.1610
17928TIP3    H175275   5.949   0.310   5.006  2.2221 -0.5601 -0.5718
17928TIP3    H275276   6.017   0.185   5.058 -1.6676 -1.5870  2.4925
17929TIP3   OH275277   3.376   3.988  12.077  0.6168 -0.0766  0.0856
17929TIP3    H175278   3.374   3.958  11.986 -1.0991  0.3379 -0.0469
17929TIP3    H275279   3.320   3.927  12.124 -1.1246  1.5321  0.2229
17930TIP3   OH275280   4.446   1.405  14.913 -0.2160  0.2909 -0.2719
17930TIP3    H175281   4.499   1.361  14.846  0.5483  0.3886  0.2461
17930TIP3    H275282   4.422   1.336  14.974  0.7300  0.4981  0.3783
17931TIP3   OH275283   0.260   5.193   1.334  0.0440  0.4208  0.4904
17931TIP3    H175284   0.193   5.257   1.308  0.1388  0.4611  0.3381
17931TIP3    H275285   0.295   5.227   1.416 -0.3125  0.2545  0.7090
17932TIP3   OH275286   4.841   3.680  12.477 -0.4457 -0.0299  0.6727
17932TIP3    H175287   4.875   3.760  12.518 -3.0488  0.1752  2.6875
17932TIP3    H275288   4.871   3.610  12.535  1.4652 -0.5634 -0.8542
17933TIP3   OH275289   1.786   5.704  12.460 -0.5847  0.9081 -0.1228
17933TIP3    H175290   1.846   5.778  12.469 -0.8008  0.9070  1.6696
17933TIP3    H275291   1.785   5.663  12.546 -2.0595  0.0538 -0.5125
17934TIP3   OH275292   5.374   3.395   3.676  0.9267  0.4902 -0.4934
17934TIP3    H175293   5.347   3.308   3.649  1.2372 -0.0298  0.8122
17934TIP3    H275294   5.455   3.411   3.627  0.2287  0.5855 -1.6729
17935TIP3   OH275295   4.131   5.554   3.045  0.3267 -0.5613  1.0117
17935TIP3    H175296   4.195   5.577   2.978  0.9006  0.4515  1.8694
17935TIP3    H275297   4.158   5.468   3.076 -0.4003 -1.3978 -0.5579
17936TIP3   OH275298   2.826   6.747  13.336 -0.0296 -0.5273 -0.0567
17936TIP3    H175299   2.751   6.807  13.336 -0.3340 -0.8585 -1.3715
17936TIP3    H275300   2.789   6.664  13.367  0.0692 -0.3914  0.4267
17937TIP3   OH275301   2.376   3.260  12.915 -0.0815  0.1642  0.2282
17937TIP3    H175302   2.430   3.267  12.837  0.9146 -1.8211  0.6667
17937TIP3    H275303   2.424   3.309  12.982 -0.3633  0.9051 -0.0978
17938TIP3   OH275304   4.385   2.440   1.972 -0.1267  0.0356 -0.2625
17938TIP3    H175305   4.478   2.420   1.976 -0.1431 -0.4580 -1.7584
17938TIP3    H275306   4.378   2.506   1.903 -0.8012  0.7469  0.4552
17939TIP3   OH275307   4.848   5.567   6.483  0.7412 -0.3276  0.3837
17939TIP3    H175308   4.825   5.474   6.482  0.4894 -0.2967  1.4906
17939TIP3    H275309   4.884   5.582   6.571 -0.0989  0.8178  0.5631
17940TIP3   OH275310   0.272   6.642   3.757 -0.2227  0.7579 -0.4952
17940TIP3    H175311   0.221   6.722   3.746 -2.7598 -0.7827 -0.8157
17940TIP3    H275312   0.213   6.583   3.805  1.4169 -1.0245 -0.5682
17941TIP3   OH275313   5.611   0.920   4.227 -0.4301  0.6179 -0.2821
17941TIP3    H175314   5.609   0.989   4.161  1.2633  0.4475 -0.5700
17941TIP3    H275315   5.678   0.859   4.195 -1.5702 -0.9368  0.1870
17942TIP3   OH275316   2.653   6.806   2.329 -0.1499 -0.4847 -0.3596
17942TIP3    H175317   2.632   6.864   2.402 -1.8328  0.3533 -1.4672
17942TIP3    H275318   2.736   6.840   2.295  1.0547 -1.3280  1.5427
17943TIP3   OH275319   6.009   2.869  12.580  0.4019 -0.2068 -0.0371
17943TIP3    H175320   5.914   2.877  12.571  0.3375 -1.5538 -0.8041
17943TIP3    H275321   6.045   2.940  12.528 -0.1786  0.5522  0.5797
17944TIP3   OH275322   0.642   1.607   0.059  0.4002  0.5451  0.2658
17944TIP3    H175323   0.604   1.540   0.003 -0.8493  1.9455 -0.6172
17944TIP3    H275324   0.734   1.611   0.033  0.5877 -1.0211  0.5684
17945TIP3   OH275325   4.824   3.193   4.539  0.4635  0.3415 -0.1562
17945TIP3    H175326   4.757   3.195   4.470  0.7302 -0.7680 -0.4804
17945TIP3    H275327   4.855   3.102   4.539  0.0118  0.1445  1.8766
17946TIP3   OH275328   5.421   0.720   3.438  0.0934  0.1218  0.1086
17946TIP3    H175329   5.367   0.796   3.416 -2.3191 -0.9478  1.8822
17946TIP3    H275330   5.495   0.756   3.486 -2.0166  1.3427  2.7110
17947TIP3   OH275331   1.785   4.975   6.383  0.2154  0.5565  0.0679
17947TIP3    H175332   1.836   5.052   6.357  1.8762  0.4959  2.7031
17947TIP3    H275333   1.725   5.007   6.450  1.4996 -0.4727  1.8152
17948TIP3   OH275334   1.018   5.208  13.520  0.1621 -0.3692 -0.7808
17948TIP3    H175335   0.941   5.175  13.568  1.6750 -1.4842  1.0455
17948TIP3    H275336   1.041   5.289  13.565  2.5043 -2.1824  1.6442
17949TIP3   OH275337   0.757   4.635   2.855  0.3296 -0.1884  0.4882
17949TIP3    H175338   0.846   4.623   2.889  0.6795 -0.5394 -0.5331
17949TIP3    H275339   0.766   4.626   2.760 -0.6793  0.4876  0.3121
17950TIP3   OH275340   0.461   1.211   4.028 -0.4246  0.0715  0.1118
17950TIP3    H175341   0.475   1.299   3.992 -1.7628  0.8801  1.4816
17950TIP3    H275342   0.421   1.162   3.956 -1.8968  1.2941  0.0565
17951TIP3   OH275343   1.925   6.416  14.741 -0.0203 -0.1543  0.4730
17951TIP3    H175344   1.988   6.488  14.730  1.7007 -1.4274  1.3720
17951TIP3    H275345   1.839   6.458  14.740  0.7514  1.5803 -1.7009
17952TIP3   OH275346   1.857   0.901  12.326  0.5741 -0.1699 -0.0602
17952TIP3    H175347   1.938   0.900  12.378 -0.2768  1.6081  1.4239
17952TIP3    H275348   1.883   0.865  12.241  3.1614  1.2253  0.0238
17953TIP3   OH275349   3.159   3.768  12.092 -0.0792 -0.3033  0.4382
17953TIP3    H175350   3.112   3.808  12.166  1.5956  1.4976  0.5998
17953TIP3    H275351   3.171   3.677  12.119  1.1745  0.4655  2.8251
17954TIP3   OH275352   2.210   3.713  11.760 -0.3898  0.0435 -0.3070
17954TIP3    H175353   2.207   3.623  11.794 -3.8421  0.2526  0.2836
17954TIP3    H275354   2.234   3.703  11.668  0.5406 -1.3212  0.0515
17955TIP3   OH275355   0.812   0.364   1.807  0.4171  0.2202 -0.0374
17955TIP3    H175356   0.820   0.459   1.800 -0.0557  0.2290 -0.4673
17955TIP3    H275357   0.726   0.349   1.846  0.4200 -0.0358 -0.1248
17956TIP3   OH275358   4.159   0.473   1.780  0.0090 -0.5238  0.3525
17956TIP3    H175359   4.110   0.549   1.811  2.2106  1.3151 -0.3952
17956TIP3    H275360   4.120   0.399   1.826 -1.5325  1.1725  1.9465
17957TIP3   OH275361   6.168   1.318  14.201  0.1506 -0.2743 -0.1022
17957TIP3    H175362   6.198   1.267  14.277  0.0947 -0.8956 -0.4888
17957TIP3    H275363   6.211   1.276  14.126 -1.3275 -0.9139 -0.6309
17958TIP3   OH275364   3.244   5.902  14.386 -0.1055 -0.5788  0.3347
17958TIP3    H175365   3.183   5.927  14.316  0.1902  0.1747  0.3338
17958TIP3    H275366   3.299   5.834  14.347 -2.0916 -2.6306  0.9003
17959TIP3   OH275367   0.531   4.873  12.950 -0.5524 -0.2274  0.4453
17959TIP3    H175368   0.555   4.962  12.977 -1.3129 -0.1763  1.0011
17959TIP3    H275369   0.609   4.821  12.966  0.2310  0.5099 -0.8042
17960TIP3   OH275370   1.224   2.118   1.388 -0.6254 -0.0027 -0.2512
17960TIP3    H175371   1.298   2.179   1.394 -1.3462  0.8715  0.1060
17960TIP3    H275372   1.148   2.174   1.369 -1.0561 -0.9804 -1.5999
17961TIP3   OH275373   3.777   2.755   0.917 -0.2340  0.3211  0.5465
17961TIP3    H175374   3.752   2.774   0.826 -0.5368  0.9953  0.7612
17961TIP3    H275375   3.772   2.660   0.924  1.0205  0.1532 -0.4876
17962TIP3   OH275376   2.609   3.310   5.640  0.2464 -0.4222 -0.1694
17962TIP3    H175377   2.562   3.232   5.609  1.6799 -1.3323 -0.1819
17962TIP3    H275378   2.646   3.284   5.724  1.8206 -0.2322 -0.7599
17963TIP3   OH275379   5.704   5.116   3.464 -0.0107  0.3870  0.4114
17963TIP3    H175380   5.672   5.079   3.546  0.1872 -1.6350 -0.3642
17963TIP3    H275381   5.796   5.090   3.460 -0.0604  0.3150 -0.5263
17964TIP3   OH275382   1.935   5.409  13.175  0.4046 -0.2952  0.5832
17964TIP3    H175383   2.005   5.358  13.216 -0.2355  0.7765  3.2072
17964TIP3    H275384   1.858   5.353  13.183  0.0723  0.3270  1.7888
17965TIP3   OH275385   0.770   2.906   1.981  0.3737  1.2998 -0.0428
17965TIP3    H175386   0.841   2.874   2.036  0.4573  0.2538 -0.7531
17965TIP3    H275387   0.810   2.923   1.896 -0.4444 -0.5951 -0.8643
17966TIP3   OH275388   0.857   5.926  16.778  0.1327 -0.0016 -0.2002
17966TIP3    H175389   0.866   5.987  16.851  0.7153 -0.1489 -0.1424
17966TIP3    H275390   0.775   5.951  16.736  0.0794  0.4538  0.1627
17967TIP3   OH275391   3.920   5.209   3.774 -0.2392 -0.2726 -0.3967
17967TIP3    H175392   3.989   5.195   3.839 -1.0191 -2.2153  0.0941
17967TIP3    H275393   3.934   5.298   3.742  0.7167  0.4161  1.7714
17968TIP3   OH275394   3.790   4.156   4.111 -0.3621 -0.9670 -0.0271
17968TIP3    H175395   3.806   4.129   4.202  1.4601  1.5682  0.5288
17968TIP3    H275396   3.840   4.238   4.102 -1.8398 -0.2677 -2.8356
17969TIP3   OH275397   4.419   4.151  14.907  0.3065  0.0835  0.8648
17969TIP3    H175398   4.354   4.150  14.836  2.7437  0.2531 -1.5251
17969TIP3    H275399   4.393   4.078  14.963 -2.1027  0.3479  0.2218
17970TIP3   OH275400   4.903   3.495   2.153 -0.1901 -0.1616  0.1550
17970TIP3    H175401   4.880   3.422   2.210 -1.2729 -0.5301 -0.6972
17970TIP3    H275402   4.995   3.511   2.170 -0.0298 -1.4636  0.6663
17971TIP3   OH275403   6.195   1.757   5.239  0.1497  0.4613 -0.1308
17971TIP3    H175404   6.267   1.760   5.302  0.7947 -4.9428 -0.1357
17971TIP3    H275405   6.233   1.791   5.157  2.3538 -0.9692  0.2114
17972TIP3   OH275406   0.794   6.181   4.701  1.0975  0.2185  0.2978
17972TIP3    H175407   0.761   6.267   4.729 -0.5379 -0.4772  0.6346
17972TIP3    H275408   0.718   6.123   4.709  2.5266 -1.5979  1.5295
17973TIP3   OH275409   3.912   1.574  12.279 -0.0201  1.2858  0.1692
17973TIP3    H175410   3.904   1.520  12.200 -0.8826  0.3873  0.8416
17973TIP3    H275411   3.961   1.651  12.251  0.5272  0.5304 -1.0120
17974TIP3   OH275412   4.036   5.295  13.478 -0.5641  0.7561  0.0806
17974TIP3    H175413   4.098   5.247  13.424 -0.7177  1.8196 -1.0818
17974TIP3    H275414   3.965   5.233  13.495  0.4215 -0.2175  0.7760
17975TIP3   OH275415   3.603   0.927  13.112 -0.2979  0.6486 -0.2516
17975TIP3    H175416   3.654   0.961  13.039  0.0327  1.3478  0.2905
17975TIP3    H275417   3.659   0.859  13.151  0.5956  1.9079  0.7897
17976TIP3   OH275418   5.916   5.637   0.183 -0.9287  0.0497  0.0284
17976TIP3    H175419   5.904   5.542   0.191 -0.4833 -0.0764 -0.6533
17976TIP3    H275420   5.959   5.648   0.098 -1.0715  0.8743  0.0558
17977TIP3   OH275421   3.617   1.768   2.137 -0.1126 -0.0313  0.4729
17977TIP3    H175422   3.580   1.855   2.125 -0.9587 -0.2513  1.3286
17977TIP3    H275423   3.704   1.772   2.097  0.1769  1.4322  1.1990
17978TIP3   OH275424   3.660   2.968  12.478 -0.0708 -0.7539  0.8915
17978TIP3    H175425   3.587   3.029  12.463  0.7051 -0.1741 -0.6529
17978TIP3    H275426   3.690   2.989  12.567  2.6151  3.8855 -0.7933
17979TIP3   OH275427   0.445   0.149  12.580  0.3617  0.2425 -0.4744
17979TIP3    H175428   0.529   0.116  12.549  0.5416 -0.0267  0.2762
17979TIP3    H275429   0.468   0.217  12.643  0.0395 -0.5108  0.4781
17980TIP3   OH275430   5.915   1.766  16.804  0.8874  0.6123  0.0219
17980TIP3    H175431   5.894   1.697  16.741 -0.8388  1.3382 -0.2567
17980TIP3    H275432   5.958   1.721  16.876 -1.4344 -1.0472  0.5018
17981TIP3   OH275433   3.464   0.048   4.938  0.4479 -0.1384 -0.5074
17981TIP3    H175434   3.529   0.000   4.989  0.2930  0.8347  0.6598
17981TIP3    H275435   3.506   0.131   4.917 -0.3336  0.4591  0.1685
17982TIP3   OH275436   1.921   1.607  11.022 -0.4272  0.1516  0.1943
17982TIP3    H175437   1.838   1.578  10.985  0.1617 -0.7181 -0.4971
17982TIP3    H275438   1.978   1.620  10.946  0.9787 -2.1809  0.7430
17983TIP3   OH275439   3.876   0.134  13.042  0.0847  0.1174  0.2146
17983TIP3    H175440   3.831   0.119  13.125  1.1188 -1.1335  0.5893
17983TIP3    H275441   3.898   0.046  13.011 -1.4553  0.4361 -2.0968
17984TIP3   OH275442   6.696   5.648  15.384 -0.2136 -0.1091 -0.3315
17984TIP3    H175443   6.660   5.737  15.378 -0.8243 -0.2331  1.1566
17984TIP3    H275444   6.630   5.598  15.431  0.4339 -1.1986 -0.5495
17985TIP3   OH275445   1.264   4.412  15.766  0.0452 -0.3430  0.3011
17985TIP3    H175446   1.243   4.417  15.672 -1.8894 -0.7665  0.6517
17985TIP3    H275447   1.325   4.339  15.773  0.8049  0.1778 -0.7136
17986TIP3   OH275448   4.687   5.595   4.506  0.3733  0.1914 -0.6082
17986TIP3    H175449   4.776   5.622   4.528  0.2158 -0.0394  0.3637
17986TIP3    H275450   4.656   5.548   4.583 -0.7605  0.6621 -0.7509
17987TIP3   OH275451   5.022   4.469   6.617  0.0731 -0.1637 -0.1792
17987TIP3    H175452   4.961   4.395   6.611  1.0799 -1.0350  0.0308
17987TIP3    H275453   5.020   4.509   6.530 -0.5372 -0.3850 -0.2738
17988TIP3   OH275454   4.744   5.302   1.338 -0.3138 -0.4577  0.1080
17988TIP3    H175455   4.801   5.356   1.284 -0.4841  0.2167  0.5966
17988TIP3    H275456   4.803   5.237   1.377 -0.3585 -1.6778 -1.7520
17989TIP3   OH275457   6.584   4.513  11.211 -0.4614  0.0014 -0.4403
17989TIP3    H175458   6.644   4.438  11.213  2.3312  1.9547  4.0325
17989TIP3    H275459   6.634   4.582  11.167 -0.6962  0.7475  0.4382
17990TIP3   OH275460   0.203   3.412   4.454 -0.6158  0.2489 -0.1723
17990TIP3    H175461   0.229   3.432   4.364  1.4775  0.3248  0.3763
17990TIP3    H275462   0.187   3.497   4.494  2.4206  0.5990  0.5442
17991TIP3   OH275463   3.396   5.968   4.319 -0.1423  0.0135 -0.1939
17991TIP3    H175464   3.372   5.875   4.318  0.9732 -0.3253 -2.5666
17991TIP3    H275465   3.329   6.009   4.374 -0.0387 -2.3075  1.8254
17992TIP3   OH275466   2.045   0.796  15.662 -0.3286 -0.4702  0.0731
17992TIP3    H175467   2.035   0.864  15.595  0.8666 -1.6714 -1.4120
17992TIP3    H275468   2.112   0.738  15.627 -1.9625 -2.9644  0.8068
17993TIP3   OH275469   4.288   0.722  13.071  0.2449  0.4324 -0.6586
17993TIP3    H175470   4.357   0.746  13.009  0.9230  0.2960  0.0287
17993TIP3    H275471   4.297   0.627  13.081 -0.0996  0.4032 -0.6329
17994TIP3   OH275472   3.713   0.068  17.133  0.5477  0.8511 -0.4369
17994TIP3    H175473   3.665   0.047  17.213  2.3353 -0.4320  0.3658
17994TIP3    H275474   3.645   0.077  17.066 -1.0307  2.2913  1.2383
17995TIP3   OH275475   1.404   3.272   0.176  0.1558  0.2013  0.6320
17995TIP3    H175476   1.334   3.314   0.226  0.2591 -0.4383  1.3191
17995TIP3    H275477   1.367   3.188   0.149  0.0460  0.6003 -0.5024
17996TIP3   OH275478   2.805   6.426   5.247  0.4886  0.1198  0.5076
17996TIP3    H175479   2.789   6.419   5.153  1.1938 -0.9377  0.4619
17996TIP3    H275480   2.735   6.484   5.278 -1.7328 -2.0421 -0.1587
17997TIP3   OH275481   1.188   0.457  15.474  0.1851  0.3798  1.0936
17997TIP3    H175482   1.234   0.541  15.479  2.6708 -0.6492 -1.6994
17997TIP3    H275483   1.242   0.397  15.525 -0.1718 -0.0696  0.9495
17998TIP3   OH275484   6.333   5.958  11.109 -0.0877  0.6932 -0.7701
17998TIP3    H175485   6.288   5.956  11.024 -1.0762 -0.8255 -0.2623
17998TIP3    H275486   6.316   6.045  11.144 -2.9462  0.1217 -0.4968
17999TIP3   OH275487   3.506   5.721   2.238 -1.3879  0.0528 -0.0955
17999TIP3    H175488   3.575   5.657   2.258 -1.2552  0.0010 -0.7218
17999TIP3    H275489   3.512   5.734   2.144 -2.5965 -0.3624 -0.2444
18000TIP3   OH275490   0.003   0.767  11.360  0.5260 -0.1152  0.2729
18000TIP3    H175491   0.098   0.775  11.356  0.3724  2.0304 -0.5331
18000TIP3    H275492  -0.019   0.708  11.288  1.1939  0.1282 -0.1360
18001TIP3   OH275493   5.282   3.521  15.876  0.0013  0.4855 -0.0704
18001TIP3    H175494   5.333   3.441  15.869 -0.4178  0.3078 -1.7219
18001TIP3    H275495   5.210   3.509  15.813 -3.3578 -0.1616  3.5314
18002TIP3   OH275496   0.284   3.392   1.163  0.3836 -0.1089  0.6132
18002TIP3    H175497   0.316   3.369   1.251  0.8920 -0.7704  0.2684
18002TIP3    H275498   0.205   3.339   1.153 -0.4577  0.9915  1.1878
18003TIP3   OH275499   6.777   2.269  16.159 -0.5000 -0.5839  0.5245
18003TIP3    H175500   6.836   2.207  16.117 -0.2785 -0.7309  1.0405
18003TIP3    H275501   6.690   2.242  16.132 -0.3579 -0.6282  0.1025
18004TIP3   OH275502   6.772   2.377  15.431 -0.0445 -0.0189  0.3508
18004TIP3    H175503   6.747   2.417  15.348  0.3098 -1.8703 -0.6940
18004TIP3    H275504   6.804   2.450  15.483 -1.3267  1.3595 -0.7045
18005TIP3   OH275505   2.578   2.136   2.813  0.7039  0.2382 -0.3681
18005TIP3    H175506   2.602   2.149   2.904 -0.4329  2.5632 -0.3289
18005TIP3    H275507   2.503   2.077   2.815 -0.1340  1.2937  0.3443
18006TIP3   OH275508   5.518   1.622   2.943  0.2589  0.4841 -0.2235
18006TIP3    H175509   5.478   1.691   2.889  1.3591  3.1863  2.1210
18006TIP3    H275510   5.607   1.616   2.911  0.8486  1.9378  0.9755
18007TIP3   OH275511   2.813   6.301  13.600 -0.1989 -0.6752 -0.2257
18007TIP3    H175512   2.848   6.344  13.679 -0.4849 -0.9142  0.0366
18007TIP3    H275513   2.771   6.372  13.551  0.7453 -0.3657 -0.6040
18008TIP3   OH275514   1.183   4.170   1.476 -0.5016 -0.1939 -0.0238
18008TIP3    H175515   1.097   4.204   1.502  0.0618 -0.5153  2.5616
18008TIP3    H275516   1.246   4.226   1.521  0.6815 -0.0553 -1.7683
18009TIP3   OH275517   3.588   6.688  10.947  0.0081  0.8409  0.1274
18009TIP3    H175518   3.519   6.679  10.882 -1.9654  1.1458  2.0850
18009TIP3    H275519   3.666   6.652  10.904 -1.7787 -1.4417 -1.4328
18010TIP3   OH275520   5.602   0.812  14.221 -0.3801 -0.5419  0.0143
18010TIP3    H175521   5.614   0.724  14.258  1.9793 -0.8919 -1.3332
18010TIP3    H275522   5.596   0.870  14.297  1.5795 -1.5231  1.0007
18011TIP3   OH275523   5.981   0.715  12.889 -0.0123  0.9053 -0.5003
18011TIP3    H175524   6.064   0.740  12.848  1.6966 -1.5524  1.1209
18011TIP3    H275525   5.998   0.727  12.983 -1.8595  1.1811 -0.1746
18012TIP3   OH275526   0.818   3.645  16.900 -0.1498  0.5943 -0.0729
18012TIP3    H175527   0.780   3.730  16.877 -0.0719  0.8853  0.8478
18012TIP3    H275528   0.910   3.665  16.920  0.1899  0.0884 -1.0923
18013TIP3   OH275529   2.023   4.779  11.997  0.4093 -0.1100 -0.0336
18013TIP3    H175530   1.934   4.799  11.968  0.2065 -2.0113 -0.9087
18013TIP3    H275531   2.012   4.709  12.062  1.1698  0.8952  1.2184
18014TIP3   OH275532   1.674   5.312  13.243 -0.1101 -0.3427 -0.5204
18014TIP3    H175533   1.676   5.236  13.185 -0.2475 -0.3405 -0.5259
18014TIP3    H275534   1.588   5.310  13.284 -0.4237  0.2648 -1.1343
18015TIP3   OH275535   5.607   5.130   3.735  0.4897 -0.0916 -0.4093
18015TIP3    H175536   5.649   5.178   3.807 -1.1964 -1.2912  1.5115
18015TIP3    H275537   5.647   5.043   3.739 -0.9154 -0.7364  0.3748
18016TIP3   OH275538   4.000   0.253   5.785 -0.3473 -0.1308 -0.5992
18016TIP3    H175539   3.991   0.348   5.781 -0.8849 -0.2117 -1.6433
18016TIP3    H275540   4.033   0.228   5.699  0.5863 -0.8219 -0.0589
18017TIP3   OH275541   2.130   5.563  15.701 -0.1771 -0.6952 -0.2696
18017TIP3    H175542   2.036   5.582  15.700 -0.3437 -1.4078  0.4832
18017TIP3    H275543   2.161   5.600  15.784  0.4774  0.6862 -1.1064
18018TIP3   OH275544   1.834   3.933   0.036  0.0998  0.2807  0.1814
18018TIP3    H175545   1.791   3.912  -0.047 -0.9821  1.5640  0.3801
18018TIP3    H275546   1.889   3.856   0.055 -1.4289 -1.0394 -0.5322
18019TIP3   OH275547   5.316   3.939   5.864  0.3774  0.1052  0.1240
18019TIP3    H175548   5.266   3.857   5.856  0.3056  0.0404  1.1291
18019TIP3    H275549   5.252   4.007   5.843  0.0165 -0.0145  0.7925
18020TIP3   OH275550   2.697   6.824  12.689  0.2780 -0.1432 -0.4664
18020TIP3    H175551   2.698   6.783  12.776 -1.6682  0.0237 -0.3356
18020TIP3    H275552   2.736   6.910  12.703 -1.5997  0.5800  0.6447
18021TIP3   OH275553   3.031   1.277  12.352 -0.2032 -0.0896  0.3003
18021TIP3    H175554   3.010   1.189  12.322  0.3174 -0.5566  1.2598
18021TIP3    H275555   3.123   1.290  12.329 -0.5299  0.5939 -0.7125
18022TIP3   OH275556   3.661   3.911  11.956  0.4219 -0.3299  0.4879
18022TIP3    H175557   3.665   3.984  12.018 -0.3247 -0.5417  0.7910
18022TIP3    H275558   3.693   3.948  11.873 -1.4844  0.8115  0.1952
18023TIP3   OH275559   4.981   3.983   1.131 -0.5478 -0.9715  0.0030
18023TIP3    H175560   4.938   4.055   1.086 -0.4069 -1.6688 -1.2683
18023TIP3    H275561   5.052   3.956   1.073 -0.0148 -1.5312  0.8833
18024TIP3   OH275562   5.292   3.402   4.672  0.0587  0.0266  0.3842
18024TIP3    H175563   5.292   3.371   4.582 -1.2482 -0.0668  0.3887
18024TIP3    H275564   5.321   3.327   4.724 -1.7474 -0.8168  0.2661
18025TIP3   OH275565   3.314   5.585   5.138 -0.1699 -0.4380 -0.6153
18025TIP3    H175566   3.240   5.643   5.126 -0.2986 -0.3055  0.6800
18025TIP3    H275567   3.280   5.498   5.120 -0.4582 -0.3067 -0.7029
18026TIP3   OH275568   6.195   2.091   5.489  0.0988  0.5353  0.1783
18026TIP3    H175569   6.191   2.139   5.572 -0.8435  0.9247 -0.0775
18026TIP3    H275570   6.285   2.105   5.458  0.2197  1.0544  0.7384
18027TIP3   OH275571   6.821   1.143   0.186  0.1965 -0.1905 -0.0476
18027TIP3    H175572   6.865   1.060   0.165  1.6428  1.0316 -2.1768
18027TIP3    H275573   6.737   1.137   0.141  0.3166 -0.4684 -0.2402
18028TIP3   OH275574   3.645   2.544  16.501 -0.7992 -0.6230  0.1384
18028TIP3    H175575   3.632   2.543  16.406 -2.2173 -2.3335  0.2822
18028TIP3    H275576   3.605   2.462  16.531  0.5849 -0.6562  2.1007
18029TIP3   OH275577   6.542   6.538  13.033  0.0384  0.7395  0.5448
18029TIP3    H175578   6.477   6.470  13.051  0.3505  0.8868  2.4079
18029TIP3    H275579   6.495   6.602  12.978 -0.9816  0.1937  0.7563
18030TIP3   OH275580   5.222   1.831  14.683 -0.1247  0.6002 -0.0257
18030TIP3    H175581   5.240   1.925  14.694  0.0440  0.5202  0.4304
18030TIP3    H275582   5.148   1.814  14.742  0.5910  0.2162  0.7815
18031TIP3   OH275583   4.260   5.960  12.067 -0.2155  0.1772 -0.5546
18031TIP3    H175584   4.181   5.957  12.122  0.3962 -0.3634  0.3181
18031TIP3    H275585   4.333   5.948  12.128  0.6507  2.0671 -1.1530
18032TIP3   OH275586   6.747   0.003   3.161 -0.5699  0.1448 -0.0354
18032TIP3    H175587   6.681   0.026   3.096  0.5580  0.4743 -1.0977
18032TIP3    H275588   6.814  -0.045   3.112 -0.2257 -0.6044  1.1046
18033TIP3   OH275589   0.863   6.162   1.785 -0.3085  0.0531 -0.6436
18033TIP3    H175590   0.836   6.146   1.695 -0.4133 -2.5856 -0.2299
18033TIP3    H275591   0.955   6.135   1.788  0.0927  1.3871 -0.2278
18034TIP3   OH275592   0.392   1.536  12.232  0.0137  0.1175  0.2468
18034TIP3    H175593   0.439   1.570  12.155 -0.9009 -0.2110 -0.4772
18034TIP3    H275594   0.308   1.582  12.230 -0.8641 -1.4391 -0.1915
18035TIP3   OH275595   0.286   1.795   3.930  0.2138  0.5049 -0.2272
18035TIP3    H175596   0.221   1.730   3.903  0.2877  0.8578 -1.3001
18035TIP3    H275597   0.237   1.855   3.987 -0.7446  1.4416 -1.9403
18036TIP3   OH275598   4.809   0.822   6.469 -0.0289  0.3587 -0.3506
18036TIP3    H175599   4.802   0.913   6.496 -0.5447  0.5380 -1.0602
18036TIP3    H275600   4.779   0.821   6.378  0.2197 -0.4738 -0.4373
18037TIP3   OH275601   5.044   3.058  13.267 -0.2622 -0.1786 -0.5825
18037TIP3    H175602   5.003   3.067  13.353  1.8413 -0.6181  0.5255
18037TIP3    H275603   5.119   3.000  13.282  0.9972  0.8899 -2.4260
18038TIP3   OH275604   3.612   3.886   3.351  0.2076 -0.5342  0.2464
18038TIP3    H175605   3.606   3.898   3.256  3.2928  1.0830  0.1062
18038TIP3    H275606   3.556   3.954   3.388  0.0635 -0.2684 -0.4478
18039TIP3   OH275607   2.899   5.779   3.796 -0.0207  0.1265  0.3207
18039TIP3    H175608   2.935   5.852   3.745 -1.1917  0.5651  0.0742
18039TIP3    H275609   2.971   5.750   3.851  1.0514  0.1835 -0.9903
18040TIP3   OH275610   4.957   5.025   4.334  0.5165 -0.1401 -0.4318
18040TIP3    H175611   5.010   4.990   4.405 -0.8135  0.2188  0.7803
18040TIP3    H275612   4.901   4.952   4.307  0.9184 -0.2362 -1.0360
18041TIP3   OH275613   3.644   4.448  10.980  0.0116 -0.6861 -0.1167
18041TIP3    H175614   3.697   4.449  10.901  1.3348  0.7635  0.7519
18041TIP3    H275615   3.705   4.468  11.051 -1.4301 -0.3906  1.0904
18042TIP3   OH275616   0.246   4.002  11.137  0.6569 -0.2558 -0.3262
18042TIP3    H175617   0.299   3.925  11.160  1.5288  0.5863  0.5937
18042TIP3    H275618   0.230   3.992  11.043  2.3533 -0.6345 -0.6212
18043TIP3   OH275619   5.994   1.397   2.072 -0.2966  0.0139  0.1906
18043TIP3    H175620   5.956   1.454   2.006 -1.3266  1.4257  1.9093
18043TIP3    H275621   5.963   1.309   2.049 -0.0032  0.3423 -1.5936
18044TIP3   OH275622   1.544   0.922  14.897  0.1240 -0.0100  0.0158
18044TIP3    H175623   1.612   0.858  14.879  2.3761  2.2824 -0.2942
18044TIP3    H275624   1.531   0.919  14.992  1.6559  0.3870  0.2602
18045TIP3   OH275625   6.490   4.826   4.504  0.0285 -0.3402 -0.0104
18045TIP3    H175626   6.515   4.873   4.584 -0.2762  0.9075 -0.6109
18045TIP3    H275627   6.411   4.871   4.474  0.4788 -0.3927 -1.3339
18046TIP3   OH275628   1.351   1.256   0.276  0.1465  0.1544  0.0486
18046TIP3    H175629   1.358   1.349   0.300 -0.3453  0.2178 -0.0355
18046TIP3    H275630   1.416   1.212   0.330  1.8384  0.8077 -1.3720
18047TIP3   OH275631   0.724   2.299  14.557 -0.0017 -0.5871  0.2754
18047TIP3    H175632   0.688   2.347  14.632 -2.3682  0.3645 -1.3634
18047TIP3    H275633   0.689   2.211  14.566 -1.9769  0.0465 -0.7073
18048TIP3   OH275634   0.882   3.514   4.418  0.1765 -0.0090  0.9105
18048TIP3    H175635   0.923   3.431   4.442  0.6135  0.4629  1.8253
18048TIP3    H275636   0.793   3.490   4.393  0.6885 -0.9177 -0.1333
18049TIP3   OH275637   2.079   2.210  13.143 -0.1655 -0.2935  0.4038
18049TIP3    H175638   2.026   2.201  13.222 -0.5325  1.3365  0.3829
18049TIP3    H275639   2.018   2.193  13.071 -0.1128 -0.6241  0.4358
18050TIP3   OH275640   5.384   1.413   0.711  0.1099 -0.3518  0.1650
18050TIP3    H175641   5.432   1.487   0.672 -0.4403 -0.3465 -0.5155
18050TIP3    H275642   5.359   1.445   0.798  0.2317  0.1168  0.0331
18051TIP3   OH275643   0.500   2.233  11.465 -0.3735 -0.1666  0.6356
18051TIP3    H175644   0.504   2.146  11.504 -1.9141 -0.1093  0.9841
18051TIP3    H275645   0.484   2.216  11.372  1.2851 -0.2622  0.3359
18052TIP3   OH275646   4.450   0.278   5.118 -0.2471  0.6776  0.0481
18052TIP3    H175647   4.434   0.262   5.025 -1.5876 -0.2289  0.3890
18052TIP3    H275648   4.415   0.365   5.134  1.6784  1.6370 -0.6339
18053TIP3   OH275649   1.973   3.221  12.634 -0.2415  0.5242 -0.0864
18053TIP3    H175650   2.004   3.240  12.545 -0.1713  0.6479 -0.0359
18053TIP3    H275651   1.952   3.128  12.633  0.6012  0.3221  0.0173
18054TIP3   OH275652   0.757   2.442  12.996 -0.0586  0.2188  0.8345
18054TIP3    H175653   0.838   2.474  13.037  0.7060  0.8432 -1.0382
18054TIP3    H275654   0.781   2.428  12.904 -1.8337 -0.5596  0.4497
18055TIP3   OH275655   5.038   0.189  16.686  0.0112  0.4003 -0.3603
18055TIP3    H175656   5.066   0.242  16.761 -0.5504 -0.8112  0.7562
18055TIP3    H275657   4.977   0.245  16.638 -0.5338  0.8139  0.7671
18056TIP3   OH275658   0.497   1.682   2.055  0.0045 -0.3286 -0.2615
18056TIP3    H175659   0.577   1.725   2.025  1.2220 -1.9477  0.5024
18056TIP3    H275660   0.454   1.651   1.975  0.9241 -0.7428 -0.6028
18057TIP3   OH275661   6.596   1.512  16.521  0.2787 -0.2692  0.1822
18057TIP3    H175662   6.522   1.516  16.460  0.3236  0.9141  0.1770
18057TIP3    H275663   6.669   1.479  16.468  0.0114 -0.4531 -0.0774
18058TIP3   OH275664   0.857   6.088  13.515  0.6075 -0.0180  0.0141
18058TIP3    H175665   0.873   6.159  13.578 -2.8817  0.1674  0.8779
18058TIP3    H275666   0.804   6.025  13.563  1.3914 -1.9507 -1.5487
18059TIP3   OH275667   6.523   0.798  17.149 -0.1566 -0.1527  0.6355
18059TIP3    H175668   6.469   0.736  17.100 -0.3526  0.6903 -0.2516
18059TIP3    H275669   6.474   0.815  17.229 -0.8729  0.0647  0.1572
18060TIP3   OH275670   5.077   5.722  16.937  0.5563 -0.3457 -0.3298
18060TIP3    H175671   5.062   5.816  16.947  1.2025 -0.1358 -1.2295
18060TIP3    H275672   5.160   5.716  16.890  0.6427 -1.3766 -0.0612
18061TIP3   OH275673   5.723   0.444  15.630 -0.1102 -0.6965 -0.2674
18061TIP3    H175674   5.729   0.533  15.596 -0.9052 -0.0259  1.2339
18061TIP3    H275675   5.712   0.389  15.553  2.1571  0.2904 -1.3769
18062TIP3   OH275676   0.815   5.538  15.421  0.1087 -0.0405  0.2198
18062TIP3    H175677   0.885   5.573  15.477  0.2547  2.2694 -1.2728
18062TIP3    H275678   0.860   5.510  15.341 -0.1890 -2.6811  0.8794
18063TIP3   OH275679   4.812   0.903  16.435  0.1340  0.1081 -0.0030
18063TIP3    H175680   4.813   0.973  16.500  1.8208  1.0734 -0.9608
18063TIP3    H275681   4.839   0.947  16.354 -1.0079 -1.2256 -1.1576
18064TIP3   OH275682   5.743   5.205  11.835  0.5490  0.0520  0.1521
18064TIP3    H175683   5.669   5.196  11.774 -0.4348 -2.1653  1.5576
18064TIP3    H275684   5.779   5.117  11.842  1.0514  0.3735  2.2342
18065TIP3   OH275685   5.816   6.696   1.518 -0.5601 -0.2210 -0.3420
18065TIP3    H175686   5.877   6.766   1.541  0.2859 -1.1075  0.1828
18065TIP3    H275687   5.826   6.632   1.589 -1.2885 -0.8843 -0.8349
18066TIP3   OH275688   3.319   3.264  16.534  0.0729 -0.4733 -0.5818
18066TIP3    H175689   3.361   3.181  16.556  0.7849 -0.7630 -2.7832
18066TIP3    H275690   3.230   3.256  16.570 -0.3779 -2.8399 -1.9937
18067TIP3   OH275691   0.381   1.317  16.405  0.0767 -0.2562 -0.7874
18067TIP3    H175692   0.435   1.268  16.344 -0.4222 -0.7662 -0.8296
18067TIP3    H275693   0.431   1.396  16.423  1.2686 -1.1327 -0.0939
18068TIP3   OH275694   2.903   2.289  16.842 -0.3251  0.1641  0.0367
18068TIP3    H175695   2.853   2.212  16.813  0.6571 -0.5266  0.1350
18068TIP3    H275696   2.866   2.309  16.928 -2.2399  1.3186 -0.9734
18069TIP3   OH275697   5.228   6.636  14.767  0.1681  0.3643 -0.1826
18069TIP3    H175698   5.180   6.582  14.704  0.2097  0.1877 -0.0640
18069TIP3    H275699   5.293   6.682  14.715 -0.5703  1.1195 -0.4468
18070TIP3   OH275700   5.869   2.402  16.565  0.2296 -0.4270 -0.0291
18070TIP3    H175701   5.884   2.405  16.659  0.2205  1.2894 -0.0622
18070TIP3    H275702   5.875   2.493  16.536 -0.0704 -0.8844 -1.6448
18071TIP3   OH275703   5.708   4.554  15.584 -0.7646  0.7772 -0.5908
18071TIP3    H175704   5.666   4.489  15.640  0.4057 -1.0275 -1.7248
18071TIP3    H275705   5.778   4.591  15.638  0.5021 -1.1051 -0.8445
18072TIP3   OH275706   3.702   2.824   2.470  0.0402  0.1229 -0.8648
18072TIP3    H175707   3.613   2.833   2.503  0.2193  0.5144 -0.4666
18072TIP3    H275708   3.731   2.914   2.455  0.4419  0.0101 -0.7847
18073TIP3   OH275709   6.534   6.832  11.891 -0.1317  0.2349  0.3705
18073TIP3    H175710   6.499   6.911  11.851 -1.7126  0.0872  1.4066
18073TIP3    H275711   6.473   6.763  11.866  0.7409 -0.5120  0.2288
18074TIP3   OH275712   2.445   0.384   5.903 -0.0957  0.2555  0.6007
18074TIP3    H175713   2.497   0.305   5.894  0.8038  1.0493 -2.1579
18074TIP3    H275714   2.355   0.352   5.917  0.4144 -1.1901  0.7289
18075TIP3   OH275715   6.144   2.430   1.950 -0.5559  0.8596  0.3891
18075TIP3    H175716   6.177   2.393   1.868  0.0250  1.0800  0.5215
18075TIP3    H275717   6.140   2.524   1.935  0.8445  1.0473  1.0559
18076TIP3   OH275718   5.594   2.620  11.282  0.3285  0.0677  0.4382
18076TIP3    H175719   5.565   2.691  11.339 -0.1523  0.2439 -0.0248
18076TIP3    H275720   5.685   2.604  11.308 -0.0828 -0.3064  1.7098
18077TIP3   OH275721   6.344   6.573   5.436 -0.1664  0.0813 -0.1823
18077TIP3    H175722   6.331   6.480   5.415  0.6556 -0.3431  1.0701
18077TIP3    H275723   6.288   6.588   5.512  1.2559  0.0570  0.8969
18078TIP3   OH275724   6.319   2.185  12.692  0.2809 -0.3365 -0.0753
18078TIP3    H175725   6.225   2.201  12.697  0.1500 -1.1747  0.2980
18078TIP3    H275726   6.346   2.169  12.783  0.3581 -2.3139 -0.3989
18079TIP3   OH275727   2.965   4.337  14.215  0.2189  0.3729  0.4120
18079TIP3    H175728   3.061   4.341  14.216  0.2080  1.1290  1.7937
18079TIP3    H275729   2.945   4.250  14.250  0.3888 -0.0036 -0.4033
18080TIP3   OH275730   1.635   4.609  15.779 -0.3226  0.4678  0.1699
18080TIP3    H175731   1.597   4.607  15.691 -0.6942 -0.2681  0.3411
18080TIP3    H275732   1.708   4.547  15.775 -1.2439 -0.6803  0.7771
18081TIP3   OH275733   5.331   2.239   3.152  0.0264  0.1426  0.5844
18081TIP3    H175734   5.290   2.187   3.083  1.4173  0.4576 -0.5275
18081TIP3    H275735   5.398   2.291   3.107  1.4273 -0.1054  2.2584
18082TIP3   OH275736   2.860   4.971  12.177 -0.4349 -0.1443 -0.4333
18082TIP3    H175737   2.903   5.032  12.117 -0.2917 -0.5077 -0.7069
18082TIP3    H275738   2.927   4.950  12.242 -0.8602  0.9383  0.3857
18083TIP3   OH275739   2.001   5.388   4.807  0.6236  0.5294 -0.3331
18083TIP3    H175740   1.991   5.305   4.853 -1.4559  0.3833 -0.9591
18083TIP3    H275741   2.054   5.366   4.730  2.3217  0.3633  0.8246
18084TIP3   OH275742   4.613   1.393  14.665 -0.7146 -0.0560 -0.0054
18084TIP3    H175743   4.580   1.464  14.610 -1.3194 -1.4326 -1.5181
18084TIP3    H275744   4.680   1.433  14.720 -1.7578  1.8724 -0.0814
18085TIP3   OH275745   0.787   5.204  12.193 -0.2674  0.2977 -0.1634
18085TIP3    H175746   0.762   5.120  12.155 -1.3031  0.3494  0.3645
18085TIP3    H275747   0.704   5.251  12.204 -0.0468  0.2099  2.3204
18086TIP3   OH275748   6.720   4.596  12.613  0.4194  0.0762  0.2140
18086TIP3    H175749   6.653   4.653  12.576  0.7017 -1.0540 -2.3192
18086TIP3    H275750   6.773   4.569  12.537  0.6906 -3.0067  1.3324
18087TIP3   OH275751   1.597   3.763  12.796  0.5683 -0.4879  0.4509
18087TIP3    H175752   1.521   3.822  12.803  0.5963 -0.5524  1.3993
18087TIP3    H275753   1.558   3.678  12.777  0.4673 -0.3323 -0.0445
18088TIP3   OH275754   2.423   0.811  10.897 -0.1378 -0.4794 -0.5362
18088TIP3    H175755   2.384   0.891  10.862  0.6121  0.3339  0.4287
18088TIP3    H275756   2.414   0.819  10.991  0.3112 -1.3563 -0.4056
18089TIP3   OH275757   0.510   5.424   5.974 -0.5177 -0.1170 -0.1880
18089TIP3    H175758   0.538   5.497   5.919 -1.0292  0.3412  0.1446
18089TIP3    H275759   0.419   5.443   5.994  0.0992  0.6919  2.2693
18090TIP3   OH275760   2.788   1.123   3.631  0.3152 -0.6499  0.0022
18090TIP3    H175761   2.699   1.146   3.655  0.5125  0.8388 -0.5742
18090TIP3    H275762   2.804   1.038   3.673 -0.1954  0.6103  2.9690
18091TIP3   OH275763   2.842   4.365   4.155  0.0747  0.0361  0.1809
18091TIP3    H175764   2.928   4.325   4.165  0.6797  1.4824  0.8882
18091TIP3    H275765   2.796   4.343   4.236  0.5790  1.1334  0.7871
18092TIP3   OH275766   3.202   6.550   5.177 -0.2448  0.0464  0.4606
18092TIP3    H175767   3.287   6.593   5.187 -0.0396  0.4830 -2.3726
18092TIP3    H275768   3.150   6.611   5.125 -1.5102 -1.1736  0.2280
18093TIP3   OH275769   3.922   3.005   3.886 -0.4522 -0.4074  0.1061
18093TIP3    H175770   3.855   3.045   3.832 -0.2542  0.1455  0.2580
18093TIP3    H275771   3.978   2.957   3.825 -0.9041 -0.7527 -0.0335
18094TIP3   OH275772   3.342   5.208  12.057  0.0879  0.4031  0.5278
18094TIP3    H175773   3.423   5.258  12.067 -0.3324  1.0196  0.9772
18094TIP3    H275774   3.292   5.227  12.137 -0.1296 -0.6694  0.6585
18095TIP3   OH275775   5.136   2.235  14.881  0.0548 -0.1606  0.5354
18095TIP3    H175776   5.070   2.293  14.919 -1.0147 -2.2201  2.0239
18095TIP3    H275777   5.220   2.271  14.910 -0.4400  1.5298  0.0267
18096TIP3   OH275778   2.513   2.434  15.982 -0.3455  0.2040 -0.0463
18096TIP3    H175779   2.447   2.366  15.990 -0.7992  0.3449 -1.9675
18096TIP3    H275780   2.465   2.516  15.995 -0.4149  0.2659 -0.6344
18097TIP3   OH275781   6.466   4.323  16.392  0.2200  0.2021 -0.3613
18097TIP3    H175782   6.446   4.407  16.433  0.3055  0.3778 -0.6781
18097TIP3    H275783   6.382   4.279  16.384  0.1281  0.4101 -0.5324
18098TIP3   OH275784   0.302   4.095  14.325  0.3297  0.7227 -0.1682
18098TIP3    H175785   0.261   4.055  14.249  1.4367  0.1888 -0.4992
18098TIP3    H275786   0.353   4.025  14.365  0.0811  1.0975  0.8419
18099TIP3   OH275787   5.956   5.232  12.524  0.6278 -0.5938 -0.5577
18099TIP3    H175788   6.027   5.290  12.496  0.7637 -0.6441 -0.3232
18099TIP3    H275789   5.877   5.268  12.483  1.0083 -1.4135 -2.0711
18100TIP3   OH275790   3.680   5.774  14.844 -0.0667 -0.6415 -0.0849
18100TIP3    H175791   3.728   5.691  14.847 -1.1422 -1.2765  0.2825
18100TIP3    H275792   3.641   5.774  14.756  0.7582 -0.0204 -0.4669
18101TIP3   OH275793   6.589   5.693   5.196  0.5272 -0.6810 -0.1843
18101TIP3    H175794   6.656   5.732   5.141  2.1876 -0.4044  1.9190
18101TIP3    H275795   6.546   5.767   5.239  0.2198 -0.9475 -0.0173
18102TIP3   OH275796   4.269   2.249  13.143  0.3715  0.3048  0.3968
18102TIP3    H175797   4.254   2.305  13.067 -1.4247 -1.4497 -0.6478
18102TIP3    H275798   4.246   2.303  13.218 -1.5680  0.9357 -0.5914
18103TIP3   OH275799   1.232   5.362   2.356 -0.3575 -0.3066  0.1173
18103TIP3    H175800   1.231   5.385   2.263 -0.9126 -1.9646 -0.3175
18103TIP3    H275801   1.265   5.441   2.400 -3.6634  1.9476 -1.0599
18104TIP3   OH275802   4.390   6.569   3.441  0.8003 -0.1279 -0.1887
18104TIP3    H175803   4.375   6.604   3.528 -0.0218  1.7511 -1.0432
18104TIP3    H275804   4.448   6.632   3.399  1.1434 -0.9791 -1.0222
18105TIP3   OH275805   0.235   1.019   2.350  0.0767 -0.4702 -0.1459
18105TIP3    H175806   0.251   0.975   2.266  1.2245 -0.2350 -0.0717
18105TIP3    H275807   0.221   0.948   2.412 -0.4048 -0.6579 -0.4628
18106TIP3   OH275808   5.382   0.986   3.296 -0.4450 -0.7446 -0.1488
18106TIP3    H175809   5.297   1.027   3.314  0.5570  0.2124  3.1562
18106TIP3    H275810   5.435   1.056   3.259 -0.3003 -0.5478  0.4238
18107TIP3   OH275811   0.130   5.662   0.342  1.0067  0.0009 -0.7408
18107TIP3    H175812   0.180   5.615   0.274  0.9416  0.5900 -1.2062
18107TIP3    H275813   0.099   5.593   0.401  1.2602 -0.5003 -1.1812
18108TIP3   OH275814   5.371   4.526  14.768 -0.1482 -0.2225 -0.9232
18108TIP3    H175815   5.354   4.489  14.854  0.1809 -1.1437 -1.2336
18108TIP3    H275816   5.352   4.619  14.777  0.4911 -0.1873  0.3100
18109TIP3   OH275817   0.966   4.648  16.314 -0.1769 -0.0753  0.6024
18109TIP3    H175818   0.999   4.679  16.230  0.7872  0.5021  1.1774
18109TIP3    H275819   0.923   4.565  16.294 -0.8440  0.5375 -0.6121
18110TIP3   OH275820   6.629   4.736   2.020 -0.0934  0.1690  1.1339
18110TIP3    H175821   6.648   4.729   2.114 -0.5229 -0.1002  1.2041
18110TIP3    H275822   6.649   4.649   1.985 -2.5511 -0.5980  1.4726
18111TIP3   OH275823   0.918   1.916   1.658 -0.3793  0.4396  0.2275
18111TIP3    H175824   0.850   1.865   1.701 -0.5855 -1.0835 -1.7764
18111TIP3    H275825   0.873   1.964   1.589  0.4689 -0.2755 -0.8672
18112TIP3   OH275826   3.566   0.607  12.846 -0.5576 -0.2176 -0.1925
18112TIP3    H175827   3.584   0.673  12.913 -0.7435  0.1203 -0.4675
18112TIP3    H275828   3.546   0.659  12.768 -0.0803 -0.6060 -0.5795
18113TIP3   OH275829   2.331   3.170   3.705 -0.4088 -0.0226 -0.2928
18113TIP3    H175830   2.352   3.219   3.784  0.2718 -1.5190  0.4812
18113TIP3    H275831   2.307   3.238   3.641  2.6198  1.5339  0.0359
18114TIP3   OH275832   5.606   1.394   3.569  0.0137  0.1338 -0.2657
18114TIP3    H175833   5.622   1.488   3.577  2.0114  0.0403 -2.3490
18114TIP3    H275834   5.518   1.388   3.531  1.0441  1.3858 -3.1609
18115TIP3   OH275835   4.869   1.942  11.000  0.0512  0.3717 -0.6013
18115TIP3    H175836   4.916   2.024  10.985 -0.5199  0.5444 -1.5261
18115TIP3    H275837   4.778   1.968  11.011 -0.1112 -0.1191 -0.7511
18116TIP3   OH275838   3.451   1.580   3.827  0.7590 -0.2488  0.0570
18116TIP3    H175839   3.515   1.532   3.880  0.5392 -0.4768  0.1152
18116TIP3    H275840   3.454   1.537   3.741 -0.0260 -0.8840  0.3484
18117TIP3   OH275841   5.345   3.996   4.855 -0.0566  0.5245 -0.4035
18117TIP3    H175842   5.387   3.974   4.772  0.0595 -0.2935 -0.1365
18117TIP3    H275843   5.391   4.074   4.886  0.7827  0.0626 -0.4662
18118TIP3   OH275844   5.903   3.944   5.268  0.8134  0.1881 -0.5674
18118TIP3    H175845   5.960   3.868   5.278  2.0597  1.1657  0.0359
18118TIP3    H275846   5.824   3.910   5.226  1.4887 -1.3597 -0.6318
18119TIP3   OH275847   2.040   2.420   3.210  0.1866  0.1130  0.8563
18119TIP3    H175848   1.992   2.351   3.255 -0.3971 -0.0122  0.0504
18119TIP3    H275849   1.973   2.476   3.171  0.6593  0.8758  1.1049
18120TIP3   OH275850   0.226   4.334  16.775  0.3604 -0.1562  0.3998
18120TIP3    H175851   0.277   4.273  16.828  0.3743  0.2202  0.8303
18120TIP3    H275852   0.237   4.419  16.818 -0.3504 -0.0053  0.3117
18121TIP3   OH275853   0.599   5.259  11.007  0.1893 -0.1480 -0.3888
18121TIP3    H175854   0.662   5.196  10.973  0.8407  0.5231 -0.4295
18121TIP3    H275855   0.530   5.262  10.940  0.2468 -0.6654 -0.4767
18122TIP3   OH275856   2.289   2.281   0.829  0.2802 -0.1008  0.0912
18122TIP3    H175857   2.211   2.317   0.870 -0.3653 -1.7370  0.3836
18122TIP3    H275858   2.324   2.219   0.893 -0.3343 -2.1711 -1.4365
18123TIP3   OH275859   2.091   1.509   2.663 -0.5022 -0.3994  0.3427
18123TIP3    H175860   2.103   1.415   2.650 -0.4819 -0.5960  1.6245
18123TIP3    H275861   2.175   1.547   2.636 -0.6779 -0.6873 -0.6490
18124TIP3   OH275862   2.099   0.840  12.784  0.2742  0.4018 -0.0085
18124TIP3    H175863   2.048   0.833  12.865 -0.1880  1.6221 -0.1742
18124TIP3    H275864   2.173   0.896  12.807  2.1142 -2.0275  0.4635
18125TIP3   OH275865   6.245   5.106  12.721 -0.7420  0.1611  0.2056
18125TIP3    H175866   6.298   5.077  12.795 -2.3050 -1.7795  0.6322
18125TIP3    H275867   6.289   5.069  12.645  1.1010  2.4947 -0.0038
18126TIP3   OH275868   4.512   6.625  14.922 -0.9251  0.3862 -0.1033
18126TIP3    H175869   4.603   6.610  14.898 -1.3878 -0.5025 -1.4214
18126TIP3    H275870   4.490   6.551  14.980 -0.6095  1.0226  0.8582
18127TIP3   OH275871   1.824   3.148  13.609 -0.1745 -0.2904  0.0189
18127TIP3    H175872   1.918   3.164  13.603 -0.2580  0.1462 -0.1227
18127TIP3    H275873   1.801   3.108  13.526  0.0992 -1.5278  0.5074
18128TIP3   OH275874   3.920   3.188  12.225 -0.2100  0.0819  0.3080
18128TIP3    H175875   3.950   3.114  12.278  0.5913  0.6401  0.6367
18128TIP3    H275876   3.830   3.164  12.201 -0.6839 -0.0904  2.0832
18129TIP3   OH275877   6.724   6.316  15.893  0.0662  0.2627 -0.0824
18129TIP3    H175878   6.738   6.242  15.952  0.5231  1.1440  0.9461
18129TIP3    H275879   6.811   6.356  15.882 -0.4325  1.7013  0.8375
18130TIP3   OH275880   2.287   4.034  16.081 -0.1130  0.0869  0.0888
18130TIP3    H175881   2.284   4.017  15.986 -0.1333  0.0120  0.1026
18130TIP3    H275882   2.378   4.017  16.105 -0.7224 -3.0369  0.6606
18131TIP3   OH275883   2.508   0.346  11.174 -0.0609 -0.0053 -0.0221
18131TIP3    H175884   2.419   0.322  11.202  0.1606  0.2028  0.8856
18131TIP3    H275885   2.525   0.290  11.098 -0.7943 -0.3756  0.0784
18132TIP3   OH275886   5.608   6.347   3.024 -0.2691  0.3399  0.0573
18132TIP3    H175887   5.577   6.265   3.062 -0.2830  0.5681  0.5428
18132TIP3    H275888   5.635   6.400   3.099  1.0752  0.2428 -0.3237
18133TIP3   OH275889   4.033   1.609   1.292 -0.4569 -0.5968 -0.5049
18133TIP3    H175890   4.092   1.618   1.217  1.6774  0.8640  1.2237
18133TIP3    H275891   3.964   1.673   1.277  1.3752  1.6097 -0.0678
18134TIP3   OH275892   6.467   1.267   1.882  0.8399 -0.0862  0.1445
18134TIP3    H175893   6.438   1.186   1.840  1.0237 -0.5644  0.9071
18134TIP3    H275894   6.386   1.311   1.907  0.6689  1.0989 -2.2859
18135TIP3   OH275895   4.873   1.840   6.579  0.2338 -0.1250 -0.4141
18135TIP3    H175896   4.923   1.772   6.623 -0.0030  1.3337  2.3217
18135TIP3    H275897   4.786   1.836   6.619 -0.2635  0.7889 -1.3231
18136TIP3   OH275898   2.540   5.461  13.004  0.1389 -0.0835  0.3161
18136TIP3    H175899   2.491   5.385  13.035  1.4568 -1.0746  0.0451
18136TIP3    H275900   2.472   5.526  12.985 -0.8934 -0.4441  2.4531
18137TIP3   OH275901   0.061   2.296  13.601 -0.1417 -0.0529 -0.3866
18137TIP3    H175902  -0.029   2.269  13.621 -0.6398  2.1952  0.6595
18137TIP3    H275903   0.092   2.230  13.539 -1.9801 -1.7330  0.3661
18138TIP3   OH275904   3.141   4.093  14.589  0.0313  0.1592 -0.0913
18138TIP3    H175905   3.181   4.170  14.548 -0.6359 -0.0852 -1.2448
18138TIP3    H275906   3.210   4.026  14.585 -0.0943  0.0601 -1.1034
18139TIP3   OH275907   2.347   2.490   2.061 -0.4270  0.1199  0.1282
18139TIP3    H175908   2.262   2.461   2.030 -0.5553 -1.2497  1.5977
18139TIP3    H275909   2.401   2.411   2.062  0.6430  0.8178 -0.0559
18140TIP3   OH275910   1.768   4.684  12.659  0.1536 -0.0356 -0.5611
18140TIP3    H175911   1.682   4.710  12.690 -0.7068 -2.3312 -0.8148
18140TIP3    H275912   1.809   4.765  12.629 -0.4833  1.6749  2.7926
18141TIP3   OH275913   1.641   6.168  14.565 -0.6872  0.2455 -0.6247
18141TIP3    H175914   1.649   6.264  14.559 -0.9966  0.2207 -1.7353
18141TIP3    H275915   1.730   6.136  14.549 -0.0261  0.3823  2.2680
18142TIP3   OH275916   1.370   5.802   4.976 -0.5112  0.0189  0.2388
18142TIP3    H175917   1.307   5.795   4.904 -0.4158 -0.0011  0.1572
18142TIP3    H275918   1.449   5.758   4.944 -0.6790 -0.5500  0.6016
18143TIP3   OH275919   0.785   1.586   5.440 -0.0067  0.3229 -0.2177
18143TIP3    H175920   0.721   1.578   5.511 -0.4271 -1.6583 -0.7622
18143TIP3    H275921   0.749   1.653   5.383 -1.4036 -0.4417 -0.2807
18144TIP3   OH275922   0.490   0.593  11.934  0.2854  0.6009  0.4056
18144TIP3    H175923   0.546   0.670  11.925 -1.4669  1.8990  0.0968
18144TIP3    H275924   0.549   0.519  11.921  1.9675  1.8762  0.3875
18145TIP3   OH275925   5.250   0.763   0.929 -0.2097 -0.6457 -0.1715
18145TIP3    H175926   5.187   0.720   0.872 -0.9670  0.3714 -0.1314
18145TIP3    H275927   5.200   0.788   1.006  0.5323 -0.9357  0.4192
18146TIP3   OH275928   2.207   5.449  14.832 -0.4325 -0.0355  0.7099
18146TIP3    H175929   2.195   5.378  14.895  0.5907 -0.4161  0.5029
18146TIP3    H275930   2.129   5.446  14.777 -1.2590  0.1963  1.8437
18147TIP3   OH275931   4.640   1.516   0.894 -0.3287 -0.4191  0.1120
18147TIP3    H175932   4.722   1.552   0.927 -0.7067 -0.4315  1.1038
18147TIP3    H275933   4.599   1.475   0.970 -0.5005 -1.8613 -0.7160
18148TIP3   OH275934   3.371   2.746   5.521  0.4564  0.3335  0.1565
18148TIP3    H175935   3.317   2.823   5.544 -0.3518 -0.8470  2.5918
18148TIP3    H275936   3.446   2.752   5.580  0.0683 -1.0363  0.8215
18149TIP3   OH275937   5.827   4.778   2.047 -0.2099  0.5915 -0.0897
18149TIP3    H175938   5.840   4.838   1.973  0.9255  1.0445  0.4369
18149TIP3    H275939   5.789   4.700   2.008 -2.2375  1.8208 -0.7294
18150TIP3   OH275940   2.065   4.548   4.124 -0.2714  0.2801 -0.2827
18150TIP3    H175941   2.066   4.531   4.218 -1.3334 -0.2683 -0.3428
18150TIP3    H275942   2.156   4.541   4.097 -0.2511 -2.5782  0.2229
18151TIP3   OH275943   6.690   4.312   0.894  0.7795 -0.2376 -0.0647
18151TIP3    H175944   6.660   4.324   0.804  0.4509 -0.4515  0.0156
18151TIP3    H275945   6.770   4.261   0.886 -0.5328 -2.4159 -0.1118
18152TIP3   OH275946   6.081   6.320  13.404  0.3898 -0.3529  0.3935
18152TIP3    H175947   6.092   6.295  13.313 -0.5896 -1.7714  0.6412
18152TIP3    H275948   6.062   6.239  13.450  3.6133 -0.1805  2.4008
18153TIP3   OH275949   4.617   6.622   4.279 -0.1453  0.4196 -0.1710
18153TIP3    H175950   4.668   6.596   4.202  1.2714  2.5627 -0.0405
18153TIP3    H275951   4.606   6.716   4.270 -2.3531  0.3303  0.9071
18154TIP3   OH275952   2.944   4.953   3.630 -0.1397 -0.4680 -0.2598
18154TIP3    H175953   2.905   5.018   3.689  3.5694  0.3779  1.5209
18154TIP3    H275954   2.937   4.870   3.677  1.0211 -0.1441  0.5108
18155TIP3   OH275955   5.831   2.570   3.874 -0.1368  0.1030  0.3635
18155TIP3    H175956   5.815   2.655   3.831 -0.2821 -0.6782 -1.2065
18155TIP3    H275957   5.850   2.510   3.802  3.0846 -0.5818  1.5978
18156TIP3   OH275958   6.817   3.547  12.611 -0.0311 -0.4414 -0.6209
18156TIP3    H175959   6.816   3.573  12.519 -1.4384 -2.1737 -1.1438
18156TIP3    H275960   6.900   3.501  12.622 -0.4483 -1.4210 -1.4141
18157TIP3   OH275961   6.342   2.479  16.456  0.1016  0.0571  0.3980
18157TIP3    H175962   6.310   2.417  16.390 -0.2622  0.2334  0.4030
18157TIP3    H275963   6.405   2.429  16.507  0.6932  0.0382 -0.3390
18158TIP3   OH275964   3.388   0.653   6.624  0.1361 -0.9365 -0.1634
18158TIP3    H175965   3.452   0.650   6.695 -0.7562  0.2973  0.7380
18158TIP3    H275966   3.436   0.691   6.550  0.6589 -0.7850  0.2490
18159TIP3   OH275967   6.379   1.993   4.680 -0.0652  0.7199 -0.2465
18159TIP3    H175968   6.321   2.038   4.618 -1.9511  0.6947  1.4171
18159TIP3    H275969   6.367   2.040   4.762  3.8930  2.0412 -0.2013
18160TIP3   OH275970   0.206   3.100  11.312 -0.7026 -0.1000  0.3579
18160TIP3    H175971   0.148   3.064  11.379  0.0335 -0.8686  0.5965
18160TIP3    H275972   0.255   3.168  11.358 -0.1610 -0.6621  0.6212
18161TIP3   OH275973   2.935   4.018   1.659 -0.5940  0.8254  0.5842
18161TIP3    H175974   2.957   4.029   1.752  0.4665 -1.3893  0.6773
18161TIP3    H275975   3.016   4.039   1.613 -0.3570 -0.4583  0.3781
18162TIP3   OH275976   5.915   6.695   0.816  0.5213 -0.3214 -0.0827
18162TIP3    H175977   5.920   6.651   0.900  0.9156  1.0744  0.6507
18162TIP3    H275978   5.976   6.768   0.823 -0.0651  0.3194 -1.2797
18163TIP3   OH275979   1.992   6.519  15.412  0.2621  1.7916  0.0235
18163TIP3    H175980   2.082   6.552  15.422  1.0965  0.6526 -2.7821
18163TIP3    H275981   2.003   6.424  15.402 -1.5174  1.3431  1.7217
18164TIP3   OH275982   2.926   5.720  14.073  0.0139 -0.2168 -0.0044
18164TIP3    H175983   2.952   5.641  14.025 -1.1219 -0.9353  0.5355
18164TIP3    H275984   2.830   5.719  14.072 -0.0474 -0.1371  2.0772
18165TIP3   OH275985   1.390   4.048   5.895 -0.3163  0.3800  0.5834
18165TIP3    H175986   1.384   4.069   5.988 -2.6591  0.9979  0.3618
18165TIP3    H275987   1.330   4.110   5.852  0.7792  0.1792 -1.3561
18166TIP3   OH275988   5.559   6.558  14.783 -0.0467 -0.1835  0.5169
18166TIP3    H175989   5.523   6.647  14.786  0.5478  0.0616  0.4578
18166TIP3    H275990   5.533   6.520  14.867  0.6066  0.4121  1.0061
18167TIP3   OH275991   0.084   1.313   4.479  0.4900  0.1864 -0.3450
18167TIP3    H175992   0.003   1.292   4.526  0.5142 -2.1966 -1.1992
18167TIP3    H275993   0.153   1.286   4.539  0.5684 -0.2528 -0.6231
18168TIP3   OH275994   5.560   5.633   2.228 -0.3799  0.1505 -0.0419
18168TIP3    H175995   5.624   5.596   2.290 -0.3968  0.1887 -0.0010
18168TIP3    H275996   5.481   5.581   2.241  0.6830 -2.3484 -2.6546
18169TIP3   OH275997   4.550   2.652  15.946  0.2254 -0.0061 -0.0973
18169TIP3    H175998   4.521   2.564  15.970  0.2852  0.1600  0.6133
18169TIP3    H275999   4.566   2.647  15.852  2.4635 -1.4178  0.2707
18170TIP3   OH276000   3.513   1.950   0.691  0.1065 -0.4192  0.3807
18170TIP3    H176001   3.450   1.885   0.661  2.1518 -1.2387 -2.6030
18170TIP3    H276002   3.577   1.901   0.741  0.3799 -0.2607  0.1877
18171TIP3   OH276003   4.832   4.114   5.314 -0.4294 -0.2612  0.6888
18171TIP3    H176004   4.846   4.044   5.251  0.0276 -0.7624  1.3459
18171TIP3    H276005   4.768   4.172   5.271  0.4686 -0.1708 -0.5679
18172TIP3   OH276006   3.520   0.943   1.888 -0.0507 -0.2101  0.2182
18172TIP3    H176007   3.438   0.938   1.840  0.2486 -0.0732 -0.3084
18172TIP3    H276008   3.495   0.924   1.979 -0.6832 -0.0215  0.0893
18173TIP3   OH276009   4.723   5.966  16.623  0.2222  0.0511  0.0255
18173TIP3    H176010   4.631   5.942  16.630 -0.0479  0.9434 -0.2625
18173TIP3    H276011   4.751   5.978  16.714  1.1403 -3.8661  0.4489
18174TIP3   OH276012   1.010   6.733  17.114 -0.2953  0.3743  0.0712
18174TIP3    H176013   1.093   6.778  17.104 -0.0376 -0.4604 -2.6419
18174TIP3    H276014   1.033   6.640  17.114 -1.1150  0.1610  0.8488
18175TIP3   OH276015   0.277   3.966   2.627  0.0316  0.0369 -0.2284
18175TIP3    H176016   0.227   3.887   2.610  0.7087 -0.6737  0.9602
18175TIP3    H276017   0.254   4.025   2.555 -0.4185 -1.2549 -1.1671
18176TIP3   OH276018   3.889   3.226   5.452  0.6342  0.3618 -0.7134
18176TIP3    H176019   3.890   3.319   5.428  0.8171  0.5936  0.1730
18176TIP3    H276020   3.809   3.215   5.501  1.2332  0.3408  0.2811
18177TIP3   OH276021   3.914   1.926  13.721 -0.5281 -0.1048 -0.6665
18177TIP3    H176022   3.973   1.855  13.748 -1.9993 -0.8316  0.8356
18177TIP3    H276023   3.930   1.936  13.627  2.0720 -0.1403 -0.3035
18178TIP3   OH276024   5.208   1.844  16.062 -0.2057 -0.0990 -0.4550
18178TIP3    H176025   5.191   1.807  16.148 -1.0133 -1.2384 -1.0803
18178TIP3    H276026   5.273   1.913  16.078  0.8848 -1.3493  0.8397
18179TIP3   OH276027   1.581   2.582  16.702 -0.6935 -0.0794 -0.2749
18179TIP3    H176028   1.579   2.614  16.612  0.5257 -0.6378 -0.5264
18179TIP3    H276029   1.669   2.603  16.733 -1.7523  2.0047  1.5375
18180TIP3   OH276030   0.049   3.888   1.029  0.0318  0.1584 -0.4120
18180TIP3    H176031  -0.038   3.896   0.990  0.8856  2.8710 -2.0182
18180TIP3    H276032   0.095   3.825   0.973 -0.8007 -1.2678  0.4306
18181TIP3   OH276033   1.119   0.309  10.940 -0.0748  0.3662 -0.0100
18181TIP3    H176034   1.104   0.404  10.943 -0.5240  0.3473 -1.1959
18181TIP3    H276035   1.086   0.282  10.854 -1.2864 -1.0906  0.8588
18182TIP3   OH276036   2.061   3.116   3.493  0.8439  0.1645 -0.3799
18182TIP3    H176037   2.155   3.131   3.492  0.8440  0.1927  0.0208
18182TIP3    H276038   2.037   3.114   3.585  0.3146  1.0154 -0.4858
18183TIP3   OH276039   5.097   2.145  10.309  0.0976  0.3061 -0.3814
18183TIP3    H176040   5.155   2.169  10.236 -0.1626  3.3411  0.2964
18183TIP3    H276041   5.037   2.081  10.271 -0.5236  2.3350 -3.1358
18184TIP3   OH276042   3.736   4.863  12.740 -0.0323 -0.5686  0.1266
18184TIP3    H176043   3.761   4.918  12.814  0.3187 -1.6349  0.8192
18184TIP3    H276044   3.664   4.910  12.698  0.3620  0.4915  0.5936
18185TIP3   OH276045   2.303   2.050   1.767  0.1274 -0.1734  0.4548
18185TIP3    H176046   2.268   2.111   1.703 -0.3148 -2.0685 -1.2290
18185TIP3    H276047   2.361   1.993   1.716 -1.8928 -3.1098  1.2044
18186TIP3   OH276048   6.041   4.787  15.512 -0.0053  0.1636  0.5065
18186TIP3    H176049   6.066   4.744  15.594  0.7864  0.2389  0.3065
18186TIP3    H276050   6.048   4.719  15.446 -1.0424 -0.0075  0.5484
18187TIP3   OH276051   5.960   6.753  13.462  0.5878  0.6092  0.3263
18187TIP3    H176052   5.966   6.845  13.486  2.6729  0.3303  1.0859
18187TIP3    H276053   5.875   6.725  13.496 -0.3268  2.3296 -0.3747
18188TIP3   OH276054   1.360   1.522   0.330  0.1571  0.2847 -0.2325
18188TIP3    H176055   1.327   1.533   0.419  0.6326  0.1700 -0.0417
18188TIP3    H276056   1.399   1.607   0.308  1.5791 -0.1985  0.3126
18189TIP3   OH276057   4.252   1.429  11.749  0.2654 -0.1189 -0.0277
18189TIP3    H176058   4.249   1.383  11.833 -0.1227 -1.0473 -0.5415
18189TIP3    H276059   4.280   1.363  11.686  2.4856  1.0394 -0.3460
18190TIP3   OH276060   0.239   6.318   3.895 -0.2340  0.0424  0.2500
18190TIP3    H176061   0.179   6.391   3.908 -0.4913 -0.1333  0.0804
18190TIP3    H276062   0.209   6.277   3.813  0.5801  0.4000 -0.2388
18191TIP3   OH276063   6.054   2.978  13.606  0.6745  0.1743 -0.3194
18191TIP3    H176064   6.070   3.053  13.548  0.4248 -1.0335 -2.0483
18191TIP3    H276065   5.972   2.939  13.572 -0.9568  0.8923  2.5083
18192TIP3   OH276066   5.673   4.141  11.161 -0.0770 -0.5159 -0.5115
18192TIP3    H176067   5.706   4.133  11.071  1.7902 -1.0909  0.1891
18192TIP3    H276068   5.578   4.127  11.152  0.0722 -0.6162 -2.3768
18193TIP3   OH276069   4.244   4.709   6.018  0.4205  0.2051 -0.1362
18193TIP3    H176070   4.154   4.689   6.041  0.7051  0.2922  1.1252
18193TIP3    H276071   4.296   4.641   6.061  1.1883  1.9844  1.9698
18194TIP3   OH276072   5.440   4.987  10.958  0.2966 -0.1914  0.0897
18194TIP3    H176073   5.474   4.906  10.997  0.5657  0.5058  1.3561
18194TIP3    H276074   5.345   4.979  10.964  0.2931 -0.7993 -0.6274
18195TIP3   OH276075   5.551   0.087   3.571  0.5900 -0.1748  0.0967
18195TIP3    H176076   5.627   0.092   3.628  1.1510  0.9746 -0.7192
18195TIP3    H276077   5.477   0.107   3.629  1.2408  1.9704  0.2747
18196TIP3   OH276078   6.574   4.327   0.271 -0.2270  0.1470 -0.0140
18196TIP3    H176079   6.492   4.277   0.273  0.6520 -1.3662 -0.3853
18196TIP3    H276080   6.631   4.282   0.334  0.8542  0.1668 -0.9435
18197TIP3   OH276081   5.361   5.278  11.513 -0.0752  0.1473  0.1317
18197TIP3    H176082   5.267   5.292  11.507  0.0034  0.2582 -1.2413
18197TIP3    H276083   5.397   5.363  11.537 -0.4197 -0.2343  2.1268
18198TIP3   OH276084   3.864   4.902   5.817  0.2639 -0.4062  0.6041
18198TIP3    H176085   3.956   4.896   5.791 -0.4007  0.1271 -2.0929
18198TIP3    H276086   3.831   4.812   5.811  0.5272 -0.5687  1.4052
18199TIP3   OH276087   5.630   4.563  12.991 -0.0656 -1.4108  0.3103
18199TIP3    H176088   5.613   4.528  13.079 -1.2597  0.4571  0.8729
18199TIP3    H276089   5.545   4.558  12.947 -0.5648  1.5914  0.7630
18200TIP3   OH276090   5.604   5.932   5.733  0.0594 -0.4553 -0.7343
18200TIP3    H176091   5.690   5.937   5.693  0.1560 -0.6819 -0.5575
18200TIP3    H276092   5.544   5.967   5.667  0.3791  0.4539 -0.5497
18201TIP3   OH276093   6.294   5.846  13.555  0.0284 -0.1601 -0.4706
18201TIP3    H176094   6.274   5.809  13.641 -0.4374 -1.1656 -0.9865
18201TIP3    H276095   6.353   5.781  13.515  0.5579  0.4918 -0.7590
18202TIP3   OH276096   2.635   3.930   5.739  0.5028 -0.2836  0.1337
18202TIP3    H176097   2.678   3.958   5.657 -0.5667 -3.6272 -1.7486
18202TIP3    H276098   2.688   3.856   5.769  1.0294  1.0429  2.7670
18203TIP3   OH276099   0.694   5.337   4.150  0.5128 -0.1741  0.0437
18203TIP3    H176100   0.684   5.243   4.137 -2.8302 -0.0775  1.2472
18203TIP3    H276101   0.633   5.377   4.088 -0.3754  1.0532  1.6433
18204TIP3   OH276102   2.447   4.771  16.277 -0.5739  0.1606  0.1512
18204TIP3    H176103   2.366   4.727  16.302 -0.9402  0.7720  0.0563
18204TIP3    H276104   2.447   4.769  16.181  1.1081 -2.6968  0.0845
18205TIP3   OH276105   5.126   0.400  15.496 -0.1674 -0.3432  0.6721
18205TIP3    H176106   5.219   0.420  15.510  0.1734 -0.6568 -1.0037
18205TIP3    H276107   5.086   0.416  15.582  1.4429 -0.3523  1.4757
18206TIP3   OH276108   3.703   3.161  16.897 -0.2673  0.3038  0.6703
18206TIP3    H176109   3.715   3.072  16.930  0.6352  0.4089  0.6715
18206TIP3    H276110   3.614   3.185  16.922 -1.1313 -1.1956 -0.7885
18207TIP3   OH276111   1.725   3.352  13.755 -0.2173 -0.2682  0.1864
18207TIP3    H176112   1.769   3.279  13.710  1.0171 -0.3116  1.3877
18207TIP3    H276113   1.747   3.429  13.702 -0.2921 -0.5502 -0.2676
18208TIP3   OH276114   2.504   0.592  14.504 -0.3181 -0.3831 -0.3078
18208TIP3    H176115   2.516   0.545  14.422 -0.7156  0.1902 -0.7008
18208TIP3    H276116   2.586   0.639  14.517 -0.1789 -0.6347 -0.2696
18209TIP3   OH276117   5.662   2.382  14.381  0.0467 -0.4016 -0.0324
18209TIP3    H176118   5.641   2.289  14.390 -1.9757  0.1190  1.3354
18209TIP3    H276119   5.744   2.393  14.429  0.3052 -1.4619 -0.2050
18210TIP3   OH276120   2.173   1.544   3.498  0.4999  0.3574 -0.1485
18210TIP3    H176121   2.079   1.556   3.487  0.1438  0.9032  2.6632
18210TIP3    H276122   2.185   1.449   3.498  0.1279  0.2910 -1.4777
18211TIP3   OH276123   0.759   2.171  12.815 -0.9286 -0.0777 -0.2869
18211TIP3    H176124   0.844   2.201  12.784  0.1095 -0.9632  1.5710
18211TIP3    H276125   0.770   2.159  12.909 -2.6956 -1.5498 -0.2132
18212TIP3   OH276126   6.682   5.552  12.825 -0.3049 -0.3837  0.2667
18212TIP3    H176127   6.637   5.530  12.743  0.0257 -0.5163  0.1177
18212TIP3    H276128   6.657   5.482  12.885 -0.8518 -0.0832  0.3959
18213TIP3   OH276129   2.735   6.059  12.565 -0.2861 -0.2782 -0.2689
18213TIP3    H176130   2.809   6.000  12.552  0.3588  0.4806 -0.1434
18213TIP3    H276131   2.732   6.113  12.485 -1.9638 -1.6042 -1.1835
18214TIP3   OH276132   4.441   1.116  10.670 -0.1220  0.5215  0.1108
18214TIP3    H176133   4.457   1.025  10.647  1.0618  0.9453 -0.8817
18214TIP3    H276134   4.401   1.154  10.592 -0.8573  0.7922  0.6148
18215TIP3   OH276135   3.228   0.711  16.499 -0.0974  0.5517 -0.4063
18215TIP3    H176136   3.211   0.717  16.593  0.5736  1.7787 -0.3448
18215TIP3    H276137   3.180   0.784  16.461 -1.0080 -0.4065 -1.1303
18216TIP3   OH276138   5.887   2.286  11.963 -0.0034  0.1437  0.5787
18216TIP3    H176139   5.880   2.327  11.877 -1.3127  0.7395  0.9566
18216TIP3    H276140   5.815   2.323  12.014  0.0294 -1.0946  1.5698
18217TIP3   OH276141   2.794   1.088   1.419 -0.1452  0.1461  0.5373
18217TIP3    H176142   2.744   1.157   1.374  2.4016  1.6235 -0.2559
18217TIP3    H276143   2.790   1.013   1.359 -2.4890 -0.2841  1.1460
18218TIP3   OH276144   1.581   6.587  16.829 -0.4258  0.1873  0.0854
18218TIP3    H176145   1.560   6.494  16.817  3.8602 -0.7981 -1.7090
18218TIP3    H276146   1.583   6.622  16.740  0.6799  1.2777  0.5192
18219TIP3   OH276147   5.322   4.865  15.273  0.4927  0.1385  0.4292
18219TIP3    H176148   5.315   4.877  15.367 -0.2044  0.8106  0.2976
18219TIP3    H276149   5.372   4.941  15.243 -1.5158  1.3367 -0.0534
18220TIP3   OH276150   6.350   5.687   4.476 -0.0509 -0.9684 -0.3136
18220TIP3    H176151   6.291   5.689   4.400  0.0234 -0.2704 -0.3599
18220TIP3    H276152   6.379   5.777   4.485  0.5874 -1.2106  0.0485
18221TIP3   OH276153   5.916   5.192   2.333 -0.5450 -0.5219 -0.4392
18221TIP3    H176154   5.913   5.134   2.410  2.0169  1.1183  1.0557
18221TIP3    H276155   5.887   5.137   2.261  0.1767 -3.2186  1.1599
18222TIP3   OH276156   5.034   6.435  12.781  0.4871 -0.0750  0.3401
18222TIP3    H176157   5.041   6.344  12.752  2.3188  0.2436 -0.3176
18222TIP3    H276158   5.077   6.486  12.712 -2.4193  1.5841 -0.4385
18223TIP3   OH276159   4.388   2.290  12.667  0.3344  0.1153 -0.0836
18223TIP3    H176160   4.327   2.232  12.622  1.3197 -0.8445 -0.2041
18223TIP3    H276161   4.444   2.232  12.718  0.1026  1.0927  1.3682
18224TIP3   OH276162   2.424   2.755   3.472  0.0640  0.0804 -0.5350
18224TIP3    H176163   2.330   2.746   3.455 -0.2234 -1.2804  1.4573
18224TIP3    H276164   2.466   2.702   3.404 -0.8327 -2.3081  0.6949
18225TIP3   OH276165   1.237   0.576  16.368  0.5097 -0.1374  0.4544
18225TIP3    H176166   1.331   0.585  16.351  0.5880 -0.1966  0.8493
18225TIP3    H276167   1.227   0.488  16.405  0.5171  0.4230  1.8599
18226TIP3   OH276168   2.147   4.003   5.253 -0.0664 -0.1257  0.1874
18226TIP3    H176169   2.132   4.057   5.175  1.2368 -0.3516 -0.2515
18226TIP3    H276170   2.229   4.037   5.290 -1.4257  0.9883  2.3705
18227TIP3   OH276171   0.363   4.495  10.583 -0.2894  0.2027 -0.0353
18227TIP3    H176172   0.431   4.433  10.557 -2.3260 -1.5400 -1.6374
18227TIP3    H276173   0.284   4.441  10.591 -1.9814  2.4729 -0.6028
18228TIP3   OH276174   1.000   0.442  11.254 -0.2751  0.3211 -0.1422
18228TIP3    H176175   0.912   0.479  11.259  0.1920  1.4239  0.2488
18228TIP3    H276176   0.992   0.372  11.189 -1.4920  0.2319  0.0767
18229TIP3   OH276177   4.502   1.686   0.377 -0.2698  0.0322  0.5975
18229TIP3    H176178   4.416   1.712   0.343  0.1023  0.7775  0.1946
18229TIP3    H276179   4.539   1.766   0.414  0.9135  0.1455 -0.6961
18230TIP3   OH276180   0.240   3.456   6.361 -0.7524  0.1828 -0.3438
18230TIP3    H176181   0.311   3.438   6.300  2.7125 -1.6419  3.7683
18230TIP3    H276182   0.261   3.541   6.399 -1.1942 -0.0613  0.4635
18231TIP3   OH276183   5.761   3.963  13.830 -0.7443 -0.0176 -0.1449
18231TIP3    H176184   5.736   3.992  13.918  0.4898  1.2205 -0.1764
18231TIP3    H276185   5.680   3.928  13.793 -0.9243 -2.3101  2.1181
18232TIP3   OH276186   5.849   6.658   2.115  0.5452  0.4133  0.5113
18232TIP3    H176187   5.788   6.590   2.145  0.8047 -0.1791 -0.2787
18232TIP3    H276188   5.831   6.666   2.022  1.6736  0.2263  0.2678
18233TIP3   OH276189   5.884   3.386  11.629 -0.4007 -0.1540 -0.5541
18233TIP3    H176190   5.853   3.469  11.664  1.5851  1.2698 -1.9506
18233TIP3    H276191   5.921   3.408  11.544  0.8009 -2.3492 -0.6774
18234TIP3   OH276192   1.787   5.357   3.644 -0.3899  0.1330  0.1587
18234TIP3    H176193   1.822   5.268   3.649 -1.9716 -0.6290 -1.3629
18234TIP3    H276194   1.715   5.359   3.707 -0.4616  0.2846  0.0728
18235TIP3   OH276195   1.230   4.271  13.751 -0.0268 -0.1600 -0.1950
18235TIP3    H176196   1.205   4.183  13.779  1.5519 -0.6370 -0.1647
18235TIP3    H276197   1.153   4.305  13.706 -0.7646 -1.4521  0.0410
18236TIP3   OH276198   4.019   5.663  17.158 -0.2174  0.3372 -0.1470
18236TIP3    H176199   3.926   5.643  17.148  0.1062 -1.1447 -0.5093
18236TIP3    H276200   4.021   5.749  17.200 -1.7751 -0.5731  1.9641
18237TIP3   OH276201   3.928   2.119   0.166  0.0662 -0.5255  0.4851
18237TIP3    H176202   4.016   2.156   0.171  0.1749 -0.6081 -0.6180
18237TIP3    H276203   3.872   2.193   0.141 -0.1346 -0.5431  0.8673
18238TIP3   OH276204   2.036   0.348   5.665 -0.0336  0.4334 -0.8590
18238TIP3    H176205   2.085   0.277   5.707 -2.0282  0.0007  0.9198
18238TIP3    H276206   1.944   0.328   5.682 -0.7277  2.8659 -1.2560
18239TIP3   OH276207   4.811   4.341   3.213  0.1984  0.0018  0.2333
18239TIP3    H176208   4.869   4.322   3.287 -0.5670 -0.6210  0.7048
18239TIP3    H276209   4.747   4.269   3.215 -0.9223  0.9593  0.0954
18240TIP3   OH276210   4.433   4.488   0.328 -0.0669  0.4318  0.7433
18240TIP3    H176211   4.394   4.558   0.277  0.2424  0.2010  0.1816
18240TIP3    H276212   4.436   4.522   0.418 -1.5606  0.4485  0.8070
18241TIP3   OH276213   5.659   1.116   2.343 -0.0377  0.1639 -0.2847
18241TIP3    H176214   5.641   1.098   2.436  0.1811  0.1573 -0.2428
18241TIP3    H276215   5.572   1.123   2.303 -0.1796  1.6883  0.2042
18242TIP3   OH276216   2.748   3.226  15.612  0.2126  0.0387  0.1194
18242TIP3    H176217   2.803   3.149  15.595  1.4534  1.2119 -1.5098
18242TIP3    H276218   2.810   3.295  15.635 -0.7742  0.8621  0.3596
18243TIP3   OH276219   2.545   6.700   1.126 -0.1837 -0.3767  0.4634
18243TIP3    H176220   2.463   6.743   1.102  0.5580  0.3111 -0.9656
18243TIP3    H276221   2.610   6.770   1.122  0.6557 -1.1382  0.5218
18244TIP3   OH276222   2.020   4.343   1.825 -0.3611 -0.3034 -0.4010
18244TIP3    H176223   1.977   4.401   1.889  0.2933 -0.7205  0.4367
18244TIP3    H276224   2.037   4.400   1.750 -2.0036 -0.0298 -0.6093
18245TIP3   OH276225   3.280   1.143  14.133  0.0907  0.1938 -0.0635
18245TIP3    H176226   3.206   1.105  14.181  0.0127 -0.2871 -0.5461
18245TIP3    H276227   3.245   1.163  14.046  1.0830 -2.3825 -1.1799
18246TIP3   OH276228   5.037   2.864   3.312 -0.1394 -0.0505  0.2633
18246TIP3    H176229   5.078   2.892   3.394 -1.3788  2.0008  0.2533
18246TIP3    H276230   5.039   2.942   3.256 -1.9830 -0.5339 -0.5457
18247TIP3   OH276231   3.507   5.957  16.484 -0.0467 -0.1166 -0.8964
18247TIP3    H176232   3.575   6.003  16.436 -1.7064  1.5316 -1.7790
18247TIP3    H276233   3.429   5.963  16.429 -1.7422  0.8679  1.4217
18248TIP3   OH276234   1.565   5.128   6.475 -0.2602 -0.1201  0.0528
18248TIP3    H176235   1.491   5.104   6.419  0.2554 -1.1219 -0.2270
18248TIP3    H276236   1.529   5.127   6.564 -0.5621 -0.7281 -0.0697
18249TIP3   OH276237   3.775   3.191  15.435  0.9585  0.7029  0.4215
18249TIP3    H176238   3.812   3.104  15.449  0.7527  0.7964  1.6573
18249TIP3    H276239   3.739   3.216  15.520  0.2739  1.6537 -0.1229
18250TIP3   OH276240   6.789   6.754  12.133 -0.1270  0.0433 -0.2085
18250TIP3    H176241   6.758   6.668  12.159  2.0302 -0.1147  2.1774
18250TIP3    H276242   6.721   6.814  12.163 -0.7301 -0.6704 -0.1246
18251TIP3   OH276243   4.908   5.365   1.114 -0.2253 -0.3974  0.1802
18251TIP3    H176244   4.917   5.437   1.051  0.7450  0.7050  1.5217
18251TIP3    H276245   4.960   5.294   1.076 -0.0129  0.0983 -0.4851
18252TIP3   OH276246   4.129   3.006  16.456  0.0939  0.6765  0.4979
18252TIP3    H176247   4.115   3.084  16.403 -0.5095 -0.8725 -1.7749
18252TIP3    H276248   4.177   2.946  16.399 -1.1531 -1.3404  1.4326
18253TIP3   OH276249   4.351   5.378   0.031  0.1991 -0.2922  0.0610
18253TIP3    H176250   4.425   5.402  -0.025  0.5466  1.1714  1.0856
18253TIP3    H276251   4.277   5.428  -0.004  0.1791 -0.1672  0.2793
18254TIP3   OH276252   5.795   4.998   1.218  0.3211 -0.4082 -0.0715
18254TIP3    H176253   5.810   4.903   1.217  0.7699 -0.3389 -0.1507
18254TIP3    H276254   5.833   5.029   1.136  3.6379  0.3374  1.5752
18255TIP3   OH276255   0.945   0.338   2.422 -0.5769  0.1222 -0.1143
18255TIP3    H176256   0.942   0.250   2.460  3.4802 -0.3223 -0.4727
18255TIP3    H276257   0.941   0.396   2.498  0.7448 -0.5429  0.4956
18256TIP3   OH276258   4.670   1.490  16.284 -0.1750 -0.2942  0.1140
18256TIP3    H176259   4.599   1.555  16.285 -0.1096 -0.1037 -2.1407
18256TIP3    H276260   4.625   1.405  16.288 -0.3972 -0.1539  0.6916
18257TIP3   OH276261   3.647   6.590   0.350 -0.0327 -0.2601 -0.6757
18257TIP3    H176262   3.560   6.629   0.361 -0.1479 -0.3884 -1.1138
18257TIP3    H276263   3.631   6.496   0.357 -0.0153 -0.3115 -1.3150
18258TIP3   OH276264   0.082   2.154   5.682  0.1029  0.0963 -0.0198
18258TIP3    H176265   0.069   2.070   5.727 -0.2670  0.0867 -0.1419
18258TIP3    H276266   0.093   2.217   5.754  1.1837 -0.1676  0.0718
18259TIP3   OH276267   4.693   3.379  12.233 -0.6803 -0.0781 -0.2039
18259TIP3    H176268   4.728   3.355  12.147 -0.4653 -0.4810 -0.0051
18259TIP3    H276269   4.623   3.441  12.213 -0.9496 -0.5306 -0.7051
18260TIP3   OH276270   2.741   1.783   1.408 -0.6144  0.2378 -0.4782
18260TIP3    H176271   2.830   1.807   1.431 -0.8138 -0.9942  1.8515
18260TIP3    H276272   2.686   1.851   1.448 -0.8125 -0.1560 -0.0712
18261TIP3   OH276273   0.870   6.741   2.292 -0.0195 -0.3444  0.5146
18261TIP3    H176274   0.857   6.727   2.198  0.4708  0.3663  0.3249
18261TIP3    H276275   0.926   6.669   2.320  2.5804  1.1361 -0.4586
18262TIP3   OH276276   1.544   3.064  13.821 -0.0748  0.3371 -0.1807
18262TIP3    H176277   1.454   3.096  13.817 -0.2382 -0.1788 -0.7664
18262TIP3    H276278   1.579   3.082  13.734  0.2414  0.1224 -0.0964
18263TIP3   OH276279   3.306   2.518   6.639 -0.2767 -0.3874  0.6039
18263TIP3    H176280   3.307   2.492   6.731 -0.8431 -1.2063  0.3993
18263TIP3    H276281   3.226   2.478   6.605  1.0209 -1.9462 -0.7578
18264TIP3   OH276282   1.708   1.318  14.873  0.2075 -0.3103  0.3691
18264TIP3    H176283   1.787   1.362  14.841  0.7041 -0.2404  1.6240
18264TIP3    H276284   1.682   1.260  14.801 -0.6991  2.2535 -1.4972
18265TIP3   OH276285   3.661   2.134   1.037  0.5378  0.4553 -0.1160
18265TIP3    H176286   3.672   2.083   1.117  2.5481 -0.9800 -1.2020
18265TIP3    H276287   3.698   2.079   0.968 -0.0212  2.1346 -1.8686
18266TIP3   OH276288   6.316   3.658  13.888 -0.1551  0.2944  0.0762
18266TIP3    H176289   6.257   3.700  13.951  1.7432  2.5866  0.4956
18266TIP3    H276290   6.359   3.588  13.938  1.0567  1.8450  1.3208
18267TIP3   OH276291   2.125   0.755  17.088 -0.2255 -0.2095 -0.2557
18267TIP3    H176292   2.045   0.796  17.123 -0.5464  1.2105 -2.4158
18267TIP3    H276293   2.107   0.661  17.092 -1.3383  0.0173  0.7647
18268TIP3   OH276294   2.493   6.463   0.669  0.1569  0.2269 -0.1869
18268TIP3    H176295   2.537   6.381   0.649  0.9660  0.8018 -0.8559
18268TIP3    H276296   2.547   6.530   0.627 -0.4669  1.1049  0.3692
18269TIP3   OH276297   5.812   2.669   6.264  0.1632  0.2611  0.1065
18269TIP3    H176298   5.873   2.603   6.230 -1.0013 -0.5138 -0.5051
18269TIP3    H276299   5.864   2.750   6.267  0.9885 -0.1871 -1.2161
18270TIP3   OH276300   3.979   5.173   0.019 -0.2310  0.0700 -0.1586
18270TIP3    H176301   3.894   5.214   0.003 -0.8551 -1.1904 -0.2091
18270TIP3    H276302   3.963   5.112   0.090  0.4764 -0.6519 -0.6013
18271TIP3   OH276303   5.067   5.418  15.907  0.3738 -0.0490 -0.2216
18271TIP3    H176304   5.069   5.457  15.820 -1.9332 -3.2540 -1.8719
18271TIP3    H276305   5.154   5.378  15.918 -0.0123 -1.4974 -2.0648
18272TIP3   OH276306   5.999   6.485   5.321 -0.8081  0.5752  0.0010
18272TIP3    H176307   6.060   6.549   5.284 -0.4785  0.1623 -0.1917
18272TIP3    H276308   5.932   6.537   5.365 -2.8387  1.2561 -3.5299
18273TIP3   OH276309   0.029   4.482  10.808  0.6374  0.3452 -0.1258
18273TIP3    H176310   0.056   4.446  10.724 -0.3847 -2.6578  0.7087
18273TIP3    H276311   0.099   4.457  10.868 -1.0341 -2.4010  0.8843
18274TIP3   OH276312   6.606   3.145   2.687 -0.2525  0.1154 -0.2226
18274TIP3    H176313   6.542   3.207   2.722 -0.5653 -0.2046 -0.2246
18274TIP3    H276314   6.629   3.179   2.601 -1.4371 -0.4821 -0.8012
18275TIP3   OH276315   1.946   4.917  11.205 -0.4750 -0.6804  0.5871
18275TIP3    H176316   1.868   4.964  11.177  0.3196 -0.1664 -0.8760
18275TIP3    H276317   2.019   4.970  11.172  0.4807 -1.3990  1.4939
18276TIP3   OH276318   2.158   5.253  12.207  0.4601 -0.5862  0.0481
18276TIP3    H176319   2.139   5.166  12.171  1.4015 -0.2351 -1.3785
18276TIP3    H276320   2.074   5.299  12.206 -0.2622 -1.7519  1.7411
18277TIP3   OH276321   1.266   5.922   3.351 -0.3795  0.7567  0.8912
18277TIP3    H176322   1.307   5.927   3.265 -1.8903  1.5166  0.1745
18277TIP3    H276323   1.269   5.829   3.374 -0.3537  0.4811 -0.1783
18278TIP3   OH276324   0.571   0.378   0.756 -0.1411 -0.3901  0.1214
18278TIP3    H176325   0.604   0.290   0.775 -1.0958 -0.1671  3.7246
18278TIP3    H276326   0.633   0.415   0.694  2.5721 -2.2451  1.5249
18279TIP3   OH276327   4.052   2.721   1.629 -0.1726  0.0325 -0.4147
18279TIP3    H176328   4.110   2.796   1.639 -1.8023  1.3240 -0.1478
18279TIP3    H276329   3.964   2.759   1.621 -0.9301 -1.7845 -1.6454
18280TIP3   OH276330   1.977   6.032  15.830  0.1775 -0.2860 -0.4714
18280TIP3    H176331   2.047   6.072  15.881  0.3724  0.2813 -1.1593
18280TIP3    H276332   1.907   6.014  15.893  0.4252  0.3609 -0.0094
18281TIP3   OH276333   2.002   3.021   2.778  0.1152 -0.4513  0.5288
18281TIP3    H176334   1.940   3.092   2.763  0.2998 -0.9170 -3.1962
18281TIP3    H276335   2.080   3.065   2.812  0.0088  1.1151 -1.0845
18282TIP3   OH276336   1.138   2.482  17.074  0.2584 -0.1930  0.2149
18282TIP3    H176337   1.195   2.482  17.150  0.7634 -2.4888 -0.0959
18282TIP3    H276338   1.068   2.421  17.097 -1.2312  1.3396 -0.0493
18283TIP3   OH276339   1.949   3.081  14.979 -0.1157  0.0532 -0.1708
18283TIP3    H176340   1.971   3.034  15.060  0.9258 -0.3052 -0.6512
18283TIP3    H276341   1.982   3.170  14.993 -0.4756  0.1600  0.0246
18284TIP3   OH276342   1.724   5.013   2.552  0.0676 -0.1307 -0.2011
18284TIP3    H176343   1.802   5.052   2.512 -0.9036  1.0510 -1.0241
18284TIP3    H276344   1.686   5.084   2.604  1.2946 -1.5949  3.0023
18285TIP3   OH276345   4.290   0.116   3.601  0.4470 -0.6447 -0.2873
18285TIP3    H176346   4.253   0.065   3.529  0.2993 -2.7062  1.1618
18285TIP3    H276347   4.343   0.053   3.650  2.4813  1.2494  0.1017
18286TIP3   OH276348   5.374   0.424   0.214 -0.4446  0.5954  0.5961
18286TIP3    H176349   5.321   0.345   0.225 -0.3703  0.2130 -1.4463
18286TIP3    H276350   5.332   0.488   0.272 -2.7688  0.1026 -0.4345
18287TIP3   OH276351   2.446   0.150  14.973 -0.6012 -0.4273 -0.1284
18287TIP3    H176352   2.530   0.186  15.004  0.6488 -3.0707 -0.1907
18287TIP3    H276353   2.456   0.055  14.980 -3.3458 -0.8615 -0.8814
18288TIP3   OH276354   5.946   6.510   0.617 -0.1439 -0.4469 -0.5134
18288TIP3    H176355   5.952   6.600   0.650  3.9419 -0.3678 -0.9636
18288TIP3    H276356   5.954   6.455   0.694  0.7898 -0.3402 -0.5198
18289TIP3   OH276357   5.147   1.293   2.719  0.4408 -0.0729 -0.0846
18289TIP3    H176358   5.208   1.349   2.767  0.6705  1.3674 -1.9635
18289TIP3    H276359   5.201   1.251   2.652  0.0699 -1.8251  0.6567
18290TIP3   OH276360   4.358   2.660  12.071  0.1994 -0.1175 -0.1487
18290TIP3    H176361   4.371   2.722  12.143 -1.3791  0.3129 -0.1897
18290TIP3    H276362   4.356   2.714  11.992  0.4879 -0.4191 -0.3650
18291TIP3   OH276363   5.513   5.396  14.196 -0.0139 -0.4353 -0.1740
18291TIP3    H176364   5.419   5.414  14.203  0.1465  0.4184 -0.1559
18291TIP3    H276365   5.522   5.306  14.227 -0.8461 -0.5883 -0.3339
18292TIP3   OH276366   1.336   2.174  13.080 -0.5998  0.3721 -0.3485
18292TIP3    H176367   1.330   2.177  12.984  1.3797  0.3565 -0.5269
18292TIP3    H276368   1.430   2.172  13.097 -0.8834  1.7760  1.6547
18293TIP3   OH276369   0.150   4.676  11.726  0.3484  0.2860 -0.1641
18293TIP3    H176370   0.092   4.644  11.796  1.1404  0.5361  0.6152
18293TIP3    H276371   0.185   4.596  11.686  0.8514  0.1502  0.5373
18294TIP3   OH276372   6.647   1.694  17.039  0.3961 -0.4042  0.1067
18294TIP3    H176373   6.591   1.772  17.034  0.8643 -0.0563  0.1896
18294TIP3    H276374   6.617   1.649  17.119 -0.4351 -0.7620 -0.3882
18295TIP3   OH276375   3.757   3.339  16.658 -0.4153  0.2772  0.1618
18295TIP3    H176376   3.739   3.252  16.694 -2.1853  0.2179 -0.7591
18295TIP3    H276377   3.763   3.324  16.563 -1.7262  1.2725 -0.1094
18296TIP3   OH276378   5.192   6.396  15.309 -0.0466  0.4324 -0.2129
18296TIP3    H176379   5.285   6.375  15.319 -0.3582 -0.4614  0.9552
18296TIP3    H276380   5.192   6.481  15.266  1.3142  0.4240 -0.2893
18297TIP3   OH276381   5.563   4.699   3.017 -0.3440 -0.2165 -0.1454
18297TIP3    H176382   5.510   4.708   2.938 -1.5354  2.5277  0.8162
18297TIP3    H276383   5.501   4.714   3.089  1.5865  3.0812  1.0407
18298TIP3   OH276384   5.921   0.047  17.134  0.6292 -0.5013  0.2459
18298TIP3    H176385   5.976  -0.026  17.107  1.0766  0.1441 -0.6578
18298TIP3    H276386   5.876   0.073  17.053 -1.2152 -1.1786  1.0083
18299TIP3   OH276387   6.475   4.613   1.088 -0.2778 -0.1940 -0.0851
18299TIP3    H176388   6.551   4.671   1.094  1.2579 -1.2638 -4.6614
18299TIP3    H276389   6.451   4.595   1.179  2.4179  3.3145  1.5792
18300TIP3   OH276390   3.244   2.998   0.528  0.2789  0.2723  0.0843
18300TIP3    H176391   3.159   2.982   0.568 -0.0818 -1.1624 -1.1373
18300TIP3    H276392   3.285   3.064   0.583 -0.5600 -0.9010  2.2477
18301TIP3   OH276393   4.206   1.452  12.742 -0.0988 -0.7181  0.1562
18301TIP3    H176394   4.251   1.470  12.659  0.4935 -0.3691  0.5472
18301TIP3    H276395   4.208   1.535  12.789 -1.5841 -0.5700 -0.0030
18302TIP3   OH276396   1.236   3.632   3.576  0.5407 -0.0407 -1.2544
18302TIP3    H176397   1.268   3.552   3.534 -1.2728 -1.4048 -0.1935
18302TIP3    H276398   1.159   3.657   3.525 -0.8192 -0.8875  0.2827
18303TIP3   OH276399   6.736   0.184   4.493  0.3970 -0.4954 -0.2942
18303TIP3    H176400   6.804   0.198   4.559  0.1824 -0.3730 -0.0973
18303TIP3    H276401   6.738   0.090   4.476 -0.9006 -0.8967  1.3864
18304TIP3   OH276402   2.337   2.204  14.484  0.5304 -0.3175 -0.3699
18304TIP3    H176403   2.342   2.287  14.436  2.5734 -0.5968 -0.7202
18304TIP3    H276404   2.422   2.163  14.470 -0.6754 -2.8545 -0.8559
18305TIP3   OH276405   6.429   4.103   0.845 -0.2613  0.3529 -0.5138
18305TIP3    H176406   6.419   4.126   0.938 -0.0101 -1.5344  0.0419
18305TIP3    H276407   6.457   4.183   0.803  1.7512  0.7721  1.4301
18306TIP3   OH276408   0.751   5.473  13.548  0.4582  0.1324 -0.5846
18306TIP3    H176409   0.689   5.444  13.615 -0.8287 -1.1220 -2.2292
18306TIP3    H276410   0.744   5.408  13.478  0.7617  2.0594 -2.5357
18307TIP3   OH276411   5.502   3.326  15.849  0.0712 -0.5276  0.0494
18307TIP3    H176412   5.575   3.264  15.837  0.3146 -0.2213 -0.0682
18307TIP3    H276413   5.424   3.276  15.824  0.5187  0.0474 -2.9068
18308TIP3   OH276414   2.822   2.705  15.777 -0.0955  0.0474 -0.3468
18308TIP3    H176415   2.819   2.692  15.872 -1.0030 -0.6729 -0.4617
18308TIP3    H276416   2.784   2.792  15.764 -2.1714 -0.7910 -0.1970
18309TIP3   OH276417   6.084   1.903   1.656  0.0504 -0.2991  0.1774
18309TIP3    H176418   6.026   1.881   1.583  0.4599  1.5645 -0.7709
18309TIP3    H276419   6.032   1.963   1.710  1.1837  1.9477 -1.0418
18310TIP3   OH276420   3.864   5.596  16.421 -0.1934 -0.0998 -0.0696
18310TIP3    H176421   3.882   5.521  16.478  0.8884  0.5483  0.4824
18310TIP3    H276422   3.847   5.668  16.482 -1.0377  0.1518 -0.5933
18311TIP3   OH276423   0.842   1.588   0.473 -0.2168  0.3642 -0.6401
18311TIP3    H176424   0.771   1.534   0.438 -1.3122  1.2362  0.1689
18311TIP3    H276425   0.825   1.675   0.438 -0.4527  0.9173  0.8015
18312TIP3   OH276426   3.887   1.182  11.814  0.5857  0.8348  0.0756
18312TIP3    H176427   3.936   1.165  11.733  1.5555 -0.6476  0.9269
18312TIP3    H276428   3.820   1.113  11.816  1.4912 -0.0460  1.2152
18313TIP3   OH276429   4.029   6.098   0.187 -0.2197 -0.1511 -0.0173
18313TIP3    H176430   3.968   6.162   0.150 -1.4385 -0.9696  0.4874
18313TIP3    H276431   4.015   6.018   0.135 -0.4282 -0.6801  0.8264
18314TIP3   OH276432   6.632   4.565   3.695  0.1592 -0.2386 -0.0636
18314TIP3    H176433   6.589   4.616   3.625 -0.6061  1.6868  1.6893
18314TIP3    H276434   6.562   4.547   3.757  0.9917 -1.1631  0.6279
18315TIP3   OH276435   5.581   3.387   4.488  0.0695  0.0773  0.3338
18315TIP3    H176436   5.505   3.356   4.537 -1.3976  1.7079 -0.7778
18315TIP3    H276437   5.551   3.390   4.397  1.1705  1.5298 -0.0212
18316TIP3   OH276438   6.538   2.941   6.493 -0.5424  0.7550 -0.0441
18316TIP3    H176439   6.582   2.857   6.502 -0.6577  0.5744 -1.0679
18316TIP3    H276440   6.550   2.984   6.578  1.1999  0.5133 -0.1329
18317TIP3   OH276441   2.805   1.888   2.024  0.2275  0.1371 -0.3126
18317TIP3    H176442   2.899   1.900   2.028  0.3015 -0.2641 -0.6753
18317TIP3    H276443   2.793   1.818   1.959 -0.4035  1.3270 -1.5234
18318TIP3   OH276444   6.290   1.392  12.536  0.1023 -0.6697  0.0359
18318TIP3    H176445   6.207   1.390  12.584  1.4027  1.4388  2.6083
18318TIP3    H276446   6.272   1.448  12.460 -1.0787 -1.2383 -0.1442
18319TIP3   OH276447   5.991   6.558  12.680 -0.6508  0.8716 -0.3430
18319TIP3    H176448   5.924   6.613  12.639 -1.1625  0.8140  0.3882
18319TIP3    H276449   5.994   6.587  12.771 -2.7278 -1.8793  0.7586
18320TIP3   OH276450   2.416   0.347   3.947 -0.1229  0.0664  0.2554
18320TIP3    H176451   2.456   0.385   4.025  0.3315  0.3126 -0.0901
18320TIP3    H276452   2.476   0.277   3.922 -1.0876 -1.0878  1.0412
18321TIP3   OH276453   2.944   2.765  14.105  0.0329 -0.0360  0.0179
18321TIP3    H176454   3.029   2.738  14.141  0.2776 -0.0332 -0.5482
18321TIP3    H276455   2.943   2.860  14.113 -0.1041 -0.0690  0.4264
18322TIP3   OH276456   3.968   0.963   2.026  0.3202  0.0167 -0.6782
18322TIP3    H176457   3.975   1.058   2.016  0.8964 -0.0459 -0.8549
18322TIP3    H276458   4.058   0.932   2.031  0.2565 -0.8036 -3.1750
18323TIP3   OH276459   0.949   2.629  13.843 -0.2497 -0.0389  0.0217
18323TIP3    H176460   0.915   2.710  13.880 -1.2016  0.0862 -1.0809
18323TIP3    H276461   1.027   2.610  13.896 -0.9236  0.7115  1.3344
18324TIP3   OH276462   5.787   5.684   0.973 -0.2388 -0.5779 -0.2336
18324TIP3    H176463   5.737   5.603   0.961  0.6573 -1.0344 -1.0060
18324TIP3    H276464   5.878   5.656   0.976  0.0039  0.2774  0.8561
18325TIP3   OH276465   5.220   2.912  13.010  0.3339 -0.1814 -0.6828
18325TIP3    H176466   5.254   2.851  12.944 -0.5179 -0.4108 -0.9185
18325TIP3    H276467   5.185   2.985  12.959  1.1067  0.3913 -0.4096
18326TIP3   OH276468   5.289   4.131  11.876 -0.1029  0.2268  0.0171
18326TIP3    H176469   5.243   4.194  11.820  0.9509 -0.5600 -1.8342
18326TIP3    H276470   5.364   4.180  11.910 -0.1454  0.4115 -0.1506
18327TIP3   OH276471   1.926   6.571   4.275  0.4457  0.4066  0.0797
18327TIP3    H176472   2.016   6.560   4.306  1.5009  3.2655 -1.6098
18327TIP3    H276473   1.906   6.664   4.291 -1.7974  0.1190 -0.6685
18328TIP3   OH276474   3.430   6.071   2.063 -0.2852 -0.6110 -0.3008
18328TIP3    H176475   3.426   6.034   2.152  1.2802  0.8822  0.4315
18328TIP3    H276476   3.347   6.117   2.053 -0.3099 -0.4545  0.5458
18329TIP3   OH276477   2.251   4.521   1.295 -0.5246 -0.3821 -0.4697
18329TIP3    H176478   2.289   4.434   1.307 -0.3297 -0.3743 -1.0045
18329TIP3    H276479   2.321   4.581   1.319  0.0221 -0.3621 -2.0107
18330TIP3   OH276480   3.164   4.987   2.604 -0.0460 -0.2781 -0.4445
18330TIP3    H176481   3.257   4.973   2.616  0.0083  0.1359 -0.3734
18330TIP3    H276482   3.125   4.900   2.609  0.3264 -0.4389 -0.3886
18331TIP3   OH276483   5.057   1.608  11.456  0.1113  0.2804 -0.0029
18331TIP3    H176484   5.112   1.546  11.408  0.8024  2.4243 -2.2076
18331TIP3    H276485   5.118   1.654  11.514 -0.0834  0.0281  0.4014
18332TIP3   OH276486   1.733   0.541   5.413  0.1060 -0.4982  0.1766
18332TIP3    H176487   1.818   0.580   5.391  0.4015 -1.2850 -0.1082
18332TIP3    H276488   1.670   0.613   5.402  0.8415  0.3545  1.3410
18333TIP3   OH276489   5.255   3.194   2.464 -0.2716  0.1649  0.2866
18333TIP3    H176490   5.288   3.263   2.407 -1.3701  0.0932 -0.4667
18333TIP3    H276491   5.186   3.235   2.515 -1.0833 -0.4136 -0.3234
18334TIP3   OH276492   5.993   3.842   0.591  0.0883 -0.2047 -0.5944
18334TIP3    H176493   6.039   3.766   0.555 -0.5947 -0.6911 -0.4602
18334TIP3    H276494   6.036   3.859   0.675  0.2360 -0.4485 -0.6221
18335TIP3   OH276495   6.011   4.521   4.316 -0.4094  0.2337 -0.3923
18335TIP3    H176496   6.062   4.483   4.245 -1.2135  1.7444 -1.8596
18335TIP3    H276497   6.047   4.609   4.327 -1.0359  0.4169  0.2997
18336TIP3   OH276498   6.347   1.019   1.832 -0.3408 -0.2883  0.0549
18336TIP3    H176499   6.253   1.008   1.850 -0.2013  1.0676  1.8906
18336TIP3    H276500   6.386   0.935   1.855 -0.9276 -0.3827  0.7423
18337TIP3   OH276501   1.191   0.386   1.659 -0.3688  0.3367 -0.6439
18337TIP3    H176502   1.101   0.365   1.686  0.4643 -1.4197  0.9490
18337TIP3    H276503   1.223   0.308   1.615  1.7244 -0.8038  2.5501
18338TIP3   OH276504   5.849   3.266  12.004  0.2601  0.2420 -0.0362
18338TIP3    H176505   5.767   3.312  11.982  0.6376  1.0483  0.2043
18338TIP3    H276506   5.833   3.176  11.977 -1.6806 -0.2468  2.3380
18339TIP3   OH276507   3.926   3.057  16.067 -0.1959  0.1157  0.0889
18339TIP3    H176508   4.002   3.106  16.100 -0.7274  0.5341  0.7288
18339TIP3    H276509   3.952   2.965  16.072  0.5701  0.2848 -0.4896
18340TIP3   OH276510   2.789   0.483   3.173 -0.6892  0.0077  0.7922
18340TIP3    H176511   2.719   0.419   3.156 -0.3102 -0.3607  0.5962
18340TIP3    H276512   2.851   0.437   3.229  0.4133 -0.3832 -0.6650
18341TIP3   OH276513   0.053   6.319  13.139 -0.0700 -0.2008 -0.0109
18341TIP3    H176514  -0.037   6.336  13.166 -0.6575 -2.0854 -0.6306
18341TIP3    H276515   0.047   6.303  13.045  0.6884 -1.6824  0.1718
18342TIP3   OH276516   1.016   1.320  14.181 -0.5231  0.2991  0.0338
18342TIP3    H176517   1.041   1.393  14.124  0.8977 -0.0604  0.1761
18342TIP3    H276518   0.925   1.340  14.206  0.1229  2.5186  0.8578
18343TIP3   OH276519   5.422   0.931   1.801 -0.1825  0.6309 -0.4899
18343TIP3    H176520   5.462   0.992   1.739 -0.9266  1.1804 -0.4434
18343TIP3    H276521   5.346   0.978   1.835  1.0896  0.9789  2.0799
18344TIP3   OH276522   4.113   6.319   5.420  0.5162  0.0776  0.0276
18344TIP3    H176523   4.198   6.338   5.379  1.6086 -1.1322  1.6215
18344TIP3    H276524   4.065   6.269   5.354  1.0967  0.6287 -0.8298
18345TIP3   OH276525   3.466   6.771   4.036  0.0395  0.1255  0.4250
18345TIP3    H176526   3.387   6.783   4.088 -1.6227 -2.6279 -1.2288
18345TIP3    H276527   3.475   6.853   3.987 -2.2847  0.2391  0.0709
18346TIP3   OH276528   5.156   4.385  16.552 -0.3976  0.5609  0.0131
18346TIP3    H176529   5.068   4.374  16.589 -0.5515  2.1389  0.1993
18346TIP3    H276530   5.209   4.319  16.595 -1.3667 -0.0252  0.3448
18347TIP3   OH276531   3.787   6.638  10.776 -0.2423  0.2483 -0.1481
18347TIP3    H176532   3.876   6.603  10.766 -0.4784 -0.5228  0.3504
18347TIP3    H276533   3.731   6.572  10.735 -0.6196  0.5359 -0.0960
18348TIP3   OH276534   1.848   4.729   0.401  0.1499 -0.2763  0.3677
18348TIP3    H176535   1.831   4.645   0.443 -1.4195  0.9516  2.3994
18348TIP3    H276536   1.769   4.746   0.350  1.4163 -1.0352 -1.9806
18349TIP3   OH276537   6.450   2.540  15.089 -0.7794 -0.0966 -0.6572
18349TIP3    H176538   6.395   2.533  15.167  1.1478  1.2526  0.9329
18349TIP3    H276539   6.539   2.524  15.121 -0.0613 -0.9283 -2.8812
18350TIP3   OH276540   0.118   4.679  13.433  0.2022  0.4607  0.4510
18350TIP3    H176541   0.084   4.591  13.448  1.8271 -0.0783  1.2030
18350TIP3    H276542   0.166   4.673  13.350  0.1413  0.6910  0.3973
18351TIP3   OH276543   4.599   0.135  17.126 -0.2954  0.0539 -0.2004
18351TIP3    H176544   4.693   0.144  17.112 -0.4470  0.4608 -1.0421
18351TIP3    H276545   4.560   0.169  17.045 -1.1038 -2.7400 -1.0933
18352TIP3   OH276546   5.415   1.200  16.035 -0.0910  0.1679  0.3055
18352TIP3    H176547   5.422   1.128  16.096 -4.5150 -0.0077  0.9822
18352TIP3    H276548   5.476   1.266  16.067  2.6135 -2.3731  0.8176
18353TIP3   OH276549   4.989   2.200  10.919  0.4240 -0.1291 -0.1565
18353TIP3    H176550   4.998   2.261  10.992  2.3212  4.5152 -3.6582
18353TIP3    H276551   4.905   2.223  10.879  1.3343  0.7030 -1.7356
18354TIP3   OH276552   2.977   5.707   1.280 -0.8089  0.4748  0.7309
18354TIP3    H176553   2.919   5.648   1.232 -0.4023 -0.2996  1.1802
18354TIP3    H276554   3.019   5.652   1.346  0.5380  0.9931  0.3345
18355TIP3   OH276555   0.256   2.675   0.627  0.2419  0.0512  0.4298
18355TIP3    H176556   0.275   2.618   0.552 -1.1859 -0.2420  0.2707
18355TIP3    H276557   0.340   2.718   0.645  0.1298  1.9799 -2.8560
18356TIP3   OH276558   0.571   1.811   3.872  0.0455 -0.6590 -0.3249
18356TIP3    H176559   0.482   1.802   3.907 -0.3750  1.4116 -0.7175
18356TIP3    H276560   0.614   1.873   3.931  0.7161 -0.4559 -1.0123
18357TIP3   OH276561   0.283   1.375  16.828  0.0437  0.7053  0.7786
18357TIP3    H176562   0.294   1.348  16.919 -0.0482 -0.1727  0.5372
18357TIP3    H276563   0.369   1.408  16.802  0.0002  1.2180  1.2541
18358TIP3   OH276564   0.864   0.131   7.046  0.6018  0.4506 -0.4221
18358TIP3    H176565   0.959   0.121   7.048  0.6881  1.0839 -0.9688
18358TIP3    H276566   0.849   0.211   6.996 -0.2190  0.4123 -0.2584
18359TIP3   OH276567   5.568   3.066  14.696  0.3925 -0.0831  0.0006
18359TIP3    H176568   5.512   3.056  14.619  1.0434  0.9621 -0.6260
18359TIP3    H276569   5.562   2.981  14.740 -0.7220 -0.3947 -0.6877
18360TIP3   OH276570   3.581   0.830   5.695  0.7200 -0.7607 -0.0480
18360TIP3    H176571   3.585   0.770   5.769 -0.2754 -0.6171  0.1298
18360TIP3    H276572   3.504   0.884   5.711  0.9127 -0.2304 -0.8152
18361TIP3   OH276573   5.960   4.085  15.247  0.6645 -0.2309  0.0303
18361TIP3    H176574   6.014   4.007  15.263 -1.8024 -2.6523 -2.2554
18361TIP3    H276575   5.886   4.074  15.307  0.1334  0.1295 -0.5486
18362TIP3   OH276576   5.333   1.033   1.509  0.6258  0.6460 -0.3699
18362TIP3    H176577   5.391   1.085   1.453 -0.4664  2.1206 -0.2149
18362TIP3    H276578   5.245   1.051   1.474  0.1040 -0.0102  0.5745
18363TIP3   OH276579   0.153   6.775  16.301 -0.1033  0.0542 -0.6022
18363TIP3    H176580   0.190   6.703  16.250 -0.2756  0.8866 -1.9534
18363TIP3    H276581   0.071   6.797  16.256 -1.6261 -0.8572  1.5478
18364TIP3   OH276582   3.264   4.498  13.327  0.4982 -0.2082 -0.5333
18364TIP3    H176583   3.335   4.436  13.341  0.5771 -0.2428 -1.0536
18364TIP3    H276584   3.306   4.576  13.290  0.0889 -0.8826 -2.6028
18365TIP3   OH276585   0.566   5.775   3.743  0.1794 -0.1571 -0.4123
18365TIP3    H176586   0.497   5.719   3.706  0.8300 -1.4982  0.3282
18365TIP3    H276587   0.569   5.751   3.836  0.7618  0.8276 -0.1655
18366TIP3   OH276588   3.927   2.496   0.397 -0.1235  0.1805 -0.3117
18366TIP3    H176589   3.845   2.449   0.393 -0.2659  0.5103 -2.6922
18366TIP3    H276590   3.902   2.589   0.396  0.2393  0.3346  1.4568
18367TIP3   OH276591   3.082   4.985   0.227  0.1215  0.2414 -0.4343
18367TIP3    H176592   3.042   4.929   0.160 -0.5340  1.2649 -0.9285
18367TIP3    H276593   3.146   5.037   0.179  0.0260  0.6079 -0.1605
18368TIP3   OH276594   1.667   1.429   1.127 -0.4951  0.2768  0.2641
18368TIP3    H176595   1.594   1.374   1.155  0.2187 -1.3614 -0.9582
18368TIP3    H276596   1.627   1.513   1.104 -1.7482 -0.0549  1.1496
18369TIP3   OH276597   1.889   1.671   4.432  0.5761 -0.1142  0.3852
18369TIP3    H176598   1.805   1.714   4.450  0.2631 -1.2674  1.9833
18369TIP3    H276599   1.906   1.688   4.340 -0.9330  0.9775  0.2683
18370TIP3   OH276600   3.101   1.372   3.838  0.3507  0.1803  0.2482
18370TIP3    H176601   3.043   1.379   3.762 -0.6312 -0.2961  0.9202
18370TIP3    H276602   3.084   1.451   3.889 -1.4894 -1.0002  1.6048
18371TIP3   OH276603   0.857   3.723  13.886 -0.0445 -0.0208 -0.6629
18371TIP3    H176604   0.805   3.675  13.950 -1.2661  0.9116 -0.9308
18371TIP3    H276605   0.818   3.810  13.883  0.8440  0.3677 -1.6920
18372TIP3   OH276606   0.894   3.426  11.221 -0.4653 -0.0415  0.1493
18372TIP3    H176607   0.919   3.336  11.241  1.9489  0.7838  1.2097
18372TIP3    H276608   0.917   3.476  11.300 -1.6472  1.5452 -0.4429
18373TIP3   OH276609   6.793   1.449   4.868 -0.4949 -0.1911 -0.0657
18373TIP3    H176610   6.823   1.516   4.807  0.2676  0.4101  0.9381
18373TIP3    H276611   6.698   1.462   4.874 -0.2582  1.3185  0.7138
18374TIP3   OH276612   0.091   4.320  14.417  0.4359  0.3847  0.3445
18374TIP3    H176613   0.144   4.241  14.419 -0.0903  0.0346  0.6147
18374TIP3    H276614   0.049   4.323  14.503 -2.5835 -1.1428 -0.9453
18375TIP3   OH276615   3.161   1.475  15.447 -0.0574  0.2315 -0.2861
18375TIP3    H176616   3.122   1.557  15.479  1.6058  0.4516  1.3578
18375TIP3    H276617   3.187   1.494  15.357  1.5182  2.0228  0.4821
18376TIP3   OH276618   3.489   2.259   4.279 -0.1370  0.4782  0.8368
18376TIP3    H176619   3.480   2.223   4.191 -0.2842 -0.3579  1.1857
18376TIP3    H276620   3.568   2.313   4.275 -0.4173  0.8517  0.0683
18377TIP3   OH276621   1.617   3.797  15.739  0.1001 -0.8688 -0.0228
18377TIP3    H176622   1.588   3.780  15.828  2.7236 -0.9212  0.8846
18377TIP3    H276623   1.635   3.891  15.736  0.5013 -0.9495 -0.3295
18378TIP3   OH276624   4.809   3.483   6.376 -0.4439  0.5189  0.6076
18378TIP3    H176625   4.798   3.410   6.438  1.2549  0.3002  0.7035
18378TIP3    H276626   4.875   3.539   6.417 -0.8884  1.5136 -0.0102
18379TIP3   OH276627   0.254   4.212  14.973  0.3588 -0.2844 -0.2403
18379TIP3    H176628   0.207   4.287  15.010 -1.5922 -1.4849 -0.1512
18379TIP3    H276629   0.332   4.251  14.931 -1.7668  2.1445 -2.3254
18380TIP3   OH276630   1.735   2.939  10.669 -0.2508 -0.0784  0.6373
18380TIP3    H176631   1.671   2.875  10.640 -1.1352  0.8665  0.4238
18380TIP3    H276632   1.811   2.926  10.612  0.7249 -2.7151  2.3246
18381TIP3   OH276633   5.363   2.111   1.485  0.7420 -0.7813  0.0024
18381TIP3    H176634   5.372   2.027   1.529 -1.4509 -0.9835  0.1755
18381TIP3    H276635   5.419   2.170   1.534  1.9534 -2.0116  0.1631
18382TIP3   OH276636   3.585   4.536  13.680  0.2532  0.1210  0.3331
18382TIP3    H176637   3.516   4.599  13.703  1.0544  1.2051 -0.1202
18382TIP3    H276638   3.653   4.550  13.746 -0.4499 -1.8225  1.5366
18383TIP3   OH276639   2.007   3.588   2.087 -0.8536 -0.4121  0.2705
18383TIP3    H176640   1.964   3.526   2.145  0.8103  1.5551  3.9280
18383TIP3    H276641   2.099   3.560   2.086 -0.8508 -0.4678 -1.6263
18384TIP3   OH276642   1.036   5.952   1.548  0.1235 -0.3575 -0.4851
18384TIP3    H176643   1.072   5.976   1.463 -0.3313 -0.1308 -0.6184
18384TIP3    H276644   0.961   5.897   1.528  1.6589 -2.7193 -0.1809
18385TIP3   OH276645   0.675   5.887   0.588 -0.3003 -0.4174  0.2329
18385TIP3    H176646   0.721   5.807   0.564 -1.9976 -1.4284  0.1595
18385TIP3    H276647   0.664   5.935   0.506 -0.6836 -0.8892  0.0063
18386TIP3   OH276648   4.431   3.491  12.344  0.0433 -0.1494 -0.1528
18386TIP3    H176649   4.347   3.530  12.321  0.6560  0.3897 -1.5898
18386TIP3    H276650   4.490   3.565  12.359  0.5502 -0.5166 -0.2863
18387TIP3   OH276651   5.234   3.504  14.146 -0.0854  0.0096 -0.3312
18387TIP3    H176652   5.208   3.596  14.140 -1.5628 -0.3246  0.6242
18387TIP3    H276653   5.155   3.455  14.126  0.2150 -1.0517  0.9548
18388TIP3   OH276654   5.513   5.325   3.078 -0.3440  0.6650 -0.5626
18388TIP3    H176655   5.608   5.335   3.084 -0.0701 -0.2178 -2.6825
18388TIP3    H276656   5.496   5.240   3.119 -0.0213  0.1591 -1.4552
18389TIP3   OH276657   1.514   2.322  12.823 -0.2337 -0.4433 -0.5943
18389TIP3    H176658   1.542   2.253  12.762  1.7131  0.3461 -0.6710
18389TIP3    H276659   1.507   2.400  12.768  0.4890  0.0459 -0.0003
18390TIP3   OH276660   6.611   4.931  11.241  0.4695  0.7586  0.3055
18390TIP3    H176661   6.576   4.904  11.326 -1.9658  0.6047 -0.6726
18390TIP3    H276662   6.623   5.025  11.248  1.2311  0.6103  1.1182
18391TIP3   OH276663   5.517   4.672  10.499  0.3565  0.0157 -0.0749
18391TIP3    H176664   5.522   4.581  10.528  1.4961 -0.6631 -2.1704
18391TIP3    H276665   5.439   4.676  10.444  0.5864  0.1645 -0.3979
18392TIP3   OH276666   0.977   0.218   3.261 -0.1496 -0.0088  0.3559
18392TIP3    H176667   0.977   0.146   3.197  1.3427 -0.7147  1.1266
18392TIP3    H276668   0.898   0.268   3.239  0.4222 -0.0872 -2.1925
18393TIP3   OH276669   0.461   3.423   2.351  0.2907 -0.1143  0.7910
18393TIP3    H176670   0.391   3.485   2.371  1.1598  1.0057  0.5396
18393TIP3    H276671   0.420   3.357   2.295 -0.3819  0.9936 -0.0795
18394TIP3   OH276672   5.428   4.555  11.730  0.0034 -0.6763 -0.3912
18394TIP3    H176673   5.358   4.597  11.680 -0.7655 -1.1764  0.2389
18394TIP3    H276674   5.402   4.567  11.822  2.2448  1.7679  0.0489
18395TIP3   OH276675   2.337   3.828   4.083 -0.7667 -0.3445 -0.1706
18395TIP3    H176676   2.392   3.841   4.160 -0.7061 -0.7804 -0.1403
18395TIP3    H276677   2.273   3.762   4.111 -0.7006 -0.5554 -0.5126
18396TIP3   OH276678   4.155   0.776   2.678  0.0434 -0.2676 -0.2967
18396TIP3    H176679   4.063   0.751   2.686 -0.4579  1.6288  0.3494
18396TIP3    H276680   4.161   0.821   2.594  0.1868  0.3221  0.0237
18397TIP3   OH276681   6.740   5.128   1.570 -0.2322  0.1818 -0.2501
18397TIP3    H176682   6.790   5.046   1.571 -0.8445 -0.2550  2.5851
18397TIP3    H276683   6.649   5.101   1.563 -0.3322  0.8334 -2.1617
18398TIP3   OH276684   2.641   1.406  17.167 -0.1184  0.5651  0.1310
18398TIP3    H176685   2.551   1.374  17.170 -0.3890  1.1416 -1.1367
18398TIP3    H276686   2.638   1.489  17.215 -0.6838  1.4595 -1.3785
18399TIP3   OH276687   6.459   5.826  12.404  0.4962  0.0795  0.5501
18399TIP3    H176688   6.369   5.833  12.373 -0.2724 -1.8212  2.1260
18399TIP3    H276689   6.475   5.908  12.451  0.2171  1.1410 -1.1240
18400TIP3   OH276690   0.010   5.689   2.282 -0.0414  0.4713  0.0750
18400TIP3    H176691   0.093   5.707   2.325 -0.3157  2.3858 -0.0783
18400TIP3    H276692  -0.022   5.776   2.256 -2.6564 -0.0679  1.2021
18401TIP3   OH276693   1.995   4.612  16.909  0.0713 -0.0666 -0.1845
18401TIP3    H176694   1.928   4.679  16.895 -0.3704 -0.6236 -0.8326
18401TIP3    H276695   1.981   4.549  16.838 -1.3162 -2.2952  1.9179
18402TIP3   OH276696   2.512   3.290   1.757  0.1183  0.8001 -0.6265
18402TIP3    H176697   2.503   3.301   1.852  1.1938 -0.2770 -0.3701
18402TIP3    H276698   2.483   3.373   1.721 -0.1154  1.3141  0.6632
18403TIP3   OH276699   0.708   5.629   0.559 -0.0273  0.1144 -0.1211
18403TIP3    H176700   0.720   5.575   0.637  1.8343  1.5812  0.7084
18403TIP3    H276701   0.690   5.567   0.489  0.3441 -1.4234  1.0934
18404TIP3   OH276702   6.047   0.324  14.228  0.3450 -0.6073  0.6933
18404TIP3    H176703   6.027   0.349  14.138  0.7258 -0.3652  0.6723
18404TIP3    H276704   5.972   0.354  14.279  0.3698 -0.2637  0.5300
18405TIP3   OH276705   2.930   0.115   4.599  0.9060 -0.0786  0.2068
18405TIP3    H176706   2.865   0.168   4.553  1.2370  0.2141  0.0757
18405TIP3    H276707   2.897   0.110   4.689 -0.0236 -1.0982 -0.1591
18406TIP3   OH276708   0.986   2.535   3.526  0.4105  0.1298 -0.4775
18406TIP3    H176709   1.014   2.622   3.554  2.4414 -0.3942 -0.7511
18406TIP3    H276710   0.893   2.545   3.506  0.1898  1.8114  1.1465
18407TIP3   OH276711   0.150   6.472  12.502 -0.0466 -0.6225 -0.5188
18407TIP3    H176712   0.168   6.466  12.408  0.6835 -1.6783 -0.3361
18407TIP3    H276713   0.103   6.555  12.513  0.9229  0.1047 -1.6496
18408TIP3   OH276714   4.002   1.975  14.777  0.4783 -0.6816  0.4725
18408TIP3    H176715   4.071   1.910  14.764  0.2924 -0.3771 -2.8797
18408TIP3    H276716   4.039   2.056  14.743 -0.2070  0.4567  2.2735
18409TIP3   OH276717   3.749   5.192   0.533 -0.1017 -0.1897 -0.5584
18409TIP3    H176718   3.828   5.242   0.512 -0.0808  0.6198  1.2491
18409TIP3    H276719   3.782   5.113   0.575 -0.2348 -0.0529 -0.1958
18410TIP3   OH276720   2.460   2.811  14.794 -0.1561  0.0765 -0.4681
18410TIP3    H176721   2.511   2.869  14.738  0.2830  0.8364  0.6897
18410TIP3    H276722   2.481   2.838  14.883 -0.8587 -1.0854  0.0833
18411TIP3   OH276723   6.019   5.459  12.080  0.1268  0.1824 -0.0610
18411TIP3    H176724   6.014   5.423  11.991 -0.8606  0.7586 -0.2465
18411TIP3    H276725   6.113   5.465  12.097  0.3444 -1.6674 -0.3427
18412TIP3   OH276726   0.077   3.182   1.193 -0.3385  0.1600  0.2563
18412TIP3    H176727  -0.011   3.220   1.198 -0.1030  0.7825 -0.1250
18412TIP3    H276728   0.065   3.098   1.148 -0.4122  1.4905 -2.4721
18413TIP3   OH276729   1.559   2.586  14.445 -0.2232 -0.4234  0.0680
18413TIP3    H176730   1.501   2.635  14.503 -0.9573 -1.9188  0.6413
18413TIP3    H276731   1.543   2.623  14.358  0.5361  1.5177  0.6856
18414TIP3   OH276732   5.765   0.242   5.514  0.5083 -0.4540 -0.1766
18414TIP3    H176733   5.737   0.317   5.461 -3.3375 -2.2982 -1.0878
18414TIP3    H276734   5.838   0.204   5.466  0.1131  0.5597 -1.6389
18415TIP3   OH276735   4.773   5.763   3.465  0.5060  0.2136 -0.4843
18415TIP3    H176736   4.772   5.677   3.422  0.3981  0.7410 -1.5739
18415TIP3    H276737   4.684   5.795   3.455  0.6994  0.7108 -0.6366
18416TIP3   OH276738   2.271   1.779  12.252  0.1170 -0.3694 -0.3923
18416TIP3    H176739   2.192   1.744  12.212  0.4394 -0.7874 -0.6791
18416TIP3    H276740   2.277   1.733  12.336  0.4992 -0.9736 -0.7355
18417TIP3   OH276741   6.537   3.127   6.710 -0.1185  0.6542  0.2283
18417TIP3    H176742   6.580   3.156   6.791  0.6770  1.5675 -0.5039
18417TIP3    H276743   6.560   3.193   6.645 -0.2290 -0.3843 -0.9075
18418TIP3   OH276744   2.640   0.868   1.258 -0.5780 -0.3261 -0.3779
18418TIP3    H176745   2.721   0.826   1.227 -0.4649 -2.8083  2.6776
18418TIP3    H276746   2.599   0.902   1.179  2.3756 -0.9039 -2.3492
18419TIP3   OH276747   1.224   0.192  14.870 -0.2996  0.0360  0.4364
18419TIP3    H176748   1.140   0.160  14.903 -0.4820  0.2979  0.2392
18419TIP3    H276749   1.283   0.117  14.874 -1.3343 -1.0354 -2.2488
18420TIP3   OH276750   2.768   3.868  10.483 -0.2626  0.5772  0.4258
18420TIP3    H176751   2.837   3.807  10.510 -0.7758 -0.4393 -0.4676
18420TIP3    H276752   2.718   3.819  10.418 -2.1292  1.1331  1.3959
18421TIP3   OH276753   2.353   0.862  11.186  0.0465 -0.0216 -0.3465
18421TIP3    H176754   2.266   0.903  11.190 -0.3294 -0.8402  2.7959
18421TIP3    H276755   2.411   0.931  11.155 -1.6265  0.6427 -2.2118
18422TIP3   OH276756   5.879   1.068  15.158 -0.3752  0.3064 -0.2283
18422TIP3    H176757   5.821   1.143  15.148 -0.2548  0.6382  1.2583
18422TIP3    H276758   5.967   1.105  15.158 -0.0173 -0.3082 -3.5632
18423TIP3   OH276759   1.572   2.568   3.554 -0.3095  0.2092  0.2835
18423TIP3    H176760   1.622   2.621   3.616  1.4356 -0.3173 -0.6169
18423TIP3    H276761   1.498   2.534   3.605  1.1271 -0.2870  2.1060
18424TIP3   OH276762   4.816   1.522  11.701 -0.3785 -0.4326 -0.3300
18424TIP3    H176763   4.804   1.537  11.607  1.3776  0.9397 -0.4014
18424TIP3    H276764   4.911   1.526  11.713 -0.5898 -0.4556  1.5171
18425TIP3   OH276765   2.797   0.099  13.653 -0.4843  0.2593  0.2370
18425TIP3    H176766   2.760   0.095  13.741  2.7167  0.9430  1.7307
18425TIP3    H276767   2.885   0.133  13.665  0.1651  0.1685 -3.2511
18426TIP3   OH276768   1.807   5.660   5.077 -0.2300  0.5344 -0.5764
18426TIP3    H176769   1.876   5.710   5.121 -0.3248 -0.9649  1.3859
18426TIP3    H276770   1.727   5.711   5.093  0.0743  1.1622 -1.0006
18427TIP3   OH276771   5.122   1.356  12.542  0.2966 -0.0918  0.2024
18427TIP3    H176772   5.078   1.366  12.626 -0.8737 -0.2081 -0.3782
18427TIP3    H276773   5.203   1.310  12.563 -0.1065 -0.3597  1.2331
18428TIP3   OH276774   2.198   1.872   4.049 -0.1276 -0.2359  0.7701
18428TIP3    H176775   2.216   1.842   3.960 -0.3763 -0.8721  0.9272
18428TIP3    H276776   2.211   1.966   4.046  1.4631 -0.4484  0.4582
18429TIP3   OH276777   0.156   0.807  10.764  0.8747 -0.3983  0.6714
18429TIP3    H176778   0.087   0.774  10.822 -0.9141  0.1540 -1.0367
18429TIP3    H276779   0.230   0.749  10.779 -0.9379 -2.8922  0.4584
18430TIP3   OH276780   2.749   1.672  11.068 -0.4067 -0.3766 -0.1006
18430TIP3    H176781   2.666   1.715  11.047  0.3742  1.0087 -0.4803
18430TIP3    H276782   2.747   1.591  11.017 -1.4866 -0.3101 -0.1826
18431TIP3   OH276783   5.716   1.793   3.294  0.1858 -0.7622  0.2814
18431TIP3    H176784   5.801   1.822   3.326 -0.2652 -0.8045  1.5668
18431TIP3    H276785   5.728   1.701   3.271  0.7760 -0.4605 -0.6802
18432TIP3   OH276786   3.195   3.326  11.733 -0.2325  0.0532  0.5122
18432TIP3    H176787   3.109   3.309  11.772 -0.3550  1.8533  1.1672
18432TIP3    H276788   3.254   3.334  11.808  0.1989  0.2649  0.1566
18433TIP3   OH276789   0.195   5.730   2.875  0.7539  0.5426 -0.6585
18433TIP3    H176790   0.139   5.662   2.912 -0.3701  0.9153 -1.5782
18433TIP3    H276791   0.280   5.717   2.915  0.2516 -0.6680  0.0536
18434TIP3   OH276792   5.280   3.378   4.122 -0.5643 -0.0605  0.0007
18434TIP3    H176793   5.248   3.415   4.040 -1.4755  0.5032  0.6004
18434TIP3    H276794   5.259   3.284   4.115  1.8543 -0.5894 -1.5669
18435TIP3   OH276795   6.690   1.498   6.317 -0.1058 -0.1539  0.0941
18435TIP3    H176796   6.746   1.440   6.264  0.7426  1.2346 -0.6058
18435TIP3    H276797   6.610   1.449   6.331  0.8473 -1.7576  0.1193
18436TIP3   OH276798   6.650   0.711   0.855 -0.0415  0.3148 -0.3727
18436TIP3    H176799   6.713   0.695   0.926 -1.2660 -0.3847  0.5979
18436TIP3    H276800   6.699   0.691   0.775  0.4069 -2.3602  0.4532
18437TIP3   OH276801   4.937   1.579   3.469 -0.4576  0.1616  0.4128
18437TIP3    H176802   4.993   1.565   3.546 -0.8195  1.2051  0.8735
18437TIP3    H276803   4.883   1.654   3.491  1.0440  2.0163 -1.7719
18438TIP3   OH276804   5.411   6.347   0.611  0.1985 -0.1942 -0.2833
18438TIP3    H176805   5.405   6.438   0.641  0.6807 -0.2252 -0.0868
18438TIP3    H276806   5.500   6.320   0.633 -0.0021 -0.7791 -0.1692
18439TIP3   OH276807   4.596   2.592  14.269 -0.0451 -0.2364  0.0354
18439TIP3    H176808   4.615   2.683  14.245 -1.4033  0.1685  0.3796
18439TIP3    H276809   4.558   2.598  14.357  0.9263 -1.2687  0.5504
18440TIP3   OH276810   6.701   5.519   1.666  0.0918 -0.0043 -0.1359
18440TIP3    H176811   6.707   5.518   1.571  2.5062 -1.1123 -0.0368
18440TIP3    H276812   6.729   5.607   1.691 -3.1018  1.2291 -0.4654
18441TIP3   OH276813   3.829   1.461  14.272  0.5419  0.6861 -0.6365
18441TIP3    H176814   3.855   1.552  14.285 -0.8735  1.0019  0.2406
18441TIP3    H276815   3.764   1.463  14.202 -0.2245  0.5215  0.0406
18442TIP3   OH276816   0.368   6.569  16.863  0.0457  0.5146  0.4537
18442TIP3    H176817   0.346   6.662  16.867  0.1291  0.5475  0.2046
18442TIP3    H276818   0.301   6.526  16.916 -0.6714  0.6082 -0.3497
18443TIP3   OH276819   3.666   3.831  13.640  0.0602  0.2739  0.5393
18443TIP3    H176820   3.711   3.773  13.702  1.0582  1.8664  1.3738
18443TIP3    H276821   3.595   3.869  13.690  0.0002  0.5024  0.2830
18444TIP3   OH276822   3.467   4.365  14.622 -0.0021  0.0854  0.0282
18444TIP3    H176823   3.492   4.292  14.679 -0.4969  0.8146  1.2422
18444TIP3    H276824   3.547   4.386  14.574  0.2971 -0.8902  0.0839
18445TIP3   OH276825   0.411   0.063   2.230 -0.6514  0.3828  0.1316
18445TIP3    H176826   0.339   0.108   2.187 -1.0089  0.1645  0.4997
18445TIP3    H276827   0.370   0.014   2.301 -0.1272  0.3460  0.4134
18446TIP3   OH276828   3.836   0.352   3.117  0.1372  0.3810  0.0201
18446TIP3    H176829   3.836   0.272   3.170 -0.5498 -0.3032 -0.9738
18446TIP3    H276830   3.910   0.342   3.058 -1.2376 -0.6091 -1.6238
18447TIP3   OH276831   6.241   0.608   0.693 -0.1196  0.7458 -0.3733
18447TIP3    H176832   6.321   0.557   0.706  0.7453  2.2703  0.6003
18447TIP3    H276833   6.174   0.543   0.670  0.6368 -0.9735  1.9489
18448TIP3   OH276834   6.474   0.823  12.213 -0.1930 -0.0903  0.1881
18448TIP3    H176835   6.458   0.831  12.119 -0.5231  0.4873  0.2904
18448TIP3    H276836   6.541   0.755  12.220 -1.1248 -1.1051 -0.3798
18449TIP3   OH276837   5.565   2.745   2.878 -0.1605  0.0126 -0.0584
18449TIP3    H176838   5.578   2.662   2.922 -0.5642  0.0729  0.1846
18449TIP3    H276839   5.650   2.767   2.842  0.7124  0.9184  2.3480
18450TIP3   OH276840   2.523   5.959  16.729 -0.0942 -0.2130 -0.1298
18450TIP3    H176841   2.464   5.946  16.654 -2.0046 -1.0413  1.4079
18450TIP3    H276842   2.552   5.871  16.751 -2.2583 -0.4806  2.0784
18451TIP3   OH276843   1.512   1.621   0.916 -0.7768  0.7791 -0.2312
18451TIP3    H176844   1.426   1.604   0.953 -0.9280  2.0498  0.0654
18451TIP3    H276845   1.501   1.605   0.822 -1.6878  2.0585 -0.3768
18452TIP3   OH276846   2.758   0.485   3.925  0.1343  0.6699  0.6544
18452TIP3    H176847   2.723   0.569   3.956 -0.8797  0.5024 -0.0218
18452TIP3    H276848   2.839   0.509   3.878 -0.2344  1.2857  0.3207
18453TIP3   OH276849   3.804   6.550   4.028  0.5128 -0.3772  0.1841
18453TIP3    H176850   3.886   6.516   3.992  1.2263  0.8124  0.6188
18453TIP3    H276851   3.831   6.592   4.110 -0.6111 -0.3687  0.5572
18454TIP3   OH276852   0.911   0.873   1.896 -0.0890 -0.1594 -0.2656
18454TIP3    H176853   0.899   0.961   1.931  0.2085 -0.1761 -0.1167
18454TIP3    H276854   0.960   0.886   1.815  1.1363 -0.2747  0.4194
18455TIP3   OH276855   2.910   0.696   0.841 -0.2359 -0.0730  0.6858
18455TIP3    H176856   2.935   0.627   0.780 -1.9367 -2.0724  2.0890
18455TIP3    H276857   2.829   0.733   0.804  1.7735  2.8752 -1.2175
18456TIP3   OH276858   3.990   2.681  11.879  0.7518  0.0636 -0.1287
18456TIP3    H176859   3.969   2.754  11.820 -0.9535  0.1572  0.5270
18456TIP3    H276860   3.910   2.628  11.881  0.1727  0.8473  3.1521
18457TIP3   OH276861   1.382   0.413   1.360  0.0318  0.3640  0.2698
18457TIP3    H176862   1.388   0.508   1.372  2.9661 -0.0237  3.9039
18457TIP3    H276863   1.451   0.391   1.298 -1.1017  0.5854 -1.1155
18458TIP3   OH276864   1.857   3.396   2.272 -0.2855 -0.1622 -0.4260
18458TIP3    H176865   1.881   3.474   2.322 -0.1166 -0.1945 -0.4582
18458TIP3    H276866   1.805   3.344   2.333 -1.1119  0.3651 -0.6646
18459TIP3   OH276867   4.145   5.435  16.350  0.2995 -0.2598 -0.2089
18459TIP3    H176868   4.091   5.397  16.419 -1.7083 -0.8138 -1.9719
18459TIP3    H276869   4.164   5.361  16.292  1.5400  0.2853 -0.5413
18460TIP3   OH276870   4.066   4.026   2.126  0.1574 -0.2786  0.2253
18460TIP3    H176871   4.009   4.067   2.060  0.3898 -0.9575 -0.4143
18460TIP3    H276872   4.011   4.019   2.204 -0.3825 -0.1947 -0.1396
18461TIP3   OH276873   6.437   6.115   2.219  0.5999 -0.0401  0.5126
18461TIP3    H176874   6.429   6.021   2.228 -1.2830  0.1739  1.5162
18461TIP3    H276875   6.350   6.149   2.237  0.9330  1.8253 -1.0215
18462TIP3   OH276876   6.573   5.914  13.591  0.3777 -0.2119 -0.0148
18462TIP3    H176877   6.478   5.902  13.599  0.4026 -0.3431  0.0876
18462TIP3    H276878   6.585   6.009  13.587  0.4084 -0.1018  2.0029
18463TIP3   OH276879   5.388   2.157  17.064 -0.2589  0.2615 -0.0668
18463TIP3    H176880   5.419   2.093  17.001  0.4353  1.3578 -0.8916
18463TIP3    H276881   5.317   2.114  17.111 -0.7764 -0.5949 -1.5891
18464TIP3   OH276882   4.923   1.151  10.562  0.1715 -0.5897 -0.3186
18464TIP3    H176883   4.934   1.058  10.582 -3.2132 -1.4548 -1.8640
18464TIP3    H276884   4.957   1.160  10.473  2.6792  0.2944  0.6295
18465TIP3   OH276885   5.485   3.530   1.371  0.3354  0.1360  0.7096
18465TIP3    H176886   5.527   3.585   1.437 -2.3211  0.7718  2.0488
18465TIP3    H276887   5.518   3.442   1.387  1.9846  0.7542  0.8756
18466TIP3   OH276888   3.228   2.937   3.320 -0.0192  0.3865 -0.6630
18466TIP3    H176889   3.133   2.930   3.316 -0.1288  0.1590  1.3093
18466TIP3    H276890   3.260   2.857   3.279 -0.6337  0.8888 -2.1707
18467TIP3   OH276891   5.565   3.164  16.143 -0.5920  0.6980 -0.1609
18467TIP3    H176892   5.648   3.129  16.113 -0.9908 -0.5335  0.1104
18467TIP3    H276893   5.564   3.148  16.237 -1.1650  0.6044 -0.1762
18468TIP3   OH276894   0.944   3.176   1.916  0.3103  0.4567  0.7029
18468TIP3    H176895   1.021   3.222   1.883 -0.1377  0.5618 -0.2385
18468TIP3    H276896   0.905   3.237   1.979 -0.2506  1.3645 -0.4941
18469TIP3   OH276897   5.591   1.858  10.067  0.0136  0.2478  0.2058
18469TIP3    H176898   5.577   1.766  10.043 -0.5847  0.4286 -0.1207
18469TIP3    H276899   5.649   1.853  10.144  1.5137 -0.3423 -0.8983
18470TIP3   OH276900   2.633   4.359   2.552 -0.0164  0.4500 -0.3225
18470TIP3    H176901   2.560   4.361   2.613 -0.1287 -0.7574 -0.3937
18470TIP3    H276902   2.684   4.438   2.572 -1.2497  1.2383 -0.1823
18471TIP3   OH276903   2.127   4.664  11.448  0.0463  0.0782  0.1059
18471TIP3    H176904   2.187   4.589  11.453 -0.0374  0.0570  0.9781
18471TIP3    H276905   2.071   4.645  11.372 -0.0991 -0.8405  0.4287
18472TIP3   OH276906   5.371   3.857  15.483  0.3953 -0.0087 -0.0323
18472TIP3    H176907   5.434   3.895  15.544  0.4268  1.1030 -0.7329
18472TIP3    H276908   5.399   3.766  15.474 -0.0418 -0.4297  2.1483
18473TIP3   OH276909   5.422   1.011  15.551  0.2098 -0.1620  0.1747
18473TIP3    H176910   5.381   1.087  15.509  2.6417  2.4059  1.9874
18473TIP3    H276911   5.350   0.956  15.580 -1.7912  2.2695  0.0979
18474TIP3   OH276912   3.233   4.050  16.590 -0.1146 -0.6104 -0.4225
18474TIP3    H176913   3.169   4.118  16.570 -0.1924 -0.2151  1.0023
18474TIP3    H276914   3.240   3.998  16.510  0.3538  1.3841 -1.7558
18475TIP3   OH276915   5.685   0.222  11.990  0.0999 -0.2899  0.1725
18475TIP3    H176916   5.709   0.173  12.069  0.0680 -0.9630 -0.2219
18475TIP3    H276917   5.603   0.181  11.961 -0.0609  0.1700 -0.0318
18476TIP3   OH276918   2.861   5.262  15.887 -0.3857 -0.0006 -0.0673
18476TIP3    H176919   2.877   5.343  15.839  0.9751 -2.0715 -3.4972
18476TIP3    H276920   2.914   5.269  15.966  0.4546  2.0603 -0.7623
18477TIP3   OH276921   5.105   3.514  12.260  0.2236  0.0168 -0.0941
18477TIP3    H176922   5.175   3.501  12.196  1.7853 -1.1455  1.7364
18477TIP3    H276923   5.035   3.456  12.230  0.8858 -0.4348 -0.8299
18478TIP3   OH276924   4.570   6.460  11.396 -0.3568  0.1394  0.5208
18478TIP3    H176925   4.528   6.545  11.384  0.0701  0.3358  0.3806
18478TIP3    H276926   4.664   6.481  11.404 -0.1087 -0.4050 -0.7064
18479TIP3   OH276927   4.298   6.272  14.622  0.1247 -0.3843  0.1764
18479TIP3    H176928   4.222   6.227  14.585 -0.3302 -0.0008  0.6286
18479TIP3    H276929   4.339   6.316  14.548 -0.1964 -0.4592 -0.0460
18480TIP3   OH276930   1.588   1.047   3.055 -0.0138  0.9701  0.0682
18480TIP3    H176931   1.678   1.070   3.078  0.2549  0.2325 -0.2089
18480TIP3    H276932   1.543   1.041   3.139  0.9330 -1.6026  0.4903
18481TIP3   OH276933   3.661   4.978  16.055 -0.3213 -0.8209  0.3218
18481TIP3    H176934   3.691   5.059  16.012 -2.1756 -0.9009 -1.2545
18481TIP3    H276935   3.732   4.916  16.040  0.8912  0.3381  1.0649
18482TIP3   OH276936   4.486   5.912  10.554  0.0101  0.0761  0.1695
18482TIP3    H176937   4.438   5.967  10.616 -1.1096 -0.3641 -0.2665
18482TIP3    H276938   4.453   5.824  10.570  1.1169 -0.3321  0.2368
18483TIP3   OH276939   0.218   5.841  11.366  0.2023  0.0168  0.5404
18483TIP3    H176940   0.196   5.751  11.341 -0.1261  0.5481 -1.2489
18483TIP3    H276941   0.137   5.891  11.351  1.0252  1.0212 -0.8567
18484TIP3   OH276942   1.591   2.939   0.276 -0.3475  0.1518  0.0278
18484TIP3    H176943   1.528   2.903   0.339 -0.5584 -1.1291 -0.8655
18484TIP3    H276944   1.537   2.968   0.202 -0.0229  0.7108  0.0016
18485TIP3   OH276945   6.270   5.127  11.633 -0.0573  0.4782 -0.1526
18485TIP3    H176946   6.199   5.087  11.684  0.3334 -0.1684 -0.1116
18485TIP3    H276947   6.240   5.122  11.542  0.3068 -0.5900 -0.2238
18486TIP3   OH276948   2.500   4.685   1.449 -0.7187  0.0319 -0.5002
18486TIP3    H176949   2.507   4.689   1.544  2.1431 -1.9838 -0.4804
18486TIP3    H276950   2.550   4.761   1.419  0.3710 -0.5850 -0.3251
18487TIP3   OH276951   3.494   3.840  13.248  0.0532 -0.1815 -0.4301
18487TIP3    H176952   3.485   3.771  13.313  0.0384 -1.3706 -1.6526
18487TIP3    H276953   3.469   3.799  13.165 -1.2360  1.6542 -1.0103
18488TIP3   OH276954   6.426   1.654   3.942  0.8619  0.1758 -0.1073
18488TIP3    H176955   6.419   1.666   3.848  0.1271 -1.1571 -0.2466
18488TIP3    H276956   6.353   1.596   3.965  1.3314  0.0524  1.1924
18489TIP3   OH276957   4.116   5.420  17.091 -0.1633 -0.3316 -0.0092
18489TIP3    H176958   4.044   5.361  17.111 -0.8557  0.7637  0.8988
18489TIP3    H276959   4.077   5.507  17.095  1.2455  0.3014  0.7014
18490TIP3   OH276960   5.716   3.132  14.124  0.5028 -0.0560 -0.1598
18490TIP3    H176961   5.784   3.065  14.133  0.2166 -0.5190 -1.2557
18490TIP3    H276962   5.693   3.130  14.031 -2.4797 -1.3612  0.4965
18491TIP3   OH276963   1.380   3.741  11.546  0.0520 -0.2162 -0.5118
18491TIP3    H176964   1.470   3.753  11.516 -0.4161  2.6273 -1.0484
18491TIP3    H276965   1.346   3.669  11.492  1.3623  0.0702 -1.7686
18492TIP3   OH276966   3.856   3.033  15.780  0.0582  0.1668  0.5350
18492TIP3    H176967   3.760   3.030  15.786  0.0091 -0.3162 -0.2598
18492TIP3    H276968   3.885   3.054  15.868 -0.8333  1.6229  0.5055
18493TIP3   OH276969   1.073   0.802  16.415 -0.0052 -0.0508 -0.1139
18493TIP3    H176970   1.158   0.772  16.382  0.3152  0.7901 -0.0691
18493TIP3    H276971   1.026   0.721  16.436  0.7675 -0.5247 -0.1634
18494TIP3   OH276972   6.731   6.343   1.800  0.3448  0.0801  0.1459
18494TIP3    H176973   6.775   6.258   1.807 -1.4605 -0.7919  1.9906
18494TIP3    H276974   6.658   6.338   1.862 -2.0678  1.6243 -2.3125
18495TIP3   OH276975   0.046   1.921  16.815 -0.0094 -0.0215 -0.5982
18495TIP3    H176976  -0.012   1.978  16.865 -1.5440 -0.8310 -1.3805
18495TIP3    H276977   0.129   1.924  16.862 -0.3541  1.9915 -0.0254
18496TIP3   OH276978   2.525   5.330  15.378 -0.1080 -0.8883 -0.4276
18496TIP3    H176979   2.482   5.262  15.327  0.5468 -1.3830 -0.3448
18496TIP3    H276980   2.460   5.357  15.442  0.0329 -2.4203  0.4342
18497TIP3   OH276981   1.436   4.337   0.026  0.1366 -0.8057 -0.3346
18497TIP3    H176982   1.409   4.346   0.117 -1.5608  0.6656 -0.9112
18497TIP3    H276983   1.485   4.417   0.007  0.3130 -1.0110 -0.7778
18498TIP3   OH276984   3.626   4.210   1.650 -0.1851 -0.3081 -0.2677
18498TIP3    H176985   3.609   4.146   1.719  1.0791 -1.8798 -1.3469
18498TIP3    H276986   3.715   4.240   1.668  0.1280 -0.6874 -1.1618
18499TIP3   OH276987   5.883   6.219   4.859 -0.2773  0.1479 -0.0340
18499TIP3    H176988   5.870   6.272   4.937 -0.3873  0.7998 -0.4840
18499TIP3    H276989   5.934   6.144   4.889 -0.0352  0.5553  0.5978
18500TIP3   OH276990   4.025   6.297  16.234 -0.4646 -0.1667  0.2029
18500TIP3    H176991   4.087   6.233  16.199  0.3467  0.9360 -0.4290
18500TIP3    H276992   3.951   6.295  16.173 -0.5494 -0.6596  0.3178
18501TIP3   OH276993   4.738   1.985   1.902  0.2096 -0.2361  0.4422
18501TIP3    H176994   4.785   1.981   1.819  2.5061  1.0732  1.5788
18501TIP3    H276995   4.651   1.950   1.882  0.7487 -0.1949 -2.4235
18502TIP3   OH276996   5.392   4.235  12.972  0.2462 -0.1303 -0.3585
18502TIP3    H176997   5.419   4.312  12.923  3.2896 -0.4071  0.6619
18502TIP3    H276998   5.474   4.194  13.000 -1.2679 -2.7909  0.6239
18503TIP3   OH276999   5.582   4.992  15.431 -0.1289  0.2206  0.7813
18503TIP3    H177000   5.648   4.980  15.499  0.4879  0.8095  0.2934
18503TIP3    H277001   5.618   5.059  15.373 -1.5708  1.2737  1.0359
18504TIP3   OH277002   0.100   4.641  15.216  0.1368  0.7206 -0.0348
18504TIP3    H177003   0.114   4.622  15.308 -1.6493  0.4405  0.2075
18504TIP3    H277004   0.123   4.559  15.171  2.7238  1.3736 -0.0828
18505TIP3   OH277005   4.210   3.549  16.738  0.5439  0.3832  0.0062
18505TIP3    H177006   4.231   3.584  16.652  0.0057 -0.8000 -0.6284
18505TIP3    H277007   4.279   3.485  16.757 -1.1668 -1.9652 -1.1626
18506TIP3   OH277008   4.629   2.329  14.856  0.4500 -0.5786  0.2338
18506TIP3    H177009   4.556   2.378  14.893  0.4589 -0.4211  0.0453
18506TIP3    H277010   4.589   2.265  14.798  0.3767 -1.4942  1.2599
18507TIP3   OH277011   1.666   1.523   0.261 -0.4795  0.4077 -0.0249
18507TIP3    H177012   1.602   1.492   0.197 -0.0620 -0.5160 -0.0160
18507TIP3    H277013   1.672   1.452   0.325 -1.3979  1.5906  1.4379
18508TIP3   OH277014   5.055   4.809   2.344 -0.2402  0.3900  0.1624
18508TIP3    H177015   5.130   4.761   2.377 -0.8122 -1.5495 -1.1466
18508TIP3    H277016   4.982   4.748   2.351 -1.4950  1.8328  0.3838
18509TIP3   OH277017   6.616   0.663  15.397 -0.6989  0.3330  0.4473
18509TIP3    H177018   6.657   0.611  15.327 -0.2286 -1.7524  2.1583
18509TIP3    H277019   6.689   0.707  15.440 -1.0076  1.7708 -0.4338
18510TIP3   OH277020   5.546   1.519  14.766 -0.2260  0.6766  0.0684
18510TIP3    H177021   5.567   1.553  14.853 -1.0011 -0.2734  0.6422
18510TIP3    H277022   5.624   1.469  14.741 -0.7122 -0.5864  1.0220
18511TIP3   OH277023   3.898   0.161  15.280  0.0168 -0.2167 -0.7400
18511TIP3    H177024   3.944   0.115  15.351  0.4535  0.9637 -0.2389
18511TIP3    H277025   3.967   0.210  15.235 -0.4124 -0.1969 -1.3767
18512TIP3   OH277026   1.865   0.238  11.656 -0.3134 -0.9114 -0.3478
18512TIP3    H177027   1.920   0.208  11.729 -1.3749  0.0140  0.9044
18512TIP3    H277028   1.922   0.297  11.606  0.1199 -0.7060  0.3687
18513TIP3   OH277029   5.082   6.117  13.400  0.0185 -0.4839  0.4395
18513TIP3    H177030   5.110   6.055  13.332 -1.2726  0.4448 -1.0070
18513TIP3    H277031   5.147   6.107  13.470  0.9049 -2.0931 -0.5477
18514TIP3   OH277032   5.657   3.762   2.839  0.6979 -0.6081  0.5292
18514TIP3    H177033   5.649   3.794   2.929  2.1137  0.4759  0.3116
18514TIP3    H277034   5.628   3.671   2.842 -1.5853  0.0973  1.5930
18515TIP3   OH277035   2.614   4.207   5.393 -0.3913 -0.3305  0.1253
18515TIP3    H177036   2.661   4.210   5.476 -1.0957  2.1452  0.5128
18515TIP3    H277037   2.682   4.186   5.328  0.0661 -2.8429  1.2974
18516TIP3   OH277038   2.169   1.385  13.162  0.2975 -0.3629 -0.4571
18516TIP3    H177039   2.229   1.433  13.218  1.8422 -1.3356 -1.1977
18516TIP3    H277040   2.213   1.382  13.077 -1.5663  0.2971 -1.5090
18517TIP3   OH277041   5.037   3.033  15.664 -0.2552  0.0584  0.1784
18517TIP3    H177042   5.035   2.973  15.590 -1.1898  0.5742 -0.2325
18517TIP3    H277043   5.034   2.976  15.741 -3.8202 -0.4367 -0.1824
18518TIP3   OH277044   4.461   6.072  13.259  0.0014  0.1623  0.1491
18518TIP3    H177045   4.537   6.086  13.315  1.0644 -0.2278 -1.1370
18518TIP3    H277046   4.391   6.048  13.320  0.8779  0.5837  1.3744
18519TIP3   OH277047   3.287   4.308   2.069 -0.1741 -0.0825  0.2176
18519TIP3    H177048   3.301   4.401   2.086  0.3003 -0.4799  2.1564
18519TIP3    H277049   3.195   4.293   2.090 -0.6063  0.1851 -1.3693
18520TIP3   OH277050   0.881   1.681  16.468  0.1091 -0.6474 -0.1646
18520TIP3    H177051   0.872   1.596  16.426 -2.3813 -1.4232  1.6710
18520TIP3    H277052   0.836   1.742  16.409 -0.1685 -1.0441 -0.3635
18521TIP3   OH277053   0.903   0.589   0.702 -0.4535 -0.3184 -0.6679
18521TIP3    H177054   0.991   0.584   0.665  0.7268 -0.1444  1.9091
18521TIP3    H277055   0.845   0.598   0.626  1.4866 -2.8871 -2.6353
18522TIP3   OH277056   2.793   1.520  12.076  0.3069 -0.2968  0.3430
18522TIP3    H177057   2.829   1.561  12.155  1.6553 -0.8402  0.0289
18522TIP3    H277058   2.702   1.500  12.099 -0.0061  1.6318  0.9609
18523TIP3   OH277059   2.364   1.191  12.562 -0.1307 -0.3084  0.0187
18523TIP3    H177060   2.283   1.202  12.612 -0.4096  0.6275 -0.6028
18523TIP3    H277061   2.404   1.278  12.564 -0.6050  0.0211 -2.1262
18524TIP3   OH277062   4.984   5.452  14.866  0.0430  0.0398 -0.1454
18524TIP3    H177063   4.941   5.392  14.927  0.3129  1.1490  1.2026
18524TIP3    H277064   5.076   5.452  14.894  0.5417 -0.7145 -1.6671
18525TIP3   OH277065   0.742   4.938  14.277 -0.2399  0.7582 -0.4768
18525TIP3    H177066   0.686   4.938  14.354 -0.6491  2.8582 -0.7192
18525TIP3    H277067   0.780   5.026  14.274  3.3736 -0.5882 -0.1668
18526TIP3   OH277068   3.410   3.399   3.654  0.2150 -0.1357  0.6774
18526TIP3    H177069   3.433   3.311   3.623  1.0425  0.5586 -0.7649
18526TIP3    H277070   3.417   3.393   3.750  0.9670 -1.4392  0.5702
18527TIP3   OH277071   4.435   3.877   0.044 -0.6110  1.0394 -0.5077
18527TIP3    H177072   4.492   3.813   0.087  0.2902  1.0555 -1.6127
18527TIP3    H277073   4.359   3.884   0.100 -0.3497 -0.3890  0.0560
18528TIP3   OH277074   5.971   2.038  11.933  0.0212  0.1194  0.0487
18528TIP3    H177075   5.902   1.994  11.883 -0.1442 -1.2595  1.4154
18528TIP3    H277076   5.944   2.130  11.935 -0.0378  0.2145 -2.2246
18529TIP3   OH277077   2.995   3.468   2.884 -0.4441  0.2239 -0.2187
18529TIP3    H177078   2.959   3.390   2.843 -0.3012 -0.0934  0.2523
18529TIP3    H277079   2.952   3.541   2.839 -1.3095 -0.1362  0.0033
18530TIP3   OH277080   1.959   3.221   6.674 -0.5933 -0.2107  0.2372
18530TIP3    H177081   1.984   3.312   6.692  4.0973 -1.1543 -0.2507
18530TIP3    H277082   1.908   3.225   6.593  0.1634  1.9372 -0.1942
18531TIP3   OH277083   3.406   3.135  12.473  0.4515  0.1844  0.4209
18531TIP3    H177084   3.397   3.166  12.382  3.3613 -0.9638 -0.3579
18531TIP3    H277085   3.348   3.059  12.478 -0.0426  0.4990 -0.3374
18532TIP3   OH277086   2.691   0.397   6.691  0.1386  0.1258  0.7623
18532TIP3    H177087   2.733   0.411   6.606 -0.5426 -0.6980  0.2770
18532TIP3    H277088   2.634   0.321   6.678 -1.0500  0.8416  1.5600
18533TIP3   OH277089   2.185   6.068  12.677  0.0035  0.1054  0.3845
18533TIP3    H177090   2.261   6.106  12.634  0.7412 -1.0150  0.6510
18533TIP3    H277091   2.159   6.133  12.742 -1.0114  1.7433 -1.5364
18534TIP3   OH277092   6.425   6.288  14.520 -0.1358  0.7163 -0.1485
18534TIP3    H177093   6.373   6.276  14.599  1.2012 -2.2074  0.4398
18534TIP3    H277094   6.445   6.381  14.518 -1.6005  1.1579  2.0261
18535TIP3   OH277095   3.249   6.351  13.489  0.4637  0.5998  0.5495
18535TIP3    H177096   3.212   6.263  13.484  0.0241  0.8450 -0.8208
18535TIP3    H277097   3.303   6.359  13.409  0.4987  1.5673  0.6570
18536TIP3   OH277098   0.255   6.808   3.373 -0.4043 -0.0438 -0.2827
18536TIP3    H177099   0.275   6.772   3.459  2.9036 -1.3282 -1.4536
18536TIP3    H277100   0.239   6.901   3.390  0.8257 -0.1168  1.6634
18537TIP3   OH277101   5.022   5.037   1.035  0.0059 -0.4285 -0.3856
18537TIP3    H177102   5.080   4.971   0.996 -0.0625 -0.7402  0.0417
18537TIP3    H277103   5.076   5.117   1.038  0.1189 -0.4878 -0.8156
18538TIP3   OH277104   6.414   5.861   2.416  0.3776 -0.1526  0.0163
18538TIP3    H177105   6.399   5.860   2.511 -0.3931 -2.1671 -0.0779
18538TIP3    H277106   6.479   5.792   2.402  0.5758  0.2115 -0.9220
18539TIP3   OH277107   0.185   0.869  14.537  0.4270 -0.3708 -0.2131
18539TIP3    H177108   0.250   0.882  14.606  2.0983  1.1282 -1.9281
18539TIP3    H277109   0.235   0.830  14.465 -0.7842 -0.0556 -1.2607
18540TIP3   OH277110   5.657   6.247   1.436 -0.2701 -0.9757  0.1073
18540TIP3    H177111   5.566   6.230   1.411 -0.4827 -0.8162  0.7685
18540TIP3    H277112   5.664   6.213   1.525 -0.0266  0.1608  0.5364
18541TIP3   OH277113   3.281   1.087   0.657 -0.4512  0.0404  0.0788
18541TIP3    H177114   3.271   0.995   0.681 -0.8302  0.2637  0.7819
18541TIP3    H277115   3.376   1.099   0.649 -0.3849 -0.3321  0.2860
18542TIP3   OH277116   6.452   1.076  16.039 -0.2888  0.1683 -0.3489
18542TIP3    H177117   6.472   1.009  15.973 -0.0301  1.1409 -1.2835
18542TIP3    H277118   6.362   1.101  16.020  0.3546  1.7250 -1.5150
18543TIP3   OH277119   3.697   5.138   4.877  0.1824 -0.1751 -0.1831
18543TIP3    H177120   3.735   5.199   4.939 -1.9307  1.6049 -0.5125
18543TIP3    H277121   3.756   5.141   4.801  1.6049 -0.7279  0.8697
18544TIP3   OH277122   3.963   3.756  10.407 -0.2528  0.5073  0.4207
18544TIP3    H177123   3.877   3.715  10.394  0.3208 -0.6087  0.0967
18544TIP3    H277124   4.025   3.696  10.366  1.1012 -0.5673  3.7729
18545TIP3   OH277125   6.120   6.588  13.327  0.7030  0.1230 -0.1993
18545TIP3    H177126   6.098   6.512  13.381  1.2504  0.4009  0.4213
18545TIP3    H277127   6.091   6.663  13.379  3.0951  0.5070  0.6736
18546TIP3   OH277128   2.366   1.525  16.208  0.4785  0.1650 -0.3441
18546TIP3    H177129   2.313   1.489  16.279  1.1617 -0.8770 -0.3243
18546TIP3    H277130   2.336   1.478  16.130 -1.2871  2.3347 -1.0665
18547TIP3   OH277131   3.328   2.857  17.081 -0.1078 -0.1861  0.0813
18547TIP3    H177132   3.300   2.783  17.026 -1.9187  0.2053  0.4407
18547TIP3    H277133   3.397   2.820  17.136  0.1652 -1.1749 -0.8771
18548TIP3   OH277134   0.762   0.729   5.501 -0.6352  0.8493 -0.0096
18548TIP3    H177135   0.848   0.689   5.515  0.1607  2.0090 -1.2887
18548TIP3    H277136   0.701   0.656   5.498  0.4626 -0.0826 -0.1066
18549TIP3   OH277137   3.732   2.969   1.989 -0.0172 -0.3499  0.0987
18549TIP3    H177138   3.812   2.957   1.938 -0.3933  1.5089 -1.0316
18549TIP3    H277139   3.662   2.959   1.924 -0.6273 -0.3880  0.7579
18550TIP3   OH277140   1.808   1.708  16.815 -0.0409  0.1486 -0.3960
18550TIP3    H177141   1.872   1.642  16.840  0.1665 -0.6275 -2.7982
18550TIP3    H277142   1.723   1.666  16.830  0.0509 -1.7057 -4.0244
18551TIP3   OH277143   1.958   3.322   4.882 -0.0293  0.4460  0.2893
18551TIP3    H177144   1.947   3.417   4.880  0.3826  0.4908  0.0060
18551TIP3    H277145   2.034   3.308   4.940  0.3341  0.3320 -0.2114
18552TIP3   OH277146   4.029   1.867   5.510 -0.3569 -0.5017 -0.0155
18552TIP3    H177147   4.058   1.790   5.462  2.3071  0.4079 -0.0507
18552TIP3    H277148   4.056   1.850   5.601 -2.6306 -0.9178  0.6323
18553TIP3   OH277149   5.131   6.081   1.648  0.3257  0.7619  0.1466
18553TIP3    H177150   5.186   6.098   1.725  1.0974  0.3255 -0.2999
18553TIP3    H277151   5.157   5.994   1.618 -1.8371 -0.2118  0.9394
18554TIP3   OH277152   4.012   0.241   5.524  0.4319  0.2462 -0.1732
18554TIP3    H177153   4.073   0.312   5.504 -0.0404  0.1928 -1.8899
18554TIP3    H277154   3.949   0.241   5.452 -1.2256 -0.1426  1.2102
18555TIP3   OH277155   4.497   5.569  16.682  0.8339 -0.0642  0.7741
18555TIP3    H177156   4.567   5.622  16.719  0.1044  1.2205  0.4148
18555TIP3    H277157   4.526   5.549  16.593  0.6147  0.7854  0.4950
18556TIP3   OH277158   1.562   1.857   5.244 -0.2142 -0.1607  0.1974
18556TIP3    H177159   1.635   1.858   5.306 -0.1647 -0.7251  0.1600
18556TIP3    H277160   1.529   1.767   5.248  0.5968 -0.5703 -1.5173
18557TIP3   OH277161   0.437   4.575  12.611 -0.1353  0.6774  0.7918
18557TIP3    H177162   0.420   4.636  12.683  1.5798  1.6682  0.4239
18557TIP3    H277163   0.507   4.519  12.643  0.3162  0.8263  0.0805
18558TIP3   OH277164   0.298   5.707  13.931 -0.5113 -0.0328  0.0711
18558TIP3    H177165   0.211   5.691  13.966 -1.0462  1.8605 -0.2677
18558TIP3    H277166   0.333   5.620  13.912 -1.8206 -0.8881  1.3671
18559TIP3   OH277167   2.714   3.844  14.359 -0.2711 -0.5058  0.6564
18559TIP3    H177168   2.672   3.813  14.439 -2.3271 -2.1335 -0.9364
18559TIP3    H277169   2.755   3.766  14.322 -0.3232 -0.0209 -0.4395
18560TIP3   OH277170   0.088   5.216  13.212  0.6915  0.4008  0.0711
18560TIP3    H177171   0.056   5.150  13.273  1.2300  1.0265  1.0492
18560TIP3    H277172   0.057   5.299  13.248  0.8762  0.7751 -0.6068
18561TIP3   OH277173   2.935   6.733   3.967  0.5138 -0.2393 -0.3284
18561TIP3    H177174   2.847   6.726   3.930  0.3529  1.2494 -0.3164
18561TIP3    H277175   2.946   6.655   4.020 -0.3807 -0.9811 -1.2034
18562TIP3   OH277176   6.571   4.105   0.502  0.4418  0.1541 -0.2796
18562TIP3    H177177   6.519   4.040   0.549  1.0503 -0.2656 -0.1700
18562TIP3    H277178   6.654   4.061   0.484  1.4160  1.3373  1.0353
18563TIP3   OH277179   0.920   3.101   5.633  0.0560  0.1515 -0.7336
18563TIP3    H177180   0.931   3.139   5.721 -0.8473  0.9802 -0.9609
18563TIP3    H277181   1.007   3.107   5.594  0.1566  1.0678 -0.3927
18564TIP3   OH277182   3.356   0.899  13.894  0.0230 -0.3283  0.1608
18564TIP3    H177183   3.421   0.951  13.846 -0.2318  0.8316  1.0125
18564TIP3    H277184   3.388   0.898  13.984 -0.8222 -0.2515  0.4720
18565TIP3   OH277185   6.051   5.012  12.338  0.3213  0.2033 -0.0800
18565TIP3    H177186   6.018   5.074  12.404  1.2369  0.1602  0.4374
18565TIP3    H277187   6.041   4.926  12.379 -0.6984  0.0072 -0.6934
18566TIP3   OH277188   1.586   3.332   3.420  0.0447 -0.0062 -1.1082
18566TIP3    H177189   1.674   3.356   3.392  1.3289  0.6895  2.8610
18566TIP3    H277190   1.575   3.241   3.391  1.7545  0.1299 -2.2678
18567TIP3   OH277191   1.189   3.236   1.277  0.7165 -0.2551 -0.0296
18567TIP3    H177192   1.109   3.284   1.253 -0.3037  0.0523  3.4449
18567TIP3    H277193   1.246   3.245   1.201 -1.2883  2.3481 -1.4036
18568TIP3   OH277194   5.589   3.073   4.203 -0.1537 -0.1516 -0.2084
18568TIP3    H177195   5.517   3.083   4.140 -0.5776  0.1230  0.3105
18568TIP3    H277196   5.546   3.048   4.285  0.1933  1.3224  0.4603
18569TIP3   OH277197   1.077   6.836  13.059  0.5747  0.1124  0.4582
18569TIP3    H177198   1.049   6.802  12.974 -0.7305  0.1678  0.8380
18569TIP3    H277199   1.109   6.758  13.106  0.1616 -0.1327  0.3411
18570TIP3   OH277200   5.169   5.722  14.721 -0.5927  0.2764  0.1753
18570TIP3    H177201   5.131   5.660  14.658  0.8553  1.3103 -1.8348
18570TIP3    H277202   5.104   5.728  14.791 -2.3054 -0.9413 -1.2151
18571TIP3   OH277203   5.265   2.523  13.151  0.4909 -0.5584  0.4253
18571TIP3    H177204   5.244   2.609  13.188  0.4912  0.3509 -1.5129
18571TIP3    H277205   5.352   2.503  13.185 -0.5596 -1.1083  3.0268
18572TIP3   OH277206   0.124   1.647   0.684  0.3497 -0.2824 -0.0328
18572TIP3    H177207   0.107   1.738   0.710 -0.8265 -0.5542  0.1917
18572TIP3    H277208   0.193   1.654   0.618  0.5894  0.7345  0.3053
18573TIP3   OH277209   4.512   2.732   0.810  0.1978  0.2968  0.0162
18573TIP3    H177210   4.429   2.697   0.842  0.3296  1.1794  1.4273
18573TIP3    H277211   4.516   2.820   0.847  2.0631  0.0416  0.5102
18574TIP3   OH277212   4.866   1.441   5.011  0.3330  0.1372 -0.2723
18574TIP3    H177213   4.937   1.389   4.974 -0.2590 -0.1442 -1.0402
18574TIP3    H277214   4.846   1.507   4.944  0.4164  0.7285  0.2784
18575TIP3   OH277215   0.283   4.979  17.014  0.1683 -0.0182 -0.7225
18575TIP3    H177216   0.209   5.040  17.024 -0.8450 -1.1815 -0.8359
18575TIP3    H277217   0.341   4.999  17.087  0.3492  1.7125 -1.2849
18576TIP3   OH277218   5.719   0.292   4.428 -0.4481 -0.0148 -0.5451
18576TIP3    H177219   5.626   0.282   4.444 -0.3785 -0.6726 -0.5481
18576TIP3    H277220   5.731   0.386   4.415 -1.2807 -0.0478 -1.6378
18577TIP3   OH277221   0.843   1.561  15.614  0.7911  0.3118  0.6458
18577TIP3    H177222   0.879   1.569  15.526 -0.3609  1.5081  0.2481
18577TIP3    H277223   0.883   1.481  15.649 -0.4324 -1.5215 -1.8129
18578TIP3   OH277224   6.778   5.486  16.401  0.2775 -0.5728 -0.2576
18578TIP3    H177225   6.857   5.535  16.377 -0.4139 -0.1649 -1.8316
18578TIP3    H277226   6.808   5.395  16.409  1.6516  0.0312  3.0718
18579TIP3   OH277227   0.615   2.461  11.351 -0.5073  0.4088 -0.4513
18579TIP3    H177228   0.651   2.403  11.283 -0.1360 -0.2269  0.2716
18579TIP3    H277229   0.582   2.402  11.418  1.7188  0.9875  1.2718
18580TIP3   OH277230   0.049   2.609   4.768  0.5158  0.2253  0.7918
18580TIP3    H177231   0.069   2.642   4.855  2.8082 -1.0297  0.8182
18580TIP3    H277232  -0.011   2.536   4.783 -2.1633  2.2937  0.9423
18581TIP3   OH277233   3.364   5.296   1.323  0.4786  0.2757 -0.3748
18581TIP3    H177234   3.363   5.203   1.298 -0.9237 -0.0071  0.6258
18581TIP3    H277235   3.394   5.296   1.414 -0.0355  0.7435 -0.2013
18582TIP3   OH277236   1.188   3.746   3.245  0.6193  0.5637  0.1602
18582TIP3    H177237   1.164   3.837   3.263 -1.2818  0.3071 -0.8057
18582TIP3    H277238   1.129   3.695   3.301  2.3250 -0.1116  1.4261
18583TIP3   OH277239   2.723   2.953  15.829  0.3795  0.0222 -0.2896
18583TIP3    H177240   2.727   3.048  15.821  2.2460  0.1847  1.7416
18583TIP3    H277241   2.629   2.933  15.831 -0.0370  1.8376 -0.3556
18584TIP3   OH277242   4.465   5.377   2.250  0.4166 -0.0286 -0.0663
18584TIP3    H177243   4.560   5.369   2.258  0.3065 -1.1815  0.1786
18584TIP3    H277244   4.430   5.313   2.312 -0.5273  0.5182 -0.0197
18585TIP3   OH277245   5.816   1.038   3.279 -0.0114 -0.1557  0.1668
18585TIP3    H177246   5.833   1.013   3.188  0.0959  0.5507 -0.0167
18585TIP3    H277247   5.801   0.956   3.324  1.4069 -0.6430 -0.1859
18586TIP3   OH277248   6.375   1.699  16.844  0.1940  0.5569 -0.4373
18586TIP3    H177249   6.325   1.754  16.785 -2.5132 -0.3515  0.8498
18586TIP3    H277250   6.405   1.758  16.913 -0.0094  0.9500 -0.6826
18587TIP3   OH277251   3.348   3.375   3.087  0.2986  0.6752 -0.2047
18587TIP3    H177252   3.304   3.312   3.143  0.6714 -0.0190 -0.6709
18587TIP3    H277253   3.338   3.459   3.132 -0.5153  0.3462  0.2445
18588TIP3   OH277254   4.898   3.637   0.118  0.4527 -0.4127 -0.4122
18588TIP3    H177255   4.956   3.607   0.048  0.1767 -0.9144 -0.4225
18588TIP3    H277256   4.958   3.669   0.186  0.8295 -2.5846  0.3515
18589TIP3   OH277257   6.397   5.336   1.571 -0.0930 -0.7273  0.4726
18589TIP3    H177258   6.432   5.329   1.659  0.8659 -1.3874  0.0505
18589TIP3    H277259   6.464   5.299   1.515 -0.5906 -0.1115 -0.5682
18590TIP3   OH277260   3.758   0.862  15.747  0.0015  0.2475 -0.4356
18590TIP3    H177261   3.789   0.816  15.669 -0.9742  0.3791 -0.9130
18590TIP3    H277262   3.769   0.955  15.726  1.6387  0.2691  0.3902
18591TIP3   OH277263   6.034   0.958  14.299  0.1092 -0.3378  0.3032
18591TIP3    H177264   6.060   0.950  14.207 -0.7640  2.9589 -0.3322
18591TIP3    H277265   6.110   0.997  14.342 -0.2265  0.0912  0.5154
18592TIP3   OH277266   5.433   0.437   0.677 -0.4931 -0.2633 -0.1611
18592TIP3    H177267   5.381   0.360   0.699  1.1201 -1.0971  0.9472
18592TIP3    H277268   5.370   0.499   0.639 -2.6298 -0.5223  2.6539
18593TIP3   OH277269   1.064   1.285   0.881 -0.4145  0.0491  0.5801
18593TIP3    H177270   1.099   1.217   0.824 -1.6861 -1.2226  1.2552
18593TIP3    H277271   1.101   1.266   0.967 -0.0268  0.8035  0.5925
18594TIP3   OH277272   5.579   4.335   0.061  0.2714 -0.3324 -0.2976
18594TIP3    H177273   5.637   4.379   0.125  0.7977  0.1481 -1.0829
18594TIP3    H277274   5.493   4.373   0.077  0.2756 -0.6449  0.5159
18595TIP3   OH277275   2.529   1.718   3.835 -0.1839  0.3032 -0.0179
18595TIP3    H177276   2.481   1.800   3.822 -0.8226 -0.0916 -0.2207
18595TIP3    H277277   2.481   1.654   3.782 -0.2379 -0.4028  0.8680
18596TIP3   OH277278   1.765   2.660   1.248  0.1306 -0.3442  0.0143
18596TIP3    H177279   1.689   2.657   1.307 -1.4028 -1.4043 -1.9036
18596TIP3    H277280   1.825   2.722   1.290 -1.2766 -0.3353  2.1840
18597TIP3   OH277281   5.798   6.425  15.124 -0.5129 -0.1659 -0.0400
18597TIP3    H177282   5.852   6.346  15.133 -1.7974 -1.0360  0.4437
18597TIP3    H277283   5.826   6.465  15.043  0.1341 -1.1730 -0.3284
18598TIP3   OH277284   3.569   2.602  11.333 -0.0807 -0.0549  0.0151
18598TIP3    H177285   3.615   2.520  11.351 -1.1755 -0.7726 -0.3596
18598TIP3    H277286   3.534   2.630  11.417  0.4684  0.1394  0.1799
18599TIP3   OH277287   6.379   6.246   6.240  0.0226 -0.0174  0.1077
18599TIP3    H177288   6.414   6.222   6.326  0.5124 -0.3604 -0.1802
18599TIP3    H277289   6.449   6.299   6.200  0.0234 -0.3211 -0.2932
18600TIP3   OH277290   4.110   4.099  16.436 -0.4209  0.1285 -0.0774
18600TIP3    H177291   4.046   4.032  16.460 -0.1208  0.0130  0.4147
18600TIP3    H277292   4.192   4.070  16.478 -0.0948  0.3782 -0.5327
18601TIP3   OH277293   4.821   1.330  16.129 -0.1202  0.7326 -0.1130
18601TIP3    H177294   4.888   1.364  16.069 -0.6473  0.0494 -1.1123
18601TIP3    H277295   4.778   1.408  16.163 -0.3703  1.1268 -1.2857
18602TIP3   OH277296   3.988   2.498   4.875 -0.1082  0.1682 -0.3535
18602TIP3    H177297   3.979   2.533   4.964 -1.0139  0.8694 -0.7133
18602TIP3    H277298   4.013   2.574   4.822  0.3347 -0.2296 -0.7233
18603TIP3   OH277299   5.134   4.251  15.405 -0.1710 -0.0702  0.7122
18603TIP3    H177300   5.170   4.179  15.353  2.4415  0.7163  1.2607
18603TIP3    H277301   5.193   4.259  15.480 -0.5671  2.3796  0.8607
18604TIP3   OH277302   2.556   3.924   5.368 -0.7536 -0.2409  0.1209
18604TIP3    H177303   2.460   3.922   5.366 -0.7711  0.7173 -1.3196
18604TIP3    H277304   2.579   4.015   5.349  0.4429 -0.5970 -0.2308
18605TIP3   OH277305   1.443   4.013  13.692  0.0544  0.6594  0.2682
18605TIP3    H177306   1.473   4.097  13.655  1.1817 -0.2048 -0.8979
18605TIP3    H277307   1.477   4.013  13.781  2.5788  0.2901 -0.5975
18606TIP3   OH277308   2.453   5.116  14.098  0.0104 -0.7320  0.1815
18606TIP3    H177309   2.418   5.177  14.163  0.1313 -0.6165  0.1401
18606TIP3    H277310   2.488   5.172  14.029 -1.2406 -0.8639 -0.5926
18607TIP3   OH277311   4.782   6.129   5.872  0.3626 -0.0502  0.1778
18607TIP3    H177312   4.838   6.098   5.944  1.4162 -0.1621 -0.6622
18607TIP3    H277313   4.785   6.058   5.808  1.4720  1.0443 -1.0496
18608TIP3   OH277314   6.776   5.951   5.606 -0.6155 -0.3793  0.2196
18608TIP3    H177315   6.754   5.861   5.586 -0.5351 -0.1552 -0.9437
18608TIP3    H277316   6.770   5.997   5.522 -0.3695  0.6371  0.7355
18609TIP3   OH277317   3.319   3.322  17.135 -0.2853 -0.3614  0.4544
18609TIP3    H177318   3.325   3.404  17.086 -0.5386  0.3600  1.5921
18609TIP3    H277319   3.340   3.254  17.071 -0.3250  0.5685 -0.5715
18610TIP3   OH277320   5.067   3.322   0.856  0.3870  0.1472 -0.1832
18610TIP3    H177321   5.114   3.308   0.938 -1.9595 -1.6276  0.9620
18610TIP3    H277322   5.113   3.269   0.792 -0.2297 -1.9197  1.0138
18611TIP3   OH277323   2.151   2.588   4.561 -0.0960 -0.3885 -0.3210
18611TIP3    H177324   2.191   2.674   4.550 -0.6860 -0.0253  0.3118
18611TIP3    H277325   2.083   2.601   4.627  0.1618 -1.4573  0.1847
18612TIP3   OH277326   2.834   1.336   4.044 -0.0943  0.2077 -0.1376
18612TIP3    H177327   2.838   1.409   4.105 -1.2220  0.6578 -0.5799
18612TIP3    H277328   2.772   1.364   3.977  0.2091 -0.7612 -0.8418
18613TIP3   OH277329   2.291   4.003   2.680 -0.0603 -0.5485  0.0588
18613TIP3    H177330   2.214   4.054   2.707 -1.1071 -1.4728 -1.0785
18613TIP3    H277331   2.292   4.011   2.585  0.0093 -2.2617 -0.1100
18614TIP3   OH277332   3.809   3.174   4.314 -0.2122 -0.3726 -0.1354
18614TIP3    H177333   3.854   3.221   4.244  0.7533  1.5009  1.6238
18614TIP3    H277334   3.880   3.137   4.368 -0.9319 -2.2409 -0.3729
18615TIP3   OH277335   6.627   2.573   4.105 -0.7405  0.0407  0.2468
18615TIP3    H177336   6.637   2.495   4.158 -0.9702  0.1483  0.4512
18615TIP3    H277337   6.564   2.627   4.153  0.9672  1.2958  1.1982
18616TIP3   OH277338   3.919   4.823  11.153 -0.1783 -0.0056  0.3836
18616TIP3    H177339   3.971   4.769  11.213  0.9947  0.9294  0.2444
18616TIP3    H277340   3.830   4.788  11.160  0.3809 -1.3852  0.9449
18617TIP3   OH277341   5.010   2.963   3.597 -0.3369  0.4126 -0.0919
18617TIP3    H177342   4.926   2.946   3.554 -1.0180  0.4010  1.2052
18617TIP3    H277343   5.007   3.056   3.618 -0.7142  0.1112  1.3193
18618TIP3   OH277344   1.651   0.759  11.350  0.5183  0.8457 -0.1050
18618TIP3    H177345   1.567   0.794  11.378 -0.2235 -0.5779 -0.4667
18618TIP3    H277346   1.701   0.747  11.431 -0.3110  0.0095  0.2955
18619TIP3   OH277347   6.372   0.525  12.375 -0.5009  0.4226  0.2708
18619TIP3    H177348   6.385   0.603  12.428  0.3976  0.2856  0.2660
18619TIP3    H277349   6.370   0.556  12.285  2.5085  0.2099  0.0412
18620TIP3   OH277350   5.391   3.540  12.178  0.2335 -0.2618  0.1072
18620TIP3    H177351   5.483   3.515  12.187  0.2277 -0.4908 -0.4343
18620TIP3    H277352   5.371   3.526  12.085 -0.2455  0.1368  0.1454
18621TIP3   OH277353   4.478   5.448   2.640 -0.3468  0.1349 -0.8585
18621TIP3    H177354   4.501   5.362   2.606 -0.8981 -0.7081  0.8028
18621TIP3    H277355   4.382   5.448   2.643 -0.3594  0.8812 -0.9961
18622TIP3   OH277356   6.348   3.861  16.788  0.3072 -0.3992  0.2259
18622TIP3    H177357   6.428   3.807  16.790  1.4218  1.0910 -1.4256
18622TIP3    H277358   6.364   3.929  16.854  0.0351 -0.5458  0.4474
18623TIP3   OH277359   4.933   5.914  13.177 -0.3535  0.6276  0.6058
18623TIP3    H177360   4.851   5.888  13.218 -0.0019 -1.2178  0.2609
18623TIP3    H277361   5.001   5.868  13.227  0.2602  0.2285 -0.5379
18624TIP3   OH277362   1.241   3.572   1.095  0.3651 -0.4076 -0.1224
18624TIP3    H177363   1.147   3.575   1.074  0.2916  0.2633  0.2622
18624TIP3    H277364   1.247   3.511   1.168  0.1295  0.0887  0.3173
18625TIP3   OH277365   6.378   2.823  14.656 -0.1830  0.4572 -0.0969
18625TIP3    H177366   6.373   2.780  14.741 -0.4593 -0.5461 -0.6066
18625TIP3    H277367   6.290   2.858  14.642 -1.1679 -2.2854 -1.4203
18626TIP3   OH277368   2.041   5.150  13.797 -0.0013  0.1753  0.0336
18626TIP3    H177369   2.104   5.079  13.806 -1.9326 -1.3624  3.0717
18626TIP3    H277370   1.994   5.130  13.716  2.8074  1.0029 -1.9370
18627TIP3   OH277371   5.935   1.666  12.606  0.1569  0.3292  0.3266
18627TIP3    H177372   5.861   1.661  12.546 -0.3096 -1.6738  0.9998
18627TIP3    H277373   6.008   1.627  12.558  0.5369  1.3034  0.0716
18628TIP3   OH277374   1.544   1.431  11.973 -0.7555  0.3828 -0.1971
18628TIP3    H177375   1.520   1.401  12.061  2.9384 -3.0142 -0.0381
18628TIP3    H277376   1.471   1.404  11.918 -1.2819 -1.4657  1.2839
18629TIP3   OH277377   0.647   5.317  13.762  0.2616 -0.2633 -0.4043
18629TIP3    H177378   0.639   5.271  13.845 -3.2262 -0.0533 -0.4959
18629TIP3    H277379   0.707   5.263  13.710 -0.9145 -2.7982  0.7239
18630TIP3   OH277380   6.060   0.809   2.653  0.0257 -0.2253  0.1859
18630TIP3    H177381   6.112   0.811   2.572  0.2361 -1.3556  0.2770
18630TIP3    H277382   6.076   0.894   2.694 -0.3088  0.4915 -1.0979
18631TIP3   OH277383   2.082   6.600  16.344 -0.0837  0.4639 -0.3879
18631TIP3    H177384   2.010   6.624  16.286 -1.1226  1.2257  1.1300
18631TIP3    H277385   2.160   6.599  16.288 -1.0455  1.0437 -1.7863
18632TIP3   OH277386   0.960   1.514  12.956  0.0436 -0.4954 -0.0869
18632TIP3    H177387   1.018   1.505  13.032 -2.4721 -1.3143  1.9211
18632TIP3    H277388   0.907   1.591  12.976  0.5997  0.4231 -1.9978
18633TIP3   OH277389   6.757   5.191  12.759  0.4925 -0.7842  0.4326
18633TIP3    H177390   6.741   5.103  12.727 -0.0564 -0.8915  0.9928
18633TIP3    H277391   6.677   5.215  12.806 -0.4000  0.9438 -1.7543
18634TIP3   OH277392   6.529   4.940   0.712  0.1732 -0.0890 -0.4389
18634TIP3    H177393   6.560   5.028   0.691  0.2923 -0.4240 -1.7528
18634TIP3    H277394   6.452   4.929   0.657 -0.7076 -0.2883  0.7847
18635TIP3   OH277395   3.659   0.580   4.751  0.2316  0.5497 -0.2410
18635TIP3    H177396   3.717   0.606   4.823  0.6323  0.0051 -0.3627
18635TIP3    H277397   3.633   0.663   4.711  0.1627  0.8503  0.4040
18636TIP3   OH277398   1.913   6.219  11.593 -0.3073 -0.0964  0.1265
18636TIP3    H177399   1.903   6.179  11.506 -1.2419 -2.8035  1.3497
18636TIP3    H277400   2.007   6.215  11.611  0.4705  3.7092 -2.0141
18637TIP3   OH277401   0.365   3.445  16.185 -0.1267 -0.2802 -0.4272
18637TIP3    H177402   0.284   3.394  16.189 -0.4377  0.2526  0.3489
18637TIP3    H277403   0.349   3.511  16.118 -0.6975  0.4118  0.3746
18638TIP3   OH277404   6.631   6.555  12.539  0.7333 -0.4327 -0.1988
18638TIP3    H177405   6.595   6.494  12.474  0.0483 -2.3237  1.8082
18638TIP3    H277406   6.555   6.580  12.592  0.9871  2.3481 -1.0362
18639TIP3   OH277407   4.307   0.219   3.142  0.2382  0.5039 -0.2952
18639TIP3    H177408   4.323   0.128   3.117  0.9885  0.5467  0.0150
18639TIP3    H277409   4.369   0.235   3.213 -1.1573  0.6860  0.9361
18640TIP3   OH277410   4.233   1.355  13.071  0.5947 -0.2652  0.2059
18640TIP3    H177411   4.302   1.399  13.022  1.0156 -1.2172 -0.0889
18640TIP3    H277412   4.152   1.388  13.033  0.9123 -0.6388 -0.8389
18641TIP3   OH277413   1.568   0.367   1.164 -0.3270  0.2486 -0.4767
18641TIP3    H177414   1.617   0.449   1.159  1.3744 -0.7361 -0.3686
18641TIP3    H277415   1.594   0.318   1.086 -0.1071 -0.8419  0.2624
18642TIP3   OH277416   1.060   3.958   3.907  0.3853  0.3697  0.0700
18642TIP3    H177417   1.050   3.964   4.003  2.1901  1.6528  0.2304
18642TIP3    H277418   0.995   4.021   3.873  0.1726  0.3781  0.4804
18643TIP3   OH277419   3.596   0.174  11.967  0.4569 -0.5500 -0.5066
18643TIP3    H177420   3.572   0.132  11.884  0.7598 -0.4627 -0.6411
18643TIP3    H277421   3.632   0.259  11.941 -1.4333  0.4054 -0.1596
18644TIP3   OH277422   6.285   0.326  14.574 -0.6568  0.0325  0.3623
18644TIP3    H177423   6.342   0.399  14.548  0.2008 -0.3989  0.9905
18644TIP3    H277424   6.337   0.248  14.559 -1.1515 -0.3866  0.7767
18645TIP3   OH277425   5.548   4.317   4.352  0.1189 -0.7143 -0.0555
18645TIP3    H177426   5.490   4.290   4.424 -0.3577 -0.5116 -0.3651
18645TIP3    H277427   5.490   4.358   4.288  0.5101 -1.1064 -0.6668
18646TIP3   OH277428   1.000   3.582   0.936 -0.2809 -0.0100  0.5993
18646TIP3    H177429   0.940   3.582   1.011  2.4490  0.8010  2.9735
18646TIP3    H277430   1.000   3.673   0.905  0.3335  0.1830  1.1537
18647TIP3   OH277431   0.090   1.899   0.774  0.0814 -0.1230  0.1247
18647TIP3    H177432   0.016   1.948   0.809 -0.1196  0.0281 -0.5006
18647TIP3    H277433   0.165   1.957   0.787 -0.0302  0.0297  0.0949
18648TIP3   OH277434   6.016   2.837   5.528  0.5297  1.0060  0.2949
18648TIP3    H177435   6.057   2.905   5.581  0.4037  0.9986  0.4008
18648TIP3    H277436   5.925   2.863   5.521  0.7505  1.5229 -0.7427
18649TIP3   OH277437   4.784   4.874   1.495  0.5329  0.2659 -0.2856
18649TIP3    H177438   4.826   4.958   1.516  1.4929 -0.5361  1.1683
18649TIP3    H277439   4.843   4.833   1.431  0.2940  0.4911 -0.6563
18650TIP3   OH277440   6.360   2.413  13.909 -0.7388  0.0393 -0.2051
18650TIP3    H177441   6.330   2.322  13.921 -1.6050  0.2230 -0.8054
18650TIP3    H277442   6.281   2.466  13.925 -0.5249  0.6056 -0.9731
18651TIP3   OH277443   0.454   1.246   2.590 -0.3496 -0.4209 -0.1619
18651TIP3    H177444   0.482   1.190   2.519 -0.0645 -2.4674  1.4699
18651TIP3    H277445   0.360   1.260   2.575 -0.3980 -1.2454 -0.6425
18652TIP3   OH277446   3.902   1.358   0.163  0.0418  0.3893  0.5634
18652TIP3    H177447   3.911   1.345   0.257 -0.3273 -0.2668  0.5205
18652TIP3    H277448   3.818   1.315   0.141 -0.0806  0.8991  0.0086
18653TIP3   OH277449   4.334   1.368   5.036  0.6758 -0.1037 -0.3937
18653TIP3    H177450   4.400   1.367   5.105  0.7161 -0.6116 -0.4368
18653TIP3    H277451   4.265   1.426   5.069  0.9931  0.1697 -0.2119
18654TIP3   OH277452   5.047   2.565   0.837 -0.2521 -0.2842  0.6583
18654TIP3    H177453   4.996   2.526   0.909 -0.8353 -1.4372 -0.3498
18654TIP3    H277454   4.982   2.611   0.784  0.0334 -0.2564  0.3305
18655TIP3   OH277455   4.235   0.983   5.040 -0.1621 -0.1557 -0.4379
18655TIP3    H177456   4.192   0.911   4.994 -4.6330  2.3065 -0.7215
18655TIP3    H277457   4.248   1.050   4.973  1.2893  0.3588  0.3234
18656TIP3   OH277458   4.164   6.622  14.620 -0.2182 -0.4141 -0.0287
18656TIP3    H177459   4.164   6.568  14.699  0.3653 -1.1535 -0.5175
18656TIP3    H277460   4.251   6.611  14.583 -0.9440 -1.3305 -1.5995
18657TIP3   OH277461   1.299   1.576   1.658  0.2514  0.4226 -0.2752
18657TIP3    H177462   1.264   1.658   1.624 -1.9795  0.1499  1.1455
18657TIP3    H277463   1.324   1.526   1.580 -0.5853  1.5119 -1.2712
18658TIP3   OH277464   2.097   6.422  13.105  0.5770  0.2803 -0.1093
18658TIP3    H177465   2.009   6.388  13.116  1.0012 -0.3999  1.3767
18658TIP3    H277466   2.085   6.514  13.080 -0.6074  1.1770  3.2372
18659TIP3   OH277467   5.405   1.285  16.614  0.2976 -0.1552  0.6368
18659TIP3    H177468   5.468   1.350  16.645  1.5451  0.4145 -2.6666
18659TIP3    H277469   5.323   1.333  16.604  0.6923  0.4285  0.1211
18660TIP3   OH277470   2.491   1.134  14.974 -0.2189 -0.1325 -0.1096
18660TIP3    H177471   2.553   1.207  14.972 -0.7416  0.3242 -2.5858
18660TIP3    H277472   2.433   1.150  14.900 -3.5324 -0.3982  2.1928
18661TIP3   OH277473   1.853   1.006  16.260  0.2579 -0.0897  0.9626
18661TIP3    H177474   1.814   0.931  16.305  0.2137  0.3582  1.6923
18661TIP3    H277475   1.786   1.034  16.197  0.9367 -1.7177 -0.5859
18662TIP3   OH277476   1.376   0.393  10.298 -0.1321  0.1804  0.4170
18662TIP3    H177477   1.391   0.449  10.375 -0.8281  2.6432 -1.1384
18662TIP3    H277478   1.459   0.348  10.285  0.7427  1.4801  1.2629
18663TIP3   OH277479   4.005   0.116  15.750 -0.2702  0.4458 -0.6968
18663TIP3    H177480   3.983   0.208  15.760 -1.2356  0.0996  0.8147
18663TIP3    H277481   3.928   0.070  15.784  0.5412 -0.8988 -0.6140
18664TIP3   OH277482   5.255   1.973   1.162 -0.0189  0.3699 -0.4952
18664TIP3    H177483   5.292   2.028   1.231  0.6995 -0.1768 -0.4414
18664TIP3    H277484   5.170   1.945   1.198  1.0128 -1.2159  0.8948
18665TIP3   OH277485   5.612   4.298  15.686  0.0794 -0.2169 -0.1721
18665TIP3    H177486   5.561   4.295  15.767 -1.2847 -1.7228 -1.0365
18665TIP3    H277487   5.685   4.237  15.702 -1.8542 -2.9631 -1.0582
18666TIP3   OH277488   2.228   3.131   0.083 -0.3456  0.1348  0.2119
18666TIP3    H177489   2.272   3.096   0.005  1.9038  2.3086  0.3509
18666TIP3    H277490   2.293   3.123   0.153 -0.3493  2.7369  0.6423
18667TIP3   OH277491   6.500   2.792   2.461  0.6253  0.4517  0.2282
18667TIP3    H177492   6.582   2.756   2.431  1.0201  1.8337 -0.4283
18667TIP3    H277493   6.455   2.821   2.382  0.1964  1.0986  0.6928
18668TIP3   OH277494   3.410   5.954   2.312  0.4027 -0.3840 -0.7123
18668TIP3    H177495   3.435   5.868   2.278  0.2849 -0.1028 -1.5492
18668TIP3    H277496   3.339   5.936   2.373  0.0659 -0.8506 -1.2255
18669TIP3   OH277497   0.697   0.999   1.642  0.1976  0.0800 -0.5531
18669TIP3    H177498   0.774   1.056   1.638 -0.6661  1.4198  0.9055
18669TIP3    H277499   0.706   0.942   1.565  0.8485  2.5119 -2.4275
18670TIP3   OH277500   1.512   6.719   4.786 -0.3976  0.6506  0.2509
18670TIP3    H177501   1.585   6.763   4.828 -0.2357  0.2135  0.4388
18670TIP3    H277502   1.491   6.646   4.845 -1.2568  1.0155  0.4087
18671TIP3   OH277503   6.442   4.304   5.434 -0.4823  0.2015  0.0956
18671TIP3    H177504   6.407   4.215   5.429  2.2081 -0.9450 -0.1481
18671TIP3    H277505   6.446   4.333   5.343 -2.0710  0.9086  0.2319
18672TIP3   OH277506   3.697   6.174  14.635  0.2193  0.0126 -0.2361
18672TIP3    H177507   3.675   6.101  14.576  0.8326 -0.9771  0.7134
18672TIP3    H277508   3.791   6.165  14.649 -0.0551 -0.3274  1.5828
18673TIP3   OH277509   6.341   5.078  12.447  0.0130  0.0795 -0.5187
18673TIP3    H177510   6.390   5.031  12.379  0.6445  1.3481 -0.9800
18673TIP3    H277511   6.256   5.096  12.407 -0.7686 -1.8122  0.1553
18674TIP3   OH277512   3.198   3.515   4.026  0.9208 -0.2764 -0.0439
18674TIP3    H177513   3.147   3.452   4.078  2.3978 -0.8971  0.7025
18674TIP3    H277514   3.233   3.464   3.953 -1.2954  0.6283 -1.8826
18675TIP3   OH277515   6.562   3.960  13.217 -0.3887  0.1774 -0.1264
18675TIP3    H177516   6.535   3.986  13.129 -1.4657 -0.3136  0.0467
18675TIP3    H277517   6.654   3.935  13.207 -0.5786 -0.1663 -1.1795
18676TIP3   OH277518   6.468   6.243  15.740  0.1850  0.2220 -0.1582
18676TIP3    H177519   6.458   6.156  15.699  1.1123 -0.4683  1.0164
18676TIP3    H277520   6.560   6.265  15.728  0.7297 -0.4102  2.2388
18677TIP3   OH277521   0.932   5.026   2.419  0.2282 -0.7215  0.6823
18677TIP3    H177522   0.993   5.090   2.458 -0.4766  1.0466 -0.9507
18677TIP3    H277523   0.846   5.054   2.451 -0.0132 -1.4173  0.6483
18678TIP3   OH277524   4.563   4.918   5.426  0.2974 -0.8236 -0.0717
18678TIP3    H177525   4.549   4.827   5.401  1.6902 -0.8493 -0.8744
18678TIP3    H277526   4.508   4.968   5.365  3.2019 -0.9259 -3.1078
18679TIP3   OH277527   1.550   3.533  16.832 -0.5246  0.3013  0.2833
18679TIP3    H177528   1.590   3.573  16.755  0.1597  0.9853  0.9862
18679TIP3    H277529   1.484   3.595  16.860 -0.7841  0.0442  0.2490
18680TIP3   OH277530   6.050   3.099   5.362  0.1298  0.2272  0.5319
18680TIP3    H177531   6.016   3.067   5.278  0.4594  2.4730 -0.5403
18680TIP3    H277532   5.975   3.099   5.421 -0.3783 -0.2840 -0.1100
18681TIP3   OH277533   6.566   3.201   6.173  0.1646  0.0623 -0.0797
18681TIP3    H177534   6.654   3.205   6.210  0.2117  0.1144 -0.1976
18681TIP3    H277535   6.516   3.267   6.222 -0.0887 -0.7006  0.7248
18682TIP3   OH277536   1.910   2.013  11.279  0.5404  0.1897  0.1612
18682TIP3    H177537   1.889   1.924  11.305  1.6857 -0.2408 -0.3308
18682TIP3    H277538   1.927   2.059  11.361  1.6549 -0.5077  0.3443
18683TIP3   OH277539   6.841   0.386  10.937  0.5875  0.0958 -0.1565
18683TIP3    H177540   6.864   0.293  10.947  0.4439  0.0683 -0.0748
18683TIP3    H277541   6.867   0.407  10.848 -1.8457 -0.7587 -1.1607
18684TIP3   OH277542   5.523   4.526  12.636  0.0943 -0.4474  0.0999
18684TIP3    H177543   5.582   4.468  12.587  0.8601  0.4152 -0.0293
18684TIP3    H277544   5.436   4.508  12.600 -0.3679 -4.2628  2.6289
18685TIP3   OH277545   6.794   4.013   2.466  0.2382  0.0715  0.4832
18685TIP3    H177546   6.789   4.098   2.511  1.7888 -0.2768  1.4096
18685TIP3    H277547   6.758   3.950   2.529 -0.9826  0.0258 -0.2336
18686TIP3   OH277548   3.431   5.016   3.257  0.2370 -0.0848 -0.1508
18686TIP3    H177549   3.502   5.080   3.268  1.0218 -1.2518  2.5611
18686TIP3    H277550   3.360   5.052   3.311  0.3072 -0.9216  0.5181
18687TIP3   OH277551   0.223   1.489  15.270 -0.2804  0.3178  0.2010
18687TIP3    H177552   0.223   1.544  15.349 -0.5655  1.0014 -0.2635
18687TIP3    H277553   0.180   1.408  15.296  0.7210  0.0494  1.0773
18688TIP3   OH277554   1.137   6.415   5.213  0.1975  0.5749 -0.3619
18688TIP3    H177555   1.214   6.361   5.228 -0.4706 -0.4499 -0.4845
18688TIP3    H277556   1.156   6.498   5.257  1.6983  0.6480 -1.0822
18689TIP3   OH277557   0.370   5.846  13.700  0.4280  0.5739  0.3029
18689TIP3    H177558   0.373   5.787  13.775  1.3414  0.2354  0.0170
18689TIP3    H277559   0.280   5.878  13.697  0.3230  0.3981  1.3894
18690TIP3   OH277560   5.702   5.951  10.760  0.2281 -0.3125 -0.1663
18690TIP3    H177561   5.672   5.869  10.721  0.0862 -0.3570  0.0379
18690TIP3    H277562   5.622   5.996  10.786  0.2613  0.2043 -0.9015
18691TIP3   OH277563   2.550   2.020  15.892  0.4606 -0.3976  0.2306
18691TIP3    H177564   2.494   2.037  15.817 -1.6124  0.7702  1.9167
18691TIP3    H277565   2.494   1.973  15.954  1.0306  1.4040  2.2679
18692TIP3   OH277566   2.768   2.618  12.777  0.3237  0.1853 -0.3537
18692TIP3    H177567   2.813   2.697  12.805 -0.9523  0.9689 -0.4021
18692TIP3    H277568   2.818   2.587  12.702  1.3878  0.3966  0.2552
18693TIP3   OH277569   5.831   0.975  15.440  0.4294  0.3736 -0.4541
18693TIP3    H177570   5.874   1.035  15.502  2.6581 -1.4096 -0.1556
18693TIP3    H277571   5.811   1.030  15.364 -0.1805  2.0894  0.8930
18694TIP3   OH277572   1.287   2.641   3.503  0.1138  0.1038 -0.1052
18694TIP3    H177573   1.303   2.562   3.554 -0.3283  0.9190  1.3482
18694TIP3    H277574   1.313   2.618   3.414  2.1384 -0.9705  0.7022
18695TIP3   OH277575   4.348   3.821   3.342  0.7735  0.1533 -0.0313
18695TIP3    H177576   4.296   3.899   3.320 -0.7137 -0.8148 -0.0995
18695TIP3    H277577   4.298   3.778   3.411  2.4033  0.0717  1.1712
18696TIP3   OH277578   2.329   6.491  15.580  0.1426  0.5230 -0.7185
18696TIP3    H177579   2.256   6.541  15.616  0.1767 -0.4607  0.7977
18696TIP3    H277580   2.406   6.526  15.624  0.0216 -1.7685  1.5334
18697TIP3   OH277581   4.322   5.805  11.859  0.5605  0.1737 -0.4400
18697TIP3    H177582   4.292   5.839  11.775 -1.2816 -0.6177 -0.1466
18697TIP3    H277583   4.285   5.865  11.924 -0.5125 -0.8362 -0.0717
18698TIP3   OH277584   5.853   4.335   0.639  0.2801 -0.4719 -0.2764
18698TIP3    H177585   5.923   4.323   0.703  1.4124 -1.1944 -1.5911
18698TIP3    H277586   5.827   4.245   0.616  1.7641 -0.3599 -2.7549
18699TIP3   OH277587   0.959   6.842   3.821 -0.3623 -0.5455  0.5696
18699TIP3    H177588   1.027   6.783   3.789  1.6324  1.4667  0.8301
18699TIP3    H277589   0.926   6.884   3.741 -1.5606 -1.7393  0.4141
18700TIP3   OH277590   1.254   5.283   4.172 -0.1126 -0.3492  0.6125
18700TIP3    H177591   1.335   5.236   4.189  0.1620  0.1681  0.7296
18700TIP3    H277592   1.279   5.375   4.167 -0.6877 -0.1856  0.6260
18701TIP3   OH277593   0.899   6.290   1.053 -0.3040 -0.5842  0.3332
18701TIP3    H177594   0.957   6.272   1.127 -0.7395 -0.2989  0.7549
18701TIP3    H277595   0.944   6.252   0.977  1.7367  1.8789  0.1726
18702TIP3   OH277596   6.620   4.993   2.402 -0.8787  0.2299  0.6294
18702TIP3    H177597   6.620   5.088   2.392  0.9567  0.2117  0.0258
18702TIP3    H277598   6.587   4.978   2.490 -0.4299  1.4775  1.0309
18703TIP3   OH277599   2.450   5.281  15.691 -0.0850  0.0328  0.2156
18703TIP3    H177600   2.502   5.222  15.746  2.2268 -0.9600 -2.7441
18703TIP3    H277601   2.487   5.368  15.709 -1.0580  0.1310  1.9500
18704TIP3   OH277602   1.843   3.143  17.075 -0.1703  0.1277 -0.4905
18704TIP3    H177603   1.821   3.226  17.033  2.1421  0.8920 -0.3483
18704TIP3    H277604   1.815   3.153  17.166 -0.1355  0.6699 -0.5352
18705TIP3   OH277605   1.954   2.724   3.419 -0.1794 -0.4802  0.0590
18705TIP3    H177606   2.044   2.711   3.387 -0.3659 -0.0939 -0.6512
18705TIP3    H277607   1.900   2.672   3.360 -0.2546 -2.5624  1.8456
18706TIP3   OH277608   6.021   3.851   1.562 -0.0136 -0.1090 -0.1095
18706TIP3    H177609   6.100   3.802   1.541  0.7265  0.5483  1.0333
18706TIP3    H277610   5.984   3.807   1.638  0.9884  1.3843  1.3166
18707TIP3   OH277611   6.716   6.431  11.688 -0.9738  0.2800  0.6277
18707TIP3    H177612   6.794   6.480  11.712 -0.3496  0.3347 -1.3395
18707TIP3    H277613   6.653   6.450  11.758  0.0095  2.0325  1.0893
18708TIP3   OH277614   4.955   3.953  16.150  0.8318 -0.0350  0.1184
18708TIP3    H177615   5.047   3.968  16.173  0.8905  0.3010 -0.3316
18708TIP3    H277616   4.923   4.038  16.120  0.7224 -0.4297 -0.9339
18709TIP3   OH277617   1.392   5.606   5.923  0.2099  0.0453 -0.2052
18709TIP3    H177618   1.342   5.531   5.956 -0.8328  0.4481 -0.8200
18709TIP3    H277619   1.483   5.575   5.922 -0.1033 -0.9480  0.2687
18710TIP3   OH277620   2.305   0.789  15.284 -0.3695  0.2749 -0.2171
18710TIP3    H177621   2.380   0.833  15.245 -0.0655  1.2986  1.4408
18710TIP3    H277622   2.273   0.731  15.214  1.6078  0.2000 -1.1509
18711TIP3   OH277623   1.568   0.295   4.411  1.2163 -0.2039 -0.2842
18711TIP3    H177624   1.488   0.242   4.403  1.9548 -1.2848 -0.7595
18711TIP3    H277625   1.615   0.256   4.485  0.9063  0.9843  0.5560
18712TIP3   OH277626   4.454   5.442  12.299 -0.3347  0.4280 -0.4777
18712TIP3    H177627   4.440   5.482  12.213  0.7337  0.8750 -0.4594
18712TIP3    H277628   4.549   5.445  12.312 -0.1044 -2.5731 -0.6996
18713TIP3   OH277629   2.898   5.183   5.495 -0.3403 -0.0694  0.0431
18713TIP3    H177630   2.941   5.176   5.581 -0.1541 -1.0199 -0.1140
18713TIP3    H277631   2.805   5.189   5.516 -0.2420  0.5011  0.3376
18714TIP3   OH277632   1.161   6.760   4.211  0.7697  0.1511  0.0689
18714TIP3    H177633   1.236   6.816   4.230 -0.2837  1.3918  0.7353
18714TIP3    H277634   1.190   6.672   4.236  1.9917  0.6011  0.3178
18715TIP3   OH277635   5.984   5.494  15.243 -0.0897 -0.6784 -0.7826
18715TIP3    H177636   5.956   5.548  15.317  1.8837 -0.6853  0.0505
18715TIP3    H277637   5.934   5.412  15.253 -1.1637 -0.0098 -0.5211
18716TIP3   OH277638   4.722   3.096  14.817  0.4192 -0.0225  0.2538
18716TIP3    H177639   4.793   3.156  14.796  1.2892 -0.6867  1.2047
18716TIP3    H277640   4.751   3.051  14.896 -0.5385 -1.1541 -0.0065
18717TIP3   OH277641   4.817   0.263   0.478  0.0031  0.4639 -0.5397
18717TIP3    H177642   4.743   0.283   0.535  0.1219  0.7855 -0.4967
18717TIP3    H277643   4.848   0.349   0.448  0.8713  0.3882  0.1018
18718TIP3   OH277644   3.436   4.821   5.107 -0.3764  0.0512  0.2251
18718TIP3    H177645   3.358   4.836   5.053  1.4664 -0.9938 -3.0141
18718TIP3    H277646   3.491   4.897   5.091  0.2147 -0.2752  0.6715
18719TIP3   OH277647   5.619   0.279  10.718 -0.0248  0.1726 -0.1635
18719TIP3    H177648   5.680   0.211  10.689  0.7679  0.6216  0.3946
18719TIP3    H277649   5.557   0.233  10.775  0.0246 -0.2274 -0.4295
18720TIP3   OH277650   1.686   5.330  13.579 -0.2977 -0.2455  0.0932
18720TIP3    H177651   1.703   5.417  13.613  0.8828 -1.0420  1.6566
18720TIP3    H277652   1.772   5.290  13.569 -0.7825 -1.0743 -1.1074
18721TIP3   OH277653   2.637   1.653   0.195 -0.1810  0.7372 -0.1768
18721TIP3    H177654   2.572   1.722   0.179 -1.9265 -0.6365  0.7232
18721TIP3    H277655   2.714   1.701   0.226 -0.4044  2.4852 -2.0636
18722TIP3   OH277656   0.165   4.061  13.670  0.5912  0.0172  0.0337
18722TIP3    H177657   0.163   4.154  13.693 -0.1926  0.0637 -0.2026
18722TIP3    H277658   0.242   4.027  13.715  1.5583  1.0234 -0.7869
18723TIP3   OH277659   4.471   6.214  11.246 -0.1580 -0.0994 -0.2898
18723TIP3    H177660   4.454   6.307  11.236  1.4578  0.3390  0.6934
18723TIP3    H277661   4.561   6.202  11.216  0.7414 -0.7512  2.3330
18724TIP3   OH277662   6.200   0.083  11.798 -0.1082 -0.1220  0.1070
18724TIP3    H177663   6.218  -0.003  11.834 -0.2284  0.6362  2.0896
18724TIP3    H277664   6.105   0.094  11.805 -0.1316  0.0767 -0.4033
18725TIP3   OH277665   0.185   6.713  12.947  0.8573 -0.4809  0.4015
18725TIP3    H177666   0.152   6.793  12.907  1.9007  0.4956  1.3811
18725TIP3    H277667   0.118   6.688  13.011  1.0041  0.2622  0.8651
18726TIP3   OH277668   6.762   4.030   3.825  0.3539  0.5963 -0.3029
18726TIP3    H177669   6.694   3.989   3.879 -0.9775  1.4218 -1.3098
18726TIP3    H277670   6.765   4.121   3.855  1.4063  0.4542  0.0784
18727TIP3   OH277671   2.067   2.545  16.374  0.1510 -0.5626 -0.3959
18727TIP3    H177672   2.141   2.496  16.337  1.5229  0.8879  0.2627
18727TIP3    H277673   2.106   2.629  16.400 -1.6097 -0.0121  0.5995
18728TIP3   OH277674   4.958   4.373  14.606 -0.7210 -0.3657 -0.4400
18728TIP3    H177675   4.882   4.412  14.649  1.7567  2.6043  1.7354
18728TIP3    H277676   4.992   4.443  14.550  1.1773 -1.0436 -0.2054
18729TIP3   OH277677   2.614   1.881  11.665 -0.0245 -0.0741 -0.1414
18729TIP3    H177678   2.615   1.800  11.615  1.1963  0.1190 -0.4639
18729TIP3    H277679   2.594   1.854  11.754  0.9398 -0.8268 -0.1318
18730TIP3   OH277680   1.597   4.329  15.159  0.3976 -0.3131 -0.2939
18730TIP3    H177681   1.555   4.415  15.146  1.2934 -0.2261 -3.2829
18730TIP3    H277682   1.688   4.350  15.177 -0.1678 -0.5979  3.7321
18731TIP3   OH277683   1.209   0.488   3.252  0.1925 -0.6715 -0.7900
18731TIP3    H177684   1.166   0.463   3.335 -0.8411 -1.4906 -1.5391
18731TIP3    H277685   1.145   0.465   3.185  0.0646  2.0688 -1.7231
18732TIP3   OH277686   0.316   0.094   5.520 -0.0053 -0.4761  0.2987
18732TIP3    H177687   0.254   0.103   5.592 -1.8900 -0.1807 -1.2868
18732TIP3    H277688   0.353   0.182   5.509  1.6783 -0.9044  2.0122
18733TIP3   OH277689   5.580   3.423  16.177  0.2036 -0.3094 -0.4182
18733TIP3    H177690   5.592   3.331  16.156 -1.3514 -0.6773  0.1877
18733TIP3    H277691   5.591   3.468  16.093 -4.0388 -1.5644 -1.8820
18734TIP3   OH277692   4.035   2.634  16.801 -0.1445  0.5933 -0.6118
18734TIP3    H177693   4.082   2.556  16.773  0.8839  1.1314 -0.4185
18734TIP3    H277694   4.003   2.673  16.720 -0.6211  0.0171 -0.7127
18735TIP3   OH277695   6.711   3.135   2.430 -0.7228 -0.0647  0.1372
18735TIP3    H177696   6.648   3.090   2.373 -1.3335  1.0308 -0.0839
18735TIP3    H277697   6.739   3.211   2.379  0.3837 -0.2444  0.4547
18736TIP3   OH277698   0.883   3.596  11.854 -0.3371 -0.3014  0.1017
18736TIP3    H177699   0.920   3.517  11.892 -1.1469 -1.7582 -1.9266
18736TIP3    H277700   0.946   3.622  11.787 -0.2491  0.5664  0.5164
18737TIP3   OH277701   2.176   3.800  15.410  0.4083 -0.1672 -0.3252
18737TIP3    H177702   2.227   3.873  15.376  0.3397 -0.7028 -1.6631
18737TIP3    H277703   2.175   3.736  15.338 -0.6734 -0.8989  0.3014
18738TIP3   OH277704   0.531   6.378  16.770  0.0580  0.4035  0.7673
18738TIP3    H177705   0.460   6.437  16.794  0.0893  1.4791 -1.5070
18738TIP3    H277706   0.610   6.422  16.801  0.2006  2.3269 -1.9356
18739TIP3   OH277707   1.850   1.847  12.322  0.1545 -0.2777 -0.0134
18739TIP3    H177708   1.769   1.870  12.276  0.0247  0.1165  0.4036
18739TIP3    H277709   1.857   1.752  12.312 -0.4929 -0.3507  0.1627
18740TIP3   OH277710   6.024   2.486  13.081 -0.2220 -0.3580  0.1382
18740TIP3    H177711   5.968   2.409  13.070 -0.0999 -0.2425 -1.5963
18740TIP3    H277712   5.965   2.560  13.069 -0.1476 -0.1901  0.7854
18741TIP3   OH277713   5.762   5.334  11.276  0.5757  0.2429 -0.2210
18741TIP3    H177714   5.832   5.270  11.291  0.7673  0.2616 -1.0092
18741TIP3    H277715   5.685   5.282  11.254  0.8042  0.2785 -1.1533
18742TIP3   OH277716   0.353   0.446   0.614  0.4102 -0.7315 -0.1642
18742TIP3    H177717   0.436   0.420   0.654  0.8081  1.1045  0.2942
18742TIP3    H277718   0.366   0.537   0.587 -1.4878 -0.3525  0.0371
18743TIP3   OH277719   1.508   5.740   1.099  0.8512  0.1547 -0.0284
18743TIP3    H177720   1.463   5.690   1.167  1.1604 -0.7955 -0.5095
18743TIP3    H277721   1.560   5.675   1.051  2.0672  1.0858 -0.0302
18744TIP3   OH277722   0.019   5.945   4.010 -0.1406  0.3266 -0.8147
18744TIP3    H177723  -0.004   6.031   4.044  0.5780  0.5447 -0.8611
18744TIP3    H277724   0.114   5.938   4.023 -0.2179 -0.5344 -0.6382
18745TIP3   OH277725   6.693   4.125  14.555  0.0485 -0.0356  0.0069
18745TIP3    H177726   6.642   4.206  14.551  0.4624  0.1834 -0.9503
18745TIP3    H277727   6.687   4.099  14.647 -1.1508  0.3899  0.0759
18746TIP3   OH277728   2.133   0.072   3.445 -0.1574  0.4331  0.3491
18746TIP3    H177729   2.193  -0.001   3.461  1.2270  1.1633 -1.1921
18746TIP3    H277730   2.064   0.035   3.390 -1.0002 -0.3292  1.8533
18747TIP3   OH277731   5.973   2.361   4.790 -0.5947 -0.3675 -0.1346
18747TIP3    H177732   5.941   2.325   4.707 -1.5637 -0.5535  0.3054
18747TIP3    H277733   5.933   2.306   4.857  1.0362 -0.9137  0.4538
18748TIP3   OH277734   5.920   4.431   4.792 -0.2390  0.1904  0.5939
18748TIP3    H177735   5.953   4.490   4.860  1.9563  0.5044 -0.6481
18748TIP3    H277736   5.936   4.478   4.710 -0.4636 -1.2237 -0.2873
18749TIP3   OH277737   6.585   4.876   5.485  1.1104 -0.5216  0.4039
18749TIP3    H177738   6.616   4.787   5.469 -0.3134 -1.0283  0.2657
18749TIP3    H277739   6.569   4.880   5.579  3.4422  0.4021  0.8222
18750TIP3   OH277740   1.646   4.347  13.415  0.5800  0.4202 -0.4452
18750TIP3    H177741   1.727   4.306  13.385  0.8457  1.4196 -1.1500
18750TIP3    H277742   1.603   4.374  13.334 -0.1633  0.4590 -0.0403
18751TIP3   OH277743   5.499   3.153   3.932 -0.1066  0.0203  0.5441
18751TIP3    H177744   5.404   3.140   3.931  0.2505 -4.1874  1.7226
18751TIP3    H277745   5.527   3.138   3.842 -0.4894  0.9068  0.2687
18752TIP3   OH277746   5.124   4.858   0.846  0.4335 -0.2432 -0.1374
18752TIP3    H177747   5.206   4.808   0.852  0.3351 -0.2023  2.7450
18752TIP3    H277748   5.125   4.893   0.757  2.7694 -1.5400 -0.7239
18753TIP3   OH277749   3.609   0.632   1.352 -0.0413  1.0845  0.2219
18753TIP3    H177750   3.521   0.666   1.337  0.4949  2.6593  0.4349
18753TIP3    H277751   3.633   0.664   1.440  0.2261 -0.5049  0.7647
18754TIP3   OH277752   4.526   5.009   3.815  0.3627  1.1398 -0.4872
18754TIP3    H177753   4.502   5.073   3.883  1.3322 -0.1051  1.0835
18754TIP3    H277754   4.607   4.969   3.847  1.1940  0.9238 -2.6898
18755TIP3   OH277755   0.160   5.411   4.604  0.2044  0.2351  0.2215
18755TIP3    H177756   0.198   5.331   4.568 -2.6871 -0.5457 -1.3866
18755TIP3    H277757   0.185   5.480   4.542 -1.8615 -0.5068 -1.5818
18756TIP3   OH277758   3.742   4.299   1.354 -0.0779 -0.6407  0.4085
18756TIP3    H177759   3.829   4.309   1.393 -0.1022 -1.7703  0.8047
18756TIP3    H277760   3.684   4.290   1.430 -0.2362 -2.0551  0.1469
18757TIP3   OH277761   5.690   1.835   3.862  0.0797 -0.4404 -0.4568
18757TIP3    H177762   5.756   1.769   3.844  0.5866  0.5338 -2.4610
18757TIP3    H277763   5.689   1.842   3.958  1.3765 -1.9422 -0.2859
18758TIP3   OH277764   3.104   2.188  11.506  0.4876  0.1488  0.9408
18758TIP3    H177765   3.156   2.121  11.462  1.5362  0.6335  1.4162
18758TIP3    H277766   3.063   2.237  11.435 -0.4251 -1.0706  0.5890
18759TIP3   OH277767   5.215   4.638   1.295  0.4786 -0.3883  0.2512
18759TIP3    H177768   5.300   4.647   1.340  0.0233  1.9628  0.7374
18759TIP3    H277769   5.184   4.551   1.322  2.0914 -0.7249  1.1921
18760TIP3   OH277770   0.657   0.387   4.745  0.1194  0.2999 -0.0178
18760TIP3    H177771   0.617   0.474   4.752  0.7036  0.6011 -0.3078
18760TIP3    H277772   0.750   0.405   4.726  0.4276 -0.3776  0.7978
18761TIP3   OH277773   6.397   4.771  12.095  0.1012 -0.3228  0.2376
18761TIP3    H177774   6.317   4.732  12.060  0.0495 -0.0833  0.0924
18761TIP3    H277775   6.429   4.828  12.026  1.0092 -1.2690 -0.1484
18762TIP3   OH277776   6.737   6.807  12.774 -0.2950 -0.0472 -0.5155
18762TIP3    H177777   6.745   6.712  12.784  1.7262  0.1649  0.3507
18762TIP3    H277778   6.757   6.823  12.682  0.4849 -0.3689 -0.4049
18763TIP3   OH277779   2.690   0.622  16.570  0.0827  0.0652  0.4287
18763TIP3    H177780   2.635   0.558  16.524 -1.1600  1.1976  0.2563
18763TIP3    H277781   2.659   0.620  16.660  1.0247 -0.5803  0.7534
18764TIP3   OH277782   5.065   2.547  12.976 -0.0335 -0.1938 -0.3890
18764TIP3    H177783   5.012   2.472  13.002  1.5933 -0.6294  2.0496
18764TIP3    H277784   5.148   2.534  13.022 -0.1648  3.8164  1.3884
18765TIP3   OH277785   1.460   0.745   3.749  0.2445  0.6786 -0.2369
18765TIP3    H177786   1.444   0.656   3.720 -1.2366  0.6854  0.4776
18765TIP3    H277787   1.527   0.779   3.689  0.4987 -0.7446 -0.7880
18766TIP3   OH277788   1.919   4.339  12.625 -0.2556  0.1891 -0.2566
18766TIP3    H177789   1.982   4.300  12.686 -0.5423 -0.5151 -0.4031
18766TIP3    H277790   1.854   4.270  12.611 -1.8873  1.3526  1.0516
18767TIP3   OH277791   6.241   1.463  16.400 -0.1885  0.2445  0.6913
18767TIP3    H177792   6.271   1.375  16.377  0.0712  0.6316 -0.5654
18767TIP3    H277793   6.156   1.449  16.442 -0.1633 -0.6109  0.4822
18768TIP3   OH277794   3.424   0.887  16.122 -0.4595  0.2622 -0.1686
18768TIP3    H177795   3.411   0.794  16.136 -0.4550  0.5209  1.8273
18768TIP3    H277796   3.336   0.924  16.117 -0.4615  0.1611 -0.8843
18769TIP3   OH277797   6.294   3.525   2.338  0.3389 -0.2239 -0.4221
18769TIP3    H177798   6.384   3.557   2.338  0.0919  0.4777 -0.6018
18769TIP3    H277799   6.253   3.568   2.263  0.2456 -1.6778 -1.2368
18770TIP3   OH277800   2.459   6.131  12.630  0.8156 -0.6769  0.1242
18770TIP3    H177801   2.482   6.192  12.699  1.7820 -1.3594  0.4238
18770TIP3    H277802   2.536   6.076  12.619 -0.0335 -1.8760 -0.0969
18771TIP3   OH277803   6.044   4.578  12.720  0.3153 -0.1229  0.3909
18771TIP3    H177804   5.988   4.635  12.773 -0.7467  1.9630 -2.6908
18771TIP3    H277805   6.053   4.624  12.636  0.5916 -3.8272 -1.8389
18772TIP3   OH277806   4.463   5.970  16.941 -0.1947  0.3487 -0.0800
18772TIP3    H177807   4.502   5.897  16.892  0.7916  1.4439 -0.9890
18772TIP3    H277808   4.391   5.999  16.886 -2.0173 -1.2557  1.2937
18773TIP3   OH277809   4.481   5.846   6.118  0.1598 -0.2862  0.2823
18773TIP3    H177810   4.402   5.833   6.170  1.8833 -1.4335  2.8297
18773TIP3    H277811   4.525   5.920   6.161  0.8302 -0.1465 -0.6306
18774TIP3   OH277812   3.421   3.854   4.899  0.2218 -0.3895 -0.3419
18774TIP3    H177813   3.448   3.807   4.978 -0.3175 -0.5053 -0.2226
18774TIP3    H277814   3.496   3.908   4.876  0.6380 -0.8775 -0.1454
18775TIP3   OH277815   1.459   4.028  17.138  0.1563 -0.0147 -0.0438
18775TIP3    H177816   1.401   3.975  17.083 -0.4411 -0.0176  0.5755
18775TIP3    H277817   1.432   4.118  17.121 -0.6845 -0.0588  0.9390
18776TIP3   OH277818   6.789   4.414  15.458 -0.7566  0.7525 -0.4032
18776TIP3    H177819   6.760   4.487  15.513  0.1891  0.8707 -0.0337
18776TIP3    H277820   6.770   4.336  15.510 -0.9012  0.8007 -0.3846
18777TIP3   OH277821   2.000   2.831   1.323  0.3455 -0.1633  0.1303
18777TIP3    H177822   2.062   2.807   1.254  1.3109  0.7528  0.6589
18777TIP3    H277823   2.054   2.843   1.401 -0.5341  0.3785  0.6706
18778TIP3   OH277824   0.456   0.356  11.212  0.0057  0.0893 -0.0056
18778TIP3    H177825   0.391   0.368  11.282 -1.1754  1.1124 -1.2221
18778TIP3    H277826   0.501   0.441  11.206 -0.1959  0.1502 -0.7574
18779TIP3   OH277827   0.697   5.486   3.825 -0.0987 -0.6102 -0.1508
18779TIP3    H177828   0.786   5.471   3.794 -0.3655 -1.3752 -0.5762
18779TIP3    H277829   0.647   5.505   3.747 -0.4567 -0.9499 -0.0087
18780TIP3   OH277830   6.780   6.543  13.723  0.3001 -0.4730  0.3762
18780TIP3    H177831   6.736   6.459  13.713 -1.8912  0.7722 -1.2341
18780TIP3    H277832   6.861   6.534  13.674  0.9896 -2.1886  1.7436
18781TIP3   OH277833   2.508   6.503   4.808 -0.2184  0.2189  0.0541
18781TIP3    H177834   2.559   6.559   4.750  0.1979 -2.1862 -2.1167
18781TIP3    H277835   2.520   6.540   4.895  0.6655  2.9420 -1.1254
18782TIP3   OH277836   4.884   0.908   5.361  0.4743  0.1618 -0.6191
18782TIP3    H177837   4.914   0.826   5.401  0.1263 -0.4804 -1.6343
18782TIP3    H277838   4.789   0.897   5.354  0.0707  1.6688  1.4596
18783TIP3   OH277839   1.101   2.344   5.091 -0.0853  0.7289 -0.3008
18783TIP3    H177840   1.038   2.280   5.124 -0.0074  1.2111  0.8244
18783TIP3    H277841   1.133   2.306   5.009 -1.0132 -0.0410 -0.3241
18784TIP3   OH277842   5.725   0.938  12.123 -0.2374  0.0751  0.3215
18784TIP3    H177843   5.791   0.985  12.072  1.9304 -3.0594 -0.0676
18784TIP3    H277844   5.684   0.878  12.060 -1.0841 -0.3803  1.2707
18785TIP3   OH277845   0.332   2.964  16.808 -0.2723 -0.4380  0.1582
18785TIP3    H177846   0.395   2.897  16.834 -0.3273 -0.6212 -0.1742
18785TIP3    H277847   0.314   3.013  16.888  1.9191  0.9838 -0.1333
18786TIP3   OH277848   5.949   6.649  10.474  0.3530  0.6259 -0.0820
18786TIP3    H177849   5.947   6.745  10.472  0.4700  0.6264 -0.1811
18786TIP3    H277850   6.040   6.626  10.456  0.4649  0.5071  0.6133
18787TIP3   OH277851   2.015   0.381   6.339 -0.0554 -0.1096 -0.0815
18787TIP3    H177852   2.084   0.317   6.321  0.8134  0.6294  0.5465
18787TIP3    H277853   2.034   0.453   6.279 -0.2545  0.1142  0.1269
18788TIP3   OH277854   6.627   3.441  16.391  0.4596 -0.0069 -0.7996
18788TIP3    H177855   6.628   3.424  16.485  2.4766  0.5268 -0.6774
18788TIP3    H277856   6.676   3.522  16.381 -0.3436  0.3343 -2.2667
18789TIP3   OH277857   5.918   0.690  14.905  0.2754 -0.2375  0.1686
18789TIP3    H177858   5.951   0.640  14.830 -1.4839  1.1150 -1.6222
18789TIP3    H277859   5.846   0.637  14.940 -0.3580  0.1208 -0.5505
18790TIP3   OH277860   5.025   0.633   0.822  0.0639 -0.5211 -0.5746
18790TIP3    H177861   5.056   0.558   0.772  1.4051 -0.8329  0.6590
18790TIP3    H277862   4.950   0.600   0.872  0.2741 -0.8711 -0.4902
18791TIP3   OH277863   4.894   1.738   0.907 -0.0735  0.1850  0.5743
18791TIP3    H177864   4.879   1.758   0.815 -0.6129 -0.7755  0.4404
18791TIP3    H277865   4.975   1.686   0.908 -0.1895  0.0037  0.6138
18792TIP3   OH277866   5.268   4.646  11.976  0.0151 -0.6678  0.0335
18792TIP3    H177867   5.182   4.654  11.934  0.0877 -0.6446 -0.1112
18792TIP3    H277868   5.253   4.586  12.049  0.4254 -2.8968 -1.5870
18793TIP3   OH277869   5.609   4.690  13.553 -0.1284  0.2511  0.5633
18793TIP3    H177870   5.578   4.780  13.555  1.8594  0.9969  0.3328
18793TIP3    H277871   5.530   4.636  13.562 -1.4408  1.9895 -0.1666
18794TIP3   OH277872   1.788   0.275   5.683 -0.1399 -0.3927 -0.3350
18794TIP3    H177873   1.721   0.262   5.615 -0.9811  0.4617  0.2967
18794TIP3    H277874   1.738   0.276   5.765  0.7999 -0.8699  0.2590
18795TIP3   OH277875   4.761   2.398   1.410 -0.6083  0.2423 -0.1367
18795TIP3    H177876   4.799   2.312   1.427 -0.0630  0.6772  0.9317
18795TIP3    H277877   4.707   2.416   1.487  0.2783  1.3852  0.2522
18796TIP3   OH277878   4.080   2.559   1.283  0.0908  0.3695 -0.3708
18796TIP3    H177879   4.018   2.513   1.226 -0.0001  1.4076 -1.1493
18796TIP3    H277880   4.042   2.553   1.370 -0.1971 -0.5281 -0.5443
18797TIP3   OH277881   1.668   0.706   1.990 -0.3012 -0.3368  0.4680
18797TIP3    H177882   1.681   0.715   2.084  3.3979  1.8562 -0.0849
18797TIP3    H277883   1.731   0.640   1.963  0.5275  0.8954 -0.7437
18798TIP3   OH277884   2.775   1.421  14.675  0.1199 -0.1443 -0.0899
18798TIP3    H177885   2.693   1.461  14.702  0.0635  0.2864 -0.8643
18798TIP3    H277886   2.752   1.330  14.655 -0.1053 -0.1023 -0.0274
18799TIP3   OH277887   6.686   5.176   0.432  0.4535  0.2317  0.1483
18799TIP3    H177888   6.771   5.218   0.419  0.2047  0.6977  0.0157
18799TIP3    H277889   6.666   5.191   0.524  0.1697  0.7808  0.0022
18800TIP3   OH277890   6.042   1.396  12.681 -0.0581  0.3962 -0.9906
18800TIP3    H177891   5.956   1.436  12.690  1.0950  2.4598  2.7555
18800TIP3    H277892   6.038   1.318  12.736  0.8599  1.4211  0.6067
18801TIP3   OH277893   6.115   2.858   0.279  0.1767 -0.5291 -0.0973
18801TIP3    H177894   6.177   2.798   0.321 -0.2045 -1.3686 -0.6980
18801TIP3    H277895   6.075   2.905   0.352  1.3463 -0.1376  0.3066
18802TIP3   OH277896   1.577   4.238   1.921  0.2064  0.1821 -0.2174
18802TIP3    H177897   1.625   4.159   1.896 -0.5457 -0.4742  0.3822
18802TIP3    H277898   1.569   4.233   2.016  0.2642  1.0576 -0.1550
18803TIP3   OH277899   3.622   3.145  12.842  0.0606 -0.0613  0.7689
18803TIP3    H177900   3.605   3.191  12.924 -1.4824  1.0111 -0.1086
18803TIP3    H277901   3.642   3.214  12.779 -1.8105 -0.5728 -0.4642
18804TIP3   OH277902   1.031   2.756   2.014  0.8625  0.0968  0.0121
18804TIP3    H177903   1.076   2.841   2.015  0.2533  0.4249  1.0466
18804TIP3    H277904   0.997   2.746   2.103  0.9169 -1.2368 -0.0988
18805TIP3   OH277905   4.231   2.729   2.493  0.4206 -0.2994 -0.3071
18805TIP3    H177906   4.170   2.763   2.559 -0.1671 -0.4486 -0.7646
18805TIP3    H277907   4.317   2.750   2.528  0.1601 -1.2736  1.0148
18806TIP3   OH277908   5.398   3.795   0.948 -0.1929  0.0146  0.0443
18806TIP3    H177909   5.309   3.788   0.982 -0.1221  0.0394  0.2322
18806TIP3    H277910   5.421   3.887   0.960  0.0907 -0.1229  0.5701
18807TIP3   OH277911   6.106   4.730  16.250  0.2700 -0.3599 -0.0923
18807TIP3    H177912   6.168   4.799  16.276 -0.0738  0.4698 -1.3648
18807TIP3    H277913   6.091   4.680  16.330  1.8952 -0.0388  0.4544
18808TIP3   OH277914   0.908   3.301   0.682 -0.0937 -0.0603  0.5520
18808TIP3    H177915   0.998   3.289   0.715 -0.7024 -0.8942  2.0280
18808TIP3    H277916   0.886   3.391   0.706  1.0048  0.8618 -1.6182
18809TIP3   OH277917   2.612   4.978   0.656  0.0929 -0.4820  0.2309
18809TIP3    H177918   2.589   4.886   0.645 -2.1733  0.0364  0.1774
18809TIP3    H277919   2.618   5.013   0.568  0.8004 -0.5282  0.2552
18810TIP3   OH277920   2.891   3.405   0.486  0.2607 -0.4758  0.0103
18810TIP3    H177921   2.887   3.333   0.423  0.0992  1.3149 -2.1386
18810TIP3    H277922   2.985   3.419   0.500  0.3068 -0.6131 -0.1570
18811TIP3   OH277923   5.940   3.088  11.402  0.1664  0.1798 -0.0421
18811TIP3    H177924   5.987   3.021  11.352 -0.9432 -1.7477  1.3795
18811TIP3    H277925   5.954   3.169  11.353  0.7689 -1.2488 -2.3600
18812TIP3   OH277926   2.095   2.237  16.538  0.3859 -0.4060  0.0231
18812TIP3    H177927   2.121   2.315  16.587 -1.7255 -0.5269  1.4583
18812TIP3    H277928   2.057   2.179  16.604 -1.2848 -1.1813 -1.5453
18813TIP3   OH277929   3.250   1.743  12.105 -0.2745 -0.5524 -0.1559
18813TIP3    H177930   3.345   1.758  12.109  0.1619 -2.8654 -0.2994
18813TIP3    H277931   3.222   1.791  12.027  0.4205  1.5825  0.8211
18814TIP3   OH277932   6.755   4.331   6.020  0.6053 -0.0960 -0.4140
18814TIP3    H177933   6.697   4.284   5.961 -0.6794 -0.6242  1.1998
18814TIP3    H277934   6.697   4.371   6.084  2.0112 -0.8799  1.4347
18815TIP3   OH277935   2.787   4.526   2.722 -0.5244  0.1640 -0.1206
18815TIP3    H177936   2.762   4.586   2.792  0.3855 -0.3713  0.6932
18815TIP3    H277937   2.790   4.440   2.764  3.7774  0.2987  0.2414
18816TIP3   OH277938   0.042   3.594  16.752 -0.1327  0.0346  0.4625
18816TIP3    H177939   0.011   3.527  16.812 -1.9115  0.9110  0.5730
18816TIP3    H277940   0.082   3.660  16.808  0.2374 -0.1909  0.4732
18817TIP3   OH277941   1.033   3.099  11.702 -0.5277  0.6096  0.1416
18817TIP3    H177942   1.095   3.134  11.639  0.1820  0.8664  0.9590
18817TIP3    H277943   0.955   3.079  11.651  0.8570 -1.4986 -1.2552
18818TIP3   OH277944   4.738   6.419   5.124 -0.0850 -0.1147 -0.1844
18818TIP3    H177945   4.797   6.471   5.179 -1.0931  0.3008  0.5521
18818TIP3    H277946   4.655   6.419   5.172 -0.7730 -0.4309 -1.3283
18819TIP3   OH277947   6.511   3.035   2.266 -0.5224 -0.1933  0.0435
18819TIP3    H177948   6.466   2.965   2.219 -1.4529 -0.9134  1.9202
18819TIP3    H277949   6.483   3.116   2.222 -0.6770 -0.8741 -1.1497
18820TIP3   OH277950   2.449   2.472   5.443  0.3912  0.5626 -0.0826
18820TIP3    H177951   2.492   2.444   5.524 -0.7237  0.2390  0.4207
18820TIP3    H277952   2.454   2.568   5.446  0.5767  0.5445  0.2412
18821TIP3   OH277953   5.768   2.821  13.928 -0.3075  0.0332 -0.2694
18821TIP3    H177954   5.749   2.755  13.995  0.3261  1.0006  0.9079
18821TIP3    H277955   5.818   2.774  13.861 -0.3435 -0.8071  0.2793
18822TIP3   OH277956   5.352   3.400  15.314 -0.1134  0.1960  0.0128
18822TIP3    H177957   5.294   3.366  15.247  0.3596  0.9566 -0.8048
18822TIP3    H277958   5.433   3.350  15.303  0.5336  1.4439 -1.0960
18823TIP3   OH277959   2.072   4.636   1.125 -0.4340  0.1609 -0.0489
18823TIP3    H177960   2.110   4.597   1.203 -0.4998  0.9512  0.3854
18823TIP3    H277961   2.133   4.706   1.101 -1.5171  1.3571  0.5794
18824TIP3   OH277962   5.504   0.451   1.260 -0.5901  0.4828  0.0331
18824TIP3    H177963   5.450   0.465   1.183  0.4707 -1.3824 -1.1326
18824TIP3    H277964   5.559   0.529   1.266 -2.0842  1.5720  0.1716
18825TIP3   OH277965   2.335   3.437  13.492 -0.0098  0.4457  0.4381
18825TIP3    H177966   2.411   3.388  13.526 -0.3851 -0.2092  0.3526
18825TIP3    H277967   2.368   3.526  13.479  1.5814 -0.4038 -2.2287
18826TIP3   OH277968   1.003   5.394   5.337  0.2592 -0.2651  0.1482
18826TIP3    H177969   1.027   5.333   5.268 -1.4448 -0.0453 -0.6930
18826TIP3    H277970   0.974   5.339   5.409 -0.3423 -0.4842 -0.2522
18827TIP3   OH277971   5.212   2.534  11.953  0.3800 -0.4949 -0.0824
18827TIP3    H177972   5.147   2.591  11.911 -0.1106 -0.9287  0.0816
18827TIP3    H277973   5.161   2.461  11.987  0.7524 -0.1104  1.3519
18828TIP3   OH277974   1.503   1.285  13.116  0.3278 -0.5125  0.3678
18828TIP3    H177975   1.483   1.196  13.088 -0.4127 -0.5678  1.0290
18828TIP3    H277976   1.446   1.300  13.192  2.2002 -0.3849  1.8368
18829TIP3   OH277977   2.255   2.723  12.282 -0.3292 -0.0451 -0.4486
18829TIP3    H177978   2.303   2.793  12.238  0.2922  0.3336  0.7876
18829TIP3    H277979   2.211   2.767  12.355  1.5850 -1.1999  1.4933
18830TIP3   OH277980   0.981   5.653  11.134  0.0686  0.5052 -0.5857
18830TIP3    H177981   0.970   5.723  11.199  0.5506  0.6982 -0.7050
18830TIP3    H277982   1.005   5.576  11.186 -2.3144 -0.0794 -0.2581
18831TIP3   OH277983   3.537   2.369  14.327 -0.0705 -0.2938  0.6802
18831TIP3    H177984   3.500   2.321  14.402  0.3058 -0.1080  0.9880
18831TIP3    H277985   3.613   2.415  14.363 -0.1588  0.1742  0.2903
18832TIP3   OH277986   2.703   3.187   3.336  0.5047 -0.3822 -0.0596
18832TIP3    H177987   2.713   3.108   3.390  0.5868 -0.8498 -0.7399
18832TIP3    H277988   2.726   3.259   3.394  3.7351 -1.0638 -0.3353
18833TIP3   OH277989   4.183   1.941  11.819 -0.3031  0.6651 -0.5613
18833TIP3    H177990   4.179   1.946  11.915 -0.5843 -2.0502 -0.3564
18833TIP3    H277991   4.110   1.995  11.789 -1.7516 -0.3894  0.8788
18834TIP3   OH277992   0.970   1.013  16.272 -0.2636  0.2968  0.5429
18834TIP3    H177993   1.019   0.950  16.325 -0.3965 -0.6591 -0.4123
18834TIP3    H277994   0.952   1.086  16.330  0.1166 -0.4489  1.6204
18835TIP3   OH277995   4.697   0.960  12.555  0.2919 -0.1673 -0.1285
18835TIP3    H177996   4.740   0.932  12.636  0.3670 -0.6430 -0.3358
18835TIP3    H277997   4.752   0.926  12.485 -1.7637 -3.0821 -0.4818
18836TIP3   OH277998   5.421   4.099  11.010  0.0007  0.2180  0.3631
18836TIP3    H177999   5.439   4.157  10.936  0.6311 -0.7026 -0.2194
18836TIP3    H278000   5.326   4.098  11.017 -0.0192  1.7679  0.7604
18837TIP3   OH278001   4.731   3.405   0.853  0.3159  0.4912 -0.0617
18837TIP3    H178002   4.710   3.498   0.866 -0.9007  0.4871 -1.7921
18837TIP3    H278003   4.759   3.399   0.762 -0.0005 -0.9159 -0.0834
18838TIP3   OH278004   1.144   0.272   5.549  0.0487  0.3823  0.1253
18838TIP3    H178005   1.193   0.317   5.480 -3.0529  3.3961 -0.4341
18838TIP3    H278006   1.110   0.193   5.506  0.4446  0.7687 -0.9500
18839TIP3   OH278007   4.216   6.323   0.608 -0.2805 -0.0406 -0.6451
18839TIP3    H178008   4.209   6.253   0.543 -0.1438  0.8468 -1.6327
18839TIP3    H278009   4.305   6.316   0.642 -0.7735 -1.3715  0.4821
18840TIP3   OH278010   3.707   0.497   3.470  0.8387  0.0010 -0.6837
18840TIP3    H178011   3.675   0.560   3.405  0.8921 -1.7779 -2.5427
18840TIP3    H278012   3.707   0.413   3.423 -0.1396 -1.5764  1.9573
18841TIP3   OH278013   3.634   3.507  11.736 -0.1573 -0.2106 -0.5850
18841TIP3    H178014   3.631   3.582  11.676 -1.9809  0.1754 -0.0921
18841TIP3    H278015   3.604   3.543  11.820 -2.8976 -1.8077 -0.7561
18842TIP3   OH278016   5.519   5.627   2.538  0.2111  0.3568 -0.8083
18842TIP3    H178017   5.444   5.661   2.588 -1.2675  0.4464 -2.9833
18842TIP3    H278018   5.582   5.602   2.606 -2.2064 -0.8167  1.1968
18843TIP3   OH278019   5.802   2.128   5.564  0.1799  0.7197 -0.4054
18843TIP3    H178020   5.824   2.149   5.655  0.1929 -0.5686 -0.0806
18843TIP3    H278021   5.724   2.072   5.572  0.0620  0.7698 -1.2035
18844TIP3   OH278022   4.255   2.419   2.994 -0.0146 -0.0146 -0.1259
18844TIP3    H178023   4.202   2.496   3.015 -0.4741 -0.8213  1.8378
18844TIP3    H278024   4.335   2.430   3.046  0.1290 -0.6314 -0.2098
18845TIP3   OH278025   6.328   5.590  16.322 -0.3145  0.7451  0.2735
18845TIP3    H178026   6.348   5.675  16.361  1.3739  0.6570 -0.3282
18845TIP3    H278027   6.352   5.527  16.389 -0.8841  0.6956  0.4423
18846TIP3   OH278028   4.416   5.989   1.410  0.0251 -0.1227  0.4375
18846TIP3    H178029   4.384   5.966   1.497 -0.3618  0.7494  0.5372
18846TIP3    H278030   4.450   5.907   1.374 -0.3989 -0.6222  1.1579
18847TIP3   OH278031   5.541   1.242   4.696  0.2402  0.7296 -0.3011
18847TIP3    H178032   5.586   1.305   4.751  0.4991  0.1981  0.1063
18847TIP3    H278033   5.449   1.267   4.701  0.3254  0.9920 -0.0342
18848TIP3   OH278034   2.292   6.470   0.432 -0.3542  0.1691  0.3218
18848TIP3    H178035   2.271   6.388   0.387  1.6477  0.0635 -0.5415
18848TIP3    H278036   2.293   6.447   0.525 -2.1676 -0.1960  0.2766
18849TIP3   OH278037   1.168   6.682   5.274  0.1047 -0.0200 -0.3201
18849TIP3    H178038   1.256   6.699   5.241  1.2057  0.1071  2.4065
18849TIP3    H278039   1.120   6.762   5.256  0.8778  0.3560 -0.8010
18850TIP3   OH278040   2.246   0.760   0.912 -0.3447 -0.1988 -0.8268
18850TIP3    H178041   2.262   0.808   0.994  0.5688 -1.2404 -0.3686
18850TIP3    H278042   2.273   0.821   0.843  1.7185 -0.3332 -0.2236
18851TIP3   OH278043   1.316   0.353  11.903  0.6880  0.6279 -0.2427
18851TIP3    H178044   1.342   0.435  11.861  0.8129  0.5223 -0.3742
18851TIP3    H278045   1.299   0.377  11.994  1.5425  0.6492 -0.0781
18852TIP3   OH278046   3.780   6.829   5.461  0.2078 -0.1595  0.0617
18852TIP3    H178047   3.847   6.835   5.528  0.4609  1.0550 -0.2858
18852TIP3    H278048   3.809   6.888   5.391 -0.7561 -0.3091 -0.4939
18853TIP3   OH278049   3.100   1.299  11.058 -0.2103  0.3775 -0.1716
18853TIP3    H178050   3.111   1.317  10.964 -0.3828 -0.7277 -0.4214
18853TIP3    H278051   3.049   1.218  11.060 -0.6440  0.6711  0.8889
18854TIP3   OH278052   5.575   6.302  15.720  0.5541 -0.0746 -0.7355
18854TIP3    H178053   5.566   6.398  15.723  0.3979 -0.0791 -1.0911
18854TIP3    H278054   5.662   6.288  15.682  0.2536 -0.0834 -1.4172
18855TIP3   OH278055   1.848   5.337  11.909  0.4327  0.2199 -0.1418
18855TIP3    H178056   1.872   5.360  11.999  1.4875  0.5564 -0.4934
18855TIP3    H278057   1.811   5.418  11.873 -0.9222 -0.1794  0.2652
18856TIP3   OH278058   1.149   6.001  11.765  0.4064 -0.4782 -0.0892
18856TIP3    H178059   1.197   6.035  11.840  1.5463 -0.6727 -0.7127
18856TIP3    H278060   1.096   5.929  11.801  1.1507 -0.7539  0.4750
18857TIP3   OH278061   4.375   0.199   6.493 -0.0116  0.0986  0.0031
18857TIP3    H178062   4.308   0.146   6.452  0.3365 -1.0480  0.8835
18857TIP3    H278063   4.328   0.258   6.551 -0.4466  1.2212 -1.4186
18858TIP3   OH278064   5.116   0.667   1.625 -0.2104  0.6246 -0.0904
18858TIP3    H178065   5.177   0.629   1.688 -0.1257 -1.2697 -1.2471
18858TIP3    H278066   5.038   0.689   1.676  0.2379  0.0757  0.8384
18859TIP3   OH278067   3.194   4.188   3.229  0.3314  0.2137  0.1462
18859TIP3    H178068   3.268   4.193   3.168  1.3479  0.9142  1.3739
18859TIP3    H278069   3.118   4.212   3.176  0.8923 -0.9408 -1.2540
18860TIP3   OH278070   0.744   3.022   1.258  0.4049  0.7435 -0.5124
18860TIP3    H178071   0.742   2.941   1.207  0.1910 -1.2846  2.4717
18860TIP3    H278072   0.688   3.082   1.209 -1.1719 -1.6003 -1.8005
18861TIP3   OH278073   6.062   4.384   0.845 -0.3488 -0.0870  0.1106
18861TIP3    H178074   6.068   4.335   0.927 -1.3266 -0.1557  0.1545
18861TIP3    H278075   6.015   4.464   0.868  0.9197  0.7197 -0.0352
18862TIP3   OH278076   5.379   2.026  16.185  0.1848 -0.3081 -0.0818
18862TIP3    H178077   5.367   2.105  16.131  2.0574 -0.3478 -0.6157
18862TIP3    H278078   5.353   2.053  16.273  0.3529  0.7673 -0.3445
18863TIP3   OH278079   4.505   5.036   2.320  0.2046  0.1625  0.1309
18863TIP3    H178080   4.583   5.023   2.266 -0.6447 -1.2701 -0.8512
18863TIP3    H278081   4.526   4.995   2.404  1.5647  2.4705  1.0042
18864TIP3   OH278082   0.264   6.259   5.783  0.3328 -0.3992 -0.2411
18864TIP3    H178083   0.208   6.283   5.857  0.2630 -0.7697 -0.1715
18864TIP3    H278084   0.336   6.210   5.823  0.2527 -0.6705 -0.4235
18865TIP3   OH278085   3.855   4.230  15.740  0.0267  1.0328 -0.7048
18865TIP3    H178086   3.769   4.190  15.727  0.4437  0.4259 -1.6323
18865TIP3    H278087   3.882   4.259  15.653  1.1495  0.4190 -0.5842
18866TIP3   OH278088   0.580   5.745  14.280 -0.4328 -0.6586 -0.2120
18866TIP3    H178089   0.642   5.812  14.310 -1.0568 -0.8751  1.6729
18866TIP3    H278090   0.565   5.690  14.357  0.2645 -3.1840 -1.7635
18867TIP3   OH278091   6.484   2.588  11.049  0.0431  0.1465 -0.1005
18867TIP3    H178092   6.504   2.661  10.991  1.4440 -1.6929 -2.0388
18867TIP3    H278093   6.530   2.513  11.012 -0.3975 -1.5236  2.4496
18868TIP3   OH278094   3.751   4.394  14.547  0.2106  0.8129  0.2804
18868TIP3    H178095   3.823   4.401  14.609 -0.6312  3.7334  1.0776
18868TIP3    H278096   3.773   4.455  14.477 -0.9468  0.9363 -0.0022
18869TIP3   OH278097   0.418   2.837  12.299 -0.2981  0.3791 -0.0678
18869TIP3    H178098   0.383   2.926  12.302  1.2415  1.0068  0.4769
18869TIP3    H278099   0.341   2.781  12.289 -1.3624  1.7274  0.2605
18870TIP3   OH278100   6.617   1.605  13.036  0.3057  0.8081 -0.3377
18870TIP3    H178101   6.582   1.627  13.122 -0.0594  1.8364 -0.7269
18870TIP3    H278102   6.605   1.511  13.028  1.5202  0.4830  1.2369
18871TIP3   OH278103   1.008   1.769   3.550 -0.2995 -0.0318  0.4065
18871TIP3    H178104   0.933   1.716   3.579  0.3944 -0.4529  1.4949
18871TIP3    H278105   1.023   1.830   3.622  1.8082 -1.4584  1.2494
18872TIP3   OH278106   5.023   2.575  15.188  0.4771  0.4017 -0.0171
18872TIP3    H178107   4.970   2.653  15.206 -1.2818 -0.8149  0.3810
18872TIP3    H278108   5.031   2.532  15.273  0.5551 -0.3698 -0.4090
18873TIP3   OH278109   6.243   1.087   4.640  0.0955 -0.0476  0.2964
18873TIP3    H178110   6.247   1.045   4.554 -0.6159  0.3183  0.0715
18873TIP3    H278111   6.194   1.168   4.624 -2.1384 -1.0851  1.4777
18874TIP3   OH278112   0.107   6.444  15.813 -0.0016  0.0098 -0.1604
18874TIP3    H178113   0.062   6.526  15.793 -0.9750 -0.4849 -0.0542
18874TIP3    H278114   0.124   6.405  15.728 -0.5419 -0.2010 -0.1749
18875TIP3   OH278115   0.918   5.079  12.957 -0.1464  0.5233 -0.0301
18875TIP3    H178116   0.943   5.138  12.886 -0.8901  0.0801 -0.6853
18875TIP3    H278117   0.847   5.125  13.003 -0.0507  0.5645  0.0781
18876TIP3   OH278118   0.822   0.177   5.955  0.3102 -0.7286  0.0965
18876TIP3    H178119   0.811   0.083   5.945  0.3558 -0.6037 -1.4034
18876TIP3    H278120   0.868   0.187   6.038 -3.5906 -1.7156  2.6435
18877TIP3   OH278121   5.646   1.169  15.837  0.2482 -0.6189 -0.1543
18877TIP3    H178122   5.579   1.209  15.892  0.2736 -0.9931  0.1560
18877TIP3    H278123   5.691   1.242  15.796 -0.1699 -0.3565 -0.1456
18878TIP3   OH278124   1.931   3.445  12.449 -0.6780  0.0994 -0.3726
18878TIP3    H178125   2.005   3.477  12.397 -1.8054 -1.5902 -3.2120
18878TIP3    H278126   1.869   3.517  12.450 -1.0024 -0.1175 -2.2126
18879TIP3   OH278127   0.937   0.671  15.784 -0.0721 -0.0214  0.2971
18879TIP3    H178128   0.922   0.641  15.694  1.3251 -0.1604  0.0908
18879TIP3    H278129   1.006   0.737  15.775 -0.3163  0.3666  1.2163
18880TIP3   OH278130   6.349   0.942  15.251 -0.1354 -0.1325  0.0888
18880TIP3    H178131   6.413   1.006  15.281  0.7240 -1.0198  0.2056
18880TIP3    H278132   6.304   0.914  15.331 -0.4805  0.2814  0.0430
18881TIP3   OH278133   0.136   0.083  13.598 -0.2026 -0.1442  0.7421
18881TIP3    H178134   0.209   0.032  13.563 -0.8610  0.7655 -2.2621
18881TIP3    H278135   0.167   0.173  13.598 -1.4007  0.3279 -1.0702
18882TIP3   OH278136   4.294   4.250   0.333 -0.1210 -0.2234  0.0556
18882TIP3    H178137   4.253   4.255   0.246 -1.0872 -0.8899  0.4557
18882TIP3    H278138   4.345   4.331   0.340  1.2427 -0.8511 -1.7367
18883TIP3   OH278139   0.402   6.519  13.425  0.2692 -0.5205  0.2292
18883TIP3    H178140   0.436   6.430  13.419  1.5107  0.0365 -1.6826
18883TIP3    H278141   0.327   6.520  13.366  1.1717  0.0808 -0.9269
18884TIP3   OH278142   5.105   0.424  13.518 -0.3451 -0.5621  0.0215
18884TIP3    H178143   5.097   0.436  13.613 -2.6314  0.0926 -0.2052
18884TIP3    H278144   5.015   0.421  13.487  0.2038  3.5711 -2.6626
18885TIP3   OH278145   0.827   5.178   0.645 -0.1271  0.0536 -0.2967
18885TIP3    H178146   0.901   5.149   0.592  0.0905  0.0191  0.0214
18885TIP3    H278147   0.867   5.226   0.718 -0.4039 -0.1218 -0.0254
18886TIP3   OH278148   3.774   0.849   2.806 -0.4400  0.1314 -0.3592
18886TIP3    H178149   3.684   0.822   2.788  0.2123 -1.6151 -1.2817
18886TIP3    H278150   3.824   0.815   2.731  0.9780  1.1469  0.0838
18887TIP3   OH278151   3.913   0.048   2.068 -0.5767  0.3146  0.3380
18887TIP3    H178152   3.889   0.032   2.159  0.3713 -1.3385  0.3250
18887TIP3    H278153   3.834   0.023   2.018 -0.4158 -0.7257  0.5856
18888TIP3   OH278154   6.089   1.641  16.960  0.3199  0.1613 -0.3180
18888TIP3    H178155   6.167   1.663  16.909  0.6712  0.7884  0.4724
18888TIP3    H278156   6.122   1.621  17.047 -0.3377 -0.2964 -0.1674
18889TIP3   OH278157   1.554   4.795  13.316 -0.0646  0.5387 -0.0154
18889TIP3    H178158   1.626   4.773  13.375 -0.6935  1.5914  1.1873
18889TIP3    H278159   1.479   4.747  13.350 -0.1384  0.1150 -0.7605
18890TIP3   OH278160   1.926   3.654  13.166  0.8576  0.0643  0.0900
18890TIP3    H178161   1.897   3.720  13.102  1.4348  0.5805  0.3491
18890TIP3    H278162   2.010   3.687  13.198  0.4302 -0.0116  1.3665
18891TIP3   OH278163   4.446   6.793  15.330  0.1252  0.0993 -0.3077
18891TIP3    H178164   4.386   6.752  15.392  0.6112 -0.7449 -0.3764
18891TIP3    H278165   4.472   6.723  15.271 -0.6452  0.9756 -1.7566
18892TIP3   OH278166   2.460   1.138   5.105 -0.4119 -0.0102  0.3414
18892TIP3    H178167   2.507   1.221   5.107 -0.8778  0.2527  0.7221
18892TIP3    H278168   2.528   1.071   5.114 -0.0186  0.3194 -0.1293
18893TIP3   OH278169   4.285   3.707   6.113  0.4807 -0.0408 -0.3187
18893TIP3    H178170   4.359   3.727   6.169 -0.5517 -0.1264  1.1243
18893TIP3    H278171   4.227   3.782   6.122 -0.0370 -0.3888 -0.6882
18894TIP3   OH278172   3.613   3.707  11.554 -0.4697 -0.7323  0.2834
18894TIP3    H178173   3.568   3.791  11.568 -0.7603 -0.7829 -0.2939
18894TIP3    H278174   3.675   3.724  11.484  1.1417 -0.4145  1.7379
18895TIP3   OH278175   2.976   2.363   1.745 -0.4378  0.1549  0.2717
18895TIP3    H178176   2.997   2.333   1.657 -0.6104 -0.7396  0.5312
18895TIP3    H278177   3.004   2.292   1.803 -0.2789  0.7525  0.9475
18896TIP3   OH278178   6.119   1.317   4.591 -0.5234 -0.4489 -0.4079
18896TIP3    H178179   6.167   1.399   4.577 -0.6715 -0.4832 -1.1809
18896TIP3    H278180   6.032   1.344   4.619 -0.3327 -0.3651  0.1150
18897TIP3   OH278181   5.729   1.223  10.886  0.3308  0.2850  0.4778
18897TIP3    H178182   5.754   1.251  10.798  1.2817 -0.5034  0.4801
18897TIP3    H278183   5.697   1.302  10.929 -0.1265  0.6852 -0.5626
18898TIP3   OH278184   1.604   5.762  14.835  0.6546 -0.0093  0.2547
18898TIP3    H178185   1.648   5.840  14.869  1.1699  0.0765 -0.5798
18898TIP3    H278186   1.643   5.689  14.884  0.7473  0.1900  0.4759
18899TIP3   OH278187   6.096   6.709  17.080  0.1506  0.6788  0.2179
18899TIP3    H178188   6.186   6.738  17.090 -0.1382  1.9225 -0.5683
18899TIP3    H278189   6.099   6.615  17.096  1.7593  0.5222 -0.8090
18900TIP3   OH278190   0.401   4.648  15.940 -0.3816  0.2065  0.0720
18900TIP3    H178191   0.466   4.641  15.870 -0.1574  0.5369  0.2463
18900TIP3    H278192   0.317   4.642  15.894 -0.2307 -0.1407 -0.1607
18901TIP3   OH278193   5.888   1.862  13.934  0.2710 -0.5093 -0.0743
18901TIP3    H178194   5.955   1.833  13.996  0.2062 -0.3510  0.0692
18901TIP3    H278195   5.933   1.924  13.877  0.3135 -0.6056 -0.1467
18902TIP3   OH278196   3.536   4.182   2.036  0.0497  0.1796  0.3002
18902TIP3    H178197   3.590   4.247   2.079  1.7044  0.8770 -2.5273
18902TIP3    H278198   3.447   4.216   2.041  0.7689  2.2932 -0.3798
18903TIP3   OH278199   2.091   4.530   3.419  0.0136  0.1202 -0.0673
18903TIP3    H178200   2.078   4.504   3.510 -1.8815  0.9895 -0.0324
18903TIP3    H278201   2.139   4.613   3.424  1.6159 -0.7891  0.0308
18904TIP3   OH278202   2.121   1.158   3.620  0.0014  0.4581 -0.3076
18904TIP3    H178203   2.108   1.189   3.709 -0.0067  0.5504 -0.3411
18904TIP3    H278204   2.190   1.092   3.628  0.8677  1.3328 -0.4089
18905TIP3   OH278205   0.395   0.729   0.577  0.2975 -0.4663 -0.1125
18905TIP3    H178206   0.445   0.788   0.633  0.7530 -0.9999  0.0551
18905TIP3    H278207   0.416   0.757   0.488  1.1943 -0.9046 -0.0526
18906TIP3   OH278208   1.125   4.146  14.684  0.1032  0.1735 -0.7557
18906TIP3    H178209   1.216   4.128  14.660  0.0728 -1.9568  0.4991
18906TIP3    H278210   1.119   4.242  14.684  2.0831  0.3550 -1.7369
18907TIP3   OH278211   0.598   0.898  11.428  0.0959 -0.6008 -0.2481
18907TIP3    H178212   0.614   0.932  11.515 -0.7959  0.8300 -0.6194
18907TIP3    H278213   0.682   0.908  11.382  0.2232 -0.2139  0.0703
18908TIP3   OH278214   6.197   0.192  12.834 -0.2151 -0.3625 -0.1986
18908TIP3    H178215   6.170   0.269  12.784 -1.8721 -0.9032 -0.2098
18908TIP3    H278216   6.269   0.155  12.784  0.3214  0.9248 -0.4187
18909TIP3   OH278217   6.154   4.231  14.251  0.0176 -0.3106  0.1913
18909TIP3    H178218   6.221   4.299  14.244  0.3276 -0.5987  0.3464
18909TIP3    H278219   6.102   4.240  14.171  1.8787 -1.8285 -1.2863
18910TIP3   OH278220   4.373   6.014  14.145 -0.2310 -0.7691  0.3180
18910TIP3    H178221   4.392   6.016  14.238 -1.1115  0.2695  0.4964
18910TIP3    H278222   4.278   6.004  14.140  0.0189 -3.9257 -0.5171
18911TIP3   OH278223   0.644   4.757   3.317 -0.3815  0.2653 -0.2657
18911TIP3    H178224   0.563   4.707   3.321 -0.4182  0.3927  0.7979
18911TIP3    H278225   0.620   4.839   3.275 -0.9693  0.5997  0.6981
18912TIP3   OH278226   1.838   2.522  12.812 -0.6268  0.0126 -0.0031
18912TIP3    H178227   1.934   2.518  12.809 -0.6487 -1.8096  0.5518
18912TIP3    H278228   1.819   2.608  12.851  0.6990  1.1738 -1.7196
18913TIP3   OH278229   1.543   4.950   3.882  0.0160  0.1513 -0.0364
18913TIP3    H178230   1.576   4.998   3.959 -2.2603  0.8885  0.5773
18913TIP3    H278231   1.571   4.860   3.896  2.6246  0.8538 -0.1601
18914TIP3   OH278232   6.032   3.374  16.129 -0.3012 -0.7246  0.2269
18914TIP3    H178233   5.937   3.370  16.125 -0.3836 -1.0848  1.7185
18914TIP3    H278234   6.052   3.363  16.222  1.1713 -0.1068  0.0118
18915TIP3   OH278235   2.132   2.092   5.744  0.3041 -0.6660  0.0633
18915TIP3    H178236   2.213   2.077   5.794 -0.8859 -0.7264  2.0603
18915TIP3    H278237   2.133   2.185   5.724  0.1277 -0.3502  1.4689
18916TIP3   OH278238   0.815   3.043  14.036 -0.5935 -0.3616 -0.7412
18916TIP3    H178239   0.738   3.096  14.058  1.3191  1.4782  2.2698
18916TIP3    H278240   0.866   3.098  13.976 -0.0749 -0.0961 -0.0690
18917TIP3   OH278241   6.507   2.100  16.544  0.0373 -0.2140  0.2517
18917TIP3    H178242   6.482   2.025  16.490 -0.4746  1.1998 -1.5527
18917TIP3    H278243   6.512   2.064  16.633 -0.3989 -2.3256 -0.5139
18918TIP3   OH278244   4.814   6.158   5.006  0.7411  0.2219 -1.0072
18918TIP3    H178245   4.788   6.250   5.015  2.1690  0.6653 -1.2956
18918TIP3    H278246   4.879   6.145   5.075  0.7474 -0.4958 -1.1476
18919TIP3   OH278247   4.953   6.042  12.217 -0.1365 -0.6669 -0.1750
18919TIP3    H178248   4.945   5.966  12.274 -0.6011 -0.0986  0.5401
18919TIP3    H278249   4.863   6.063  12.193  0.0086 -0.4929 -0.5728
18920TIP3   OH278250   3.852   5.942  17.049  0.1524  0.8691  0.5899
18920TIP3    H178251   3.850   5.899  17.135  0.2175  0.7188  0.5175
18920TIP3    H278252   3.878   6.032  17.067 -1.5226  1.3251  0.9382
18921TIP3   OH278253   0.146   5.471  15.745  0.1848  0.1234 -0.2722
18921TIP3    H178254   0.139   5.411  15.671 -0.4215  1.8405 -1.6569
18921TIP3    H278255   0.204   5.541  15.715  1.4601 -0.0638  1.5541
18922TIP3   OH278256   1.247   4.731   2.620  0.0675  0.0819 -0.6039
18922TIP3    H178257   1.271   4.723   2.712 -1.9567  1.1678  0.0849
18922TIP3    H278258   1.310   4.793   2.583  0.3297  0.3530  0.2861
18923TIP3   OH278259   5.210   2.262   5.403 -0.0554  0.2389  0.0595
18923TIP3    H178260   5.149   2.264   5.477 -0.6554 -2.5884 -0.2696
18923TIP3    H278261   5.170   2.317   5.337 -1.9949 -1.0682  0.0875
18924TIP3   OH278262   2.075   1.105   1.551 -0.3683 -0.1905 -0.0966
18924TIP3    H178263   2.059   1.080   1.642 -1.8421  1.1137  0.0291
18924TIP3    H278264   1.990   1.133   1.518  0.4096  0.6810 -1.4603
18925TIP3   OH278265   3.886   1.878  16.528  0.2063  0.1756  0.7383
18925TIP3    H178266   3.955   1.825  16.567  1.9680  2.1041  0.3931
18925TIP3    H278267   3.886   1.959  16.578  0.4157  1.4747 -1.2523
18926TIP3   OH278268   4.618   3.248  11.630  0.3704  0.2879  0.0720
18926TIP3    H178269   4.644   3.337  11.604  1.5009  0.5688  1.9657
18926TIP3    H278270   4.531   3.260  11.670 -0.0961  0.3058 -0.9339
18927TIP3   OH278271   3.836   4.793  15.750  0.1868 -0.1263 -0.1536
18927TIP3    H178272   3.742   4.788  15.763  0.0449 -1.0174 -1.3097
18927TIP3    H278273   3.870   4.716  15.796  0.1065 -0.9778 -1.4627
18928TIP3   OH278274   4.390   0.240  12.413  0.1528  0.6839  0.3227
18928TIP3    H178275   4.346   0.283  12.340  1.5675 -1.1979 -1.8122
18928TIP3    H278276   4.320   0.209  12.469 -0.9781  2.4328 -0.0649
18929TIP3   OH278277   4.680   1.686  15.175  0.1498  0.6136  0.5256
18929TIP3    H178278   4.741   1.758  15.191  1.4415  0.4276 -2.8175
18929TIP3    H278279   4.726   1.608  15.204  1.4912  0.5163 -1.6573
18930TIP3   OH278280   0.480   4.866  16.449 -0.7511  0.6314 -0.0147
18930TIP3    H178281   0.389   4.894  16.458 -0.9489 -0.2800  1.0573
18930TIP3    H278282   0.479   4.798  16.383 -0.9183  0.3432  0.2830
18931TIP3   OH278283   4.390   5.194  16.439 -0.1622 -0.0376  0.1043
18931TIP3    H178284   4.325   5.217  16.506  1.9990  0.5794  2.1399
18931TIP3    H278285   4.419   5.106  16.463  1.9086  0.8749  1.1541
18932TIP3   OH278286   3.661   0.384  13.242  0.0094  0.1491 -0.2105
18932TIP3    H178287   3.568   0.395  13.223  0.0596  2.5082  0.6325
18932TIP3    H278288   3.665   0.307  13.299 -1.3031 -0.5140 -0.9780
18933TIP3   OH278289   2.231   3.681   1.853 -0.1862 -0.1473 -0.5713
18933TIP3    H178290   2.214   3.766   1.812 -0.9755 -0.0702 -0.0935
18933TIP3    H278291   2.317   3.691   1.893 -0.4371  0.5583 -0.1900
18934TIP3   OH278292   5.058   4.338  14.018  0.1158  0.1282  0.1016
18934TIP3    H178293   5.153   4.340  14.024 -0.0062  1.9725  2.5524
18934TIP3    H278294   5.038   4.391  13.941  1.0445 -0.2831 -0.4412
18935TIP3   OH278295   0.595   1.318  12.808  0.0061 -0.3601  0.3071
18935TIP3    H178296   0.592   1.413  12.792  1.0078 -0.2430  0.7675
18935TIP3    H278297   0.573   1.279  12.723  2.4039  0.2683 -0.6863
18936TIP3   OH278298   4.233   5.306  13.184 -0.4708  0.1863 -0.3152
18936TIP3    H178299   4.272   5.265  13.107  2.9593  0.1241  1.2730
18936TIP3    H278300   4.158   5.250  13.206  0.2010 -1.4466 -1.9480
18937TIP3   OH278301   1.804   1.784  13.044  0.2246  0.2423 -0.0517
18937TIP3    H178302   1.772   1.770  12.955  2.6402  0.2548 -1.0148
18937TIP3    H278303   1.843   1.700  13.069 -0.0827  0.3536  0.8442
18938TIP3   OH278304   3.703   0.884   3.453  0.6126 -0.1366 -0.1224
18938TIP3    H178305   3.783   0.854   3.496  0.9999 -1.5229 -1.6960
18938TIP3    H278306   3.681   0.965   3.498  2.1738 -0.3921  1.2113
18939TIP3   OH278307   5.680   4.817   2.599  0.2332 -0.7459 -0.2218
18939TIP3    H178308   5.635   4.884   2.651 -0.4111 -0.8610 -0.6158
18939TIP3    H278309   5.668   4.736   2.648 -2.6865 -1.3992 -1.7382
18940TIP3   OH278310   4.795   3.836   1.236  0.3638  0.8257 -0.1570
18940TIP3    H178311   4.719   3.877   1.195  0.5077  0.8019 -0.4504
18940TIP3    H278312   4.868   3.896   1.218  0.6558  0.2619 -0.9393
18941TIP3   OH278313   4.798   6.583  15.530  0.4017 -0.3219 -0.3103
18941TIP3    H178314   4.805   6.509  15.590 -0.9281 -0.8675 -0.7851
18941TIP3    H278315   4.882   6.586  15.484  2.2972  1.3565  2.9078
18942TIP3   OH278316   3.993   5.636   2.731 -0.3306  0.2893  0.2653
18942TIP3    H178317   4.081   5.673   2.723 -0.0516 -0.5650 -0.8043
18942TIP3    H278318   4.007   5.542   2.739 -1.1630  0.0884 -0.4755
18943TIP3   OH278319   2.311   5.865   4.852  0.0984  0.5170  0.3412
18943TIP3    H178320   2.235   5.812   4.829  1.0993 -0.0066 -2.1128
18943TIP3    H278321   2.379   5.838   4.790  2.7059  0.1471  3.0675
18944TIP3   OH278322   4.926   2.577   3.710 -0.5329 -0.4650  0.1545
18944TIP3    H178323   4.843   2.530   3.703 -0.0597 -1.1694 -1.0936
18944TIP3    H278324   4.938   2.590   3.804 -0.9225 -2.4565  0.5274
18945TIP3   OH278325   5.180   5.045  11.802 -0.7006 -0.1682 -0.2534
18945TIP3    H178326   5.259   5.051  11.747  0.0672 -3.1925  0.3389
18945TIP3    H278327   5.214   5.037  11.891 -1.7603  0.1016  0.1797
18946TIP3   OH278328   1.593   4.850  12.366 -0.3313  0.0411  0.0367
18946TIP3    H178329   1.515   4.894  12.400  0.1381  1.0067 -0.0914
18946TIP3    H278330   1.571   4.828  12.276 -0.6238 -0.1204  0.1469
18947TIP3   OH278331   0.767   2.820   3.793  0.2295 -0.0086  0.7778
18947TIP3    H178332   0.696   2.848   3.736  0.3775  0.9432  1.0394
18947TIP3    H278333   0.734   2.833   3.881  0.6007  0.0987  0.9031
18948TIP3   OH278334   1.933   3.944   4.197 -0.2273  0.0959 -0.1333
18948TIP3    H178335   2.011   3.935   4.142 -1.3750  2.0661 -2.2737
18948TIP3    H278336   1.887   3.861   4.188  1.6192 -1.1453  1.2665
18949TIP3   OH278337   5.569   6.743   2.385 -0.1725 -0.0363 -0.0725
18949TIP3    H178338   5.592   6.673   2.323 -1.7795 -2.6866  2.1121
18949TIP3    H278339   5.608   6.821   2.347  0.7746 -1.8605 -3.2915
18950TIP3   OH278340   4.812   2.261  12.635 -0.2475 -0.4551  0.5545
18950TIP3    H178341   4.855   2.339  12.671 -0.3887  0.3329 -0.9050
18950TIP3    H278342   4.764   2.294  12.559 -0.9265 -1.8576  0.3582
18951TIP3   OH278343   1.763   1.298   2.812 -0.2016 -0.1679  0.5649
18951TIP3    H178344   1.855   1.295   2.787 -0.1485 -0.5973  0.7932
18951TIP3    H278345   1.721   1.353   2.746  0.0460 -0.7652 -0.0975
18952TIP3   OH278346   0.028   5.829  13.400 -0.3600  0.1636  0.1674
18952TIP3    H178347  -0.061   5.794  13.408 -0.9881  1.6558  0.1210
18952TIP3    H278348   0.043   5.836  13.306 -0.4866  0.5808  0.1746
18953TIP3   OH278349   5.072   3.556   4.725 -0.2668  0.0489  0.1981
18953TIP3    H178350   5.009   3.562   4.653  0.1826  1.2040 -0.1309
18953TIP3    H278351   5.124   3.479   4.705  0.6495  1.0228 -1.4152
18954TIP3   OH278352   0.977   2.475   0.975  0.0909 -0.3076 -0.4805
18954TIP3    H178353   0.950   2.495   1.065 -0.3497  0.4693 -0.7798
18954TIP3    H278354   0.896   2.453   0.930  0.3723 -1.1731 -0.5739
18955TIP3   OH278355   2.159   5.744   6.241  0.1169  0.2840 -0.2544
18955TIP3    H178356   2.216   5.747   6.318  2.3169  1.2494 -1.8080
18955TIP3    H278357   2.185   5.820   6.189 -1.0265 -0.5481 -2.1390
18956TIP3   OH278358   6.675   6.433  10.996  0.6150  0.0283 -0.4249
18956TIP3    H178359   6.635   6.451  10.911  1.8257 -0.5144 -1.1378
18956TIP3    H278360   6.747   6.373  10.976  0.6818 -0.4084  1.0416
18957TIP3   OH278361   4.520   4.118   4.058  0.1007 -0.6239 -0.5883
18957TIP3    H178362   4.525   4.096   4.152  1.5934  0.5117 -0.3744
18957TIP3    H278363   4.610   4.108   4.027  0.0893  1.3794 -1.3413
18958TIP3   OH278364   5.669   4.996   5.274 -0.0384  0.2044 -0.9367
18958TIP3    H178365   5.718   4.943   5.211  0.5542  0.5090 -0.7364
18958TIP3    H278366   5.734   5.022   5.339 -0.1260  1.8672 -1.4672
18959TIP3   OH278367   0.279   3.784   4.097  0.0358 -0.2531 -0.1160
18959TIP3    H178368   0.239   3.816   4.016 -0.1999  2.7056  1.0619
18959TIP3    H278369   0.344   3.720   4.068  0.0070  0.7600 -2.6329
18960TIP3   OH278370   6.249   1.306  14.661 -0.1429 -0.3055  0.5140
18960TIP3    H178371   6.164   1.309  14.617  0.1232  2.5536  0.0060
18960TIP3    H278372   6.303   1.249  14.605 -0.7047  0.7953 -1.2223
18961TIP3   OH278373   1.104   4.960  15.163 -0.1592 -0.5407 -0.0079
18961TIP3    H178374   1.150   4.963  15.079 -1.2510  0.6145 -0.5942
18961TIP3    H278375   1.159   5.012  15.222  1.1696 -2.2360  0.3315
18962TIP3   OH278376   5.723   6.061   4.683  0.7528 -0.0713  0.0918
18962TIP3    H178377   5.806   6.034   4.643  0.6432  2.3109 -1.9818
18962TIP3    H278378   5.736   6.154   4.704 -1.2851  0.2765 -0.0237
18963TIP3   OH278379   3.741   1.581   3.384  0.0084 -0.1181  0.2258
18963TIP3    H178380   3.742   1.504   3.440  2.6793  0.4666  1.1318
18963TIP3    H278381   3.804   1.561   3.314 -2.2280 -0.2683 -1.8844
18964TIP3   OH278382   1.545   6.019  16.482  0.2861  0.1604  0.0847
18964TIP3    H178383   1.555   5.936  16.436 -0.7518  0.4275 -0.6459
18964TIP3    H278384   1.608   6.014  16.554  0.9840 -0.8192 -0.5681
18965TIP3   OH278385   3.624   3.086   1.364 -0.1964 -0.5418 -0.0694
18965TIP3    H178386   3.660   3.034   1.292  2.6717  1.2671 -0.0847
18965TIP3    H278387   3.609   3.172   1.327 -1.8213 -0.4250  0.7573
18966TIP3   OH278388   4.623   5.276  13.486  0.4456  0.2166  1.2742
18966TIP3    H178389   4.705   5.244  13.450 -0.2148  0.3271 -0.4179
18966TIP3    H278390   4.643   5.364  13.517  0.9530  0.2638  0.8209
18967TIP3   OH278391   1.951   4.125   1.978 -0.0011 -0.5750 -0.4096
18967TIP3    H178392   2.029   4.127   2.033  0.0428  0.3080 -0.4915
18967TIP3    H278393   1.964   4.195   1.915 -0.3021 -1.2300 -1.2097
18968TIP3   OH278394   5.808   1.968   0.643  0.2896  0.3344  0.6959
18968TIP3    H178395   5.865   2.046   0.643  2.1001 -0.8718 -1.2601
18968TIP3    H278396   5.869   1.895   0.650 -1.2140 -0.9717  0.4994
18969TIP3   OH278397   6.422   4.988  14.674 -0.0297  0.0705  0.0115
18969TIP3    H178398   6.366   5.062  14.694 -0.4054  0.3713 -1.9932
18969TIP3    H278399   6.391   4.918  14.732 -0.3179  1.1538  1.2107
18970TIP3   OH278400   3.903   0.149   3.972 -0.4420  0.3484  0.7338
18970TIP3    H178401   3.861   0.094   4.039  1.3069 -2.5241 -0.3832
18970TIP3    H278402   3.909   0.093   3.895  1.7199  2.0121 -0.4117
18971TIP3   OH278403   2.799   4.938  13.259 -0.7343 -0.2784 -0.4303
18971TIP3    H178404   2.708   4.968  13.268 -0.9081 -1.4931  4.0425
18971TIP3    H278405   2.850   5.018  13.254 -1.8458  0.6151  1.3491
18972TIP3   OH278406   2.077   3.133  12.094  0.2420 -0.0708  0.2654
18972TIP3    H178407   2.005   3.073  12.074  1.4067 -1.3952 -0.0680
18972TIP3    H278408   2.103   3.167  12.008 -0.2827  0.7930  0.4342
18973TIP3   OH278409   3.988   3.634  14.517 -0.4208 -0.1971 -0.3155
18973TIP3    H178410   4.041   3.580  14.459 -0.6438 -1.7753  0.8824
18973TIP3    H278411   4.032   3.719  14.518  0.3843 -0.5653 -1.6404
18974TIP3   OH278412   2.432   1.467   0.669  0.1455  0.1002 -0.1502
18974TIP3    H178413   2.483   1.483   0.590 -1.6683  0.0324 -1.3991
18974TIP3    H278414   2.378   1.545   0.680 -1.2449 -0.7982 -0.3135
18975TIP3   OH278415   1.216   2.562  11.533 -0.0172  0.1595  0.4337
18975TIP3    H178416   1.184   2.576  11.444  2.9487  0.1370 -0.7699
18975TIP3    H278417   1.168   2.624  11.587  0.4481  2.6035 -1.7800
18976TIP3   OH278418   4.849   5.567   0.317 -0.2046  0.4463 -0.2505
18976TIP3    H178419   4.803   5.608   0.243 -1.7772  0.7499  0.8328
18976TIP3    H278420   4.805   5.602   0.394  0.6538 -0.7255  0.8063
18977TIP3   OH278421   4.420   1.229  11.168 -0.4052  0.2467  0.0046
18977TIP3    H178422   4.382   1.295  11.110  0.2754 -0.3234 -1.1170
18977TIP3    H278423   4.491   1.275  11.213  0.6849  0.0899 -1.4666
18978TIP3   OH278424   1.899   3.260   0.713 -0.4441 -0.2071  0.2794
18978TIP3    H178425   1.893   3.333   0.652  0.7553 -1.4856 -1.4746
18978TIP3    H278426   1.943   3.296   0.790  2.8190  0.3604 -1.6716
18979TIP3   OH278427   5.530   3.052   5.248  0.0792 -0.7872 -0.2249
18979TIP3    H178428   5.469   2.981   5.228  1.4422 -1.8761 -0.6779
18979TIP3    H278429   5.593   3.050   5.177  2.4801 -1.8204  1.7816
18980TIP3   OH278430   4.179   1.687  12.876  0.2724  0.6674 -0.1402
18980TIP3    H178431   4.152   1.776  12.852 -1.6382  1.0730  2.9523
18980TIP3    H278432   4.250   1.700  12.940 -0.7101  0.0993  1.1212
18981TIP3   OH278433   5.568   3.209  13.143  0.2730 -0.4223  0.0539
18981TIP3    H178434   5.481   3.192  13.107 -0.1867 -1.6372  1.6107
18981TIP3    H278435   5.570   3.158  13.224  1.9378  0.6685  0.7463
18982TIP3   OH278436   0.433   3.895  12.446 -0.3549  0.3592 -0.0943
18982TIP3    H178437   0.518   3.863  12.474 -0.6321 -0.4823 -0.1796
18982TIP3    H278438   0.447   3.927  12.357 -0.3781 -0.8884 -0.5573
18983TIP3   OH278439   0.031   0.441   4.133  0.4757 -0.5721 -0.0400
18983TIP3    H178440  -0.006   0.355   4.113  2.5060 -1.9428  1.7127
18983TIP3    H278441   0.099   0.424   4.197  2.6227  2.0934 -1.4077
18984TIP3   OH278442   6.137   5.416  12.391 -0.2029 -0.0379 -0.1813
18984TIP3    H178443   6.185   5.448  12.315  0.0282  2.1935  0.8130
18984TIP3    H278444   6.134   5.491  12.451 -2.2111 -1.0484  1.1218
18985TIP3   OH278445   3.333   2.566   4.457 -0.1634 -0.1874 -0.4777
18985TIP3    H178446   3.307   2.476   4.478 -0.6906  0.2588  0.8878
18985TIP3    H278447   3.428   2.563   4.453 -0.1646 -0.7575 -0.2380
18986TIP3   OH278448   5.015   2.174  14.368 -0.5256  0.0475 -0.5004
18986TIP3    H178449   5.076   2.142  14.302 -0.0940  0.3463 -0.2532
18986TIP3    H278450   4.938   2.202  14.318 -0.5349 -0.4936 -0.7989
18987TIP3   OH278451   3.140   4.265  12.385  0.2296 -0.4904 -0.2821
18987TIP3    H178452   3.192   4.237  12.310  0.7442  0.9908 -0.5250
18987TIP3    H278453   3.113   4.354  12.363  1.9517  0.7278  2.0230
18988TIP3   OH278454   4.795   4.433   1.303 -0.0130 -0.5837  0.0044
18988TIP3    H178455   4.714   4.463   1.344  1.6526  1.0514  2.3134
18988TIP3    H278456   4.819   4.503   1.242  2.1947  1.5908  3.0667
18989TIP3   OH278457   5.388   2.256   3.644 -0.1969  0.0201 -0.0373
18989TIP3    H178458   5.405   2.300   3.561 -1.3901  1.5842  0.4964
18989TIP3    H278459   5.297   2.227   3.637 -0.4647  0.6001  0.8924
18990TIP3   OH278460   0.561   4.848  13.817 -0.1619  0.2672  0.3439
18990TIP3    H178461   0.465   4.845  13.822 -0.2175  2.1310  1.2069
18990TIP3    H278462   0.582   4.811  13.731 -1.9437  3.2189 -1.5487
18991TIP3   OH278463   4.182   4.897  15.683 -0.7028 -0.0617 -0.7650
18991TIP3    H178464   4.251   4.955  15.652  0.2713 -0.7634  0.0256
18991TIP3    H278465   4.208   4.810  15.653 -0.9852 -0.4019 -0.0590
18992TIP3   OH278466   5.151   5.893  10.755  0.0056  0.6601  0.0035
18992TIP3    H178467   5.155   5.976  10.802  4.2335  1.0984 -0.7687
18992TIP3    H278468   5.198   5.909  10.674  2.6881 -2.8691  0.6233
18993TIP3   OH278469   0.580   1.481  11.249 -0.1134 -0.1818  0.1853
18993TIP3    H178470   0.632   1.428  11.188  0.8239 -0.0855  0.8789
18993TIP3    H278471   0.537   1.545  11.193  1.1227  0.2212 -0.3443
18994TIP3   OH278472   6.290   6.154  11.926 -0.2224  0.0447  0.4520
18994TIP3    H178473   6.231   6.217  11.883 -1.1635 -0.2730  1.2214
18994TIP3    H278474   6.271   6.165  12.020  3.3851  2.3958  1.1168
18995TIP3   OH278475   4.017   3.916   1.714 -0.1211  0.2370  0.0697
18995TIP3    H178476   4.048   3.947   1.629  0.9989  3.7789  1.5799
18995TIP3    H278477   3.922   3.930   1.712 -0.1838 -0.2134 -0.7127
18996TIP3   OH278478   0.331   2.658  15.450 -0.7840 -0.0634 -0.4635
18996TIP3    H178479   0.386   2.616  15.516 -0.6201 -0.1140 -0.6324
18996TIP3    H278480   0.373   2.638  15.366 -1.3044 -0.4799 -0.6320
18997TIP3   OH278481   2.670   3.908   0.999 -0.5786 -0.6855 -0.7096
18997TIP3    H178482   2.575   3.910   1.010 -0.5266 -1.0206 -0.1729
18997TIP3    H278483   2.696   3.819   1.023  0.2083  0.2433  2.3561
18998TIP3   OH278484   5.932   3.126   3.116  0.1620 -0.0548  0.2857
18998TIP3    H178485   5.930   3.196   3.181 -1.2208  0.7277 -0.5522
18998TIP3    H278486   5.930   3.171   3.032  2.7160 -1.0116 -0.3831
18999TIP3   OH278487   5.141   2.769  13.256  0.2313 -0.4174  0.2535
18999TIP3    H178488   5.049   2.742  13.249  0.3358 -1.0824  1.2840
18999TIP3    H278489   5.162   2.805  13.169 -1.6273  1.8026  0.6148
19000TIP3   OH278490   1.264   4.126  16.555  0.1971 -0.1266  0.3453
19000TIP3    H178491   1.326   4.171  16.498 -0.9993  2.0204  0.6491
19000TIP3    H278492   1.198   4.090  16.495  0.8027 -0.9426  0.1518
19001TIP3   OH278493   0.269   3.496   3.924 -0.5490  0.3026  0.1183
19001TIP3    H178494   0.226   3.446   3.993  0.8022  0.8450  1.4060
19001TIP3    H278495   0.249   3.448   3.844 -0.4736 -1.4891  1.1232
19002TIP3   OH278496   0.086   2.619   5.748  0.4185  0.4022 -0.2118
19002TIP3    H178497   0.131   2.577   5.822 -0.5848 -0.2739  0.0365
19002TIP3    H278498   0.011   2.663   5.788  1.0555  1.8783 -0.5679
19003TIP3   OH278499   3.073   4.786   0.641  0.9836  0.0005 -0.6336
19003TIP3    H178500   3.025   4.844   0.582  0.8273 -1.3543 -1.9014
19003TIP3    H278501   3.140   4.841   0.681  0.7180  1.0876 -1.6497
19004TIP3   OH278502   0.711   5.825  12.541 -0.4207  0.0591 -0.0819
19004TIP3    H178503   0.623   5.793  12.523 -0.5607  0.4972 -0.1823
19004TIP3    H278504   0.756   5.820  12.457  0.1812 -1.7482  0.2837
19005TIP3   OH278505   0.189   0.136   5.789  0.2137 -0.8356 -0.9218
19005TIP3    H178506   0.109   0.090   5.815 -2.1850  1.3723 -3.7682
19005TIP3    H278507   0.200   0.205   5.855 -1.3581  0.0013 -1.5065
19006TIP3   OH278508   1.027   4.612   4.960  0.1017 -0.0346 -0.0768
19006TIP3    H178509   1.013   4.703   4.987 -1.3031 -0.3601  0.3982
19006TIP3    H278510   0.943   4.585   4.923  0.4754 -1.1707 -0.1438
19007TIP3   OH278511   2.746   0.513  15.364 -0.0159 -0.7272  0.4796
19007TIP3    H178512   2.744   0.538  15.456 -0.4064 -0.1656  0.3245
19007TIP3    H278513   2.832   0.541  15.333  0.3688 -1.5018  0.8278
19008TIP3   OH278514   3.296   1.590   1.076 -0.8509  0.3400 -0.6298
19008TIP3    H178515   3.233   1.639   1.129 -1.2149  0.3002 -1.0237
19008TIP3    H278516   3.338   1.656   1.021  0.0787  0.5000  0.2360
19009TIP3   OH278517   3.536   0.353  17.157  0.4264  0.7228  0.1178
19009TIP3    H178518   3.476   0.383  17.225  0.2473 -2.0563  1.3330
19009TIP3    H278519   3.624   0.367  17.194  0.3363 -0.4685  0.8378
19010TIP3   OH278520   6.837   4.576  11.935  0.3748  1.1093 -0.1631
19010TIP3    H178521   6.795   4.619  12.009 -1.5142 -0.5951 -0.1585
19010TIP3    H278522   6.765   4.541  11.883  1.7111 -1.5990 -0.3971
19011TIP3   OH278523   2.364   5.545  11.079  0.0136  0.2432 -0.8722
19011TIP3    H178524   2.324   5.463  11.105  0.7382  0.4689  1.0917
19011TIP3    H278525   2.291   5.606  11.072 -0.3782 -0.2412 -1.0705
19012TIP3   OH278526   5.414   1.898   0.174 -0.0575  0.0301  0.2798
19012TIP3    H178527   5.384   1.984   0.145 -0.8604 -0.2412  0.2997
19012TIP3    H278528   5.342   1.863   0.226  0.5607 -0.3466  0.9087
19013TIP3   OH278529   0.245   1.731  12.485 -0.0917 -0.1795  0.5295
19013TIP3    H178530   0.164   1.733  12.433  0.1789  0.2246  0.1155
19013TIP3    H278531   0.259   1.638  12.504 -0.0483 -0.3640 -0.3568
19014TIP3   OH278532   5.811   4.263  13.704 -0.5884 -0.0948 -0.4056
19014TIP3    H178533   5.902   4.284  13.682 -0.8641 -1.5136 -3.3639
19014TIP3    H278534   5.818   4.183  13.757 -0.0936 -0.1993 -0.6179
19015TIP3   OH278535   0.082   0.650  11.861 -0.1722  0.0780  0.0484
19015TIP3    H178536   0.067   0.718  11.796  0.5551  0.5276  0.3441
19015TIP3    H278537   0.093   0.569  11.810  0.2729  0.4025 -0.3747
19016TIP3   OH278538   4.307   3.008  16.664  0.3010 -0.0277  0.5444
19016TIP3    H178539   4.261   3.069  16.723  0.8212 -2.1235  3.2914
19016TIP3    H278540   4.254   3.009  16.584 -1.0890  2.1296  1.3886
19017TIP3   OH278541   6.572   6.062   1.040  0.4414 -0.1893  0.3973
19017TIP3    H178542   6.649   6.063   0.984  0.0635 -3.2004 -0.3814
19017TIP3    H278543   6.606   6.043   1.128  0.7530  0.9672  0.5356
19018TIP3   OH278544   1.192   1.308  12.792  0.0796 -0.0027 -0.4847
19018TIP3    H178545   1.212   1.401  12.806  0.0199 -0.3321  2.3496
19018TIP3    H278546   1.099   1.300  12.813  0.9850 -1.3395  4.1113
19019TIP3   OH278547   1.526   2.372  13.346 -0.2016 -0.2988  0.0224
19019TIP3    H178548   1.597   2.411  13.397 -0.1898 -2.2305  1.5889
19019TIP3    H278549   1.512   2.434  13.274  2.2079  0.7634  0.3562
19020TIP3   OH278550   1.341   3.618  10.490 -0.1103 -0.7302 -0.0931
19020TIP3    H178551   1.303   3.676  10.555 -1.1648 -2.2897  0.7460
19020TIP3    H278552   1.349   3.534  10.534  2.3742 -1.0056 -0.9282
19021TIP3   OH278553   2.172   4.111   2.107 -0.0098 -0.2450 -0.7550
19021TIP3    H178554   2.267   4.113   2.096  0.1067 -3.0114 -0.9711
19021TIP3    H278555   2.158   4.129   2.200  0.7091  0.1267 -0.7081
19022TIP3   OH278556   2.292   5.322   0.933  0.1729 -0.3938 -0.3776
19022TIP3    H178557   2.225   5.344   0.868  0.4721 -0.5792 -0.7478
19022TIP3    H278558   2.241   5.298   1.011 -0.1978  3.1710  0.6595
19023TIP3   OH278559   4.738   5.535   5.302 -0.4449  0.9593  0.1420
19023TIP3    H178560   4.802   5.495   5.242 -0.7421 -1.9079  1.5348
19023TIP3    H278561   4.792   5.573   5.371 -0.1664  2.6738 -0.9657
19024TIP3   OH278562   4.197   2.454   3.364  0.1829 -0.3302 -0.2476
19024TIP3    H178563   4.205   2.484   3.455 -0.1055  0.0117 -0.3353
19024TIP3    H278564   4.284   2.469   3.327 -0.1779  1.1771 -0.5243
19025TIP3   OH278565   0.455   1.790  13.786  0.1227  0.0865  0.4918
19025TIP3    H178566   0.394   1.759  13.720 -1.2373  2.3551  0.5994
19025TIP3    H278567   0.537   1.802  13.739 -0.1642 -0.6470 -0.2167
19026TIP3   OH278568   4.238   3.589   0.222  0.0555 -0.0488  0.3149
19026TIP3    H178569   4.202   3.614   0.137  0.1127  0.0566  0.3208
19026TIP3    H278570   4.184   3.516   0.251 -0.4520  0.4067  0.5336
19027TIP3   OH278571   3.978   5.588   4.229 -0.1983 -0.1967  0.8304
19027TIP3    H178572   3.897   5.579   4.279  0.0322 -1.1252  1.0661
19027TIP3    H278573   4.042   5.534   4.277  0.7777  1.1081  1.0818
19028TIP3   OH278574   4.394   4.076   4.855 -0.1815  0.4293 -0.4789
19028TIP3    H178575   4.301   4.082   4.833 -0.3296 -2.4039 -0.9169
19028TIP3    H278576   4.434   4.031   4.780  0.9938 -1.0686  0.9860
19029TIP3   OH278577   5.794   3.486   0.902 -0.4602 -0.7729  1.2163
19029TIP3    H178578   5.727   3.523   0.960  1.3735  1.6183  1.9636
19029TIP3    H278579   5.870   3.472   0.959  0.7416 -0.2574 -0.2034
19030TIP3   OH278580   6.074   3.865  16.723 -0.0954 -0.4738  0.4238
19030TIP3    H178581   6.050   3.894  16.635 -1.5676 -0.5764  0.7656
19030TIP3    H278582   6.168   3.849  16.718  0.3028  1.7321 -0.5012
19031TIP3   OH278583   3.409   6.059  11.296 -0.4508  0.2664 -0.2701
19031TIP3    H178584   3.500   6.033  11.285 -0.7545 -1.3998  0.8274
19031TIP3    H278585   3.379   6.081  11.208  0.2706 -1.7797 -1.0828
19032TIP3   OH278586   5.116   6.398   5.506  0.2777 -0.1253 -0.4539
19032TIP3    H178587   5.107   6.351   5.589  0.1222 -0.0854 -0.4486
19032TIP3    H278588   5.033   6.443   5.494  1.2655  2.1621  0.7689
19033TIP3   OH278589   2.614   3.700   4.184 -1.4356  0.4412  0.1699
19033TIP3    H178590   2.589   3.771   4.244 -2.5595  0.1933  0.0212
19033TIP3    H278591   2.655   3.745   4.110 -0.4655  0.7854  0.8928
19034TIP3   OH278592   5.974   1.320  14.636 -0.0936  0.2740  0.0780
19034TIP3    H178593   5.917   1.264  14.582  0.5605  0.8728 -1.2958
19034TIP3    H278594   5.960   1.290  14.725 -1.9093 -0.1600 -0.3233
19035TIP3   OH278595   0.793   2.387  15.780  0.1852  0.2668  0.3802
19035TIP3    H178596   0.804   2.390  15.875 -1.2081 -0.6179  0.6067
19035TIP3    H278597   0.843   2.461  15.747  0.8983  0.4400  1.7790
19036TIP3   OH278598   2.214   6.055  14.724  0.0556  0.2524 -0.2830
19036TIP3    H178599   2.208   6.077  14.631 -2.9202 -2.0668 -0.7974
19036TIP3    H278600   2.132   6.086  14.762 -0.4241 -2.0292  0.7240
19037TIP3   OH278601   4.512   4.875   4.557 -0.2758  0.2061 -0.0203
19037TIP3    H178602   4.577   4.811   4.587 -0.3030  0.3979  0.4568
19037TIP3    H278603   4.432   4.824   4.544  0.4127 -0.4136 -2.4627
19038TIP3   OH278604   6.457   6.182  13.639 -0.5476 -0.3010 -0.3396
19038TIP3    H178605   6.372   6.179  13.684  0.3308 -2.4580  1.3794
19038TIP3    H278606   6.520   6.201  13.708  0.5752 -0.7972 -1.1968
19039TIP3   OH278607   5.417   2.059   5.113  0.1064 -0.2173 -0.3826
19039TIP3    H178608   5.373   2.011   5.184  1.1016  2.2597  2.0772
19039TIP3    H278609   5.359   2.132   5.093  1.0240  0.5479 -0.2976
19040TIP3   OH278610   0.292   2.704   0.913 -0.4792  0.0297  0.5648
19040TIP3    H178611   0.293   2.629   0.973 -1.5475 -1.5152 -1.2728
19040TIP3    H278612   0.238   2.676   0.839  3.8703  0.2800 -3.1332
19041TIP3   OH278613   6.611   1.319   0.567 -0.3327 -0.0093  0.4332
19041TIP3    H178614   6.678   1.357   0.625  0.6356  0.6424 -1.0476
19041TIP3    H278615   6.528   1.335   0.612  0.2858  1.5743  1.0823
19042TIP3   OH278616   4.169   3.667  10.635  0.6079  0.1314 -0.5869
19042TIP3    H178617   4.186   3.645  10.544  1.4890  0.0873 -0.4213
19042TIP3    H278618   4.075   3.681  10.640  0.5653  0.1782 -1.5079
19043TIP3   OH278619   6.219   0.812   5.722 -0.3627 -0.0458  0.3845
19043TIP3    H178620   6.237   0.863   5.801 -1.3152 -0.4744  0.8980
19043TIP3    H278621   6.305   0.780   5.694 -0.0855 -0.6321  1.7758
19044TIP3   OH278622   3.973   1.330  12.776  0.1308  0.8691  0.2449
19044TIP3    H178623   3.902   1.394  12.765  0.1658  0.8065 -0.4119
19044TIP3    H278624   4.052   1.377  12.750  0.0629  0.3557 -0.9767
19045TIP3   OH278625   4.054   4.051   4.293 -0.4158 -0.4898  0.1043
19045TIP3    H178626   4.071   3.958   4.278  1.3507 -0.4679  1.5739
19045TIP3    H278627   3.963   4.054   4.322 -0.0737 -1.9893  1.4801
19046TIP3   OH278628   0.308   5.682  14.261  0.6514  0.0042 -0.4222
19046TIP3    H178629   0.304   5.671  14.356 -1.0040  2.0044 -0.1851
19046TIP3    H278630   0.391   5.727  14.245  0.6960  0.1327  0.1601
19047TIP3   OH278631   0.672   5.368   5.621 -0.5299 -0.1388  0.6431
19047TIP3    H178632   0.612   5.337   5.689  1.7342 -2.8128  1.5930
19047TIP3    H278633   0.755   5.384   5.667  0.8212 -1.1666 -1.3067
19048TIP3   OH278634   2.002   5.093   6.583 -0.3960 -0.1158 -0.0005
19048TIP3    H178635   1.944   5.045   6.641  2.1023 -2.9591  0.4087
19048TIP3    H278636   2.008   5.038   6.504  2.7567 -0.8004  0.5738
19049TIP3   OH278637   3.159   6.077  13.531  0.0069  0.0537  0.0559
19049TIP3    H178638   3.139   6.113  13.618  0.7906 -0.4437  0.4521
19049TIP3    H278639   3.103   5.999  13.525  0.3384 -0.2176  0.3529
19050TIP3   OH278640   0.338   4.800   3.037  0.0307  0.1706  0.5266
19050TIP3    H178641   0.430   4.783   3.018 -0.5251 -1.0221 -1.3847
19050TIP3    H278642   0.329   4.780   3.130  0.9710 -3.4545 -0.0014
19051TIP3   OH278643   2.484   4.489   2.977 -0.0081 -0.4417  0.0897
19051TIP3    H178644   2.463   4.576   3.011  1.0934 -0.7548  1.7319
19051TIP3    H278645   2.564   4.464   3.024 -0.3729 -2.3938 -0.2232
19052TIP3   OH278646   0.143   0.832  11.067  1.1210  0.0423 -0.7862
19052TIP3    H178647   0.123   0.913  11.019 -2.1300  0.3427  0.8347
19052TIP3    H278648   0.079   0.769  11.035  2.2428 -1.3040 -0.4787
19053TIP3   OH278649   3.970   1.026  13.466 -0.4849  0.0389 -0.1279
19053TIP3    H178650   3.955   1.013  13.372 -1.0274  0.4679 -0.1041
19053TIP3    H278651   4.006   0.942  13.496 -0.6548 -0.2250 -0.6438
19054TIP3   OH278652   5.460   5.972   0.149 -0.5789  0.3411 -0.1171
19054TIP3    H178653   5.552   5.989   0.127 -0.3026 -0.4204  0.4106
19054TIP3    H278654   5.455   5.988   0.244 -1.8167  3.8915 -0.6296
19055TIP3   OH278655   4.589   5.686  13.308  0.1204  0.2690 -0.2240
19055TIP3    H178656   4.647   5.729  13.371 -2.0059  1.1521  1.2274
19055TIP3    H278657   4.536   5.627  13.361 -1.1480  0.3937 -1.3190
19056TIP3   OH278658   1.445   6.751   1.564 -0.0789 -0.1713  0.0488
19056TIP3    H178659   1.479   6.835   1.532 -1.0272  1.2355  2.4787
19056TIP3    H278660   1.364   6.738   1.513 -1.1014  1.5708  1.0986
19057TIP3   OH278661   1.934   0.297  14.661  0.4145  0.5062  0.4680
19057TIP3    H178662   1.951   0.371  14.602  0.2476  0.1418 -0.0416
19057TIP3    H278663   1.887   0.233  14.607  0.8518 -0.1164  0.8149
19058TIP3   OH278664   5.356   5.798  13.060  0.0053  0.7156  0.2605
19058TIP3    H178665   5.360   5.707  13.029 -0.9313 -0.0536  2.2503
19058TIP3    H278666   5.290   5.839  13.004 -1.2269 -0.4685  0.7904
19059TIP3   OH278667   2.473   5.894  17.048 -0.0359 -0.5327  0.1236
19059TIP3    H178668   2.526   5.843  17.108 -1.6531 -1.8076  0.5413
19059TIP3    H278669   2.471   5.843  16.967  0.0735 -0.0650 -0.1786
19060TIP3   OH278670   1.400   6.338   4.675  0.0999  0.6377 -0.0235
19060TIP3    H178671   1.342   6.411   4.654 -1.8953 -0.5183  1.1383
19060TIP3    H278672   1.360   6.297   4.751  0.8149 -2.0106 -0.9597
19061TIP3   OH278673   1.182   4.139  14.064  0.1910 -0.3458  0.1782
19061TIP3    H178674   1.091   4.165  14.075  0.9827  2.6206  0.6142
19061TIP3    H278675   1.185   4.097  13.978 -1.0138  3.0085 -1.7048
19062TIP3   OH278676   6.284   6.837   6.354  0.0181 -0.3770  0.3954
19062TIP3    H178677   6.277   6.932   6.346  0.4883 -0.4933 -2.1911
19062TIP3    H278678   6.368   6.824   6.399  0.5544  0.4519 -0.3093
19063TIP3   OH278679   4.226   0.619   5.648 -0.1303  0.3611 -0.5904
19063TIP3    H178680   4.304   0.668   5.623 -0.0286  0.7024  0.3458
19063TIP3    H278681   4.253   0.569   5.725 -0.1282 -1.4539 -1.7016
19064TIP3   OH278682   2.774   3.431   1.349 -0.2210  0.3285 -0.3509
19064TIP3    H178683   2.854   3.398   1.307  0.9143  0.3210  1.6752
19064TIP3    H278684   2.740   3.356   1.398 -0.6983  0.7159 -0.0830
19065TIP3   OH278685   5.756   6.283  13.713 -0.3495  0.2623 -0.0269
19065TIP3    H178686   5.690   6.286  13.643 -1.2130  0.0940  0.7624
19065TIP3    H278687   5.828   6.337  13.680 -0.4861 -0.2761 -1.2943
19066TIP3   OH278688   5.211   3.103   4.618 -0.3449 -0.1223 -0.7671
19066TIP3    H178689   5.152   3.040   4.659 -1.2505  2.1586  1.7374
19066TIP3    H278690   5.173   3.117   4.531 -1.6470 -1.0729 -0.3941
19067TIP3   OH278691   6.240   5.849   4.787  0.0511  0.2747  0.7626
19067TIP3    H178692   6.276   5.816   4.705 -1.4532 -2.4606  1.0594
19067TIP3    H278693   6.309   5.834   4.851  0.2974 -0.0197  0.4323
19068TIP3   OH278694   1.938   6.427  15.146  0.1729  0.3709 -0.5201
19068TIP3    H178695   1.943   6.474  15.229 -1.4222  0.8454 -0.6541
19068TIP3    H278696   1.995   6.476  15.087 -1.4938  2.2420 -0.6753
19069TIP3   OH278697   1.797   4.135  14.976 -0.0300 -0.2676 -0.1946
19069TIP3    H178698   1.817   4.222  15.009 -1.1422  0.4936 -1.4847
19069TIP3    H278699   1.719   4.108  15.024  0.3505 -0.6082  0.2521
19070TIP3   OH278700   5.467   1.428   1.431  0.1381  0.0746  0.2557
19070TIP3    H178701   5.371   1.430   1.428  0.1617  0.0996 -1.4903
19070TIP3    H278702   5.494   1.428   1.339  1.8533  2.5092  0.6445
19071TIP3   OH278703   4.859   5.581   1.895 -0.2625  0.3338 -0.8954
19071TIP3    H178704   4.894   5.547   1.813 -2.3982 -0.9255 -1.3631
19071TIP3    H278705   4.790   5.643   1.869  0.0212  1.0548 -0.0251
19072TIP3   OH278706   1.663   0.775  11.683  0.1627 -0.1387  0.6452
19072TIP3    H178707   1.741   0.826  11.706  0.6382 -0.1960 -0.7266
19072TIP3    H278708   1.689   0.684  11.698  0.8063 -0.2475 -0.9074
19073TIP3   OH278709   5.991   4.655   4.027 -0.1733  0.0581 -0.6816
19073TIP3    H178710   6.046   4.731   4.006 -0.6306  0.0208 -2.0914
19073TIP3    H278711   6.054   4.586   4.050  0.3005  0.4442 -0.8034
19074TIP3   OH278712   6.669   0.862  13.273 -0.4891  0.5453  0.6921
19074TIP3    H178713   6.751   0.894  13.311 -1.2705  3.1115  0.4097
19074TIP3    H278714   6.697   0.809  13.199  0.9825  2.4672 -0.2441
19075TIP3   OH278715   3.672   6.195   1.944  0.2385 -0.2810 -0.4815
19075TIP3    H178716   3.599   6.173   2.002  0.1604  0.1920 -0.4011
19075TIP3    H278717   3.639   6.265   1.888  0.5483 -0.2378 -0.6122
19076TIP3   OH278718   4.682   0.092   3.065 -0.5151 -0.4934 -0.5079
19076TIP3    H178719   4.735   0.137   3.131  1.1007  0.2331 -2.2298
19076TIP3    H278720   4.602   0.068   3.112  1.0347 -1.1044  2.0641
19077TIP3   OH278721   0.495   1.922   3.637 -0.2727 -0.1042  0.0731
19077TIP3    H178722   0.416   1.957   3.677 -1.0081 -2.4495  0.8539
19077TIP3    H278723   0.536   1.870   3.707  0.1751 -1.5915 -1.2263
19078TIP3   OH278724   2.940   3.449  17.050  0.0425  0.0845  0.0272
19078TIP3    H178725   2.850   3.471  17.076 -0.3509 -1.3152 -0.0677
19078TIP3    H278726   2.987   3.443  17.133  0.2764  1.6415  0.0363
19079TIP3   OH278727   1.804   1.507   0.608 -0.4211 -0.1888 -0.3984
19079TIP3    H178728   1.792   1.524   0.701 -0.7050  0.6994 -0.5893
19079TIP3    H278729   1.716   1.493   0.575 -0.4306  0.6066 -0.7325
19080TIP3   OH278730   3.657   3.964   6.141  0.3484 -0.0242 -0.4504
19080TIP3    H178731   3.669   3.870   6.128  0.8186  0.2144 -1.9511
19080TIP3    H278732   3.746   4.001   6.139  0.3301  0.2836  1.9215
19081TIP3   OH278733   5.115   2.376   1.115  0.2345  0.0271 -0.3682
19081TIP3    H178734   5.144   2.306   1.056  0.4517 -1.1578  1.0990
19081TIP3    H278735   5.019   2.371   1.114  0.2286  0.1834 -0.8042
19082TIP3   OH278736   1.170   5.902  11.514 -0.0756 -0.8762  0.2663
19082TIP3    H178737   1.143   5.913  11.605  0.4634 -1.3376  0.4895
19082TIP3    H278738   1.241   5.965  11.502 -1.1803  0.2935 -0.3013
19083TIP3   OH278739   0.034   1.345   1.434 -0.1647  0.5271 -0.0832
19083TIP3    H178740   0.004   1.294   1.510 -1.4649  1.9329  0.3881
19083TIP3    H278741   0.117   1.303   1.409 -1.0697 -1.7196  0.3671
19084TIP3   OH278742   1.503   6.666   5.976 -0.5668 -0.1891  0.0134
19084TIP3    H178743   1.482   6.662   5.883 -2.6859 -1.1756  0.4688
19084TIP3    H278744   1.598   6.653   5.980 -0.4545 -0.2112 -1.9872
19085TIP3   OH278745   1.476   2.544   5.352  0.1512  0.0591  0.0006
19085TIP3    H178746   1.459   2.580   5.265  1.6329  0.9750  0.0582
19085TIP3    H278747   1.471   2.620   5.410  2.8988  0.2019  0.1912
19086TIP3   OH278748   3.626   2.703  12.674  0.3134 -0.0529  0.5610
19086TIP3    H178749   3.535   2.729  12.686  0.3493  0.8201 -0.8318
19086TIP3    H278750   3.677   2.770  12.718  0.2999 -0.4435  1.1837
19087TIP3   OH278751   2.535   4.240  13.160  0.0722  0.1167 -0.2487
19087TIP3    H178752   2.608   4.256  13.220  1.9055  0.8108 -2.5086
19087TIP3    H278753   2.547   4.150  13.131 -0.8810 -0.2572  0.4825
19088TIP3   OH278754   0.332   3.381   5.388 -0.2949 -0.0436  0.0753
19088TIP3    H178755   0.347   3.287   5.379 -0.9851 -0.0131 -1.7319
19088TIP3    H278756   0.273   3.389   5.464 -0.4256 -1.0732  0.0921
19089TIP3   OH278757   0.794   1.416   5.816 -0.6309 -0.3071 -0.2975
19089TIP3    H178758   0.873   1.367   5.842 -0.8470 -0.1122  0.8011
19089TIP3    H278759   0.741   1.352   5.768 -0.8998 -1.1847  1.0958
19090TIP3   OH278760   4.084   3.298  15.943 -0.2680 -0.2621 -0.0450
19090TIP3    H178761   4.022   3.346  15.999 -2.1184 -2.0517 -0.4452
19090TIP3    H278762   4.156   3.274  16.001  0.9577  3.1835  0.1118
19091TIP3   OH278763   5.450   0.315  15.897  0.0608  0.0513 -0.3909
19091TIP3    H178764   5.470   0.405  15.925  1.2694 -1.0459  2.7306
19091TIP3    H278765   5.533   0.269  15.901 -0.9677 -1.8489  0.9613
19092TIP3   OH278766   5.692   0.654  11.781 -0.0195 -0.2392  0.2605
19092TIP3    H178767   5.641   0.701  11.847  0.9131  0.8636  0.2411
19092TIP3    H278768   5.708   0.568  11.819  0.0421  0.1954  1.2576
19093TIP3   OH278769   6.052   1.294   5.282  0.1335  0.1746 -0.2425
19093TIP3    H178770   6.124   1.295   5.219 -0.0413  0.9991 -0.4367
19093TIP3    H278771   6.048   1.383   5.316 -0.1595 -0.1117  0.5040
19094TIP3   OH278772   1.179   1.027   0.185 -0.3471 -0.2397  0.1349
19094TIP3    H178773   1.100   1.021   0.239 -0.5817  0.3412 -0.1306
19094TIP3    H278774   1.206   1.119   0.194 -0.1387 -0.2466 -0.3842
19095TIP3   OH278775   3.581   4.355   3.316  0.7671  0.0624 -0.3563
19095TIP3    H178776   3.547   4.288   3.376  0.4683  0.2955 -0.2602
19095TIP3    H278777   3.533   4.339   3.234  1.1369 -0.2227 -0.5209
19096TIP3   OH278778   4.889   2.795  14.256  0.3215 -0.2255  0.2242
19096TIP3    H178779   4.925   2.850  14.326 -1.0855 -0.0307  0.8239
19096TIP3    H278780   4.947   2.811  14.181  1.8350 -0.4045  1.3132
19097TIP3   OH278781   4.236   4.731   5.224 -0.2385 -0.9082 -0.0486
19097TIP3    H178782   4.144   4.707   5.210 -0.1905 -1.0690 -0.0953
19097TIP3    H278783   4.275   4.725   5.137 -0.0290 -1.5136  0.0862
19098TIP3   OH278784   2.741   1.346  15.787 -0.3328 -0.2487  0.6165
19098TIP3    H178785   2.661   1.330  15.737 -0.7602 -0.3485  1.3234
19098TIP3    H278786   2.800   1.275  15.762  0.3565  0.9995 -1.5440
19099TIP3   OH278787   5.178   2.464   0.299 -0.0793  0.2766  0.6589
19099TIP3    H178788   5.154   2.409   0.224  1.1280  2.1433 -1.1990
19099TIP3    H278789   5.273   2.471   0.294  0.1541 -0.3701  3.0420
19100TIP3   OH278790   0.546   6.636   2.178 -0.5243 -0.2406 -0.2885
19100TIP3    H178791   0.468   6.619   2.124  0.0901  2.7938 -2.3836
19100TIP3    H278792   0.525   6.717   2.226  1.2796  0.6575 -0.9214
19101TIP3   OH278793   5.334   2.624  17.037  0.1689 -0.0258  0.3927
19101TIP3    H178794   5.299   2.668  17.115 -0.3988  0.8916 -0.3660
19101TIP3    H278795   5.428   2.619  17.053 -0.1621 -2.2137  2.3127
19102TIP3   OH278796   6.217   6.087   4.402  0.1213 -0.2532  0.4071
19102TIP3    H178797   6.207   6.051   4.314 -1.2222  0.0296  0.4254
19102TIP3    H278798   6.295   6.042   4.437  1.1012  0.1562 -1.1522
19103TIP3   OH278799   0.173   1.764  15.812  0.0397 -0.3533 -0.1626
19103TIP3    H178800   0.169   1.829  15.741 -0.2423 -0.5224 -0.3039
19103TIP3    H278801   0.141   1.810  15.889  2.7026  0.6131  0.4587
19104TIP3   OH278802   3.195   1.789  11.834 -0.3361  0.1053  0.4855
19104TIP3    H178803   3.177   1.878  11.805 -1.9645 -0.0399  0.8872
19104TIP3    H278804   3.112   1.743  11.820  0.6104 -1.4795 -0.1492
19105TIP3   OH278805   5.201   3.567  13.290  0.3282  0.0243  0.3460
19105TIP3    H178806   5.294   3.567  13.310  0.5972  1.0819 -0.8009
19105TIP3    H278807   5.181   3.476  13.265  1.0524 -0.1992  0.5726
19106TIP3   OH278808   5.079   3.020  17.169  0.1869 -0.1256  0.2208
19106TIP3    H178809   5.098   2.993  17.259  1.0236  1.5263  0.5666
19106TIP3    H278810   5.153   3.075  17.144  0.0796 -0.7480 -1.5781
19107TIP3   OH278811   2.879   3.305   3.910 -0.4566  0.5572  0.3179
19107TIP3    H178812   2.952   3.243   3.922 -0.3324  0.6566  0.0844
19107TIP3    H278813   2.883   3.361   3.987  0.6849  1.5480 -0.4174
19108TIP3   OH278814   3.714   4.572  11.853  0.0575  0.1557 -0.3632
19108TIP3    H178815   3.781   4.539  11.793 -1.0141  1.2778 -2.2710
19108TIP3    H278816   3.679   4.650  11.809  0.1110  1.8326  2.3480
19109TIP3   OH278817   0.030   3.284   0.052 -0.1639  0.1587  0.3136
19109TIP3    H178818   0.004   3.360   0.103  1.5459  0.3541  0.9818
19109TIP3    H278819   0.119   3.305   0.022 -0.3182 -0.8614 -0.9287
19110TIP3   OH278820   4.577   6.077   4.338 -0.5542  0.0396 -0.5312
19110TIP3    H178821   4.608   6.100   4.426 -2.6948 -3.1228  1.2788
19110TIP3    H278822   4.648   6.102   4.280  1.5172  1.1214  2.2390
19111TIP3   OH278823   3.723   2.192  15.158  0.0059  0.3441 -0.4863
19111TIP3    H178824   3.690   2.119  15.211  0.5168 -0.0873 -0.7499
19111TIP3    H278825   3.726   2.157  15.069  0.8736  0.4581 -0.5150
19112TIP3   OH278826   1.746   4.194   0.430  0.0561 -0.3301 -0.0357
19112TIP3    H178827   1.727   4.144   0.351  1.0613 -0.6952 -0.0576
19112TIP3    H278828   1.730   4.133   0.502 -1.1212  0.0831  0.0748
19113TIP3   OH278829   4.803   5.073  12.394 -0.3788 -0.6101 -0.5637
19113TIP3    H178830   4.746   5.010  12.350 -0.2194 -0.7141 -0.6218
19113TIP3    H278831   4.881   5.078  12.339  0.1612 -1.3350  0.0997
19114TIP3   OH278832   0.351   0.808   4.170  0.1354  0.3697 -0.4987
19114TIP3    H178833   0.275   0.854   4.204 -1.1631 -1.8783 -0.1658
19114TIP3    H278834   0.425   0.868   4.187 -1.2305  1.7001  1.1460
19115TIP3   OH278835   2.739   1.807  12.913 -0.6078 -0.1294 -0.1054
19115TIP3    H178836   2.834   1.803  12.909 -0.4644  2.2351 -0.4370
19115TIP3    H278837   2.719   1.866  12.986 -1.9010 -1.7402  0.9262
19116TIP3   OH278838   2.105   6.687   2.817  0.3668 -0.1784  0.1759
19116TIP3    H178839   2.182   6.651   2.861 -0.9230 -0.5766  2.2572
19116TIP3    H278840   2.047   6.612   2.805  0.6912 -0.0912 -2.3786
19117TIP3   OH278841   1.408   2.972   0.494 -0.0991 -0.0009  0.1187
19117TIP3    H178842   1.389   2.879   0.481 -1.5388  0.5305 -2.1447
19117TIP3    H278843   1.326   3.017   0.473  0.1636  1.7593  2.4389
19118TIP3   OH278844   0.164   5.256  12.897  0.2467  0.6295 -0.6099
19118TIP3    H178845   0.089   5.217  12.850 -1.4775  2.8633  0.1092
19118TIP3    H278846   0.154   5.225  12.987 -0.5882  1.9246 -0.2400
19119TIP3   OH278847   3.744   2.940   1.130  0.5513 -0.1301  0.0527
19119TIP3    H178848   3.827   2.955   1.174 -0.7146 -0.2379  2.6518
19119TIP3    H278849   3.758   2.860   1.079  1.5301 -1.2466  1.9609
19120TIP3   OH278850   5.155   0.890   5.037  0.4954  0.2950 -0.1398
19120TIP3    H178851   5.192   0.952   5.100  2.6339 -0.3759 -0.6641
19120TIP3    H278852   5.230   0.841   5.004 -0.5950  0.3367 -2.9432
19121TIP3   OH278853   2.901   4.753   4.157  0.2020 -0.3253  0.4395
19121TIP3    H178854   2.912   4.705   4.075  2.5636  0.0707  0.4712
19121TIP3    H278855   2.982   4.737   4.205 -1.7910 -2.0251  3.5584
19122TIP3   OH278856   1.355   3.557   1.375 -0.3348  0.2470 -0.2122
19122TIP3    H178857   1.399   3.473   1.361 -0.5086  0.2803 -1.0039
19122TIP3    H278858   1.287   3.538   1.440 -2.2391 -0.9214 -2.3980
19123TIP3   OH278859   1.774   1.383   3.102 -0.4032 -0.1143 -0.1224
19123TIP3    H178860   1.812   1.303   3.138  0.3276  0.3548  0.1694
19123TIP3    H278861   1.702   1.352   3.048 -0.3260 -0.9529  0.2305
19124TIP3   OH278862   4.848   5.256   4.624 -0.1826 -0.3016 -0.0604
19124TIP3    H178863   4.900   5.175   4.624 -1.1076 -1.0653 -3.3785
19124TIP3    H278864   4.903   5.320   4.579 -1.0079 -0.3369 -1.1703
19125TIP3   OH278865   1.144   2.792   6.181  0.6295 -0.4334 -0.1162
19125TIP3    H178866   1.145   2.838   6.097  2.4500 -1.1213 -0.5144
19125TIP3    H278867   1.119   2.702   6.159 -1.3753 -0.0568  0.4519
19126TIP3   OH278868   6.774   3.441  11.918 -0.2183  0.1155  0.2503
19126TIP3    H178869   6.822   3.477  11.993 -1.6682  1.8433  0.4019
19126TIP3    H278870   6.692   3.410  11.955  0.4537 -2.2629 -0.1125
19127TIP3   OH278871   6.704   4.370  12.755  0.6635  0.0371 -0.1259
19127TIP3    H178872   6.686   4.452  12.708 -1.9239  0.8941  2.0566
19127TIP3    H278873   6.664   4.303  12.700  3.2205  0.0396 -2.1820
19128TIP3   OH278874   2.870   4.567   2.472 -0.2853 -0.3305 -0.3482
19128TIP3    H178875   2.850   4.551   2.565 -0.6255  0.4420 -0.2819
19128TIP3    H278876   2.832   4.652   2.454  0.5071 -0.1050 -0.9863
19129TIP3   OH278877   1.505   0.950  13.928 -0.3698  0.2365 -0.5543
19129TIP3    H178878   1.599   0.963  13.939 -0.4388 -0.9373  2.0986
19129TIP3    H278879   1.494   0.936  13.834  1.8408  1.9934 -1.1794
19130TIP3   OH278880   5.929   2.636  11.858 -0.2410 -0.7051  0.0874
19130TIP3    H178881   6.012   2.682  11.862 -0.8169  0.5917 -1.6365
19130TIP3    H278882   5.863   2.705  11.859 -1.3194 -1.7081  1.3829
19131TIP3   OH278883   4.693   6.464  12.322 -0.5912  0.0706  0.0114
19131TIP3    H178884   4.727   6.375  12.312 -1.0721 -0.5083  2.7740
19131TIP3    H278885   4.771   6.519  12.332 -0.3277 -0.5015  1.2268
19132TIP3   OH278886   4.416   6.695  14.199  0.4565  0.1893 -0.0542
19132TIP3    H178887   4.433   6.676  14.107  1.0326 -0.0103  0.0893
19132TIP3    H278888   4.465   6.628  14.247  0.9092  0.8362  0.4123
19133TIP3   OH278889   6.829   1.845  16.061 -0.6204 -0.1559 -1.5396
19133TIP3    H178890   6.821   1.881  16.149 -1.2442  1.1667 -2.1057
19133TIP3    H278891   6.858   1.755  16.074 -0.7825 -0.0088  0.0099
19134TIP3   OH278892   5.261   5.161  16.496 -0.1200  0.8018 -0.4052
19134TIP3    H178893   5.201   5.135  16.426  0.1939 -0.8183 -0.1023
19134TIP3    H278894   5.208   5.217  16.553 -0.7440  1.0773 -1.2247
19135TIP3   OH278895   0.931   2.818  14.894  0.3250  0.1683  0.2061
19135TIP3    H178896   0.970   2.886  14.839  0.6922  0.1115  0.3963
19135TIP3    H278897   1.003   2.759  14.913  0.1735  0.1324  0.6676
19136TIP3   OH278898   4.164   3.659  17.147 -0.0848  0.2843 -0.2474
19136TIP3    H178899   4.239   3.683  17.092 -0.0162  0.4952 -0.0637
19136TIP3    H278900   4.110   3.605  17.090  0.9417 -1.1433  0.0896
19137TIP3   OH278901   3.402   0.630   5.538 -0.3336  0.0635  0.5242
19137TIP3    H178902   3.462   0.561   5.564  0.3726  0.4869  0.0298
19137TIP3    H278903   3.436   0.709   5.581 -0.0795  0.4557 -0.3860
19138TIP3   OH278904   2.582   5.350   2.344 -0.6391 -0.2690 -0.4629
19138TIP3    H178905   2.628   5.291   2.285 -1.1182 -0.3239 -0.7784
19138TIP3    H278906   2.542   5.416   2.288 -0.6395 -0.0070 -0.1620
19139TIP3   OH278907   3.088   6.808  12.270  0.0944 -0.0892  0.1141
19139TIP3    H178908   3.055   6.821  12.359  2.0422  1.6728  0.6576
19139TIP3    H278909   3.028   6.744  12.231  0.2052 -2.3021  3.2537
19140TIP3   OH278910   4.773   2.818  16.028  0.6101  0.5565  0.0106
19140TIP3    H178911   4.779   2.790  16.120  1.3674  0.0275 -0.1892
19140TIP3    H278912   4.686   2.790  16.000  0.4828  0.4631  0.4816
19141TIP3   OH278913   4.121   1.272   3.603 -0.8740  0.5026  0.3692
19141TIP3    H178914   4.145   1.251   3.693 -0.3730  1.0265  0.3635
19141TIP3    H278915   4.197   1.243   3.551 -0.7691  1.0351  0.2172
19142TIP3   OH278916   3.961   2.478   6.443  0.1674  0.2529 -0.4324
19142TIP3    H178917   4.000   2.396   6.414  1.1612 -0.1293  1.8460
19142TIP3    H278918   3.902   2.503   6.371  2.5572 -0.5096 -2.8277
19143TIP3   OH278919   5.503   1.360  10.255  0.0028  0.2073  0.0261
19143TIP3    H178920   5.488   1.290  10.192 -0.1461  0.7552 -0.5500
19143TIP3    H278921   5.453   1.334  10.333  1.0028 -0.9755  0.3003
19144TIP3   OH278922   0.526   5.367  12.120 -0.3890 -0.3054 -0.1126
19144TIP3    H178923   0.479   5.439  12.163  0.8306  0.1656  0.5007
19144TIP3    H278924   0.458   5.317  12.075 -1.3132  1.0238 -0.2497
19145TIP3   OH278925   2.275   5.272   3.685 -0.0815  0.2695  0.8087
19145TIP3    H178926   2.189   5.246   3.651  0.0704 -2.6447  2.3765
19145TIP3    H278927   2.338   5.234   3.624  0.1077 -0.6022  1.5250
19146TIP3   OH278928   5.027   0.809   5.789  0.1245 -0.1433  0.8699
19146TIP3    H178929   5.118   0.804   5.818 -0.0295  0.7780  1.5497
19146TIP3    H278930   4.975   0.804   5.869 -0.3347  1.5675  0.7136
19147TIP3   OH278931   5.570   6.324  14.652 -0.2441 -0.0165 -0.3495
19147TIP3    H178932   5.556   6.411  14.687  0.5876 -0.2748  0.6488
19147TIP3    H278933   5.485   6.280  14.663 -0.3389  0.2996  0.2078
19148TIP3   OH278934   2.450   2.860  15.815  0.1613  0.2828  0.0627
19148TIP3    H178935   2.492   2.778  15.843 -0.2432  0.2178  0.4806
19148TIP3    H278936   2.365   2.833  15.780 -1.1239  0.7424  2.6052
19149TIP3   OH278937   5.730   1.975  16.747  1.0048  0.1626 -0.0024
19149TIP3    H178938   5.823   1.989  16.765  1.4837 -0.0870 -2.0787
19149TIP3    H278939   5.726   1.888  16.708 -0.0773  0.2400 -0.0895
19150TIP3   OH278940   1.433   4.405   3.358  0.1486 -0.4425 -0.4978
19150TIP3    H178941   1.468   4.461   3.289 -0.5226 -0.2697 -0.7015
19150TIP3    H278942   1.494   4.416   3.431 -1.1613  2.4009  0.3238
19151TIP3   OH278943   4.557   1.369  11.568 -0.2544  0.1609  0.0458
19151TIP3    H178944   4.596   1.371  11.655  1.4404  2.9415 -0.6708
19151TIP3    H278945   4.564   1.277  11.541  0.6496 -0.4514  2.1605
19152TIP3   OH278946   1.309   5.229   5.470 -0.6855  0.2217  0.2191
19152TIP3    H178947   1.217   5.224   5.497 -0.7640  1.3309  0.1893
19152TIP3    H278948   1.356   5.256   5.549  0.3342 -4.5735  1.5789
19153TIP3   OH278949   0.345   1.948   0.900  0.3148 -0.6456 -0.5106
19153TIP3    H178950   0.296   1.961   0.981 -0.5856  1.9907 -1.3625
19153TIP3    H278951   0.407   1.878   0.919 -0.0161 -0.2394  2.3731
19154TIP3   OH278952   2.076   3.595  14.797 -0.7684  0.2577 -0.3829
19154TIP3    H178953   1.985   3.574  14.818 -1.1534  1.7739 -0.3847
19154TIP3    H278954   2.079   3.596  14.702 -0.5379 -0.5774 -0.3917
19155TIP3   OH278955   4.920   4.921   2.553 -0.3402 -0.2117 -0.4345
19155TIP3    H178956   4.915   4.855   2.622  0.4282  0.2960  0.1227
19155TIP3    H278957   4.989   4.890   2.494 -0.0069  0.0669 -0.1944
19156TIP3   OH278958   0.982   3.765   4.431 -0.2902  0.2383 -0.2369
19156TIP3    H178959   0.955   3.676   4.452  0.3733 -0.4466 -2.0144
19156TIP3    H278960   1.064   3.777   4.479 -0.3380 -0.1400 -0.0559
19157TIP3   OH278961   2.474   6.026   0.741  0.1762  0.1173 -0.6524
19157TIP3    H178962   2.479   6.121   0.727  2.4069  0.1991  0.2273
19157TIP3    H278963   2.380   6.007   0.744 -0.3433  2.0959 -2.0132
19158TIP3   OH278964   2.587   0.541  11.374  0.2562  0.3546 -0.4417
19158TIP3    H178965   2.525   0.504  11.437  1.7762  0.9818  1.5538
19158TIP3    H278966   2.574   0.491  11.294 -2.4848  0.1994  0.0238
19159TIP3   OH278967   4.825   6.785   5.049 -0.0465  0.4074  0.5209
19159TIP3    H178968   4.741   6.795   5.093  0.3102  1.0618  1.0605
19159TIP3    H278969   4.824   6.850   4.979 -0.4161 -0.3066 -0.1532
19160TIP3   OH278970   4.813   4.865   1.915  0.2162  0.0027 -0.1413
19160TIP3    H178971   4.876   4.868   1.843  1.5368  0.5925  1.0109
19160TIP3    H278972   4.841   4.933   1.975 -1.4259  0.1494  0.5127
19161TIP3   OH278973   0.246   6.078   4.509 -0.3469  0.1776 -0.1700
19161TIP3    H178974   0.255   6.160   4.558  1.5129 -0.6577  0.9886
19161TIP3    H278975   0.170   6.092   4.453 -0.8618  2.2147  0.9393
19162TIP3   OH278976   6.622   4.166  14.086  0.1435 -0.2056 -0.1537
19162TIP3    H178977   6.528   4.163  14.068  0.0250 -0.4750  0.4766
19162TIP3    H278978   6.644   4.259  14.084  0.0198 -0.1794 -1.0328
19163TIP3   OH278979   4.310   1.155   0.263  0.0365  0.3268  0.0767
19163TIP3    H178980   4.360   1.190   0.189  0.5207  0.2818  0.3752
19163TIP3    H278981   4.243   1.100   0.223 -0.5241  1.3376 -0.3815
19164TIP3   OH278982   0.714   3.365   2.390 -0.1495  0.5979  0.1254
19164TIP3    H178983   0.704   3.275   2.421 -0.3322 -0.2310 -2.1541
19164TIP3    H278984   0.625   3.399   2.383 -0.0268  1.7051  2.8145
19165TIP3   OH278985   2.090   3.439   1.307  0.2008 -0.0876  0.3640
19165TIP3    H178986   2.169   3.400   1.347  0.5856 -0.2852 -0.5648
19165TIP3    H278987   2.062   3.506   1.370  1.1157 -0.0153  0.7129
19166TIP3   OH278988   0.346   5.687   2.005 -0.1099  0.2536  0.5194
19166TIP3    H178989   0.294   5.654   2.078  1.1730 -0.2994  1.2233
19166TIP3    H278990   0.406   5.751   2.045 -0.1650  0.8064 -0.2439
19167TIP3   OH278991   4.702   5.714   5.549 -0.1711  0.2305 -0.8534
19167TIP3    H178992   4.607   5.720   5.563  0.0871  2.0219  0.5822
19167TIP3    H278993   4.733   5.659   5.621  0.2039  2.4818  0.8132
19168TIP3   OH278994   3.956   4.585  13.026  0.5428  0.2141  0.3956
19168TIP3    H178995   3.997   4.597  13.111 -2.0077 -1.3693  1.9896
19168TIP3    H278996   3.872   4.631  13.033 -0.0631 -0.6173 -0.9476
19169TIP3   OH278997   3.294   0.816   4.748 -0.1233 -0.0137 -0.1486
19169TIP3    H178998   3.273   0.737   4.798  1.1084 -0.2628 -0.0001
19169TIP3    H278999   3.339   0.783   4.669  0.7838  0.5501  0.1200
19170TIP3   OH279000   5.160   3.707   2.994  0.1438 -0.4798 -0.0551
19170TIP3    H179001   5.076   3.736   2.959  0.8197  2.1841  0.2843
19170TIP3    H279002   5.217   3.784   2.985  1.2202 -0.5922  3.8983
19171TIP3   OH279003   5.129   4.259   6.095 -0.1112  0.1353 -0.4727
19171TIP3    H179004   5.214   4.276   6.054  0.2285 -1.5916 -0.5669
19171TIP3    H279005   5.151   4.217   6.178 -0.8505  1.5065  0.4616
19172TIP3   OH279006   2.919   0.159   3.082  0.0058 -0.0170  0.2675
19172TIP3    H179007   2.864   0.208   3.142  0.6450  0.4819  0.4541
19172TIP3    H279008   3.007   0.195   3.094  0.1332  0.1743 -1.0273
19173TIP3   OH279009   0.571   0.384  15.823  0.0339 -0.4634  0.2442
19173TIP3    H179010   0.616   0.308  15.787  0.6965  0.3565 -0.7501
19173TIP3    H279011   0.478   0.367  15.809  0.1933 -0.9908 -0.1638
19174TIP3   OH279012   5.471   2.397  13.897 -0.1751  0.5588 -0.2333
19174TIP3    H179013   5.458   2.480  13.852 -0.9120  0.8199  0.4360
19174TIP3    H279014   5.503   2.422  13.984  2.6891  0.0164 -1.0274
19175TIP3   OH279015   6.115   4.422   2.139 -0.3617 -0.3433  0.3195
19175TIP3    H179016   6.116   4.516   2.120 -2.6047 -0.4870 -0.8273
19175TIP3    H279017   6.156   4.382   2.063  1.0078 -0.3052  1.0098
19176TIP3   OH279018   4.793   0.118  11.511 -0.0210 -0.2904 -0.0063
19176TIP3    H179019   4.756   0.202  11.538 -1.1696 -0.6567 -0.3822
19176TIP3    H279020   4.842   0.137  11.432  2.0629  0.5094  1.4056
19177TIP3   OH279021   1.172   2.242   4.855 -0.1838  0.4280  0.1589
19177TIP3    H179022   1.157   2.163   4.803 -1.1541 -0.1654  1.2937
19177TIP3    H279023   1.262   2.234   4.886 -0.5035 -0.6139  0.8620
19178TIP3   OH279024   1.303   3.451   5.210  0.0845  0.0394 -0.0673
19178TIP3    H179025   1.398   3.437   5.219 -0.0068  0.6100  2.5199
19178TIP3    H279026   1.287   3.442   5.116  2.4303 -1.6427 -0.4078
19179TIP3   OH279027   1.454   2.109  11.891 -0.2144 -0.2429  0.5529
19179TIP3    H179028   1.529   2.051  11.903  0.8406  0.9208 -0.0647
19179TIP3    H279029   1.493   2.195  11.877 -1.7155  0.5851  1.2245
19180TIP3   OH279030   5.273   1.290  15.823 -0.1223  0.1413  0.3438
19180TIP3    H179031   5.331   1.251  15.757 -0.0636  0.1843  0.3696
19180TIP3    H279032   5.307   1.257  15.906 -0.9301 -0.8869  0.2841
19181TIP3   OH279033   3.574   2.144   1.658 -0.7385 -0.5614 -0.1008
19181TIP3    H179034   3.536   2.220   1.702 -1.7300  0.1492 -2.0649
19181TIP3    H279035   3.504   2.113   1.600  0.3383 -1.7365 -0.8113
19182TIP3   OH279036   2.776   1.841  16.063  0.4301  0.9116  0.4337
19182TIP3    H179037   2.851   1.802  16.107  0.3455 -0.7021 -0.7911
19182TIP3    H279038   2.718   1.768  16.044 -0.4086  1.8227 -0.6660
19183TIP3   OH279039   2.196   6.597   4.357  0.0847 -0.3380  0.0967
19183TIP3    H179040   2.283   6.557   4.346  0.3102 -0.2257  1.3369
19183TIP3    H279041   2.197   6.634   4.445 -0.6487  1.1443 -0.4859
19184TIP3   OH279042   1.462   3.724  12.186 -0.1444  0.4926 -0.1900
19184TIP3    H179043   1.557   3.721  12.181 -0.0488 -2.4832  1.2149
19184TIP3    H279044   1.443   3.758  12.274 -0.3759  0.6382 -0.2946
19185TIP3   OH279045   0.449   0.020  13.252  0.0334 -0.7532 -0.0900
19185TIP3    H179046   0.485  -0.007  13.337  0.1475 -1.8210 -0.4593
19185TIP3    H279047   0.478   0.111  13.241  0.9272 -0.9512  0.5357
19186TIP3   OH279048   6.673   4.209   4.369  0.0390 -0.4771  0.3289
19186TIP3    H179049   6.707   4.216   4.458  0.6306 -2.5192  0.3092
19186TIP3    H279050   6.647   4.298   4.346  0.5026  0.2056  2.2862
19187TIP3   OH279051   4.289   6.256  15.420 -0.7867  0.0907 -0.1653
19187TIP3    H179052   4.273   6.242  15.513 -2.4644  0.6779 -0.3329
19187TIP3    H279053   4.212   6.305  15.390  0.7936  1.9731 -1.3717
19188TIP3   OH279054   6.167   4.386   5.380  0.1001  0.1454 -0.0281
19188TIP3    H179055   6.258   4.364   5.402  0.0729 -0.6237 -0.6547
19188TIP3    H279056   6.138   4.442   5.452  0.4462 -1.2110  1.2013
19189TIP3   OH279057   6.781   1.699  12.702  0.0930  0.5953  0.1464
19189TIP3    H179058   6.704   1.657  12.740  0.3897  0.7293  0.9048
19189TIP3    H279059   6.855   1.662  12.750  0.3184  2.6112  1.4736
19190TIP3   OH279060   1.714   6.639  12.455  0.1206 -0.4756 -0.2819
19190TIP3    H179061   1.628   6.630  12.414  0.5357 -2.2147 -0.8763
19190TIP3    H279062   1.695   6.649  12.549 -0.7560  0.7569 -0.5749
19191TIP3   OH279063   6.428   5.191   5.928  0.0010  0.1119 -0.7289
19191TIP3    H179064   6.337   5.220   5.931  0.0129  0.2603 -1.5888
19191TIP3    H279065   6.455   5.188   6.020 -0.5901  0.9472 -0.5205
19192TIP3   OH279066   1.828   1.326  12.180  0.3657  0.6950  0.3391
19192TIP3    H179067   1.820   1.401  12.238  2.7793  1.4354 -0.1791
19192TIP3    H279068   1.797   1.252  12.233 -2.0452  1.9777  0.8553
19193TIP3   OH279069   2.352   6.545  12.866  0.0945  0.0399 -0.4498
19193TIP3    H179070   2.416   6.554  12.795 -1.6977 -1.3770 -2.3997
19193TIP3    H279071   2.344   6.451  12.880  1.1889  0.2950  2.5316
19194TIP3   OH279072   3.749   2.358  15.372  0.1212 -0.1992  0.0144
19194TIP3    H179073   3.763   2.297  15.444  0.0501  0.4974  0.6388
19194TIP3    H279074   3.747   2.304  15.294  2.1979 -0.8024  0.3007
19195TIP3   OH279075   0.067   0.576   3.143 -0.1283  0.0108 -0.0502
19195TIP3    H179076   0.149   0.601   3.101  0.0590  1.8231  1.2855
19195TIP3    H279077   0.090   0.498   3.194  0.5621  0.0341 -0.3052
19196TIP3   OH279078   2.690   5.155   2.188  0.1270 -0.0554 -0.6765
19196TIP3    H179079   2.746   5.160   2.111  0.8732 -0.6542 -0.1965
19196TIP3    H279080   2.746   5.115   2.255  0.1327  2.1402  0.7406
19197TIP3   OH279081   6.551   1.066   4.365  0.1342  0.7189  0.5857
19197TIP3    H179082   6.577   1.017   4.443  1.0641 -0.4058 -0.3866
19197TIP3    H279083   6.501   1.139   4.399  1.3903  0.8546  2.3234
19198TIP3   OH279084   3.794   6.829   0.293 -0.6686  0.5370 -0.4175
19198TIP3    H179085   3.710   6.872   0.277 -0.6415  0.5565 -0.5023
19198TIP3    H279086   3.770   6.737   0.308 -0.6796  0.4921 -0.7017
19199TIP3   OH279087   1.521   1.985  10.775 -0.6110 -0.6929  0.1184
19199TIP3    H179088   1.447   2.014  10.722  0.1405 -0.3773 -0.7878
19199TIP3    H279089   1.597   1.999  10.719  0.4704  1.6020  1.9984
19200TIP3   OH279090   4.116   4.442  14.178  0.0581 -0.1815 -0.1886
19200TIP3    H179091   4.151   4.504  14.115  1.9438  0.5452  1.4807
19200TIP3    H279092   4.185   4.377  14.189 -0.4455 -0.5829  0.7338
19201TIP3   OH279093   2.002   3.802   0.429  0.2717 -0.7543  0.1195
19201TIP3    H179094   1.941   3.743   0.384 -0.2260  0.0495 -0.2875
19201TIP3    H279095   2.072   3.818   0.366  0.5768 -1.1647  0.3506
19202TIP3   OH279096   5.727   1.235  14.983  0.8783  0.1606  0.2314
19202TIP3    H179097   5.642   1.237  15.027  1.6599 -0.3789  1.8452
19202TIP3    H279098   5.706   1.225  14.891 -0.8237  0.8429  0.5024
19203TIP3   OH279099   6.565   3.028  11.777 -0.2648 -0.0748 -0.6000
19203TIP3    H179100   6.473   3.028  11.804 -0.3902 -0.1589 -1.0149
19203TIP3    H279101   6.583   2.936  11.756  0.3602 -0.3273  0.9525
19204TIP3   OH279102   0.076   2.282   3.785 -0.5301 -0.0665  0.1377
19204TIP3    H179103   0.027   2.339   3.725 -0.5120 -1.0821 -0.8927
19204TIP3    H279104   0.168   2.302   3.768 -0.5398  0.0142  0.1850
19205TIP3   OH279105   0.374   5.713  16.086  0.3354  0.3491  0.4187
19205TIP3    H179106   0.456   5.676  16.053  1.2338  1.7040  1.0453
19205TIP3    H279107   0.340   5.646  16.145  0.7590 -0.4117 -0.1690
19206TIP3   OH279108   2.335   0.285   1.299  0.2810  0.0666 -0.2617
19206TIP3    H179109   2.388   0.337   1.359 -1.0174  1.8146 -0.5628
19206TIP3    H279110   2.363   0.313   1.212  0.5890 -0.8489 -0.4777
19207TIP3   OH279111   3.713   2.760   6.409 -0.7678 -0.4618 -0.7015
19207TIP3    H179112   3.651   2.813   6.359  0.3830 -0.8363 -2.6245
19207TIP3    H279113   3.718   2.678   6.360 -1.7063 -2.0077  1.6338
19208TIP3   OH279114   0.960   0.464   4.708  0.5996  0.1488  0.4022
19208TIP3    H179115   0.975   0.509   4.625 -0.0681 -1.0439 -0.4084
19208TIP3    H279116   0.997   0.376   4.695  0.9703  0.1225  1.5613
19209TIP3   OH279117   0.485   3.638   3.946  0.2659  0.3146  0.1103
19209TIP3    H179118   0.537   3.569   3.988  0.3749  0.3731  0.0744
19209TIP3    H279119   0.408   3.593   3.911 -1.2131  0.6410  2.6878
19210TIP3   OH279120   3.544   6.252  15.194  0.1114  0.0834  0.2126
19210TIP3    H179121   3.622   6.200  15.175  1.0255  1.0596  1.1072
19210TIP3    H279122   3.479   6.224  15.130  1.1999 -0.7581 -0.5504
19211TIP3   OH279123   2.426   6.516   0.942 -0.0049 -0.0828  0.2389
19211TIP3    H179124   2.454   6.600   0.978 -1.3897  0.8221 -0.6704
19211TIP3    H279125   2.440   6.526   0.847 -0.7131 -0.6652  0.0723
19212TIP3   OH279126   5.158   1.919  12.133 -0.1953  0.5236 -0.3237
19212TIP3    H179127   5.188   1.842  12.181 -1.8991 -1.2150 -1.9279
19212TIP3    H279128   5.075   1.943  12.175  0.3780  1.5963  0.2410
19213TIP3   OH279129   0.039   5.067  15.927 -0.3565 -0.5578  0.4370
19213TIP3    H179130   0.076   5.153  15.946 -1.3053 -0.3756  1.5118
19213TIP3    H279131  -0.050   5.085  15.897  0.4305 -0.9627 -2.4711
19214TIP3   OH279132   3.104   2.903   1.689 -0.1724  0.2111 -0.7127
19214TIP3    H179133   3.074   2.831   1.744  2.0675  0.0303  0.3924
19214TIP3    H279134   3.105   2.867   1.601 -0.8266 -0.5212 -0.4316
19215TIP3   OH279135   5.608   2.307  13.146  0.1717  0.4421 -0.1918
19215TIP3    H179136   5.608   2.397  13.179  0.0817 -0.1359  1.4568
19215TIP3    H279137   5.529   2.302  13.092 -0.3557  1.0725  0.4983
19216TIP3   OH279138   2.231   6.578   1.472 -0.2703  0.1011 -0.1039
19216TIP3    H179139   2.206   6.639   1.403 -0.8183 -1.2164 -1.1251
19216TIP3    H279140   2.286   6.629   1.531 -2.9611  2.3680  0.6377
19217TIP3   OH279141   0.662   5.650  14.002  0.1180  1.2713 -0.0402
19217TIP3    H179142   0.639   5.647  14.095 -3.6097  3.8833 -0.6299
19217TIP3    H279143   0.616   5.576  13.964 -1.0291  2.0024 -0.1417
19218TIP3   OH279144   4.409   2.153  16.000  0.0904 -0.1028 -0.2880
19218TIP3    H179145   4.412   2.107  16.084 -0.0789  1.1778  0.4479
19218TIP3    H279146   4.428   2.245  16.022  1.1146  0.0900 -1.7911
19219TIP3   OH279147   4.616   0.352  13.790  0.5358  0.3437 -0.1822
19219TIP3    H179148   4.675   0.305  13.731 -0.4661 -0.4270 -0.5832
19219TIP3    H279149   4.672   0.419  13.831  1.4287  0.3692 -1.3949
19220TIP3   OH279150   5.735   5.900   5.006 -0.4070 -0.3273 -0.3829
19220TIP3    H179151   5.646   5.906   4.972 -0.0400  0.0244 -1.3313
19220TIP3    H279152   5.767   5.990   5.006  0.1254 -0.5115 -0.5457
19221TIP3   OH279153   0.281   3.663   4.557 -0.2051 -0.3987  0.6383
19221TIP3    H179154   0.302   3.721   4.631 -2.1342  2.4442 -0.8468
19221TIP3    H279155   0.330   3.700   4.484 -1.3091 -0.7551 -0.3102
19222TIP3   OH279156   3.187   1.730   0.197  0.6893 -0.3411 -0.5748
19222TIP3    H179157   3.207   1.824   0.197  1.7308 -0.5308 -1.7152
19222TIP3    H279158   3.117   1.721   0.132  0.4654 -0.3283 -0.3343
19223TIP3   OH279159   3.971   2.606  13.251 -0.4537  0.2152 -0.1764
19223TIP3    H179160   3.917   2.617  13.329 -1.1429 -1.4334 -0.3662
19223TIP3    H279161   3.945   2.678  13.193 -0.4000  1.0738  0.8387
19224TIP3   OH279162   1.259   5.669   0.883  0.3726  0.0377  0.1791
19224TIP3    H179163   1.200   5.636   0.951 -0.1271  0.5727  0.0198
19224TIP3    H279164   1.310   5.738   0.926  0.4188  0.0212  0.1509
19225TIP3   OH279165   5.185   5.866  13.612  0.6788  0.6510 -0.3547
19225TIP3    H179166   5.143   5.832  13.691 -0.4651  0.3987 -1.0520
19225TIP3    H279167   5.211   5.955  13.636 -1.5929  1.3636 -0.3186
19226TIP3   OH279168   4.358   5.879   1.649  0.5952 -0.4424 -0.1122
19226TIP3    H179169   4.405   5.837   1.722 -0.9376 -0.5478  0.8504
19226TIP3    H279170   4.280   5.825   1.637 -0.5237  1.1041 -0.0379
19227TIP3   OH279171   2.196   2.068  12.515  0.4059  0.0620 -0.1668
19227TIP3    H179172   2.209   1.990  12.568 -0.0624 -0.6142 -1.0187
19227TIP3    H279173   2.177   2.137  12.578  1.4214 -0.3665  0.6396
19228TIP3   OH279174   1.054   1.548   0.894 -0.1987 -0.7197  0.3319
19228TIP3    H179175   1.042   1.456   0.872 -2.7165 -1.5027  4.0443
19228TIP3    H279176   0.984   1.594   0.846  0.6395 -0.8045 -0.9954
19229TIP3   OH279177   4.067   5.396  12.388  0.8011 -0.0598 -0.5361
19229TIP3    H179178   4.106   5.334  12.327  0.6290 -0.6876 -0.0205
19229TIP3    H279179   4.035   5.342  12.460 -1.7107  0.3017 -1.2725
19230TIP3   OH279180   3.229   3.200   3.260  0.3555  0.0516  1.0213
19230TIP3    H179181   3.155   3.139   3.264  2.4739 -2.7822  0.0906
19230TIP3    H279182   3.302   3.151   3.296  2.2618  2.0188  0.0531
19231TIP3   OH279183   4.878   0.215   1.685  0.4968 -0.4299 -0.8294
19231TIP3    H179184   4.952   0.265   1.721 -0.3485 -0.2583  0.7832
19231TIP3    H279185   4.863   0.254   1.599  0.4877  1.4875 -0.0167
19232TIP3   OH279186   4.686   5.191  11.753  0.5200 -0.4988  0.5205
19232TIP3    H179187   4.770   5.155  11.781  0.6536  0.3398  1.2566
19232TIP3    H279188   4.650   5.231  11.832 -0.2214 -0.1921  0.0342
19233TIP3   OH279189   2.912   5.168  12.439 -0.3333 -0.8981 -0.4835
19233TIP3    H179190   2.924   5.203  12.350 -1.8485  0.1013 -0.3416
19233TIP3    H279191   2.959   5.085  12.439 -0.6485 -1.1213 -2.3702
19234TIP3   OH279192   2.675   0.778   5.847 -0.4287 -0.2575  0.5512
19234TIP3    H179193   2.706   0.867   5.831 -0.4777  0.0990  2.1941
19234TIP3    H279194   2.604   0.788   5.910 -0.3208 -1.4677  0.9021
19235TIP3   OH279195   5.930   2.962   6.213 -0.3558 -0.1293 -0.9876
19235TIP3    H179196   6.014   2.967   6.168 -1.3266  3.2599 -2.7375
19235TIP3    H279197   5.921   3.046   6.258 -0.9789 -2.0544  3.0275
19236TIP3   OH279198   3.038   2.523   1.271 -0.0934  0.3285 -0.0757
19236TIP3    H179199   3.085   2.575   1.206  0.5487  0.4263  0.4560
19236TIP3    H279200   3.066   2.433   1.256 -0.3172  0.2873 -0.2478
19237TIP3   OH279201   0.666   4.002  14.718  0.2645  0.0022 -0.8649
19237TIP3    H179202   0.704   4.054  14.788 -0.1426  0.6312 -1.1089
19237TIP3    H279203   0.742   3.971  14.668  0.5499 -0.3758 -0.2149
19238TIP3   OH279204   6.439   0.106  11.261  0.4277 -0.2952  0.2224
19238TIP3    H179205   6.347   0.084  11.279  0.4691 -0.9488 -0.3074
19238TIP3    H279206   6.439   0.200  11.246 -0.0375 -0.1735  0.9381
19239TIP3   OH279207   5.039   0.555   3.910  0.0244  0.0120  0.2925
19239TIP3    H179208   5.035   0.570   3.816  2.1301  1.0852  0.3121
19239TIP3    H279209   4.957   0.591   3.944 -0.8106 -0.4986 -1.1107
19240TIP3   OH279210   4.424   1.377   6.193 -0.2817  0.3373 -0.0398
19240TIP3    H179211   4.413   1.472   6.199  1.0676  0.5947 -1.0548
19240TIP3    H279212   4.345   1.346   6.150 -0.7218  1.0024  0.2681
19241TIP3   OH279213   1.400   6.735  15.981  0.6917 -0.0237  0.4421
19241TIP3    H179214   1.369   6.661  15.929 -0.2197  1.8011 -1.7928
19241TIP3    H279215   1.490   6.750  15.951  0.7798 -0.0694  0.6866
19242TIP3   OH279216   4.169   1.229  14.844 -0.9071 -0.4743 -0.4181
19242TIP3    H179217   4.155   1.154  14.902 -0.3160 -0.4244 -0.2064
19242TIP3    H279218   4.112   1.298  14.878  0.9699  0.2697  1.4161
19243TIP3   OH279219   0.833   3.466   4.718  0.0547  0.6247 -0.4606
19243TIP3    H179220   0.804   3.379   4.745  0.2888  1.1501  1.6900
19243TIP3    H279221   0.760   3.500   4.666  0.3663 -1.1801 -2.1804
19244TIP3   OH279222   2.523   0.967  15.180 -0.5512 -0.0375 -0.3377
19244TIP3    H179223   2.499   1.016  15.101 -0.0352  0.8009  0.0155
19244TIP3    H279224   2.578   1.027  15.230  0.5812 -1.1768 -0.1567
19245TIP3   OH279225   0.226   4.101  16.335 -0.5392 -0.2425 -0.3527
19245TIP3    H179226   0.164   4.028  16.346 -0.9719  0.3721  1.7135
19245TIP3    H279227   0.207   4.159  16.408  1.1349  0.9891 -0.8512
19246TIP3   OH279228   1.508   0.396   2.024  0.1120 -0.1841  0.1852
19246TIP3    H179229   1.598   0.393   2.056  0.1421 -1.8503  0.0115
19246TIP3    H279230   1.485   0.489   2.028  1.4515  0.1402  1.2812
19247TIP3   OH279231   1.124   0.462  13.807  0.2216  0.4408  0.0253
19247TIP3    H179232   1.138   0.369  13.826 -0.8533  0.6098  1.8578
19247TIP3    H279233   1.200   0.506  13.845 -0.8535  0.5725  2.1255
19248TIP3   OH279234   1.505   1.748  12.404 -1.0999 -0.3769  0.0246
19248TIP3    H179235   1.496   1.680  12.337 -1.7545  1.8508 -2.3328
19248TIP3    H279236   1.544   1.822  12.358 -1.9594  1.4202  2.0050
19249TIP3   OH279237   5.914   0.473   1.111 -0.2431  0.0633  0.0962
19249TIP3    H179238   5.833   0.485   1.061  0.2250  1.7538 -0.3173
19249TIP3    H279239   5.885   0.439   1.196 -1.2887 -0.2784 -0.3783
19250TIP3   OH279240   2.059   5.987   5.174  0.0687  0.1748  0.4145
19250TIP3    H179241   1.978   6.013   5.129  0.3130  0.1657 -0.0328
19250TIP3    H279242   2.055   6.031   5.258 -0.9150 -0.6600  0.8298
19251TIP3   OH279243   6.208   3.487   0.791  0.4603 -0.4262  0.1016
19251TIP3    H179244   6.216   3.392   0.782  0.1916 -0.4276 -0.1550
19251TIP3    H279245   6.294   3.520   0.764 -0.1927 -0.4626 -2.2646
19252TIP3   OH279246   3.141   4.781  16.818 -0.2390  0.1217  0.3177
19252TIP3    H179247   3.049   4.770  16.844 -0.2283  0.3668  0.4592
19252TIP3    H279248   3.140   4.854  16.756  0.2141  1.9257  2.3384
19253TIP3   OH279249   3.920   6.728  12.588  0.2858 -0.0505 -0.0284
19253TIP3    H179250   3.854   6.781  12.542 -0.7486  0.2298  1.7056
19253TIP3    H279251   3.914   6.642  12.546 -0.1680  0.3565 -0.8399
19254TIP3   OH279252   0.218   6.070   0.383 -0.8784 -0.4419  0.1105
19254TIP3    H179253   0.311   6.085   0.401 -0.8511 -1.3217  0.7478
19254TIP3    H279254   0.207   6.099   0.292 -0.1028  0.1486  0.1900
19255TIP3   OH279255   0.614   6.220  17.072  0.1095 -0.5736  0.2506
19255TIP3    H179256   0.596   6.313  17.059  1.2437  0.0785  2.7109
19255TIP3    H279257   0.543   6.188  17.128  1.1439 -0.4457  1.7009
19256TIP3   OH279258   3.091   2.984  17.165 -0.0091  0.8952  0.4214
19256TIP3    H179259   3.170   2.942  17.131 -0.7867  1.6100 -2.5865
19256TIP3    H279260   3.019   2.927  17.135 -0.7254  0.6398  2.4824
19257TIP3   OH279261   6.392   5.128   2.999  0.1040 -0.2436 -0.0908
19257TIP3    H179262   6.472   5.075   3.000 -0.0166 -0.4316 -0.3796
19257TIP3    H279263   6.417   5.209   3.044  1.1056  0.6479 -2.1393
19258TIP3   OH279264   0.766   2.167  12.304  0.6491 -0.3037 -0.2347
19258TIP3    H179265   0.769   2.108  12.229  0.4935  1.0709 -1.3737
19258TIP3    H279266   0.729   2.248  12.269  1.3483  0.6554  1.1423
19259TIP3   OH279267   1.939   5.204   6.275  0.1734  0.3166  0.2060
19259TIP3    H179268   2.024   5.245   6.263  0.2783 -0.0446 -0.3116
19259TIP3    H279269   1.897   5.255   6.344  1.0294  0.1377  0.8639
19260TIP3   OH279270   4.583   4.140   5.804  0.2412  1.1869 -0.8269
19260TIP3    H179271   4.566   4.215   5.862  0.6489 -0.1264  1.1025
19260TIP3    H279272   4.571   4.174   5.716 -1.0165  3.1446  0.0412
19261TIP3   OH279273   4.568   3.140   0.714  0.0544  0.4933 -0.2641
19261TIP3    H179274   4.661   3.137   0.736  0.1252  0.8645 -0.5064
19261TIP3    H279275   4.554   3.229   0.682 -0.1248  0.0944 -1.3557
19262TIP3   OH279276   5.594   5.506  13.469  0.1890 -0.4405 -0.3603
19262TIP3    H179277   5.560   5.574  13.527 -2.4919 -0.8195 -1.3857
19262TIP3    H279278   5.572   5.424  13.513  0.0423 -0.7012 -0.9162
19263TIP3   OH279279   6.500   0.760  13.446 -0.2380 -0.0124 -0.4537
19263TIP3    H179280   6.579   0.785  13.399 -0.9417  0.3146 -1.5037
19263TIP3    H279281   6.470   0.680  13.401 -0.8845  0.2694 -0.5363
19264TIP3   OH279282   2.390   6.287   1.776  0.0599  0.6385 -0.0783
19264TIP3    H179283   2.412   6.221   1.842 -0.8578 -1.2610 -1.5337
19264TIP3    H279284   2.470   6.295   1.723 -0.0119  0.1720 -0.2702
19265TIP3   OH279285   3.151   0.406   1.669 -0.3797  0.6504 -0.1179
19265TIP3    H179286   3.140   0.465   1.594 -2.0369  0.6042  0.0516
19265TIP3    H279287   3.148   0.464   1.745 -0.3663  0.5205 -0.0197
19266TIP3   OH279288   3.026   6.308  14.476  0.5314 -0.1978 -0.0658
19266TIP3    H179289   2.986   6.223  14.462  0.9477  0.1013 -4.6416
19266TIP3    H279290   2.953   6.366  14.496  0.0204 -1.2309  1.2128
19267TIP3   OH279291   2.750   0.055   3.672  0.1635 -0.0022 -0.3735
19267TIP3    H179292   2.835   0.022   3.644 -0.9066 -0.8277 -2.9163
19267TIP3    H279293   2.713  -0.017   3.724  0.3448 -0.2942 -0.6461
19268TIP3   OH279294   0.474   0.032  14.509 -0.0274 -0.0379  0.0947
19268TIP3    H179295   0.523   0.058  14.587  0.3966 -1.0429  0.1697
19268TIP3    H279296   0.434  -0.051  14.533 -0.0718 -0.2447 -0.6896
19269TIP3   OH279297   2.428   4.091  11.838 -0.0017 -0.6143 -0.1625
19269TIP3    H179298   2.442   4.022  11.773 -2.0700 -0.8530 -0.4322
19269TIP3    H279299   2.361   4.056  11.896 -0.5153  0.8437  0.1796
19270TIP3   OH279300   4.147   4.356  15.820 -0.2599  0.7528  0.1120
19270TIP3    H179301   4.074   4.326  15.766  1.1782 -1.3092 -0.8376
19270TIP3    H279302   4.214   4.383  15.757  1.0085 -0.5538  0.8310
19271TIP3   OH279303   2.087   0.523   5.349  0.0103 -0.5031 -0.0117
19271TIP3    H179304   2.040   0.441   5.358 -0.2860 -0.3028  0.3141
19271TIP3    H279305   2.123   0.541   5.436 -0.8208  0.2346  0.1976
19272TIP3   OH279306   2.535   3.466   5.030  0.8633 -0.7663  0.2173
19272TIP3    H179307   2.449   3.504   5.013  0.7125 -1.1896  0.0053
19272TIP3    H279308   2.559   3.499   5.116  1.4019  0.9970 -0.5718
19273TIP3   OH279309   2.354   4.980  16.422  0.0948 -0.3249  0.5142
19273TIP3    H179310   2.266   4.977  16.384  0.8924 -0.4391 -1.4353
19273TIP3    H279311   2.398   4.903  16.387  1.1542  0.0316  1.0212
19274TIP3   OH279312   1.614   0.452  11.541  0.3402  0.0413 -0.9580
19274TIP3    H179313   1.534   0.504  11.535  0.1251 -0.3068 -1.2216
19274TIP3    H279314   1.674   0.505  11.593 -1.0072 -0.8924  1.7273
19275TIP3   OH279315   2.440   5.238  16.410  0.0346 -0.8809 -0.0934
19275TIP3    H179316   2.432   5.144  16.391  0.3409 -0.7475 -0.9285
19275TIP3    H279317   2.422   5.281  16.326 -2.4337 -0.0628  0.7582
19276TIP3   OH279318   2.586   2.954   6.363  0.0210 -0.5422  0.2986
19276TIP3    H179319   2.638   2.894   6.416  0.2868 -1.1587 -0.6299
19276TIP3    H279320   2.567   3.028   6.421  0.4727 -1.1022  1.1737
19277TIP3   OH279321   0.151   2.337   0.059  0.6488 -0.1965 -0.0376
19277TIP3    H179322   0.210   2.393   0.009  1.3395 -0.7926  0.0909
19277TIP3    H279323   0.200   2.316   0.139 -0.8194  1.5702  1.3971
19278TIP3   OH279324   0.888   3.471  15.068 -0.2760 -0.2436 -0.6350
19278TIP3    H179325   0.822   3.540  15.076 -1.4086 -1.1574 -1.6140
19278TIP3    H279326   0.962   3.514  15.025 -0.7248  0.5047 -0.6889
19279TIP3   OH279327   2.218   5.372   3.350 -0.0526  0.3545  0.1317
19279TIP3    H179328   2.309   5.400   3.356 -0.1137  0.4135  0.8715
19279TIP3    H279329   2.171   5.425   3.415 -0.7852  0.9650 -0.8562
19280TIP3   OH279330   2.392   0.680  12.066 -0.6101  0.2001 -0.2248
19280TIP3    H179331   2.300   0.660  12.086 -0.6828  0.3044 -0.4542
19280TIP3    H279332   2.391   0.772  12.040 -0.0620  0.9945  2.2838
19281TIP3   OH279333   5.544   0.027   4.719  0.0687 -0.1681  0.7655
19281TIP3    H179334   5.550  -0.024   4.800  0.6088 -0.2479  0.6741
19281TIP3    H279335   5.627   0.073   4.713  0.6476 -1.3177 -0.5171
19282TIP3   OH279336   0.687   4.006  16.577  0.3676 -0.1331  0.2507
19282TIP3    H179337   0.694   4.069  16.648  0.3237  0.5050 -0.2965
19282TIP3    H279338   0.597   3.972  16.583  0.8697 -1.3394  1.5122
19283TIP3   OH279339   3.217   6.225   5.455 -0.1125 -0.4368 -0.3717
19283TIP3    H179340   3.306   6.189   5.465  0.7884  1.5520 -0.7894
19283TIP3    H279341   3.169   6.192   5.531  1.9383  1.0667  1.7139
19284TIP3   OH279342   5.688   1.199   0.059 -0.2158  0.2631 -0.4977
19284TIP3    H179343   5.668   1.244   0.141  1.7748  1.8711 -0.8314
19284TIP3    H279344   5.772   1.156   0.074  0.2593  0.7202 -1.7335
19285TIP3   OH279345   5.627   3.611   1.081  0.2038 -0.4808  0.2675
19285TIP3    H179346   5.564   3.598   1.151 -0.6603  1.2757 -0.1108
19285TIP3    H279347   5.585   3.675   1.023  0.6080 -2.2927 -2.1960
19286TIP3   OH279348   5.733   2.745   0.931 -0.0601 -0.1283  0.2267
19286TIP3    H179349   5.767   2.758   0.843  0.7835  0.0907  0.5729
19286TIP3    H279350   5.793   2.683   0.971 -0.3936 -0.1701  0.6707
19287TIP3   OH279351   4.255   1.480  10.907 -0.5983  0.4236  0.1042
19287TIP3    H179352   4.347   1.456  10.903 -0.4087  1.2653 -0.6370
19287TIP3    H279353   4.243   1.546  10.839 -2.1211 -0.9019 -0.9937
19288TIP3   OH279354   1.171   6.195  15.013  0.2116 -0.7256 -0.9191
19288TIP3    H179355   1.221   6.234  15.084  1.9666 -1.7565 -1.5118
19288TIP3    H279356   1.128   6.269  14.970 -0.9965 -0.0962  1.2322
19289TIP3   OH279357   4.015   2.036   2.372 -0.6261 -0.4949  0.1509
19289TIP3    H179358   4.084   1.978   2.341  0.3365  0.0396  1.2207
19289TIP3    H279359   3.963   1.983   2.432 -0.2950 -0.5092  0.4264
19290TIP3   OH279360   3.043   4.420   5.935  0.1166 -0.1320  0.1263
19290TIP3    H179361   3.049   4.410   6.030  1.8747  0.0761  0.0750
19290TIP3    H279362   2.988   4.347   5.907 -1.3500  0.4385  1.3832
19291TIP3   OH279363   1.818   2.150   0.278  0.0955 -0.2820  0.7432
19291TIP3    H179364   1.772   2.103   0.348 -0.4154  0.8257  1.1686
19291TIP3    H279365   1.799   2.242   0.294 -0.0834 -0.0108 -0.9116
19292TIP3   OH279366   5.149   1.110   4.253  0.0028 -0.2241 -0.4890
19292TIP3    H179367   5.238   1.109   4.287  1.3771 -0.4535 -3.7462
19292TIP3    H279368   5.140   1.195   4.210 -1.4246 -0.1555 -0.1087
19293TIP3   OH279369   6.447   1.655  12.446 -0.3517  0.0893 -0.0147
19293TIP3    H179370   6.506   1.730  12.441  0.3904 -0.4601  0.2993
19293TIP3    H279371   6.361   1.693  12.465  0.0518  0.8400  0.3490
19294TIP3   OH279372   1.729   0.343   3.897 -0.3869 -0.2416 -0.4169
19294TIP3    H179373   1.816   0.373   3.924 -0.2593 -0.6251 -0.3899
19294TIP3    H279374   1.696   0.294   3.972  0.5726 -2.5725 -1.4142
19295TIP3   OH279375   4.139   4.986  14.136 -0.0799 -0.2476 -0.3337
19295TIP3    H179376   4.162   4.994  14.228 -0.8722 -2.3512  0.1134
19295TIP3    H279377   4.206   4.929  14.099 -0.1421  0.0437 -0.9112
19296TIP3   OH279378   6.696   4.816  12.078  0.1900  0.1998  0.7826
19296TIP3    H179379   6.774   4.855  12.038 -0.1684  0.3123  0.1668
19296TIP3    H279380   6.628   4.825  12.011  0.1215 -1.5922  0.5590
19297TIP3   OH279381   0.018   3.664  14.126  0.3395 -0.1408 -0.3268
19297TIP3    H179382   0.049   3.745  14.167 -0.2681 -1.0420  2.0577
19297TIP3    H279383  -0.073   3.682  14.103 -0.4664 -0.6796  2.0777
19298TIP3   OH279384   1.017   1.849  15.599  0.2622 -0.0856 -0.1175
19298TIP3    H179385   0.982   1.896  15.524  1.6898 -0.9990 -1.3945
19298TIP3    H279386   0.961   1.876  15.672  0.2409  2.6212 -1.0119
19299TIP3   OH279387   4.349   2.423   0.774  0.4080 -0.4243  0.1178
19299TIP3    H179388   4.397   2.340   0.779  1.1079 -0.0019  0.6276
19299TIP3    H279389   4.387   2.477   0.843 -0.4794  0.1043  0.2061
19300TIP3   OH279390   4.068   4.681  15.220  0.2804 -0.3135  0.1424
19300TIP3    H179391   4.099   4.765  15.187 -0.2696 -0.1354  0.0671
19300TIP3    H279392   4.078   4.686  15.315  3.0392 -1.2863  0.0149
19301TIP3   OH279393   6.342   5.311  16.632 -0.0691 -0.2101  0.6297
19301TIP3    H179394   6.418   5.331  16.578  0.8324 -1.4635  1.3668
19301TIP3    H279395   6.270   5.298  16.569  0.9979 -1.8482 -0.3319
19302TIP3   OH279396   1.344   5.485   0.071 -0.1618  0.4593  0.7216
19302TIP3    H179397   1.400   5.446   0.005 -2.4031  0.1857 -1.1623
19302TIP3    H279398   1.312   5.411   0.122 -1.5532  0.1540 -0.5220
19303TIP3   OH279399   3.766   1.797   3.166 -0.1329 -0.5810 -0.1071
19303TIP3    H179400   3.852   1.760   3.146  0.0854 -0.3995  0.4922
19303TIP3    H279401   3.727   1.736   3.228 -0.0034 -0.1088  0.4430
19304TIP3   OH279402   5.086   2.681  15.743 -0.1857 -1.0771 -0.1100
19304TIP3    H179403   5.008   2.651  15.696 -0.6600 -1.3183  0.8197
19304TIP3    H279404   5.125   2.600  15.778 -0.9705 -0.7411  1.6423
19305TIP3   OH279405   6.077   1.009  14.638 -0.3633  0.2539  0.0975
19305TIP3    H179406   6.056   1.100  14.658  1.0906  0.2495  1.7934
19305TIP3    H279407   6.093   0.968  14.723 -1.4282 -1.7313 -0.5897
19306TIP3   OH279408   6.018   4.138   1.469 -0.4239  0.2609 -0.2874
19306TIP3    H179409   6.012   4.044   1.486  0.2853  0.2932  0.1593
19306TIP3    H279410   6.041   4.176   1.554 -0.2239  0.7825 -0.5732
19307TIP3   OH279411   0.629   1.430   0.357 -0.0050  0.0695 -1.0808
19307TIP3    H179412   0.558   1.416   0.295 -0.4740  0.2734 -0.6013
19307TIP3    H279413   0.697   1.368   0.330 -1.9060 -3.1555  0.7914
19308TIP3   OH279414   0.100   5.315   3.924 -0.1873 -0.1129  0.0662
19308TIP3    H179415   0.015   5.348   3.895 -0.7930 -1.0169  0.7596
19308TIP3    H279416   0.103   5.225   3.890  0.7016  0.0671 -0.3578
19309TIP3   OH279417   5.961   6.681  14.748 -0.0466  0.2738  0.2011
19309TIP3    H179418   5.985   6.697  14.657  0.8911 -1.5804  0.0796
19309TIP3    H279419   6.040   6.645  14.788 -1.0575 -0.9487  1.1881
19310TIP3   OH279420   0.615   5.738   2.307  0.3925 -0.2728 -0.7233
19310TIP3    H179421   0.658   5.780   2.382  1.0747 -0.8734 -0.7583
19310TIP3    H279422   0.682   5.737   2.239 -0.8501  2.0878 -2.0719
19311TIP3   OH279423   1.807   6.320  13.644  0.4324  0.5835  0.0617
19311TIP3    H179424   1.720   6.279  13.642  1.1365 -1.3408  2.8542
19311TIP3    H279425   1.866   6.252  13.612  1.1450  1.0372  0.3959
19312TIP3   OH279426   0.609   2.930   5.135  0.3222  0.0565 -0.0027
19312TIP3    H179427   0.641   2.873   5.205  1.4047  1.5528  0.8042
19312TIP3    H279428   0.527   2.966   5.170 -1.0029 -1.8197 -1.0035
19313TIP3   OH279429   4.410   6.081   4.931 -0.2555 -0.3766  0.0459
19313TIP3    H179430   4.394   5.988   4.915 -1.3841  0.2215 -3.1707
19313TIP3    H279431   4.469   6.107   4.861 -0.7234  1.5046  0.3044
19314TIP3   OH279432   2.145   1.324   5.666  0.0504  0.2580  0.1528
19314TIP3    H179433   2.176   1.390   5.604  0.8768  0.2215  0.5087
19314TIP3    H279434   2.116   1.251   5.612 -1.4762  1.1446 -0.2754
19315TIP3   OH279435   6.764   6.360  14.709 -0.7569 -0.3849 -0.6373
19315TIP3    H179436   6.811   6.397  14.634 -1.9048  0.7568 -0.8107
19315TIP3    H279437   6.758   6.266  14.689  1.3997 -0.5953 -0.6035
19316TIP3   OH279438   1.224   2.760  14.697 -0.1745 -0.0368  0.1518
19316TIP3    H179439   1.196   2.697  14.763 -0.5226  0.4145  0.4350
19316TIP3    H279440   1.168   2.835  14.709 -0.9595 -0.3358 -1.3541
19317TIP3   OH279441   0.259   4.339   1.280  0.6477  0.0092  0.7296
19317TIP3    H179442   0.269   4.279   1.206  1.4611  0.1459  0.7169
19317TIP3    H279443   0.229   4.284   1.352 -0.1871 -0.1190  0.2988
19318TIP3   OH279444   1.782   0.878   3.330 -0.4831 -0.5169 -0.0919
19318TIP3    H179445   1.779   0.808   3.266  1.0175 -1.0352  0.3624
19318TIP3    H279446   1.806   0.835   3.413  1.3347  0.5932  0.0141
19319TIP3   OH279447   0.323   1.299  12.335 -0.6245 -0.3123  0.5073
19319TIP3    H179448   0.250   1.335  12.284  1.2881  1.4262 -1.1783
19319TIP3    H279449   0.389   1.369  12.335  0.4946 -1.2528  3.2306
19320TIP3   OH279450   5.709   3.372  12.672 -0.6127 -0.1836  0.4143
19320TIP3    H179451   5.701   3.457  12.630  0.7234 -0.6382 -0.8381
19320TIP3    H279452   5.654   3.313  12.620 -1.0108 -0.2347  0.8808
19321TIP3   OH279453   0.079   4.509   4.690 -0.3008 -0.8569 -0.1798
19321TIP3    H179454   0.152   4.515   4.629 -0.7282 -0.5406 -0.6669
19321TIP3    H279455   0.003   4.540   4.641 -0.4642  0.4173  0.8334
19322TIP3   OH279456   5.396   4.691   3.246  0.3346 -0.2285 -0.5020
19322TIP3    H179457   5.376   4.754   3.315 -0.3261 -2.6506  1.6817
19322TIP3    H279458   5.316   4.640   3.236  1.0044 -1.0919 -1.8321
19323TIP3   OH279459   0.618   3.000   1.746 -0.2106  0.0493  0.2888
19323TIP3    H179460   0.582   3.070   1.800 -2.7625 -1.0976  0.2036
19323TIP3    H279461   0.611   3.033   1.656  0.0265  0.2878  0.3580
19324TIP3   OH279462   2.990   5.339  16.132 -0.3343  0.5004  0.3085
19324TIP3    H179463   3.078   5.335  16.094 -0.6478  0.5207 -0.4412
19324TIP3    H279464   2.970   5.433  16.137 -0.4407  0.4862  0.1666
19325TIP3   OH279465   3.776   3.086   2.568  0.1280  0.0310 -0.5082
19325TIP3    H179466   3.709   3.153   2.574  0.1645  0.0361 -0.0687
19325TIP3    H279467   3.859   3.134   2.570  0.1698 -0.0447  0.4409
19326TIP3   OH279468   0.375   4.442   2.285 -0.4493  0.2723 -0.3424
19326TIP3    H179469   0.315   4.510   2.318 -1.4013 -0.1314 -1.1941
19326TIP3    H279470   0.445   4.491   2.241 -0.4997  0.7319  0.0792
19327TIP3   OH279471   4.314   3.092   1.403 -0.6147  0.1394 -0.2894
19327TIP3    H179472   4.248   3.105   1.334 -1.0803 -1.4304 -0.1639
19327TIP3    H279473   4.263   3.065   1.479  0.0539  0.3254  0.2333
19328TIP3   OH279474   0.677   2.317   1.805  0.1199  0.0037  0.1242
19328TIP3    H179475   0.669   2.408   1.835 -1.4205  0.2909 -1.0477
19328TIP3    H279476   0.762   2.289   1.839  0.8431  2.0085  0.1571
19329TIP3   OH279477   4.307   0.253  14.164 -0.7240  0.0747  0.2730
19329TIP3    H179478   4.351   0.206  14.235 -0.3699  1.5497  1.0697
19329TIP3    H279479   4.215   0.257  14.191 -0.7865 -0.2745  0.1236
19330TIP3   OH279480   4.220   4.935   2.217  0.2738  0.0809 -0.2135
19330TIP3    H179481   4.211   4.965   2.127  0.5912 -0.6457 -0.4960
19330TIP3    H279482   4.308   4.898   2.221  0.0284 -0.4754  0.2182
19331TIP3   OH279483   0.257   1.063   4.628  0.1252  0.4649 -0.1782
19331TIP3    H179484   0.291   1.042   4.714  0.5827  3.8555  0.5978
19331TIP3    H279485   0.310   1.137   4.598 -2.5462  1.9450 -1.6070
19332TIP3   OH279486   3.596   6.332  10.926 -0.4795 -0.2219  0.1330
19332TIP3    H179487   3.641   6.360  10.847 -1.0517 -0.0121 -0.1192
19332TIP3    H279488   3.515   6.384  10.928  0.6146  1.5992  2.1108
19333TIP3   OH279489   3.240   1.546  11.289  0.0065 -0.4977 -0.0752
19333TIP3    H179490   3.206   1.596  11.214  0.4596 -0.0211  0.0361
19333TIP3    H279491   3.266   1.612  11.352 -1.2977 -0.9100  0.9315
19334TIP3   OH279492   3.375   0.734  15.641 -0.4103  0.2276  0.4682
19334TIP3    H179493   3.343   0.695  15.723 -0.2707 -0.1031  0.3688
19334TIP3    H279494   3.362   0.828  15.652 -1.2717  0.1102  0.4878
19335TIP3   OH279495   6.818   1.351  13.111 -0.1091  0.4401 -0.2931
19335TIP3    H179496   6.850   1.261  13.124  0.2217  0.8854  2.5269
19335TIP3    H279497   6.751   1.342  13.044  0.9256 -1.6773 -1.1370
19336TIP3   OH279498   5.767   2.849  16.972 -0.2559  0.3675 -0.4003
19336TIP3    H179499   5.860   2.839  16.956 -0.4159 -1.8341 -0.1552
19336TIP3    H279500   5.727   2.844  16.885 -0.0768  3.2113 -0.7375
19337TIP3   OH279501   5.512   5.699   3.974 -0.4828 -0.2536  0.5077
19337TIP3    H179502   5.581   5.665   3.917 -0.6247 -0.1104  0.2516
19337TIP3    H279503   5.455   5.750   3.916  0.2766  1.2664  1.0542
19338TIP3   OH279504   5.921   2.945   2.651 -0.5403 -0.3783  0.3572
19338TIP3    H179505   5.981   2.881   2.613 -0.5464 -0.6109  0.7332
19338TIP3    H279506   5.838   2.899   2.657 -0.4499 -0.4685  0.9904
19339TIP3   OH279507   0.808   5.062  10.893  0.1939  0.0001  0.5709
19339TIP3    H179508   0.747   5.071  10.819  0.1954 -0.8179  0.4578
19339TIP3    H279509   0.894   5.080  10.856  0.1827 -0.3085  0.3867
19340TIP3   OH279510   2.604   4.255  15.346  0.3019  0.4789  0.4460
19340TIP3    H179511   2.526   4.201  15.338 -0.4289  1.6558 -1.0850
19340TIP3    H279512   2.668   4.199  15.388 -1.3957 -0.4796  1.9004
19341TIP3   OH279513   2.635   3.600  13.869 -0.2038 -0.1515  0.0755
19341TIP3    H179514   2.690   3.677  13.886  0.6954 -0.9590  0.9132
19341TIP3    H279515   2.646   3.584  13.775 -0.1894  0.5808 -0.0562
19342TIP3   OH279516   6.836   5.957  11.700 -0.1911  0.1413  0.0425
19342TIP3    H179517   6.778   5.974  11.774 -0.9481 -0.0992 -0.4913
19342TIP3    H279518   6.853   5.863  11.705  0.3647  0.2532  0.3461
19343TIP3   OH279519   5.036   1.523  13.376  0.4872 -0.6065  0.3060
19343TIP3    H179520   4.990   1.601  13.346  1.2211 -0.1538  0.3347
19343TIP3    H279521   5.039   1.465  13.300  0.2997 -0.4384  0.1707
19344TIP3   OH279522   3.995   5.505   1.770 -0.2518 -0.2539  0.9265
19344TIP3    H179523   4.080   5.470   1.794 -0.7074 -1.2402  1.1428
19344TIP3    H279524   3.987   5.586   1.820  0.7411  0.1012  0.5511
19345TIP3   OH279525   0.335   0.762  15.765 -0.1226 -0.1139 -0.7449
19345TIP3    H179526   0.428   0.761  15.788 -0.3265 -1.6964  0.1228
19345TIP3    H279527   0.300   0.680  15.800 -1.9277  0.5936 -0.7610
19346TIP3   OH279528   2.609   6.105   3.908 -0.3460  0.3466 -0.0634
19346TIP3    H179529   2.687   6.156   3.930 -1.9699  1.9112  2.6428
19346TIP3    H279530   2.613   6.028   3.965 -0.0052 -0.4287 -1.1035
19347TIP3   OH279531   2.546   1.641   1.714  0.3054  0.3817  0.4322
19347TIP3    H179532   2.543   1.732   1.683  0.3545  0.1650 -0.2271
19347TIP3    H279533   2.454   1.617   1.727  0.3432  0.9787  2.0043
19348TIP3   OH279534   1.522   5.384   6.170 -0.2072  0.7429  0.1723
19348TIP3    H179535   1.451   5.368   6.108 -1.4359 -0.6787  1.8634
19348TIP3    H279536   1.495   5.462   6.219  0.4219  1.4337 -0.5450
19349TIP3   OH279537   4.909   5.178   0.592  0.5947  0.1924  0.0935
19349TIP3    H179538   4.876   5.122   0.522  1.4623 -0.6030  0.3007
19349TIP3    H279539   4.905   5.123   0.671  1.4265  0.4151  0.3089
19350TIP3   OH279540   3.360   4.797  12.366 -0.4763 -0.3458 -0.1079
19350TIP3    H179541   3.288   4.741  12.395 -0.3707  0.2102  1.2746
19350TIP3    H279542   3.378   4.767  12.276 -2.9053  0.0119 -0.7832
19351TIP3   OH279543   3.962   3.811   1.338 -0.0220  0.2183  0.2227
19351TIP3    H179544   3.993   3.793   1.249 -1.1026  1.0904 -0.3571
19351TIP3    H279545   3.965   3.726   1.382 -0.5089 -0.4423 -0.9835
19352TIP3   OH279546   6.546   2.595   1.016  0.0735  0.3403 -0.1092
19352TIP3    H179547   6.469   2.633   0.974  0.2312  0.5434 -0.2135
19352TIP3    H279548   6.571   2.522   0.960  0.3033  0.6308 -0.3925
19353TIP3   OH279549   1.476   1.923  13.023 -0.1871  0.2354  0.1983
19353TIP3    H179550   1.545   1.986  13.043  0.5419 -0.6780  0.6069
19353TIP3    H279551   1.511   1.868  12.953 -1.4563  1.2917 -1.3485
19354TIP3   OH279552   5.907   2.272  13.220  0.3901 -0.4608  0.0041
19354TIP3    H179553   5.966   2.207  13.257  0.7366  0.1321  0.5236
19354TIP3    H279554   5.824   2.226  13.209 -0.2137 -0.2769  3.0534
19355TIP3   OH279555   6.835   1.613   1.408 -0.6759  0.6146  0.1373
19355TIP3    H179556   6.917   1.648   1.442 -1.7201  1.6643  1.7497
19355TIP3    H279557   6.843   1.518   1.418  0.7720  0.5994 -0.8413
19356TIP3   OH279558   6.613   2.492  11.898 -0.4368 -0.0458  0.6827
19356TIP3    H179559   6.553   2.501  11.825  0.5501 -0.5719 -0.2223
19356TIP3    H279560   6.647   2.402  11.890 -1.0157 -0.4534  2.3380
19357TIP3   OH279561   4.991   4.609   6.358 -0.2393  0.7889 -0.5362
19357TIP3    H179562   4.965   4.698   6.333 -4.3460 -0.3901 -1.1495
19357TIP3    H279563   4.962   4.554   6.285  0.0527 -1.3185  0.8502
19358TIP3   OH279564   5.385   4.812  14.392 -0.0295  0.1362 -0.3793
19358TIP3    H179565   5.472   4.817  14.431 -0.1132  1.7742 -0.3390
19358TIP3    H279566   5.401   4.802  14.298  0.3022  2.6904 -0.6780
19359TIP3   OH279567   3.866   2.172   1.595 -0.0475  0.2891 -0.5331
19359TIP3    H179568   3.918   2.243   1.556  0.6186 -0.4973 -1.1085
19359TIP3    H279569   3.775   2.204   1.591  0.3105  1.3822 -0.1719
19360TIP3   OH279570   1.863   4.489   2.054  0.2212 -0.7091  0.1509
19360TIP3    H179571   1.866   4.406   2.101  1.7757 -0.5491  0.3621
19360TIP3    H279572   1.835   4.553   2.120 -2.1932 -1.1907 -0.2865
19361TIP3   OH279573   4.628   5.871  11.656  0.2823 -0.2050  0.4638
19361TIP3    H179574   4.601   5.938  11.718 -0.6461 -0.3885  0.2688
19361TIP3    H279575   4.723   5.868  11.664  0.2795  0.6810  0.9346
19362TIP3   OH279576   6.366   5.008  13.112  0.0870 -0.4563  0.0597
19362TIP3    H179577   6.309   4.931  13.114 -1.2130  0.4718  0.3462
19362TIP3    H279578   6.385   5.026  13.204  1.0641 -0.8873 -0.0426
19363TIP3   OH279579   2.459   2.337   5.946  0.1959 -0.0160 -0.6685
19363TIP3    H179580   2.447   2.347   5.852 -3.0400  1.8244 -0.2389
19363TIP3    H279581   2.416   2.254   5.967 -0.2807  0.2129 -0.7079
19364TIP3   OH279582   3.530   0.151   1.825  0.8675  0.4323 -0.1354
19364TIP3    H179583   3.601   0.210   1.802  0.7300  0.8698  0.5437
19364TIP3    H279584   3.465   0.206   1.868 -0.0517  0.1078 -1.0472
19365TIP3   OH279585   4.091   3.452  12.821 -0.3512 -0.1009 -0.1712
19365TIP3    H179586   4.132   3.445  12.907 -0.6913 -0.1609 -0.0146
19365TIP3    H279587   4.156   3.499  12.768 -0.4341  0.5851  0.3131
19366TIP3   OH279588   0.174   0.589   5.043 -0.1673 -0.4591 -0.2708
19366TIP3    H179589   0.190   0.642   4.965 -0.1869  0.8470  0.5798
19366TIP3    H279590   0.126   0.647   5.102 -2.0974 -2.1109 -0.1072
19367TIP3   OH279591   5.462   2.338  16.629 -0.2201  0.0470 -0.2314
19367TIP3    H179592   5.510   2.299  16.702 -0.7548 -0.7138 -0.2761
19367TIP3    H279593   5.528   2.354  16.562 -0.1942 -2.3199 -0.8633
19368TIP3   OH279594   4.296   6.349  15.130 -0.1897  0.2120  0.1041
19368TIP3    H179595   4.285   6.275  15.190 -1.5140  0.1215 -0.2255
19368TIP3    H279596   4.238   6.329  15.056  1.4208  0.3009 -1.2429
19369TIP3   OH279597   1.120   2.075   5.631 -0.1704  0.0395 -0.4330
19369TIP3    H179598   1.110   2.043   5.721 -0.3659 -0.1312 -0.5157
19369TIP3    H279599   1.142   1.998   5.580 -0.6409  0.0321 -0.6329
19370TIP3   OH279600   4.694   2.587   2.875 -0.3967 -0.3243  0.5975
19370TIP3    H179601   4.725   2.597   2.785 -3.2897 -1.5608 -0.6706
19370TIP3    H279602   4.650   2.670   2.894  0.2308 -0.0561  0.9020
19371TIP3   OH279603   1.040   5.319  11.721  0.1136  0.3870 -0.0070
19371TIP3    H179604   1.113   5.357  11.769  0.1795  1.1136 -0.6653
19371TIP3    H279605   0.966   5.326  11.782  0.0946  1.7125 -0.1559
19372TIP3   OH279606   1.660   4.151  12.008 -0.3140  0.5439 -0.5489
19372TIP3    H179607   1.709   4.170  11.928 -0.8483  1.7803 -0.6022
19372TIP3    H279608   1.705   4.075  12.046 -0.4860 -0.5343 -2.3825
19373TIP3   OH279609   5.352   4.449  14.492  0.0918 -0.1262 -0.1989
19373TIP3    H179610   5.260   4.470  14.511  0.0082 -0.9794  0.3686
19373TIP3    H279611   5.399   4.468  14.573  0.6930  1.7695 -0.9361
19374TIP3   OH279612   5.438   3.183   0.987  0.1876 -1.0483  0.2555
19374TIP3    H179613   5.366   3.217   1.040  1.4328 -0.5677  1.7391
19374TIP3    H279614   5.431   3.088   0.995  0.1795 -0.9864  1.0891
19375TIP3   OH279615   6.416   1.197  13.197  0.0693  0.1660 -0.4132
19375TIP3    H179616   6.427   1.259  13.125  1.3046 -1.2219 -1.4910
19375TIP3    H279617   6.504   1.187  13.234 -0.7724  2.0364  2.4053
19376TIP3   OH279618   2.374   3.789   2.858 -0.0762  0.5415  0.2586
19376TIP3    H179619   2.427   3.750   2.789  0.7748 -0.0017  1.1952
19376TIP3    H279620   2.331   3.864   2.816  0.5597  0.3291 -0.8020
19377TIP3   OH279621   4.179   4.454  12.300  0.3733 -0.1873  0.0693
19377TIP3    H179622   4.181   4.521  12.232  1.3889  0.1689  0.4196
19377TIP3    H279623   4.258   4.471  12.352 -0.5271 -0.2457  1.5207
19378TIP3   OH279624   2.340   5.284  14.325  0.3394 -0.1059 -0.0867
19378TIP3    H179625   2.383   5.368  14.313  0.5637 -0.2316 -0.1626
19378TIP3    H279626   2.262   5.288  14.270  1.6390 -0.8901 -2.1061
19379TIP3   OH279627   2.008   2.038   2.145  0.0526  0.4149  0.1421
19379TIP3    H179628   2.077   2.080   2.197 -1.0374  0.3077  1.7691
19379TIP3    H279629   2.045   1.953   2.120  0.3499  0.1526  1.4072
19380TIP3   OH279630   5.305   2.105   2.762  0.5076 -0.1510 -0.4167
19380TIP3    H179631   5.307   2.037   2.829  1.6855  0.1082 -0.1610
19380TIP3    H279632   5.329   2.185   2.810  0.7512  0.1434 -1.0276
19381TIP3   OH279633   4.030   0.404  14.600  0.4437 -0.2633  0.6785
19381TIP3    H179634   4.102   0.445  14.553 -0.8631  2.5779  0.9763
19381TIP3    H279635   3.995   0.339  14.539 -0.3050  2.3160 -1.8121
19382TIP3   OH279636   2.760   5.058  12.758 -0.3623 -0.2571 -0.1060
19382TIP3    H179637   2.711   5.109  12.694 -1.0574 -0.1698  0.4861
19382TIP3    H279638   2.810   5.122  12.808 -1.5544 -0.0892  0.9119
19383TIP3   OH279639   2.905   6.320   3.310 -0.0934  0.2640  0.4191
19383TIP3    H179640   2.991   6.351   3.281  0.0368 -1.1901 -0.8511
19383TIP3    H279641   2.844   6.384   3.273  0.2695 -0.1620 -0.9947
19384TIP3   OH279642   0.541   1.726  14.225 -0.9514 -0.1214 -0.2232
19384TIP3    H179643   0.508   1.684  14.305 -2.3062 -1.7596 -1.5789
19384TIP3    H279644   0.520   1.818  14.237 -2.7425 -0.5853  0.5789
19385TIP3   OH279645   1.973   0.608   6.564 -0.2565  0.1676  0.7064
19385TIP3    H179646   1.955   0.538   6.501  1.2825  0.2776  0.1180
19385TIP3    H279647   2.040   0.573   6.621  0.6403  1.1924  0.3168
19386TIP3   OH279648   0.714   4.036  15.671 -0.0642  0.1201 -0.2595
19386TIP3    H179649   0.630   3.997  15.697 -0.6682  0.7784 -1.1685
19386TIP3    H279650   0.742   4.086  15.748 -0.7677  0.3183 -0.1230
19387TIP3   OH279651   5.561   1.912  15.903  0.5746 -0.1810 -0.7658
19387TIP3    H179652   5.563   1.892  15.997  2.4113 -0.4929 -0.8419
19387TIP3    H279653   5.478   1.958  15.891  0.8122  0.9074  1.2359
19388TIP3   OH279654   1.679   2.337   4.945 -0.2801 -0.0052 -0.3706
19388TIP3    H179655   1.647   2.261   4.896  0.3596 -1.2141  1.0295
19388TIP3    H279656   1.763   2.358   4.905  0.2828 -1.0480  0.2397
19389TIP3   OH279657   6.135   2.411  11.637 -0.0328  0.1558  0.4319
19389TIP3    H179658   6.041   2.404  11.649 -0.5194  4.8720  1.2689
19389TIP3    H279659   6.172   2.399  11.724 -0.1338  0.6455  0.5464
19390TIP3   OH279660   6.191   0.917  12.586 -0.0908 -0.6895  0.4673
19390TIP3    H179661   6.208   0.940  12.495 -0.7709  0.0682  0.5203
19390TIP3    H279662   6.275   0.927  12.630 -0.0446  0.2125  0.1838
19391TIP3   OH279663   1.788   1.329   5.382 -0.0992  0.0824 -0.4556
19391TIP3    H179664   1.736   1.272   5.438 -0.2090  1.3296  0.7835
19391TIP3    H279665   1.726   1.361   5.316 -0.2335 -0.5495 -0.6427
19392TIP3   OH279666   1.784   3.650   0.384 -0.0804  0.5891 -0.5398
19392TIP3    H179667   1.766   3.612   0.298  0.1362  1.8637 -1.1719
19392TIP3    H279668   1.707   3.705   0.402 -0.0405  0.4740  0.0041
19393TIP3   OH279669   0.287   1.954  16.946  0.2739  0.0560  0.7353
19393TIP3    H179670   0.348   1.896  16.991 -0.6668 -0.3990  1.4777
19393TIP3    H279671   0.333   2.037  16.938  0.9441 -0.2429  1.3845
19394TIP3   OH279672   1.286   0.736  15.205 -0.0336 -0.2091 -0.5891
19394TIP3    H179673   1.207   0.686  15.226 -0.2060  1.0796  2.3369
19394TIP3    H279674   1.354   0.670  15.193 -0.7157 -1.2435  0.9647
19395TIP3   OH279675   5.429   0.175  11.717  0.0782 -0.2052  0.0171
19395TIP3    H179676   5.375   0.131  11.783  1.9700  1.2753  2.7561
19395TIP3    H279677   5.394   0.264  11.713 -0.5580 -0.4759 -1.7668
19396TIP3   OH279678   5.768   0.676   6.182 -0.0985  0.1121  0.1944
19396TIP3    H179679   5.696   0.706   6.127  0.0367  0.1285  0.0261
19396TIP3    H279680   5.847   0.694   6.131  0.0618  0.5901  0.6031
19397TIP3   OH279681   0.968   4.989  13.847 -0.0838 -0.0525  0.1480
19397TIP3    H179682   0.903   5.057  13.861  0.1010  0.2323 -0.3220
19397TIP3    H279683   1.015   4.983  13.930 -0.2048  0.2859  0.2427
19398TIP3   OH279684   0.583   1.242   2.840  0.2491 -0.5117  0.0037
19398TIP3    H179685   0.666   1.199   2.817  0.4055 -0.7245  0.9476
19398TIP3    H279686   0.529   1.231   2.762  0.9905 -0.6645 -0.5056
19399TIP3   OH279687   3.437   6.074   5.545  0.2390  0.0568  0.1773
19399TIP3    H179688   3.525   6.075   5.509  0.4966 -0.5010  0.7669
19399TIP3    H279689   3.427   5.986   5.583 -0.5093  0.1626  0.2533
19400TIP3   OH279690   5.832   2.788  13.498 -0.2566  0.0782 -0.8423
19400TIP3    H179691   5.823   2.819  13.408 -0.5326  1.8064 -0.2469
19400TIP3    H279692   5.769   2.840  13.548 -1.5905 -2.2519  0.0742
19401TIP3   OH279693   0.776   2.458  16.055  0.1017  0.2546  0.4876
19401TIP3    H179694   0.793   2.537  16.107 -0.4630  1.1120 -0.5716
19401TIP3    H279695   0.723   2.403  16.113 -1.2275  1.5436  0.5883
19402TIP3   OH279696   0.142   6.770  15.057 -0.0216 -0.2014 -0.0955
19402TIP3    H179697   0.197   6.792  14.982  0.7082  0.9184  0.7270
19402TIP3    H279698   0.163   6.679  15.077  1.2779  0.0894 -0.0458
19403TIP3   OH279699   2.294   2.186   3.538 -0.1037 -0.2341  0.0470
19403TIP3    H179700   2.378   2.226   3.561 -0.1505  0.0559 -0.2746
19403TIP3    H279701   2.282   2.207   3.446 -1.3312  1.2388  0.4914
19404TIP3   OH279702   4.893   5.065  14.224  0.0656  0.2305  0.2226
19404TIP3    H179703   4.981   5.030  14.217  0.0157 -0.1900  1.4020
19404TIP3    H279704   4.888   5.100  14.313 -0.5677  1.3664 -0.2304
19405TIP3   OH279705   3.730   4.739  13.863 -0.3975 -0.6727  0.2390
19405TIP3    H179706   3.770   4.825  13.850 -0.2683 -0.8802 -0.8244
19405TIP3    H279707   3.790   4.693  13.922  0.7677 -0.8508 -1.0335
19406TIP3   OH279708   0.216   3.083  13.205  0.4213 -0.0175  0.0806
19406TIP3    H179709   0.255   3.019  13.264  0.5744  0.1365  0.1498
19406TIP3    H279710   0.197   3.034  13.125 -0.6802 -0.4506  0.5858
19407TIP3   OH279711   1.169   3.441   0.043 -0.2031  0.3846  0.3357
19407TIP3    H179712   1.195   3.489  -0.036 -0.1603 -2.6169 -1.6371
19407TIP3    H279713   1.225   3.476   0.112  2.2459  0.7799 -1.7204
19408TIP3   OH279714   6.549   1.591  14.213  0.6859 -0.5615 -0.0796
19408TIP3    H179715   6.510   1.662  14.162  1.8597 -0.4526 -0.8550
19408TIP3    H279716   6.637   1.621  14.233  0.5120 -0.9286  1.3959
19409TIP3   OH279717   5.017   3.256   3.742  0.5104 -0.6391 -0.0626
19409TIP3    H179718   5.015   3.352   3.746  2.6690 -0.5054 -0.7038
19409TIP3    H279719   4.927   3.231   3.724 -0.4088  1.1709  1.6072
19410TIP3   OH279720   4.826   0.174   0.157 -0.0480  0.3764 -0.1548
19410TIP3    H179721   4.750   0.214   0.114  0.8239  0.1550 -1.9955
19410TIP3    H279722   4.849   0.099   0.102 -0.8321 -2.0011  2.4908
19411TIP3   OH279723   4.903   4.140   1.834  0.5713 -0.4073 -0.2573
19411TIP3    H179724   4.863   4.054   1.846  0.3735 -0.3518 -0.5073
19411TIP3    H279725   4.831   4.197   1.809 -0.2045  0.8660  4.0797
19412TIP3   OH279726   0.954   2.539   4.694 -0.0097 -0.4418 -0.1370
19412TIP3    H179727   1.017   2.587   4.748 -1.3806  0.1463  1.0038
19412TIP3    H279728   0.914   2.476   4.754 -1.0337 -0.2884 -0.6491
19413TIP3   OH279729   4.561   0.670   3.751  0.1444 -0.1008  0.4922
19413TIP3    H179730   4.501   0.667   3.676 -2.0357 -1.3714  2.1585
19413TIP3    H279731   4.526   0.740   3.806  0.3677 -0.6582  1.3536
19414TIP3   OH279732   4.828   0.132  16.318 -0.2533  0.0539  0.3591
19414TIP3    H179733   4.813   0.223  16.343  0.4575  0.6527 -1.2518
19414TIP3    H279734   4.869   0.137  16.232  2.0335 -1.7157  1.2413
19415TIP3   OH279735   4.210   2.721   4.745 -0.1758 -0.5597 -0.5434
19415TIP3    H179736   4.194   2.696   4.654  0.5352  0.0676 -0.8531
19415TIP3    H279737   4.134   2.774   4.769  0.3283  0.5124 -1.2616
19416TIP3   OH279738   2.384   4.991  16.944  0.0983  0.3041  0.0004
19416TIP3    H179739   2.458   4.931  16.935  0.1181  0.3662 -0.2939
19416TIP3    H279740   2.357   5.007  16.853  0.1854  0.8478  0.0696
19417TIP3   OH279741   5.271   0.528   1.836  0.0507  0.3646  0.7878
19417TIP3    H179742   5.283   0.584   1.913  1.2374  3.4894 -1.4492
19417TIP3    H279743   5.360   0.507   1.809 -0.2719  0.7005 -0.5926
19418TIP3   OH279744   6.058   3.382   4.285  0.1796 -0.4535  0.9029
19418TIP3    H179745   6.129   3.348   4.338  1.6592  0.1648 -0.5787
19418TIP3    H279746   6.066   3.336   4.201 -1.4212 -0.6526  0.8193
19419TIP3   OH279747   2.189   5.032   3.069  0.0511 -0.2571  1.1905
19419TIP3    H179748   2.185   5.124   3.093  1.1640 -0.0185  0.5120
19419TIP3    H279749   2.148   5.028   2.982 -0.1687 -0.4408  1.3000
19420TIP3   OH279750   4.541   3.860   0.588 -0.0034 -0.0631  0.6881
19420TIP3    H179751   4.505   3.933   0.537 -1.5953  0.2551  2.1952
19420TIP3    H279752   4.609   3.823   0.531  0.4419  2.1978 -0.3705
19421TIP3   OH279753   1.024   6.309   2.843 -0.2748  0.1818 -0.0031
19421TIP3    H179754   1.054   6.350   2.762  1.0887  2.2792  1.4495
19421TIP3    H279755   0.931   6.329   2.847  0.0047  1.6225 -0.2210
19422TIP3   OH279756   0.034   2.575  11.740 -0.1717  0.1679 -0.3981
19422TIP3    H179757   0.010   2.530  11.659 -0.2340  2.0508 -1.4791
19422TIP3    H279758  -0.025   2.537  11.806 -1.7706  0.2412 -1.7170
19423TIP3   OH279759   5.924   1.130   2.431  0.3119  0.0546  0.1425
19423TIP3    H179760   5.940   1.174   2.514  0.6152 -0.5394  0.4001
19423TIP3    H279761   5.830   1.141   2.416  0.4946  1.4320 -0.1734
19424TIP3   OH279762   4.934   3.164  13.496  0.2472 -0.3883 -0.2056
19424TIP3    H179763   4.886   3.210  13.427  1.2850  0.0199 -0.6743
19424TIP3    H279764   4.867   3.138  13.559 -0.5481  0.3837 -0.7202
19425TIP3   OH279765   3.530   2.804  11.543  0.6877 -0.2240  0.6613
19425TIP3    H179766   3.566   2.807  11.631 -0.5302  0.0479  1.1642
19425TIP3    H279767   3.444   2.844  11.550  0.7972  0.3411 -0.7754
19426TIP3   OH279768   6.308   3.693  12.971 -0.2460  0.0722 -0.6981
19426TIP3    H179769   6.270   3.611  12.942 -1.4110 -0.2036  1.3910
19426TIP3    H279770   6.320   3.682  13.066  0.2412  2.0347 -0.4775
19427TIP3   OH279771   4.268   5.196   4.864  0.1963 -0.4386  0.2614
19427TIP3    H179772   4.188   5.169   4.908 -0.6287  0.0791 -0.8619
19427TIP3    H279773   4.289   5.123   4.806 -0.6488  0.2328 -0.9522
19428TIP3   OH279774   1.379   6.607   6.225  0.2117 -0.0806 -0.5447
19428TIP3    H179775   1.415   6.669   6.161  1.3746 -0.7798 -0.5992
19428TIP3    H279776   1.456   6.566   6.265 -0.4911  0.2303  1.2190
19429TIP3   OH279777   4.721   1.180   5.159 -0.6647 -0.0148 -0.7946
19429TIP3    H179778   4.726   1.274   5.145  2.1755 -0.0119 -0.2473
19429TIP3    H279779   4.645   1.168   5.215 -0.8725  1.9807 -0.5888
19430TIP3   OH279780   2.306   4.543   4.019 -0.1533 -0.3861 -0.5112
19430TIP3    H179781   2.378   4.487   4.048 -0.4814 -0.3954  0.3278
19430TIP3    H279782   2.348   4.622   3.987  0.2349 -0.4059 -0.0578
19431TIP3   OH279783   3.103   3.086  12.929 -0.1106 -0.0528 -0.5204
19431TIP3    H179784   3.114   3.166  12.981 -0.7585 -0.0364 -0.3967
19431TIP3    H279785   3.183   3.079  12.878  0.8265 -0.3867  0.9299
19432TIP3   OH279786   0.135   2.868  14.905  0.0357  0.2034  0.0937
19432TIP3    H179787   0.101   2.924  14.836  0.5769 -1.7070 -1.8190
19432TIP3    H279788   0.230   2.883  14.904  0.1360 -0.4324 -0.1455
19433TIP3   OH279789   4.455   6.661   5.040 -0.0542 -0.2037 -0.3700
19433TIP3    H179790   4.414   6.744   5.015  0.0385 -0.1439 -0.3221
19433TIP3    H279791   4.384   6.612   5.083 -0.7533 -1.0767 -2.3892
19434TIP3   OH279792   5.816   2.998  16.460 -0.4733 -0.1599  0.3997
19434TIP3    H179793   5.893   3.022  16.408  0.3068 -0.2849  1.4674
19434TIP3    H279794   5.770   2.933  16.406  0.6397 -0.7384  0.1138
19435TIP3   OH279795   4.533   2.450  12.968 -0.4328  0.0953 -0.2650
19435TIP3    H179796   4.456   2.395  12.984 -0.1493  0.1748  1.6585
19435TIP3    H279797   4.500   2.524  12.916 -1.6095  0.0194  0.3439
19436TIP3   OH279798   3.190   2.644  11.486  0.6957  0.0777 -0.2713
19436TIP3    H179799   3.273   2.610  11.453  0.0749  0.0856 -1.9413
19436TIP3    H279800   3.210   2.735  11.510  0.9949  0.3439 -1.4602
19437TIP3   OH279801   2.887   6.511   4.716  0.2035  0.0489  0.1592
19437TIP3    H179802   2.827   6.577   4.681 -0.2459  0.1668  1.1198
19437TIP3    H279803   2.874   6.435   4.659 -1.0425 -0.0001  0.4793
19438TIP3   OH279804   3.061   6.638  16.258  0.3465 -0.2835 -0.1998
19438TIP3    H179805   2.980   6.600  16.292 -0.3681  0.7782 -0.6456
19438TIP3    H279806   3.032   6.707  16.198  1.5766 -0.6419 -1.2581
19439TIP3   OH279807   3.911   4.416   3.740 -0.6552  0.1140 -0.2897
19439TIP3    H179808   3.831   4.378   3.774 -0.4325 -0.6759 -0.6179
19439TIP3    H279809   3.920   4.379   3.652  0.9436 -1.1539  0.3567
19440TIP3   OH279810   0.386   6.786  13.525  0.3209 -0.0560 -0.2120
19440TIP3    H179811   0.456   6.781  13.590  0.5683  0.7330 -0.3999
19440TIP3    H279812   0.390   6.703  13.478  0.5062 -0.4032  0.4061
19441TIP3   OH279813   4.019   0.262  12.464  0.5021  0.2527 -0.3792
19441TIP3    H179814   3.940   0.207  12.459 -0.0038  0.9845 -0.6208
19441TIP3    H279815   4.031   0.277  12.558 -0.9066  1.8805 -0.4037
19442TIP3   OH279816   3.311   1.287  12.306  0.6966  0.5147  0.0025
19442TIP3    H179817   3.352   1.201  12.299  1.8976  1.1483 -1.4433
19442TIP3    H279818   3.357   1.330  12.378 -0.1623 -0.1395  0.9815
19443TIP3   OH279819   6.484   5.660   0.573  0.1652  0.6325  0.3737
19443TIP3    H179820   6.389   5.669   0.586 -0.1703 -0.0854 -1.2438
19443TIP3    H279821   6.492   5.626   0.484  1.8662 -1.2812  1.1729
19444TIP3   OH279822   4.079   6.123   6.458 -0.3043 -0.3609  0.2950
19444TIP3    H179823   4.131   6.199   6.435 -0.0811  0.0967  2.1657
19444TIP3    H279824   3.990   6.146   6.430 -0.0672  0.1785 -0.0293
19445TIP3   OH279825   2.796   2.587  12.486 -0.3315 -0.0315 -0.0319
19445TIP3    H179826   2.715   2.608  12.440  0.1013  1.7206 -0.0994
19445TIP3    H279827   2.846   2.534  12.423 -0.4854  0.8396 -0.9188
19446TIP3   OH279828   2.408   4.525  16.479  0.6619  0.1006  0.0670
19446TIP3    H179829   2.424   4.456  16.544  2.4123  0.3836 -0.0145
19446TIP3    H279830   2.494   4.540  16.439 -0.5427 -0.7811 -3.0884
19447TIP3   OH279831   3.974   0.058  13.967  0.5072 -0.1980  0.5806
19447TIP3    H179832   4.068   0.076  13.975 -0.1136  2.8616  2.4217
19447TIP3    H279833   3.943   0.051  14.058 -1.2555  0.0702  0.0317
19448TIP3   OH279834   3.710   1.537  16.600  0.2299 -0.1921  0.2494
19448TIP3    H179835   3.681   1.625  16.626 -0.5412 -0.5259  0.5654
19448TIP3    H279836   3.787   1.521  16.654  0.0260  0.0605  0.6236
19449TIP3   OH279837   0.542   1.803  15.963 -0.0174  0.6092  0.1453
19449TIP3    H179838   0.568   1.892  15.941  1.2486 -0.0178 -1.0558
19449TIP3    H279839   0.509   1.766  15.881 -1.4302  0.2315  0.8322
19450TIP3   OH279840   1.543   6.568   2.383  0.0684  0.0359 -0.1068
19450TIP3    H179841   1.607   6.516   2.334  0.4341 -0.4251  0.8230
19450TIP3    H279842   1.547   6.532   2.472 -1.6042 -0.1089 -0.0684
19451TIP3   OH279843   3.838   1.116  15.633  0.1189  0.3228 -0.2997
19451TIP3    H179844   3.797   1.202  15.643 -0.9435 -0.3255  1.3053
19451TIP3    H279845   3.912   1.132  15.574  0.9304  2.6570  1.1964
19452TIP3   OH279846   5.523   1.039  14.053 -0.1239 -0.2167  0.1792
19452TIP3    H179847   5.539   1.103  14.123  0.2825  1.5379 -1.4346
19452TIP3    H279848   5.541   0.954  14.094 -2.2372  0.4939  2.8718
19453TIP3   OH279849   0.404   2.611   3.115  0.4600 -0.0689 -0.3746
19453TIP3    H179850   0.427   2.591   3.025  0.0214  1.1147 -0.7792
19453TIP3    H279851   0.424   2.704   3.124 -1.9903  0.5151 -0.1003
19454TIP3   OH279852   2.717   3.064   4.606 -0.1140  0.0230 -0.0533
19454TIP3    H179853   2.744   3.152   4.633 -1.9028  0.8501 -0.8297
19454TIP3    H279854   2.724   3.066   4.511  2.7575 -1.7257  0.0124
19455TIP3   OH279855   4.929   0.869  15.989 -0.5430 -0.4668  0.5215
19455TIP3    H179856   4.850   0.817  15.998 -0.5615 -0.2697  1.6072
19455TIP3    H279857   4.927   0.929  16.063  1.1084 -1.1274  1.1584
19456TIP3   OH279858   2.126   4.393   5.441 -0.0417 -1.0561 -0.8460
19456TIP3    H179859   2.152   4.306   5.471  0.9519 -0.7276 -0.7181
19456TIP3    H279860   2.194   4.417   5.378  0.3863  0.1373  0.0375
19457TIP3   OH279861   4.883   6.778  11.245  0.1542  0.3935 -0.1681
19457TIP3    H179862   4.817   6.734  11.192  0.4164 -2.4947  1.6766
19457TIP3    H279863   4.850   6.867  11.255 -2.8466 -0.5814 -0.3609
19458TIP3   OH279864   1.977   1.422  15.188 -1.0592 -0.1827  0.1722
19458TIP3    H179865   2.042   1.393  15.252 -1.3370 -1.4043 -0.0722
19458TIP3    H279866   1.980   1.356  15.119  0.2617  1.8609 -1.8384
19459TIP3   OH279867   6.477   6.049   5.434  0.7911 -0.3694  0.2497
19459TIP3    H179868   6.426   5.968   5.443  0.5816 -0.4067 -1.0381
19459TIP3    H279869   6.520   6.041   5.349  2.3310  0.0315  0.9532
19460TIP3   OH279870   6.618   5.650  12.541  0.1641 -0.4150  0.4606
19460TIP3    H179871   6.712   5.646  12.520  0.1009  0.5984 -0.0997
19460TIP3    H279872   6.578   5.688  12.463 -0.9405 -2.2072  0.1110
19461TIP3   OH279873   2.816   5.798   1.717  0.0175 -0.0148  0.3047
19461TIP3    H179874   2.773   5.883   1.726  1.1299  0.6570 -0.4924
19461TIP3    H279875   2.775   5.759   1.639  0.6451  0.5124 -0.3018
19462TIP3   OH279876   5.796   1.379  12.806 -0.6485  0.2766 -0.5346
19462TIP3    H179877   5.722   1.435  12.830 -1.0170 -0.1249 -0.7133
19462TIP3    H279878   5.857   1.387  12.879 -0.0286  2.0309 -1.1862
19463TIP3   OH279879   6.351   6.804  12.096  0.2936 -0.1764  0.0588
19463TIP3    H179880   6.421   6.863  12.069 -0.0283  0.0337 -0.3193
19463TIP3    H279881   6.337   6.747  12.020 -0.4125  0.2232 -0.1126
19464TIP3   OH279882   3.660   6.624   4.425  0.4877  0.0852  0.4171
19464TIP3    H179883   3.645   6.683   4.499 -0.1934 -0.8953  1.0772
19464TIP3    H279884   3.661   6.537   4.463  1.0845 -0.3792 -0.6090
19465TIP3   OH279885   3.094   5.853   4.579  0.1826  0.4858 -0.5188
19465TIP3    H179886   3.064   5.904   4.504  0.1820  3.1640  1.1496
19465TIP3    H279887   3.161   5.908   4.619 -1.8378  0.6415  3.0733
19466TIP3   OH279888   5.593   0.790  16.306  0.1877  0.6194  0.5849
19466TIP3    H179889   5.593   0.728  16.380  0.8922  2.3346  2.0965
19466TIP3    H279890   5.686   0.798  16.282 -0.0636 -0.1643 -0.7526
19467TIP3   OH279891   4.286   4.436  14.752 -0.2078  0.5278  0.4812
19467TIP3    H179892   4.309   4.494  14.680  0.5363 -0.5597 -0.1965
19467TIP3    H279893   4.303   4.486  14.831  1.1338  0.9668 -0.0728
19468TIP3   OH279894   4.726   5.663  11.946 -0.2712  0.0913  0.1257
19468TIP3    H179895   4.807   5.641  11.900  0.0542  1.6440 -0.1001
19468TIP3    H279896   4.657   5.650  11.880  0.2853  3.3256 -1.2888
19469TIP3   OH279897   1.593   5.635   3.296  0.2666  0.1878 -0.0950
19469TIP3    H179898   1.500   5.640   3.318 -0.6572 -0.1300 -3.3439
19469TIP3    H279899   1.623   5.725   3.299 -0.4465  0.4297 -0.0238
19470TIP3   OH279900   1.115   2.008   5.895  0.3612  0.4813 -0.0881
19470TIP3    H179901   1.061   2.036   5.968  0.7570 -0.0451  0.4221
19470TIP3    H279902   1.090   1.916   5.880 -1.0763  1.1000 -1.8728
19471TIP3   OH279903   1.029   5.991  15.201  0.4264  0.4469  0.4809
19471TIP3    H179904   1.063   6.079  15.216 -0.5818  0.7671  0.9779
19471TIP3    H279905   1.063   5.967  15.115 -1.2050  2.2809 -0.7715
19472TIP3   OH279906   3.406   1.735  15.110 -0.6838  0.0991  0.6320
19472TIP3    H179907   3.424   1.808  15.169  0.1414 -0.8580  1.6038
19472TIP3    H279908   3.472   1.741  15.042  0.0741 -0.3602  1.3131
19473TIP3   OH279909   5.327   2.723  16.296  0.4257  0.0649  0.5141
19473TIP3    H179910   5.242   2.768  16.291 -0.2219 -1.1798 -0.6177
19473TIP3    H279911   5.308   2.642  16.343  1.0634 -0.0590  0.5578
19474TIP3   OH279912   0.295   0.516  16.668 -0.5693  0.6375  0.2505
19474TIP3    H179913   0.233   0.498  16.739 -1.0104 -0.7719 -0.4442
19474TIP3    H279914   0.246   0.496  16.588  1.2750 -2.4933 -0.2896
19475TIP3   OH279915   4.908   0.638  16.495 -0.6688  0.3399  0.0612
19475TIP3    H179916   4.951   0.613  16.414 -1.3878  1.0093 -0.5453
19475TIP3    H279917   4.880   0.728  16.481 -0.0243  0.7727  1.3886
19476TIP3   OH279918   0.734   4.790  11.329 -0.1398  0.1747 -0.1599
19476TIP3    H179919   0.810   4.806  11.273 -0.6940  0.5837 -0.8103
19476TIP3    H279920   0.681   4.868  11.320 -0.7260 -0.1823  0.1530
19477TIP3   OH279921   2.536   4.108  13.442  0.0960  0.4776 -0.4745
19477TIP3    H179922   2.602   4.077  13.380 -0.4233 -0.7485 -0.4568
19477TIP3    H279923   2.586   4.142  13.516  0.7215 -0.3676 -0.4904
19478TIP3   OH279924   1.556   3.771  13.992  0.3140 -0.1081  0.2653
19478TIP3    H179925   1.474   3.775  14.040  1.2679  0.5700  1.9106
19478TIP3    H279926   1.536   3.719  13.914 -1.3329 -1.1224  1.3190
19479TIP3   OH279927   1.690   4.603  15.285  0.6647  0.8408  0.7373
19479TIP3    H179928   1.618   4.664  15.271  0.7245  1.2476  2.1083
19479TIP3    H279929   1.758   4.631  15.224  0.0268  1.0445  0.1148
19480TIP3   OH279930   5.608   4.505   5.250 -0.0722  0.7411  0.0214
19480TIP3    H179931   5.568   4.463   5.327 -2.0251 -0.9503 -1.7698
19480TIP3    H279932   5.702   4.498   5.265 -0.2531 -3.3201  0.5164
19481TIP3   OH279933   1.719   6.112  13.353  0.0528 -0.4733 -0.1393
19481TIP3    H179934   1.749   6.024  13.376 -2.4195 -1.2283  0.4626
19481TIP3    H279935   1.671   6.101  13.271  1.1042  0.6597 -0.9641
19482TIP3   OH279936   6.728   4.597   2.525 -0.1112  0.1377  0.1470
19482TIP3    H179937   6.714   4.570   2.615 -0.8897  0.9594  0.2887
19482TIP3    H279938   6.759   4.687   2.531 -0.4593  0.3012 -0.4174
19483TIP3   OH279939   3.874   4.273   1.797 -0.4007  0.2754  0.4675
19483TIP3    H179940   3.860   4.364   1.823 -0.9246 -0.3751  2.6838
19483TIP3    H279941   3.938   4.277   1.726  0.6516  2.2738  1.4614
19484TIP3   OH279942   2.659   4.122   6.415 -0.1274  0.3942  0.7838
19484TIP3    H179943   2.691   4.145   6.502 -0.1406  0.7202  0.7060
19484TIP3    H279944   2.699   4.038   6.396  0.3986  0.6292  0.8394
19485TIP3   OH279945   3.796   1.594  14.870 -0.2645 -0.1503  0.0883
19485TIP3    H179946   3.809   1.624  14.780 -0.7113  1.5159  0.5329
19485TIP3    H279947   3.841   1.659  14.924 -0.3460 -0.8956  1.0869
19486TIP3   OH279948   4.840   2.919  11.688 -0.3834 -0.0425  0.2022
19486TIP3    H179949   4.804   2.943  11.773 -1.2152  0.9322 -0.4073
19486TIP3    H279950   4.810   2.829  11.674  0.7609 -0.6498  1.4455
19487TIP3   OH279951   5.940   0.087  16.419  0.3426  0.1114  0.4400
19487TIP3    H179952   5.903   0.008  16.381 -1.1794  1.2337 -0.5532
19487TIP3    H279953   6.026   0.097  16.378  0.4985 -0.9571  0.5007
19488TIP3   OH279954   0.076   0.545   5.385  0.3837  0.2084 -0.2620
19488TIP3    H179955   0.089   0.638   5.401  0.4641 -0.0160  1.1159
19488TIP3    H279956   0.059   0.508   5.472 -1.8467 -0.7291 -1.0478
19489TIP3   OH279957   1.498   2.972  11.760  0.0274  0.2006 -0.5429
19489TIP3    H179958   1.573   2.960  11.817 -0.3943  1.2289  0.2574
19489TIP3    H279959   1.528   2.941  11.674  1.3369  0.5360 -0.2303
19490TIP3   OH279960   4.715   5.116   2.059 -0.4805 -0.1872 -0.1615
19490TIP3    H179961   4.723   5.209   2.037 -0.1241 -0.7171 -2.4611
19490TIP3    H279962   4.621   5.099   2.053 -0.8107  0.3893  2.1830
19491TIP3   OH279963   4.741   6.504  12.025  0.4998  0.3492  0.0332
19491TIP3    H179964   4.660   6.478  11.981  0.3534 -0.5452  0.8017
19491TIP3    H279965   4.723   6.592  12.058 -0.1952  0.1318  0.2587
19492TIP3   OH279966   3.521   0.211  15.800  0.2769 -0.4562 -0.1737
19492TIP3    H179967   3.528   0.117  15.815 -1.4620 -0.5786  0.0594
19492TIP3    H279968   3.485   0.219  15.712 -0.6592 -0.0661  0.2271
19493TIP3   OH279969   5.269   6.332  13.582 -0.2479 -0.0309  0.6069
19493TIP3    H179970   5.346   6.390  13.580 -1.1366  1.1714  0.1910
19493TIP3    H279971   5.194   6.392  13.585 -1.2235 -1.1480 -0.3788
19494TIP3   OH279972   0.021   6.157   5.225  0.1311 -0.1912 -0.1619
19494TIP3    H179973   0.033   6.138   5.318  1.6024  0.0754 -0.2740
19494TIP3    H279974   0.086   6.225   5.206  0.6490 -1.0643 -1.6455
19495TIP3   OH279975   6.073   0.430   3.917  0.0094  0.2807  0.2768
19495TIP3    H179976   6.168   0.437   3.917  0.1946 -1.1477 -2.3217
19495TIP3    H279977   6.042   0.521   3.920  1.4426  0.7960  0.3040
19496TIP3   OH279978   2.395   5.969   5.555  0.5570  0.0557 -0.1119
19496TIP3    H179979   2.411   6.047   5.610 -2.0921  0.5717  0.0406
19496TIP3    H279980   2.469   5.968   5.494  0.2441  3.3051 -0.7580
19497TIP3   OH279981   1.072   2.309  16.813  0.1164 -0.0795  0.0525
19497TIP3    H179982   1.101   2.239  16.754 -1.6003 -1.2771  0.5447
19497TIP3    H279983   0.976   2.304  16.811 -0.2629  3.8931 -1.7670
19498TIP3   OH279984   5.266   6.834  10.767 -0.0374 -0.1220  0.2173
19498TIP3    H179985   5.199   6.840  10.834 -1.3369  0.2775 -1.0559
19498TIP3    H279986   5.262   6.743  10.737 -0.0062 -0.1084  0.1709
19499TIP3   OH279987   0.952   5.494  12.516  0.3391  0.6590  0.5547
19499TIP3    H179988   0.955   5.588  12.502  2.1799  0.5776  0.1375
19499TIP3    H279989   0.982   5.456  12.434 -0.5239 -0.3020  0.6677
19500TIP3   OH279990   0.490   0.888  12.434  0.4575  0.6400  0.1798
19500TIP3    H179991   0.570   0.865  12.386 -0.0653 -0.6493 -0.1335
19500TIP3    H279992   0.503   0.852  12.521  0.3322  0.6741  0.2120
19501TIP3   OH279993   5.911   5.808   5.825 -0.2744 -0.1831  0.2264
19501TIP3    H179994   5.906   5.861   5.904  0.8508 -0.2920  0.3985
19501TIP3    H279995   5.830   5.758   5.823 -1.0546  1.0340  0.4198
19502TIP3   OH279996   1.912   6.280   4.981  0.3868 -0.1337  0.1283
19502TIP3    H179997   1.936   6.295   4.889 -2.9857  0.2484 -0.8178
19502TIP3    H279998   1.867   6.195   4.981 -1.3746  0.7477  1.0017
19503TIP3   OH279999   0.189   1.729   5.978  0.6237 -0.0486 -0.1447
19503TIP3    H180000   0.203   1.652   5.922  1.1672  0.5274 -0.8161
19503TIP3    H280001   0.190   1.694   6.067  2.2431 -0.6363 -0.3704
19504TIP3   OH280002   4.962   2.308   0.111  0.2003  0.2703  0.1588
19504TIP3    H180003   5.012   2.248   0.166 -0.8171  1.5244  2.5873
19504TIP3    H280004   4.870   2.282   0.124 -0.1891  1.7665  0.5786
19505TIP3   OH280005   3.867   6.568   5.304  0.7204  0.0616  0.0642
19505TIP3    H180006   3.958   6.596   5.304  0.3718  1.2977 -1.2393
19505TIP3    H280007   3.817   6.648   5.288 -0.5510 -0.6896  0.1412
19506TIP3   OH280008   4.203   6.547  13.680  0.0204  0.2696  0.0574
19506TIP3    H180009   4.284   6.597  13.672 -0.0660  0.3486 -0.3394
19506TIP3    H280010   4.135   6.613  13.690  0.0442  0.1930  0.7832
19507TIP3   OH280011   1.134   4.076  12.480  0.0654  0.0287  0.3249
19507TIP3    H180012   1.090   4.108  12.401 -1.1995 -2.7196 -0.1870
19507TIP3    H280013   1.156   3.985  12.460 -1.6383 -1.2511  3.5991
19508TIP3   OH280014   5.771   3.403  16.667 -0.6638  0.8719  0.0670
19508TIP3    H180015   5.709   3.354  16.612 -1.3781 -1.5424  2.7920
19508TIP3    H280016   5.849   3.348  16.669 -0.7133  0.8371  1.5289
19509TIP3   OH280017   0.397   1.796  15.177 -0.5176  0.4805 -0.0941
19509TIP3    H180018   0.380   1.877  15.225 -0.4883  0.4722 -0.0701
19509TIP3    H280019   0.336   1.799  15.103 -0.6486  0.4360  0.0098
19510TIP3   OH280020   5.938   5.131  16.942  0.0213 -0.3259 -0.2561
19510TIP3    H180021   6.011   5.146  16.881  1.0004  1.5428  1.2777
19510TIP3    H280022   5.860   5.132  16.886  0.9039  1.0168 -1.5444
19511TIP3   OH280023   2.225   6.705   0.663 -0.4870  0.9309 -0.2728
19511TIP3    H180024   2.287   6.773   0.690  0.5757 -0.7507  1.8504
19511TIP3    H280025   2.141   6.734   0.700  0.5071 -0.2008  3.3347
19512TIP3   OH280026   6.510   5.221  13.282 -0.3251  0.4845  0.0750
19512TIP3    H180027   6.540   5.237  13.372 -3.3616 -2.8867  1.9420
19512TIP3    H280028   6.559   5.144  13.255  0.5668  1.4820 -1.2524
19513TIP3   OH280029   0.756   2.792  13.942 -0.2235 -0.0001  0.1617
19513TIP3    H180030   0.678   2.799  13.886  0.2863  0.8101 -0.4638
19513TIP3    H280031   0.762   2.877  13.986 -0.1520 -0.3471  0.8382
19514TIP3   OH280032   1.728   4.629  14.396 -0.4199  0.0239  0.2421
19514TIP3    H180033   1.709   4.564  14.464 -0.7436  0.8536  0.9630
19514TIP3    H280034   1.722   4.580  14.314 -4.0194 -0.2436  0.4995
19515TIP3   OH280035   6.516   0.037  15.146 -0.2283  0.2134 -0.0327
19515TIP3    H180036   6.429   0.076  15.135 -0.6868 -1.1678 -1.6539
19515TIP3    H280037   6.575   0.112  15.145 -1.2941  1.0837 -0.2286
19516TIP3   OH280038   0.188   0.999   0.528 -0.2126 -0.0962 -0.3082
19516TIP3    H180039   0.281   1.006   0.507  0.4550 -1.7023  1.6846
19516TIP3    H280040   0.176   1.059   0.602 -0.2705 -1.2747  0.6691
19517TIP3   OH280041   3.310   2.033  17.099  0.0597 -0.2674  0.1452
19517TIP3    H180042   3.350   2.068  17.020 -0.1583  0.6014  0.4083
19517TIP3    H280043   3.330   1.939  17.097 -0.1189 -0.2931 -1.0354
19518TIP3   OH280044   6.343   0.100  11.570 -0.0684 -0.2254  0.0270
19518TIP3    H180045   6.349   0.007  11.547  0.3317 -0.3609  0.6241
19518TIP3    H280046   6.313   0.100  11.661  2.0814  0.1266  0.8124
19519TIP3   OH280047   0.253   1.478  12.609  0.2312  0.0099 -0.7958
19519TIP3    H180048   0.258   1.396  12.658  1.1294 -1.3377 -3.0012
19519TIP3    H280049   0.177   1.466  12.551 -0.3971  1.2785 -0.2713
19520TIP3   OH280050   2.924   3.638   0.958 -0.0290  0.1221 -0.4770
19520TIP3    H180051   2.871   3.669   0.886 -0.1929 -0.3083 -0.5465
19520TIP3    H280052   2.921   3.708   1.023  0.1660  0.5330 -0.9094
19521TIP3   OH280053   6.655   0.156  11.476 -0.4245 -0.0419  0.3217
19521TIP3    H180054   6.599   0.125  11.405 -1.0273  0.2315  0.6771
19521TIP3    H280055   6.676   0.246  11.453 -2.5190  0.8612  1.5983
19522TIP3   OH280056   1.655   3.280  13.216 -0.3520  0.1332 -0.1352
19522TIP3    H180057   1.738   3.321  13.241 -1.8833  3.6013 -0.2247
19522TIP3    H280058   1.593   3.306  13.284 -1.5854 -1.7895 -0.4417
19523TIP3   OH280059   5.413   5.338  16.184 -0.1475 -0.3483 -0.1472
19523TIP3    H180060   5.466   5.393  16.125  0.5972 -0.8706  0.0136
19523TIP3    H280061   5.361   5.400  16.234 -0.4327  0.1277 -1.0179
19524TIP3   OH280062   5.243   2.015  16.510 -0.3630 -0.1355  0.1964
19524TIP3    H180063   5.224   2.011  16.604  0.1328 -1.4456  0.2680
19524TIP3    H280064   5.339   2.016  16.506 -0.3210  2.8755 -0.2424
19525TIP3   OH280065   4.942   5.631  14.320  0.4675 -0.2396  0.0285
19525TIP3    H180066   4.950   5.573  14.395 -0.3620 -1.9057 -1.1056
19525TIP3    H280067   4.951   5.719  14.356  1.9982 -1.0550  1.7722
19526TIP3   OH280068   6.676   3.917   2.703  0.2557  0.2400  0.1785
19526TIP3    H180069   6.647   3.868   2.780 -1.2809  1.4995  0.4600
19526TIP3    H280070   6.689   4.006   2.735  0.2101  0.6415 -0.8777
19527TIP3   OH280071   5.608   1.547  10.075 -0.1303 -0.1590  0.4069
19527TIP3    H180072   5.701   1.530  10.091  0.3414  1.5513 -0.2819
19527TIP3    H280073   5.563   1.483  10.130  1.4432 -0.5611  1.3165
19528TIP3   OH280074   4.683   3.055  13.971  0.2261  0.4174  0.4564
19528TIP3    H180075   4.703   3.109  14.048  0.6511  1.2204 -0.1987
19528TIP3    H280076   4.615   3.103  13.925  1.5384  1.1255 -0.8430
19529TIP3   OH280077   1.930   5.617  12.696 -0.3698  0.0425  0.6138
19529TIP3    H180078   1.971   5.586  12.776  1.4217  1.3837  0.2832
19529TIP3    H280079   1.919   5.712  12.709 -0.8566  0.1424 -0.3989
19530TIP3   OH280080   4.573   1.943  13.753  0.2595  0.2074 -0.0627
19530TIP3    H180081   4.600   2.033  13.734 -0.3849  0.1647 -1.2497
19530TIP3    H280082   4.479   1.943  13.739 -0.0115 -0.2892  1.4829
19531TIP3   OH280083   6.205   1.220  13.375 -0.1178 -0.4641 -0.4480
19531TIP3    H180084   6.245   1.232  13.288  1.2821  1.3090  0.3804
19531TIP3    H280085   6.259   1.153  13.416 -0.1375 -0.5596 -0.5765
19532TIP3   OH280086   3.951   1.015   2.979  0.1313 -0.4188  0.4881
19532TIP3    H180087   3.879   0.987   2.923 -0.5717 -1.4811  1.8535
19532TIP3    H280088   3.935   1.108   2.995 -1.0249 -0.6614  0.8473
19533TIP3   OH280089   4.141   1.253  15.159  0.4201  0.3140 -0.0577
19533TIP3    H180090   4.166   1.203  15.237  1.2951  1.7075  0.5937
19533TIP3    H280091   4.121   1.187  15.093 -0.8807 -0.9097  1.5000
19534TIP3   OH280092   0.181   2.902  15.871 -0.5769  0.1575 -0.0757
19534TIP3    H180093   0.217   2.924  15.785 -0.6583  1.2928  0.1676
19534TIP3    H280094   0.224   2.963  15.931 -2.1427  0.8549  0.3684
19535TIP3   OH280095   5.004   6.763  16.912 -0.3415 -0.1216 -0.3388
19535TIP3    H180096   4.981   6.755  16.819  0.5925 -1.3085 -0.4803
19535TIP3    H280097   4.972   6.683  16.952 -0.7130  0.3736  0.3823
19536TIP3   OH280098   3.363   2.215  12.180  0.3283  0.3275 -0.0729
19536TIP3    H180099   3.388   2.173  12.098 -0.0428 -0.3119  0.1415
19536TIP3    H280100   3.315   2.148  12.229  1.9002  0.1737  1.3577
19537TIP3   OH280101   0.343   2.445  14.440  0.2516  0.3872 -0.0112
19537TIP3    H180102   0.357   2.537  14.419  1.5578  0.3794  0.7531
19537TIP3    H280103   0.250   2.431  14.421 -0.5296  2.4039  1.8427
19538TIP3   OH280104   3.674   3.300   2.362 -0.1915 -0.5156  0.8817
19538TIP3    H180105   3.723   3.251   2.295 -1.0218 -0.8445  0.5049
19538TIP3    H280106   3.631   3.371   2.313 -3.2797 -2.5124  0.4673
19539TIP3   OH280107   2.781   5.486  12.608  0.5058  0.1911 -0.3294
19539TIP3    H180108   2.746   5.543  12.539 -2.0308  0.0995  0.7768
19539TIP3    H280109   2.739   5.402  12.594 -0.0064  0.1469  1.2518
19540TIP3   OH280110   0.044   6.056   1.591 -0.6007  0.7050  0.2766
19540TIP3    H180111   0.031   6.029   1.682  0.2185 -0.6781  0.0134
19540TIP3    H280112  -0.045   6.070   1.557 -1.1390 -1.9312  0.4037
19541TIP3   OH280113   4.211   5.645   4.745 -0.0069  0.2379 -0.2686
19541TIP3    H180114   4.119   5.619   4.750 -0.3452  1.6135  1.8549
19541TIP3    H280115   4.258   5.571   4.782 -0.1675 -0.6691 -1.7895
19542TIP3   OH280116   4.960   0.812  10.924 -0.0179  0.4220  0.3038
19542TIP3    H180117   4.957   0.906  10.904 -2.3984  0.4451  0.5312
19542TIP3    H280118   4.991   0.771  10.843  1.7359  1.4070  0.4172
19543TIP3   OH280119   5.988   4.793  13.884  0.4920 -0.0570  0.0264
19543TIP3    H180120   6.047   4.830  13.949  1.1868  2.4016 -1.8535
19543TIP3    H280121   6.001   4.699  13.891  0.6886  0.0875  3.2168
19544TIP3   OH280122   5.709   1.185  13.309 -1.1025  0.3866  0.5272
19544TIP3    H180123   5.795   1.184  13.352 -1.6349  1.0441  1.6416
19544TIP3    H280124   5.719   1.249  13.238 -0.1600 -0.8485 -0.5190
19545TIP3   OH280125   4.889   1.095  15.751 -0.0770  0.3183 -0.2037
19545TIP3    H180126   4.917   1.069  15.663 -0.9951 -2.0873  0.1422
19545TIP3    H280127   4.892   1.014  15.802  0.5552  1.6813  2.0383
19546TIP3   OH280128   2.001   2.605  13.092 -0.4275 -0.0198  0.1853
19546TIP3    H180129   1.982   2.699  13.097 -2.0926 -0.2444 -1.1707
19546TIP3    H280130   2.068   2.591  13.159 -0.8346  1.9534  1.0825
19547TIP3   OH280131   3.202   3.678  14.494 -0.2910 -0.4628 -0.2198
19547TIP3    H180132   3.160   3.592  14.483 -1.0366  0.0249 -1.3975
19547TIP3    H280133   3.145   3.725  14.555  0.0984 -0.7812  0.3979
19548TIP3   OH280134   0.590   3.574   6.384 -0.4796 -0.0032  0.0954
19548TIP3    H180135   0.561   3.507   6.322 -0.9572  0.0133  0.2920
19548TIP3    H280136   0.571   3.537   6.470 -1.0111  0.4872  0.2019
19549TIP3   OH280137   1.265   2.533  15.249  0.5165  0.1579 -0.2420
19549TIP3    H180138   1.172   2.549  15.233  0.5775 -0.1154 -0.9019
19549TIP3    H280139   1.291   2.473  15.178  0.7547 -1.2763  1.0010
19550TIP3   OH280140   6.410   0.685   5.521  0.3330 -0.2658 -0.2025
19550TIP3    H180141   6.331   0.631   5.520  0.9416 -1.1632 -0.5483
19550TIP3    H280142   6.478   0.629   5.484  0.7486  1.1158 -1.6032
19551TIP3   OH280143   2.432   5.057   1.214  0.0877 -0.3816 -0.1663
19551TIP3    H180144   2.361   5.089   1.158 -1.1799  0.4337  1.7648
19551TIP3    H280145   2.449   5.131   1.274  0.9431 -1.4000  0.8856
19552TIP3   OH280146   1.274   1.669   2.104 -0.0514 -0.1684  0.6395
19552TIP3    H180147   1.207   1.724   2.062 -1.3664  0.2682  3.1482
19552TIP3    H280148   1.347   1.670   2.042 -1.0312  2.2134 -0.6232
19553TIP3   OH280149   4.058   0.727  10.573 -0.3361  0.4162  0.0044
19553TIP3    H180150   4.123   0.672  10.615 -0.0810  1.9185  1.7053
19553TIP3    H280151   4.076   0.719  10.479  0.6585 -1.1295  0.3036
19554TIP3   OH280152   5.385   6.061   3.859  0.4748  0.3894 -0.2135
19554TIP3    H180153   5.338   6.137   3.893 -0.8207 -0.4183 -0.1369
19554TIP3    H280154   5.333   6.031   3.785  1.7603  0.4378 -1.1700
19555TIP3   OH280155   3.746   2.314   0.754 -0.4767  0.3771 -0.4480
19555TIP3    H180156   3.692   2.288   0.679  0.9973 -1.4732 -0.9313
19555TIP3    H280157   3.765   2.407   0.738 -1.6122  0.4699 -1.4374
19556TIP3   OH280158   4.697   3.584   1.241 -0.2598 -0.3020 -0.6629
19556TIP3    H180159   4.762   3.653   1.227 -1.5157  1.4612  1.5783
19556TIP3    H280160   4.746   3.513   1.282  0.7003 -0.0259 -1.2891
19557TIP3   OH280161   6.040   1.696   2.731  0.1868  0.6912  0.2162
19557TIP3    H180162   6.128   1.734   2.725  0.7669 -0.3391  1.5185
19557TIP3    H280163   6.056   1.603   2.749 -1.1791  0.2055 -0.9046
19558TIP3   OH280164   0.156   4.287  12.479 -0.0670  0.2079  0.5968
19558TIP3    H180165   0.080   4.262  12.427 -1.0017  1.2951  1.3903
19558TIP3    H280166   0.231   4.252  12.431 -1.0792 -1.3371  0.0550
19559TIP3   OH280167   3.528   6.124   3.205  0.4253  0.3567  0.1055
19559TIP3    H180168   3.601   6.187   3.204  0.0417  0.8042 -0.0506
19559TIP3    H280169   3.543   6.071   3.283 -0.0209  1.5641  1.0410
19560TIP3   OH280170   5.578   4.787  15.005 -0.3477 -0.3309 -0.1128
19560TIP3    H180171   5.592   4.848  14.932  0.6232 -1.7314 -1.1450
19560TIP3    H280172   5.486   4.764  15.000 -0.9755  1.6874  0.8562
19561TIP3   OH280173   2.114   2.003   5.421  0.5060 -0.3425  0.2714
19561TIP3    H180174   2.186   2.063   5.407  1.2859 -1.1553  0.6989
19561TIP3    H280175   2.115   1.985   5.515  0.5622 -1.3326  0.1014
19562TIP3   OH280176   3.183   3.523  12.927  0.2390  0.5578  0.1048
19562TIP3    H180177   3.106   3.484  12.969 -0.3447  0.4866 -0.9909
19562TIP3    H280178   3.161   3.526  12.834  1.2986  1.1668 -0.1486
19563TIP3   OH280179   1.167   3.583   3.839 -0.2510 -0.0557  0.0860
19563TIP3    H180180   1.084   3.630   3.830 -0.9695 -1.3367 -0.2654
19563TIP3    H280181   1.201   3.577   3.750 -0.7689 -1.2038 -0.0609
19564TIP3   OH280182   2.093   0.098  15.193 -0.5630  0.2965 -0.4189
19564TIP3    H180183   2.100   0.184  15.151  0.4125  0.4530  0.0496
19564TIP3    H280184   1.999   0.088  15.209 -0.6899  1.2872 -0.4535
19565TIP3   OH280185   0.514   4.581  16.509 -0.3758  0.2690 -0.0313
19565TIP3    H180186   0.509   4.609  16.418  1.8223  0.9840  0.0054
19565TIP3    H280187   0.517   4.662  16.559  1.6510 -0.0306  0.4065
19566TIP3   OH280188   2.414   5.176   2.097  0.3273 -0.0274 -0.3577
19566TIP3    H180189   2.408   5.180   2.002  0.1002 -1.4983 -0.4315
19566TIP3    H280190   2.508   5.183   2.116  0.4042 -0.0653 -0.7192
19567TIP3   OH280191   3.752   0.228   3.636 -0.2434 -0.0792 -0.0633
19567TIP3    H180192   3.725   0.232   3.544 -1.5145 -0.2667  0.2847
19567TIP3    H280193   3.757   0.319   3.664 -0.1130 -0.0299 -0.2439
19568TIP3   OH280194   3.998   1.610   3.588  1.3217  0.6698 -0.2409
19568TIP3    H180195   4.033   1.561   3.514  1.6117 -0.4727  0.6322
19568TIP3    H280196   3.965   1.544   3.649  1.8085  1.5310  1.0130
19569TIP3   OH280197   5.768   2.648  10.360 -0.0400  0.1834 -0.7625
19569TIP3    H180198   5.850   2.626  10.314 -0.2838 -2.0248 -0.2666
19569TIP3    H280199   5.713   2.570  10.348 -0.6808  0.1343  1.9603
19570TIP3   OH280200   5.743   3.898   5.958  0.2845 -0.5468  0.1385
19570TIP3    H180201   5.731   3.873   5.866 -2.1053 -0.8318  0.4595
19570TIP3    H280202   5.691   3.977   5.968  1.5097  0.1744  0.9816
19571TIP3   OH280203   5.870   5.680  16.820  0.2489  0.3642 -0.3787
19571TIP3    H180204   5.867   5.657  16.727  1.0533 -0.6132 -0.1841
19571TIP3    H280205   5.951   5.730  16.829  0.2996  0.2453 -0.1688
19572TIP3   OH280206   4.609   0.569  15.151  0.1369 -0.0194 -0.1847
19572TIP3    H180207   4.594   0.566  15.057  1.4290 -0.0712 -0.3950
19572TIP3    H280208   4.661   0.491  15.170  1.7895  1.1289  0.2066
19573TIP3   OH280209   3.178   0.970  14.344  0.3086  0.2159 -0.4178
19573TIP3    H180210   3.231   0.891  14.355 -2.1822 -1.6269 -0.7525
19573TIP3    H280211   3.200   1.024  14.419  0.9746 -1.4982  0.6858
19574TIP3   OH280212   3.381   3.716  14.299  0.6666 -0.0386  0.2142
19574TIP3    H180213   3.343   3.665  14.228  0.6501  2.4747 -1.7621
19574TIP3    H280214   3.313   3.721  14.365  0.1273 -1.2619 -0.2296
19575TIP3   OH280215   4.727   5.797   1.036  0.2557  0.1427  0.2890
19575TIP3    H180216   4.663   5.866   1.057  0.7378  0.6881  0.0117
19575TIP3    H280217   4.756   5.819   0.947 -1.1063 -1.6161 -0.6672
19576TIP3   OH280218   1.244   5.759   0.172 -0.4124 -0.0343  0.0500
19576TIP3    H180219   1.300   5.702   0.119 -0.0480 -0.2161  0.6180
19576TIP3    H280220   1.217   5.704   0.245 -3.9352 -0.9952 -1.7636
19577TIP3   OH280221   1.889   3.888  14.934  0.2721 -0.2283  0.0217
19577TIP3    H180222   1.931   3.886  14.848 -0.3832 -1.3523 -0.2833
19577TIP3    H280223   1.852   3.976  14.940 -0.4652 -0.4289 -1.2420
19578TIP3   OH280224   3.009   0.296  12.468 -0.1709  0.3700  0.1786
19578TIP3    H180225   2.983   0.215  12.424 -1.0109  1.1921 -0.9000
19578TIP3    H280226   3.058   0.345  12.401  1.1144  0.3786  1.0970
19579TIP3   OH280227   6.696   4.947   4.993  0.3723  0.8296 -0.5727
19579TIP3    H180228   6.652   5.012   5.048  0.3944 -1.1198  1.8886
19579TIP3    H280229   6.789   4.967   5.002  0.3537  0.7551 -0.2020
19580TIP3   OH280230   1.104   1.908  12.698 -0.4149  0.1600 -0.3364
19580TIP3    H180231   1.183   1.906  12.644  0.4218 -1.1428  0.8508
19580TIP3    H280232   1.137   1.914  12.788 -1.6791 -0.1200  0.1720
19581TIP3   OH280233   5.001   2.644   0.428  0.0295  0.4492 -0.3342
19581TIP3    H180234   5.065   2.580   0.396  0.4267 -0.2720  1.7414
19581TIP3    H280235   5.032   2.728   0.393  0.0389 -0.3224 -2.3021
19582TIP3   OH280236   5.122   4.062   5.386 -0.0715 -0.2451  0.2530
19582TIP3    H180237   5.102   3.995   5.321  1.2736  0.7553 -1.2640
19582TIP3    H280238   5.040   4.112   5.396 -0.9053 -1.6864  0.9671
19583TIP3   OH280239   3.744   0.361  15.550 -0.1833 -0.2066 -0.2792
19583TIP3    H180240   3.712   0.393  15.634  0.2197  0.2455 -0.2923
19583TIP3    H280241   3.688   0.285  15.530 -0.1203 -0.4722  0.5091
19584TIP3   OH280242   5.281   5.553  13.295  0.3321  0.4767  0.8660
19584TIP3    H180243   5.367   5.521  13.269  0.5219  1.2844  0.4691
19584TIP3    H280244   5.223   5.530  13.222  0.2988  0.3138  0.9440
19585TIP3   OH280245   0.975   5.917  12.986 -0.1226 -0.3448  0.1353
19585TIP3    H180246   0.905   5.902  12.922  0.4715  1.1663 -0.9356
19585TIP3    H280247   1.048   5.865  12.954 -0.0435 -0.1351 -0.0249
19586TIP3   OH280248   1.897   3.480  11.475  0.3928 -0.2420  0.6100
19586TIP3    H180249   1.824   3.431  11.513  1.2141 -0.3398  2.1427
19586TIP3    H280250   1.913   3.551  11.538  1.9531 -0.5458  0.5916
19587TIP3   OH280251   0.285   2.873  13.672 -0.5681  0.0723  0.0392
19587TIP3    H180252   0.290   2.782  13.702 -1.3650 -0.1356 -0.4286
19587TIP3    H280253   0.195   2.883  13.641 -0.6390  1.1890  0.5817
19588TIP3   OH280254   1.463   2.738   5.136  0.4513 -0.3424  0.2584
19588TIP3    H180255   1.368   2.733   5.140  0.4504 -0.4426  0.0975
19588TIP3    H280256   1.481   2.820   5.089  0.4568  0.4308  1.5577
19589TIP3   OH280257   0.255   1.597   2.673  0.3542  0.1150  0.3769
19589TIP3    H180258   0.325   1.582   2.610  0.0676  1.9258 -0.4493
19589TIP3    H280259   0.272   1.685   2.707 -0.9792  0.2025  0.8683
19590TIP3   OH280260   6.728   3.329   3.111 -0.1652  0.4144  0.1731
19590TIP3    H180261   6.729   3.261   3.178  0.7033 -1.7470 -1.8419
19590TIP3    H280262   6.636   3.338   3.087 -0.3081  0.0553  0.5738
19591TIP3   OH280263   2.110   5.710   4.695 -0.4191  0.3351 -0.1718
19591TIP3    H180264   2.102   5.615   4.686 -1.1147  0.4654 -0.9901
19591TIP3    H280265   2.027   5.737   4.735 -1.1194  0.8274 -1.8843
19592TIP3   OH280266   6.431   1.839  10.760  0.3961 -0.1793  0.0872
19592TIP3    H180267   6.383   1.878  10.833  1.4975 -0.6144  1.0742
19592TIP3    H280268   6.459   1.754  10.793  0.5030 -0.5904 -1.0239
19593TIP3   OH280269   6.324   2.118  14.190 -0.6572  0.2928 -0.2540
19593TIP3    H180270   6.374   2.196  14.215  1.1635 -1.2387  1.2592
19593TIP3    H280271   6.384   2.045  14.207 -2.7882 -1.5550 -0.1827
19594TIP3   OH280272   1.798   2.699  16.854  0.4737 -0.2030 -0.2679
19594TIP3    H180273   1.795   2.795  16.845 -2.1091 -0.1425  0.4858
19594TIP3    H280274   1.779   2.684  16.947  2.3735 -1.4577 -0.0339
19595TIP3   OH280275   0.488   2.999  15.973  0.8197 -0.2753 -0.2091
19595TIP3    H180276   0.553   3.062  16.002  1.2399 -1.2890  1.1583
19595TIP3    H280277   0.427   2.991  16.046  0.0962 -0.5814 -0.8253
19596TIP3   OH280278   2.014   1.364  14.428  0.0621  0.4293 -0.0659
19596TIP3    H180279   1.990   1.274  14.411 -0.1705  0.5647 -0.4587
19596TIP3    H280280   2.109   1.367  14.415 -0.0325  0.4035 -0.7853
19597TIP3   OH280281   0.140   3.683   2.899 -0.2323  0.2794 -0.5482
19597TIP3    H180282   0.145   3.589   2.884 -0.7944 -0.0371  1.0445
19597TIP3    H280283   0.069   3.694   2.962  0.6644  1.6176  0.2993
19598TIP3   OH280284   2.427   1.123   2.740 -0.2388  0.1355 -0.5546
19598TIP3    H180285   2.513   1.092   2.768 -0.6920  1.1659  2.2757
19598TIP3    H280286   2.445   1.196   2.681  0.8782  0.8870  0.6747
19599TIP3   OH280287   6.576   1.617   3.431 -0.1589 -0.5232  0.1217
19599TIP3    H180288   6.625   1.612   3.513  1.9331 -0.2271 -1.0534
19599TIP3    H280289   6.555   1.710   3.422  1.0701 -0.2816 -0.4553
19600TIP3   OH280290   3.910   5.572   4.741 -0.1984  0.6295 -0.2705
19600TIP3    H180291   3.858   5.651   4.728 -0.8180 -0.0116 -2.0098
19600TIP3    H280292   3.892   5.519   4.664  0.6326 -0.9778  0.5925
19601TIP3   OH280293   6.089   0.549   4.227  0.2727  0.3687 -0.0129
19601TIP3    H180294   6.016   0.498   4.193  0.5124  0.9597 -1.4936
19601TIP3    H280295   6.148   0.485   4.266 -0.6350 -0.1938  0.4641
19602TIP3   OH280296   6.367   2.482  11.434  0.2967 -0.2481  0.5437
19602TIP3    H180297   6.284   2.486  11.387  1.8434 -1.9254 -2.7112
19602TIP3    H280298   6.405   2.569  11.423 -0.5632  0.2226  1.1824
19603TIP3   OH280299   5.226   5.132  16.218 -0.4504  0.4303 -0.7628
19603TIP3    H180300   5.212   5.110  16.126  0.9069 -1.4538 -0.5781
19603TIP3    H280301   5.298   5.195  16.218 -0.5762  0.5746 -0.9823
19604TIP3   OH280302   2.771   2.955  13.233 -0.1822  0.0365 -0.5704
19604TIP3    H180303   2.853   3.005  13.227 -0.5061  0.4051 -3.0422
19604TIP3    H280304   2.748   2.957  13.325  2.7699 -0.3849  0.2825
19605TIP3   OH280305   2.852   1.217  14.992  0.1676 -0.4865  0.0293
19605TIP3    H180306   2.813   1.158  14.928 -0.6652  1.5142 -1.4478
19605TIP3    H280307   2.794   1.294  14.991  2.2679  1.1799  0.3334
19606TIP3   OH280308   0.912   1.052  11.743 -0.2476  0.3372  0.2195
19606TIP3    H180309   0.936   1.112  11.814  1.2335 -0.0505  0.0815
19606TIP3    H280310   0.959   1.086  11.667 -3.1526  1.7791 -1.0956
19607TIP3   OH280311   0.105   4.022   2.247  0.3598  0.6507 -0.5322
19607TIP3    H180312   0.039   4.029   2.315  1.5754  0.7622  0.6812
19607TIP3    H280313   0.180   4.071   2.281  1.3286 -0.0886 -1.5361
19608TIP3   OH280314   6.165   5.571  14.327 -0.1231  0.2053 -0.4989
19608TIP3    H180315   6.144   5.639  14.391 -0.5993 -0.3449 -0.0553
19608TIP3    H280316   6.188   5.619  14.247 -1.4477  0.8838 -0.5009
19609TIP3   OH280317   4.329   0.591  15.107 -0.4297 -0.1383  0.0459
19609TIP3    H180318   4.380   0.518  15.143 -1.2169 -1.2876 -1.0822
19609TIP3    H280319   4.388   0.634  15.045 -0.4083 -0.6697 -0.3042
19610TIP3   OH280320   3.449   0.686   0.266  0.1004 -0.2643 -0.2424
19610TIP3    H180321   3.399   0.767   0.257 -0.5440 -0.5165  0.9142
19610TIP3    H280322   3.386   0.617   0.247  0.6130 -0.5189 -1.0815
19611TIP3   OH280323   2.251   2.227  11.431  0.1061 -0.1622  0.0339
19611TIP3    H180324   2.208   2.142  11.439 -1.3787  0.6819  1.8713
19611TIP3    H280325   2.343   2.209  11.448 -0.1179 -1.4614 -0.0027
19612TIP3   OH280326   5.066   4.556  12.782  0.1714  0.2900  0.2310
19612TIP3    H180327   4.974   4.531  12.794 -0.8491  2.7219 -1.4621
19612TIP3    H280328   5.098   4.497  12.714  0.8437 -2.4129  2.6993
19613TIP3   OH280329   3.338   0.619   0.774 -0.3684  0.0582 -0.4042
19613TIP3    H180330   3.299   0.536   0.801  0.0304 -0.0162 -0.0513
19613TIP3    H280331   3.432   0.600   0.768 -0.1421  0.7549  0.7260
19614TIP3   OH280332   1.412   4.962   4.323  0.0140  0.2057  0.0034
19614TIP3    H180333   1.321   4.991   4.322 -0.1635 -0.2054  1.4162
19614TIP3    H280334   1.460   5.031   4.277 -0.6115  1.9982  1.8546
19615TIP3   OH280335   5.284   0.000   6.474  0.1572  0.0775  0.6294
19615TIP3    H180336   5.297  -0.059   6.548 -0.6612  2.4398  2.7796
19615TIP3    H280337   5.334   0.079   6.497  0.6934  0.5400 -1.8263
19616TIP3   OH280338   2.776   5.386  13.175  0.0129  0.1662 -0.3874
19616TIP3    H180339   2.810   5.375  13.086 -1.0867 -1.2811 -0.6561
19616TIP3    H280340   2.761   5.480  13.183  1.8566  0.5678 -1.0542
19617TIP3   OH280341   6.078   2.226  15.157  0.0676  0.1022  0.4624
19617TIP3    H180342   6.163   2.227  15.200  0.3869 -0.7659 -0.1215
19617TIP3    H280343   6.022   2.279  15.213  1.2896  1.7207  0.2251
19618TIP3   OH280344   3.835   2.120  15.835 -0.3330 -0.0183  0.3438
19618TIP3    H180345   3.785   2.128  15.916 -0.1112 -2.5061  0.7999
19618TIP3    H280346   3.921   2.156  15.855 -0.8190  0.9961  0.6510
19619TIP3   OH280347   4.102   0.181  11.204 -0.1838  0.2782  0.1097
19619TIP3    H180348   4.158   0.245  11.161  0.0479 -0.5663 -0.8970
19619TIP3    H280349   4.162   0.114  11.236 -0.5680 -0.4642 -0.6790
19620TIP3   OH280350   4.277   2.814  11.419  0.1010 -0.3983 -0.4352
19620TIP3    H180351   4.269   2.772  11.333 -0.2074 -1.0908 -0.0699
19620TIP3    H280352   4.275   2.742  11.481 -0.0817  0.1331  0.1799
19621TIP3   OH280353   0.552   4.621   6.047 -0.4810 -0.6236  0.1405
19621TIP3    H180354   0.516   4.689   5.991 -0.1571 -0.2553  0.3752
19621TIP3    H280355   0.642   4.648   6.065  0.2026 -1.9450 -1.0956
19622TIP3   OH280356   3.053   1.796   0.832  0.4997  0.1676 -0.3398
19622TIP3    H180357   3.045   1.881   0.875  1.3382 -0.2432  0.6593
19622TIP3    H280358   2.974   1.748   0.859  0.8975  0.0028  0.5735
19623TIP3   OH280359   3.000   3.707   4.730 -0.1340  0.1720 -0.3518
19623TIP3    H180360   2.973   3.759   4.805  0.2883  0.0556 -0.1176
19623TIP3    H280361   3.038   3.770   4.669  0.9044  0.0664  0.1765
19624TIP3   OH280362   5.615   0.236  12.872  0.3014  0.1907 -0.2418
19624TIP3    H180363   5.640   0.148  12.901  0.2636  0.2514 -0.0228
19624TIP3    H280364   5.573   0.222  12.787  1.6077  0.1421 -0.9066
19625TIP3   OH280365   4.806   1.617  14.400 -0.4750 -0.3688 -0.3898
19625TIP3    H180366   4.812   1.606  14.495 -0.5554 -0.3011 -0.3765
19625TIP3    H280367   4.897   1.625  14.371 -0.4246 -0.8306 -0.3736
19626TIP3   OH280368   1.980   2.845   0.400 -0.0554  0.0768  0.1799
19626TIP3    H180369   1.988   2.898   0.322  0.5061 -1.0801 -0.5816
19626TIP3    H280370   1.991   2.906   0.473  0.5434  0.9926 -0.6621
19627TIP3   OH280371   0.557   4.230  14.901  0.3463  0.5099 -0.0980
19627TIP3    H180372   0.539   4.321  14.924 -0.8516  0.3472 -0.3201
19627TIP3    H280373   0.633   4.234  14.842 -1.2860  1.6384 -2.2506
19628TIP3   OH280374   3.140   0.914   0.383 -0.1439  0.1544  0.5321
19628TIP3    H180375   3.055   0.871   0.373  0.0977 -0.0894 -0.7020
19628TIP3    H280376   3.185   0.863   0.450 -0.5396 -0.4306  0.3635
19629TIP3   OH280377   6.501   4.375  13.215 -0.2475  0.0190 -0.0476
19629TIP3    H180378   6.554   4.369  13.136 -1.2083 -0.5720 -0.6658
19629TIP3    H280379   6.442   4.449  13.199 -0.3448 -0.0088  0.1796
19630TIP3   OH280380   3.555   1.526   0.851  0.0035 -0.1203 -0.2265
19630TIP3    H180381   3.576   1.448   0.800  0.8704 -0.6408  0.8747
19630TIP3    H280382   3.460   1.528   0.855 -0.0265 -0.9771 -0.4722
19631TIP3   OH280383   3.149   6.745  14.002  0.1536 -0.1385  0.0866
19631TIP3    H180384   3.190   6.674  13.953  0.8631 -0.2215  0.7739
19631TIP3    H280385   3.221   6.785  14.051 -0.6447 -0.6072  1.7139
19632TIP3   OH280386   4.898   3.147   2.338 -0.4529  0.0501  0.7746
19632TIP3    H180387   4.849   3.088   2.395 -1.4495  0.5962  0.5033
19632TIP3    H280388   4.832   3.190   2.284  0.5286 -1.4282 -1.7760
19633TIP3   OH280389   0.460   4.396  13.208 -0.3466 -0.4086  0.2470
19633TIP3    H180390   0.549   4.362  13.201 -0.3499 -0.5186  0.6920
19633TIP3    H280391   0.422   4.381  13.121 -0.0443 -0.6779  0.1587
19634TIP3   OH280392   4.740   1.978  14.227 -0.7598  0.0444 -0.5904
19634TIP3    H180393   4.750   2.030  14.306 -0.6162  1.9061 -1.7902
19634TIP3    H280394   4.821   1.992  14.178 -1.4638  0.1484 -1.7582
19635TIP3   OH280395   3.270   1.216  16.097  0.0998 -0.1318 -0.4898
19635TIP3    H180396   3.297   1.298  16.056 -0.2772  0.5426  0.5741
19635TIP3    H280397   3.190   1.191  16.051  0.8521 -0.5600 -1.6229
19636TIP3   OH280398   5.058   4.401  11.833 -0.2818  0.4768  0.2755
19636TIP3    H180399   5.041   4.491  11.805  0.3195  0.3366 -0.5763
19636TIP3    H280400   5.065   4.351  11.752  0.8380 -0.0648  0.6751
19637TIP3   OH280401   2.786   5.084   6.173  0.1120  0.5250  0.4516
19637TIP3    H180402   2.813   5.112   6.261  1.1769 -0.0334  0.3239
19637TIP3    H280403   2.711   5.027   6.189 -0.8846  1.9132  0.8459
19638TIP3   OH280404   5.414   5.981   4.429 -0.0046 -0.3363  0.1744
19638TIP3    H180405   5.457   5.914   4.481 -0.8027 -0.9505  0.0637
19638TIP3    H280406   5.482   6.014   4.370  0.1559 -1.7405 -0.4498
19639TIP3   OH280407   3.782   2.075   3.336 -0.0446 -0.0726 -0.5195
19639TIP3    H180408   3.853   2.080   3.273 -0.6486  1.1156 -1.1309
19639TIP3    H280409   3.812   2.011   3.401  0.1043 -2.2288 -2.5855
19640TIP3   OH280410   0.003   5.419   2.222  0.0783 -0.2679 -0.4905
19640TIP3    H180411  -0.015   5.508   2.252  0.5211 -0.8396  1.5841
19640TIP3    H280412   0.092   5.423   2.186  0.7994 -0.2260  1.2405
19641TIP3   OH280413   2.478   1.714  16.676 -0.6691  0.4280  0.4414
19641TIP3    H180414   2.496   1.632  16.723 -0.0903  0.8758  1.0224
19641TIP3    H280415   2.551   1.723  16.615 -1.3891 -0.1203 -0.5202
19642TIP3   OH280416   2.784   5.551  16.710 -0.5550 -0.2196  0.2628
19642TIP3    H180417   2.836   5.497  16.651 -0.0034  0.5836  0.0004
19642TIP3    H280418   2.830   5.635  16.714 -2.1581  0.7578 -0.5106
19643TIP3   OH280419   0.302   5.717   5.430  0.3296  0.0774  0.0488
19643TIP3    H180420   0.290   5.650   5.497  0.7827  0.8295  0.9141
19643TIP3    H280421   0.292   5.800   5.477  1.1106  0.6272 -0.7188
19644TIP3   OH280422   1.108   1.659   6.542 -0.2194 -0.5603 -0.1370
19644TIP3    H180423   1.139   1.574   6.512 -1.4217 -1.3378  0.7419
19644TIP3    H280424   1.013   1.653   6.537 -0.3348  0.5356  0.4547
19645TIP3   OH280425   3.497   5.109   0.645 -0.6947  0.4994 -0.0224
19645TIP3    H180426   3.582   5.125   0.606  0.9012 -2.2399  1.9989
19645TIP3    H280427   3.466   5.028   0.604 -1.2814  0.2697  0.8445
19646TIP3   OH280428   2.390   1.313   1.773 -0.0842 -0.3861  0.6451
19646TIP3    H180429   2.461   1.354   1.822  0.0591 -1.1893  1.1218
19646TIP3    H280430   2.316   1.312   1.833 -0.1020 -0.7808  0.6166
19647TIP3   OH280431   6.046   0.653   0.940  0.2224  0.3704  0.0723
19647TIP3    H180432   6.107   0.621   0.874 -2.5434  0.0693 -2.5309
19647TIP3    H280433   6.037   0.579   1.001  0.6036 -0.4959 -0.8868
19648TIP3   OH280434   0.681   6.471  12.245 -0.0556  0.5634  0.6109
19648TIP3    H180435   0.588   6.467  12.266 -0.3249  1.3900 -0.3704
19648TIP3    H280436   0.692   6.414  12.169  0.3243  0.1220  0.9915
19649TIP3   OH280437   4.912   3.761   4.843 -0.3382  0.1848 -0.2907
19649TIP3    H180438   4.902   3.827   4.774 -1.2016 -0.1765 -0.5336
19649TIP3    H280439   4.997   3.721   4.827 -0.1380  0.7280 -0.5944
19650TIP3   OH280440   0.812   2.284  11.584  0.4399  0.4958 -0.0543
19650TIP3    H180441   0.893   2.268  11.633  1.6358  2.6551 -1.1622
19650TIP3    H280442   0.813   2.219  11.514 -0.2818 -1.3369  1.5745
19651TIP3   OH280443   0.754   5.155  16.596  0.0122  0.0869 -0.1320
19651TIP3    H180444   0.727   5.177  16.685  0.2302 -0.4926  0.0780
19651TIP3    H280445   0.778   5.239  16.557 -3.8519  1.0241 -0.9778
19652TIP3   OH280446   2.833   3.571   4.559 -0.1533  0.3139 -0.0126
19652TIP3    H180447   2.808   3.480   4.572  0.8863 -0.2796 -1.7721
19652TIP3    H280448   2.897   3.589   4.629  1.6936 -1.2124 -1.2141
19653TIP3   OH280449   3.315   4.629  15.582 -0.0053 -0.4470 -0.0593
19653TIP3    H180450   3.244   4.625  15.518 -0.1910 -0.9872  0.1750
19653TIP3    H280451   3.275   4.670  15.659  0.4358  0.9884 -0.5528
19654TIP3   OH280452   3.112   4.808   3.288  0.0375  0.3493  0.4281
19654TIP3    H180453   3.121   4.877   3.354  1.3295  0.2244  0.4122
19654TIP3    H280454   3.173   4.740   3.316  0.2264  0.0731 -0.6197
19655TIP3   OH280455   5.040   1.292   4.064 -0.2927  0.1362 -0.6037
19655TIP3    H180456   5.091   1.373   4.064 -1.4092  0.8628 -0.3636
19655TIP3    H280457   4.998   1.290   3.978 -0.6845  0.0822 -0.4121
19656TIP3   OH280458   5.411   0.809   2.873 -0.1806 -0.1079 -0.1573
19656TIP3    H180459   5.486   0.779   2.923  0.9326 -1.8923 -2.6451
19656TIP3    H280460   5.423   0.903   2.864  0.4383 -0.0157  1.4850
19657TIP3   OH280461   5.277   0.216  14.737 -0.9150  0.4218  0.8010
19657TIP3    H180462   5.233   0.156  14.797 -0.9385 -0.1083  0.2735
19657TIP3    H280463   5.205   0.264  14.695 -0.8871  0.9671  1.3637
19658TIP3   OH280464   4.290   6.589   0.737 -0.1857 -0.0436 -0.2580
19658TIP3    H180465   4.324   6.513   0.783 -1.0237 -1.4896 -1.8729
19658TIP3    H280466   4.327   6.582   0.649 -0.2395  1.4635 -0.4207
19659TIP3   OH280467   6.338   2.716   2.725 -0.2172  0.1551  0.9774
19659TIP3    H180468   6.322   2.765   2.806 -0.9259  0.6317  0.5555
19659TIP3    H280469   6.424   2.746   2.696 -0.3254  0.6098  1.1114
19660TIP3   OH280470   2.028   3.154   3.755 -0.3688  0.2380  0.0070
19660TIP3    H180471   2.095   3.221   3.765 -1.4032  1.1441  1.3569
19660TIP3    H280472   2.005   3.130   3.845 -2.4817  0.6491 -0.3644
19661TIP3   OH280473   0.863   4.226   5.654  0.1401 -0.2337 -0.4519
19661TIP3    H180474   0.792   4.289   5.662  0.1515 -0.2176 -0.4787
19661TIP3    H280475   0.940   4.279   5.633  0.1466 -0.2576 -0.4890
19662TIP3   OH280476   1.453   0.404  15.321  0.0199 -0.4380 -0.0513
19662TIP3    H180477   1.361   0.423  15.340 -0.4372 -1.5131 -1.0091
19662TIP3    H280478   1.479   0.470  15.257 -0.2161 -0.3849 -0.0911
19663TIP3   OH280479   0.047   1.938  14.728 -0.0129  0.0624  0.1757
19663TIP3    H180480   0.129   1.984  14.744  0.0903 -0.0758  0.0453
19663TIP3    H280481   0.064   1.883  14.651  0.1383 -0.8335  0.8262
19664TIP3   OH280482   5.083   4.602   0.046 -0.3640 -0.1415  0.0361
19664TIP3    H180483   5.127   4.687   0.044  2.0926 -1.3549 -0.4989
19664TIP3    H280484   5.042   4.599   0.133 -0.7483  1.6680 -0.0349
19665TIP3   OH280485   0.893   2.341  13.744  0.4667  0.0961  0.1661
19665TIP3    H180486   0.883   2.380  13.832  0.6716  2.5947 -0.8260
19665TIP3    H280487   0.985   2.316  13.740  0.1518 -1.3822  1.1147
19666TIP3   OH280488   0.007   3.465   1.649  0.4875  0.4772  0.1553
19666TIP3    H180489  -0.053   3.396   1.677  0.3290  0.9072  0.9083
19666TIP3    H280490   0.033   3.508   1.730 -1.3547  2.8991 -0.4193
19667TIP3   OH280491   0.764   3.392  12.950 -0.2073 -0.0455  0.2799
19667TIP3    H180492   0.832   3.437  12.899  0.8144  0.0513  1.6589
19667TIP3    H280493   0.736   3.456  13.015 -1.5027 -0.1601 -0.1386
19668TIP3   OH280494   6.472   4.427  15.844 -0.3284  0.0185  0.1184
19668TIP3    H180495   6.509   4.402  15.759 -0.0499  1.0727 -0.0745
19668TIP3    H280496   6.547   4.426  15.904 -0.7256 -1.9798  0.6686
19669TIP3   OH280497   2.486   6.309  11.552  0.0688 -0.4960 -0.0379
19669TIP3    H180498   2.430   6.266  11.616 -1.7678  0.2741 -1.0566
19669TIP3    H280499   2.533   6.375  11.602 -0.2343 -0.8716  0.7652
19670TIP3   OH280500   2.974   6.288  15.831  0.3129  0.0035  0.2840
19670TIP3    H180501   3.060   6.329  15.828  0.1140  0.3662 -1.5448
19670TIP3    H280502   2.931   6.317  15.751 -1.7950  0.4367  1.4911
19671TIP3   OH280503   6.052   1.378  11.003 -0.0676 -0.0630 -0.1440
19671TIP3    H180504   6.003   1.456  11.028  0.2301  0.2560 -0.5362
19671TIP3    H280505   6.058   1.327  11.083  0.6914  0.8388  0.3936
19672TIP3   OH280506   1.732   1.404  12.429  0.2283  0.4936  0.0562
19672TIP3    H180507   1.719   1.498  12.436  0.2600  0.6318 -1.4268
19672TIP3    H280508   1.695   1.369  12.510 -1.4170  1.6309 -0.1531
19673TIP3   OH280509   1.679   4.566  12.428 -0.8457  0.0780  0.2224
19673TIP3    H180510   1.647   4.656  12.422  2.1184  1.1946 -1.0496
19673TIP3    H280511   1.725   4.563  12.512 -3.1918 -1.1769  1.5517
19674TIP3   OH280512   4.799   3.442  15.390  0.5689  0.4715 -0.0316
19674TIP3    H180513   4.789   3.351  15.363  0.1144  0.5843 -0.2478
19674TIP3    H280514   4.756   3.493  15.322  1.2673  0.8862 -0.1741
19675TIP3   OH280515   6.311   6.230   1.260 -0.4032  0.2541  0.5611
19675TIP3    H180516   6.261   6.202   1.183  1.0713  0.0957 -0.3760
19675TIP3    H280517   6.395   6.259   1.224 -0.3237  1.8525  1.9440
19676TIP3   OH280518   6.040   0.323  15.459 -1.0263  0.3684 -0.0034
19676TIP3    H180519   6.082   0.272  15.528 -0.0721 -0.0498 -0.8676
19676TIP3    H280520   6.039   0.413  15.492 -2.7539 -0.1611  1.5421
19677TIP3   OH280521   4.811   2.789   0.194  0.4447 -0.1207  0.5577
19677TIP3    H180522   4.789   2.698   0.214  0.3602  0.1538  1.8371
19677TIP3    H280523   4.905   2.795   0.208  0.4987 -0.0781  0.1827
19678TIP3   OH280524   5.934   4.220  15.006 -0.0087 -0.6248 -0.4632
19678TIP3    H180525   5.922   4.312  15.030 -2.2165 -0.0507 -3.2479
19678TIP3    H280526   5.919   4.172  15.088  2.4141  1.4258  1.3608
19679TIP3   OH280527   5.479   2.522  14.889  0.4206  0.0725 -0.6579
19679TIP3    H180528   5.504   2.611  14.866 -0.3325  0.5381  0.2542
19679TIP3    H280529   5.438   2.530  14.974  2.3870 -1.4736  0.5294
19680TIP3   OH280530   0.137   2.778   2.348  0.1637 -0.7888  0.3994
19680TIP3    H180531   0.089   2.826   2.415 -1.0973 -1.9522  0.3804
19680TIP3    H280532   0.197   2.842   2.310  0.7380 -0.0314  2.4439
19681TIP3   OH280533   2.563   0.992  11.863  0.3006  0.0165  0.1724
19681TIP3    H180534   2.480   0.960  11.897  0.5866 -0.1093  0.7686
19681TIP3    H280535   2.581   1.072  11.913  0.7076 -0.1496  0.2997
19682TIP3   OH280536   6.431   3.535   1.370  0.2388 -0.6597 -0.3144
19682TIP3    H180537   6.463   3.479   1.300 -0.2697 -0.1246 -0.9898
19682TIP3    H280538   6.424   3.477   1.446  4.4349 -0.5014  0.4319
19683TIP3   OH280539   0.421   5.449  13.896  0.6540  0.3334  0.1197
19683TIP3    H180540   0.364   5.398  13.953  1.4300 -0.4305  0.2410
19683TIP3    H280541   0.450   5.387  13.828  0.7651  0.8911 -0.3563
19684TIP3   OH280542   4.223   0.580  10.729  0.1410  0.1034  0.1895
19684TIP3    H180543   4.160   0.533  10.782  1.5833 -0.5567  1.3853
19684TIP3    H280544   4.266   0.639  10.791  0.2340  1.0414 -0.7449
19685TIP3   OH280545   0.169   0.042  11.687 -0.0691 -0.0242  0.2364
19685TIP3    H180546   0.167   0.135  11.665 -0.6812 -0.0614  0.1295
19685TIP3    H280547   0.097   0.031  11.749 -1.6827 -0.9127 -1.6912
19686TIP3   OH280548   5.777   4.512   4.125  0.3360 -0.8444 -0.8644
19686TIP3    H180549   5.834   4.457   4.179  1.0972 -1.2586 -2.0475
19686TIP3    H280550   5.836   4.566   4.074 -0.4023  1.3354  0.4575
19687TIP3   OH280551   3.698   6.349  15.434  0.4784 -0.6932 -0.1669
19687TIP3    H180552   3.607   6.333  15.408 -0.5125  2.1585  1.1457
19687TIP3    H280553   3.738   6.390  15.357  0.7867 -2.1658 -0.8296
19688TIP3   OH280554   2.973   5.995  14.684 -0.4343 -0.2564  0.5816
19688TIP3    H180555   2.888   6.003  14.726 -1.3690 -3.0489 -0.5148
19688TIP3    H280556   3.015   5.920  14.727  1.0849  0.4867  0.4703
19689TIP3   OH280557   4.905   1.981  14.551  0.4297 -0.2475 -0.0831
19689TIP3    H180558   4.944   2.059  14.511  0.2680 -0.2895 -0.3229
19689TIP3    H280559   4.975   1.945  14.606  0.8114 -0.4503 -0.6941
19690TIP3   OH280560   4.101   1.029  15.030 -0.0392 -0.5245 -0.1922
19690TIP3    H180561   4.015   0.990  15.045 -0.0836 -0.3841 -0.0808
19690TIP3    H280562   4.163   0.960  15.053 -0.1104 -0.3695  0.4654
19691TIP3   OH280563   4.161   2.152   3.423  0.0210  0.0703  0.1068
19691TIP3    H180564   4.203   2.234   3.396 -0.4332  0.7443  1.3665
19691TIP3    H280565   4.113   2.123   3.345 -2.1297  2.5016  0.4117
19692TIP3   OH280566   2.713   2.879   1.505  0.3957  0.2079  0.2842
19692TIP3    H180567   2.686   2.892   1.414 -2.4433 -1.6461  0.7377
19692TIP3    H280568   2.740   2.788   1.509 -3.5523 -1.0810  2.0142
19693TIP3   OH280569   4.236   1.609  13.306 -0.0401  0.0505  0.2890
19693TIP3    H180570   4.279   1.528  13.334 -0.8115 -0.4537  0.0483
19693TIP3    H280571   4.306   1.663  13.270  0.5003 -0.4565  0.5711
19694TIP3   OH280572   6.642   6.573   3.266  0.4499  0.3665  0.7006
19694TIP3    H180573   6.721   6.625   3.272  0.4180  0.6183 -0.7302
19694TIP3    H280574   6.570   6.637   3.273  0.3832  0.2762  0.8557
19695TIP3   OH280575   4.248   0.665  15.367  0.0188 -0.0852 -0.1457
19695TIP3    H180576   4.225   0.693  15.455  0.3476  1.0354 -0.4062
19695TIP3    H280577   4.203   0.581  15.356 -1.8683  0.8312  0.2621
19696TIP3   OH280578   1.524   1.695   4.265  0.2304 -0.0195  0.5134
19696TIP3    H180579   1.508   1.733   4.351  0.7728 -1.1127  1.1112
19696TIP3    H280580   1.500   1.764   4.203 -1.5509  0.2892  1.4856
19697TIP3   OH280581   1.477   6.368  16.711 -0.2620 -0.7794  0.2390
19697TIP3    H180582   1.399   6.312  16.706 -0.1409 -0.8958 -0.4169
19697TIP3    H280583   1.522   6.353  16.628  0.4999 -0.7653  0.6496
19698TIP3   OH280584   1.705   3.633  13.481 -0.5854  0.6529 -0.4112
19698TIP3    H180585   1.770   3.577  13.524 -1.4037 -0.5121 -0.6362
19698TIP3    H280586   1.720   3.720  13.517  0.0029  0.0771  0.7824
19699TIP3   OH280587   2.588   3.853   6.289 -0.3341  0.4055  0.6402
19699TIP3    H180588   2.595   3.765   6.253  0.6191  0.9910 -0.6766
19699TIP3    H280589   2.568   3.840   6.382 -2.1097 -1.1582  0.0761
19700TIP3   OH280590   2.162   3.515   5.257  0.2189 -0.9209 -0.1648
19700TIP3    H180591   2.205   3.588   5.301  0.4230 -1.1869  0.0867
19700TIP3    H280592   2.094   3.486   5.319  0.6436 -1.4288  0.0743
19701TIP3   OH280593   5.758   4.886   0.221 -0.1175 -0.0344  0.2917
19701TIP3    H180594   5.687   4.895   0.284 -0.0862 -0.5449  0.4064
19701TIP3    H280595   5.780   4.976   0.196  0.4848  0.2247  1.6741
19702TIP3   OH280596   2.524   3.529   5.944 -0.3806  0.1391 -0.0870
19702TIP3    H180597   2.534   3.540   6.038  1.0546 -1.6272  0.0148
19702TIP3    H280598   2.611   3.504   5.913 -0.7341  1.0199 -1.9543
19703TIP3   OH280599   1.728   0.751  14.786 -0.4710 -0.0465  0.1455
19703TIP3    H180600   1.770   0.829  14.751 -0.0973 -0.3357 -0.0549
19703TIP3    H280601   1.664   0.726  14.719  0.1503 -0.5222 -0.2704
19704TIP3   OH280602   2.361   0.942  14.750 -0.6958  0.5896  0.5585
19704TIP3    H180603   2.354   0.991  14.832 -1.2508  1.5849 -0.0534
19704TIP3    H280604   2.302   0.988  14.690 -0.9728 -0.6450 -0.1512
19705TIP3   OH280605   6.553   5.870   0.049 -0.2890  0.3288  0.8413
19705TIP3    H180606   6.626   5.920   0.013 -1.1282  0.7988 -0.2567
19705TIP3    H280607   6.558   5.785   0.004 -1.0180  0.7282 -0.0290
19706TIP3   OH280608   0.621   5.280  12.807 -0.5745  0.3935 -0.3836
19706TIP3    H180609   0.554   5.329  12.761 -3.3136 -0.9508  1.8821
19706TIP3    H280610   0.611   5.306  12.899  3.6964  1.9149 -0.1198
19707TIP3   OH280611   0.246   2.296  11.595 -0.2010 -0.9877  0.1104
19707TIP3    H180612   0.214   2.302  11.505 -0.7617  2.3603  0.3792
19707TIP3    H280613   0.338   2.271  11.587 -0.4011 -1.3384 -1.3525
19708TIP3   OH280614   1.141   3.611  14.407 -0.2755 -0.2622 -0.6737
19708TIP3    H180615   1.094   3.657  14.337 -1.1910  0.9973  0.6912
19708TIP3    H280616   1.093   3.634  14.487  0.3869 -2.1134  0.3150
19709TIP3   OH280617   4.999   0.060  15.115  0.3406 -0.0492 -0.0746
19709TIP3    H180618   4.982  -0.033  15.134 -1.6602 -0.0559 -1.5986
19709TIP3    H280619   4.974   0.105  15.196  0.4620 -0.7670  0.3711
19710TIP3   OH280620   1.665   4.685   3.008  0.2593  0.0005  0.3836
19710TIP3    H180621   1.642   4.592   3.002 -0.3792  0.2226 -1.1020
19710TIP3    H280622   1.755   4.689   2.976  0.1122 -0.0526 -0.0461
19711TIP3   OH280623   0.919   5.771  13.927 -0.0721  0.0674  0.4835
19711TIP3    H180624   0.842   5.717  13.943  0.4410 -0.8380 -0.0472
19711TIP3    H280625   0.951   5.743  13.841 -0.3176  1.8519 -0.2292
19712TIP3   OH280626   2.737   1.085   3.969  0.1492 -0.7866 -0.8116
19712TIP3    H180627   2.745   1.166   4.018 -0.5233 -0.7137 -0.8120
19712TIP3    H280628   2.822   1.075   3.925  1.0774 -1.2973  1.0069
19713TIP3   OH280629   3.063   2.722  15.645 -1.0395  0.2870 -0.0345
19713TIP3    H180630   3.049   2.725  15.550  1.4363  1.5915 -0.4585
19713TIP3    H280631   2.976   2.709  15.682 -1.9817 -1.3219 -2.5009
19714TIP3   OH280632   4.000   2.116  16.140  0.2679 -0.0889 -0.1365
19714TIP3    H180633   3.979   2.192  16.086  0.7232 -0.7118 -1.2048
19714TIP3    H280634   3.982   2.040  16.085  0.3246 -0.7607  0.7345
19715TIP3   OH280635   6.697   4.946   1.286 -0.5475 -0.2249  0.0875
19715TIP3    H180636   6.714   5.013   1.220  0.5945 -1.8381 -1.3604
19715TIP3    H280637   6.609   4.967   1.319 -0.3914  1.7191 -0.5836
19716TIP3   OH280638   4.927   0.312  12.753  0.3723 -0.7489  0.6663
19716TIP3    H180639   4.876   0.326  12.833 -0.4610  0.7547 -0.0963
19716TIP3    H280640   5.018   0.322  12.781  0.1111 -0.5815  1.4883
19717TIP3   OH280641   1.724   4.143  10.544  0.8222 -0.1507  0.3061
19717TIP3    H180642   1.661   4.213  10.559  0.2316 -0.7887  0.8454
19717TIP3    H280643   1.798   4.186  10.501 -0.1213  0.5419 -0.6690
19718TIP3   OH280644   6.566   5.209  11.254 -0.4908  0.3206  0.1004
19718TIP3    H180645   6.479   5.181  11.226  0.1224 -2.7504  0.8610
19718TIP3    H280646   6.605   5.248  11.175 -0.8906 -2.7350 -1.7855
19719TIP3   OH280647   4.498   2.414  14.511  0.2988  0.1886  0.4661
19719TIP3    H180648   4.593   2.406  14.524  0.4853  0.1426 -0.7669
19719TIP3    H280649   4.478   2.504  14.539  0.7696  0.3209  0.3873
19720TIP3   OH280650   2.053   1.874  14.598  0.4248 -0.1761 -0.7187
19720TIP3    H180651   2.030   1.783  14.579 -0.6805 -0.1845  0.5162
19720TIP3    H280652   2.030   1.887  14.690  3.0657  0.6232 -0.0894
19721TIP3   OH280653   0.480   6.729  12.253 -0.4708 -0.3052 -0.2509
19721TIP3    H180654   0.482   6.692  12.165 -1.6000 -0.3927 -0.2582
19721TIP3    H280655   0.387   6.740  12.272 -0.2086  1.0221  0.3837
19722TIP3   OH280656   1.024   0.819  11.841  0.1864  0.6431  0.2050
19722TIP3    H180657   0.971   0.893  11.810 -3.0808 -0.8260  1.7754
19722TIP3    H280658   1.023   0.757  11.768 -1.1578  0.2373  0.5419
19723TIP3   OH280659   1.488   1.955   1.779 -0.1214 -0.0173 -0.5469
19723TIP3    H180660   1.518   1.881   1.832  1.6555  1.4946  0.6997
19723TIP3    H280661   1.450   2.016   1.842 -0.4980  0.6505 -1.3937
19724TIP3   OH280662   0.063   0.754  15.534 -0.1124  0.2111 -0.2463
19724TIP3    H180663   0.087   0.668  15.498 -0.9523 -0.1815  0.1180
19724TIP3    H280664   0.110   0.759  15.617 -1.3238 -0.6102  0.5237
19725TIP3   OH280665   3.441   5.607  12.302 -1.0272 -0.0772 -0.0034
19725TIP3    H180666   3.497   5.572  12.371 -0.0865  0.4831 -0.4608
19725TIP3    H280667   3.352   5.598  12.336 -0.6339 -0.5986  0.9122
19726TIP3   OH280668   5.924   4.611   4.574  0.2265 -0.0690  0.2299
19726TIP3    H180669   5.990   4.647   4.515  2.8852 -2.3462  1.5325
19726TIP3    H280670   5.861   4.568   4.517  0.2289  1.5393 -1.0579
19727TIP3   OH280671   2.135   6.211   0.641  0.1729  0.0257 -0.0147
19727TIP3    H180672   2.128   6.292   0.691  1.1586 -0.4503  0.9317
19727TIP3    H280673   2.102   6.143   0.701 -1.1639 -0.2297 -0.9861
19728TIP3   OH280674   0.204   3.152  11.682 -0.1486  0.0086 -0.3111
19728TIP3    H180675   0.178   3.088  11.617  0.5655  0.8125 -1.4224
19728TIP3    H280676   0.182   3.237  11.643  0.7718  0.5291  0.2534
19729TIP3   OH280677   5.793   0.784  15.189  0.8620  0.0194  0.2657
19729TIP3    H180678   5.833   0.865  15.158 -0.2214 -0.2077 -1.9718
19729TIP3    H280679   5.701   0.807  15.206  0.3709 -0.8044 -1.0424
19730TIP3   OH280680   3.594   2.372  12.285  0.1702  0.5017 -0.1564
19730TIP3    H180681   3.524   2.316  12.250 -0.2651  0.1119  1.2907
19730TIP3    H280682   3.548   2.447  12.322  0.5896  0.6612  0.0400
19731TIP3   OH280683   2.359   3.777   0.740 -0.1676  0.4624  0.3632
19731TIP3    H180684   2.367   3.755   0.647  0.9174 -2.3970  1.0316
19731TIP3    H280685   2.266   3.798   0.752 -1.0681 -2.3718 -0.8240
19732TIP3   OH280686   5.161   6.207  16.010  0.5513  0.3441 -0.1337
19732TIP3    H180687   5.252   6.232  15.991  1.0395 -0.9443  0.3955
19732TIP3    H280688   5.168   6.148  16.085 -0.7933  0.6941  0.3002
19733TIP3   OH280689   5.186   2.347  15.613  0.0734  0.4805  0.2192
19733TIP3    H180690   5.276   2.327  15.637  0.8369  3.6480  0.4671
19733TIP3    H280691   5.137   2.334  15.694  0.9029  1.7178  0.9517
19734TIP3   OH280692   4.446   5.625   2.862 -0.6864  0.4788 -0.5860
19734TIP3    H180693   4.404   5.708   2.840  1.2415  1.5329 -0.5139
19734TIP3    H280694   4.470   5.587   2.777  0.7264  1.2731 -0.5648
19735TIP3   OH280695   6.508   4.317   2.845  0.2139  0.3004  0.4249
19735TIP3    H180696   6.549   4.244   2.800  0.7601  0.8409  0.0354
19735TIP3    H280697   6.429   4.337   2.794  0.2417  0.1994  0.3448
19736TIP3   OH280698   3.363   2.775  12.712  0.1156  0.6017 -0.3907
19736TIP3    H180699   3.330   2.686  12.713 -1.6035  1.1759  1.5859
19736TIP3    H280700   3.339   2.809  12.626  1.0170 -0.8711 -1.2592
19737TIP3   OH280701   1.669   3.768   0.945 -0.4759  0.0259 -0.6180
19737TIP3    H180702   1.752   3.768   0.993  0.2405  1.7765 -1.7146
19737TIP3    H280703   1.602   3.760   1.012  0.5307  0.7378  0.5253
19738TIP3   OH280704   3.269   1.246  12.674 -0.1395 -0.3367  0.4060
19738TIP3    H180705   3.251   1.302  12.599 -0.9594 -1.3116 -0.1503
19738TIP3    H280706   3.348   1.283  12.713  0.6058 -0.0995 -1.2267
19739TIP3   OH280707   3.869   2.220   3.967 -0.1109 -0.6121 -0.4331
19739TIP3    H180708   3.946   2.174   4.001 -1.6344 -2.0408  1.2516
19739TIP3    H280709   3.825   2.157   3.910 -0.2965  0.0342 -1.0211
19740TIP3   OH280710   0.706   4.374  15.763  0.2159 -0.1570  0.0119
19740TIP3    H180711   0.674   4.354  15.675  1.2466 -1.7657 -0.0285
19740TIP3    H280712   0.641   4.334  15.821 -0.4831  0.9342  0.0227
19741TIP3   OH280713   5.388   4.502  12.889  0.1008  0.1351  0.0997
19741TIP3    H180714   5.427   4.494  12.802 -0.0835  0.2022  0.0101
19741TIP3    H280715   5.297   4.526  12.872  0.1020  0.2926  0.3144
19742TIP3   OH280716   2.606   4.073  10.325 -0.5799 -0.1327 -0.0086
19742TIP3    H180717   2.690   4.035  10.351 -0.7604 -0.4956  0.0549
19742TIP3    H280718   2.541   4.012  10.360 -0.8742  0.2405  0.1001
19743TIP3   OH280719   1.782   1.948  13.339  0.1298 -0.2012  0.3079
19743TIP3    H180720   1.783   1.908  13.251 -0.2137  0.9085 -0.2179
19743TIP3    H280721   1.872   1.937  13.371 -0.1135 -1.9910  0.4775
19744TIP3   OH280722   2.433   1.505  12.701 -0.0379  0.4555  0.0365
19744TIP3    H180723   2.422   1.555  12.621  3.4044 -0.6055 -1.3317
19744TIP3    H280724   2.517   1.534  12.736  1.3141 -2.9637  0.0836
19745TIP3   OH280725   1.109   3.090  14.114  0.2113 -0.7983 -0.3904
19745TIP3    H180726   1.068   3.156  14.057  1.2777 -0.4486 -0.7676
19745TIP3    H280727   1.058   3.095  14.195  1.8020  2.3716  0.5761
19746TIP3   OH280728   0.733   4.867   3.753 -0.0083  0.2839  0.7396
19746TIP3    H180729   0.799   4.888   3.819  0.2748  0.1223  0.5148
19746TIP3    H280730   0.650   4.894   3.792 -0.2221 -2.3321  2.3651
19747TIP3   OH280731   3.965   4.908   4.513 -0.4307 -0.3369  0.1354
19747TIP3    H180732   3.872   4.920   4.495 -0.4952  1.0139  1.2090
19747TIP3    H280733   4.009   4.969   4.453 -0.3589  0.3843  0.9070
19748TIP3   OH280734   3.969   6.661  15.123 -0.4092  0.3919 -0.4997
19748TIP3    H180735   3.905   6.593  15.146  0.1048  0.4968  1.3823
19748TIP3    H280736   3.970   6.719  15.199 -0.6093  2.3677 -1.9472
19749TIP3   OH280737   4.348   3.239  13.037  0.3220 -0.0501 -0.9093
19749TIP3    H180738   4.267   3.194  13.015 -0.9655  0.4140  2.3565
19749TIP3    H280739   4.392   3.181  13.099  1.4401  0.6814 -0.9840
19750TIP3   OH280740   5.880   1.539  14.770 -0.8614  0.0221  0.7782
19750TIP3    H180741   5.857   1.492  14.850  0.3763 -0.6836  0.7422
19750TIP3    H280742   5.919   1.472  14.713 -0.0670  0.8665  0.3016
19751TIP3   OH280743   4.299   0.588   1.264  0.2225  0.1326  0.2381
19751TIP3    H180744   4.265   0.586   1.354  3.0603 -0.4945  1.4231
19751TIP3    H280745   4.244   0.527   1.216 -1.3070  0.3902  1.5751
19752TIP3   OH280746   6.682   1.559   4.150 -0.0739 -0.2363  0.0435
19752TIP3    H180747   6.599   1.511   4.147  0.6772 -1.5835 -0.1859
19752TIP3    H280748   6.669   1.635   4.093 -1.1940 -0.3395  0.1538
19753TIP3   OH280749   3.238   5.329   5.574 -0.1129  0.7252 -0.2912
19753TIP3    H180750   3.290   5.400   5.613  1.9899 -0.1017 -1.4532
19753TIP3    H280751   3.156   5.371   5.549 -0.1979  2.0176  1.8846
19754TIP3   OH280752   3.290   0.029   5.165 -0.2400 -0.5089 -0.3549
19754TIP3    H180753   3.342   0.042   5.085  0.9863 -0.9955  0.3411
19754TIP3    H280754   3.256   0.116   5.185 -0.4392 -0.3534 -1.3214
19755TIP3   OH280755   1.079   1.729  13.602  0.2930  0.2580  0.9266
19755TIP3    H180756   0.992   1.698  13.578  0.9821 -1.4592  0.5316
19755TIP3    H280757   1.064   1.818  13.634 -1.4651  0.3816 -0.0831
19756TIP3   OH280758   5.015   2.816   4.139  0.0263 -0.7387 -0.0589
19756TIP3    H180759   4.938   2.870   4.118 -0.4556 -1.7418 -0.9433
19756TIP3    H280760   5.047   2.785   4.055  1.1062 -0.7689  0.3398
19757TIP3   OH280761   4.987   4.098  12.856 -0.2567  0.3089  0.3108
19757TIP3    H180762   5.017   4.012  12.886 -1.0246 -0.2510 -0.4788
19757TIP3    H280763   5.063   4.135  12.811 -0.1800 -0.3263 -0.0961
19758TIP3   OH280764   0.446   3.815   0.892 -0.0310  0.3960 -0.3835
19758TIP3    H180765   0.387   3.768   0.951 -0.7275  0.1598 -1.2399
19758TIP3    H280766   0.476   3.749   0.830  0.4929  0.6900 -0.4533
19759TIP3   OH280767   5.801   4.110  15.748  0.0851  0.1811  0.2751
19759TIP3    H180768   5.878   4.055  15.733 -0.7716 -0.6650 -1.3375
19759TIP3    H280769   5.804   4.131  15.841  3.4039  1.9779 -0.1160
19760TIP3   OH280770   6.200   5.908  11.832  0.4295 -0.2082 -0.4439
19760TIP3    H180771   6.215   5.995  11.869  1.1050 -0.6454  0.3619
19760TIP3    H280772   6.105   5.900  11.825  0.3515  0.4723 -0.2204
19761TIP3   OH280773   2.997   0.031   2.410 -0.3297 -0.0384 -0.0282
19761TIP3    H180774   2.972  -0.008   2.326  0.7587  0.7993 -0.7768
19761TIP3    H280775   3.077  -0.014   2.435 -0.0384  0.4802 -0.0090
19762TIP3   OH280776   5.207   2.340  12.229  0.2318  0.0088  0.1859
19762TIP3    H180777   5.176   2.321  12.140  1.2694  0.2473 -0.2398
19762TIP3    H280778   5.266   2.267  12.249 -0.8030 -0.6084  1.1145
19763TIP3   OH280779   6.538   2.663  14.544  0.1351  0.2701 -0.5950
19763TIP3    H180780   6.540   2.580  14.592  1.1373  2.1584  2.9078
19763TIP3    H280781   6.455   2.703  14.569  0.7747  1.3873 -0.1883
19764TIP3   OH280782   4.521   0.456   5.435  0.1063 -0.2682 -0.3331
19764TIP3    H180783   4.429   0.436   5.419  0.5905 -1.5861 -1.8141
19764TIP3    H280784   4.521   0.512   5.512 -1.9117 -0.4087 -0.1804
19765TIP3   OH280785   1.589   3.849   4.739  0.2927 -0.3891 -0.4480
19765TIP3    H180786   1.677   3.817   4.719  0.2825  0.4391 -1.9009
19765TIP3    H280787   1.536   3.827   4.662 -0.1118  1.5192 -0.7686
19766TIP3   OH280788   3.271   4.362  15.244 -0.0913 -0.8349 -0.0507
19766TIP3    H180789   3.323   4.440  15.222  0.5555 -1.1897  0.2087
19766TIP3    H280790   3.181   4.390  15.231  0.1756 -1.2210 -4.0275
19767TIP3   OH280791   1.686   1.980   6.144  0.5558 -0.3302 -0.2591
19767TIP3    H180792   1.674   1.888   6.166  0.9812 -0.2105  0.4715
19767TIP3    H280793   1.612   2.025   6.186  0.0519 -0.3917 -1.0489
19768TIP3   OH280794   1.455   1.085   5.499  0.4506  0.0354  0.4696
19768TIP3    H180795   1.420   0.998   5.481 -0.2791  0.0213  1.8369
19768TIP3    H280796   1.425   1.139   5.426  0.1888 -0.6559  0.0554
19769TIP3   OH280797   3.363   1.729   6.253  0.1865 -0.5511 -0.2074
19769TIP3    H180798   3.424   1.764   6.318  0.4480 -1.7069  0.1938
19769TIP3    H280799   3.311   1.665   6.301  0.6006 -1.6641 -1.1761
19770TIP3   OH280800   1.638   2.837   3.048 -0.0901 -0.4880 -0.9674
19770TIP3    H180801   1.626   2.790   2.965 -1.6008 -0.2832 -0.8920
19770TIP3    H280802   1.686   2.916   3.025  0.9306 -1.2185 -1.3793
19771TIP3   OH280803   6.119   0.952   3.365  0.0144  0.2500 -0.8663
19771TIP3    H180804   6.160   1.010   3.429  0.7680 -0.7303 -0.4282
19771TIP3    H280805   6.032   0.933   3.402 -0.1573  0.9315 -0.9151
19772TIP3   OH280806   5.674   2.466   4.593 -0.2293 -0.0650  0.3172
19772TIP3    H180807   5.638   2.496   4.510 -0.8548 -1.8195 -0.0774
19772TIP3    H280808   5.744   2.529   4.612 -1.7560  1.8906 -0.1942
19773TIP3   OH280809   6.188   6.570   3.928  0.1730 -0.2020  0.4760
19773TIP3    H180810   6.215   6.504   3.992  0.6385  0.5247  1.0630
19773TIP3    H280811   6.144   6.637   3.981  2.7680  1.6582  0.4928
19774TIP3   OH280812   1.916   0.718   2.346 -0.0282  0.2125  0.4732
19774TIP3    H180813   1.830   0.722   2.304 -0.2959  0.0112  0.9922
19774TIP3    H280814   1.952   0.806   2.337 -0.1200  0.1933 -0.0945
19775TIP3   OH280815   3.425   1.032  11.810 -0.3648  0.0301  0.4980
19775TIP3    H180816   3.396   1.084  11.735 -1.7531 -1.9878 -0.4312
19775TIP3    H280817   3.405   1.087  11.886  0.1419  1.6879 -0.5100
19776TIP3   OH280818   5.019   0.933   4.093 -0.0164  0.2838  0.1987
19776TIP3    H180819   5.078   0.999   4.129  0.6176  0.3627 -0.9142
19776TIP3    H280820   5.058   0.849   4.116  0.4405  0.3344 -0.3680
19777TIP3   OH280821   2.313   3.653   3.092  0.7231 -0.7489  0.1517
19777TIP3    H180822   2.334   3.699   3.011  1.0349 -2.3132 -0.6933
19777TIP3    H280823   2.360   3.569   3.085 -0.3108 -1.4648  1.3484
19778TIP3   OH280824   1.975   2.795  17.111  0.3172  0.1494  0.3075
19778TIP3    H180825   2.029   2.768  17.036 -1.3585  1.2553 -1.3991
19778TIP3    H280826   1.888   2.761  17.090 -0.2177  0.6263  1.7083
19779TIP3   OH280827   0.881   3.028   0.570 -1.3498  0.2564  0.3244
19779TIP3    H180828   0.958   3.055   0.520  0.7638 -2.3338  1.8643
19779TIP3    H280829   0.866   3.099   0.632  0.1854  0.5645  0.3698
19780TIP3   OH280830   1.097   0.756   5.298  0.3190 -0.0387  0.0256
19780TIP3    H180831   1.115   0.826   5.236  0.9538 -1.7791 -1.9095
19780TIP3    H280832   1.004   0.736   5.287 -0.1998  1.3398  1.5791
19781TIP3   OH280833   3.245   2.443  12.241 -0.1169  0.6147 -0.0761
19781TIP3    H180834   3.286   2.366  12.201  0.9527  0.1592  1.7735
19781TIP3    H280835   3.187   2.407  12.308 -1.0532  1.3917 -0.4346
19782TIP3   OH280836   4.771   6.204   4.199  0.1676  0.0825 -0.5870
19782TIP3    H180837   4.833   6.139   4.165 -0.5462 -0.8502 -0.1290
19782TIP3    H280838   4.823   6.257   4.260 -0.2279 -3.1640  2.9503
19783TIP3   OH280839   3.874   0.695  14.818  0.1363 -0.6620 -0.1732
19783TIP3    H180840   3.956   0.697  14.868 -0.0964 -1.0229  0.2244
19783TIP3    H280841   3.897   0.734  14.734  0.1398  1.5025  0.7797
19784TIP3   OH280842   5.823   5.540  11.485  0.0728 -0.4383 -0.2523
19784TIP3    H180843   5.775   5.493  11.416 -0.5079 -1.6378  0.9326
19784TIP3    H280844   5.915   5.523  11.465 -0.0692 -0.4244 -0.9650
19785TIP3   OH280845   1.810   4.779  16.774 -0.6901 -0.2995 -0.2134
19785TIP3    H180846   1.778   4.779  16.684 -2.1169  0.0193  0.2633
19785TIP3    H280847   1.750   4.721  16.821 -0.1946 -0.1644  0.6047
19786TIP3   OH280848   2.481   4.528  13.245 -0.0134  0.3586  0.1645
19786TIP3    H180849   2.545   4.558  13.181 -0.8695  1.2866 -0.2753
19786TIP3    H280850   2.437   4.455  13.203 -0.0191  0.4462  0.0198
19787TIP3   OH280851   1.539   3.405   1.848 -0.5826  0.0668  0.5093
19787TIP3    H180852   1.595   3.359   1.910  0.5130  1.2413  0.4391
19787TIP3    H280853   1.468   3.441   1.901 -0.4753 -0.2147  0.8431
19788TIP3   OH280854   6.786   0.613   1.077  0.0429  0.0613 -0.1150
19788TIP3    H180855   6.735   0.584   1.153  1.0369 -1.2384  0.0987
19788TIP3    H280856   6.830   0.533   1.047  0.9217  0.8890 -1.0812
19789TIP3   OH280857   5.334   3.757   2.148 -0.7320 -0.1032 -0.1781
19789TIP3    H180858   5.405   3.777   2.086 -2.2502 -0.4529 -2.1121
19789TIP3    H280859   5.310   3.843   2.183  0.5170  0.0407  0.3977
19790TIP3   OH280860   3.961   5.100   1.777 -0.1555  0.1872  0.1632
19790TIP3    H180861   3.990   5.028   1.833 -1.5996 -2.4070 -2.1433
19790TIP3    H280862   3.890   5.141   1.825 -0.4651 -1.0849  0.8274
19791TIP3   OH280863   3.797   1.104  14.051  0.4170 -0.0860  0.3284
19791TIP3    H180864   3.818   1.082  14.142 -0.3665 -0.8652  0.3365
19791TIP3    H280865   3.754   1.189  14.056  0.2011 -0.2154  0.7172
19792TIP3   OH280866   4.478   0.013   4.153  0.0617  0.6096 -0.0826
19792TIP3    H180867   4.395   0.036   4.197  1.0084  0.0756  2.1115
19792TIP3    H280868   4.522   0.097   4.141 -0.0752  0.7377  0.2875
19793TIP3   OH280869   0.966   0.067   1.133 -0.2980  0.5817 -0.4358
19793TIP3    H180870   1.039   0.014   1.163 -0.3787 -0.1303 -1.4479
19793TIP3    H280871   0.933   0.110   1.212 -0.1872 -0.8265  0.4038
19794TIP3   OH280872   3.340   3.448  11.974 -0.4727 -0.5932  0.3480
19794TIP3    H180873   3.398   3.525  11.971  0.5044 -1.2763  0.9922
19794TIP3    H280874   3.308   3.447  12.064 -2.6171  0.5530 -0.3398
19795TIP3   OH280875   3.419   3.649  10.603  0.3106 -0.6795 -0.7237
19795TIP3    H180876   3.464   3.582  10.654 -0.7048 -0.3416  0.6569
19795TIP3    H280877   3.352   3.683  10.661  0.7155  1.4638 -1.4292
19796TIP3   OH280878   2.843   4.295  11.921 -0.6103 -0.0763 -0.2884
19796TIP3    H180879   2.926   4.311  11.965 -0.7982  0.1912 -0.0306
19796TIP3    H280880   2.805   4.220  11.967  0.0669 -1.0185 -1.2141
19797TIP3   OH280881   6.410   4.252   1.154 -0.2381 -0.3578 -0.2747
19797TIP3    H180882   6.497   4.290   1.138 -0.7385  0.3629 -1.4731
19797TIP3    H280883   6.407   4.237   1.248  1.2159 -0.4775 -0.2210
19798TIP3   OH280884   4.205   1.565   6.351  0.2505 -0.0116  0.5499
19798TIP3    H180885   4.127   1.610   6.319  0.1569 -0.3478  0.2922
19798TIP3    H280886   4.277   1.600   6.299  0.1574 -0.2579  0.2498
19799TIP3   OH280887   0.308   1.596   4.366 -0.1781  0.3353  0.2656
19799TIP3    H180888   0.319   1.608   4.460  0.7290 -1.2660  0.3999
19799TIP3    H280889   0.392   1.622   4.328  0.1958 -1.0295  0.1244
19800TIP3   OH280890   3.961   6.276   5.888  0.2965  0.0902 -0.7646
19800TIP3    H180891   4.010   6.312   5.814  0.8172  0.6070 -0.1804
19800TIP3    H280892   3.914   6.352   5.925  1.2827  0.1617  0.3824
19801TIP3   OH280893   2.172   4.513  16.313 -0.5176  0.1331 -0.6402
19801TIP3    H180894   2.257   4.500  16.354  0.3011  0.8555 -2.0496
19801TIP3    H280895   2.114   4.535  16.386  0.6270  0.2180  0.2713
19802TIP3   OH280896   3.999   0.526  13.682  0.0778 -0.0427  0.2720
19802TIP3    H180897   3.996   0.520  13.778 -0.4627 -1.0614  0.2022
19802TIP3    H280898   4.090   0.510  13.660  0.0046 -0.8784  0.5574
19803TIP3   OH280899   1.280   5.940   0.552  0.2750 -0.8707 -0.3182
19803TIP3    H180900   1.356   5.919   0.498  1.0209 -0.8256  0.6922
19803TIP3    H280901   1.301   6.025   0.591  0.5131 -1.6617  1.3540
19804TIP3   OH280902   3.999   6.782   0.472  0.2939 -0.4983 -0.4739
19804TIP3    H180903   3.957   6.702   0.503 -0.3533 -0.0858 -0.2634
19804TIP3    H280904   3.946   6.811   0.398 -0.0194  0.2262  0.0202
19805TIP3   OH280905   1.920   6.808   3.287 -0.1353  0.2164 -0.0217
19805TIP3    H180906   1.843   6.859   3.309 -0.6377  0.3520 -1.9945
19805TIP3    H280907   1.900   6.766   3.204  1.2488 -1.1742  0.2724
19806TIP3   OH280908   2.258   0.562   3.258 -0.4239  0.4891 -0.5855
19806TIP3    H180909   2.224   0.483   3.301 -0.7470 -1.2234 -3.6788
19806TIP3    H280910   2.342   0.535   3.222  1.0159  2.6037  0.9620
19807TIP3   OH280911   2.060   0.458   1.495 -0.0984  0.5139  0.1758
19807TIP3    H180912   2.120   0.444   1.568 -1.7945 -2.9646  1.1534
19807TIP3    H280913   2.111   0.509   1.432  2.4876  1.0603  2.4898
19808TIP3   OH280914   0.282   2.566  11.587  0.0671 -0.4961 -0.0565
19808TIP3    H180915   0.283   2.473  11.609  0.4308 -0.1626  1.4806
19808TIP3    H280916   0.263   2.610  11.670  0.2364  0.8157 -0.6873
19809TIP3   OH280917   6.269   4.218  11.730 -0.2918 -0.7193 -0.2198
19809TIP3    H180918   6.272   4.269  11.649 -1.1943  0.3257  0.3947
19809TIP3    H280919   6.304   4.276  11.797  1.2954 -1.8829  0.0222
19810TIP3   OH280920   0.413   1.957  14.025  0.5977 -0.9594  0.1847
19810TIP3    H180921   0.356   1.880  14.030  0.4095 -0.8874 -0.7932
19810TIP3    H280922   0.490   1.927  13.978  0.6041 -0.5905 -0.0417
19811TIP3   OH280923   0.587   5.611   5.453  0.0779 -0.3533  0.4558
19811TIP3    H180924   0.511   5.583   5.503 -0.9186 -2.8252 -2.1912
19811TIP3    H280925   0.654   5.546   5.473  0.1116 -0.5711 -0.3237
19812TIP3   OH280926   1.846   4.334  16.384 -0.2715  0.3668 -0.6186
19812TIP3    H180927   1.904   4.404  16.413  1.1833 -0.5602 -1.1902
19812TIP3    H280928   1.758   4.367  16.403  0.3611  2.2839 -0.7374
19813TIP3   OH280929   2.499   5.014   4.419  0.0664 -0.2381  0.5444
19813TIP3    H180930   2.409   4.981   4.426 -0.4311  0.9593 -0.0024
19813TIP3    H280931   2.517   5.017   4.325  1.9455 -3.6286  0.5957
19814TIP3   OH280932   0.158   0.093   6.452  0.6997 -0.1622  0.3378
19814TIP3    H180933   0.132   0.010   6.492  1.3280 -0.2926  0.4789
19814TIP3    H280934   0.250   0.103   6.475 -0.0734  2.0415  2.8815
19815TIP3   OH280935   6.814   6.566   5.427 -0.1253  0.1158  0.1998
19815TIP3    H180936   6.764   6.581   5.507  1.9974 -0.7054  1.7956
19815TIP3    H280937   6.868   6.489   5.446  0.8602  0.2195 -1.8263
19816TIP3   OH280938   2.011   4.045   2.960  0.4137  0.2381  0.1302
19816TIP3    H180939   1.932   4.002   2.992 -0.1525 -0.0651 -1.5851
19816TIP3    H280940   2.049   3.984   2.897  0.8331  1.2701 -0.6655
19817TIP3   OH280941   0.449   5.174  15.814  0.2435  0.2803 -0.2639
19817TIP3    H180942   0.427   5.081  15.807 -0.9617  0.4794  0.5650
19817TIP3    H280943   0.469   5.188  15.906  0.8944  0.7516 -0.4682
19818TIP3   OH280944   0.536   5.549  10.833 -1.2361  0.4190  0.6017
19818TIP3    H180945   0.608   5.492  10.809 -0.1585  1.7063  0.6433
19818TIP3    H280946   0.468   5.531  10.768 -0.3208  0.2257 -0.3259
19819TIP3   OH280947   4.365   2.416   0.259 -0.0915  1.0719 -0.3103
19819TIP3    H180948   4.364   2.460   0.175  1.3725 -0.5406 -1.2375
19819TIP3    H280949   4.345   2.485   0.323 -1.2138  2.3200 -1.9454
19820TIP3   OH280950   3.050   2.984   4.386 -0.2909  0.3435 -0.3197
19820TIP3    H180951   2.968   2.954   4.347 -0.2332  0.6697 -0.6978
19820TIP3    H280952   3.107   2.907   4.384 -1.1395 -0.3948  1.5373
19821TIP3   OH280953   3.601   1.342   1.725 -0.1446 -0.1361  0.5432
19821TIP3    H180954   3.630   1.360   1.635  3.8351 -1.7135  1.3140
19821TIP3    H280955   3.638   1.414   1.776 -2.6645  0.9326  1.0141
19822TIP3   OH280956   3.634   0.252   3.369 -0.3605  0.1846  0.0713
19822TIP3    H180957   3.688   0.196   3.314 -1.6847  0.0403 -1.1234
19822TIP3    H280958   3.545   0.241   3.336 -0.9861  1.2253  1.3030
19823TIP3   OH280959   4.888   1.850   2.092  0.3735  0.0454 -0.4395
19823TIP3    H180960   4.838   1.891   2.021  0.2105  0.9028  0.1678
19823TIP3    H280961   4.978   1.881   2.079  0.8134 -1.5542 -1.5761
19824TIP3   OH280962   2.644   1.129  16.090  0.9622  0.2383 -0.3888
19824TIP3    H180963   2.597   1.134  16.007 -0.2007  1.0379  0.2870
19824TIP3    H280964   2.575   1.125  16.157  1.8626  0.5845  0.5915
19825TIP3   OH280965   5.600   6.694   1.047  0.9769 -0.1320 -0.1990
19825TIP3    H180966   5.559   6.777   1.022 -0.3101 -1.3961 -2.7173
19825TIP3    H280967   5.678   6.719   1.096  0.6820  2.5535 -0.9469
19826TIP3   OH280968   4.989   0.554   2.466 -0.1529  0.5952  0.6681
19826TIP3    H180969   4.977   0.628   2.525 -0.3674  0.6392  0.5699
19826TIP3    H280970   4.909   0.552   2.413  0.0065  0.5104  0.4297
19827TIP3   OH280971   3.967   2.047  15.270  0.6411  0.8087  0.4091
19827TIP3    H180972   3.924   2.088  15.196 -0.0916 -0.5898  0.0430
19827TIP3    H280973   4.039   1.996  15.232 -0.0577 -0.3335  0.5892
19828TIP3   OH280974   1.581   2.020  11.555  0.1947  0.1375 -0.3938
19828TIP3    H180975   1.625   2.104  11.565  0.4050 -0.1166  0.9748
19828TIP3    H280976   1.650   1.960  11.529  0.0187  0.4003 -1.5113
19829TIP3   OH280977   6.797   2.854  15.560 -0.0329 -0.2502  0.0060
19829TIP3    H180978   6.842   2.878  15.479  1.1798 -0.5581  0.5626
19829TIP3    H280979   6.852   2.890  15.630 -0.8280 -0.3537  0.7087
19830TIP3   OH280980   5.968   4.348   2.628  0.3945 -0.0626 -0.2027
19830TIP3    H180981   6.018   4.429   2.635 -1.0693  0.8795 -0.3096
19830TIP3    H280982   5.922   4.341   2.712  0.0414 -0.4803 -0.4270
19831TIP3   OH280983   4.357   4.867  12.268 -0.1144  0.1353 -0.6563
19831TIP3    H180984   4.389   4.919  12.194 -1.2189 -0.6928 -1.7628
19831TIP3    H280985   4.327   4.932  12.332  3.3913  0.9467  0.3587
19832TIP3   OH280986   4.341   0.318  15.577  0.9556 -0.3231 -0.2538
19832TIP3    H180987   4.429   0.296  15.547  1.3272  0.9274 -0.1307
19832TIP3    H280988   4.343   0.413  15.590  0.5049 -0.6276  2.7227
19833TIP3   OH280989   5.806   5.981   4.256 -0.1339  0.1092 -0.5152
19833TIP3    H180990   5.768   5.897   4.233  0.9575 -0.6594  0.3908
19833TIP3    H280991   5.737   6.045   4.237 -0.7730 -0.9114 -1.7515
19834TIP3   OH280992   4.893   5.363   5.743 -0.7771 -0.5702 -0.2139
19834TIP3    H180993   4.877   5.406   5.659 -0.9117 -0.1774  0.0131
19834TIP3    H280994   4.979   5.323   5.734 -0.9868 -0.9257 -0.7054
19835TIP3   OH280995   6.748   4.226   1.353 -0.1594 -0.0531  0.2566
19835TIP3    H180996   6.700   4.247   1.432 -0.1434  2.0819 -0.2322
19835TIP3    H280997   6.738   4.304   1.297  1.3610 -0.7395 -1.0659
19836TIP3   OH280998   2.278   2.516  14.862  0.4655  0.7835 -0.4321
19836TIP3    H180999   2.241   2.579  14.925 -1.9804  0.4910 -1.4468
19836TIP3    H281000   2.201   2.476  14.821  1.9792 -0.8354 -1.8371
19837TIP3   OH281001   6.330   4.778  14.895  0.2493 -0.1175  0.6112
19837TIP3    H181002   6.236   4.759  14.896  0.1731  0.1976 -0.0091
19837TIP3    H281003   6.368   4.712  14.952 -0.2516 -0.8433  0.1291
19838TIP3   OH281004   3.143   6.307   6.593  0.0538  0.1656 -0.7505
19838TIP3    H181005   3.113   6.297   6.683  1.1230  0.1389 -0.3806
19838TIP3    H281006   3.222   6.360   6.600  0.1834  0.1105 -1.6649
19839TIP3   OH281007   1.427   2.822   1.506  0.4077  0.5570  0.2016
19839TIP3    H181008   1.510   2.774   1.514  1.3279  1.7756 -1.3736
19839TIP3    H281009   1.379   2.799   1.586  1.8571 -0.9167  0.7306
19840TIP3   OH281010   1.380   4.217  12.013 -0.0345  0.4623 -0.2140
19840TIP3    H181011   1.471   4.194  12.033 -0.3647 -0.8848 -0.1478
19840TIP3    H281012   1.375   4.311  12.028  1.5712  0.7231 -1.0855
19841TIP3   OH281013   4.195   2.390  11.201 -0.0597  0.0156  0.1389
19841TIP3    H181014   4.209   2.479  11.233  2.4178  0.0822 -0.8618
19841TIP3    H281015   4.166   2.401  11.110 -3.1872 -0.2304  1.0001
19842TIP3   OH281016   5.699   1.015   4.757 -0.3296 -0.1610  0.4196
19842TIP3    H181017   5.699   0.955   4.682 -0.3141  0.2002  0.1267
19842TIP3    H281018   5.647   1.090   4.727 -0.6453 -0.1783  0.9038
19843TIP3   OH281019   6.502   2.476   0.196  0.1273  0.0031  0.2463
19843TIP3    H181020   6.529   2.557   0.153  1.0568  0.1049  1.0115
19843TIP3    H281021   6.407   2.473   0.183  0.3579 -0.0302 -1.9028
19844TIP3   OH281022   6.842   1.326   0.376  0.5419 -0.4684  0.0992
19844TIP3    H181023   6.765   1.322   0.433  1.2307  0.3045  1.1216
19844TIP3    H281024   6.820   1.269   0.303 -1.7134  1.0487 -0.5092
19845TIP3   OH281025   4.715   2.324   4.922  0.3236 -0.4174 -0.2061
19845TIP3    H181026   4.661   2.258   4.878  0.0920 -1.7092  1.8957
19845TIP3    H281027   4.711   2.301   5.015  0.0695  2.7082  0.6631
19846TIP3   OH281028   4.380   1.788   4.007 -0.2632 -0.0775 -0.0839
19846TIP3    H181029   4.325   1.716   4.040 -0.3951  0.0523 -0.0178
19846TIP3    H281030   4.333   1.821   3.931 -1.3193  1.3385  1.1186
19847TIP3   OH281031   3.651   1.919  15.248  0.2854  0.2277  0.1366
19847TIP3    H181032   3.662   1.927  15.343 -2.4762 -1.8355  0.7410
19847TIP3    H281033   3.719   1.859  15.221 -0.4964 -1.2567  1.3135
19848TIP3   OH281034   3.288   5.681   2.427  0.0891 -0.7223 -0.0422
19848TIP3    H181035   3.382   5.683   2.409  0.2204 -1.7016  0.5120
19848TIP3    H281036   3.282   5.679   2.522 -0.4399 -2.3325 -0.0809
19849TIP3   OH281037   3.675   5.168  14.978  0.7655  0.4373 -0.1887
19849TIP3    H181038   3.693   5.139  14.888  0.0785  1.6828 -0.7522
19849TIP3    H281039   3.672   5.087  15.029  1.1436 -0.2938 -1.2891
19850TIP3   OH281040   1.840   0.352   1.028  0.0445  0.0473 -0.4389
19850TIP3    H181041   1.911   0.357   1.091 -0.3101 -0.6677  0.0348
19850TIP3    H281042   1.821   0.258   1.021 -2.0510  0.3079  0.8315
19851TIP3   OH281043   5.878   5.027  15.475 -1.1559  0.2154  0.0242
19851TIP3    H181044   5.943   5.071  15.419 -0.8449  0.1768  0.3520
19851TIP3    H281045   5.923   4.948  15.505 -1.7012 -0.3244 -0.5419
19852TIP3   OH281046   0.571   3.160   1.076  0.0123 -0.4593 -0.5570
19852TIP3    H181047   0.541   3.127   0.991  1.6702  1.0237 -1.7975
19852TIP3    H281048   0.564   3.255   1.068 -0.0519 -0.2944  1.0916
19853TIP3   OH281049   3.414   3.992  14.562  0.3194  0.3297  0.0975
19853TIP3    H181050   3.475   3.932  14.519 -0.5634  0.6616 -1.6962
19853TIP3    H281051   3.469   4.042  14.622  1.4608 -0.7051 -0.0380
19854TIP3   OH281052   2.558   2.293  15.322  0.5289 -0.1942  0.4571
19854TIP3    H181053   2.565   2.264  15.413 -0.1912  1.3700  1.0373
19854TIP3    H281054   2.497   2.367  15.324  0.1379 -0.4056 -1.3710
19855TIP3   OH281055   6.524   0.982   2.460  0.6375 -0.1167 -0.4349
19855TIP3    H181056   6.603   1.032   2.478  0.6566  0.2028 -1.3680
19855TIP3    H281057   6.464   1.007   2.530  0.7387  1.0263 -0.7317
19856TIP3   OH281058   0.552   4.382  13.927  0.3908  0.5015 -0.3278
19856TIP3    H181059   0.473   4.341  13.961  2.0067 -4.4798 -1.8279
19856TIP3    H281060   0.611   4.387  14.003 -0.6716  2.9432  0.4667
19857TIP3   OH281061   0.802   4.771  12.939  0.0605 -0.1965 -0.8227
19857TIP3    H181062   0.840   4.745  13.023 -0.7857  0.3164 -0.2608
19857TIP3    H281063   0.865   4.740  12.874  0.7462 -0.5879 -0.0054
19858TIP3   OH281064   6.540   5.318   0.097 -0.0334  0.0386 -0.2583
19858TIP3    H181065   6.566   5.234   0.134  2.5083  0.6849 -0.3960
19858TIP3    H281066   6.558   5.310   0.003 -1.8492  0.0332 -0.6344
19859TIP3   OH281067   6.632   1.828   2.841  0.2256  0.1550 -0.2600
19859TIP3    H181068   6.669   1.916   2.835 -0.7589  0.5386 -1.0476
19859TIP3    H281069   6.589   1.826   2.926 -0.2483  0.6542 -0.4786
19860TIP3   OH281070   3.534   0.039   5.455  0.4611 -0.7827  0.1659
19860TIP3    H181071   3.537   0.117   5.400 -0.7842 -1.3462 -0.7482
19860TIP3    H281072   3.626   0.012   5.464  0.9149  0.7986  0.5511
19861TIP3   OH281073   3.273   0.495  10.429 -0.8719 -0.0765 -0.3598
19861TIP3    H181074   3.224   0.528  10.505  0.7670  0.2336  0.6048
19861TIP3    H281075   3.256   0.401  10.428 -1.1831 -0.0284  0.1898
19862TIP3   OH281076   0.649   0.973  11.695  0.2625 -0.4027  0.1022
19862TIP3    H181077   0.694   0.890  11.712  0.2853 -0.4501 -0.1930
19862TIP3    H281078   0.717   1.040  11.710 -0.1437 -0.3284  1.8686
19863TIP3   OH281079   6.467   4.561  10.948 -0.7503  0.0340  0.4885
19863TIP3    H181080   6.559   4.555  10.974 -1.1297 -0.4272  1.8257
19863TIP3    H281081   6.435   4.638  10.993 -0.7403  0.9051 -0.9563
19864TIP3   OH281082   5.421   2.427   0.148 -0.2405  0.5383 -0.2638
19864TIP3    H181083   5.493   2.486   0.170 -0.9417  1.1764  0.4004
19864TIP3    H281084   5.377   2.469   0.074 -0.4552  0.6036 -0.0995
19865TIP3   OH281085   0.268   5.444   2.485 -0.0894  0.0544 -0.4401
19865TIP3    H181086   0.342   5.500   2.506  0.5189 -0.4009 -1.2965
19865TIP3    H281087   0.293   5.357   2.516 -0.0998 -0.1777 -1.0658
19866TIP3   OH281088   6.084   1.131  10.903 -0.3769 -0.7436 -0.4461
19866TIP3    H181089   6.131   1.104  10.982 -1.8229 -1.5283  0.1878
19866TIP3    H281090   6.059   1.222  10.921  1.5404 -0.0258 -1.1408
19867TIP3   OH281091   1.832   5.670   1.877 -0.4291 -0.6230  0.3649
19867TIP3    H181092   1.907   5.728   1.886 -0.6108 -0.3309  0.0173
19867TIP3    H281093   1.846   5.602   1.943  1.8539 -2.4829 -1.8179
19868TIP3   OH281094   5.583   2.503   3.658 -0.3083 -0.2156  0.1673
19868TIP3    H181095   5.676   2.484   3.650 -0.3401 -0.5942  0.6868
19868TIP3    H281096   5.543   2.457   3.584 -0.0803  0.0043 -0.0964
19869TIP3   OH281097   0.543   0.219   4.556 -0.5826 -0.7136  0.2183
19869TIP3    H181098   0.566   0.280   4.626  0.4773 -1.1770  0.2855
19869TIP3    H281099   0.448   0.225   4.549 -0.4878  1.0202  0.1492
19870TIP3   OH281100   5.514   4.351   2.805  0.5877 -0.1866  0.3608
19870TIP3    H181101   5.540   4.304   2.884 -1.8313  2.3997  2.9720
19870TIP3    H281102   5.424   4.379   2.822  0.4036  1.6801 -2.7713
19871TIP3   OH281103   6.510   5.780   6.643  0.4728 -0.0438  0.0712
19871TIP3    H181104   6.555   5.853   6.684 -1.2949 -0.6694  3.5038
19871TIP3    H281105   6.552   5.702   6.681 -0.0249 -0.7216 -0.7327
19872TIP3   OH281106   1.979   0.122  16.565  0.5336  0.1314  0.1048
19872TIP3    H181107   2.031   0.045  16.589  1.0505  0.5445  0.3220
19872TIP3    H281108   1.888   0.095  16.581  0.4870 -1.2409 -2.0272
19873TIP3   OH281109   3.737   0.978  16.491  0.1909 -0.2149  0.2363
19873TIP3    H181110   3.741   1.061  16.443  0.4848  0.1128  0.8239
19873TIP3    H281111   3.660   0.934  16.456 -0.2687  0.5356  0.2879
19874TIP3   OH281112   0.930   6.802   5.131  0.3420  0.1388  0.1530
19874TIP3    H181113   0.878   6.732   5.170  1.4568  0.0189  1.5394
19874TIP3    H281114   0.869   6.875   5.122 -0.4717 -0.5323  0.0873
19875TIP3   OH281115   0.212   3.502   3.213 -0.6514  0.3009 -0.4771
19875TIP3    H181116   0.215   3.409   3.234  1.1458  0.1871 -1.0519
19875TIP3    H281117   0.145   3.538   3.271 -0.5632 -1.1455  0.5645
19876TIP3   OH281118   5.198   5.987   4.226  0.1925  0.3095  0.1525
19876TIP3    H181119   5.245   5.912   4.191 -1.6377 -1.5874  1.5701
19876TIP3    H281120   5.228   5.994   4.317  0.7666  1.7234 -0.1039
19877TIP3   OH281121   3.055   5.190  16.431  0.5257 -0.2411  0.0791
19877TIP3    H181122   2.997   5.221  16.363  0.9496  0.8044  0.1673
19877TIP3    H281123   3.140   5.179  16.388  0.8026  0.4494  0.4287
19878TIP3   OH281124   3.673   0.665  13.202 -0.3880 -0.2061 -0.2467
19878TIP3    H181125   3.653   0.572  13.189  1.2291 -0.6471  0.1849
19878TIP3    H281126   3.743   0.665  13.268 -0.6397  1.3503  0.0550
19879TIP3   OH281127   6.831   1.598   2.622  0.3099  0.6443 -0.0252
19879TIP3    H181128   6.927   1.598   2.622  0.3345  2.1652 -0.5299
19879TIP3    H281129   6.807   1.635   2.707  0.1736  0.7832 -0.1240
19880TIP3   OH281130   2.901   3.065   3.742 -0.4733  0.3557  0.7541
19880TIP3    H181131   2.923   3.152   3.709 -1.0858  0.2120 -0.0646
19880TIP3    H281132   2.939   3.005   3.677 -0.8167  0.0410  0.8435
19881TIP3   OH281133   4.323   3.327  17.075 -0.0087  0.6129 -0.2023
19881TIP3    H181134   4.373   3.379  17.012  0.9450  1.6699  1.3549
19881TIP3    H281135   4.387   3.302  17.141 -0.8503 -1.0180  0.0388
19882TIP3   OH281136   4.211   3.669   2.409  0.1429 -0.0461  0.4900
19882TIP3    H181137   4.171   3.599   2.358 -0.2948  0.1443  0.5747
19882TIP3    H281138   4.273   3.624   2.467  0.0462 -0.3362  0.3719
19883TIP3   OH281139   2.510   0.200   6.590  0.2264  0.3596 -0.7744
19883TIP3    H181140   2.424   0.179   6.554  0.7606 -0.4660 -1.6308
19883TIP3    H281141   2.539   0.120   6.634 -0.6276  1.5035  2.0816
19884TIP3   OH281142   2.027   0.472  11.552 -0.0954  0.4446 -0.5230
19884TIP3    H181143   2.026   0.567  11.555  0.6370  0.5034 -1.7454
19884TIP3    H281144   2.067   0.446  11.635  0.9921  1.2466 -0.7848
19885TIP3   OH281145   0.455   0.811   0.309 -0.1405 -0.5824  0.2335
19885TIP3    H181146   0.454   0.727   0.262 -1.6100 -2.1217  2.7712
19885TIP3    H281147   0.370   0.850   0.290  0.1671 -0.0996 -0.1740
19886TIP3   OH281148   4.881   4.689   3.842  0.6274 -0.3122 -0.1833
19886TIP3    H181149   4.897   4.644   3.760 -2.6589 -0.2372 -0.9992
19886TIP3    H281150   4.845   4.774   3.816  1.2666  0.4856  1.3710
19887TIP3   OH281151   6.063   4.217   3.491  0.3869 -0.0546 -0.0922
19887TIP3    H181152   6.126   4.223   3.563  0.2768  0.1483 -0.0132
19887TIP3    H281153   6.041   4.124   3.487 -1.1182  0.1787  1.4473
19888TIP3   OH281154   3.943   3.058   0.725 -0.5704 -0.1224  0.0040
19888TIP3    H181155   3.971   3.032   0.637  0.0049  1.1535 -0.2073
19888TIP3    H281156   3.847   3.053   0.721 -0.5938  0.6473 -0.9583
19889TIP3   OH281157   3.322   1.514  10.967  0.4007  0.4266  0.5337
19889TIP3    H181158   3.276   1.431  10.981  0.4233 -0.0668 -1.9326
19889TIP3    H281159   3.266   1.580  11.008 -1.6264 -0.3664 -0.7918
19890TIP3   OH281160   6.553   0.847   1.203 -0.4819 -0.0786  0.5223
19890TIP3    H181161   6.501   0.874   1.278 -1.2517  0.6783 -0.2584
19890TIP3    H281162   6.628   0.906   1.203 -0.7137  0.2209  0.4524
19891TIP3   OH281163   1.325   6.537   4.920 -0.2047  0.0454 -0.0684
19891TIP3    H181164   1.273   6.476   4.973 -0.3275 -0.9846 -1.3093
19891TIP3    H281165   1.279   6.620   4.927 -2.2141 -0.8667 -1.2854
19892TIP3   OH281166   2.500   4.171  14.576 -0.8399 -0.1824 -0.0040
19892TIP3    H181167   2.521   4.258  14.541 -1.8366 -0.6895 -1.9551
19892TIP3    H281168   2.421   4.185  14.628  0.6877  0.5850  2.2756
19893TIP3   OH281169   3.164   3.741   3.051 -0.2345 -0.5995  0.7530
19893TIP3    H181170   3.091   3.688   3.019 -0.0140 -1.0230  0.9420
19893TIP3    H281171   3.123   3.815   3.095 -0.5552  0.4685 -1.2275
19894TIP3   OH281172   4.551   6.674  13.312 -0.5612 -0.2277 -0.3042
19894TIP3    H181173   4.542   6.620  13.234 -0.2142 -0.3463 -0.2644
19894TIP3    H281174   4.513   6.758  13.287 -1.1366 -0.4986 -0.3521
19895TIP3   OH281175   4.031   5.192  11.713 -0.3327 -0.8973  0.5567
19895TIP3    H181176   4.113   5.146  11.696  0.3206 -0.2743  1.8820
19895TIP3    H281177   4.014   5.176  11.805 -1.6248 -0.8617  0.3373
19896TIP3   OH281178   4.311   1.406   2.957  0.1332  0.0805 -0.1659
19896TIP3    H181179   4.226   1.446   2.938  0.9401  2.2831  0.4934
19896TIP3    H281180   4.340   1.371   2.873 -1.2090 -0.3021 -0.4956
19897TIP3   OH281181   2.443   4.742  15.996  0.8965 -0.2191 -0.1921
19897TIP3    H181182   2.383   4.801  15.950  0.7572 -0.2173 -0.0091
19897TIP3    H281183   2.464   4.674  15.932  0.2807 -0.5121 -0.0854
19898TIP3   OH281184   2.872   0.773   0.089 -0.5098  0.0765  0.1609
19898TIP3    H181185   2.795   0.717   0.098 -1.4451  0.8704 -2.1174
19898TIP3    H281186   2.836   0.859   0.067  0.9465  0.0086 -3.1529
19899TIP3   OH281187   2.975   1.407   2.361  0.2985 -0.3160 -0.0586
19899TIP3    H181188   2.987   1.392   2.455  0.7314 -2.2040 -0.3790
19899TIP3    H281189   3.062   1.430   2.329  0.0920  0.6504  0.0187
19900TIP3   OH281190   1.478   3.288  13.430  0.0477  0.1552  0.6414
19900TIP3    H181191   1.468   3.293  13.525 -2.8929 -1.1228  0.5184
19900TIP3    H281192   1.388   3.286  13.397  0.9763  1.9412 -2.2980
19901TIP3   OH281193   5.460   0.037  13.596 -0.2891  0.0246 -0.4295
19901TIP3    H181194   5.424   0.103  13.655  2.3317  0.8496  0.3402
19901TIP3    H281195   5.387  -0.024  13.582 -2.1189  1.8519  0.5938
19902TIP3   OH281196   6.299   0.961  13.136 -0.3225  0.0306 -0.2114
19902TIP3    H181197   6.267   0.928  13.220  0.9369 -1.7876 -0.3840
19902TIP3    H281198   6.358   1.033  13.159 -1.3686  0.7560  0.3147
19903TIP3   OH281199   5.403   4.991   1.138  0.3577  0.2577  0.4074
19903TIP3    H181200   5.438   5.043   1.066 -0.6987  1.2276  0.5635
19903TIP3    H281201   5.318   4.961   1.107  1.2252 -1.9862  0.0613
19904TIP3   OH281202   1.437   3.215   2.556  0.1501 -0.1779  0.1047
19904TIP3    H181203   1.354   3.167   2.556 -0.4798  0.8687 -0.8739
19904TIP3    H281204   1.433   3.268   2.636  1.1309 -2.1252  1.5421
19905TIP3   OH281205   2.929   6.393  12.774  0.1556 -0.2357  0.8013
19905TIP3    H181206   2.909   6.404  12.681 -1.5249 -0.1066  1.1473
19905TIP3    H281207   2.905   6.302  12.793 -0.6908  0.0910  1.3650
19906TIP3   OH281208   5.048   4.012  14.284  0.4253  0.5795  0.8425
19906TIP3    H181209   5.096   4.083  14.329  1.3499  0.4766  0.0411
19906TIP3    H281210   4.981   3.986  14.347  1.0436  1.1372  1.7659
19907TIP3   OH281211   3.793   6.492  16.588  0.5736 -0.3775 -0.3643
19907TIP3    H181212   3.779   6.498  16.683 -0.1783 -0.1335 -0.4842
19907TIP3    H281213   3.769   6.579  16.555  0.6882 -0.5073 -0.7943
19908TIP3   OH281214   3.520   3.964   0.339 -0.2885 -0.2356  0.0446
19908TIP3    H181215   3.605   4.006   0.352  0.4499 -0.9279 -2.0822
19908TIP3    H281216   3.499   3.981   0.247 -2.7413  0.3788  0.6528
19909TIP3   OH281217   5.810   2.053   6.088  0.2620  0.0993 -0.2189
19909TIP3    H181218   5.876   2.096   6.142  0.8372 -0.1421 -0.7252
19909TIP3    H281219   5.800   1.966   6.127  1.5320 -0.5110 -1.1593
19910TIP3   OH281220   4.088   1.996   1.663  0.3819 -0.2718  0.0944
19910TIP3    H181221   3.996   2.019   1.675  0.6087  0.2929  0.8678
19910TIP3    H281222   4.132   2.080   1.649  0.5168 -0.6905 -2.2815
19911TIP3   OH281223   3.126   3.618   5.006  0.5508 -0.0136  0.3814
19911TIP3    H181224   3.142   3.614   4.912  1.1635  0.2887  0.4701
19911TIP3    H281225   3.063   3.548   5.023  0.5705 -0.1792 -0.2255
19912TIP3   OH281226   0.848   5.234  16.233 -0.1556 -0.1537  0.1198
19912TIP3    H181227   0.806   5.151  16.257  1.3463 -1.7744 -2.4196
19912TIP3    H281228   0.933   5.231  16.277  0.8229 -1.1116 -1.7124
19913TIP3   OH281229   0.845   5.296  13.126 -0.3121  0.2310  0.1764
19913TIP3    H181230   0.815   5.300  13.216  0.5955  1.1916  0.4435
19913TIP3    H281231   0.940   5.306  13.131 -0.1345 -0.7445 -0.8104
19914TIP3   OH281232   0.630   2.842  16.150 -0.3168  0.5190 -0.1007
19914TIP3    H181233   0.604   2.847  16.058  0.6735  0.2981 -0.4003
19914TIP3    H281234   0.556   2.800  16.193 -1.2082  1.4982 -0.6141
19915TIP3   OH281235   4.475   4.253  15.673  0.0307 -0.0022 -0.0406
19915TIP3    H181236   4.564   4.245  15.638 -0.4702 -0.0933 -1.3357
19915TIP3    H281237   4.449   4.163  15.692 -0.2329 -0.0970 -0.8302
19916TIP3   OH281238   5.954   6.294   1.095  0.4026  0.8199  0.1366
19916TIP3    H181239   5.900   6.334   1.162 -0.5042 -2.7605  1.8247
19916TIP3    H281240   6.043   6.293   1.132 -0.1882 -1.6669  1.7898
19917TIP3   OH281241   1.404   2.509   0.552  0.1992  0.0129  0.8088
19917TIP3    H181242   1.450   2.537   0.631  0.2524  1.7499  0.1943
19917TIP3    H281243   1.469   2.516   0.482  0.2868 -1.9467  0.6214
19918TIP3   OH281244   1.752   2.482  16.143 -0.0386 -0.0829 -0.0672
19918TIP3    H181245   1.820   2.441  16.089 -0.5308 -0.3701 -0.4792
19918TIP3    H281246   1.788   2.567  16.166  1.8508 -1.4423  2.4397
19919TIP3   OH281247   6.749   6.299   0.739  0.2394 -0.4845 -0.3092
19919TIP3    H181248   6.767   6.298   0.833  0.3829 -0.3010 -0.3359
19919TIP3    H281249   6.833   6.320   0.698  0.3472 -1.2822 -0.5163
19920TIP3   OH281250   2.810   4.523   0.322 -0.0685  0.7916  0.4401
19920TIP3    H181251   2.842   4.435   0.345  0.3506  0.7924 -0.1191
19920TIP3    H281252   2.885   4.580   0.337  0.3042  0.7515 -1.1737
19921TIP3   OH281253   0.745   6.746   3.039  0.4061 -0.6110 -0.2271
19921TIP3    H181254   0.748   6.725   2.946 -1.1204  0.2715 -0.4958
19921TIP3    H281255   0.680   6.685   3.076 -1.6689  1.3655 -0.4367
19922TIP3   OH281256   3.188   5.116  14.717  0.5878  0.4113  0.4204
19922TIP3    H181257   3.237   5.140  14.638  0.7560 -2.1671 -0.3578
19922TIP3    H281258   3.255   5.096  14.782  0.4806  1.1103  0.7446
19923TIP3   OH281259   3.644   3.362  13.102  0.3380 -0.4329  0.1420
19923TIP3    H181260   3.562   3.392  13.063 -0.2463  0.0389  1.6502
19923TIP3    H281261   3.697   3.441  13.112 -0.2876 -0.1900  2.0012
19924TIP3   OH281262   3.543   6.518  16.003 -0.5002 -0.3778  0.1180
19924TIP3    H181263   3.449   6.502  16.008 -0.7848  1.0998  0.0337
19924TIP3    H281264   3.570   6.529  16.094 -0.2760 -1.4544  0.1851
19925TIP3   OH281265   5.543   1.917  11.561 -0.0783 -0.1534 -0.0731
19925TIP3    H181266   5.448   1.929  11.569  0.0339  0.2543  0.7700
19925TIP3    H281267   5.569   1.975  11.490 -0.3857  0.1339  0.0487
19926TIP3   OH281268   5.430   0.144   4.479 -0.2244 -0.5227  0.6149
19926TIP3    H181269   5.460   0.088   4.550  1.4144  0.7782  1.0236
19926TIP3    H281270   5.446   0.233   4.511  0.1739  0.1096 -1.2037
19927TIP3   OH281271   2.102   0.117  17.133 -0.0281 -0.0044 -0.0420
19927TIP3    H181272   2.092   0.158  17.047 -0.3196 -1.8290 -0.9178
19927TIP3    H281273   2.026   0.148  17.183 -0.2966  0.4325 -0.7080
19928TIP3   OH281274   5.033   0.868   2.456 -0.2955  0.0924  0.5755
19928TIP3    H181275   5.104   0.927   2.428 -0.0304 -0.2845  0.4504
19928TIP3    H281276   4.984   0.920   2.520 -2.8774  2.2576 -2.7998
19929TIP3   OH281277   0.723   0.891  12.959 -0.2256  0.4813  0.1571
19929TIP3    H181278   0.709   0.804  12.997 -0.5646 -0.3845 -1.8545
19929TIP3    H281279   0.675   0.950  13.017 -1.6437 -0.9099  0.4749
19930TIP3   OH281280   2.463   2.021  16.776  0.1974 -0.0913  0.7786
19930TIP3    H181281   2.438   1.948  16.833 -0.6778 -0.4773 -0.0700
19930TIP3    H281282   2.417   2.004  16.694  0.4722  1.0944  0.3624
19931TIP3   OH281283   4.663   4.615  14.202 -0.3619  0.2254  0.2980
19931TIP3    H181284   4.704   4.593  14.285 -0.2652  0.9700  0.4507
19931TIP3    H281285   4.570   4.625  14.223 -0.1557  1.7010  0.5823
19932TIP3   OH281286   4.674   1.963   3.109 -0.9321  0.1419  0.3183
19932TIP3    H181287   4.719   2.040   3.074 -0.9104 -0.7117 -1.6571
19932TIP3    H281288   4.709   1.954   3.198  1.5703  0.5015 -0.5281
19933TIP3   OH281289   4.722   4.895  13.250  0.9340 -0.4300  0.0550
19933TIP3    H181290   4.716   4.825  13.316 -0.6677 -0.3620  0.0133
19933TIP3    H281291   4.724   4.849  13.167  0.3615 -0.4421  0.0474
19934TIP3   OH281292   6.781   1.187   5.715 -0.6970 -0.0325 -0.8168
19934TIP3    H181293   6.800   1.275   5.683 -1.8803  0.2850 -0.6826
19934TIP3    H281294   6.775   1.197   5.810 -0.2148 -0.3815 -0.7485
19935TIP3   OH281295   5.991   5.542   0.774 -0.3215 -0.3284 -0.4646
19935TIP3    H181296   6.004   5.581   0.860  1.8106 -1.5181 -0.1664
19935TIP3    H281297   5.962   5.453   0.792  0.9575 -0.8648 -0.8885
19936TIP3   OH281298   5.866   6.047  16.219  0.1536 -0.2954  0.2900
19936TIP3    H181299   5.814   5.975  16.255  0.0490 -0.1101  0.5120
19936TIP3    H281300   5.847   6.046  16.125  0.2019 -0.5988  0.2810
19937TIP3   OH281301   1.557   3.567   2.317  0.5223  0.2363 -0.0086
19937TIP3    H181302   1.620   3.548   2.248  1.3752 -0.7345  0.9989
19937TIP3    H281303   1.581   3.654   2.349  1.0026  0.1086 -0.0140
19938TIP3   OH281304   2.789   0.975  13.421 -0.0511  0.0804 -0.3299
19938TIP3    H181305   2.830   1.056  13.452 -1.7286  0.3726  1.2862
19938TIP3    H281306   2.729   1.004  13.352  0.3140  0.0330 -0.6695
19939TIP3   OH281307   3.769   2.813  15.016 -0.3564 -0.7186 -0.1956
19939TIP3    H181308   3.685   2.769  15.033 -0.5686 -0.8951 -1.5405
19939TIP3    H281309   3.830   2.775  15.079 -1.1291 -1.1178  0.3216
19940TIP3   OH281310   6.122   2.922  14.621 -0.5531  0.6495  0.5647
19940TIP3    H181311   6.038   2.937  14.579 -0.2723  0.6234 -0.0175
19940TIP3    H281312   6.181   2.986  14.582 -0.0261 -0.0893  0.1106
19941TIP3   OH281313   1.911   0.856  13.405  0.5475  0.8815 -0.0106
19941TIP3    H181314   1.962   0.936  13.417 -1.2510  2.3012 -1.2898
19941TIP3    H281315   1.929   0.804  13.484  2.0983  2.3225  0.6463
19942TIP3   OH281316   4.914   6.497   4.617 -0.0920 -0.2021 -0.4402
19942TIP3    H181317   4.960   6.415   4.635  2.2131  1.2251  0.5515
19942TIP3    H281318   4.861   6.513   4.695  1.3185  0.4135  0.4187
19943TIP3   OH281319   4.252   4.704  14.632  0.3682 -0.3188 -0.3398
19943TIP3    H181320   4.214   4.790  14.650  2.0371  0.5792 -0.8606
19943TIP3    H281321   4.178   4.644  14.632 -1.0299  1.3311 -1.3100
19944TIP3   OH281322   1.587   0.866   2.479 -0.0832  0.7795  0.5735
19944TIP3    H181323   1.651   0.835   2.543 -0.3761 -0.9054  0.0935
19944TIP3    H281324   1.630   0.939   2.435  1.2101  0.1616  0.7753
19945TIP3   OH281325   0.836   1.129   5.770  0.3869 -0.3964 -0.8497
19945TIP3    H181326   0.900   1.113   5.701  1.4326  1.9166 -0.5024
19945TIP3    H281327   0.871   1.086   5.847  1.7199  1.0265 -0.6079
19946TIP3   OH281328   1.126   2.657  11.924  0.1902 -0.3063 -0.6404
19946TIP3    H181329   1.048   2.682  11.875 -0.2630 -0.6756 -0.1084
19946TIP3    H281330   1.177   2.739  11.931 -0.2796 -0.0043 -0.7391
19947TIP3   OH281331   6.377   2.176   1.842 -0.5902  0.2649 -0.0391
19947TIP3    H181332   6.464   2.192   1.877  0.3117 -0.4736 -1.8190
19947TIP3    H281333   6.384   2.201   1.750 -1.7421 -1.5008 -0.6425
19948TIP3   OH281334   5.656   6.801   2.998  0.1512 -0.0476  0.0466
19948TIP3    H181335   5.730   6.758   3.041 -0.0750 -1.0637 -0.5266
19948TIP3    H281336   5.656   6.890   3.032 -0.8217 -1.0940  3.2519
19949TIP3   OH281337   1.247   4.579   3.472  0.2958  0.1995  0.2793
19949TIP3    H181338   1.181   4.542   3.412  0.7256  0.2610 -0.2394
19949TIP3    H281339   1.324   4.524   3.459  0.0844 -0.4187  1.5289
19950TIP3   OH281340   1.069   1.176   5.384 -0.1145 -0.7179 -0.0078
19950TIP3    H181341   1.033   1.247   5.437 -0.0261 -1.0434  0.4984
19950TIP3    H281342   1.000   1.109   5.385  0.6611 -1.5494  1.3745
19951TIP3   OH281343   1.023   0.702   3.139 -0.1149  0.3010 -0.1303
19951TIP3    H181344   1.030   0.616   3.098 -1.6814  0.3085 -0.4624
19951TIP3    H281345   1.078   0.759   3.085  0.9644 -0.4722  0.1181
19952TIP3   OH281346   2.212   3.969   4.403 -0.6881  0.2136  0.5290
19952TIP3    H181347   2.180   3.885   4.436 -1.9854 -0.5329 -2.2943
19952TIP3    H281348   2.134   4.025   4.400 -0.4951  0.4551 -0.5677
19953TIP3   OH281349   3.455   6.320  11.412  0.4578  0.0533  0.4102
19953TIP3    H181350   3.402   6.248  11.377 -1.0674  0.5711  1.5584
19953TIP3    H281351   3.506   6.351  11.337 -0.1933 -1.0588 -0.5166
19954TIP3   OH281352   2.690   0.942  12.821  0.3443  0.4079  0.4212
19954TIP3    H181353   2.620   0.989  12.865 -0.9176 -0.2455 -0.7854
19954TIP3    H281354   2.685   0.971  12.730 -0.6196 -2.0846 -0.4303
19955TIP3   OH281355   1.385   0.052   4.320  0.3892 -0.1002 -0.2160
19955TIP3    H181356   1.426   0.005   4.393 -0.7825 -2.2593 -0.8671
19955TIP3    H281357   1.442   0.036   4.245  0.4163  0.2304 -0.2690
19956TIP3   OH281358   0.433   3.196   1.888  0.3066  0.2749  0.3191
19956TIP3    H181359   0.371   3.227   1.822  1.2683 -0.7966 -1.1652
19956TIP3    H281360   0.457   3.274   1.937 -0.1876  1.1771 -0.8215
19957TIP3   OH281361   0.062   0.793   2.850  0.6167  0.1320  0.5382
19957TIP3    H181362   0.141   0.783   2.904 -0.6120 -0.1384  2.3695
19957TIP3    H281363   0.095   0.800   2.761  2.7788  1.0053  1.3370
19958TIP3   OH281364   5.696   4.740  12.220 -0.1939  0.2073 -0.4184
19958TIP3    H181365   5.766   4.705  12.275 -1.0704  0.2648  0.7710
19958TIP3    H281366   5.705   4.835  12.228 -0.4323  0.2154 -0.2112
19959TIP3   OH281367   0.722   2.800  13.351  0.5227  0.1116 -0.3076
19959TIP3    H181368   0.805   2.819  13.307  0.9015 -1.5801 -0.3746
19959TIP3    H281369   0.667   2.876  13.332  0.8358 -0.3039 -3.2895
19960TIP3   OH281370   3.196   4.682  14.862 -0.0822  0.3317  0.6115
19960TIP3    H181371   3.271   4.629  14.889  0.2507 -0.9571 -2.4953
19960TIP3    H281372   3.135   4.620  14.823 -0.6258  1.9171 -1.2100
19961TIP3   OH281373   3.036   5.561  15.487 -0.4141 -0.1442 -0.2403
19961TIP3    H181374   2.942   5.546  15.497 -0.0493 -0.9514  3.0290
19961TIP3    H281375   3.071   5.478  15.456 -0.3262 -1.3867  2.8721
19962TIP3   OH281376   1.217   0.103  13.358  0.0648  0.6619 -0.0200
19962TIP3    H181377   1.144   0.146  13.402 -1.8453  0.7644 -3.0359
19962TIP3    H281378   1.293   0.159  13.378 -1.3719  2.6316  0.2471
19963TIP3   OH281379   5.185   1.566   1.412 -0.7247 -0.5040 -0.4655
19963TIP3    H181380   5.191   1.569   1.508 -0.1700 -0.0042 -0.5138
19963TIP3    H281381   5.131   1.489   1.394 -1.5380 -0.1260  0.2818
19964TIP3   OH281382   3.348   3.385   2.623  0.3444  0.2281  0.6321
19964TIP3    H181383   3.304   3.340   2.695 -1.2519  0.0136 -0.4197
19964TIP3    H281384   3.358   3.475   2.653 -1.6234  0.4880  0.6063
19965TIP3   OH281385   5.753   0.761   2.347  0.5278 -0.8434  0.1513
19965TIP3    H181386   5.779   0.802   2.264  0.5576  0.5124  0.8116
19965TIP3    H281387   5.658   0.776   2.351  0.3143 -1.9556 -0.1732
19966TIP3   OH281388   6.550   0.717   2.342 -0.2148 -0.1272 -0.2185
19966TIP3    H181389   6.487   0.747   2.277 -1.3692 -2.8167 -0.4591
19966TIP3    H281390   6.557   0.789   2.404 -4.0866  0.1068  0.1989
19967TIP3   OH281391   5.946   6.010   1.082  0.3412 -0.8381  0.1682
19967TIP3    H181392   5.941   6.105   1.093  1.6503 -1.0245  3.1878
19967TIP3    H281393   6.040   5.991   1.082  0.1231 -2.1191 -1.2598
19968TIP3   OH281394   6.786   4.391  14.191 -0.8325 -0.0589  0.5071
19968TIP3    H181395   6.711   4.427  14.237  0.3682  1.4728  1.3738
19968TIP3    H281396   6.853   4.381  14.259  0.3749  0.4794 -0.5463
19969TIP3   OH281397   5.408   6.781  15.511  0.3194 -0.3750  0.0675
19969TIP3    H181398   5.478   6.845  15.527  0.7423 -0.7087 -0.4037
19969TIP3    H281399   5.401   6.732  15.592  0.2842 -0.0113  0.2896
19970TIP3   OH281400   3.396   3.213  15.218  0.3054  0.0526  0.6552
19970TIP3    H181401   3.461   3.269  15.260  0.7057 -1.5295  2.2815
19970TIP3    H281402   3.312   3.252  15.242  0.5628 -0.2430  2.1909
19971TIP3   OH281403   6.662   0.290  15.508 -0.5104  0.5153 -0.6036
19971TIP3    H181404   6.588   0.317  15.562  0.6277  0.8201  0.8686
19971TIP3    H281405   6.734   0.349  15.533  1.9812 -3.3141  2.4613
19972TIP3   OH281406   5.074   4.857   1.735 -0.0984 -0.0970 -0.1250
19972TIP3    H181407   5.109   4.815   1.814  0.1218  0.7031  0.2173
19972TIP3    H281408   5.073   4.788   1.669  2.3128 -0.1481 -0.2028
19973TIP3   OH281409   3.731   2.094  14.891 -0.3601 -0.3110 -0.5229
19973TIP3    H181410   3.802   2.069  14.833 -0.2253  0.3181 -0.6445
19973TIP3    H281411   3.681   2.159  14.841 -1.4854 -1.3067 -0.7462
19974TIP3   OH281412   2.585   4.416  14.062  0.5741 -0.3688  0.1801
19974TIP3    H181413   2.493   4.392  14.071  0.1200  0.9227 -0.6309
19974TIP3    H281414   2.591   4.504  14.100  1.2734 -0.0798 -0.5629
19975TIP3   OH281415   3.363   5.654   2.724  0.3613 -0.2412  0.1268
19975TIP3    H181416   3.447   5.694   2.746 -0.2449  1.4903 -0.5904
19975TIP3    H281417   3.325   5.631   2.809  1.2651 -0.4448  0.4874
19976TIP3   OH281418   4.795   2.466  13.059  0.3003  0.1888  0.5622
19976TIP3    H181419   4.712   2.447  13.016 -0.9914  2.5686  1.8001
19976TIP3    H281420   4.788   2.426  13.145  0.4882  0.3171  0.6379
19977TIP3   OH281421   2.149   4.045   4.045  0.3084 -0.7467 -0.3247
19977TIP3    H181422   2.231   3.996   4.051  1.5619  1.1486 -0.8756
19977TIP3    H281423   2.149   4.081   3.956  0.6559  2.0676  0.7032
19978TIP3   OH281424   6.229   5.317   2.842  0.1779  0.5227 -0.0824
19978TIP3    H181425   6.298   5.329   2.776 -0.2173  2.4000 -0.2153
19978TIP3    H281426   6.273   5.270   2.913  0.8316 -0.8055 -1.2972
19979TIP3   OH281427   0.652   4.338  16.526 -0.3210  0.3831  0.2531
19979TIP3    H181428   0.615   4.422  16.500 -0.4582  0.0401 -0.7114
19979TIP3    H281429   0.603   4.273  16.475 -0.6410 -0.3371  1.4398
19980TIP3   OH281430   6.115   5.762  15.994 -0.4734 -0.8504 -0.4709
19980TIP3    H181431   6.060   5.768  15.916  0.9492 -1.5803 -1.5953
19980TIP3    H281432   6.170   5.685  15.978  0.9411 -0.0825  0.5292
19981TIP3   OH281433   2.924   0.692   4.553 -0.0699  0.2018  0.4983
19981TIP3    H181434   2.886   0.664   4.470 -2.9280  0.3327  1.6202
19981TIP3    H281435   2.996   0.749   4.529 -0.0171 -0.7547 -1.8605
19982TIP3   OH281436   4.832   1.802  12.282  0.5993  0.6450  0.1312
19982TIP3    H181437   4.845   1.892  12.253  0.6060  0.5509 -0.1657
19982TIP3    H281438   4.751   1.804  12.334  0.3444  0.7407 -0.2597
19983TIP3   OH281439   2.837   0.605   6.034 -0.6646  0.3624 -0.3803
19983TIP3    H181440   2.755   0.580   6.075 -2.2264 -1.4946 -4.1491
19983TIP3    H281441   2.811   0.658   5.959  1.2296 -2.0442 -2.9513
19984TIP3   OH281442   2.338   2.739   4.836 -0.3134  0.7209  0.1291
19984TIP3    H181443   2.266   2.795   4.808 -2.4724 -0.5993  2.5929
19984TIP3    H281444   2.298   2.653   4.847  1.6652 -0.0932  1.5217
19985TIP3   OH281445   3.040   4.909  13.083  0.2833  0.0215 -0.7251
19985TIP3    H181446   3.039   4.858  13.002 -0.3210  0.5144 -1.0326
19985TIP3    H281447   2.954   4.894  13.122  0.3190  0.3383 -0.5239
19986TIP3   OH281448   5.868   4.960   5.827  0.4994 -0.4862  0.4495
19986TIP3    H181449   5.827   5.039   5.863 -0.5963 -1.0296  0.4489
19986TIP3    H281450   5.849   4.892   5.891 -0.0233 -1.1020 -0.3373
19987TIP3   OH281451   4.144   0.732  14.437 -0.2494  0.1196  0.4435
19987TIP3    H181452   4.197   0.657  14.466 -0.6680 -0.2956  0.1592
19987TIP3    H281453   4.165   0.741  14.344 -0.1572  0.3955  0.4905
19988TIP3   OH281454   6.731   3.705   4.797 -0.3122 -0.3346 -0.3086
19988TIP3    H181455   6.727   3.796   4.827  0.9128 -0.3454 -0.0862
19988TIP3    H281456   6.770   3.710   4.710 -1.1957 -0.5690 -0.7313
19989TIP3   OH281457   6.780   0.628  13.699  0.5753 -0.6329  0.2072
19989TIP3    H181458   6.746   0.629  13.789  0.8363 -1.8310  0.3349
19989TIP3    H281459   6.855   0.689  13.701  0.1026 -0.0492  0.5930
19990TIP3   OH281460   4.387   1.637  11.883 -0.1041 -0.0305 -0.0210
19990TIP3    H181461   4.321   1.706  11.881 -1.1260 -0.8414  2.0635
19990TIP3    H281462   4.343   1.561  11.845  1.0132  0.3778 -2.3039
19991TIP3   OH281463   3.230   3.288   2.844 -0.1617  0.0256 -0.0830
19991TIP3    H181464   3.163   3.355   2.857 -0.7910 -0.5970 -0.0861
19991TIP3    H281465   3.278   3.287   2.927 -1.0617 -0.5098  0.4537
19992TIP3   OH281466   2.185   3.127   5.332 -0.5553 -0.7887 -0.0052
19992TIP3    H181467   2.208   3.066   5.262 -0.8248 -0.1378 -0.6744
19992TIP3    H281468   2.178   3.072   5.410  0.5969 -1.3943 -0.3079
19993TIP3   OH281469   3.018   6.704   5.027  0.0467  0.3894 -0.3303
19993TIP3    H181470   3.036   6.796   5.006 -1.5212  0.2102 -2.8896
19993TIP3    H281471   3.050   6.656   4.951 -1.3801 -0.9431 -0.1248
19994TIP3   OH281472   4.331   5.547  16.883  0.1729 -0.0433  0.0280
19994TIP3    H181473   4.381   5.561  16.803 -0.3838 -2.1690 -0.7536
19994TIP3    H281474   4.240   5.547  16.855 -0.0351 -0.6397  0.6781
19995TIP3   OH281475   2.045   1.562   0.501 -0.4558 -0.2104 -0.1485
19995TIP3    H181476   2.044   1.656   0.487 -1.0507  0.2168  2.3207
19995TIP3    H281477   1.956   1.541   0.532  0.4958 -1.0293  2.2236
19996TIP3   OH281478   6.490   3.573  11.814  0.5837 -0.8802  0.2146
19996TIP3    H181479   6.447   3.623  11.883  1.1884  0.2731 -0.2210
19996TIP3    H281480   6.479   3.481  11.840  1.5650 -0.4474  2.3066
19997TIP3   OH281481   3.115   3.952   4.315 -0.3765  0.4530 -0.2829
19997TIP3    H181482   3.119   3.964   4.221 -0.4993 -0.4247 -0.4113
19997TIP3    H281483   3.083   3.862   4.327  2.4794 -0.5860  0.5579
19998TIP3   OH281484   2.348   6.712   1.678  0.1064  0.2994 -0.1108
19998TIP3    H181485   2.401   6.776   1.630 -2.9169  2.8337 -0.4026
19998TIP3    H281486   2.300   6.764   1.743 -1.6965 -1.8264  0.4044
19999TIP3   OH281487   3.453   2.243  13.857  0.2346 -0.1728 -0.8170
19999TIP3    H181488   3.526   2.304  13.848 -1.5405  2.1680 -0.5769
19999TIP3    H281489   3.431   2.245  13.950 -0.6317 -0.1544 -1.0067
20000TIP3   OH281490   4.487   2.966   5.733  0.0215 -0.0258 -0.1016
20000TIP3    H181491   4.424   2.924   5.675 -0.1947 -0.0055  0.1154
20000TIP3    H281492   4.439   2.982   5.814 -0.9666  3.7148 -1.2133
20001TIP3   OH281493   0.741   0.834   0.582  0.4857 -0.1412 -0.1027
20001TIP3    H181494   0.692   0.796   0.655 -0.7464 -0.9132 -1.3005
20001TIP3    H281495   0.714   0.926   0.580  0.1797 -0.2252  0.1419
20002TIP3   OH281496   3.401   6.620  10.657  0.5573  0.1725  0.3635
20002TIP3    H181497   3.461   6.687  10.623 -0.2132  0.6490 -0.1022
20002TIP3    H281498   3.323   6.627  10.601  1.1150 -2.3274 -0.8287
20003TIP3   OH281499   0.068   0.587   3.746 -0.5114  0.0962  0.0744
20003TIP3    H181500   0.116   0.619   3.670  0.3327  1.0604  0.9667
20003TIP3    H281501   0.137   0.559   3.807 -0.9835  2.1668  1.6708
20004TIP3   OH281502   6.114   6.523   1.836  0.4453  0.1663  1.2412
20004TIP3    H181503   6.098   6.587   1.905  1.4221 -2.1462  3.7756
20004TIP3    H281504   6.209   6.517   1.830  0.4319  1.2209 -1.3142
20005TIP3   OH281505   1.102   3.022  12.423  0.2314  0.5103 -0.0860
20005TIP3    H181506   1.029   2.964  12.442  0.0231  0.4758 -0.9648
20005TIP3    H281507   1.126   3.003  12.332 -0.2941  2.2659 -0.6413
20006TIP3   OH281508   4.636   0.752   0.604 -1.1254  0.1064 -0.4458
20006TIP3    H181509   4.570   0.789   0.546  0.2692  0.8102 -1.6744
20006TIP3    H281510   4.719   0.765   0.557 -0.2060 -1.6218  0.5756
20007TIP3   OH281511   4.029   5.125  11.261 -0.3230 -0.0360  0.5892
20007TIP3    H181512   3.937   5.152  11.258  0.0627  1.3413  0.6567
20007TIP3    H281513   4.035   5.070  11.340 -1.1320 -0.3744  0.4300
20008TIP3   OH281514   3.981   3.537  12.396 -0.5454 -0.5469  0.1991
20008TIP3    H181515   4.022   3.548  12.310  2.5449 -2.1271  1.3046
20008TIP3    H281516   4.021   3.606  12.450 -1.2427 -0.5722  0.7519
20009TIP3   OH281517   4.576   4.379  15.016 -0.4305  0.0200  0.3287
20009TIP3    H181518   4.556   4.444  14.948 -0.3057 -1.5555 -1.2677
20009TIP3    H281519   4.509   4.311  15.005  0.1837 -0.7422  1.1511
20010TIP3   OH281520   4.559   3.738  12.367  0.2057  0.2043 -0.1259
20010TIP3    H181521   4.654   3.735  12.360  0.2319 -0.3206  0.3892
20010TIP3    H281522   4.534   3.817  12.318  1.0716  1.4774  1.3526
20011TIP3   OH281523   2.943   3.461  16.290 -0.1412 -0.0044  0.3260
20011TIP3    H181524   3.005   3.495  16.355 -2.5314  0.8327  2.3013
20011TIP3    H281525   2.929   3.533  16.229 -2.1591  1.3212  2.2202
20012TIP3   OH281526   6.743   3.550  13.378  0.5896  0.5431 -0.0895
20012TIP3    H181527   6.802   3.521  13.308 -0.4071 -0.8365 -0.4183
20012TIP3    H281528   6.672   3.595  13.332  0.6360  0.8785  0.1669
20013TIP3   OH281529   4.253   1.595  15.735 -0.0552  0.8112 -0.0250
20013TIP3    H181530   4.238   1.665  15.672 -0.8454  1.7099  1.1261
20013TIP3    H281531   4.178   1.599  15.794  0.9698  0.4259  1.3501
20014TIP3   OH281532   5.186   6.121  13.754 -0.5968  0.3289  0.0405
20014TIP3    H181533   5.218   6.197  13.705 -0.9618  0.5074  0.0769
20014TIP3    H281534   5.265   6.084  13.795 -0.2932  0.1852 -0.6609
20015TIP3   OH281535   2.693   5.006  13.989 -0.5443  0.2953 -0.0136
20015TIP3    H181536   2.735   4.933  14.034 -0.3922  1.0031  1.0564
20015TIP3    H281537   2.605   5.010  14.028 -0.9581 -0.0249 -0.8974
20016TIP3   OH281538   4.581   5.389  17.036  0.9235  0.0155  0.2275
20016TIP3    H181539   4.596   5.476  16.999  1.2631  0.4095  1.2780
20016TIP3    H281540   4.615   5.329  16.969 -0.3240  0.6234 -0.9982
20017TIP3   OH281541   6.347   4.784  15.223  0.0618 -0.3139 -0.2828
20017TIP3    H181542   6.420   4.816  15.276  0.1858 -0.3109 -0.4546
20017TIP3    H281543   6.351   4.837  15.143 -0.0430 -0.4096 -0.3507
20018TIP3   OH281544   4.510   6.343   3.755  0.0264  0.4417  0.3992
20018TIP3    H181545   4.574   6.288   3.801 -1.0426 -1.0276  0.2074
20018TIP3    H281546   4.555   6.426   3.743  0.7433  0.5509  3.1159
20019TIP3   OH281547   0.064   3.648  11.693 -0.4131 -0.5126  0.0362
20019TIP3    H181548   0.026   3.681  11.774 -0.2148  0.6150 -0.3220
20019TIP3    H281549   0.155   3.676  11.696 -0.3103 -0.7915 -0.4062
20020TIP3   OH281550   0.037   1.873   6.707 -0.3518 -0.0083  0.2513
20020TIP3    H181551  -0.008   1.821   6.641 -0.5718 -1.0771  1.2011
20020TIP3    H281552   0.116   1.822   6.728 -1.7682 -1.2946  2.9476
20021TIP3   OH281553   0.911   3.380   5.233 -0.4129 -0.7583 -0.4432
20021TIP3    H181554   0.979   3.371   5.300 -1.9486  1.6413  1.6200
20021TIP3    H281555   0.868   3.294   5.231  0.5720 -1.2988  0.6401
20022TIP3   OH281556   1.549   0.943   1.935  0.1123 -0.2027 -0.3426
20022TIP3    H181557   1.586   0.858   1.957  0.2376 -0.9026 -2.9694
20022TIP3    H281558   1.454   0.931   1.941  0.1320 -0.4977 -0.6404
20023TIP3   OH281559   5.109   5.973   1.008  0.1800 -0.5147 -0.2048
20023TIP3    H181560   5.072   5.915   0.942  3.2385 -1.3667 -1.3287
20023TIP3    H281561   5.110   6.059   0.966 -1.1927 -0.2968  0.1614
20024TIP3   OH281562   5.287   5.132   2.486 -0.3880 -0.1702 -0.1514
20024TIP3    H181563   5.222   5.136   2.415 -0.0183  3.4372 -0.4683
20024TIP3    H281564   5.238   5.155   2.565  0.2567  2.0724 -0.3159
20025TIP3   OH281565   5.304   0.440   3.721  0.6560  0.2681  0.0022
20025TIP3    H181566   5.358   0.460   3.644 -0.7582  0.7300 -0.9220
20025TIP3    H281567   5.222   0.407   3.684  0.4976 -0.9956  1.3753
20026TIP3   OH281568   1.944   5.689   4.431 -0.1366 -0.1053 -0.3159
20026TIP3    H181569   1.925   5.712   4.522  2.9144 -1.8897  0.9504
20026TIP3    H281570   1.996   5.608   4.438 -0.5088 -0.7541 -3.7139
20027TIP3   OH281571   3.801   2.777   1.517  0.1818 -0.1633 -0.2439
20027TIP3    H181572   3.750   2.696   1.508  0.6007 -0.5053  0.3568
20027TIP3    H281573   3.751   2.830   1.578  1.4842 -1.3251  1.9600
20028TIP3   OH281574   3.156   1.965   1.768  0.2530 -0.0999 -0.4160
20028TIP3    H181575   3.248   1.942   1.779  0.9102  2.2242 -0.5113
20028TIP3    H281576   3.141   1.961   1.674  0.3852 -0.0633 -0.4394
20029TIP3   OH281577   4.668   6.386   0.801  0.4149  0.1331  0.5007
20029TIP3    H181578   4.677   6.457   0.865 -0.7932  0.0759  0.7641
20029TIP3    H281579   4.718   6.313   0.838 -1.0518 -0.2186  1.9115
20030TIP3   OH281580   0.664   4.071  11.963  0.3512 -0.1140  0.7074
20030TIP3    H181581   0.671   4.162  11.991 -0.9067  0.3763 -0.4460
20030TIP3    H281582   0.729   4.063  11.893  0.1088  0.0455  0.4637
20031TIP3   OH281583   0.101   1.542   2.011 -0.4206 -0.5031  0.4012
20031TIP3    H181584   0.095   1.499   2.097  0.8012  0.3997  0.9789
20031TIP3    H281585   0.029   1.605   2.011 -0.2676 -0.3200  0.8923
20032TIP3   OH281586   2.008   2.990   0.148 -0.0383 -0.5188 -0.1698
20032TIP3    H181587   2.077   3.055   0.132 -1.3566  0.5081 -2.0587
20032TIP3    H281588   2.000   2.943   0.065 -0.2919 -1.9706  0.6416
20033TIP3   OH281589   6.578   0.459   5.465  0.1866 -0.2883 -0.1268
20033TIP3    H181590   6.641   0.464   5.537 -0.6016  0.3429  0.5484
20033TIP3    H281591   6.526   0.380   5.484  0.7249 -0.7782 -0.6532
20034TIP3   OH281592   3.391   5.021   0.255 -0.6172  0.1953 -0.2805
20034TIP3    H181593   3.384   4.981   0.342  0.9438 -1.3869 -0.8061
20034TIP3    H281594   3.474   5.068   0.257 -0.4546 -0.0476 -0.9660
20035TIP3   OH281595   2.397   3.380  13.221 -0.1630 -0.0591 -0.3871
20035TIP3    H181596   2.356   3.403  13.304 -1.0399 -0.8466 -0.5741
20035TIP3    H281597   2.360   3.441  13.158  0.3129  0.3762 -0.2533
20036TIP3   OH281598   3.861   0.773  15.499  0.7498  0.2556 -0.0877
20036TIP3    H181599   3.923   0.840  15.472  1.6119 -0.2303  0.6205
20036TIP3    H281600   3.902   0.690  15.474  0.0670 -0.0492 -0.2347
20037TIP3   OH281601   3.545   0.861   4.849 -0.6585 -0.2464 -0.3832
20037TIP3    H181602   3.574   0.937   4.798 -0.4282 -1.0879 -1.5499
20037TIP3    H281603   3.450   0.858   4.835 -0.8933  0.6477  0.8472
20038TIP3   OH281604   0.351   2.791  16.243 -0.1541  0.1110  0.4451
20038TIP3    H181605   0.297   2.867  16.223  0.9111  1.5085  2.5148
20038TIP3    H281606   0.367   2.797  16.337  1.4504 -1.7059  0.3575
20039TIP3   OH281607   2.589   1.519   0.448 -0.6156 -0.4047  0.3901
20039TIP3    H181608   2.582   1.594   0.390  1.5944 -0.6002 -0.1988
20039TIP3    H281609   2.624   1.449   0.393 -1.0077 -1.3717  1.3367
20040TIP3   OH281610   2.315   1.100   4.868  0.2128 -0.3441 -0.3825
20040TIP3    H181611   2.234   1.060   4.900  0.6228 -1.0047 -0.1364
20040TIP3    H281612   2.366   1.116   4.948 -0.0092  0.8390 -0.4634
20041TIP3   OH281613   5.192   1.830  11.184 -0.0094 -0.3562  0.2656
20041TIP3    H181614   5.151   1.753  11.225 -1.2392  0.0957 -0.0685
20041TIP3    H281615   5.137   1.903  11.211  0.0106  0.1418 -0.9911
20042TIP3   OH281616   6.463   6.729   2.618  0.0762  0.0948 -0.0994
20042TIP3    H181617   6.425   6.641   2.628 -0.4516  0.2279 -0.8461
20042TIP3    H281618   6.425   6.762   2.537  3.4819 -0.6302 -2.2309
20043TIP3   OH281619   4.413   4.376   4.060 -1.0015  0.1547  0.2138
20043TIP3    H181620   4.335   4.369   4.114 -0.1288  0.0293  1.5095
20043TIP3    H281621   4.449   4.287   4.059 -0.6470  0.2982 -0.0114
20044TIP3   OH281622   0.983   5.745  16.986  0.0376  0.2502 -0.3131
20044TIP3    H181623   0.951   5.801  16.916 -2.2919 -2.1139 -1.3169
20044TIP3    H281624   1.079   5.747  16.977 -0.0173  3.0481 -0.9852
20045TIP3   OH281625   4.849   6.699   2.177  0.5351  0.4585  0.3137
20045TIP3    H181626   4.795   6.688   2.256  0.4551  0.1845  0.2197
20045TIP3    H281627   4.934   6.663   2.202  0.6840  0.9015  0.4660
20046TIP3   OH281628   6.734   5.760  13.771 -0.5488 -0.2376  0.2178
20046TIP3    H181629   6.681   5.787  13.696 -0.7597  0.5875  0.6526
20046TIP3    H281630   6.778   5.680  13.742  0.0188  0.5216 -1.0645
20047TIP3   OH281631   3.489   5.284   1.574 -0.0436  0.3417  0.5843
20047TIP3    H181632   3.571   5.333   1.581  0.0821  0.1539  0.4477
20047TIP3    H281633   3.513   5.193   1.594  0.0804  0.0227 -0.8548
20048TIP3   OH281634   6.552   1.946  14.328 -0.0368  0.6054 -0.5249
20048TIP3    H181635   6.625   1.884  14.322  0.1430  0.9056 -1.5661
20048TIP3    H281636   6.483   1.896  14.371  0.7848  0.3333  0.5306
20049TIP3   OH281637   2.778   4.530   3.090 -0.2632 -0.8588 -0.8097
20049TIP3    H181638   2.754   4.605   3.145 -1.1457 -0.4526 -1.7151
20049TIP3    H281639   2.869   4.546   3.066 -0.6947  0.3748 -1.6805
20050TIP3   OH281640   5.387   1.309  16.324 -0.2247  0.0373 -0.4692
20050TIP3    H181641   5.480   1.287  16.318 -0.8856 -3.0859 -1.3667
20050TIP3    H281642   5.373   1.328  16.417  1.8098  3.9745 -0.7537
20051TIP3   OH281643   2.753   3.152   2.245 -0.5355 -0.1859  0.3064
20051TIP3    H181644   2.714   3.228   2.203 -0.9710 -0.7560 -0.3433
20051TIP3    H281645   2.792   3.102   2.174 -2.4940 -1.8851  0.3013
20052TIP3   OH281646   5.786   5.170   3.009  0.1327 -0.6862  0.4519
20052TIP3    H181647   5.744   5.146   3.092 -0.9754  1.8772  0.7382
20052TIP3    H281648   5.825   5.256   3.026  0.2289 -0.2766 -1.5589
20053TIP3   OH281649   2.401   4.955   4.149  0.1507 -0.3579  0.2309
20053TIP3    H181650   2.449   4.941   4.067  0.0844 -0.4691  0.2100
20053TIP3    H281651   2.409   4.871   4.196  1.6775  0.2440  1.1281
20054TIP3   OH281652   0.083   3.074  13.790  0.6595 -0.3761 -0.1894
20054TIP3    H181653   0.058   3.159  13.826  1.7546 -0.6763  1.3534
20054TIP3    H281654   0.126   3.095  13.707  0.2455  0.5066 -0.1905
20055TIP3   OH281655   1.239   6.730  14.169  0.0154 -0.1370 -0.2063
20055TIP3    H181656   1.169   6.749  14.231  1.0037  1.6473  0.4310
20055TIP3    H281657   1.272   6.644  14.195 -1.7008 -0.8990 -0.3576
20056TIP3   OH281658   6.317   5.844   5.429  0.1061 -0.2986  0.1030
20056TIP3    H181659   6.280   5.818   5.344  1.0435 -0.8715 -0.1521
20056TIP3    H281660   6.258   5.807   5.494 -0.7891  0.3965 -0.2910
20057TIP3   OH281661   1.949   3.598   2.666  0.5433  0.1046  0.0010
20057TIP3    H181662   1.975   3.570   2.754 -1.4044 -0.6230  0.4088
20057TIP3    H281663   1.922   3.518   2.622  0.2869  0.6215 -0.8189
20058TIP3   OH281664   1.839   0.643   0.205 -0.0440 -0.4847  0.3482
20058TIP3    H181665   1.800   0.679   0.125  1.2722  2.2263  0.7971
20058TIP3    H281666   1.768   0.593   0.246 -1.2613 -0.5052 -1.6268
20059TIP3   OH281667   6.827   3.453  15.444  0.1468 -0.3113  0.5900
20059TIP3    H181668   6.912   3.490  15.420 -0.4731  2.0105  1.6573
20059TIP3    H281669   6.798   3.506  15.519 -3.1383  0.3388 -0.9654
20060TIP3   OH281670   2.783   3.729   0.731  0.1391  0.1334 -0.2284
20060TIP3    H181671   2.790   3.689   0.645  1.2804  1.2759 -0.7013
20060TIP3    H281672   2.693   3.712   0.759  0.1953 -1.5351 -0.9823
20061TIP3   OH281673   2.212   4.603   0.514 -0.3154 -0.1115  0.2756
20061TIP3    H181674   2.265   4.543   0.462  0.5996  0.2859  0.7313
20061TIP3    H281675   2.158   4.546   0.568 -0.1984 -0.5234 -0.0350
20062TIP3   OH281676   0.254   6.076  12.761 -0.8159  0.0808  0.5747
20062TIP3    H181677   0.231   5.987  12.735  0.3928 -0.6319  1.7619
20062TIP3    H281678   0.256   6.126  12.679 -4.4880 -0.1794  0.1647
20063TIP3   OH281679   0.170   0.170   0.064 -0.6222  0.0974  0.2163
20063TIP3    H181680   0.107   0.161   0.136  1.7200 -2.1523  2.1895
20063TIP3    H281681   0.170   0.084   0.021  0.2563  0.4360 -0.4927
20064TIP3   OH281682   2.508   2.275   1.507 -0.1294  0.9490 -0.5721
20064TIP3    H181683   2.435   2.289   1.567 -1.1447  0.5208 -1.6644
20064TIP3    H281684   2.487   2.330   1.431  0.3892  0.3735 -1.1389
20065TIP3   OH281685   6.790   4.432   5.097  0.4754  0.3433 -0.3011
20065TIP3    H181686   6.845   4.491   5.046  1.9613 -0.1533  0.6575
20065TIP3    H281687   6.791   4.350   5.048 -1.1509  0.9152 -1.3553
20066TIP3   OH281688   6.514   5.039   3.344 -0.1087 -0.2875 -0.2259
20066TIP3    H181689   6.491   4.952   3.375 -0.9118 -0.1195 -0.3408
20066TIP3    H281690   6.504   5.034   3.249 -0.4599  0.0227 -0.2044
20067TIP3   OH281691   0.680   2.292   3.586  0.0658  0.3580 -0.4489
20067TIP3    H181692   0.627   2.314   3.509  2.0917  1.6997 -1.5612
20067TIP3    H281693   0.703   2.376   3.625  2.2153 -0.0494 -0.6626
20068TIP3   OH281694   0.743   3.658  14.532 -0.3304 -0.6204 -0.6285
20068TIP3    H181695   0.653   3.688  14.543 -0.6707 -1.3686 -1.2023
20068TIP3    H281696   0.738   3.563  14.544  0.0756 -0.8844 -2.2557
20069TIP3   OH281697   1.130   6.523   2.702 -0.4785  0.6332  0.4858
20069TIP3    H181698   1.116   6.578   2.779  0.6076  2.7638 -0.7495
20069TIP3    H281699   1.221   6.538   2.678 -0.7278 -0.1698 -1.0793
20070TIP3   OH281700   1.470   0.102   2.852  0.4404 -0.1174  0.5712
20070TIP3    H181701   1.484   0.159   2.928  1.5420 -1.4032  1.3621
20070TIP3    H281702   1.396   0.142   2.806 -0.9312  0.1366  2.8438
20071TIP3   OH281703   1.501   0.718   0.877 -0.2895  0.2081  0.3836
20071TIP3    H181704   1.592   0.713   0.906  1.0848  3.0136 -2.7364
20071TIP3    H281705   1.464   0.790   0.929 -0.7394 -0.8563  1.5705
20072TIP3   OH281706   6.778   5.332  13.588 -0.2352  0.1442  0.2166
20072TIP3    H181707   6.688   5.304  13.572  0.3275 -1.6395 -0.0835
20072TIP3    H281708   6.806   5.371  13.506 -0.1461 -1.0264 -0.3224
20073TIP3   OH281709   2.988   1.729  16.190  0.3179  0.1869 -0.1896
20073TIP3    H181710   2.984   1.636  16.166 -1.1017  0.7379 -2.3299
20073TIP3    H281711   2.964   1.731  16.283 -2.5806 -1.3563 -0.8014
20074TIP3   OH281712   1.515   5.345   5.617 -0.0659 -0.1682  0.1508
20074TIP3    H181713   1.476   5.368   5.701 -1.4189  2.2141 -1.0011
20074TIP3    H281714   1.607   5.369   5.625  0.1937 -1.4986  1.4351
20075TIP3   OH281715   1.425   3.027   5.361  0.4708  0.0187 -0.3400
20075TIP3    H181716   1.414   3.096   5.427  0.5512 -1.7917  1.7003
20075TIP3    H281717   1.361   3.049   5.293 -1.9625  0.3304  1.8597
20076TIP3   OH281718   1.114   4.024  12.936  0.1409 -0.2640  0.3109
20076TIP3    H181719   1.018   4.032  12.929  0.1805 -0.5586 -0.9834
20076TIP3    H281720   1.147   4.095  12.881  0.7233  0.9747  2.1791
20077TIP3   OH281721   1.550   4.038   4.937  0.1306 -0.3675 -0.5527
20077TIP3    H181722   1.529   3.964   4.881 -0.1867 -0.5224 -0.2291
20077TIP3    H281723   1.501   4.022   5.018  1.4979 -0.7560  0.2298
20078TIP3   OH281724   6.820   3.356   0.968  0.8846 -0.2829 -0.3675
20078TIP3    H181725   6.771   3.375   1.049 -0.1839 -0.1645 -1.0180
20078TIP3    H281726   6.811   3.261   0.957  0.9875 -0.2919 -0.3740
20079TIP3   OH281727   6.769   6.438  15.359  0.1590 -0.1496  0.1863
20079TIP3    H181728   6.738   6.518  15.403  0.4509 -0.0966  0.2977
20079TIP3    H281729   6.788   6.466  15.270  1.5358  0.2146  0.5777
20080TIP3   OH281730   2.556   1.415  12.437 -0.4665 -0.2899  0.0046
20080TIP3    H181731   2.568   1.496  12.486  0.1831 -0.4735  0.1531
20080TIP3    H281732   2.641   1.370  12.442 -0.2871 -0.1812 -1.5189
20081TIP3   OH281733   2.339   4.386  17.125  0.3239 -0.4997  0.3067
20081TIP3    H181734   2.427   4.349  17.118  0.4270 -0.3969  0.9395
20081TIP3    H281735   2.354   4.475  17.156  0.0189 -0.3214 -0.0589
20082TIP3   OH281736   5.910   0.117   1.109  0.0883 -0.0705 -0.3650
20082TIP3    H181737   5.989   0.075   1.142 -0.4331 -0.0729  0.9084
20082TIP3    H281738   5.932   0.140   1.018  1.8186  0.6349  0.1944
20083TIP3   OH281739   3.383   5.433  11.660  0.5322  0.3215 -0.7468
20083TIP3    H181740   3.403   5.510  11.607 -0.5906 -0.0935 -1.8320
20083TIP3    H281741   3.293   5.447  11.690  1.1848  0.6221  1.2525
20084TIP3   OH281742   5.203   6.338  11.836 -0.0397 -0.4268  0.0485
20084TIP3    H181743   5.262   6.290  11.894  0.1038 -1.6057 -1.0194
20084TIP3    H281744   5.116   6.324  11.874  0.0734 -1.0087  0.1018
20085TIP3   OH281745   2.155   3.799  13.235  0.0624 -0.3503  0.1632
20085TIP3    H181746   2.202   3.883  13.245  0.2264 -0.5062  0.8020
20085TIP3    H281747   2.163   3.758  13.322 -1.1409 -0.4432  0.2393
20086TIP3   OH281748   1.379   3.676   1.619 -0.0875  0.1008 -0.1019
20086TIP3    H181749   1.395   3.675   1.524  0.9144 -0.0014  0.0677
20086TIP3    H281750   1.465   3.675   1.659 -0.4446 -2.8212  0.8490
20087TIP3   OH281751   5.648   1.417  12.007 -0.3639  1.0386  0.2931
20087TIP3    H181752   5.610   1.392  12.091 -0.3208  1.0834  0.3261
20087TIP3    H281753   5.573   1.434  11.951 -0.4582 -1.0255 -0.3123
20088TIP3   OH281754   6.691   1.649   1.979  0.1428  0.0971  0.4488
20088TIP3    H181755   6.679   1.559   1.949 -0.6413  0.5471 -0.6735
20088TIP3    H281756   6.635   1.701   1.921 -1.1926  1.0896  2.5074
20089TIP3   OH281757   6.786   6.069  15.006  0.1706  0.4961  0.3345
20089TIP3    H181758   6.746   5.983  15.018  1.1924 -0.1179 -0.4552
20089TIP3    H281759   6.860   6.069  15.066 -0.5897  1.3575  1.2974
20090TIP3   OH281760   5.441   5.904  11.094 -0.1743 -0.1358  0.0795
20090TIP3    H181761   5.533   5.882  11.079  0.5063  0.5891  2.7027
20090TIP3    H281762   5.435   5.998  11.081  0.1999  0.3329  2.6990
20091TIP3   OH281763   1.348   4.476   3.688 -0.0931  0.4110 -0.4904
20091TIP3    H181764   1.282   4.459   3.755 -0.7307 -1.0377 -1.4308
20091TIP3    H281765   1.312   4.548   3.636 -0.1867  0.6785 -0.0583
20092TIP3   OH281766   5.622   1.336  13.739  0.7309 -0.3662  0.0678
20092TIP3    H181767   5.608   1.278  13.663  3.4033 -2.3552  0.9289
20092TIP3    H281768   5.540   1.332  13.787 -0.4921 -0.2949 -1.8771
20093TIP3   OH281769   4.512   0.585   0.390 -0.1461 -0.2838 -0.4701
20093TIP3    H181770   4.515   0.681   0.382 -1.3779 -0.1642  0.2518
20093TIP3    H281771   4.587   0.554   0.338  2.4096  1.2256  2.0495
20094TIP3   OH281772   1.830   2.185  14.966 -0.6270 -0.6764 -0.2395
20094TIP3    H181773   1.791   2.269  14.989 -0.6988 -0.6663 -0.3988
20094TIP3    H281774   1.825   2.181  14.870 -0.6079 -0.8537 -0.2334
20095TIP3   OH281775   1.405   2.626   4.870  0.0210 -0.3254 -0.1738
20095TIP3    H181776   1.452   2.689   4.923 -2.0509  2.4141 -1.3617
20095TIP3    H281777   1.431   2.645   4.780 -0.8713 -0.9773 -0.5919
20096TIP3   OH281778   2.080   1.725   2.419 -0.9042 -0.2911  0.5997
20096TIP3    H181779   2.103   1.704   2.328  0.7572  2.0982  0.3946
20096TIP3    H281780   1.993   1.686   2.430 -1.3267 -0.3635 -2.1339
20097TIP3   OH281781   6.005   1.411  16.522 -0.5692  0.0346 -0.0385
20097TIP3    H181782   6.007   1.317  16.541 -2.4580 -0.1920 -0.7835
20097TIP3    H281783   6.006   1.452  16.609 -2.0302 -0.7644  0.3854
20098TIP3   OH281784   3.096   4.655   2.231  0.2551  0.3002  0.1622
20098TIP3    H181785   3.063   4.592   2.296  1.1172  1.3517  1.6761
20098TIP3    H281786   3.187   4.628   2.216 -0.1876 -0.4636 -1.3154
20099TIP3   OH281787   4.374   3.922   5.086  0.0616 -0.0349 -0.3914
20099TIP3    H181788   4.390   3.896   5.177 -2.5118  2.6197  1.0084
20099TIP3    H281789   4.453   3.967   5.060  0.1041  0.9734  1.3244
20100TIP3   OH281790   5.936   0.152  13.727 -0.2475 -0.0697 -0.2170
20100TIP3    H181791   6.021   0.108  13.731 -0.3957 -0.6059 -2.0692
20100TIP3    H281792   5.876   0.092  13.771 -0.1030 -0.8904 -1.0938
20101TIP3   OH281793   3.801   3.460   4.620  0.0658  0.1441 -0.0064
20101TIP3    H181794   3.795   3.521   4.547  0.6167 -0.2386 -0.3824
20101TIP3    H281795   3.867   3.498   4.678  0.2589  0.0098 -0.1383
20102TIP3   OH281796   3.343   4.084   4.660  0.3527 -0.5712 -0.4193
20102TIP3    H181797   3.427   4.049   4.630 -0.1150 -1.9702 -0.1456
20102TIP3    H281798   3.367   4.151   4.724  1.2672 -0.4678 -0.8580
20103TIP3   OH281799   2.562   4.047  14.253  0.0233  0.2549 -0.4086
20103TIP3    H181800   2.506   4.079  14.324  0.2083  1.6320 -0.8651
20103TIP3    H281801   2.616   3.979  14.294 -0.0127  0.8876  0.7280
20104TIP3   OH281802   6.742   2.668   2.385  0.3274  0.2768 -0.0232
20104TIP3    H181803   6.715   2.582   2.353 -1.2143  0.9713 -0.7380
20104TIP3    H281804   6.812   2.695   2.326  0.3334 -0.1954 -0.2364
20105TIP3   OH281805   4.291   6.240   5.188  0.9271  0.2894  0.1205
20105TIP3    H181806   4.331   6.161   5.224  0.8350  0.6756  1.1014
20105TIP3    H281807   4.230   6.208   5.123  2.7312 -0.3256 -1.3631
20106TIP3   OH281808   4.499   5.163  12.230 -0.4185  0.6624  0.3013
20106TIP3    H181809   4.501   5.127  12.318 -1.8181  1.3904  0.6688
20106TIP3    H281810   4.460   5.250  12.241  2.6796  2.2836 -0.5489
20107TIP3   OH281811   2.408   3.934  10.541  0.1785 -0.2866  0.4331
20107TIP3    H181812   2.380   3.850  10.505  2.1196 -1.1960  0.9274
20107TIP3    H281813   2.415   3.919  10.635 -0.9520  0.9117  0.7448
20108TIP3   OH281814   1.765   1.875   1.668 -0.2013 -0.8491 -0.2600
20108TIP3    H181815   1.804   1.839   1.747  1.7761  0.9321 -0.3260
20108TIP3    H281816   1.705   1.943   1.699 -0.6716 -1.2508 -0.2704
20109TIP3   OH281817   0.153   5.887   6.004 -0.5496 -0.1915 -0.7556
20109TIP3    H181818   0.090   5.956   5.983 -1.4911 -1.0056 -0.6954
20109TIP3    H281819   0.233   5.933   6.028 -1.5456  0.9210  0.5615
20110TIP3   OH281820   5.761   0.646  15.966  0.2992  0.2716 -0.3104
20110TIP3    H181821   5.783   0.718  15.906 -0.5143  1.4330  0.7516
20110TIP3    H281822   5.718   0.582  15.910 -0.7478  1.4730 -0.9440
20111TIP3   OH281823   0.540   3.331  11.061  0.7128 -0.0297  0.1382
20111TIP3    H181824   0.532   3.396  10.992  0.0195  1.3601  1.4715
20111TIP3    H281825   0.494   3.254  11.027  0.3444  0.6391 -0.9188
20112TIP3   OH281826   6.278   3.944  13.669  0.0501 -0.0466  0.0716
20112TIP3    H181827   6.293   3.855  13.636  1.1973 -0.9881  2.7916
20112TIP3    H281828   6.365   3.983  13.676 -0.2390  0.5005  0.8360
20113TIP3   OH281829   3.881   3.834   4.968  0.3761 -1.1370 -0.1946
20113TIP3    H181830   3.810   3.788   4.923 -1.1698 -0.1663  1.1626
20113TIP3    H281831   3.880   3.799   5.057 -0.4659  1.0138  0.7160
20114TIP3   OH281832   2.728   0.387  13.371 -0.3653 -0.3048  0.0536
20114TIP3    H181833   2.696   0.455  13.312 -0.4138  1.0392  1.5597
20114TIP3    H281834   2.678   0.400  13.452  1.8998  0.0091  1.4897
20115TIP3   OH281835   4.694   4.747   3.612  0.0010 -0.3251 -0.0274
20115TIP3    H181836   4.621   4.747   3.674 -0.6780 -1.4817 -0.7998
20115TIP3    H281837   4.654   4.766   3.527  0.4882 -1.5088 -0.5477
20116TIP3   OH281838   6.419   3.279   1.760  0.5195 -0.3119 -0.0446
20116TIP3    H181839   6.346   3.218   1.769  0.0605  0.2813  0.2752
20116TIP3    H281840   6.383   3.352   1.711  0.6141  0.4435  0.9882
20117TIP3   OH281841   1.750   5.603  10.597 -0.6181 -0.4831 -0.2053
20117TIP3    H181842   1.728   5.510  10.606 -2.3147 -0.1694 -0.9040
20117TIP3    H281843   1.672   5.649  10.625 -0.1410  0.7324 -0.8289
20118TIP3   OH281844   3.014   6.355  11.261 -0.3617  0.0504  0.6069
20118TIP3    H181845   2.921   6.373  11.270 -0.9631 -1.4356 -1.7613
20118TIP3    H281846   3.051   6.437  11.229 -1.1940  0.1626 -0.1134
20119TIP3   OH281847   2.888   6.699  11.863 -0.3165  0.2866 -0.4697
20119TIP3    H181848   2.856   6.609  11.866  0.4676  0.0343  1.1584
20119TIP3    H281849   2.969   6.697  11.914 -1.1185  2.2248  0.9831
20120TIP3   OH281850   6.530   6.354  12.762  0.0752  0.0854  0.5347
20120TIP3    H181851   6.596   6.317  12.820  0.2342  0.5210  0.6311
20120TIP3    H281852   6.471   6.281  12.744  1.2265 -0.6363 -0.5074
20121TIP3   OH281853   6.768   2.489  11.471  0.0500 -0.0443 -0.0834
20121TIP3    H181854   6.838   2.473  11.408 -1.3073 -1.3147 -1.3703
20121TIP3    H281855   6.696   2.433  11.441 -1.3178  0.7697  1.5102
20122TIP3   OH281856   1.432   0.922   4.725 -0.1332 -0.2695 -0.0339
20122TIP3    H181857   1.414   0.888   4.637  1.2793 -0.8156 -0.1424
20122TIP3    H281858   1.428   1.017   4.715 -0.1282 -0.3320 -0.6597
20123TIP3   OH281859   5.840   3.119  16.051  0.6254  0.3937 -0.0327
20123TIP3    H181860   5.857   3.123  15.957  1.8984 -1.1909  0.0990
20123TIP3    H281861   5.913   3.069  16.087 -0.9501 -0.9497  1.4988
20124TIP3   OH281862   6.407   1.293   4.448  0.5101 -0.4139  0.9780
20124TIP3    H181863   6.367   1.321   4.366  1.2632  0.0646  0.7644
20124TIP3    H281864   6.388   1.365   4.509 -0.0495 -0.7686  1.2303
20125TIP3   OH281865   0.201   2.978   5.937  0.3855 -0.4997 -0.2293
20125TIP3    H181866   0.108   2.987   5.960  0.4539  0.7720 -0.3815
20125TIP3    H281867   0.201   2.941   5.849  0.0531 -1.4120  0.1373
20126TIP3   OH281868   1.328   2.945   4.575  0.5520  0.2097  0.0447
20126TIP3    H181869   1.362   2.994   4.500 -1.5047  1.2083 -0.3253
20126TIP3    H281870   1.311   2.857   4.541  2.1483 -0.1556  0.1087
20127TIP3   OH281871   6.016   0.648  10.884 -0.5065 -0.2590  0.6460
20127TIP3    H181872   5.966   0.670  10.963 -2.5986  2.5180 -1.3048
20127TIP3    H281873   5.952   0.611  10.824  0.4926  0.0898 -0.6892
20128TIP3   OH281874   4.187   4.894   1.069  0.1053  0.1651  0.1044
20128TIP3    H181875   4.258   4.957   1.064 -1.7910  2.5214  0.9893
20128TIP3    H281876   4.165   4.888   1.162 -2.3676  1.3947 -0.3120
20129TIP3   OH281877   2.533   6.668  17.167  0.4585 -0.8137  0.4957
20129TIP3    H181878   2.482   6.632  17.095  2.3099 -1.2788 -0.6375
20129TIP3    H281879   2.471   6.670  17.241 -0.5699 -3.4504 -0.1746
20130TIP3   OH281880   2.489   4.539  14.837  0.1577  0.1579 -0.5835
20130TIP3    H181881   2.448   4.497  14.913  3.1158 -2.9012 -0.4339
20130TIP3    H281882   2.450   4.493  14.762  1.4276 -1.0147 -0.5559
20131TIP3   OH281883   1.663   1.684  10.863  0.0077 -0.0193  0.3069
20131TIP3    H181884   1.605   1.759  10.848  1.9032  1.2451 -1.2207
20131TIP3    H281885   1.627   1.615  10.808 -1.5589 -0.1688  1.4509
20132TIP3   OH281886   2.170   1.580   5.524  0.1485  0.2000 -0.2460
20132TIP3    H181887   2.090   1.572   5.474 -0.9478  0.0501  1.4399
20132TIP3    H281888   2.142   1.619   5.607  1.2816 -2.6917  1.6231
20133TIP3   OH281889   5.056   4.018  16.551  0.1910 -0.1714  0.0356
20133TIP3    H181890   5.020   4.008  16.463 -2.8496 -1.1528  1.2767
20133TIP3    H281891   5.132   3.959  16.552 -0.2346 -0.8094 -1.6375
20134TIP3   OH281892   5.370   4.728  10.759  0.3482 -0.9532 -0.7132
20134TIP3    H181893   5.461   4.705  10.741 -0.0140 -2.1534 -1.1320
20134TIP3    H281894   5.342   4.666  10.826 -0.2780 -0.8699 -0.8922
20135TIP3   OH281895   1.391   3.596  12.818 -0.3543 -0.1705 -0.3725
20135TIP3    H181896   1.415   3.511  12.856 -1.9731 -0.6957 -0.4640
20135TIP3    H281897   1.369   3.650  12.894 -1.8515 -0.6721 -0.4063
20136TIP3   OH281898   0.586   4.861  16.706  0.1009  0.6059  0.2154
20136TIP3    H181899   0.504   4.831  16.745  0.3551  0.2385  0.4722
20136TIP3    H281900   0.564   4.877  16.614 -0.5530  1.6742  0.5330
20137TIP3   OH281901   3.260   0.000   1.621 -0.1671 -0.0842  0.4281
20137TIP3    H181902   3.347  -0.039   1.628 -0.5398 -0.8500  1.0141
20137TIP3    H281903   3.266   0.060   1.547  0.9114  0.0198  0.5828
20138TIP3   OH281904   5.332   0.759   1.480  0.4287 -0.0978  0.3137
20138TIP3    H181905   5.360   0.829   1.538  1.0651 -0.7242  0.7796
20138TIP3    H281906   5.253   0.723   1.520  0.6157 -0.2364  0.5591
20139TIP3   OH281907   6.421   2.188  17.030 -0.2486  0.3590  0.3577
20139TIP3    H181908   6.334   2.205  16.995 -0.1588 -1.0426 -0.6535
20139TIP3    H281909   6.470   2.269  17.015 -1.4432  1.2735  1.2338
20140TIP3   OH281910   3.191   1.150  13.071 -0.3071  0.0930  0.2804
20140TIP3    H181911   3.272   1.103  13.091  0.2801  0.6821 -0.6447
20140TIP3    H281912   3.172   1.128  12.980 -0.6428  0.7380  0.1863
20141TIP3   OH281913   0.408   6.079   5.947  0.3984  0.0537 -0.0767
20141TIP3    H181914   0.502   6.094   5.942  0.5521  0.4963  2.7365
20141TIP3    H281915   0.399   5.984   5.952  0.7449  0.0297  0.1234
20142TIP3   OH281916   3.193   6.245   1.980 -0.0053 -0.4594  0.2029
20142TIP3    H181917   3.132   6.290   2.038  0.1795  1.8105 -1.2371
20142TIP3    H281918   3.167   6.271   1.892  1.4597 -1.4990 -0.5873
20143TIP3   OH281919   6.236   3.969  11.612  0.2626 -0.7102 -0.1139
20143TIP3    H181920   6.272   4.043  11.662  1.5777 -1.3472 -0.0738
20143TIP3    H281921   6.313   3.916  11.588 -0.5472 -1.5038 -1.0571
20144TIP3   OH281922   4.370   0.269   4.821  0.5528  0.2000 -0.2858
20144TIP3    H181923   4.460   0.236   4.816  0.5465  0.3768 -2.2999
20144TIP3    H281924   4.355   0.311   4.736 -1.2133  0.7610  0.2680
20145TIP3   OH281925   6.806   0.480   5.659 -0.2728  0.1079  0.1164
20145TIP3    H181926   6.881   0.446   5.709  0.9990  0.5887 -1.3771
20145TIP3    H281927   6.790   0.567   5.696 -0.1009  0.0016  0.4511
20146TIP3   OH281928   1.236   5.355  14.507  0.3934  0.8139  0.2910
20146TIP3    H181929   1.189   5.380  14.428 -0.4741 -1.4911 -0.0170
20146TIP3    H281930   1.317   5.406  14.505 -0.8034  2.7621 -0.6605
20147TIP3   OH281931   3.658   5.414  11.326  0.3768 -0.6448  0.2043
20147TIP3    H181932   3.565   5.433  11.340  0.1491 -0.8170 -0.9543
20147TIP3    H281933   3.700   5.437  11.409 -0.6269 -0.0809  0.5773
20148TIP3   OH281934   5.836   4.771   0.955  0.3559 -0.0239  0.1593
20148TIP3    H181935   5.875   4.684   0.957  1.5236  0.4971  0.9284
20148TIP3    H281936   5.742   4.756   0.964  0.5035 -1.2153 -0.1601
20149TIP3   OH281937   2.029   3.960  15.969  0.5104 -0.0028 -0.2408
20149TIP3    H181938   2.108   4.005  15.999 -0.5760  2.3213 -0.6026
20149TIP3    H281939   2.000   4.011  15.893  0.2834 -2.6064 -2.0327
20150TIP3   OH281940   2.493   5.450   3.398 -0.3446 -0.3602 -0.2400
20150TIP3    H181941   2.563   5.514   3.385 -1.3365  0.7245 -0.3999
20150TIP3    H281942   2.459   5.469   3.485 -0.7307 -0.5825 -0.3423
20151TIP3   OH281943   3.144   4.193   1.046  0.6902  0.1197  0.1758
20151TIP3    H181944   3.125   4.275   1.091 -0.1002  0.3711 -0.5783
20151TIP3    H281945   3.070   4.136   1.068  0.2742  0.2582 -0.7826
20152TIP3   OH281946   5.445   4.997   0.075  0.6383  0.5930 -0.2609
20152TIP3    H181947   5.523   5.011   0.022 -0.0125 -1.0887 -1.7955
20152TIP3    H281948   5.436   5.076   0.127  2.3961  1.5278 -1.2916
20153TIP3   OH281949   6.299   5.780  10.372 -0.0125  0.3606  0.3432
20153TIP3    H181950   6.257   5.817  10.450 -0.4584  0.1382  0.2121
20153TIP3    H281951   6.375   5.836  10.357 -0.0516  0.5423  0.8046
20154TIP3   OH281952   4.002   2.485   2.697 -0.2433 -0.3189  0.0339
20154TIP3    H181953   4.076   2.470   2.639 -0.2655  1.2161 -0.4440
20154TIP3    H281954   4.038   2.536   2.769 -0.6480 -0.4056  0.3028
20155TIP3   OH281955   5.278   4.166  13.419  0.2852 -0.3930  0.5053
20155TIP3    H181956   5.257   4.162  13.326  0.3943  3.6508  0.1440
20155TIP3    H281957   5.201   4.207  13.459  0.5519 -1.3686  2.0969
20156TIP3   OH281958   1.691   5.529  12.176 -0.2680  0.0057  0.0275
20156TIP3    H181959   1.677   5.624  12.173  2.0743  0.5296  2.3398
20156TIP3    H281960   1.611   5.494  12.215 -0.7943  1.1454 -0.0014
20157TIP3   OH281961   1.347   4.347   5.999  0.1067  0.2678 -1.0200
20157TIP3    H181962   1.318   4.416   6.059 -1.0489 -0.0694 -1.1570
20157TIP3    H281963   1.439   4.334   6.019 -0.1660  0.4111  0.4471
20158TIP3   OH281964   3.552   2.257  16.961 -0.1241  0.2228 -0.1181
20158TIP3    H181965   3.533   2.341  16.921 -2.2136 -0.4472 -0.6806
20158TIP3    H281966   3.527   2.268  17.053 -1.7074 -0.1174 -0.4705
20159TIP3   OH281967   3.116   1.220   1.401  0.0657  0.5410 -0.2609
20159TIP3    H181968   3.173   1.189   1.471 -0.8324 -1.3183 -0.3104
20159TIP3    H281969   3.170   1.284   1.353  1.4104  0.2837  0.8387
20160TIP3   OH281970   6.796   3.578  14.740 -0.1965  0.1376  0.8212
20160TIP3    H181971   6.752   3.659  14.714 -0.3170  0.1529  1.0646
20160TIP3    H281972   6.778   3.571  14.834  0.4875  0.2428  0.9647
20161TIP3   OH281973   1.536   4.830  13.051  0.8791 -0.4391 -0.4361
20161TIP3    H181974   1.610   4.778  13.019 -1.0762 -2.8131 -1.3033
20161TIP3    H281975   1.547   4.831  13.146  1.8063 -1.0666 -0.5195
20162TIP3   OH281976   1.553   3.837  10.587 -0.2248  0.0978 -0.1836
20162TIP3    H181977   1.472   3.785  10.589  0.8242 -1.7633 -2.0010
20162TIP3    H281978   1.543   3.892  10.509  0.1007  0.1287 -0.2042
20163TIP3   OH281979   4.793   1.291  13.255 -0.5348 -0.3249 -0.2321
20163TIP3    H181980   4.709   1.259  13.222 -1.1175  0.7704  0.1307
20163TIP3    H281981   4.852   1.286  13.180 -0.3988 -2.8076 -0.0402
20164TIP3   OH281982   0.478   2.584  11.060  0.4030  0.0926  0.1830
20164TIP3    H181983   0.555   2.573  11.004  1.4311  2.3228  1.0451
20164TIP3    H281984   0.513   2.610  11.145 -1.2725  0.0754  0.9256
20165TIP3   OH281985   0.724   6.412   2.177 -0.8759  0.0768  0.0825
20165TIP3    H181986   0.697   6.370   2.096  0.5846  1.0559 -0.9732
20165TIP3    H281987   0.688   6.501   2.171  2.9862  1.7859 -1.8543
20166TIP3   OH281988   4.565   0.828   1.519 -0.0870  0.1910  0.3957
20166TIP3    H181989   4.531   0.895   1.459 -0.9240 -0.3300  0.2675
20166TIP3    H281990   4.569   0.748   1.466 -2.7861 -0.7949  1.4723
20167TIP3   OH281991   4.086   4.387   4.453  0.0639 -0.3364 -0.2141
20167TIP3    H181992   4.056   4.393   4.543 -2.0025  0.4460 -0.8961
20167TIP3    H281993   4.012   4.346   4.406  2.1867 -3.5654 -1.0854
20168TIP3   OH281994   0.738   6.382  14.627  0.5061 -0.0238  0.0607
20168TIP3    H181995   0.753   6.295  14.665 -1.8965 -1.1854 -1.3926
20168TIP3    H281996   0.646   6.381  14.601  0.7572  2.4923 -1.2397
20169TIP3   OH281997   6.324   3.044  12.549  0.3871 -0.1633 -0.1360
20169TIP3    H181998   6.313   2.954  12.580  1.2046 -0.1983  0.0779
20169TIP3    H281999   6.300   3.098  12.625  0.7123 -0.2199  0.0095
20170TIP3   OH282000   0.970   0.222   0.898 -0.6292 -0.2193  0.6564
20170TIP3    H182001   0.946   0.168   0.973 -3.1215  0.7519  0.6509
20170TIP3    H282002   0.898   0.210   0.836  0.9487 -0.3114 -1.2515
20171TIP3   OH282003   1.666   1.485   4.654  0.5595 -0.1411 -0.5519
20171TIP3    H182004   1.734   1.552   4.663 -0.6675  1.0204  0.4023
20171TIP3    H282005   1.685   1.424   4.725  0.6037  0.1775 -0.2871
20172TIP3   OH282006   4.174   0.301  16.710 -0.3210  0.2659 -0.3253
20172TIP3    H182007   4.226   0.235  16.664  0.1338 -0.2156  0.8544
20172TIP3    H282008   4.089   0.260  16.725  0.1205 -0.2642  0.8433
20173TIP3   OH282009   5.871   1.476   1.074  0.0603  0.1905  0.2011
20173TIP3    H182010   5.932   1.453   1.004 -0.2296 -1.2761  0.3869
20173TIP3    H282011   5.808   1.535   1.032 -0.1730 -0.7514 -0.8341
20174TIP3   OH282012   0.733   4.248   3.335  0.4973  0.1881 -0.0038
20174TIP3    H182013   0.743   4.330   3.286  0.3752  1.0805  1.3912
20174TIP3    H282014   0.738   4.179   3.269  0.1791  1.3422 -1.2752
20175TIP3   OH282015   5.466   3.804  13.053 -0.6282  0.3412 -0.0594
20175TIP3    H182016   5.438   3.853  13.130  0.6664  0.3814  0.4014
20175TIP3    H282017   5.561   3.799  13.060 -0.6434 -1.4548 -0.5763
20176TIP3   OH282018   3.775   3.311  16.369 -0.3037 -0.3013  1.0291
20176TIP3    H182019   3.809   3.245  16.308 -2.6208 -1.8815  1.2999
20176TIP3    H282020   3.721   3.369  16.315 -0.4586 -0.2908  1.1922
20177TIP3   OH282021   2.216   3.073   4.174 -0.0666 -0.2577  0.7304
20177TIP3    H182022   2.232   3.070   4.269 -0.8398  1.7662  0.9808
20177TIP3    H282023   2.266   3.149   4.144 -0.5468 -0.3469 -0.3365
20178TIP3   OH282024   4.703   4.428  12.328 -0.0319  0.6003 -0.1561
20178TIP3    H182025   4.649   4.389  12.396  1.3437  0.2982  0.7976
20178TIP3    H282026   4.772   4.474  12.375 -0.1104  1.9913 -1.3191
20179TIP3   OH282027   5.779   4.643  16.300  0.1119  0.0603  0.1332
20179TIP3    H182028   5.702   4.594  16.327 -1.1669  0.5104 -2.3916
20179TIP3    H282029   5.753   4.735  16.308  0.7526  0.2377  0.2346
20180TIP3   OH282030   1.377   5.581   1.273 -0.1117  0.1285 -0.1371
20180TIP3    H182031   1.286   5.594   1.298 -0.4866 -0.7599 -1.0147
20180TIP3    H282032   1.411   5.519   1.337 -0.9081 -1.6843 -1.3912
20181TIP3   OH282033   5.280   1.661  12.205 -0.1185 -0.6642  0.3806
20181TIP3    H182034   5.279   1.707  12.289 -0.7652 -0.2195  0.1362
20181TIP3    H282035   5.373   1.651  12.185  0.0411  0.2188  0.6177
20182TIP3   OH282036   1.641   2.172  12.259 -0.5004 -0.4680 -0.0695
20182TIP3    H182037   1.713   2.172  12.322 -1.5722  2.8744  1.3563
20182TIP3    H282038   1.668   2.236  12.193 -1.7863  0.2182  0.0529
20183TIP3   OH282039   2.677   5.327  16.509  0.1015 -0.4099  0.2031
20183TIP3    H182040   2.606   5.284  16.462  0.9482 -0.1706 -1.3744
20183TIP3    H282041   2.685   5.279  16.591 -0.8886 -1.3930 -0.2577
20184TIP3   OH282042   0.859   0.803   4.608 -0.1306  0.4484  0.8616
20184TIP3    H182043   0.893   0.726   4.562 -1.4891  0.1723  0.2813
20184TIP3    H282044   0.859   0.873   4.542 -0.4884  0.5036  0.9206
20185TIP3   OH282045   0.035   6.663  14.756 -0.2553 -0.0791 -0.0755
20185TIP3    H182046   0.077   6.586  14.795  0.1420  0.3312  0.3190
20185TIP3    H282047  -0.058   6.652  14.775 -0.3110 -0.8708 -0.7325
20186TIP3   OH282048   3.384   4.874  14.810 -0.3430 -0.3148 -0.2035
20186TIP3    H182049   3.420   4.872  14.722 -0.7969  2.3841 -0.5511
20186TIP3    H282050   3.308   4.816  14.807  0.6742 -1.6389 -1.0422
20187TIP3   OH282051   3.591   3.652   4.556  0.5441  0.1696  0.0426
20187TIP3    H182052   3.517   3.616   4.605  0.5013 -2.8509 -1.9901
20187TIP3    H282053   3.556   3.731   4.514 -0.3871  0.8532  1.9435
20188TIP3   OH282054   3.129   6.519  13.690 -0.0006 -0.3634 -0.1293
20188TIP3    H182055   3.203   6.556  13.738  0.4891  0.0708 -1.1852
20188TIP3    H282056   3.168   6.460  13.626 -0.5875 -0.3601 -0.5052
20189TIP3   OH282057   0.524   2.077  15.941  0.0623  0.0915  0.1026
20189TIP3    H182058   0.499   2.138  16.010 -1.2119 -1.2326  0.8621
20189TIP3    H282059   0.474   2.106  15.864 -2.4590 -1.3430  1.0866
20190TIP3   OH282060   2.960   2.180  14.114  0.4806 -0.3766  0.5211
20190TIP3    H182061   2.894   2.247  14.094  1.5542  0.0237 -2.0119
20190TIP3    H282062   2.926   2.101  14.074  0.5987 -0.6650  0.9841
20191TIP3   OH282063   1.774   4.706   3.289  0.2973 -0.4761 -0.0603
20191TIP3    H182064   1.786   4.786   3.237  3.0621  0.4080  1.7109
20191TIP3    H282065   1.787   4.635   3.226  0.9491  0.5253 -1.1012
20192TIP3   OH282066   1.292   6.101   3.824 -0.0939 -0.6814  0.4227
20192TIP3    H182067   1.220   6.057   3.779 -1.4284  0.6700  1.1347
20192TIP3    H282068   1.369   6.049   3.802 -0.9056 -0.9672 -2.1593
20193TIP3   OH282069   6.588   1.190   1.296  0.2838  0.1972 -0.3749
20193TIP3    H182070   6.556   1.270   1.255  0.3377 -0.2004 -1.2222
20193TIP3    H282071   6.604   1.214   1.387 -1.5148  0.6595 -0.1416
20194TIP3   OH282072   6.473   1.029   6.196  0.3401  0.4991 -0.2005
20194TIP3    H182073   6.536   1.004   6.264  0.0967 -1.2635 -0.5646
20194TIP3    H282074   6.428   0.947   6.175  0.5643  0.9509 -2.6478
20195TIP3   OH282075   3.243   5.045  11.269 -0.2475  0.2234  0.0103
20195TIP3    H182076   3.259   5.096  11.348  1.3352 -0.4597  0.1822
20195TIP3    H282077   3.170   5.089  11.225  0.0664  1.6958  0.9102
20196TIP3   OH282078   3.116   5.836  11.061 -0.7758  0.1143  0.6055
20196TIP3    H182079   3.041   5.833  11.001 -1.7315 -0.0206  1.7692
20196TIP3    H282080   3.105   5.918  11.109  0.5550  0.7295 -0.0901
20197TIP3   OH282081   1.458   3.427  13.701 -0.0968  0.0405  0.3455
20197TIP3    H182082   1.459   3.523  13.706  0.6591  0.0250  0.5986
20197TIP3    H282083   1.539   3.400  13.744  0.3049 -0.6672 -0.8252
20198TIP3   OH282084   2.200   2.059   4.558  0.2997 -1.1906 -0.5601
20198TIP3    H182085   2.266   2.009   4.604  0.8141  0.1739  0.2597
20198TIP3    H282086   2.124   2.001   4.552  1.8603 -3.2026 -2.4885
20199TIP3   OH282087   4.340   1.788  10.840 -0.2678 -0.0617 -0.5618
20199TIP3    H182088   4.307   1.827  10.921  0.2019 -0.1929 -0.3059
20199TIP3    H282089   4.358   1.862  10.782  1.3993  0.1767  0.2084
20200TIP3   OH282090   3.385   1.122  10.566  0.0519  0.4490  0.1285
20200TIP3    H182091   3.477   1.147  10.559 -0.0495  0.4642 -1.2709
20200TIP3    H282092   3.385   1.047  10.626  0.9466  0.5716  0.2862
20201TIP3   OH282093   2.073   0.035   6.036 -0.2851  0.0358 -0.1121
20201TIP3    H182094   2.108   0.061   6.121  0.4473 -0.4567 -0.2515
20201TIP3    H282095   1.981   0.060   6.039 -0.4418 -0.6225  1.0864
20202TIP3   OH282096   5.956   4.815   0.731 -0.4016  0.1591 -0.7333
20202TIP3    H182097   6.030   4.756   0.745 -0.7955 -0.0691  0.5263
20202TIP3    H282098   5.917   4.825   0.818 -2.1623 -0.1265 -1.4520
20203TIP3   OH282099   2.885   6.538   0.173  0.3107  0.4451 -0.7311
20203TIP3    H182100   2.866   6.587   0.093  1.5746  0.1157 -1.2595
20203TIP3    H282101   2.947   6.592   0.221  0.3784  0.1468 -0.4734
20204TIP3   OH282102   4.007   2.793  16.103  0.6884 -0.1023  0.4494
20204TIP3    H182103   4.094   2.783  16.064  0.2447 -0.0206 -0.5869
20204TIP3    H282104   3.949   2.742  16.046  0.0123  0.0602  0.9791
20205TIP3   OH282105   0.936   5.393   5.806  0.3192 -0.2125  0.0984
20205TIP3    H182106   0.949   5.298   5.814  0.5592 -0.3120 -1.2314
20205TIP3    H282107   1.017   5.425   5.766  0.4920  0.6691  1.0863
20206TIP3   OH282108   3.766   5.717  13.814 -0.3410  0.1175  0.0908
20206TIP3    H182109   3.751   5.810  13.796  1.5811  0.3160 -0.8101
20206TIP3    H282110   3.809   5.715  13.899 -2.8874 -0.2452  1.4803
20207TIP3   OH282111   0.374   5.798   1.033 -0.1402  0.2184 -0.0613
20207TIP3    H182112   0.436   5.745   1.083 -0.9976 -0.9742 -0.2158
20207TIP3    H282113   0.423   5.826   0.956  0.0228 -1.3346 -0.5568
20208TIP3   OH282114   2.196   4.443  12.052 -0.5499 -0.0922 -0.1382
20208TIP3    H182115   2.116   4.397  12.078  0.2690 -2.1049 -0.9335
20208TIP3    H282116   2.244   4.379  11.999  2.2336  0.5083  1.4342
20209TIP3   OH282117   1.229   4.500   1.058 -0.3355  0.2795 -0.4262
20209TIP3    H182118   1.193   4.544   0.980  2.0646  2.1972 -0.5747
20209TIP3    H282119   1.196   4.552   1.131 -1.2008 -0.5087 -0.2280
20210TIP3   OH282120   6.713   0.933  12.818 -0.4101  0.3773 -0.4279
20210TIP3    H182121   6.731   1.015  12.771 -0.0533  1.8437  2.0615
20210TIP3    H282122   6.763   0.941  12.899 -1.2270 -1.8629  0.3627
20211TIP3   OH282123   5.099   1.361  16.405 -0.1550  0.1742 -0.7806
20211TIP3    H182124   5.148   1.427  16.454 -1.7986  1.1351 -0.3460
20211TIP3    H282125   5.112   1.280  16.456  1.0857  0.3495 -0.7834
20212TIP3   OH282126   0.253   0.170  14.457  0.1885 -0.2595 -0.1193
20212TIP3    H182127   0.338   0.128  14.457  0.2567 -0.1862  1.2510
20212TIP3    H282128   0.264   0.247  14.513 -0.6079  0.1188 -0.4559
20213TIP3   OH282129   6.242   3.711   1.500 -0.2041 -0.4663 -0.1986
20213TIP3    H182130   6.272   3.651   1.432  1.7490  3.2361 -2.9534
20213TIP3    H282131   6.309   3.779   1.505 -2.7727  2.2288  1.7241
20214TIP3   OH282132   4.835   3.659   3.164 -0.4954 -0.0823  0.1760
20214TIP3    H182133   4.792   3.697   3.241  0.3273  0.6817  0.2769
20214TIP3    H282134   4.873   3.734   3.118  0.3814 -0.6882 -0.1164
20215TIP3   OH282135   4.025   3.471   1.225  0.1824 -0.2046 -0.2177
20215TIP3    H182136   4.022   3.450   1.132  2.2395 -1.5802 -0.0398
20215TIP3    H282137   3.956   3.417   1.264  0.5454 -1.0716 -0.7403
20216TIP3   OH282138   4.784   5.458   0.638 -0.0002 -0.7716  0.1478
20216TIP3    H182139   4.698   5.418   0.640 -0.1900 -0.3579  0.3551
20216TIP3    H282140   4.836   5.401   0.583 -0.9296  0.0239 -1.6208
20217TIP3   OH282141   1.169   1.975   4.444 -0.2430 -0.2753  0.1574
20217TIP3    H182142   1.114   2.004   4.371  0.3878  1.6407  0.3866
20217TIP3    H282143   1.144   2.032   4.517  2.8007  1.5266 -0.0421
20218TIP3   OH282144   0.249   0.840  12.301 -0.1234  0.0011  0.6447
20218TIP3    H182145   0.326   0.837  12.358 -0.2553  0.7099  0.8746
20218TIP3    H282146   0.258   0.764  12.243 -1.4184 -2.4630  3.4223
20219TIP3   OH282147   4.514   1.658   2.153  0.1018 -0.5777 -0.4104
20219TIP3    H182148   4.428   1.637   2.119  0.6541  1.1004 -3.1893
20219TIP3    H282149   4.575   1.612   2.095  1.0796 -0.4363  0.4797
20220TIP3   OH282150   3.360   6.287   0.166 -0.1709  0.3340  0.3158
20220TIP3    H182151   3.354   6.301   0.260  1.7214  1.0422  0.3836
20220TIP3    H282152   3.299   6.350   0.128 -3.0070 -1.7825  1.0711
20221TIP3   OH282153   2.441   1.727  11.419  0.1757 -0.3096 -0.7605
20221TIP3    H182154   2.376   1.712  11.487  2.6348 -1.0779  1.6125
20221TIP3    H282155   2.489   1.645  11.412  2.6727  0.9906 -0.2984
20222TIP3   OH282156   4.380   4.570   2.032  0.1825 -0.4159 -0.4256
20222TIP3    H182157   4.427   4.647   1.998  0.1973 -1.2456 -2.4221
20222TIP3    H282158   4.448   4.504   2.043  0.0549 -0.3928  0.5343
20223TIP3   OH282159   0.415   1.220  14.481 -0.5762  0.1547 -0.1594
20223TIP3    H182160   0.335   1.273  14.478  0.5497  1.9161 -1.9162
20223TIP3    H282161   0.462   1.252  14.558 -0.2845  1.1783 -0.7452
20224TIP3   OH282162   5.877   0.510  10.706  0.4667 -0.4093 -0.1481
20224TIP3    H182163   5.861   0.531  10.614 -0.4945 -3.1072 -0.6928
20224TIP3    H282164   5.905   0.418  10.705 -1.4058 -1.1177  2.3785
20225TIP3   OH282165   5.621   3.991  11.959  0.2889 -0.1014 -0.1948
20225TIP3    H182166   5.611   4.086  11.947  1.0390  0.0833  0.5073
20225TIP3    H282167   5.614   3.955  11.871  0.0643  0.6180 -0.4800
20226TIP3   OH282168   0.254   5.542  16.508  0.3885 -0.1414 -0.7381
20226TIP3    H182169   0.292   5.591  16.581  1.2603 -1.0587 -0.5560
20226TIP3    H282170   0.195   5.479  16.550  1.5994 -1.3055 -0.7311
20227TIP3   OH282171   6.567   6.744  10.688  0.6894  0.2746  0.3238
20227TIP3    H182172   6.588   6.796  10.766 -2.3648  0.8247  0.9000
20227TIP3    H282173   6.562   6.654  10.720  0.5747  0.3429  0.4950
20228TIP3   OH282174   6.119   2.710  15.257 -0.0050  0.1601  0.1959
20228TIP3    H182175   6.180   2.637  15.270  0.6646  1.0797  3.0340
20228TIP3    H282176   6.169   2.776  15.210 -0.0158 -0.4852 -0.7336
20229TIP3   OH282177   5.198   1.225   2.449 -0.1569  0.1445 -0.0216
20229TIP3    H182178   5.153   1.191   2.371  0.1159  1.8571 -0.9713
20229TIP3    H282179   5.144   1.299   2.477 -0.9219 -1.1291  2.1975
20230TIP3   OH282180   1.191   2.681  15.758  0.5349  0.1811  0.5288
20230TIP3    H182181   1.246   2.745  15.805  0.4177  1.0995 -0.5409
20230TIP3    H282182   1.236   2.668  15.675  0.0959 -0.4914  0.3896
20231TIP3   OH282183   1.812   1.021   2.793 -0.3358 -0.6261  0.1368
20231TIP3    H182184   1.798   1.029   2.699  3.1092 -0.4593 -0.4675
20231TIP3    H282185   1.764   1.095   2.831 -1.9718 -0.8313 -1.4007
20232TIP3   OH282186   3.842   3.057  16.594 -0.4114  0.3550 -0.5338
20232TIP3    H182187   3.817   2.986  16.654 -1.7110 -0.3187 -1.7939
20232TIP3    H282188   3.920   3.024  16.549  1.3471  1.3853  1.5913
20233TIP3   OH282189   2.115   2.872  11.845  0.1137 -0.1869 -0.3232
20233TIP3    H182190   2.055   2.813  11.799  2.2412 -1.6272 -1.3959
20233TIP3    H282191   2.145   2.822  11.921  2.0815 -0.6586 -1.3456
20234TIP3   OH282192   0.121   4.160   4.065 -0.1511  0.2260  0.6718
20234TIP3    H182193   0.216   4.151   4.056 -0.3769 -0.8696 -1.5062
20234TIP3    H282194   0.096   4.212   3.988 -1.3025  0.6480  1.3242
20235TIP3   OH282195   6.379   3.876  12.762  0.3154  0.1295  0.0153
20235TIP3    H182196   6.302   3.929  12.744 -0.6343 -1.6524 -1.3902
20235TIP3    H282197   6.348   3.809  12.824  0.1816 -1.7002 -1.9270
20236TIP3   OH282198   1.238   1.175   3.729  0.4215  0.1781  0.0299
20236TIP3    H182199   1.202   1.151   3.644  2.7358  1.0134 -1.2845
20236TIP3    H282200   1.221   1.269   3.736  1.3217  0.3556 -0.0971
20237TIP3   OH282201   6.401   2.637   3.394 -0.2344 -0.1455 -0.0348
20237TIP3    H182202   6.448   2.642   3.477  1.1816 -0.1685 -0.7956
20237TIP3    H282203   6.469   2.647   3.327 -1.0309 -2.0354 -1.2354
20238TIP3   OH282204   2.572   5.511  11.599  0.2665  0.3357 -0.1372
20238TIP3    H182205   2.571   5.488  11.506  0.5307 -0.6846  0.0971
20238TIP3    H282206   2.650   5.567  11.609  2.0359 -1.9832 -0.0272
20239TIP3   OH282207   3.506   2.561   0.388 -0.1396  0.4636 -0.2469
20239TIP3    H182208   3.500   2.636   0.447 -0.8396  0.6395 -0.5349
20239TIP3    H282209   3.600   2.541   0.385 -0.1135  0.3007  1.0918
20240TIP3   OH282210   1.029   1.346  12.027 -0.2241 -0.2220  0.4139
20240TIP3    H182211   0.997   1.412  12.088 -2.8699 -1.3535  0.3783
20240TIP3    H282212   0.959   1.338  11.961  1.7333 -0.3301 -1.7913
20241TIP3   OH282213   2.877   3.628  13.308 -0.0392  0.5930  0.5895
20241TIP3    H182214   2.869   3.723  13.297  1.0933  0.6524  0.1318
20241TIP3    H282215   2.961   3.607  13.267  0.2336 -0.4492  1.6441
20242TIP3   OH282216   0.106   0.818  13.695 -0.6334 -0.4828  0.7672
20242TIP3    H182217   0.164   0.875  13.644 -0.2059 -1.8386 -0.3116
20242TIP3    H282218   0.045   0.878  13.737 -0.1263  0.7793 -0.2310
20243TIP3   OH282219   1.568   5.911   2.184 -0.2087 -0.5230 -0.3058
20243TIP3    H182220   1.599   5.940   2.098  1.3228 -1.6815 -0.1959
20243TIP3    H282221   1.591   5.983   2.243  0.2413 -0.4162 -0.6049
20244TIP3   OH282222   2.675   2.252  16.171 -0.1362 -0.4544 -0.0747
20244TIP3    H182223   2.647   2.161  16.174 -0.6889 -0.3170 -0.8305
20244TIP3    H282224   2.650   2.282  16.084 -0.0739  0.4548  0.2126
20245TIP3   OH282225   6.166   3.253   0.534 -0.3031  0.8749  0.7128
20245TIP3    H182226   6.194   3.284   0.448 -0.8325 -0.4121  0.0458
20245TIP3    H282227   6.225   3.296   0.595  2.8954 -1.3111 -0.5691
20246TIP3   OH282228   1.996   4.268  16.894 -0.3162 -0.0228  0.5352
20246TIP3    H182229   2.020   4.271  16.986  0.4522  0.1059  0.3391
20246TIP3    H282230   2.077   4.289  16.847 -0.6206 -0.3935 -0.1796
20247TIP3   OH282231   6.027   6.392   1.486  0.0540  0.0455  0.2599
20247TIP3    H182232   5.955   6.420   1.430 -0.0693 -0.4281  0.1760
20247TIP3    H282233   5.992   6.397   1.575 -0.6143 -1.6660  0.1310
20248TIP3   OH282234   3.208   6.330  10.709  0.1521 -0.0658 -0.0167
20248TIP3    H182235   3.227   6.270  10.781 -0.3189 -0.2626 -0.0521
20248TIP3    H282236   3.252   6.412  10.733  0.3329 -0.2530  0.2964
20249TIP3   OH282237   5.110   5.506  17.144  0.3929 -0.8056  0.0110
20249TIP3    H182238   5.040   5.440  17.149  0.0686 -0.4363  0.3825
20249TIP3    H282239   5.077   5.571  17.082  1.1130 -1.4554 -1.0886
20250TIP3   OH282240   1.132   1.405   1.427  0.2949  0.0626 -1.0179
20250TIP3    H182241   1.041   1.408   1.457  0.5083  1.1005 -0.4054
20250TIP3    H282242   1.175   1.344   1.488  0.7732  2.3207  1.1009
20251TIP3   OH282243   1.852   6.171  15.241  0.3343 -0.3482 -0.0715
20251TIP3    H182244   1.902   6.245  15.208  0.5827 -0.0683  0.8909
20251TIP3    H282245   1.917   6.103  15.257  0.1947 -0.5394 -0.3032
20252TIP3   OH282246   0.218   1.079  14.255 -0.1982  0.6866  0.6179
20252TIP3    H182247   0.296   1.024  14.264 -1.3102 -1.1040 -0.2372
20252TIP3    H282248   0.179   1.079  14.342 -1.1528 -1.4514  0.2447
20253TIP3   OH282249   4.881   5.332   4.267  0.3990  0.4232 -0.9300
20253TIP3    H182250   4.931   5.406   4.234  0.4872 -0.1369 -2.1012
20253TIP3    H282251   4.934   5.296   4.338  0.5611  1.2069 -0.6494
20254TIP3   OH282252   3.907   6.608  16.288  0.8938 -0.4576  0.3951
20254TIP3    H182253   3.928   6.699  16.309  0.6356 -0.6562  1.6159
20254TIP3    H282254   3.959   6.557  16.351 -0.3085 -1.0760  0.9225
20255LIG     O182255   5.373   1.758   9.230 -0.2227  0.0240  0.0528
20255LIG     O282256   5.507   1.768   9.429 -0.9998  0.5857 -0.1626
20255LIG     O382257   5.345   1.918   9.514  0.4201 -0.0114  0.0383
20255LIG     O482258   5.721   1.664   9.191  0.2896 -0.0764  0.8559
20255LIG     O582259   5.543   1.740   8.980 -0.4370 -0.4452  0.5003
20255LIG     O682260   5.413   1.574   9.630  0.0898  0.3679 -0.1179
20255LIG     O782261   5.630   1.765   9.680  0.0296 -0.0153  0.0958
20255LIG     O882262   5.537   2.011   9.822  0.2571 -0.5076 -0.5566
20255LIG     O982263   5.573   1.510   9.397 -0.2115 -0.7002 -0.5590
20255LIG    O1082264   5.487   2.047   9.267  0.0852 -0.0421  0.3546
20255LIG    O1182265   5.317   2.184   9.475 -0.1876  0.2208 -0.1009
20255LIG     C182266   5.490   1.709   9.295  0.2852 -0.0493  0.3168
20255LIG     C282267   5.617   1.763   9.209 -0.1718  0.2504 -0.2232
20255LIG     C382268   5.557   1.829   9.088  0.6266  0.0232  0.5282
20255LIG     C482269   5.407   1.855   9.136  0.1727  0.2667  0.3646
20255LIG     C582270   5.387   1.780   9.507  0.2744 -0.1740 -0.0730
20255LIG     C682271   5.395   1.713   9.642 -0.5496 -0.4967  0.3915
20255LIG     C782272   5.502   1.783   9.729  0.5444  0.1374 -0.2252
20255LIG     C882273   5.455   1.929   9.737  0.8023  0.7188  1.3472
20255LIG     C982274   5.428   1.993   9.592 -0.1845 -0.0759  0.0427
20255LIG    C1082275   5.480   1.557   9.301  0.1850  1.0345  0.0321
20255LIG    C1182276   5.383   1.996   9.188  0.1894 -1.0710  0.6860
20255LIG    C1282277   5.382   2.142   9.596 -0.5811  0.4142  0.3243
20255LIG     H182278   5.665   1.835   9.277 -1.6064  3.0089 -1.9541
20255LIG     H282279   5.614   1.921   9.067  3.0963 -1.5708 -0.0893
20255LIG     H382280   5.339   1.843   9.050 -0.4268  0.7170  0.7666
20255LIG     H482281   5.303   1.732   9.453 -0.4906 -0.3135  1.2141
20255LIG     H582282   5.299   1.738   9.692  0.0864  0.9901  0.9453
20255LIG     H682283   5.500   1.744   9.833 -0.1786 -1.6515 -0.8715
20255LIG     H782284   5.356   1.929   9.786  1.3025 -0.0414  2.4035
20255LIG     H882285   5.528   1.992   9.543 -0.0279 -1.9354  0.3252
20255LIG     H982286   5.378   1.530   9.335  0.5881  1.6347  1.8067
20255LIG    H1082287   5.502   1.508   9.203  1.2108  4.3540 -1.5546
20255LIG    H1182288   5.381   2.053   9.093 -2.6033 -1.7300  0.2381
20255LIG    H1282289   5.287   2.006   9.244  0.3923  0.7391  0.7759
20255LIG    H1382290   5.322   2.146   9.690 -1.8177 -0.5873 -0.3777
20255LIG    H1482291   5.473   2.203   9.609 -0.8656  0.4127  2.9300
20255LIG    H1582292   5.702   1.608   9.267 -0.9118  0.4865  0.9884
20255LIG    H1682293   5.592   1.660   9.001 -1.8721 -1.4235  0.3042
20255LIG    H1782294   5.444   1.538   9.713  1.7784  2.3547  0.1969
20255LIG    H1882295   5.626   1.766   9.584  2.4136 -2.5782 -0.1729
20255LIG    H1982296   5.595   1.945   9.861 -2.8347 -2.4685  1.1375
20255LIG    H2082297   5.524   1.508   9.479 -1.4531  3.6886 -0.8931
20255LIG    H2182298   5.448   2.128   9.303  1.2003  1.3670 -1.4426
20255LIG    H2282299   5.266   2.106   9.450 -0.2714  0.1284  0.3621
   6.84391   6.84391  17.17224
