PSF EXT CMAP XPLOR

         2 !NTITLE
* GENERATE LIGAND                                                               
*  DATE:     4/17/25      6:40: 5      CREATED BY USER: charmm-gui              

        60 !NATOM
         1 LIG      1        LIG      O1       OG301   -0.377000       15.9994           0
         2 LIG      1        LIG      O2       OG301   -0.377000       15.9994           0
         3 LIG      1        LIG      O3       OG2D3   -0.449000       15.9994           0
         4 LIG      1        LIG      O4       OG311   -0.545000       15.9994           0
         5 LIG      1        LIG      N        NG3P0   -0.453000       14.0070           0
         6 LIG      1        LIG      C1       CG324   -0.230000       12.0110           0
         7 LIG      1        LIG      C2       CG324   -0.133000       12.0110           0
         8 LIG      1        LIG      C3       CG334   -0.418000       12.0110           0
         9 LIG      1        LIG      C4       CG334   -0.418000       12.0110           0
        10 LIG      1        LIG      C5       CG311    0.345000       12.0110           0
        11 LIG      1        LIG      C6       CG2R61   0.930000E-01   12.0110           0
        12 LIG      1        LIG      C7       CG2R61  -0.115000       12.0110           0
        13 LIG      1        LIG      C8       CG2R61  -0.115000       12.0110           0
        14 LIG      1        LIG      C9       CG2R61  -0.108000       12.0110           0
        15 LIG      1        LIG      C10      CG2R61  -0.108000       12.0110           0
        16 LIG      1        LIG      C11      CG321    0.100000E-01   12.0110           0
        17 LIG      1        LIG      C12      CG321    0.100000E-01   12.0110           0
        18 LIG      1        LIG      C13      CG2R61   0.124000       12.0110           0
        19 LIG      1        LIG      C14      CG331   -0.272000       12.0110           0
        20 LIG      1        LIG      C15      CG331   -0.272000       12.0110           0
        21 LIG      1        LIG      C16      CG2O5    0.184000       12.0110           0
        22 LIG      1        LIG      C17      CG2R61   0.248000       12.0110           0
        23 LIG      1        LIG      C18      CG2R61  -0.210000E-01   12.0110           0
        24 LIG      1        LIG      C19      CG2R61  -0.125000       12.0110           0
        25 LIG      1        LIG      C20      CG2R61  -0.113000       12.0110           0
        26 LIG      1        LIG      C21      CG2R61   0.290000E-01   12.0110           0
        27 LIG      1        LIG      C22      CG2R61  -0.115000       12.0110           0
        28 LIG      1        LIG      C23      CG331   -0.264000       12.0110           0
        29 LIG      1        LIG      H1       HGP5     0.250000       1.00800           0
        30 LIG      1        LIG      H2       HGP5     0.250000       1.00800           0
        31 LIG      1        LIG      H3       HGP5     0.250000       1.00800           0
        32 LIG      1        LIG      H4       HGP5     0.250000       1.00800           0
        33 LIG      1        LIG      H5       HGP5     0.250000       1.00800           0
        34 LIG      1        LIG      H6       HGP5     0.250000       1.00800           0
        35 LIG      1        LIG      H7       HGP5     0.250000       1.00800           0
        36 LIG      1        LIG      H8       HGP5     0.250000       1.00800           0
        37 LIG      1        LIG      H9       HGP5     0.250000       1.00800           0
        38 LIG      1        LIG      H10      HGP5     0.250000       1.00800           0
        39 LIG      1        LIG      H11      HGA1     0.900000E-01   1.00800           0
        40 LIG      1        LIG      H12      HGR61    0.115000       1.00800           0
        41 LIG      1        LIG      H13      HGR61    0.115000       1.00800           0
        42 LIG      1        LIG      H14      HGR61    0.115000       1.00800           0
        43 LIG      1        LIG      H15      HGR61    0.115000       1.00800           0
        44 LIG      1        LIG      H16      HGA2     0.900000E-01   1.00800           0
        45 LIG      1        LIG      H17      HGA2     0.900000E-01   1.00800           0
        46 LIG      1        LIG      H18      HGA2     0.900000E-01   1.00800           0
        47 LIG      1        LIG      H19      HGA2     0.900000E-01   1.00800           0
        48 LIG      1        LIG      H20      HGA3     0.900000E-01   1.00800           0
        49 LIG      1        LIG      H21      HGA3     0.900000E-01   1.00800           0
        50 LIG      1        LIG      H22      HGA3     0.900000E-01   1.00800           0
        51 LIG      1        LIG      H23      HGA3     0.900000E-01   1.00800           0
        52 LIG      1        LIG      H24      HGA3     0.900000E-01   1.00800           0
        53 LIG      1        LIG      H25      HGA3     0.900000E-01   1.00800           0
        54 LIG      1        LIG      H26      HGR61    0.115000       1.00800           0
        55 LIG      1        LIG      H27      HGR61    0.115000       1.00800           0
        56 LIG      1        LIG      H28      HGR61    0.115000       1.00800           0
        57 LIG      1        LIG      H29      HGA3     0.900000E-01   1.00800           0
        58 LIG      1        LIG      H30      HGA3     0.900000E-01   1.00800           0
        59 LIG      1        LIG      H31      HGA3     0.900000E-01   1.00800           0
        60 LIG      1        LIG      H32      HGP1     0.420000       1.00800           0

        61 !NBOND: bonds
         1        10         1        16         2        10         2        17
         3        21         4        23         4        60         5         6
         5         7         5         8         5         9         6        10
         6        29         6        30         7        11         7        31
         7        32         8        33         8        34         8        35
         9        36         9        37         9        38        10        39
        11        12        11        13        12        14        12        40
        13        15        13        41        14        18        14        42
        15        18        15        43        16        19        16        44
        16        45        17        20        17        46        17        47
        18        21        19        48        19        49        19        50
        20        51        20        52        20        53        21        22
        22        23        22        24        23        25        24        27
        24        54        25        26        25        55        26        27
        26        28        27        56        28        57        28        58
        28        59

       108 !NTHETA: angles
        10         1        16        10         2        17        23         4        60
         6         5         7         6         5         8         6         5         9
         7         5         8         7         5         9         8         5         9
         5         6        10         5         6        29         5         6        30
        10         6        29        10         6        30        29         6        30
         5         7        11         5         7        31         5         7        32
        11         7        31        11         7        32        31         7        32
         5         8        33         5         8        34         5         8        35
        33         8        34        33         8        35        34         8        35
         5         9        36         5         9        37         5         9        38
        36         9        37        36         9        38        37         9        38
         1        10         2         1        10         6         1        10        39
         2        10         6         2        10        39         6        10        39
         7        11        12         7        11        13        12        11        13
        11        12        14        11        12        40        14        12        40
        11        13        15        11        13        41        15        13        41
        12        14        18        12        14        42        18        14        42
        13        15        18        13        15        43        18        15        43
         1        16        19         1        16        44         1        16        45
        19        16        44        19        16        45        44        16        45
         2        17        20         2        17        46         2        17        47
        20        17        46        20        17        47        46        17        47
        14        18        15        14        18        21        15        18        21
        16        19        48        16        19        49        16        19        50
        48        19        49        48        19        50        49        19        50
        17        20        51        17        20        52        17        20        53
        51        20        52        51        20        53        52        20        53
         3        21        18         3        21        22        18        21        22
        21        22        23        21        22        24        23        22        24
         4        23        22         4        23        25        22        23        25
        22        24        27        22        24        54        27        24        54
        23        25        26        23        25        55        26        25        55
        25        26        27        25        26        28        27        26        28
        24        27        26        24        27        56        26        27        56
        26        28        57        26        28        58        26        28        59
        57        28        58        57        28        59        58        28        59

       145 !NPHI: dihedrals
         1        10         2        17         1        10         6         5
         1        10         6        29         1        10         6        30
         1        16        19        48         1        16        19        49
         1        16        19        50         2        10         1        16
         2        10         6         5         2        10         6        29
         2        10         6        30         2        17        20        51
         2        17        20        52         2        17        20        53
         3        21        18        14         3        21        18        15
         3        21        22        23         3        21        22        24
         4        23        22        21         4        23        22        24
         4        23        25        26         4        23        25        55
         5         6        10        39         5         7        11        12
         5         7        11        13         6         5         7        11
         6         5         7        31         6         5         7        32
         6         5         8        33         6         5         8        34
         6         5         8        35         6         5         9        36
         6         5         9        37         6         5         9        38
         6        10         1        16         6        10         2        17
         7         5         6        10         7         5         6        29
         7         5         6        30         7         5         8        33
         7         5         8        34         7         5         8        35
         7         5         9        36         7         5         9        37
         7         5         9        38         7        11        12        14
         7        11        12        40         7        11        13        15
         7        11        13        41         8         5         6        10
         8         5         6        29         8         5         6        30
         8         5         7        11         8         5         7        31
         8         5         7        32         8         5         9        36
         8         5         9        37         8         5         9        38
         9         5         6        10         9         5         6        29
         9         5         6        30         9         5         7        11
         9         5         7        31         9         5         7        32
         9         5         8        33         9         5         8        34
         9         5         8        35        10         1        16        19
        10         1        16        44        10         1        16        45
        10         2        17        20        10         2        17        46
        10         2        17        47        11        12        14        18
        11        12        14        42        11        13        15        18
        11        13        15        43        12        11         7        31
        12        11         7        32        12        11        13        15
        12        11        13        41        12        14        18        15
        12        14        18        21        13        11         7        31
        13        11         7        32        13        11        12        14
        13        11        12        40        13        15        18        14
        13        15        18        21        14        18        15        43
        14        18        21        22        15        18        14        42
        15        18        21        22        16         1        10        39
        17         2        10        39        18        14        12        40
        18        15        13        41        18        21        22        23
        18        21        22        24        21        18        14        42
        21        18        15        43        21        22        23        25
        21        22        24        27        21        22        24        54
        22        23         4        60        22        23        25        26
        22        23        25        55        22        24        27        26
        22        24        27        56        23        22        24        27
        23        22        24        54        23        25        26        27
        23        25        26        28        24        22        23        25
        24        27        26        25        24        27        26        28
        25        23         4        60        25        26        27        56
        25        26        28        57        25        26        28        58
        25        26        28        59        26        27        24        54
        27        26        25        55        27        26        28        57
        27        26        28        58        27        26        28        59
        28        26        25        55        28        26        27        56
        29         6        10        39        30         6        10        39
        40        12        14        42        41        13        15        43
        44        16        19        48        44        16        19        49
        44        16        19        50        45        16        19        48
        45        16        19        49        45        16        19        50
        46        17        20        51        46        17        20        52
        46        17        20        53        47        17        20        51
        47        17        20        52        47        17        20        53
        54        24        27        56

         1 !NIMPHI: impropers
        21        18        22         3

         0 !NDON: donors


         0 !NACC: acceptors


         0 !NNB

         0         0         0         0         0         0         0         0
         0         0         0         0         0         0         0         0
         0         0         0         0         0         0         0         0
         0         0         0         0         0         0         0         0
         0         0         0         0         0         0         0         0
         0         0         0         0         0         0         0         0
         0         0         0         0         0         0         0         0
         0         0         0         0

         1         0 !NGRP NST2
         0         2         0

         0         0 !NUMLP NUMLPH

         0 !NCRTERM: cross-terms

