* GENERATE LIGAND
*  DATE:     4/17/25      6:40: 5      CREATED BY USER: charmm-gui
*
        60  EXT
         1         1  LIG       O1              5.2876025031       -0.7072239013       -0.7165913999  LIG       1               0.0000000000
         2         1  LIG       O2              3.9075305532       -1.7748806005        0.8786186138  LIG       1               0.0000000000
         3         1  LIG       O3             -2.9309274679       -0.0294511407        2.5437864770  LIG       1               0.0000000000
         4         1  LIG       O4             -4.0360256095       -2.4084293558        1.0887880345  LIG       1               0.0000000000
         5         1  LIG       N               3.2734940275        1.7821539733       -0.2416845959  LIG       1               0.0000000000
         6         1  LIG       C1              3.1576434789        0.2690296728       -0.1261286039  LIG       1               0.0000000000
         7         1  LIG       C2              2.0516655673        2.4366525785       -0.8173795509  LIG       1               0.0000000000
         8         1  LIG       C3              3.5939567098        2.3209880875        1.1228012020  LIG       1               0.0000000000
         9         1  LIG       C4              4.4450135012        2.0936293549       -1.1260594951  LIG       1               0.0000000000
        10         1  LIG       C5              4.3757734780       -0.5448830174        0.3585391933  LIG       1               0.0000000000
        11         1  LIG       C6              0.8426601122        1.8322265937       -0.2123177674  LIG       1               0.0000000000
        12         1  LIG       C7              0.3808028926        2.1633674564        1.0759560426  LIG       1               0.0000000000
        13         1  LIG       C8              0.0242809330        1.0331940602       -1.0332237005  LIG       1               0.0000000000
        14         1  LIG       C9             -0.8157177485        1.6298865227        1.5653413139  LIG       1               0.0000000000
        15         1  LIG       C10            -1.1982876454        0.5353738221       -0.5606907440  LIG       1               0.0000000000
        16         1  LIG       C11             6.5111426349       -1.2890371574       -0.2924652303  LIG       1               0.0000000000
        17         1  LIG       C12             3.3066102725       -2.6255258375       -0.0873271457  LIG       1               0.0000000000
        18         1  LIG       C13            -1.6320558404        0.8276583755        0.7515662110  LIG       1               0.0000000000
        19         1  LIG       C14             7.4416532528       -1.3899632073       -1.4971278589  LIG       1               0.0000000000
        20         1  LIG       C15             2.9621155567       -3.9272031971        0.6267504458  LIG       1               0.0000000000
        21         1  LIG       C16            -2.8692705591        0.2569466195        1.3396921655  LIG       1               0.0000000000
        22         1  LIG       C17            -4.0097399990       -0.0086351509        0.4294988018  LIG       1               0.0000000000
        23         1  LIG       C18            -4.5537915927       -1.3132384390        0.3466784973  LIG       1               0.0000000000
        24         1  LIG       C19            -4.5892975688        1.0285822620       -0.3315425549  LIG       1               0.0000000000
        25         1  LIG       C20            -5.6378418994       -1.5642611701       -0.5008215692  LIG       1               0.0000000000
        26         1  LIG       C21            -6.2151172152       -0.5281941283       -1.2472880981  LIG       1               0.0000000000
        27         1  LIG       C22            -5.6935695153        0.7691100269       -1.1540136455  LIG       1               0.0000000000
        28         1  LIG       C23            -7.4062055891       -0.7989104633       -2.1124393830  LIG       1               0.0000000000
        29         1  LIG       H1              2.9140083817       -0.1544861704       -1.0917604721  LIG       1               0.0000000000
        30         1  LIG       H2              2.3470153448        0.0151564914        0.5464356355  LIG       1               0.0000000000
        31         1  LIG       H3              1.9876155543        2.2761182992       -1.8831029657  LIG       1               0.0000000000
        32         1  LIG       H4              2.0369978634        3.4967884097       -0.6144227563  LIG       1               0.0000000000
        33         1  LIG       H5              4.4912385869        1.8540368144        1.5130389754  LIG       1               0.0000000000
        34         1  LIG       H6              2.7907620861        2.0992843570        1.8168332503  LIG       1               0.0000000000
        35         1  LIG       H7              3.7573025194        3.3893697662        1.1044391586  LIG       1               0.0000000000
        36         1  LIG       H8              4.2950249024        1.7034262574       -2.1270893701  LIG       1               0.0000000000
        37         1  LIG       H9              5.3325964461        1.5857194322       -0.7518678230  LIG       1               0.0000000000
        38         1  LIG       H10             4.6508637087        3.1518547765       -1.1818407953  LIG       1               0.0000000000
        39         1  LIG       H11             4.9021672116       -0.0361825558        1.1933952109  LIG       1               0.0000000000
        40         1  LIG       H12             0.9440552495        2.8265197388        1.7125690222  LIG       1               0.0000000000
        41         1  LIG       H13             0.3288548283        0.7978870665       -2.0434901274  LIG       1               0.0000000000
        42         1  LIG       H14            -1.1266631213        1.8633852686        2.5765993230  LIG       1               0.0000000000
        43         1  LIG       H15            -1.7953889084       -0.0973841781       -1.2041036774  LIG       1               0.0000000000
        44         1  LIG       H16             6.3166248301       -2.3037333967        0.1241324587  LIG       1               0.0000000000
        45         1  LIG       H17             6.9842628152       -0.6639803267        0.4985093829  LIG       1               0.0000000000
        46         1  LIG       H18             4.0182980381       -2.8250865579       -0.9204196283  LIG       1               0.0000000000
        47         1  LIG       H19             2.3685183531       -2.1930577093       -0.5003626890  LIG       1               0.0000000000
        48         1  LIG       H20             7.6677030030       -0.3813620468       -1.9042044024  LIG       1               0.0000000000
        49         1  LIG       H21             6.9673325365       -1.9931960034       -2.3011034574  LIG       1               0.0000000000
        50         1  LIG       H22             8.3982952601       -1.8770378545       -1.2104048615  LIG       1               0.0000000000
        51         1  LIG       H23             2.2758157811       -3.7288089718        1.4787579411  LIG       1               0.0000000000
        52         1  LIG       H24             3.8826114069       -4.4042923673        1.0272022270  LIG       1               0.0000000000
        53         1  LIG       H25             2.4670942369       -4.6344357427       -0.0713839365  LIG       1               0.0000000000
        54         1  LIG       H26            -4.2102834443        2.0376085431       -0.2579467869  LIG       1               0.0000000000
        55         1  LIG       H27            -6.0461546398       -2.5626808933       -0.5656248344  LIG       1               0.0000000000
        56         1  LIG       H28            -6.1549575356        1.5701065762       -1.7141070492  LIG       1               0.0000000000
        57         1  LIG       H29            -8.3256865474       -0.6616870793       -1.5040527538  LIG       1               0.0000000000
        58         1  LIG       H30            -7.3606412916       -1.8419313963       -2.4935532936  LIG       1               0.0000000000
        59         1  LIG       H31            -7.4141498366       -0.0950611506       -2.9722052787  LIG       1               0.0000000000
        60         1  LIG       H32            -3.5027890462       -2.0522056687        1.8124490246  LIG       1               0.0000000000
