* GENERATED BY CHARMM-GUI (HTTP://WWW.CHARMM-GUI.ORG)
*
        28  EXT
         1         1  LIG       O1              5.3037000000       -0.6319000000       -0.7191000000  LIG       1               0.0000000000
         2         1  LIG       O2              3.9741000000       -1.7345000000        0.9066000000  LIG       1               0.0000000000
         3         1  LIG       O3             -2.9689000000        0.0312000000        2.5021000000  LIG       1               0.0000000000
         4         1  LIG       O4             -3.9959000000       -2.3454000000        1.0270000000  LIG       1               0.0000000000
         5         1  LIG       N               3.3083000000        1.6816000000       -0.2321000000  LIG       1               0.0000000000
         6         1  LIG       C1              3.0911000000        0.2123000000       -0.1672000000  LIG       1               0.0000000000
         7         1  LIG       C2              2.0655000000        2.3898000000       -0.7867000000  LIG       1               0.0000000000
         8         1  LIG       C3              3.6006000000        2.2493000000        1.1629000000  LIG       1               0.0000000000
         9         1  LIG       C4              4.4966000000        2.0148000000       -1.1436000000  LIG       1               0.0000000000
        10         1  LIG       C5              4.3581000000       -0.4725000000        0.3425000000  LIG       1               0.0000000000
        11         1  LIG       C6              0.7815000000        1.8354000000       -0.2435000000  LIG       1               0.0000000000
        12         1  LIG       C7              0.3880000000        2.1356000000        1.0606000000  LIG       1               0.0000000000
        13         1  LIG       C8             -0.0188000000        1.0197000000       -1.0433000000  LIG       1               0.0000000000
        14         1  LIG       C9             -0.8058000000        1.6200000000        1.5649000000  LIG       1               0.0000000000
        15         1  LIG       C10            -1.2127000000        0.5041000000       -0.5389000000  LIG       1               0.0000000000
        16         1  LIG       C11             6.5068000000       -1.2650000000       -0.3054000000  LIG       1               0.0000000000
        17         1  LIG       C12             3.3412000000       -2.5813000000       -0.0435000000  LIG       1               0.0000000000
        18         1  LIG       C13            -1.6063000000        0.8042000000        0.7652000000  LIG       1               0.0000000000
        19         1  LIG       C14             7.4349000000       -1.3854000000       -1.4951000000  LIG       1               0.0000000000
        20         1  LIG       C15             2.9695000000       -3.8856000000        0.6289000000  LIG       1               0.0000000000
        21         1  LIG       C16            -2.8514000000        0.2664000000        1.2903000000  LIG       1               0.0000000000
        22         1  LIG       C17            -4.0285000000       -0.0255000000        0.4177000000  LIG       1               0.0000000000
        23         1  LIG       C18            -4.5475000000       -1.3168000000        0.3232000000  LIG       1               0.0000000000
        24         1  LIG       C19            -4.6080000000        1.0140000000       -0.3097000000  LIG       1               0.0000000000
        25         1  LIG       C20            -5.6459000000       -1.5686000000       -0.4987000000  LIG       1               0.0000000000
        26         1  LIG       C21            -6.2255000000       -0.5290000000       -1.2261000000  LIG       1               0.0000000000
        27         1  LIG       C22            -5.7065000000        0.7623000000       -1.1316000000  LIG       1               0.0000000000
        28         1  LIG       C23            -7.3979000000       -0.7991000000       -2.1074000000  LIG       1               0.0000000000
