Title
43188
    1CHL1    C3    1   1.096   0.288   6.618 -0.4028 -0.1092 -0.6442
    1CHL1    H3    2   1.155   0.194   6.617  1.9821  1.3115 -0.7091
    1CHL1    O3    3   1.041   0.312   6.751 -0.1724  0.2170 -0.0949
    1CHL1   H3'    4   1.026   0.224   6.787  1.9382 -0.3066 -0.3546
    1CHL1    C4    5   1.198   0.393   6.583 -0.1739 -0.2496  0.3941
    1CHL1   H4A    6   1.149   0.492   6.591  2.0137  1.1259 -1.7740
    1CHL1   H4B    7   1.276   0.398   6.662  1.6539  2.3257 -1.3755
    1CHL1    C5    8   1.261   0.382   6.447  0.0700  0.3652 -0.3605
    1CHL1    C6    9   1.388   0.371   6.417 -0.6641 -0.4418 -0.2364
    1CHL1    H6   10   1.451   0.380   6.507 -0.8244 -1.6022  0.0067
    1CHL1    C7   11   1.465   0.354   6.289  0.1128  0.1789  0.7985
    1CHL1   H7A   12   1.528   0.445   6.281 -2.4762  1.8718 -3.2351
    1CHL1   H7B   13   1.526   0.262   6.296  0.4741  0.2248 -1.2331
    1CHL1    C8   14   1.366   0.365   6.169 -0.3087 -0.3303 -0.6507
    1CHL1    H8   15   1.341   0.473   6.160 -0.0929  0.1993  3.3391
    1CHL1   C14   16   1.422   0.315   6.037 -0.0738 -0.1009 -0.0914
    1CHL1   H14   17   1.434   0.208   6.065 -0.3591  0.0365  0.5843
    1CHL1   C15   18   1.560   0.371   6.000  0.4568 -0.2004  0.0198
    1CHL1  H15A   19   1.553   0.482   6.007  0.5783 -0.2591  1.3019
    1CHL1  H15B   20   1.644   0.339   6.064  0.1692 -2.3169 -0.6054
    1CHL1   C16   21   1.570   0.333   5.857  0.3033  0.2547  0.1352
    1CHL1  H16A   22   1.600   0.413   5.786  0.6041 -0.2463 -0.3161
    1CHL1  H16B   23   1.641   0.247   5.855  1.6534  1.3247  0.3190
    1CHL1   C17   24   1.425   0.274   5.818 -0.6699  0.4401  0.9714
    1CHL1   H17   25   1.431   0.164   5.835 -0.7314  0.2827  0.0305
    1CHL1   C13   26   1.330   0.326   5.919 -0.3064 -0.0518  0.2152
    1CHL1   C18   27   1.298   0.473   5.891  0.4203  0.4133  0.1758
    1CHL1  H18A   28   1.384   0.543   5.882  1.1692 -0.5477 -0.3305
    1CHL1  H18B   29   1.234   0.483   5.801 -0.4414  0.5496  0.7878
    1CHL1  H18C   30   1.233   0.522   5.967  1.2929 -0.7182  1.7103
    1CHL1   C12   31   1.210   0.237   5.957  0.0422 -0.0025  0.0266
    1CHL1  H12A   32   1.127   0.237   5.883 -0.7122  2.0241  0.8118
    1CHL1  H12B   33   1.244   0.132   5.967 -0.8335 -0.3029 -0.0228
    1CHL1   C11   34   1.135   0.288   6.084  0.1141 -0.7632  0.3326
    1CHL1  H11A   35   1.084   0.386   6.071  1.4960  0.1120  1.2544
    1CHL1  H11B   36   1.047   0.225   6.112  0.2990  0.1698  3.3878
    1CHL1    C9   37   1.230   0.300   6.208 -0.5177 -0.0744 -0.2573
    1CHL1    H9   38   1.248   0.197   6.245 -1.3419  0.4416  1.7293
    1CHL1   C10   39   1.164   0.361   6.333  0.2054  0.2696  0.5164
    1CHL1   C19   40   1.106   0.497   6.309  0.4581 -0.1621 -0.0895
    1CHL1  H19A   41   1.179   0.560   6.254  0.8544  0.9113  1.5836
    1CHL1  H19B   42   1.007   0.490   6.259  0.3622 -0.3779  0.1272
    1CHL1  H19C   43   1.083   0.549   6.404 -0.7591 -0.4986 -0.1842
    1CHL1    C1   44   1.052   0.263   6.382  0.5115 -0.5491 -0.0866
    1CHL1   H1A   45   0.975   0.286   6.305  1.9565  0.8097 -1.2156
    1CHL1   H1B   46   1.083   0.157   6.377 -0.2282 -0.7354 -1.2238
    1CHL1    C2   47   0.983   0.278   6.516  0.4753  0.4127  0.4785
    1CHL1   H2A   48   0.907   0.200   6.538 -0.6942  1.3114 -0.2729
    1CHL1   H2B   49   0.941   0.380   6.526  1.1489  0.6498  0.9327
    1CHL1   C20   50   1.393   0.304   5.672  0.2351 -0.3912  0.0105
    1CHL1   H20   51   1.376   0.413   5.666 -2.8193 -0.7950 -0.4005
    1CHL1   C21   52   1.259   0.235   5.635 -0.8912 -0.4478  0.0707
    1CHL1  H21A   53   1.238   0.238   5.526 -2.2639  0.9275  0.3389
    1CHL1  H21B   54   1.176   0.285   5.690 -0.0543  0.2692  0.7049
    1CHL1  H21C   55   1.269   0.132   5.675 -0.3746  0.1629  1.5509
    1CHL1   C22   56   1.504   0.257   5.571 -0.2101 -0.4873 -0.1853
    1CHL1  H22A   57   1.605   0.271   5.615 -0.8624  0.5291  1.0409
    1CHL1  H22B   58   1.496   0.148   5.548  0.2081 -0.1265 -2.1902
    1CHL1   C23   59   1.502   0.325   5.436 -0.1765  0.4500  0.4585
    1CHL1  H23A   60   1.403   0.305   5.390  0.0779 -1.0036  0.4938
    1CHL1  H23B   61   1.510   0.435   5.446 -1.6529  0.6002  0.1616
    1CHL1   C24   62   1.615   0.271   5.341  0.4070  0.2382  0.1774
    1CHL1  H24A   63   1.711   0.287   5.395  0.4162 -0.4752  0.3807
    1CHL1  H24B   64   1.607   0.161   5.326  1.1906  0.1108  0.6377
    1CHL1   C25   65   1.603   0.334   5.201  0.5999  0.4262 -0.2653
    1CHL1   H25   66   1.570   0.439   5.216 -0.4788  0.1105 -0.3552
    1CHL1   C26   67   1.741   0.318   5.132 -0.6111  0.3038 -0.3649
    1CHL1  H26A   68   1.731   0.361   5.030  1.3328 -2.0155 -1.6426
    1CHL1  H26B   69   1.814   0.380   5.189 -1.5657 -0.1497  1.4459
    1CHL1  H26C   70   1.777   0.214   5.121 -0.4506  0.3361 -0.1669
    1CHL1   C27   71   1.503   0.248   5.115  0.2068  1.1581 -0.1107
    1CHL1  H27A   72   1.559   0.153   5.095 -0.2896  0.9050 -0.3132
    1CHL1  H27B   73   1.406   0.222   5.161 -0.7474  2.1110 -1.5074
    1CHL1  H27C   74   1.492   0.306   5.021  2.6204  1.2803 -0.3852
    2CHL1    C3   75   2.909   1.406   6.530 -0.6876  0.5701 -0.2099
    2CHL1    H3   76   2.850   1.499   6.510 -1.3363  0.1662 -0.1911
    2CHL1    O3   77   2.934   1.403   6.676  0.1979 -0.0634 -0.4281
    2CHL1   H3'   78   2.854   1.373   6.720  0.6866  0.1269  0.6083
    2CHL1    C4   79   2.821   1.288   6.481  0.1470 -0.5921 -0.3457
    2CHL1   H4A   80   2.866   1.189   6.505 -2.7345 -1.4862  1.9232
    2CHL1   H4B   81   2.722   1.269   6.528 -0.5671 -0.8679 -1.9015
    2CHL1    C5   82   2.803   1.300   6.331 -0.0655 -0.2587  0.0366
    2CHL1    C6   83   2.683   1.296   6.281  0.4220 -0.1306  0.1312
    2CHL1    H6   84   2.596   1.294   6.347 -0.9975 -0.6132 -1.6563
    2CHL1    C7   85   2.646   1.299   6.135 -0.0803  0.0021 -0.2542
    2CHL1   H7A   86   2.571   1.219   6.118  0.7980 -1.0347  0.5899
    2CHL1   H7B   87   2.594   1.394   6.111 -1.8062 -1.0118 -0.6832
    2CHL1    C8   88   2.770   1.282   6.047  0.2792 -0.0414 -0.1115
    2CHL1    H8   89   2.797   1.174   6.044  3.4910  0.5697  1.7344
    2CHL1   C14   90   2.735   1.330   5.904  0.1588 -0.1374  0.4249
    2CHL1   H14   91   2.706   1.436   5.919 -0.2634 -0.3367  1.1189
    2CHL1   C15   92   2.603   1.274   5.833 -0.2516  0.0202 -0.2547
    2CHL1  H15A   93   2.605   1.168   5.867  5.0511  0.4739  1.8322
    2CHL1  H15B   94   2.513   1.326   5.872 -0.0814  0.7334 -0.7946
    2CHL1   C16   95   2.637   1.299   5.682 -0.0671  0.0586 -0.0148
    2CHL1  H16A   96   2.630   1.200   5.632  1.7709 -1.1377  1.9206
    2CHL1  H16B   97   2.566   1.367   5.630  1.3067  0.1979 -1.7885
    2CHL1   C17   98   2.776   1.366   5.667  0.2604 -0.6802 -0.3467
    2CHL1   H17   99   2.762   1.476   5.661  2.2620 -0.4290 -1.1462
    2CHL1   C13  100   2.850   1.330   5.800  0.2614  0.2395 -1.0274
    2CHL1   C18  101   2.914   1.188   5.788 -0.0166 -0.0820 -0.6956
    2CHL1  H18A  102   2.844   1.110   5.753 -0.5436  1.3987 -3.1451
    2CHL1  H18B  103   2.992   1.186   5.709 -1.7750  1.3815 -2.5806
    2CHL1  H18C  104   2.947   1.143   5.885 -1.8852 -1.0025 -0.4510
    2CHL1   C12  105   2.954   1.428   5.853  0.0953 -0.6615  0.4193
    2CHL1  H12A  106   3.043   1.432   5.787 -0.2977  0.6759 -0.0507
    2CHL1  H12B  107   2.928   1.536   5.850 -0.6760 -0.7353  2.5466
    2CHL1   C11  108   2.996   1.388   5.997  0.0462 -0.0484 -0.5097
    2CHL1  H11A  109   3.059   1.297   5.991 -1.1809 -0.9919  0.4898
    2CHL1  H11B  110   3.060   1.466   6.044  1.3404 -1.4744  0.1714
    2CHL1    C9  111   2.880   1.361   6.099 -0.5230 -0.1346 -0.0370
    2CHL1    H9  112   2.841   1.465   6.111 -1.1777 -0.4721  0.9113
    2CHL1   C10  113   2.929   1.313   6.243 -0.2788 -1.1450  0.0251
    2CHL1   C19  114   3.001   1.173   6.235 -0.1384 -0.1000 -0.1393
    2CHL1  H19A  115   3.014   1.122   6.332  0.8793 -0.9488 -0.6988
    2CHL1  H19B  116   2.935   1.101   6.181 -0.5017  0.0571  0.0935
    2CHL1  H19C  117   3.095   1.180   6.175  0.0595 -3.6474 -0.4447
    2CHL1    C1  118   3.025   1.420   6.303  0.0520 -0.7055 -0.8807
    2CHL1   H1A  119   3.124   1.428   6.253  1.8471 -0.1106  2.4789
    2CHL1   H1B  120   2.970   1.515   6.287 -0.0115 -0.3363  1.2994
    2CHL1    C2  121   3.046   1.408   6.455 -0.1569  0.4047 -0.4829
    2CHL1   H2A  122   3.116   1.485   6.493  0.6736 -0.7641  0.4569
    2CHL1   H2B  123   3.104   1.315   6.470 -0.0603  0.2730 -1.5985
    2CHL1   C20  124   2.849   1.329   5.537 -0.2616 -0.5064 -0.1639
    2CHL1   H20  125   2.859   1.219   5.530  1.7583 -0.2994 -1.2848
    2CHL1   C21  126   2.997   1.391   5.533 -0.2000  0.5032  0.0798
    2CHL1  H21A  127   3.045   1.376   5.435 -0.0999  0.7752  0.0870
    2CHL1  H21B  128   3.071   1.337   5.596  0.6575 -1.4478 -2.4327
    2CHL1  H21C  129   2.991   1.498   5.560  1.1819  0.2654  1.4398
    2CHL1   C22  130   2.777   1.386   5.412 -0.2708 -0.2506 -0.3250
    2CHL1  H22A  131   2.846   1.351   5.332 -1.7709 -2.2764 -0.8240
    2CHL1  H22B  132   2.683   1.327   5.405 -1.4888  1.2549  2.0595
    2CHL1   C23  133   2.756   1.544   5.402  0.3146  0.0693 -0.6167
    2CHL1  H23A  134   2.693   1.575   5.489  0.6907 -1.0671  0.0823
    2CHL1  H23B  135   2.852   1.599   5.410  0.0437  0.7240 -1.6130
    2CHL1   C24  136   2.689   1.600   5.271 -0.0772  0.3959 -0.4236
    2CHL1  H24A  137   2.740   1.563   5.179 -0.2985  3.7258 -2.0386
    2CHL1  H24B  138   2.586   1.559   5.278  0.0524  0.2136  0.4804
    2CHL1   C25  139   2.686   1.748   5.265 -1.1842 -0.6556 -0.0292
    2CHL1   H25  140   2.653   1.790   5.362  1.2797 -0.2524  0.7151
    2CHL1   C26  141   2.821   1.810   5.227  0.2808 -0.0992  0.0172
    2CHL1  H26A  142   2.903   1.797   5.300  0.1811 -0.9510 -0.0103
    2CHL1  H26B  143   2.853   1.761   5.132  2.0011 -3.0257  1.9489
    2CHL1  H26C  144   2.799   1.918   5.218  0.0142 -0.2337 -1.1429
    2CHL1   C27  145   2.594   1.795   5.149 -0.0025 -0.1903 -0.1602
    2CHL1  H27A  146   2.579   1.905   5.153 -1.7376 -0.3903 -0.6191
    2CHL1  H27B  147   2.634   1.769   5.049 -2.4567 -0.6790 -1.0763
    2CHL1  H27C  148   2.507   1.726   5.158  0.3302 -0.6063 -0.1091
    3CHL1    C3  149   2.385   6.643   6.517  0.2845 -0.4265 -0.5148
    3CHL1    H3  150   2.470   6.712   6.498 -0.8710  1.6833  1.4822
    3CHL1    O3  151   2.373   6.635   6.659 -1.0072  0.0158  0.2284
    3CHL1   H3'  152   2.321   6.559   6.686  0.1364 -0.3878  1.3617
    3CHL1    C4  153   2.259   6.696   6.456  0.6670 -0.2232  0.2907
    3CHL1   H4A  154   2.180   6.629   6.496  1.8429 -1.2907  0.8986
    3CHL1   H4B  155   2.236   6.796   6.500 -1.3952 -0.8921  0.8557
    3CHL1    C5  156   2.262   6.702   6.304 -0.5470  0.1152  0.2864
    3CHL1    C6  157   2.238   6.810   6.238 -0.6453 -0.4118 -0.2037
    3CHL1    H6  158   2.203   6.894   6.299 -0.5664 -0.7351  0.2929
    3CHL1    C7  159   2.250   6.828   6.089  0.3583 -0.4091 -0.1481
    3CHL1   H7A  160   2.158   6.869   6.043  1.0803 -0.0427 -1.3108
    3CHL1   H7B  161   2.329   6.902   6.065 -2.6012  2.5797 -1.5268
    3CHL1    C8  162   2.271   6.690   6.012 -0.4039  0.1832  0.4575
    3CHL1    H8  163   2.177   6.632   6.003  1.6876 -3.2333 -1.2361
    3CHL1   C14  164   2.330   6.729   5.878 -0.1579  0.5956 -0.5759
    3CHL1   H14  165   2.431   6.769   5.900 -0.1415 -0.3461  1.2782
    3CHL1   C15  166   2.260   6.839   5.793  0.1031  0.6710  0.0197
    3CHL1  H15A  167   2.155   6.802   5.792  0.2416  0.2759 -0.6786
    3CHL1  H15B  168   2.279   6.934   5.846  2.2304  0.5680 -0.4570
    3CHL1   C16  169   2.319   6.814   5.654 -0.4983 -0.0090 -0.4096
    3CHL1  H16A  170   2.244   6.824   5.573  0.2050 -3.8487 -1.7177
    3CHL1  H16B  171   2.401   6.887   5.634 -0.2888 -0.5048 -1.3813
    3CHL1   C17  172   2.396   6.680   5.654 -0.2623  0.2282 -0.4764
    3CHL1   H17  173   2.503   6.710   5.656 -0.6221  1.6049  2.1430
    3CHL1   C13  174   2.360   6.609   5.784 -0.2619  0.0820  0.4409
    3CHL1   C18  175   2.228   6.529   5.754  0.1170  0.1783 -0.7267
    3CHL1  H18A  176   2.178   6.500   5.849  1.7673 -1.1583 -0.2155
    3CHL1  H18B  177   2.159   6.590   5.691 -4.0595  0.6001  3.6624
    3CHL1  H18C  178   2.262   6.439   5.700  2.0872  1.1402 -1.1952
    3CHL1   C12  179   2.463   6.516   5.850 -0.0174  0.3860 -0.4365
    3CHL1  H12A  180   2.478   6.420   5.795 -0.3908 -1.2328  2.1239
    3CHL1  H12B  181   2.565   6.558   5.860 -0.8232  2.7846 -1.5049
    3CHL1   C11  182   2.416   6.483   5.996 -0.2070 -0.2654 -0.3379
    3CHL1  H11A  183   2.323   6.423   5.993 -1.2698  1.3394 -0.3566
    3CHL1  H11B  184   2.504   6.432   6.041  0.8226  0.3487 -1.5803
    3CHL1    C9  185   2.369   6.604   6.088  0.0675 -0.2409  0.1826
    3CHL1    H9  186   2.464   6.660   6.092 -1.3629  2.4378 -0.8887
    3CHL1   C10  187   2.319   6.574   6.240  0.2141 -0.5533  0.2770
    3CHL1   C19  188   2.212   6.463   6.239 -0.1611 -0.2475 -0.2631
    3CHL1  H19A  189   2.181   6.447   6.345  0.8711 -0.7239 -0.0161
    3CHL1  H19B  190   2.126   6.496   6.178 -0.6867 -0.4335  0.3652
    3CHL1  H19C  191   2.252   6.367   6.199 -2.1636 -1.7048  1.0310
    3CHL1    C1  192   2.437   6.523   6.324 -0.2613 -0.2445 -0.2061
    3CHL1   H1A  193   2.466   6.423   6.284  1.5500  0.1299  0.0563
    3CHL1   H1B  194   2.525   6.591   6.316  0.9487 -1.3130  2.4635
    3CHL1    C2  195   2.423   6.511   6.467  0.3212 -0.5734  0.0411
    3CHL1   H2A  196   2.519   6.486   6.517  0.1450 -0.3642  0.4926
    3CHL1   H2B  197   2.350   6.432   6.494  0.5830 -1.4039 -1.5403
    3CHL1   C20  198   2.378   6.614   5.516  0.9045  0.0937 -0.3510
    3CHL1   H20  199   2.272   6.588   5.501  1.1403 -1.0186 -0.2088
    3CHL1   C21  200   2.463   6.485   5.507 -0.0704 -0.0996 -0.4409
    3CHL1  H21A  201   2.437   6.420   5.593  1.1880 -1.8095 -1.2819
    3CHL1  H21B  202   2.572   6.495   5.523  0.1285 -2.0066 -0.2715
    3CHL1  H21C  203   2.447   6.433   5.409 -0.2902  0.4596 -0.7051
    3CHL1   C22  204   2.426   6.701   5.397  0.0944 -0.4108  0.3038
    3CHL1  H22A  205   2.372   6.797   5.381  0.3520 -0.3788 -0.4221
    3CHL1  H22B  206   2.530   6.735   5.414 -0.9196  3.8586 -0.9489
    3CHL1   C23  207   2.422   6.636   5.252  0.3852  0.6588  0.0533
    3CHL1  H23A  208   2.505   6.562   5.259  0.6243  0.9746  0.5736
    3CHL1  H23B  209   2.318   6.601   5.232 -0.6097  1.1838  3.6062
    3CHL1   C24  210   2.462   6.730   5.137  0.3064  0.5082  0.7679
    3CHL1  H24A  211   2.438   6.699   5.033 -1.8038  2.8798  0.4509
    3CHL1  H24B  212   2.414   6.830   5.142  1.7280  1.3754 -1.4603
    3CHL1   C25  213   2.612   6.761   5.130 -0.0128  0.0074  0.0270
    3CHL1   H25  214   2.645   6.819   5.219  0.3534  1.0457 -0.7676
    3CHL1   C26  215   2.712   6.646   5.120  0.6024  0.1955 -0.9484
    3CHL1  H26A  216   2.706   6.581   5.210 -0.1422 -1.1571 -1.9545
    3CHL1  H26B  217   2.686   6.573   5.041 -0.0923 -1.4389  0.7200
    3CHL1  H26C  218   2.819   6.675   5.112  0.5769  1.1511  1.3271
    3CHL1   C27  219   2.640   6.859   5.010  0.3324 -0.0628  0.4011
    3CHL1  H27A  220   2.597   6.808   4.922 -2.7579 -0.8055  2.1750
    3CHL1  H27B  221   2.596   6.961   5.010  2.4431  0.9143 -0.4011
    3CHL1  H27C  222   2.749   6.880   4.997  0.2601  0.8961  1.1803
    4CHL1    C3  223   2.181   1.498   6.532 -0.0375 -0.0535 -0.4286
    4CHL1    H3  224   2.174   1.609   6.531 -2.4000 -0.1655 -0.8558
    4CHL1    O3  225   2.176   1.434   6.659 -0.3061 -0.2808 -0.0745
    4CHL1   H3'  226   2.150   1.345   6.634 -2.2905 -0.8730  3.4414
    4CHL1    C4  227   2.070   1.442   6.445 -0.1270  0.4290  0.0225
    4CHL1   H4A  228   2.083   1.332   6.437  0.1055  0.5549 -1.9419
    4CHL1   H4B  229   1.967   1.455   6.485 -0.0748 -2.0495  1.1132
    4CHL1    C5  230   2.074   1.501   6.296 -0.0251 -0.0901 -0.1722
    4CHL1    C6  231   1.971   1.572   6.248  0.5120 -0.0107  0.2971
    4CHL1    H6  232   1.880   1.583   6.310 -0.0841 -0.2465 -0.5119
    4CHL1    C7  233   1.970   1.634   6.110 -0.1702 -0.0522  0.3075
    4CHL1   H7A  234   1.875   1.622   6.053  0.4902  1.3401 -1.1735
    4CHL1   H7B  235   1.993   1.743   6.119  0.4062  0.1160 -2.3859
    4CHL1    C8  236   2.080   1.565   6.023 -0.4402 -0.3092  0.4853
    4CHL1    H8  237   2.052   1.461   5.997 -3.0021  0.8554 -1.8987
    4CHL1   C14  238   2.102   1.632   5.892  0.1258 -0.9279 -0.6354
    4CHL1   H14  239   2.137   1.731   5.927 -0.9517 -0.9093  0.4533
    4CHL1   C15  240   1.980   1.657   5.802  0.1270  0.4741  0.0500
    4CHL1  H15A  241   1.905   1.576   5.815 -0.1353  0.9474  1.8186
    4CHL1  H15B  242   1.922   1.746   5.838 -0.7347  0.0519 -0.2706
    4CHL1   C16  243   2.032   1.676   5.669 -0.0829  0.2831  0.5434
    4CHL1  H16A  244   1.982   1.597   5.608 -0.7702 -0.5057  2.0561
    4CHL1  H16B  245   2.018   1.783   5.642 -1.1909 -0.0427 -0.2533
    4CHL1   C17  246   2.194   1.656   5.675  0.6155 -0.5849 -0.0441
    4CHL1   H17  247   2.237   1.751   5.712 -2.3583  0.0448  2.2378
    4CHL1   C13  248   2.208   1.569   5.801 -0.3301  0.5464 -0.2675
    4CHL1   C18  249   2.172   1.418   5.767 -0.4509 -0.6553  0.2145
    4CHL1  H18A  250   2.177   1.363   5.863 -2.2473  0.3353  0.9324
    4CHL1  H18B  251   2.069   1.406   5.727 -0.2839  1.0759 -0.8691
    4CHL1  H18C  252   2.245   1.375   5.696  1.0568 -1.2065  2.0154
    4CHL1   C12  253   2.344   1.589   5.868 -0.0235 -0.2086 -0.5116
    4CHL1  H12A  254   2.435   1.564   5.809  1.7777 -0.7837  2.3006
    4CHL1  H12B  255   2.367   1.697   5.881 -0.2454 -0.0895 -1.0936
    4CHL1   C11  256   2.346   1.531   6.014 -0.8430 -0.1301  0.5325
    4CHL1  H11A  257   2.369   1.422   6.020 -2.0665 -0.3981  0.6095
    4CHL1  H11B  258   2.432   1.575   6.069  0.2643 -1.4258 -0.0965
    4CHL1    C9  259   2.215   1.560   6.101 -0.2835  0.1924 -0.1459
    4CHL1    H9  260   2.224   1.668   6.126  0.6871 -0.1187  0.9562
    4CHL1   C10  261   2.206   1.485   6.227 -0.4051  0.1624 -0.2212
    4CHL1   C19  262   2.218   1.332   6.197 -1.0737 -0.0688  0.1813
    4CHL1  H19A  263   2.203   1.269   6.286  2.4674 -3.3845 -1.2796
    4CHL1  H19B  264   2.145   1.305   6.118  0.3203 -0.5101 -0.9938
    4CHL1  H19C  265   2.321   1.299   6.173 -0.3776  0.8980  1.6975
    4CHL1    C1  266   2.321   1.528   6.330  0.0361 -0.7237  0.2500
    4CHL1   H1A  267   2.416   1.493   6.284 -0.7118 -1.2325 -0.9622
    4CHL1   H1B  268   2.327   1.639   6.329  1.5636 -0.7030  3.0947
    4CHL1    C2  269   2.314   1.464   6.463 -0.1276  0.0419  0.1548
    4CHL1   H2A  270   2.404   1.502   6.515 -1.0965  1.3577  0.9484
    4CHL1   H2B  271   2.330   1.356   6.446 -0.0537  0.2937 -1.5859
    4CHL1   C20  272   2.258   1.626   5.541  0.3258  0.4287  0.6426
    4CHL1   H20  273   2.345   1.559   5.551  0.6238  0.6721 -0.1899
    4CHL1   C21  274   2.310   1.760   5.479  0.1739 -0.8573  0.2181
    4CHL1  H21A  275   2.363   1.741   5.384 -1.0796  1.4217 -1.0090
    4CHL1  H21B  276   2.382   1.809   5.548 -0.6913 -0.4618  0.8569
    4CHL1  H21C  277   2.223   1.828   5.465  1.4254  0.9190  0.7775
    4CHL1   C22  278   2.163   1.557   5.439  0.3923  0.3004 -0.3023
    4CHL1  H22A  279   2.102   1.475   5.483  1.2898 -0.9740 -1.3269
    4CHL1  H22B  280   2.083   1.625   5.404 -1.5393 -1.2900  0.8235
    4CHL1   C23  281   2.243   1.501   5.316  0.2615 -0.5643 -0.7819
    4CHL1  H23A  282   2.271   1.591   5.257  0.7650  0.3664  0.7993
    4CHL1  H23B  283   2.334   1.445   5.348  1.6790  1.7831 -0.4060
    4CHL1   C24  284   2.165   1.396   5.238 -0.4354  0.0714 -0.2391
    4CHL1  H24A  285   2.145   1.316   5.312  0.8198 -1.5430 -1.5505
    4CHL1  H24B  286   2.069   1.436   5.199 -0.5214 -1.8350 -2.1378
    4CHL1   C25  287   2.238   1.340   5.123 -0.6272  0.0433  0.5388
    4CHL1   H25  288   2.345   1.334   5.152 -0.2818 -2.3488 -0.9981
    4CHL1   C26  289   2.190   1.197   5.087 -0.4948 -0.0647 -0.6425
    4CHL1  H26A  290   2.257   1.151   5.011 -2.7969 -0.7979 -2.3407
    4CHL1  H26B  291   2.198   1.137   5.180 -1.7657  0.7072 -0.0001
    4CHL1  H26C  292   2.085   1.195   5.051 -0.6789 -0.6892 -0.0910
    4CHL1   C27  293   2.231   1.428   5.001 -0.0501  0.5331  0.3617
    4CHL1  H27A  294   2.250   1.536   5.019 -2.3746  1.1815 -0.6875
    4CHL1  H27B  295   2.276   1.391   4.907 -2.1399  1.4555 -1.0979
    4CHL1  H27C  296   2.123   1.422   4.973 -0.2885 -1.0014  1.5086
    5CHL1    C3  297   2.123   3.644   6.494  0.1587 -0.2474 -0.0175
    5CHL1    H3  298   2.167   3.546   6.466 -0.3729 -0.1055 -1.4242
    5CHL1    O3  299   2.090   3.655   6.633 -0.1033 -0.5238 -0.1026
    5CHL1   H3'  300   2.038   3.576   6.650 -0.8113  0.3468  1.9722
    5CHL1    C4  301   2.215   3.760   6.446  0.0460 -0.1357 -0.2383
    5CHL1   H4A  302   2.158   3.853   6.462  0.5203  0.6791 -2.7960
    5CHL1   H4B  303   2.302   3.756   6.516 -1.0201  0.3917  1.1544
    5CHL1    C5  304   2.240   3.756   6.301  0.5304  0.2364  0.3556
    5CHL1    C6  305   2.367   3.743   6.256 -0.1161  0.4162  0.0318
    5CHL1    H6  306   2.447   3.747   6.331  0.5165 -2.6048 -0.3674
    5CHL1    C7  307   2.405   3.749   6.112  0.6115 -0.0573 -0.2688
    5CHL1   H7A  308   2.482   3.825   6.087  2.0888 -1.4142  0.0213
    5CHL1   H7B  309   2.443   3.650   6.081  0.6526  0.1111 -0.7744
    5CHL1    C8  310   2.293   3.784   6.012  0.0741 -0.3848 -0.0947
    5CHL1    H8  311   2.290   3.895   6.006  0.1754 -0.3067  1.0972
    5CHL1   C14  312   2.325   3.734   5.865 -0.3854  0.0723  0.7976
    5CHL1   H14  313   2.334   3.624   5.879  1.7953  0.0819 -0.1384
    5CHL1   C15  314   2.454   3.777   5.798  0.7212 -0.2857  1.0897
    5CHL1  H15A  315   2.484   3.883   5.815 -1.3955  0.4199  0.6533
    5CHL1  H15B  316   2.530   3.705   5.835  0.4725  0.4766  3.2321
    5CHL1   C16  317   2.430   3.743   5.645  0.5259  0.2754 -0.7005
    5CHL1  H16A  318   2.438   3.840   5.591  1.7370  1.6347  1.7585
    5CHL1  H16B  319   2.504   3.679   5.591  2.0017  1.2015  0.1718
    5CHL1   C17  320   2.279   3.696   5.638 -0.4851 -0.2314 -0.0354
    5CHL1   H17  321   2.287   3.586   5.658 -0.1918 -0.1080  0.5447
    5CHL1   C13  322   2.214   3.758   5.759  0.4769 -0.2883  0.3741
    5CHL1   C18  323   2.193   3.913   5.741 -0.3493 -0.2550 -0.5098
    5CHL1  H18A  324   2.200   3.969   5.837 -2.2546 -2.3899  0.9901
    5CHL1  H18B  325   2.269   3.955   5.672  0.9068 -2.9439 -0.9238
    5CHL1  H18C  326   2.097   3.935   5.691 -1.4200 -1.4452  0.9041
    5CHL1   C12  327   2.088   3.698   5.806  0.0176  0.4497  0.1397
    5CHL1  H12A  328   2.007   3.732   5.738  1.1686  1.8991 -0.5752
    5CHL1  H12B  329   2.100   3.588   5.804  0.0405  0.4519 -1.3386
    5CHL1   C11  330   2.051   3.745   5.949 -0.1539  0.6856  0.7344
    5CHL1  H11A  331   2.017   3.849   5.932  0.9113  1.2066  1.6448
    5CHL1  H11B  332   1.972   3.669   5.963  0.7261 -0.5748 -0.7974
    5CHL1    C9  333   2.159   3.728   6.056  0.3618 -0.3278  0.0347
    5CHL1    H9  334   2.179   3.619   6.067 -0.3183 -0.2851  2.2847
    5CHL1   C10  335   2.119   3.756   6.202  0.0826  0.2668  0.0932
    5CHL1   C19  336   2.064   3.901   6.200 -0.3784  0.0634 -0.6050
    5CHL1  H19A  337   1.977   3.905   6.132 -1.3550 -3.3407  0.2685
    5CHL1  H19B  338   2.030   3.925   6.303  1.9392 -0.1771  0.2805
    5CHL1  H19C  339   2.136   3.976   6.160  1.1066 -0.4791  0.8952
    5CHL1    C1  340   2.014   3.657   6.255  0.6335 -0.4576  0.0140
    5CHL1   H1A  341   1.920   3.673   6.198  0.2207  0.2493  0.8781
    5CHL1   H1B  342   2.046   3.558   6.216 -0.8102  0.0012 -2.5648
    5CHL1    C2  343   1.990   3.653   6.404  0.1117  0.3608  0.6317
    5CHL1   H2A  344   1.931   3.566   6.440 -0.3479  0.4116  0.0129
    5CHL1   H2B  345   1.936   3.747   6.428  0.6424  1.2644 -1.4774
    5CHL1   C20  346   2.212   3.712   5.493  0.1319  0.3194  0.1808
    5CHL1   H20  347   2.147   3.801   5.483 -2.1265 -1.3104 -0.4078
    5CHL1   C21  348   2.124   3.589   5.470 -0.2957 -0.0911 -0.4794
    5CHL1  H21A  349   2.187   3.499   5.485 -1.6877 -0.9359  0.5603
    5CHL1  H21B  350   2.083   3.585   5.367 -1.0213 -0.4869 -0.1865
    5CHL1  H21C  351   2.036   3.582   5.537  1.8502  0.2704  2.5960
    5CHL1   C22  352   2.323   3.709   5.387  0.3540  0.4707  0.5460
    5CHL1  H22A  353   2.375   3.807   5.391 -1.7038  1.6321  0.1156
    5CHL1  H22B  354   2.390   3.620   5.388 -0.3317 -0.0495  2.0745
    5CHL1   C23  355   2.266   3.708   5.245 -0.4558  0.5120  0.7159
    5CHL1  H23A  356   2.222   3.609   5.219  0.0835  0.8890 -1.7923
    5CHL1  H23B  357   2.186   3.784   5.237 -1.3858 -0.4805  0.3283
    5CHL1   C24  358   2.373   3.727   5.131  0.0648 -0.4292  0.1144
    5CHL1  H24A  359   2.316   3.731   5.035 -1.2685 -0.6435  0.8789
    5CHL1  H24B  360   2.407   3.831   5.147 -2.6110  0.4624  0.5571
    5CHL1   C25  361   2.484   3.620   5.131  0.1970  0.0448 -0.1905
    5CHL1   H25  362   2.506   3.588   5.235 -0.7355 -0.4609 -0.1352
    5CHL1   C26  363   2.448   3.484   5.062  0.2582  0.9265  0.2234
    5CHL1  H26A  364   2.368   3.432   5.120  0.1515  1.1146  0.2454
    5CHL1  H26B  365   2.416   3.505   4.958 -0.5445 -2.2715 -0.3010
    5CHL1  H26C  366   2.539   3.420   5.062 -1.7421 -2.1395  1.4818
    5CHL1   C27  367   2.612   3.684   5.081  0.1573  0.1203  0.3938
    5CHL1  H27A  368   2.598   3.723   4.978 -2.6688  0.4274  0.8032
    5CHL1  H27B  369   2.646   3.765   5.148  1.3069  0.9900 -1.1779
    5CHL1  H27C  370   2.682   3.598   5.072  0.7407  0.7044 -0.8713
    6CHL1    C3  371   1.591   1.241   6.248 -0.0515  0.0870  0.4716
    6CHL1    H3  372   1.589   1.130   6.240  0.3946  0.2121 -2.0780
    6CHL1    O3  373   1.576   1.272   6.387 -0.1091 -0.0368  0.0391
    6CHL1   H3'  374   1.538   1.358   6.402 -0.2366 -0.1671  0.4688
    6CHL1    C4  375   1.709   1.308   6.197  0.2280  0.2059  0.5846
    6CHL1   H4A  376   1.722   1.416   6.223  1.2775  0.0837  0.6395
    6CHL1   H4B  377   1.794   1.257   6.246 -0.0961 -0.4450  0.4726
    6CHL1    C5  378   1.718   1.291   6.044 -0.0086  0.5203 -0.0717
    6CHL1    C6  379   1.831   1.232   5.992  0.2241  0.0611 -1.1645
    6CHL1    H6  380   1.918   1.209   6.055  0.9848  1.1339 -1.7826
    6CHL1    C7  381   1.850   1.202   5.845  0.7658  0.6255 -0.3975
    6CHL1   H7A  382   1.958   1.211   5.819  0.2948  0.9499 -2.4654
    6CHL1   H7B  383   1.821   1.095   5.837 -0.0189  0.8382 -0.4651
    6CHL1    C8  384   1.748   1.279   5.756 -0.0914 -0.2346 -0.0805
    6CHL1    H8  385   1.782   1.385   5.757 -1.6017  0.2680  0.2931
    6CHL1   C14  386   1.752   1.214   5.613  0.3658 -0.5868 -0.4371
    6CHL1   H14  387   1.727   1.106   5.614 -0.9482 -0.3247 -1.5100
    6CHL1   C15  388   1.884   1.225   5.542 -0.2060  0.5496 -0.3927
    6CHL1  H15A  389   1.926   1.326   5.563  1.5592  0.2733 -2.2905
    6CHL1  H15B  390   1.949   1.143   5.580 -2.7287 -1.2189  0.3255
    6CHL1   C16  391   1.846   1.211   5.396 -0.2002  0.2920 -1.1692
    6CHL1  H16A  392   1.904   1.286   5.338  3.1113 -1.2891 -0.1935
    6CHL1  H16B  393   1.893   1.122   5.348  0.5995 -0.7914  1.4322
    6CHL1   C17  394   1.690   1.219   5.390 -0.2604 -0.2832  0.4775
    6CHL1   H17  395   1.655   1.114   5.384  0.0537 -0.3022 -1.9568
    6CHL1   C13  396   1.645   1.279   5.516  0.3114 -0.1094 -0.4037
    6CHL1   C18  397   1.662   1.433   5.501  0.0603 -1.0127 -0.9135
    6CHL1  H18A  398   1.662   1.496   5.593 -1.8677  1.3359 -2.3782
    6CHL1  H18B  399   1.760   1.451   5.451  0.4783  1.0627  0.5236
    6CHL1  H18C  400   1.584   1.465   5.429 -0.2417 -1.6630 -0.8817
    6CHL1   C12  401   1.505   1.254   5.575  0.3592 -0.6913  0.0524
    6CHL1  H12A  402   1.427   1.306   5.516  0.2478 -0.8421  0.0655
    6CHL1  H12B  403   1.474   1.147   5.579 -0.1218 -0.6250 -1.4484
    6CHL1   C11  404   1.492   1.316   5.716  0.7662 -0.3166 -0.4602
    6CHL1  H11A  405   1.483   1.426   5.706  1.8065 -0.1509  0.2866
    6CHL1  H11B  406   1.390   1.297   5.756  0.7070 -2.8355 -1.6139
    6CHL1    C9  407   1.600   1.261   5.812 -0.9132 -0.3735  0.0063
    6CHL1    H9  408   1.584   1.152   5.824 -3.3968 -0.1307 -0.4536
    6CHL1   C10  409   1.593   1.320   5.958 -0.7429 -0.6295 -0.4166
    6CHL1   C19  410   1.572   1.475   5.953 -0.2372  0.8487 -0.0869
    6CHL1  H19A  411   1.604   1.522   6.049 -0.4808  1.8276 -0.4710
    6CHL1  H19B  412   1.645   1.520   5.882 -0.2242  1.3845  0.2597
    6CHL1  H19C  413   1.471   1.515   5.931  0.7234  3.4815 -0.1709
    6CHL1    C1  414   1.466   1.267   6.020 -0.3942 -0.0723 -0.1219
    6CHL1   H1A  415   1.378   1.318   5.976 -2.2289 -0.6853  2.5520
    6CHL1   H1B  416   1.460   1.158   6.002  2.1729 -0.8503  2.7580
    6CHL1    C2  417   1.459   1.291   6.177  0.3416  0.0375  0.3363
    6CHL1   H2A  418   1.373   1.235   6.220  0.9473  0.0209  1.5918
    6CHL1   H2B  419   1.450   1.399   6.198  1.4561  0.3383 -0.6312
    6CHL1   C20  420   1.640   1.258   5.242 -0.1483  0.2786  0.4097
    6CHL1   H20  421   1.672   1.365   5.235  0.7904  0.1038  1.6794
    6CHL1   C21  422   1.484   1.242   5.229 -0.4231  0.2844  0.2708
    6CHL1  H21A  423   1.454   1.136   5.238  0.0767 -0.0138 -1.3233
    6CHL1  H21B  424   1.453   1.287   5.133 -1.4201 -0.4393  0.2462
    6CHL1  H21C  425   1.445   1.298   5.317  2.6296 -0.7726  2.4896
    6CHL1   C22  426   1.714   1.183   5.135 -0.2296  0.1616  0.3565
    6CHL1  H22A  427   1.824   1.196   5.128 -0.3911  0.7800 -2.2982
    6CHL1  H22B  428   1.706   1.075   5.159 -0.5336  0.4915  1.8406
    6CHL1   C23  429   1.672   1.204   4.992 -0.0748 -0.3879  0.0224
    6CHL1  H23A  430   1.568   1.171   4.970  0.2126 -1.0288 -0.4100
    6CHL1  H23B  431   1.686   1.311   4.965  0.0277 -1.3448 -4.4722
    6CHL1   C24  432   1.759   1.110   4.898  0.5603  0.5689  0.5346
    6CHL1  H24A  433   1.869   1.099   4.908  0.5259 -1.8538 -0.9568
    6CHL1  H24B  434   1.717   1.011   4.925 -0.5731  1.5113  2.4168
    6CHL1   C25  435   1.749   1.144   4.749  0.8363  0.1995 -0.1657
    6CHL1   H25  436   1.642   1.141   4.720  0.7219  0.7101  0.2069
    6CHL1   C26  437   1.784   1.286   4.731  0.4004  0.1244  0.2894
    6CHL1  H26A  438   1.708   1.353   4.776 -0.0713  0.5864 -1.1441
    6CHL1  H26B  439   1.875   1.312   4.791  0.6065 -0.2641  0.1450
    6CHL1  H26C  440   1.789   1.315   4.624  1.5552  1.5109  0.6854
    6CHL1   C27  441   1.830   1.055   4.648 -0.0875  0.2932 -0.1277
    6CHL1  H27A  442   1.819   0.945   4.658 -1.3515  0.3692 -0.4962
    6CHL1  H27B  443   1.815   1.084   4.542  1.7301 -0.8031 -0.7275
    6CHL1  H27C  444   1.938   1.075   4.665  0.1549 -0.4916 -0.6971
    7CHL1    C3  445   1.467   5.764   6.458 -0.6888  0.1276  0.5340
    7CHL1    H3  446   1.414   5.860   6.442 -1.8552 -0.4877  0.6290
    7CHL1    O3  447   1.481   5.739   6.593  0.5887 -0.4984  0.3798
    7CHL1   H3'  448   1.495   5.645   6.602 -1.0594 -0.7540  0.5173
    7CHL1    C4  449   1.382   5.653   6.395  0.5402 -0.5274  0.7034
    7CHL1   H4A  450   1.430   5.553   6.410  1.5296 -0.3577 -1.0097
    7CHL1   H4B  451   1.285   5.654   6.448  0.4697 -0.0884  0.5718
    7CHL1    C5  452   1.361   5.688   6.246  0.0341  0.2472  0.4342
    7CHL1    C6  453   1.235   5.709   6.208 -0.8059  1.0829  1.2303
    7CHL1    H6  454   1.144   5.691   6.268 -1.2641  0.9365  0.5048
    7CHL1    C7  455   1.206   5.759   6.068  0.0720 -0.7932 -0.4624
    7CHL1   H7A  456   1.126   5.699   6.020  0.2593  0.4683 -2.4574
    7CHL1   H7B  457   1.176   5.866   6.070  2.5018 -0.0455  1.3539
    7CHL1    C8  458   1.322   5.740   5.968  0.2182 -0.0308 -0.4054
    7CHL1    H8  459   1.325   5.630   5.951  0.2133  0.1227 -1.4888
    7CHL1   C14  460   1.292   5.821   5.843  0.7039  0.4082  0.1502
    7CHL1   H14  461   1.287   5.928   5.872  0.9081  0.6812 -0.8013
    7CHL1   C15  462   1.162   5.780   5.771 -0.1481 -1.2336  0.3328
    7CHL1  H15A  463   1.122   5.676   5.773 -1.2445 -0.8160  1.0940
    7CHL1  H15B  464   1.088   5.835   5.832  1.6114  1.1885  0.4227
    7CHL1   C16  465   1.173   5.831   5.633  0.5063 -0.1581  0.3941
    7CHL1  H16A  466   1.161   5.739   5.571  0.8172 -1.0813  1.6679
    7CHL1  H16B  467   1.090   5.897   5.598  0.5396 -0.3409 -0.0406
    7CHL1   C17  468   1.318   5.886   5.615  0.6879 -0.0041 -0.3097
    7CHL1   H17  469   1.307   5.992   5.648 -2.1366  0.3571 -2.1241
    7CHL1   C13  470   1.389   5.807   5.726 -0.4712 -0.1950 -0.3582
    7CHL1   C18  471   1.404   5.660   5.679 -0.0631 -0.2205  0.3580
    7CHL1  H18A  472   1.320   5.614   5.623  0.5448  2.3618 -2.9677
    7CHL1  H18B  473   1.495   5.659   5.615 -0.2221 -1.1234  0.1255
    7CHL1  H18C  474   1.442   5.606   5.768  1.2036  3.7755  2.4913
    7CHL1   C12  475   1.526   5.852   5.785 -0.3001 -1.3040 -0.1459
    7CHL1  H12A  476   1.600   5.827   5.705 -0.3518  1.3867 -1.1240
    7CHL1  H12B  477   1.524   5.959   5.812  0.8064 -1.5502  1.0328
    7CHL1   C11  478   1.566   5.778   5.916  0.1451 -0.0041  0.6971
    7CHL1  H11A  479   1.602   5.679   5.882  2.6022  1.1392 -0.3464
    7CHL1  H11B  480   1.652   5.843   5.945 -0.6421  1.5016 -0.1733
    7CHL1    C9  481   1.454   5.783   6.022 -0.8011  0.6997 -0.4782
    7CHL1    H9  482   1.439   5.888   6.053  0.7062  0.6915  0.3667
    7CHL1   C10  483   1.490   5.715   6.162  0.8625  0.7674 -0.6064
    7CHL1   C19  484   1.568   5.585   6.135 -0.0632 -0.1568 -0.2596
    7CHL1  H19A  485   1.512   5.517   6.067  1.2937  0.8777 -2.5276
    7CHL1  H19B  486   1.666   5.605   6.088 -0.4890  0.4020 -0.9347
    7CHL1  H19C  487   1.578   5.526   6.228 -1.0144 -0.8695 -0.5828
    7CHL1    C1  488   1.566   5.817   6.244  0.0227 -0.5575  0.1964
    7CHL1   H1A  489   1.661   5.844   6.194  0.7073  1.9040  2.6324
    7CHL1   H1B  490   1.506   5.910   6.251 -0.8509 -1.1352  0.6743
    7CHL1    C2  491   1.598   5.777   6.387 -0.4270  0.4710 -0.6644
    7CHL1   H2A  492   1.658   5.864   6.421  1.9423 -0.0780 -3.1041
    7CHL1   H2B  493   1.648   5.678   6.383 -3.7517 -1.6189  2.5831
    7CHL1   C20  494   1.366   5.884   5.472  0.3287 -0.2845  0.2154
    7CHL1   H20  495   1.387   5.779   5.443  0.3912  0.2914 -1.9702
    7CHL1   C21  496   1.498   5.964   5.456 -0.2622 -0.2816  0.4089
    7CHL1  H21A  497   1.537   5.979   5.353 -1.5286 -1.2334 -0.2406
    7CHL1  H21B  498   1.578   5.917   5.517  1.0027 -0.2588 -1.1902
    7CHL1  H21C  499   1.491   6.062   5.509 -0.2376  0.5959 -1.1520
    7CHL1   C22  500   1.258   5.932   5.370  0.1916  0.8444  0.7884
    7CHL1  H22A  501   1.166   5.871   5.386 -1.1975  2.2024 -1.4516
    7CHL1  H22B  502   1.232   6.040   5.378 -0.0088  1.2750 -3.4560
    7CHL1   C23  503   1.305   5.902   5.224  0.5484  0.5586  0.0898
    7CHL1  H23A  504   1.370   5.985   5.189 -1.0303  2.8775  2.2044
    7CHL1  H23B  505   1.361   5.808   5.235 -1.9087 -1.1417 -0.9119
    7CHL1   C24  506   1.192   5.885   5.127  0.3479 -0.0300  1.2215
    7CHL1  H24A  507   1.141   5.791   5.161  2.0775 -2.1181 -1.5009
    7CHL1  H24B  508   1.123   5.970   5.147 -0.9358 -1.4001  3.0141
    7CHL1   C25  509   1.238   5.871   4.981 -0.7517 -0.1155 -0.0940
    7CHL1   H25  510   1.320   5.944   4.964 -1.1367  0.0246 -1.5329
    7CHL1   C26  511   1.294   5.726   4.958  0.0232  0.0646 -0.5358
    7CHL1  H26A  512   1.213   5.652   4.942 -2.3406  2.2269  0.8031
    7CHL1  H26B  513   1.373   5.726   4.880  1.2984  0.0572  0.7008
    7CHL1  H26C  514   1.341   5.694   5.053 -3.3318 -2.4513  0.4753
    7CHL1   C27  515   1.121   5.890   4.879  0.8968 -0.2559  0.0292
    7CHL1  H27A  516   1.061   5.796   4.870  1.9666 -0.9047 -0.5217
    7CHL1  H27B  517   1.064   5.980   4.912 -0.5333 -0.2290 -2.3317
    7CHL1  H27C  518   1.160   5.899   4.776 -2.3250  0.1640 -1.2597
    8CHL1    C3  519   6.463   1.243   6.488  0.1331 -0.1526 -0.8151
    8CHL1    H3  520   6.554   1.180   6.501  0.5378  0.7137  0.7861
    8CHL1    O3  521   6.399   1.262   6.615  0.0109  0.1782  0.5534
    8CHL1   H3'  522   6.310   1.294   6.595  0.1910  0.4046  0.1021
    8CHL1    C4  523   6.508   1.384   6.436  0.2352  0.1304 -0.2669
    8CHL1   H4A  524   6.431   1.461   6.458  1.5139  0.9922  1.4425
    8CHL1   H4B  525   6.585   1.422   6.507 -1.3710 -0.4418  1.8866
    8CHL1    C5  526   6.552   1.388   6.293  0.7460 -0.9222  0.7539
    8CHL1    C6  527   6.668   1.442   6.254 -0.2667  0.7565  0.2378
    8CHL1    H6  528   6.739   1.487   6.326 -0.1340 -0.3344  0.8114
    8CHL1    C7  529   6.718   1.446   6.111  0.2037  0.3498  0.5837
    8CHL1   H7A  530   6.757   1.547   6.087 -0.4001  0.0241 -2.0944
    8CHL1   H7B  531   6.807   1.386   6.086 -1.8384 -2.1612 -1.2430
    8CHL1    C8  532   6.602   1.416   6.011 -0.1634  0.1207  1.3007
    8CHL1    H8  533   6.539   1.507   6.001 -1.1795 -0.7259 -0.3255
    8CHL1   C14  534   6.660   1.379   5.874 -0.1873  0.1429  0.0773
    8CHL1   H14  535   6.720   1.292   5.909  0.0376  0.7060  1.1600
    8CHL1   C15  536   6.764   1.474   5.812  0.0013 -0.6198 -0.2150
    8CHL1  H15A  537   6.724   1.577   5.821  2.0104  0.4699 -2.4575
    8CHL1  H15B  538   6.859   1.475   5.870 -1.1967  0.7670  1.8386
    8CHL1   C16  539   6.778   1.438   5.667 -0.4420  0.9410 -0.2181
    8CHL1  H16A  540   6.747   1.528   5.610 -1.0526  0.6036 -0.4260
    8CHL1  H16B  541   6.873   1.395   5.627 -0.0110  1.7282 -0.0644
    8CHL1   C17  542   6.660   1.330   5.644 -0.6455 -0.4152  0.3011
    8CHL1   H17  543   6.710   1.233   5.661 -0.8860 -0.5312  0.3453
    8CHL1   C13  544   6.564   1.341   5.768  0.2240  0.1413 -0.7117
    8CHL1   C18  545   6.470   1.455   5.731 -0.4354 -0.2218  0.0571
    8CHL1  H18A  546   6.412   1.483   5.822 -1.8782 -0.4467 -0.7572
    8CHL1  H18B  547   6.525   1.545   5.698 -1.3544  0.2068 -0.3371
    8CHL1  H18C  548   6.394   1.430   5.653 -1.5022  2.0894  0.2784
    8CHL1   C12  549   6.492   1.209   5.811 -0.5035  0.0286 -0.1474
    8CHL1  H12A  550   6.432   1.167   5.727 -0.7608  1.1592 -0.5503
    8CHL1  H12B  551   6.567   1.129   5.825 -1.8117 -0.9103  2.0660
    8CHL1   C11  552   6.419   1.246   5.943 -0.4070 -0.0185  0.0400
    8CHL1  H11A  553   6.333   1.314   5.923 -0.4397  0.9093  2.7849
    8CHL1  H11B  554   6.387   1.146   5.977 -0.1265  0.4043  1.6334
    8CHL1    C9  555   6.519   1.291   6.055 -0.5126 -0.6590  0.5169
    8CHL1    H9  556   6.591   1.208   6.068 -0.8605 -0.7684  1.9301
    8CHL1   C10  557   6.461   1.317   6.199 -0.0790  0.0941  0.2149
    8CHL1   C19  558   6.339   1.418   6.182  0.0024 -0.2773 -0.5131
    8CHL1  H19A  559   6.362   1.503   6.114  2.0971  0.9383  1.5517
    8CHL1  H19B  560   6.248   1.362   6.149 -0.5315  1.0138 -1.3232
    8CHL1  H19C  561   6.307   1.463   6.279  1.0787  1.7110 -1.0220
    8CHL1    C1  562   6.411   1.178   6.257  0.3970 -0.5019  0.2367
    8CHL1   H1A  563   6.324   1.145   6.197  0.2020  0.5992 -0.1206
    8CHL1   H1B  564   6.495   1.106   6.253  0.3808 -0.4812 -1.2954
    8CHL1    C2  565   6.363   1.182   6.402  0.3018 -0.5276  0.1928
    8CHL1   H2A  566   6.341   1.078   6.433  0.6474 -0.7014 -0.1532
    8CHL1   H2B  567   6.265   1.234   6.413 -0.0506 -1.1303 -0.0343
    8CHL1   C20  568   6.600   1.335   5.504  0.5893  0.3107 -0.3036
    8CHL1   H20  569   6.553   1.434   5.486 -0.7239 -0.0350  1.0860
    8CHL1   C21  570   6.484   1.230   5.491 -0.0837  0.5074 -0.1942
    8CHL1  H21A  571   6.448   1.250   5.387 -0.4417 -2.2134 -0.6692
    8CHL1  H21B  572   6.392   1.244   5.551 -1.7237  0.8283 -2.6304
    8CHL1  H21C  573   6.520   1.127   5.508  0.7547  1.0581  1.5981
    8CHL1   C22  574   6.701   1.317   5.387 -0.4829  0.5236  0.7915
    8CHL1  H22A  575   6.784   1.390   5.392 -1.4875  1.7644  0.1983
    8CHL1  H22B  576   6.743   1.215   5.396  1.8956  1.1408 -1.7378
    8CHL1   C23  577   6.632   1.328   5.252 -0.0415  0.4198 -0.1808
    8CHL1  H23A  578   6.566   1.241   5.234 -0.7081  1.0629 -0.9495
    8CHL1  H23B  579   6.567   1.418   5.246  0.7519  0.9236 -1.5964
    8CHL1   C24  580   6.735   1.332   5.140 -0.3100  0.4381 -0.7474
    8CHL1  H24A  581   6.808   1.415   5.146  1.0798 -0.7291 -0.6937
    8CHL1  H24B  582   6.793   1.241   5.167 -0.6448  0.1737 -0.9065
    8CHL1   C25  583   6.668   1.309   5.000 -0.5695 -1.2277  0.1861
    8CHL1   H25  584   6.582   1.240   4.995  0.7528 -2.8838 -0.6259
    8CHL1   C26  585   6.627   1.450   4.950 -0.3233  0.2313 -0.2467
    8CHL1  H26A  586   6.613   1.440   4.840  2.0545 -3.6911 -0.3973
    8CHL1  H26B  587   6.538   1.490   5.002 -0.5442  1.3653 -1.4364
    8CHL1  H26C  588   6.715   1.515   4.968  0.1931 -0.2964 -0.8017
    8CHL1   C27  589   6.782   1.273   4.900 -0.2106  0.0088  0.2266
    8CHL1  H27A  590   6.833   1.182   4.935  2.0293  0.9567 -0.3913
    8CHL1  H27B  591   6.738   1.257   4.799  0.0165  2.0517 -0.2561
    8CHL1  H27C  592   6.858   1.352   4.881 -0.6776  0.8823  1.8320
    9CHL1    C3  593   1.667   6.795   6.645  0.8430  0.5559  0.1085
    9CHL1    H3  594   1.632   6.895   6.614 -0.0924  0.3413  0.4360
    9CHL1    O3  595   1.657   6.769   6.787 -0.2332 -0.6918  0.1730
    9CHL1   H3'  596   1.727   6.814   6.834  1.1299 -3.0120  0.4966
    9CHL1    C4  597   1.586   6.688   6.570 -0.7916 -0.5253 -0.4325
    9CHL1   H4A  598   1.621   6.590   6.611 -2.3983  0.3497  3.4838
    9CHL1   H4B  599   1.483   6.715   6.603 -0.2189  1.1892  0.0386
    9CHL1    C5  600   1.595   6.709   6.420  0.2357 -0.2256 -0.4251
    9CHL1    C6  601   1.488   6.739   6.348 -0.4948  0.4041  0.4107
    9CHL1    H6  602   1.393   6.742   6.402 -0.2511 -0.3512  0.8885
    9CHL1    C7  603   1.483   6.731   6.195 -0.1530 -0.0677 -0.5426
    9CHL1   H7A  604   1.416   6.651   6.158  1.0227 -0.9167 -0.8959
    9CHL1   H7B  605   1.451   6.823   6.141  2.5160  1.5633  0.4349
    9CHL1    C8  606   1.620   6.685   6.127 -0.0232 -0.0333 -0.0962
    9CHL1    H8  607   1.631   6.575   6.132 -0.4804 -0.0378  1.0796
    9CHL1   C14  608   1.630   6.737   5.985  0.2020  0.3720 -1.0941
    9CHL1   H14  609   1.627   6.848   5.983 -0.8825  0.3703 -3.9207
    9CHL1   C15  610   1.516   6.706   5.887 -0.6522  0.3534  0.4359
    9CHL1  H15A  611   1.473   6.604   5.897 -0.3743  0.3293  1.4836
    9CHL1  H15B  612   1.425   6.768   5.906 -1.3447  0.1837 -2.0204
    9CHL1   C16  613   1.579   6.721   5.745  0.3035  0.1759 -0.7546
    9CHL1  H16A  614   1.568   6.618   5.704 -1.2602 -1.0447  2.4021
    9CHL1  H16B  615   1.520   6.779   5.672 -2.0137 -0.7939  0.2400
    9CHL1   C17  616   1.728   6.765   5.773  0.0864  0.2059  0.0379
    9CHL1   H17  617   1.700   6.870   5.798  1.7020  0.6027  0.2770
    9CHL1   C13  618   1.760   6.696   5.912  0.4753  0.3508 -0.0879
    9CHL1   C18  619   1.776   6.541   5.896  0.6023 -0.8578  0.1500
    9CHL1  H18A  620   1.797   6.488   5.992  3.4253  0.4796  0.3576
    9CHL1  H18B  621   1.681   6.499   5.858 -0.1146  2.5647 -2.2999
    9CHL1  H18C  622   1.871   6.519   5.842  1.0620 -2.7093  1.5850
    9CHL1   C12  623   1.869   6.764   5.985  0.2419 -0.1857  0.2606
    9CHL1  H12A  624   1.969   6.739   5.943  1.8028  2.6882  1.9638
    9CHL1  H12B  625   1.841   6.871   5.975  0.1983 -0.1341  0.9456
    9CHL1   C11  626   1.874   6.719   6.134  0.6767  0.2393  0.0909
    9CHL1  H11A  627   1.901   6.611   6.129  0.2604  0.1795 -1.0796
    9CHL1  H11B  628   1.943   6.787   6.188  0.3350  0.8333 -0.2147
    9CHL1    C9  629   1.737   6.745   6.204 -0.0252  0.1472  0.0351
    9CHL1    H9  630   1.718   6.854   6.207 -0.2120  0.1000  2.3976
    9CHL1   C10  631   1.732   6.706   6.352 -0.1238  0.5210 -0.5789
    9CHL1   C19  632   1.788   6.560   6.365  0.5071  0.1367  0.3718
    9CHL1  H19A  633   1.803   6.518   6.466  1.6587  2.0277  1.0334
    9CHL1  H19B  634   1.730   6.486   6.306  2.6351 -0.3515 -1.2306
    9CHL1  H19C  635   1.892   6.559   6.327  0.5475  0.5898  0.4692
    9CHL1    C1  636   1.827   6.800   6.438  0.8814  0.0549 -0.4301
    9CHL1   H1A  637   1.932   6.775   6.411  1.1451 -0.8060  1.2557
    9CHL1   H1B  638   1.798   6.905   6.417 -1.0776 -0.6412 -1.4345
    9CHL1    C2  639   1.815   6.777   6.591  0.6262 -0.5071 -0.9932
    9CHL1   H2A  640   1.886   6.849   6.635 -2.0389  1.7108 -0.0180
    9CHL1   H2B  641   1.848   6.674   6.616 -0.0253 -1.0501 -2.2410
    9CHL1   C20  642   1.828   6.752   5.663 -0.0756 -0.4873 -0.1974
    9CHL1   H20  643   1.906   6.675   5.680 -0.5915 -1.4057 -1.8218
    9CHL1   C21  644   1.899   6.889   5.654  0.2216 -0.7298  0.2348
    9CHL1  H21A  645   1.925   6.919   5.757  1.6903  0.9245 -0.5564
    9CHL1  H21B  646   1.826   6.962   5.611  1.4444  1.1160  1.1761
    9CHL1  H21C  647   1.984   6.881   5.584 -0.0335  1.8885 -0.4972
    9CHL1   C22  648   1.764   6.719   5.520 -0.6643  0.3894 -0.2783
    9CHL1  H22A  649   1.710   6.623   5.529  0.3594 -0.1618  0.1069
    9CHL1  H22B  650   1.697   6.800   5.482 -0.2497  1.3000  0.8778
    9CHL1   C23  651   1.882   6.693   5.408 -0.3176 -0.1329 -0.0190
    9CHL1  H23A  652   1.958   6.774   5.404  0.7253 -1.0381  0.8995
    9CHL1  H23B  653   1.943   6.606   5.443 -0.1986 -0.6619 -1.4470
    9CHL1   C24  654   1.832   6.668   5.269  0.4723  0.8425  0.4867
    9CHL1  H24A  655   1.756   6.587   5.270  2.1332 -0.7616  0.5415
    9CHL1  H24B  656   1.783   6.763   5.237 -1.5860  0.2437  1.6664
    9CHL1   C25  657   1.936   6.632   5.163 -0.7021  0.3502  0.8071
    9CHL1   H25  658   1.977   6.532   5.192 -0.4160  0.3147  0.2962
    9CHL1   C26  659   1.873   6.612   5.027 -0.1316 -0.1822  0.0260
    9CHL1  H26A  660   1.818   6.516   5.016  2.1901 -1.8078  1.6706
    9CHL1  H26B  661   1.816   6.700   4.991 -0.6194 -1.7243 -3.3973
    9CHL1  H26C  662   1.955   6.589   4.955 -0.1120 -1.9543  0.5744
    9CHL1   C27  663   2.054   6.728   5.161  1.1017  0.0340  0.4181
    9CHL1  H27A  664   2.121   6.705   5.076  0.3281  1.3553 -0.5900
    9CHL1  H27B  665   2.008   6.825   5.131 -2.2036 -1.0651  1.4849
    9CHL1  H27C  666   2.108   6.730   5.258  0.1606  0.3032  0.9548
   10CHL1    C3  667   3.573   1.881   6.269 -0.4323  0.6656  0.8481
   10CHL1    H3  668   3.475   1.835   6.247 -1.0972  1.1672  2.5671
   10CHL1    O3  669   3.600   1.848   6.400 -0.2727  0.5388 -0.2003
   10CHL1   H3'  670   3.645   1.925   6.433  2.0396 -1.3313  1.3164
   10CHL1    C4  671   3.689   1.822   6.186  0.3250 -0.2583 -0.6069
   10CHL1   H4A  672   3.785   1.861   6.224 -0.3763  2.7619 -1.6318
   10CHL1   H4B  673   3.695   1.713   6.203 -0.4566 -0.4540 -1.4454
   10CHL1    C5  674   3.685   1.868   6.045 -0.0229  0.1630 -0.4774
   10CHL1    C6  675   3.696   1.775   5.951  0.3299  0.6006  0.7228
   10CHL1    H6  676   3.689   1.670   5.982  1.0972 -0.9864 -3.7398
   10CHL1    C7  677   3.680   1.804   5.802  0.0542 -0.3299 -1.5173
   10CHL1   H7A  678   3.747   1.744   5.738  1.0465  0.0528 -0.8619
   10CHL1   H7B  679   3.571   1.784   5.795 -0.2154  0.8232 -0.9352
   10CHL1    C8  680   3.698   1.950   5.758  0.4998  0.1732  0.4018
   10CHL1    H8  681   3.807   1.965   5.745  0.4800 -0.8229 -1.1744
   10CHL1   C14  682   3.624   1.981   5.626  0.5058 -0.1206 -0.6120
   10CHL1   H14  683   3.518   1.975   5.657  0.1814 -3.4044 -1.9263
   10CHL1   C15  684   3.635   1.874   5.515  0.0492 -0.3432  0.2790
   10CHL1  H15A  685   3.742   1.842   5.512 -0.8326 -3.8505  1.6576
   10CHL1  H15B  686   3.565   1.793   5.545 -0.0900 -0.2060  0.3215
   10CHL1   C16  687   3.608   1.954   5.381  0.0635 -0.0261 -0.0046
   10CHL1  H16A  688   3.707   1.952   5.331  1.3062  2.0337  2.1501
   10CHL1  H16B  689   3.514   1.927   5.327 -1.6260  1.5623  1.9459
   10CHL1   C17  690   3.573   2.092   5.426  0.8892 -0.0710 -0.5285
   10CHL1   H17  691   3.466   2.098   5.457  1.2967 -1.7232  1.3724
   10CHL1   C13  692   3.644   2.115   5.563  0.3360  0.2323  0.3498
   10CHL1   C18  693   3.791   2.130   5.524 -0.2788 -0.1296  0.0419
   10CHL1  H18A  694   3.847   2.136   5.620 -2.1063 -1.8493  1.2741
   10CHL1  H18B  695   3.835   2.047   5.464 -0.3827 -1.0443  1.1974
   10CHL1  H18C  696   3.807   2.228   5.474  1.5350 -0.9912 -1.1679
   10CHL1   C12  697   3.596   2.215   5.669  0.1746  0.3403 -0.1332
   10CHL1  H12A  698   3.609   2.320   5.636 -0.0723  0.0455 -1.2060
   10CHL1  H12B  699   3.486   2.201   5.677  0.1778 -0.4587 -1.2173
   10CHL1   C11  700   3.648   2.190   5.810  0.3240 -0.1102 -0.1717
   10CHL1  H11A  701   3.757   2.208   5.819  0.7006 -1.8649 -0.8006
   10CHL1  H11B  702   3.593   2.254   5.883  1.3543  1.1368 -0.4531
   10CHL1    C9  703   3.630   2.041   5.862 -0.4116  0.7489 -0.5470
   10CHL1    H9  704   3.520   2.026   5.867 -0.2267 -0.7708 -0.6639
   10CHL1   C10  705   3.663   2.021   6.018  0.2511 -0.1063  0.1277
   10CHL1   C19  706   3.800   2.089   6.054  0.0224 -0.2007  0.4657
   10CHL1  H19A  707   3.821   2.067   6.161 -0.9222 -3.0677  0.1527
   10CHL1  H19B  708   3.883   2.048   5.992 -2.8553 -1.4961 -2.7869
   10CHL1  H19C  709   3.801   2.200   6.056  1.4241 -0.1940  0.2842
   10CHL1    C1  710   3.550   2.074   6.109 -0.4612 -0.2656 -0.6713
   10CHL1   H1A  711   3.554   2.185   6.110 -2.0575 -0.1917 -0.0175
   10CHL1   H1B  712   3.454   2.034   6.072 -1.2844 -0.2135  1.3057
   10CHL1    C2  713   3.565   2.032   6.255 -1.5612  0.0201 -0.3812
   10CHL1   H2A  714   3.479   2.062   6.319 -0.8429 -0.8064  1.0148
   10CHL1   H2B  715   3.660   2.084   6.279 -2.2226  1.7166 -1.2786
   10CHL1   C20  716   3.588   2.187   5.305 -0.0834  0.3155 -0.2905
   10CHL1   H20  717   3.697   2.187   5.283 -0.1168 -1.4567 -0.5333
   10CHL1   C21  718   3.545   2.330   5.351  0.0422  0.2433  0.2089
   10CHL1  H21A  719   3.619   2.372   5.422 -0.4653 -1.0266  1.5453
   10CHL1  H21B  720   3.440   2.327   5.389  0.1294 -0.1681  0.4221
   10CHL1  H21C  721   3.543   2.401   5.265 -0.3523 -2.2848 -1.9897
   10CHL1   C22  722   3.513   2.150   5.176  0.3840 -0.1742 -0.0901
   10CHL1  H22A  723   3.550   2.054   5.133  1.2454  0.4503 -0.7878
   10CHL1  H22B  724   3.405   2.133   5.196  0.7327 -2.9569 -0.1362
   10CHL1   C23  725   3.518   2.242   5.051  0.3111 -0.2543 -0.1803
   10CHL1  H23A  726   3.450   2.201   4.973 -0.2998 -0.8287  0.6392
   10CHL1  H23B  727   3.482   2.342   5.084  2.1931  0.8038 -1.1812
   10CHL1   C24  728   3.669   2.254   5.014 -0.0648  0.1760 -0.3889
   10CHL1  H24A  729   3.731   2.292   5.098  1.5999 -0.5396 -1.2505
   10CHL1  H24B  730   3.709   2.152   4.997  1.6431  1.0252 -1.8115
   10CHL1   C25  731   3.704   2.338   4.888  0.1721 -0.0832  0.0989
   10CHL1   H25  732   3.671   2.443   4.901  2.3500  0.6153  0.4047
   10CHL1   C26  733   3.861   2.342   4.870 -0.0686  0.1051  0.8066
   10CHL1  H26A  734   3.905   2.243   4.846 -0.8823 -0.3512  1.1692
   10CHL1  H26B  735   3.878   2.412   4.785 -2.8677 -0.1845 -0.0888
   10CHL1  H26C  736   3.917   2.372   4.961 -0.1162  1.5527  0.3915
   10CHL1   C27  737   3.623   2.286   4.761  0.4144  0.2245  0.5780
   10CHL1  H27A  738   3.516   2.310   4.776 -0.5265 -3.7154  1.4532
   10CHL1  H27B  739   3.666   2.331   4.669  0.2119 -3.4945 -1.5224
   10CHL1  H27C  740   3.646   2.177   4.756  0.8419  0.3532 -0.7686
   11CHL1    C3  741   6.348   0.580   6.843  0.4725 -0.4279  0.2582
   11CHL1    H3  742   6.299   0.493   6.795  0.0103  1.0712 -2.1336
   11CHL1    O3  743   6.328   0.572   6.985 -0.8551  0.0128 -0.1876
   11CHL1   H3'  744   6.356   0.656   7.021 -0.5620  0.1326 -0.6829
   11CHL1    C4  745   6.500   0.578   6.808  0.3369 -0.0969 -0.1078
   11CHL1   H4A  746   6.544   0.672   6.847  0.1557  0.3684 -0.9861
   11CHL1   H4B  747   6.555   0.495   6.856 -0.8265 -0.8364 -0.0264
   11CHL1    C5  748   6.511   0.569   6.659  0.0101 -0.5682 -0.2080
   11CHL1    C6  749   6.574   0.470   6.595 -0.0865  0.5885  0.0191
   11CHL1    H6  750   6.623   0.389   6.652  1.7564  1.4872 -0.1920
   11CHL1    C7  751   6.600   0.465   6.449  0.9582 -0.3609 -0.6127
   11CHL1   H7A  752   6.705   0.437   6.429  0.8006 -2.1174  0.8361
   11CHL1   H7B  753   6.547   0.382   6.398 -0.4533 -1.1110  1.9096
   11CHL1    C8  754   6.562   0.598   6.371 -0.4217 -0.2009  0.0448
   11CHL1    H8  755   6.652   0.662   6.379 -2.0442  2.2413 -0.3100
   11CHL1   C14  756   6.543   0.566   6.225 -0.1110 -0.6337 -0.5529
   11CHL1   H14  757   6.445   0.515   6.227 -0.8207  0.5209  3.2738
   11CHL1   C15  758   6.639   0.482   6.149  0.7041  0.1169 -0.9102
   11CHL1  H15A  759   6.741   0.502   6.188  0.5431 -1.3777  0.3973
   11CHL1  H15B  760   6.615   0.374   6.163  1.7968  0.0839  1.1966
   11CHL1   C16  761   6.623   0.523   6.005  0.9624  0.3945 -0.5179
   11CHL1  H16A  762   6.719   0.564   5.967  1.0997 -0.5231 -1.2066
   11CHL1  H16B  763   6.585   0.440   5.941 -0.6249 -0.2817  1.2201
   11CHL1   C17  764   6.511   0.631   6.003 -0.3466 -0.6240  0.0042
   11CHL1   H17  765   6.416   0.573   6.006  0.9694 -2.8599  2.4003
   11CHL1   C13  766   6.512   0.695   6.142 -0.0045  0.0984  0.6407
   11CHL1   C18  767   6.634   0.795   6.144 -0.3608  0.4613  0.8717
   11CHL1  H18A  768   6.653   0.824   6.250 -0.2848 -1.3769  1.4050
   11CHL1  H18B  769   6.729   0.754   6.103 -0.0581  0.3088  1.6942
   11CHL1  H18C  770   6.605   0.893   6.101  0.6007  0.5705  0.4476
   11CHL1   C12  771   6.386   0.761   6.190 -0.1673  0.5666 -0.8195
   11CHL1  H12A  772   6.377   0.863   6.147  0.4127  1.0862  0.2423
   11CHL1  H12B  773   6.294   0.701   6.175  0.4332 -1.4132  2.3594
   11CHL1   C11  774   6.391   0.790   6.344  0.5041  0.7466 -0.5660
   11CHL1  H11A  775   6.458   0.876   6.364  0.7020 -0.0964  2.9729
   11CHL1  H11B  776   6.286   0.812   6.373  0.7811  0.4875  0.6686
   11CHL1    C9  777   6.433   0.664   6.426 -0.1730  0.9069 -0.2868
   11CHL1    H9  778   6.357   0.583   6.412  1.0159 -0.4062  0.5959
   11CHL1   C10  779   6.447   0.688   6.582  0.5435  1.0137  0.0961
   11CHL1   C19  780   6.550   0.802   6.603 -0.4093  0.5200 -0.0489
   11CHL1  H19A  781   6.649   0.775   6.559  0.0767  2.9346 -0.6160
   11CHL1  H19B  782   6.527   0.894   6.544  2.8104  2.0014  0.7609
   11CHL1  H19C  783   6.569   0.847   6.703  2.6151  1.4267 -0.9193
   11CHL1    C1  784   6.305   0.721   6.640  0.0323  0.0047 -0.1882
   11CHL1   H1A  785   6.263   0.819   6.608  1.3979  0.4681 -0.6059
   11CHL1   H1B  786   6.237   0.647   6.592  1.6680 -1.8602  0.2384
   11CHL1    C2  787   6.283   0.706   6.793 -0.3337 -0.0880  0.2730
   11CHL1   H2A  788   6.177   0.695   6.826  0.0939  1.8493  2.5993
   11CHL1   H2B  789   6.316   0.794   6.853 -1.1321 -0.0960  0.7320
   11CHL1   C20  790   6.513   0.715   5.874 -0.4248  0.2496 -0.5785
   11CHL1   H20  791   6.588   0.797   5.883 -1.1629  0.8955 -0.1052
   11CHL1   C21  792   6.376   0.789   5.851  0.5055  1.0083 -0.3554
   11CHL1  H21A  793   6.393   0.867   5.773  2.2823  2.7351  1.5913
   11CHL1  H21B  794   6.339   0.835   5.945 -2.0291 -0.7005 -0.4392
   11CHL1  H21C  795   6.294   0.721   5.823  3.1183 -2.7059  0.3313
   11CHL1   C22  796   6.543   0.627   5.741  0.5469 -0.4667 -0.6192
   11CHL1  H22A  797   6.643   0.579   5.753 -0.2037 -1.6527  1.3585
   11CHL1  H22B  798   6.459   0.555   5.736  1.1682 -1.2395 -0.3145
   11CHL1   C23  799   6.542   0.711   5.606  0.3822  0.2259 -0.0348
   11CHL1  H23A  800   6.451   0.774   5.606  0.2797  0.1927 -2.6247
   11CHL1  H23B  801   6.620   0.789   5.609 -0.4226  1.0477  2.9559
   11CHL1   C24  802   6.531   0.640   5.475 -0.5362 -0.0324  0.4464
   11CHL1  H24A  803   6.611   0.567   5.451 -2.5999 -2.1914 -0.1419
   11CHL1  H24B  804   6.436   0.585   5.466 -0.0193 -0.6057 -2.3351
   11CHL1   C25  805   6.524   0.741   5.358 -0.7432 -0.5714  0.3276
   11CHL1   H25  806   6.474   0.835   5.390  0.7411  0.4546 -0.2917
   11CHL1   C26  807   6.669   0.766   5.306  0.3368 -0.1105 -0.1523
   11CHL1  H26A  808   6.726   0.792   5.398 -2.5771  1.3540  1.3689
   11CHL1  H26B  809   6.717   0.672   5.270  1.4428  0.1351  0.6587
   11CHL1  H26C  810   6.671   0.843   5.226  2.5698 -0.4060 -0.4372
   11CHL1   C27  811   6.452   0.679   5.238  0.5266 -0.0044 -0.4931
   11CHL1  H27A  812   6.508   0.589   5.203  1.6376  0.3572  0.2671
   11CHL1  H27B  813   6.347   0.666   5.270 -0.0572  2.4770 -1.2127
   11CHL1  H27C  814   6.456   0.740   5.146 -0.0660 -1.2163 -1.3489
   12CHL1    C3  815   1.161   1.067   6.573 -1.0831 -0.3239 -0.2702
   12CHL1    H3  816   1.246   1.135   6.556  0.0662 -0.7999  2.9531
   12CHL1    O3  817   1.137   1.090   6.710  0.3733 -0.4128  0.1581
   12CHL1   H3'  818   1.047   1.122   6.710 -0.8517 -3.4463 -1.4996
   12CHL1    C4  819   1.032   1.100   6.502 -0.2589  0.2274  0.0435
   12CHL1   H4A  820   0.951   1.032   6.534 -2.1037  2.2483 -0.0968
   12CHL1   H4B  821   0.980   1.193   6.534  0.0908  0.5437 -0.2910
   12CHL1    C5  822   1.048   1.091   6.353  0.3817  0.5065  0.2879
   12CHL1    C6  823   1.014   1.188   6.272 -0.4124  0.0527 -0.3785
   12CHL1    H6  824   0.969   1.276   6.322  0.2533  0.5219 -0.5911
   12CHL1    C7  825   1.027   1.200   6.120  0.0157  0.5051 -0.2147
   12CHL1   H7A  826   0.934   1.225   6.063 -0.1049 -1.6346 -1.0582
   12CHL1   H7B  827   1.107   1.271   6.092  0.9296 -0.4956 -0.1731
   12CHL1    C8  828   1.057   1.053   6.064  0.0052  1.0270 -0.5040
   12CHL1    H8  829   0.954   1.016   6.045 -0.5116  1.7738  0.7336
   12CHL1   C14  830   1.133   1.059   5.931  0.6637 -0.2599 -0.1351
   12CHL1   H14  831   1.234   1.101   5.950 -0.3015  1.3671  1.8525
   12CHL1   C15  832   1.070   1.153   5.820  0.1938  0.7091  0.5051
   12CHL1  H15A  833   0.960   1.137   5.813  0.0527  2.3308 -2.2515
   12CHL1  H15B  834   1.083   1.262   5.842 -1.7480  1.6883 -2.6026
   12CHL1   C16  835   1.139   1.116   5.689  0.3269  0.3395 -0.5714
   12CHL1  H16A  836   1.070   1.088   5.606  0.4876 -2.6305  0.1587
   12CHL1  H16B  837   1.200   1.202   5.656  1.1286  0.4269  1.0489
   12CHL1   C17  838   1.226   0.992   5.729  0.0070  0.3271  0.3690
   12CHL1   H17  839   1.324   1.030   5.766  1.1667 -2.7144  0.7660
   12CHL1   C13  840   1.155   0.926   5.851  0.2731  0.5046 -0.3464
   12CHL1   C18  841   1.020   0.867   5.819 -0.5017  0.0058  0.1669
   12CHL1  H18A  842   0.933   0.872   5.888 -1.4991  1.6132 -1.1141
   12CHL1  H18B  843   0.970   0.911   5.730  0.9895 -0.7831 -1.1174
   12CHL1  H18C  844   1.032   0.760   5.790 -0.5034  0.1388 -0.3461
   12CHL1   C12  845   1.241   0.833   5.939 -0.1957 -0.6592 -0.2411
   12CHL1  H12A  846   1.275   0.739   5.892 -0.9464 -0.6403 -0.8397
   12CHL1  H12B  847   1.339   0.884   5.944  1.0748 -3.0174  0.0328
   12CHL1   C11  848   1.177   0.823   6.082 -0.0443  0.3375 -0.0239
   12CHL1  H11A  849   1.077   0.777   6.072 -0.8975  1.7401  1.5535
   12CHL1  H11B  850   1.239   0.763   6.152 -0.2693 -0.3868 -0.4319
   12CHL1    C9  851   1.145   0.964   6.148  0.0826  0.3677 -0.3011
   12CHL1    H9  852   1.246   1.012   6.147  1.1770 -1.7564 -2.6838
   12CHL1   C10  853   1.098   0.960   6.295 -0.0916 -0.1107  0.5514
   12CHL1   C19  854   0.976   0.870   6.315  0.2754 -0.4843 -0.0352
   12CHL1  H19A  855   0.883   0.887   6.255 -1.2311 -0.7247  2.1316
   12CHL1  H19B  856   1.014   0.769   6.288  1.7704  0.4550 -1.7194
   12CHL1  H19C  857   0.944   0.865   6.421 -2.3992  0.0959 -0.7328
   12CHL1    C1  858   1.216   0.920   6.387 -0.1046  0.4222  0.3966
   12CHL1   H1A  859   1.256   0.823   6.352  1.4512  0.3922  2.1081
   12CHL1   H1B  860   1.293   0.996   6.363  1.2202 -1.3011 -1.0400
   12CHL1    C2  861   1.198   0.923   6.540 -0.1345 -0.8010  0.1204
   12CHL1   H2A  862   1.296   0.888   6.578 -0.5077 -1.2161  0.7150
   12CHL1   H2B  863   1.122   0.850   6.577 -0.4758  0.5877  2.3620
   12CHL1   C20  864   1.277   0.887   5.619 -0.0059  0.1000  0.6419
   12CHL1   H20  865   1.221   0.791   5.623  2.5575 -1.5432 -0.1612
   12CHL1   C21  866   1.422   0.849   5.652  0.0342  0.2168  0.2983
   12CHL1  H21A  867   1.447   0.855   5.760 -1.2960  0.4585  0.6116
   12CHL1  H21B  868   1.485   0.931   5.613  0.7443 -0.2693  0.4125
   12CHL1  H21C  869   1.449   0.752   5.605  0.1337  0.5561 -0.3641
   12CHL1   C22  870   1.258   0.941   5.475  0.6476  0.6360  0.3657
   12CHL1  H22A  871   1.152   0.971   5.460  0.3474 -1.0788 -1.2017
   12CHL1  H22B  872   1.313   1.036   5.457  0.3915  0.7433  0.1456
   12CHL1   C23  873   1.283   0.822   5.376  0.0674 -0.7450  0.0890
   12CHL1  H23A  874   1.383   0.775   5.385  0.9123  0.9432 -0.1722
   12CHL1  H23B  875   1.203   0.745   5.382  2.5271 -3.5853 -0.7862
   12CHL1   C24  876   1.270   0.871   5.233 -0.3945  0.0057  0.1665
   12CHL1  H24A  877   1.168   0.901   5.199 -1.1712 -2.8928 -0.3595
   12CHL1  H24B  878   1.332   0.964   5.230 -1.5979  0.8335  0.1729
   12CHL1   C25  879   1.326   0.770   5.131  0.0962  0.3699  0.5258
   12CHL1   H25  880   1.289   0.797   5.029  1.9352  0.6594 -0.0907
   12CHL1   C26  881   1.478   0.761   5.115 -0.0188  0.0753  0.2030
   12CHL1  H26A  882   1.534   0.728   5.205  0.7355 -2.4217 -1.0866
   12CHL1  H26B  883   1.499   0.689   5.033  4.1538  1.9189 -0.6088
   12CHL1  H26C  884   1.541   0.849   5.087  0.3677 -0.7926 -1.8530
   12CHL1   C27  885   1.266   0.637   5.163 -0.0108  1.0830 -0.3784
   12CHL1  H27A  886   1.319   0.603   5.254 -1.2789 -1.2039 -0.4116
   12CHL1  H27B  887   1.156   0.644   5.174 -0.0498 -0.6552  0.6647
   12CHL1  H27C  888   1.300   0.569   5.082 -0.7308 -0.4058  0.5314
   13CHL1    C3  889   0.341   6.377   6.401 -0.2039 -0.0106 -0.1372
   13CHL1    H3  890   0.388   6.281   6.373  0.3374  0.0908  0.4290
   13CHL1    O3  891   0.341   6.374   6.534 -0.0328  0.2167 -0.2964
   13CHL1   H3'  892   0.272   6.430   6.568 -0.1696  0.1475 -0.4553
   13CHL1    C4  893   0.424   6.497   6.351 -0.9282  0.5287  1.1122
   13CHL1   H4A  894   0.377   6.590   6.388  0.3754  0.9084  1.8836
   13CHL1   H4B  895   0.519   6.487   6.407 -0.9394  1.9323  1.4153
   13CHL1    C5  896   0.435   6.491   6.194  0.2791 -0.2194 -0.1162
   13CHL1    C6  897   0.552   6.478   6.131 -0.7387  0.3249  0.6849
   13CHL1    H6  898   0.650   6.465   6.179 -0.5639  0.7031  0.4377
   13CHL1    C7  899   0.567   6.495   5.979 -0.0320  0.0170  0.5761
   13CHL1   H7A  900   0.625   6.586   5.951  1.1221 -0.7924  0.2463
   13CHL1   H7B  901   0.618   6.409   5.931  0.1846  0.0467  0.7500
   13CHL1    C8  902   0.432   6.522   5.907 -0.2833 -0.1066  0.0767
   13CHL1    H8  903   0.402   6.628   5.906  0.1125  0.0058 -0.4006
   13CHL1   C14  904   0.445   6.482   5.758  0.2288 -0.5667  0.3627
   13CHL1   H14  905   0.458   6.372   5.765 -0.0375 -0.6543 -0.4273
   13CHL1   C15  906   0.555   6.547   5.675 -0.0960  0.5035 -0.9734
   13CHL1  H15A  907   0.559   6.655   5.700 -0.5841  0.1146  0.8829
   13CHL1  H15B  908   0.655   6.497   5.675 -1.2650 -2.0314  0.7564
   13CHL1   C16  909   0.498   6.536   5.533 -0.4510 -0.4033 -0.5299
   13CHL1  H16A  910   0.498   6.639   5.490 -1.2615 -0.6755 -1.2089
   13CHL1  H16B  911   0.562   6.474   5.466 -0.2198  0.3238 -0.9996
   13CHL1   C17  912   0.354   6.477   5.533 -0.6341 -0.6314  0.2485
   13CHL1   H17  913   0.376   6.369   5.518 -1.9775 -0.7199 -1.4001
   13CHL1   C13  914   0.307   6.505   5.687  0.2338  0.1486  0.3115
   13CHL1   C18  915   0.263   6.655   5.695  0.0293  0.6380  0.8634
   13CHL1  H18A  916   0.244   6.682   5.801  0.2827 -0.8379  1.2997
   13CHL1  H18B  917   0.345   6.716   5.651  0.3953 -1.5460 -1.7016
   13CHL1  H18C  918   0.168   6.674   5.641 -0.2406  3.2804  2.1001
   13CHL1   C12  919   0.207   6.401   5.735  0.3559  0.2992 -0.4392
   13CHL1  H12A  920   0.105   6.411   5.692  0.7655  0.1473 -1.4655
   13CHL1  H12B  921   0.246   6.299   5.712  1.4833  0.1727  1.8296
   13CHL1   C11  922   0.194   6.433   5.893  0.3020 -0.0653  0.6907
   13CHL1  H11A  923   0.132   6.525   5.887  1.1213  0.5291  1.0848
   13CHL1  H11B  924   0.129   6.353   5.935 -0.5640  1.2564  1.9688
   13CHL1    C9  925   0.318   6.442   5.974  0.1301  0.2241  0.0890
   13CHL1    H9  926   0.354   6.336   5.973 -0.1545  0.1285  0.0468
   13CHL1   C10  927   0.301   6.484   6.123 -0.1138 -0.2912  0.2046
   13CHL1   C19  928   0.237   6.621   6.123  0.3763 -0.1740  0.1285
   13CHL1  H19A  929   0.139   6.618   6.071  1.1096 -0.7948 -1.2682
   13CHL1  H19B  930   0.214   6.643   6.229 -0.4718  0.4504 -0.1735
   13CHL1  H19C  931   0.293   6.712   6.091 -3.7374  2.9169  0.8707
   13CHL1    C1  932   0.208   6.370   6.191  0.4279 -0.0242 -0.3210
   13CHL1   H1A  933   0.111   6.404   6.149  1.1074  2.8543  0.2108
   13CHL1   H1B  934   0.231   6.266   6.159 -2.8166 -0.3857 -1.8551
   13CHL1    C2  935   0.192   6.379   6.342 -0.1589  0.0067  0.0654
   13CHL1   H2A  936   0.128   6.297   6.381  0.3561 -0.1377  0.6127
   13CHL1   H2B  937   0.153   6.481   6.363  2.1227  1.0116 -0.2520
   13CHL1   C20  938   0.264   6.525   5.411  0.2993  0.0246  0.1959
   13CHL1   H20  939   0.206   6.609   5.455  0.0741  0.4903 -0.9547
   13CHL1   C21  940   0.171   6.405   5.378 -0.1648 -0.0670 -0.0173
   13CHL1  H21A  941   0.111   6.441   5.292  2.0493  0.6146 -1.3898
   13CHL1  H21B  942   0.103   6.387   5.463  2.4387  0.7443  2.3881
   13CHL1  H21C  943   0.234   6.323   5.338  0.0293  0.2251 -0.3152
   13CHL1   C22  944   0.335   6.583   5.289  0.2893  0.4081  0.2744
   13CHL1  H22A  945   0.374   6.686   5.303  0.5098  0.5825 -1.4293
   13CHL1  H22B  946   0.411   6.504   5.270 -0.9667 -0.8508  0.2950
   13CHL1   C23  947   0.248   6.591   5.157  0.5679 -0.1145 -0.2040
   13CHL1  H23A  948   0.224   6.490   5.116 -0.2011 -0.4045  0.9271
   13CHL1  H23B  949   0.146   6.626   5.184 -0.5092 -2.1238 -1.4638
   13CHL1   C24  950   0.324   6.672   5.053 -0.2526 -0.5484 -0.2469
   13CHL1  H24A  951   0.308   6.771   5.100 -1.1545  0.3830 -2.3764
   13CHL1  H24B  952   0.430   6.642   5.047  0.7350  2.6826 -0.6060
   13CHL1   C25  953   0.253   6.670   4.916 -0.2395 -0.4155  0.6283
   13CHL1   H25  954   0.144   6.688   4.933 -0.4898  0.4474 -1.5653
   13CHL1   C26  955   0.305   6.778   4.817 -0.7090  0.0164  0.3313
   13CHL1  H26A  956   0.239   6.773   4.728 -0.2905 -1.0780  0.0589
   13CHL1  H26B  957   0.299   6.879   4.864 -0.0458 -0.5056  1.5946
   13CHL1  H26C  958   0.411   6.762   4.789 -0.4046  0.8737  0.9563
   13CHL1   C27  959   0.269   6.535   4.843  0.5710 -0.3654 -0.1051
   13CHL1  H27A  960   0.256   6.447   4.909  1.5933 -0.2230  0.3102
   13CHL1  H27B  961   0.198   6.529   4.758 -0.9324  0.1649  1.0640
   13CHL1  H27C  962   0.374   6.530   4.807  1.9746 -0.4553  3.5827
   14CHL1    C3  963   1.235   2.255   6.627 -0.2528 -0.6376 -0.4088
   14CHL1    H3  964   1.339   2.273   6.592 -0.2112 -0.1862 -0.0606
   14CHL1    O3  965   1.220   2.279   6.766 -0.3818 -0.0377 -0.4678
   14CHL1   H3'  966   1.147   2.224   6.794  0.1928 -0.3607  0.4327
   14CHL1    C4  967   1.144   2.338   6.542  0.8834 -0.4181 -0.7728
   14CHL1   H4A  968   1.041   2.301   6.562  1.2798  0.0797  2.8487
   14CHL1   H4B  969   1.134   2.441   6.582  0.2780 -0.3755 -1.0254
   14CHL1    C5  970   1.163   2.330   6.396 -0.5194  0.4257 -0.6820
   14CHL1    C6  971   1.198   2.435   6.329  0.0176 -0.2129  0.0429
   14CHL1    H6  972   1.204   2.536   6.372  1.5552 -0.0682 -0.4389
   14CHL1    C7  973   1.218   2.425   6.177  0.4814  0.8646 -0.3852
   14CHL1   H7A  974   1.165   2.505   6.121  0.1768  2.5291  2.1348
   14CHL1   H7B  975   1.326   2.430   6.152  0.3665  0.2289 -1.0437
   14CHL1    C8  976   1.159   2.295   6.109 -0.1294 -0.3341 -0.3023
   14CHL1    H8  977   1.048   2.308   6.107 -0.0281  0.5204 -2.4710
   14CHL1   C14  978   1.203   2.279   5.966 -0.7952 -0.0475  0.1191
   14CHL1   H14  979   1.313   2.264   5.972 -0.7869  0.3197  0.9383
   14CHL1   C15  980   1.180   2.403   5.871  0.1353  0.3678  0.0913
   14CHL1  H15A  981   1.076   2.434   5.894 -0.2316  0.2342 -1.2794
   14CHL1  H15B  982   1.256   2.483   5.882  0.1542  0.0913  2.6858
   14CHL1   C16  983   1.185   2.342   5.732 -1.3570  0.5309 -0.4407
   14CHL1  H16A  984   1.094   2.334   5.669 -0.4352 -2.9003 -1.5520
   14CHL1  H16B  985   1.260   2.394   5.668 -0.2878  0.2230  0.5271
   14CHL1   C17  986   1.224   2.186   5.751  0.0330 -0.1028  0.4183
   14CHL1   H17  987   1.333   2.189   5.770 -0.1014  0.0477  1.2138
   14CHL1   C13  988   1.157   2.154   5.890  0.1199 -0.2447 -0.0980
   14CHL1   C18  989   1.002   2.153   5.867 -0.5738 -0.8008 -0.5035
   14CHL1  H18A  990   0.975   2.082   5.786 -2.5306  0.4442 -1.0278
   14CHL1  H18B  991   0.953   2.123   5.962  0.5762  0.0274  0.3722
   14CHL1  H18C  992   0.973   2.257   5.843  0.2021 -0.3928  0.2619
   14CHL1   C12  993   1.209   2.031   5.978 -0.1887 -0.5426  0.5803
   14CHL1  H12A  994   1.182   1.938   5.924  2.3979 -2.4578  2.3268
   14CHL1  H12B  995   1.319   2.047   5.976 -0.2357 -0.2692 -0.3283
   14CHL1   C11  996   1.156   2.038   6.122 -0.0237  0.4877 -0.7089
   14CHL1  H11A  997   1.046   2.027   6.115 -0.0297 -0.3374  0.4311
   14CHL1  H11B  998   1.204   1.953   6.174 -1.4535  0.1747  0.1504
   14CHL1    C9  999   1.194   2.173   6.193 -0.0062  0.4778 -0.5734
   14CHL1    H9 1000   1.305   2.171   6.200 -0.1293 -0.7845  2.4863
   14CHL1   C10 1001   1.151   2.183   6.344 -0.0649 -0.3691  0.0792
   14CHL1   C19 1002   1.012   2.127   6.340  0.9796  0.6936  0.3189
   14CHL1  H19A 1003   0.958   2.141   6.436  3.6192  0.1320  2.0028
   14CHL1  H19B 1004   0.955   2.176   6.258  1.1041 -0.6566 -0.6162
   14CHL1  H19C 1005   1.006   2.017   6.321 -0.3063  0.9319 -0.8204
   14CHL1    C1 1006   1.236   2.084   6.433 -0.0975 -0.0955 -0.1638
   14CHL1   H1A 1007   1.188   1.986   6.410  1.2124 -1.0600  1.0308
   14CHL1   H1B 1008   1.344   2.086   6.408 -0.3084 -0.0913 -1.0967
   14CHL1    C2 1009   1.218   2.103   6.592  0.2587 -0.0408  0.3164
   14CHL1   H2A 1010   1.288   2.052   6.661  1.4701  0.0218 -0.8343
   14CHL1   H2B 1011   1.113   2.079   6.620 -0.2560  0.4723 -1.0781
   14CHL1   C20 1012   1.201   2.102   5.626  0.2115  0.2565 -0.3526
   14CHL1   H20 1013   1.092   2.100   5.604  0.3963 -1.2826 -1.2738
   14CHL1   C21 1014   1.234   1.951   5.647  0.0562  0.9266  0.4069
   14CHL1  H21A 1015   1.172   1.904   5.726 -0.6596  0.8673 -0.1743
   14CHL1  H21B 1016   1.342   1.932   5.664  0.1539  0.4808 -0.5992
   14CHL1  H21C 1017   1.211   1.897   5.552 -3.7505 -1.0778  2.2529
   14CHL1   C22 1018   1.271   2.159   5.497 -0.2001 -1.1001 -0.3963
   14CHL1  H22A 1019   1.244   2.266   5.479  0.4367 -1.1809 -2.0097
   14CHL1  H22B 1020   1.379   2.156   5.523  0.2695 -3.4713 -2.2516
   14CHL1   C23 1021   1.251   2.076   5.371  0.1918 -0.0625 -0.4812
   14CHL1  H23A 1022   1.270   1.966   5.371  0.6080 -0.0194 -2.5103
   14CHL1  H23B 1023   1.149   2.095   5.331 -0.6553 -2.3843  0.3872
   14CHL1   C24 1024   1.340   2.125   5.264  0.1539 -0.4352 -0.2853
   14CHL1  H24A 1025   1.314   2.228   5.234  3.6628  0.7905  0.3243
   14CHL1  H24B 1026   1.443   2.122   5.307 -0.4123 -1.2762  1.0582
   14CHL1   C25 1027   1.345   2.036   5.136 -0.3797  1.0892  0.1911
   14CHL1   H25 1028   1.371   1.932   5.162 -1.2198  0.9625  0.5603
   14CHL1   C26 1029   1.218   2.048   5.061 -0.6156 -1.0611  0.0609
   14CHL1  H26A 1030   1.138   2.018   5.132 -0.0526 -0.5845  0.9079
   14CHL1  H26B 1031   1.197   2.154   5.037  0.2726 -1.1261 -1.0810
   14CHL1  H26C 1032   1.215   1.985   4.969  1.1243 -0.1179 -0.6949
   14CHL1   C27 1033   1.467   2.087   5.044  0.1329  1.1397 -0.3406
   14CHL1  H27A 1034   1.555   2.069   5.109  0.2833  0.2404 -0.7706
   14CHL1  H27B 1035   1.465   2.015   4.959 -1.2415  0.6735  0.0487
   14CHL1  H27C 1036   1.467   2.195   5.021 -0.2217  1.2176  0.0212
   15CHL1    C3 1037   2.161   3.233   6.445  0.0852 -0.6999  0.2013
   15CHL1    H3 1038   2.102   3.315   6.398 -0.6310 -0.8032  0.9034
   15CHL1    O3 1039   2.110   3.199   6.575  0.1785 -1.0933 -0.0017
   15CHL1   H3' 1040   2.170   3.128   6.599 -0.1218 -1.1830  0.4978
   15CHL1    C4 1041   2.160   3.111   6.349 -0.1233 -0.3159  0.6552
   15CHL1   H4A 1042   2.217   3.030   6.398  0.3304 -0.5124 -0.1782
   15CHL1   H4B 1043   2.058   3.069   6.341 -0.4349  0.3937  0.8270
   15CHL1    C5 1044   2.212   3.148   6.207 -0.0448 -0.3719  0.4175
   15CHL1    C6 1045   2.134   3.131   6.101 -0.0412  0.2851 -0.2105
   15CHL1    H6 1046   2.032   3.091   6.107  0.6883 -1.9136 -1.3764
   15CHL1    C7 1047   2.174   3.173   5.963  0.3098  0.6713  0.4832
   15CHL1   H7A 1048   2.136   3.109   5.880  1.4788  1.6444 -0.8340
   15CHL1   H7B 1049   2.140   3.277   5.945 -4.0908 -0.4298  1.1246
   15CHL1    C8 1050   2.331   3.187   5.947 -0.0296  0.8390  0.4763
   15CHL1    H8 1051   2.371   3.083   5.948 -1.6870  0.1118 -1.6560
   15CHL1   C14 1052   2.368   3.260   5.820 -1.0987  0.2562  0.3443
   15CHL1   H14 1053   2.325   3.363   5.823 -0.6548  0.4628 -0.2333
   15CHL1   C15 1054   2.314   3.207   5.690 -0.8459 -0.0998 -0.0481
   15CHL1  H15A 1055   2.323   3.096   5.681  0.4292  0.0471 -0.7157
   15CHL1  H15B 1056   2.208   3.241   5.685 -0.5061  0.8996 -0.5925
   15CHL1   C16 1057   2.401   3.265   5.584 -0.4707  0.1061  0.8542
   15CHL1  H16A 1058   2.436   3.180   5.522  0.3255  0.2540  1.0915
   15CHL1  H16B 1059   2.343   3.335   5.520 -0.5049  0.5546  1.3630
   15CHL1   C17 1060   2.520   3.339   5.657  0.2474 -0.2153  0.2037
   15CHL1   H17 1061   2.476   3.441   5.669  0.6193 -0.0665  0.3210
   15CHL1   C13 1062   2.518   3.279   5.794  0.5261  0.3104  0.6353
   15CHL1   C18 1063   2.585   3.132   5.795 -0.5454  0.4790 -0.7739
   15CHL1  H18A 1064   2.589   3.089   5.897 -2.3495  3.1165  0.5239
   15CHL1  H18B 1065   2.546   3.059   5.720 -0.7788 -0.5259  0.3038
   15CHL1  H18C 1066   2.693   3.148   5.773 -0.5645  0.9744 -0.5056
   15CHL1   C12 1067   2.571   3.370   5.912  0.1090 -0.1552  0.1100
   15CHL1  H12A 1068   2.681   3.382   5.903  0.1616 -0.4723  0.3022
   15CHL1  H12B 1069   2.520   3.465   5.886  0.6509  0.0887 -0.0787
   15CHL1   C11 1070   2.536   3.314   6.052 -0.2728  0.3039  0.3198
   15CHL1  H11A 1071   2.598   3.223   6.066 -3.5064 -2.0628  0.3907
   15CHL1  H11B 1072   2.581   3.386   6.123  1.7938  1.4728 -1.9929
   15CHL1    C9 1073   2.391   3.267   6.068  0.6270  0.4133  0.1028
   15CHL1    H9 1074   2.333   3.362   6.059 -1.9434 -0.9261  1.3870
   15CHL1   C10 1075   2.362   3.206   6.211  0.5861 -0.4257  0.0385
   15CHL1   C19 1076   2.467   3.098   6.243  0.3852 -0.6014  0.5912
   15CHL1  H19A 1077   2.431   3.009   6.298  0.7853 -2.0530 -1.3694
   15CHL1  H19B 1078   2.504   3.063   6.144  1.3052 -0.2430  0.7934
   15CHL1  H19C 1079   2.555   3.141   6.295 -0.1606  0.6493  0.5142
   15CHL1    C1 1080   2.366   3.317   6.320 -0.6202 -0.1885  0.1988
   15CHL1   H1A 1081   2.468   3.356   6.342 -1.0738  1.0154  0.2537
   15CHL1   H1B 1082   2.319   3.407   6.275 -0.1769 -1.1886 -2.4546
   15CHL1    C2 1083   2.307   3.279   6.459 -0.2247 -0.0444 -0.4583
   15CHL1   H2A 1084   2.313   3.355   6.540 -1.9463 -1.3096  0.9623
   15CHL1   H2B 1085   2.369   3.195   6.497 -0.6269  0.5169  1.5846
   15CHL1   C20 1086   2.648   3.354   5.567  0.4573 -0.1554 -0.4312
   15CHL1   H20 1087   2.689   3.252   5.550 -1.2362 -1.3312  1.9520
   15CHL1   C21 1088   2.763   3.428   5.638 -0.5688 -0.3177 -0.5239
   15CHL1  H21A 1089   2.849   3.445   5.569  0.9154  2.2694  1.7507
   15CHL1  H21B 1090   2.805   3.376   5.727  0.4158 -0.0403 -0.8136
   15CHL1  H21C 1091   2.724   3.529   5.665  0.4925 -0.0241 -0.0043
   15CHL1   C22 1092   2.625   3.405   5.420 -0.1532 -0.5306  0.3304
   15CHL1  H22A 1093   2.533   3.358   5.379 -1.8861  0.7499  2.5100
   15CHL1  H22B 1094   2.618   3.516   5.427 -0.1673 -0.5247  0.2333
   15CHL1   C23 1095   2.746   3.363   5.318  0.6923 -0.0588 -0.0877
   15CHL1  H23A 1096   2.723   3.413   5.222 -1.0290  1.3693  1.0238
   15CHL1  H23B 1097   2.842   3.398   5.362  0.9315  0.8052 -1.2554
   15CHL1   C24 1098   2.754   3.212   5.282  0.2732  0.3043 -0.0108
   15CHL1  H24A 1099   2.804   3.161   5.367 -0.5395  1.6831  1.3474
   15CHL1  H24B 1100   2.651   3.174   5.262 -0.1523  2.1451 -1.6204
   15CHL1   C25 1101   2.833   3.170   5.152 -0.0588  0.0423  0.5712
   15CHL1   H25 1102   2.770   3.220   5.076  0.9501  0.0734 -0.2666
   15CHL1   C26 1103   2.975   3.233   5.159 -0.4976 -0.5024 -0.0740
   15CHL1  H26A 1104   3.011   3.192   5.255 -1.0114 -0.9655 -0.0756
   15CHL1  H26B 1105   3.046   3.198   5.081 -1.0317  0.9854 -1.2869
   15CHL1  H26C 1106   2.985   3.343   5.166  0.6698 -0.5887 -0.2146
   15CHL1   C27 1107   2.828   3.016   5.125 -0.4195 -0.1227  0.3987
   15CHL1  H27A 1108   2.860   2.961   5.216  1.5553 -0.7030 -0.5831
   15CHL1  H27B 1109   2.720   2.993   5.110 -0.2663 -0.7776  0.2515
   15CHL1  H27C 1110   2.889   2.992   5.035 -2.2174 -1.3940 -0.5582
   16CHL1    C3 1111   4.379   1.135   6.180 -0.2436  0.0929  0.0340
   16CHL1    H3 1112   4.342   1.233   6.144 -1.1132 -0.7907 -1.5715
   16CHL1    O3 1113   4.326   1.115   6.310 -0.4225  0.2144 -0.3816
   16CHL1   H3' 1114   4.367   1.031   6.329  0.4847  0.6814 -0.2222
   16CHL1    C4 1115   4.328   1.032   6.076 -0.0924 -0.3715  0.8181
   16CHL1   H4A 1116   4.350   0.931   6.115 -0.3583 -0.8358 -0.1950
   16CHL1   H4B 1117   4.218   1.045   6.082 -0.2265 -1.0789  0.0182
   16CHL1    C5 1118   4.386   1.054   5.939  0.3800 -0.3563 -0.6576
   16CHL1    C6 1119   4.301   1.071   5.833 -0.2785 -0.0922 -0.6481
   16CHL1    H6 1120   4.193   1.072   5.850 -0.1938 -0.5600 -0.0699
   16CHL1    C7 1121   4.347   1.098   5.687  0.0018  0.7828  0.1921
   16CHL1   H7A 1122   4.291   1.033   5.617 -2.0816 -0.1106  2.5340
   16CHL1   H7B 1123   4.319   1.201   5.655  2.1418  1.9061  1.6840
   16CHL1    C8 1124   4.489   1.074   5.669 -0.0433 -0.0054 -0.7168
   16CHL1    H8 1125   4.505   0.964   5.663  0.0486 -0.0667  0.4856
   16CHL1   C14 1126   4.543   1.126   5.536  0.6008 -0.2798  0.1494
   16CHL1   H14 1127   4.516   1.234   5.532  0.4465 -0.3476 -1.0281
   16CHL1   C15 1128   4.460   1.091   5.410 -0.3340 -0.3154 -0.7165
   16CHL1  H15A 1129   4.451   0.982   5.394 -0.5951 -0.1717 -1.6068
   16CHL1  H15B 1130   4.362   1.143   5.408  0.0983  0.7925  2.4346
   16CHL1   C16 1131   4.549   1.150   5.296 -0.2132  0.8770  0.8188
   16CHL1  H16A 1132   4.557   1.078   5.212  0.1501  0.2792  1.3501
   16CHL1  H16B 1133   4.533   1.257   5.270 -0.6882  0.6241  0.0535
   16CHL1   C17 1134   4.697   1.166   5.356  0.1244  0.6237 -0.0813
   16CHL1   H17 1135   4.714   1.273   5.380  0.4053  0.5028  0.2807
   16CHL1   C13 1136   4.685   1.102   5.504  0.6655  0.5280  0.7476
   16CHL1   C18 1137   4.726   0.953   5.489  0.1627  0.0583 -0.3064
   16CHL1  H18A 1138   4.674   0.909   5.401 -0.8627  1.0951 -0.2442
   16CHL1  H18B 1139   4.835   0.932   5.491 -0.2066 -1.9466  1.5785
   16CHL1  H18C 1140   4.701   0.898   5.582 -2.5570  1.6510  0.0348
   16CHL1   C12 1141   4.762   1.171   5.616  1.0240  0.7206 -0.1031
   16CHL1  H12A 1142   4.871   1.173   5.594  1.1446 -0.5754  0.2946
   16CHL1  H12B 1143   4.730   1.277   5.611  0.9904  0.6508 -2.8454
   16CHL1   C11 1144   4.725   1.113   5.759 -1.1803  0.4116  0.2512
   16CHL1  H11A 1145   4.767   1.010   5.757  0.9514  1.2397  0.4628
   16CHL1  H11B 1146   4.782   1.166   5.837  1.9328 -0.5094 -1.2360
   16CHL1    C9 1147   4.578   1.121   5.788 -0.2064 -0.2969  0.3672
   16CHL1    H9 1148   4.556   1.230   5.799 -1.3584 -0.5730  0.9628
   16CHL1   C10 1149   4.537   1.061   5.924 -0.3126 -0.4353 -0.2651
   16CHL1   C19 1150   4.593   0.918   5.940 -0.2435 -0.1706 -0.0069
   16CHL1  H19A 1151   4.704   0.925   5.934 -0.0300 -2.5844  0.3747
   16CHL1  H19B 1152   4.569   0.881   6.041 -3.6224  0.6592 -0.3909
   16CHL1  H19C 1153   4.553   0.851   5.861  1.1974  0.7244 -1.5710
   16CHL1    C1 1154   4.603   1.152   6.045  0.0040  0.3026 -0.3959
   16CHL1   H1A 1155   4.713   1.139   6.057  0.3713  3.1006  0.0777
   16CHL1   H1B 1156   4.572   1.256   6.020 -0.3876  0.1758 -0.4430
   16CHL1    C2 1157   4.531   1.135   6.185 -0.4099  0.6476  0.5355
   16CHL1   H2A 1158   4.576   1.217   6.244 -0.7744  0.1100  1.5738
   16CHL1   H2B 1159   4.571   1.044   6.234 -2.3825 -0.4317  0.2303
   16CHL1   C20 1160   4.815   1.134   5.263 -0.0987 -0.0827 -0.0676
   16CHL1   H20 1161   4.801   1.027   5.238 -2.2380  0.0609  0.2973
   16CHL1   C21 1162   4.954   1.154   5.340  0.0848  0.0586  0.5598
   16CHL1  H21A 1163   4.979   1.073   5.412 -0.4294 -0.5099  0.1132
   16CHL1  H21B 1164   4.949   1.253   5.391  0.3117 -0.1803  1.0508
   16CHL1  H21C 1165   5.033   1.156   5.262  0.7851  1.9338  1.2600
   16CHL1   C22 1166   4.807   1.229   5.140 -0.3578 -0.2548  0.0153
   16CHL1  H22A 1167   4.704   1.264   5.120  0.6646  2.8980 -0.2278
   16CHL1  H22B 1168   4.853   1.329   5.151 -0.5141  0.0745 -2.0649
   16CHL1   C23 1169   4.860   1.154   5.021 -0.2227  0.2397 -0.1572
   16CHL1  H23A 1170   4.965   1.134   5.049 -0.5011 -0.6313  0.3087
   16CHL1  H23B 1171   4.799   1.061   5.012  0.5990 -0.4069  0.7880
   16CHL1   C24 1172   4.858   1.231   4.892 -0.5790 -0.6637  0.2519
   16CHL1  H24A 1173   4.751   1.249   4.868 -0.9030  0.6048  2.4596
   16CHL1  H24B 1174   4.898   1.333   4.907 -1.3193 -0.4162  0.5671
   16CHL1   C25 1175   4.922   1.165   4.768 -0.0438  0.4532 -0.0432
   16CHL1   H25 1176   5.030   1.163   4.789  0.4160 -1.5553 -2.1826
   16CHL1   C26 1177   4.881   1.017   4.741  0.3741  0.6822 -0.6434
   16CHL1  H26A 1178   4.874   0.959   4.836  1.4574  2.0403  0.3062
   16CHL1  H26B 1179   4.787   1.017   4.682 -0.0079 -0.2364 -0.0636
   16CHL1  H26C 1180   4.957   0.967   4.677 -0.8782  2.7665 -3.9707
   16CHL1   C27 1181   4.906   1.251   4.639  0.1394 -0.2729 -0.5515
   16CHL1  H27A 1182   4.798   1.268   4.615  0.0462 -0.5186 -0.3133
   16CHL1  H27B 1183   4.953   1.351   4.648  0.9147 -0.4209 -2.5096
   16CHL1  H27C 1184   4.961   1.197   4.560 -1.4369 -0.6332 -1.4554
   17CHL1    C3 1185   0.614   2.900   6.770  0.9033  0.1404 -0.1330
   17CHL1    H3 1186   0.505   2.889   6.752  1.1697  0.5567 -2.1950
   17CHL1    O3 1187   0.641   2.948   6.902  0.5012  0.1855  0.0610
   17CHL1   H3' 1188   0.584   2.896   6.959 -2.0536  1.7577 -0.9018
   17CHL1    C4 1189   0.681   2.765   6.754  0.0631  0.9422 -0.3170
   17CHL1   H4A 1190   0.788   2.781   6.776  0.1260  3.0880 -1.8752
   17CHL1   H4B 1191   0.634   2.701   6.831 -2.2905  0.8753 -1.6984
   17CHL1    C5 1192   0.676   2.704   6.614  0.4011 -0.5370 -0.3198
   17CHL1    C6 1193   0.622   2.583   6.590  0.7807  0.2231  0.4563
   17CHL1    H6 1194   0.571   2.530   6.671 -0.2294 -0.8642 -0.8584
   17CHL1    C7 1195   0.622   2.521   6.452 -0.2916  0.1446 -0.3013
   17CHL1   H7A 1196   0.662   2.418   6.450  1.7325  0.8903 -2.2319
   17CHL1   H7B 1197   0.514   2.513   6.427 -0.7312 -0.0567  1.4811
   17CHL1    C8 1198   0.702   2.598   6.346 -0.3760 -0.1743 -0.5974
   17CHL1    H8 1199   0.810   2.581   6.366  0.1793  1.7233 -1.6582
   17CHL1   C14 1200   0.665   2.555   6.200 -0.8869  0.1938 -0.3636
   17CHL1   H14 1201   0.562   2.594   6.187 -0.0265  1.8532 -2.8703
   17CHL1   C15 1202   0.665   2.403   6.161  0.2917  0.0710 -0.6133
   17CHL1  H15A 1203   0.757   2.357   6.204  0.2405  0.4042 -0.1454
   17CHL1  H15B 1204   0.575   2.349   6.198  1.1517 -0.7103  0.4064
   17CHL1   C16 1205   0.672   2.400   6.015  0.0292 -0.1328  0.9665
   17CHL1  H16A 1206   0.765   2.354   5.976  0.5288  0.9074  0.9259
   17CHL1  H16B 1207   0.579   2.364   5.965  2.1231 -1.0875 -2.6220
   17CHL1   C17 1208   0.695   2.552   5.967  0.6230  0.4991 -0.2024
   17CHL1   H17 1209   0.602   2.601   5.932  2.4420  3.6088 -1.0844
   17CHL1   C13 1210   0.745   2.629   6.091  0.5231 -0.0463  0.2578
   17CHL1   C18 1211   0.900   2.608   6.106  0.5450  0.8149  0.2498
   17CHL1  H18A 1212   0.956   2.666   6.030 -1.2434  1.5353 -0.5909
   17CHL1  H18B 1213   0.941   2.640   6.204  1.0492  0.1536  0.2619
   17CHL1  H18C 1214   0.923   2.503   6.080  2.3089  1.5704 -1.4743
   17CHL1   C12 1215   0.712   2.780   6.113 -0.1829 -0.0403 -0.9266
   17CHL1  H12A 1216   0.767   2.843   6.039 -1.3211  1.6451 -0.4084
   17CHL1  H12B 1217   0.603   2.787   6.091 -0.1613 -1.3843 -1.5368
   17CHL1   C11 1218   0.747   2.835   6.258  0.4976 -0.0312  0.0060
   17CHL1  H11A 1219   0.857   2.852   6.258  0.2254  1.9200 -1.0185
   17CHL1  H11B 1220   0.683   2.925   6.263 -2.0950 -1.6525 -1.3724
   17CHL1    C9 1221   0.685   2.744   6.368  0.6148 -0.6611 -0.0613
   17CHL1    H9 1222   0.576   2.766   6.363  0.7164  0.5556  2.0420
   17CHL1   C10 1223   0.726   2.796   6.512 -0.2723  0.2555  0.3909
   17CHL1   C19 1224   0.885   2.803   6.512  0.2201  0.4084 -0.7280
   17CHL1  H19A 1225   0.924   2.822   6.615 -1.2978 -2.0253  0.3867
   17CHL1  H19B 1226   0.927   2.708   6.475 -0.9140 -0.0587 -0.8632
   17CHL1  H19C 1227   0.918   2.886   6.446  1.2652 -0.0299 -0.7651
   17CHL1    C1 1228   0.658   2.937   6.527 -0.6308 -0.3478 -0.5677
   17CHL1   H1A 1229   0.699   3.003   6.448 -2.2909 -0.0818 -1.2545
   17CHL1   H1B 1230   0.550   2.936   6.498 -0.4386  2.0909 -1.5957
   17CHL1    C2 1231   0.664   2.997   6.668 -0.2139 -0.0634  0.1117
   17CHL1   H2A 1232   0.613   3.096   6.667  0.2898  0.2019 -0.7475
   17CHL1   H2B 1233   0.770   3.016   6.697 -0.5435 -0.6497  1.7813
   17CHL1   C20 1234   0.780   2.563   5.834 -0.0804  0.7262  0.8050
   17CHL1   H20 1235   0.885   2.528   5.847 -0.4112 -0.4660  0.4248
   17CHL1   C21 1236   0.788   2.712   5.803 -0.3767  0.8799 -0.3060
   17CHL1  H21A 1237   0.694   2.770   5.800  0.7573  3.0199  1.9317
   17CHL1  H21B 1238   0.842   2.734   5.709  1.2916 -0.0269  0.3753
   17CHL1  H21C 1239   0.859   2.760   5.874 -0.6340  1.1177 -0.2095
   17CHL1   C22 1240   0.710   2.481   5.714  0.1498 -0.2715 -0.7932
   17CHL1  H22A 1241   0.703   2.373   5.741 -2.1153  0.4162  1.8444
   17CHL1  H22B 1242   0.604   2.513   5.703 -0.6291 -2.5309 -0.5436
   17CHL1   C23 1243   0.784   2.488   5.580  0.0097 -0.1763 -1.1214
   17CHL1  H23A 1244   0.795   2.589   5.535 -1.1994  1.6978  2.3789
   17CHL1  H23B 1245   0.884   2.450   5.612 -1.7171 -2.9701  1.5327
   17CHL1   C24 1246   0.730   2.387   5.469  0.4028 -0.2819 -0.6649
   17CHL1  H24A 1247   0.717   2.289   5.518 -2.4985 -0.0123 -0.7391
   17CHL1  H24B 1248   0.633   2.434   5.442  1.2175  1.5611 -0.5305
   17CHL1   C25 1249   0.808   2.369   5.334  0.2221  0.6415  0.0434
   17CHL1   H25 1250   0.804   2.466   5.280  1.2789  0.2292 -0.8207
   17CHL1   C26 1251   0.952   2.319   5.363  0.2096  0.2041  0.1451
   17CHL1  H26A 1252   0.953   2.235   5.436  1.3022  0.3652  0.3274
   17CHL1  H26B 1253   1.002   2.291   5.268  2.9485  2.9689  0.6211
   17CHL1  H26C 1254   1.003   2.406   5.410  0.0155 -0.6601  2.0595
   17CHL1   C27 1255   0.731   2.265   5.246 -0.5798 -0.2162 -0.5956
   17CHL1  H27A 1256   0.623   2.293   5.240 -0.4392  0.9560  1.2792
   17CHL1  H27B 1257   0.771   2.249   5.144 -0.2166  1.5257 -0.7669
   17CHL1  H27C 1258   0.733   2.167   5.299  0.7177  0.1212  0.0145
   18CHL1    C3 1259   6.639   5.908   6.573  0.1363  0.2528  0.5736
   18CHL1    H3 1260   6.531   5.884   6.569  0.5349 -1.7609  0.8442
   18CHL1    O3 1261   6.700   5.880   6.701  0.3877 -0.4351  0.1638
   18CHL1   H3' 1262   6.672   5.958   6.750  0.8209  1.3399 -2.2615
   18CHL1    C4 1263   6.709   5.829   6.467 -0.5864 -0.0945 -0.9790
   18CHL1   H4A 1264   6.818   5.849   6.482 -0.9815  1.1508  0.5184
   18CHL1   H4B 1265   6.689   5.724   6.496  1.2361 -0.0408  0.7126
   18CHL1    C5 1266   6.657   5.853   6.325  0.1021 -0.1843 -0.0898
   18CHL1    C6 1267   6.606   5.751   6.252 -0.1717 -0.8960 -0.3713
   18CHL1    H6 1268   6.617   5.651   6.296 -0.1848  0.0353  1.8850
   18CHL1    C7 1269   6.577   5.765   6.106  0.5588 -0.1336 -0.1156
   18CHL1   H7A 1270   6.610   5.672   6.056 -1.6070 -0.8769 -0.2772
   18CHL1   H7B 1271   6.466   5.762   6.105  0.5430 -3.4838  0.7706
   18CHL1    C8 1272   6.637   5.899   6.047 -0.1642 -0.8661  0.2882
   18CHL1    H8 1273   6.746   5.888   6.031 -0.0358  1.3916 -0.8095
   18CHL1   C14 1274   6.571   5.933   5.920  0.1939  0.6557  0.5092
   18CHL1   H14 1275   6.462   5.950   5.937 -0.3300 -0.7664 -1.1197
   18CHL1   C15 1276   6.560   5.810   5.827  0.9319 -0.7654 -0.3498
   18CHL1  H15A 1277   6.662   5.766   5.826  1.7482  1.0437 -0.1862
   18CHL1  H15B 1278   6.485   5.738   5.867 -1.8857  1.8999 -0.4397
   18CHL1   C16 1279   6.520   5.878   5.697 -0.1257  0.6166  0.0430
   18CHL1  H16A 1280   6.604   5.854   5.628  1.2641 -0.2227  1.9458
   18CHL1  H16B 1281   6.428   5.852   5.641 -0.5020  3.0878 -0.5865
   18CHL1   C17 1282   6.528   6.034   5.712  0.4147 -0.1586 -0.3014
   18CHL1   H17 1283   6.425   6.067   5.734 -0.4477  0.8784 -4.8172
   18CHL1   C13 1284   6.619   6.050   5.843  0.3816  0.4839 -0.1469
   18CHL1   C18 1285   6.769   6.036   5.803 -0.1728  0.3907  0.0518
   18CHL1  H18A 1286   6.793   6.116   5.729 -1.5474  1.3165  0.5735
   18CHL1  H18B 1287   6.826   6.059   5.895 -0.8053 -2.7711  1.3505
   18CHL1  H18C 1288   6.812   5.935   5.786 -1.4213  0.1039 -1.6478
   18CHL1   C12 1289   6.594   6.172   5.939  0.3408  0.2452  0.2409
   18CHL1  H12A 1290   6.637   6.265   5.895  0.5422 -0.0336 -0.1696
   18CHL1  H12B 1291   6.484   6.184   5.941  0.0354 -2.2161  1.5846
   18CHL1   C11 1292   6.651   6.160   6.079 -0.1682  0.0582  0.8042
   18CHL1  H11A 1293   6.762   6.163   6.069  0.1753  0.1143  3.7283
   18CHL1  H11B 1294   6.607   6.237   6.146  1.6356  1.7259  0.1431
   18CHL1    C9 1295   6.617   6.018   6.147 -0.4274  0.3837  0.6472
   18CHL1    H9 1296   6.507   6.014   6.164 -0.3733 -0.7566  0.7642
   18CHL1   C10 1297   6.679   6.001   6.281 -0.2686 -1.0385 -1.0686
   18CHL1   C19 1298   6.829   6.034   6.272  0.4343 -0.4204 -0.5368
   18CHL1  H19A 1299   6.880   5.995   6.181  1.9118 -1.0712  0.5326
   18CHL1  H19B 1300   6.834   6.145   6.264  0.3353 -0.3925 -0.2291
   18CHL1  H19C 1301   6.889   6.013   6.363  2.3577  0.5652 -1.5062
   18CHL1    C1 1302   6.615   6.089   6.396  0.4995 -0.3087  0.6370
   18CHL1   H1A 1303   6.644   6.196   6.383 -0.4917  0.1764  2.1650
   18CHL1   H1B 1304   6.504   6.087   6.389  0.5718 -0.2811 -0.8131
   18CHL1    C2 1305   6.652   6.054   6.543 -0.5665 -0.0109 -0.4033
   18CHL1   H2A 1306   6.600   6.116   6.620  1.5245  1.4922 -0.0991
   18CHL1   H2B 1307   6.754   6.099   6.548 -1.2211  1.4568  1.0162
   18CHL1   C20 1308   6.574   6.110   5.587  0.0207 -0.7032  0.6458
   18CHL1   H20 1309   6.674   6.074   5.557  0.0807  0.6812 -0.9448
   18CHL1   C21 1310   6.568   6.267   5.617  0.2182  0.1799  0.3692
   18CHL1  H21A 1311   6.469   6.301   5.653 -0.6302 -0.5515 -1.1931
   18CHL1  H21B 1312   6.589   6.329   5.527  0.5859  0.9726  0.9892
   18CHL1  H21C 1313   6.648   6.295   5.688  1.5355  0.2007 -1.0713
   18CHL1   C22 1314   6.482   6.076   5.462  0.1902 -0.3986 -0.1505
   18CHL1  H22A 1315   6.485   5.965   5.454  2.4646 -0.2789 -2.1481
   18CHL1  H22B 1316   6.379   6.102   5.494  0.4934  0.5726  0.0837
   18CHL1   C23 1317   6.525   6.135   5.330  0.3968  0.5863  0.2425
   18CHL1  H23A 1318   6.494   6.241   5.328  0.2686  0.5510  0.3691
   18CHL1  H23B 1319   6.634   6.117   5.317  0.0245 -0.9493 -1.2593
   18CHL1   C24 1320   6.463   6.061   5.206  0.8381  0.2962 -0.0890
   18CHL1  H24A 1321   6.520   5.966   5.195  3.0553  1.6000 -0.4197
   18CHL1  H24B 1322   6.355   6.039   5.224  0.8812 -1.7350 -1.8818
   18CHL1   C25 1323   6.457   6.138   5.075  0.1096  0.1892 -0.1380
   18CHL1   H25 1324   6.559   6.180   5.062 -0.3217  1.9064  1.5501
   18CHL1   C26 1325   6.424   6.060   4.946 -0.5009  0.6057  0.7880
   18CHL1  H26A 1326   6.460   6.108   4.852 -1.9050  0.7899  0.3199
   18CHL1  H26B 1327   6.465   5.957   4.947  3.6144  1.9813 -1.8734
   18CHL1  H26C 1328   6.314   6.055   4.932 -0.5624 -1.2001  1.7419
   18CHL1   C27 1329   6.366   6.255   5.084 -0.2466  0.6792  0.3226
   18CHL1  H27A 1330   6.404   6.325   5.163  1.0333 -0.0258  0.3587
   18CHL1  H27B 1331   6.367   6.312   4.989 -0.1465  1.8815  1.0229
   18CHL1  H27C 1332   6.262   6.225   5.110 -0.2229  1.2064  1.0836
   19CHL1    C3 1333   0.829   5.461   6.405  0.4414  1.0641  0.3819
   19CHL1    H3 1334   0.937   5.450   6.382  0.3965  0.6440  0.3646
   19CHL1    O3 1335   0.804   5.468   6.544  0.9053  0.7367 -0.1080
   19CHL1   H3' 1336   0.709   5.463   6.549  0.8609  2.2055  1.3908
   19CHL1    C4 1337   0.779   5.591   6.344 -0.4496 -0.1663 -0.1062
   19CHL1   H4A 1338   0.680   5.619   6.386 -0.6447 -0.4718 -0.3597
   19CHL1   H4B 1339   0.847   5.667   6.387  0.2474 -1.8314  1.9120
   19CHL1    C5 1340   0.766   5.587   6.187  0.5116 -0.0250 -0.7188
   19CHL1    C6 1341   0.823   5.679   6.110  0.5195 -0.2002  0.0106
   19CHL1    H6 1342   0.884   5.755   6.162  2.3437 -1.0051 -0.8774
   19CHL1    C7 1343   0.823   5.679   5.958 -0.1835 -0.0783  0.0707
   19CHL1   H7A 1344   0.825   5.779   5.911 -1.0191  0.0060  0.2014
   19CHL1   H7B 1345   0.925   5.646   5.928 -0.2856  0.3698 -0.7858
   19CHL1    C8 1346   0.721   5.577   5.897  0.4634  0.2555  0.0955
   19CHL1    H8 1347   0.623   5.629   5.903 -0.2210 -1.1533  2.1738
   19CHL1   C14 1348   0.738   5.556   5.747  0.7174 -0.3941 -0.0167
   19CHL1   H14 1349   0.842   5.520   5.734  1.0692  1.4935 -3.4807
   19CHL1   C15 1350   0.732   5.680   5.658 -0.3454  0.3256 -0.3732
   19CHL1  H15A 1351   0.653   5.756   5.675  1.8144  3.0047 -1.6055
   19CHL1  H15B 1352   0.818   5.750   5.657 -1.8603  2.2559 -0.6194
   19CHL1   C16 1353   0.702   5.619   5.517  0.1541 -0.8226  0.9441
   19CHL1  H16A 1354   0.613   5.671   5.476  0.6197 -2.1554 -2.0119
   19CHL1  H16B 1355   0.783   5.623   5.441 -0.5222 -0.8800  0.2130
   19CHL1   C17 1356   0.672   5.468   5.537  0.9521 -0.4457  0.5256
   19CHL1   H17 1357   0.761   5.404   5.518  1.3384  0.7620 -2.3464
   19CHL1   C13 1358   0.645   5.457   5.692  0.1334  0.2522  0.4285
   19CHL1   C18 1359   0.498   5.520   5.696 -0.2721  0.4452 -0.6584
   19CHL1  H18A 1360   0.473   5.542   5.802  0.3243 -0.7227 -0.2664
   19CHL1  H18B 1361   0.475   5.614   5.640 -2.0910  1.5620  1.7552
   19CHL1  H18C 1362   0.424   5.443   5.669  2.4193 -1.9591 -1.6582
   19CHL1   C12 1363   0.658   5.320   5.758  0.5184 -0.4429 -0.6254
   19CHL1  H12A 1364   0.577   5.256   5.716 -1.0303  0.7026  0.4963
   19CHL1  H12B 1365   0.758   5.278   5.736 -0.3552 -3.0247 -0.0381
   19CHL1   C11 1366   0.631   5.329   5.908 -0.1030  0.5155 -0.8065
   19CHL1  H11A 1367   0.524   5.358   5.915 -0.0932  0.3727 -0.0488
   19CHL1  H11B 1368   0.656   5.227   5.943  2.3709  1.5653  0.6664
   19CHL1    C9 1369   0.724   5.442   5.973  0.2545  0.7737  0.8043
   19CHL1    H9 1370   0.827   5.405   5.953  0.3653  1.5850 -0.2447
   19CHL1   C10 1371   0.704   5.457   6.129  0.0783 -0.7892  0.1562
   19CHL1   C19 1372   0.553   5.467   6.153  0.9053 -0.1519 -0.8183
   19CHL1  H19A 1373   0.498   5.371   6.140 -0.0774  0.1956  0.5284
   19CHL1  H19B 1374   0.531   5.505   6.255  0.1155 -0.7603 -0.7465
   19CHL1  H19C 1375   0.512   5.546   6.088 -0.7274  1.7769  2.3176
   19CHL1    C1 1376   0.771   5.337   6.190  0.9107  0.4623  0.4574
   19CHL1   H1A 1377   0.712   5.251   6.153  0.6740  1.5161 -1.7851
   19CHL1   H1B 1378   0.877   5.332   6.156  1.1595 -0.4492  1.3367
   19CHL1    C2 1379   0.759   5.341   6.342 -0.4411 -0.2544 -0.7894
   19CHL1   H2A 1380   0.802   5.258   6.401 -4.1032 -0.1985  2.3259
   19CHL1   H2B 1381   0.654   5.344   6.380 -0.0319 -1.0726  0.4526
   19CHL1   C20 1382   0.575   5.430   5.420 -0.1959  0.4565 -0.0272
   19CHL1   H20 1383   0.487   5.496   5.412 -0.5499 -0.2862 -4.3458
   19CHL1   C21 1384   0.516   5.288   5.437 -0.1640 -0.3256  0.4034
   19CHL1  H21A 1385   0.444   5.273   5.353 -0.6179 -0.3572  0.7926
   19CHL1  H21B 1386   0.475   5.274   5.539  0.9338 -1.6242  0.6913
   19CHL1  H21C 1387   0.586   5.202   5.432  1.3904  0.9345 -0.3748
   19CHL1   C22 1388   0.647   5.439   5.280  0.2160  0.2198  0.3632
   19CHL1  H22A 1389   0.706   5.533   5.275  2.1856 -0.7577  3.0349
   19CHL1  H22B 1390   0.720   5.356   5.266 -0.4013 -0.2607 -0.0268
   19CHL1   C23 1391   0.537   5.442   5.167  0.3769  0.2947 -0.1994
   19CHL1  H23A 1392   0.520   5.339   5.128  1.9723 -0.6736  1.4876
   19CHL1  H23B 1393   0.440   5.490   5.190  0.0874  0.1495 -1.0624
   19CHL1   C24 1394   0.608   5.500   5.042 -0.2594 -0.2667 -0.7981
   19CHL1  H24A 1395   0.660   5.593   5.075  0.1736 -1.9303  3.9686
   19CHL1  H24B 1396   0.696   5.436   5.018  0.8378  0.2241  1.6509
   19CHL1   C25 1397   0.516   5.524   4.923 -0.1344 -0.1688 -0.1778
   19CHL1   H25 1398   0.460   5.432   4.895 -0.9534  0.1310  0.4365
   19CHL1   C26 1399   0.424   5.643   4.943 -0.2182  0.6790  0.4862
   19CHL1  H26A 1400   0.384   5.667   4.842  1.4460  2.9310  0.2758
   19CHL1  H26B 1401   0.352   5.624   5.025 -0.4214  1.7464  0.5670
   19CHL1  H26C 1402   0.484   5.733   4.972  0.0230  1.1777 -1.4425
   19CHL1   C27 1403   0.618   5.552   4.808  0.3233  0.3081 -0.4075
   19CHL1  H27A 1404   0.572   5.572   4.709 -3.3096 -2.5400  0.4776
   19CHL1  H27B 1405   0.681   5.637   4.841 -2.4158  1.9513  0.9306
   19CHL1  H27C 1406   0.694   5.471   4.802  0.4229  0.3000  0.7243
   20CHL1    C3 1407   5.663   4.981   6.638  0.4735  1.0260  0.6078
   20CHL1    H3 1408   5.620   5.075   6.595 -0.8543 -0.0564 -0.5365
   20CHL1    O3 1409   5.641   4.971   6.779 -0.1746 -0.1016 -0.0345
   20CHL1   H3' 1410   5.650   4.881   6.812 -1.7705  0.8448  3.4787
   20CHL1    C4 1411   5.588   4.860   6.579 -0.2509  0.5153  0.5392
   20CHL1   H4A 1412   5.613   4.766   6.633  1.4106  0.2674 -0.5788
   20CHL1   H4B 1413   5.483   4.880   6.607 -0.3209 -0.4805  1.0577
   20CHL1    C5 1414   5.604   4.852   6.426 -0.3710 -0.0985  0.1556
   20CHL1    C6 1415   5.513   4.859   6.325 -0.3410  0.5728 -0.0968
   20CHL1    H6 1416   5.408   4.871   6.358 -0.3700  0.1865 -0.0443
   20CHL1    C7 1417   5.540   4.846   6.173 -0.5338 -0.1197  0.0607
   20CHL1   H7A 1418   5.465   4.788   6.116  0.3210  0.2649 -1.4989
   20CHL1   H7B 1419   5.539   4.945   6.122  1.8634 -1.5238 -3.0403
   20CHL1    C8 1420   5.673   4.773   6.157  0.0905  0.4907  0.3744
   20CHL1    H8 1421   5.651   4.668   6.185 -0.0698  0.9331  2.0216
   20CHL1   C14 1422   5.710   4.776   6.008 -0.1298 -0.8401  0.0565
   20CHL1   H14 1423   5.731   4.884   5.988 -2.4458 -0.4710 -0.6002
   20CHL1   C15 1424   5.599   4.724   5.909 -0.6930 -0.2351 -0.4662
   20CHL1  H15A 1425   5.554   4.635   5.956  1.7086 -0.1262  2.3257
   20CHL1  H15B 1426   5.518   4.800   5.900 -0.6852  0.1561  2.0786
   20CHL1   C16 1427   5.677   4.699   5.783  0.3078  0.1443 -0.1364
   20CHL1  H16A 1428   5.675   4.591   5.759  0.2017 -0.3072  1.7947
   20CHL1  H16B 1429   5.639   4.769   5.705 -1.7164  0.5845  1.1844
   20CHL1   C17 1430   5.830   4.734   5.811  0.6920  0.4633 -0.2671
   20CHL1   H17 1431   5.848   4.843   5.800 -0.5015  0.6664 -0.4239
   20CHL1   C13 1432   5.843   4.712   5.970 -0.0158 -0.2235  0.4673
   20CHL1   C18 1433   5.837   4.555   6.002 -0.4471  0.3920 -0.0644
   20CHL1  H18A 1434   5.775   4.499   5.929  3.0770 -2.1449 -1.3968
   20CHL1  H18B 1435   5.935   4.504   5.994 -0.8322 -0.2931 -0.4584
   20CHL1  H18C 1436   5.802   4.536   6.106 -0.1703 -0.0981 -0.0610
   20CHL1   C12 1437   5.955   4.781   6.045  0.1799 -0.0104 -0.1559
   20CHL1  H12A 1438   6.050   4.728   6.021 -0.5114 -0.5503 -1.7971
   20CHL1  H12B 1439   5.964   4.887   6.014  0.8807  0.1880  0.6740
   20CHL1   C11 1440   5.928   4.774   6.197 -0.2385  0.2955 -0.6541
   20CHL1  H11A 1441   5.936   4.665   6.218  2.4187  0.1530 -1.9579
   20CHL1  H11B 1442   6.010   4.829   6.249 -0.0625 -1.7207  1.3714
   20CHL1    C9 1443   5.788   4.833   6.236  0.6553 -0.1588 -0.5596
   20CHL1    H9 1444   5.793   4.936   6.196  2.3644 -0.5466 -1.4572
   20CHL1   C10 1445   5.757   4.835   6.388  0.1400 -0.1988 -0.4926
   20CHL1   C19 1446   5.800   4.701   6.450  0.1060 -0.1846 -0.0654
   20CHL1  H19A 1447   5.780   4.683   6.558 -0.5933  1.3788  0.1071
   20CHL1  H19B 1448   5.766   4.613   6.392  2.1643  0.4407 -2.3659
   20CHL1  H19C 1449   5.910   4.694   6.443  0.0272  0.4400 -3.5829
   20CHL1    C1 1450   5.839   4.962   6.450  0.3289  0.1951  0.6512
   20CHL1   H1A 1451   5.946   4.941   6.430 -0.2486 -1.8672 -0.6493
   20CHL1   H1B 1452   5.792   5.048   6.397 -1.2110 -0.7258  0.4442
   20CHL1    C2 1453   5.809   4.987   6.605  0.4236  0.1197 -0.0488
   20CHL1   H2A 1454   5.854   5.085   6.629 -0.5647  0.5535  0.0726
   20CHL1   H2B 1455   5.858   4.904   6.660  0.8376  0.3512 -0.0630
   20CHL1   C20 1456   5.931   4.664   5.724 -0.4140  0.3041  0.6009
   20CHL1   H20 1457   5.949   4.560   5.757 -1.9594 -0.8510 -1.9549
   20CHL1   C21 1458   6.067   4.739   5.719  0.5865 -0.0904 -0.0479
   20CHL1  H21A 1459   6.106   4.741   5.823 -0.5827  1.3676  0.3961
   20CHL1  H21B 1460   6.049   4.843   5.684  0.1134  0.4850  1.7539
   20CHL1  H21C 1461   6.135   4.687   5.649 -1.1132  0.8119 -2.4860
   20CHL1   C22 1462   5.868   4.667   5.575 -0.1083  0.2039 -0.0618
   20CHL1  H22A 1463   5.776   4.604   5.579 -0.4835  0.8056  1.7703
   20CHL1  H22B 1464   5.833   4.766   5.538 -0.7974 -0.3321 -0.8922
   20CHL1   C23 1465   5.964   4.605   5.476  0.3613 -0.6241  0.0851
   20CHL1  H23A 1466   6.024   4.695   5.449 -1.0967 -0.0002 -1.2224
   20CHL1  H23B 1467   6.024   4.521   5.517 -0.7552 -1.4071  0.1566
   20CHL1   C24 1468   5.895   4.559   5.350  0.3174 -0.2576 -0.8931
   20CHL1  H24A 1469   5.821   4.479   5.371  1.6599 -1.4756 -0.6173
   20CHL1  H24B 1470   5.843   4.653   5.324 -1.7383 -1.2178 -0.4615
   20CHL1   C25 1471   5.992   4.523   5.227 -0.5325 -0.0424  0.9152
   20CHL1   H25 1472   6.077   4.594   5.232  0.6834 -1.4050  0.3848
   20CHL1   C26 1473   6.046   4.381   5.244  0.0168 -0.1987  1.0060
   20CHL1  H26A 1474   6.104   4.371   5.338  1.8034 -1.9556 -0.1877
   20CHL1  H26B 1475   5.967   4.302   5.243  0.3438 -0.5297  0.8250
   20CHL1  H26C 1476   6.117   4.354   5.162  1.7327  0.3896  2.2434
   20CHL1   C27 1477   5.930   4.535   5.090  0.4653  0.5582  0.2965
   20CHL1  H27A 1478   5.828   4.491   5.088  1.0403 -1.2844  3.7583
   20CHL1  H27B 1479   5.916   4.641   5.057  1.5978  1.0010  1.1814
   20CHL1  H27C 1480   5.999   4.484   5.020  1.4256  1.4154  0.5797
   21CHL1    C3 1481   5.602   6.747   6.590 -0.4335  0.2352 -0.0790
   21CHL1    H3 1482   5.597   6.647   6.543  1.2371  0.5986 -1.0792
   21CHL1    O3 1483   5.613   6.739   6.734  0.2178  0.3348 -0.4826
   21CHL1   H3' 1484   5.692   6.791   6.750  1.5191 -1.8894  0.7071
   21CHL1    C4 1485   5.710   6.833   6.528  0.0112 -0.0479 -0.6729
   21CHL1   H4A 1486   5.707   6.937   6.567  2.7939 -0.3740  0.5935
   21CHL1   H4B 1487   5.807   6.804   6.574  0.0918  0.9524 -0.1748
   21CHL1    C5 1488   5.711   6.835   6.377 -0.4515  0.6512 -0.3691
   21CHL1    C6 1489   5.815   6.786   6.311 -0.9751 -0.4653 -0.2027
   21CHL1    H6 1490   5.896   6.745   6.373 -1.4139 -2.7434 -1.0436
   21CHL1    C7 1491   5.827   6.794   6.159 -0.5067  0.0597 -0.8659
   21CHL1   H7A 1492   5.924   6.840   6.132 -0.3715  1.3098  1.5033
   21CHL1   H7B 1493   5.824   6.690   6.119  1.4586 -0.0579 -0.8159
   21CHL1    C8 1494   5.715   6.866   6.084 -0.1425  0.6058  0.2851
   21CHL1    H8 1495   5.729   6.976   6.079 -1.2344  0.7374 -0.0774
   21CHL1   C14 1496   5.694   6.812   5.945 -0.2538  0.4171 -0.1171
   21CHL1   H14 1497   5.668   6.704   5.950  0.6635  0.2369  2.5228
   21CHL1   C15 1498   5.815   6.809   5.851 -0.0037  0.4690  0.2007
   21CHL1  H15A 1499   5.876   6.901   5.856  0.0381  0.4219  0.5981
   21CHL1  H15B 1500   5.885   6.727   5.882 -0.1351  0.7553  1.3160
   21CHL1   C16 1501   5.752   6.799   5.712 -0.0166  0.6568 -0.2365
   21CHL1  H16A 1502   5.781   6.884   5.647  3.1912  2.1713  2.8551
   21CHL1  H16B 1503   5.789   6.709   5.660 -1.2621  0.6437 -1.1263
   21CHL1   C17 1504   5.589   6.806   5.732  0.6063 -0.3608 -0.6231
   21CHL1   H17 1505   5.561   6.700   5.749  1.3553 -0.2440  1.6025
   21CHL1   C13 1506   5.577   6.876   5.869  0.0051  0.0817 -0.3365
   21CHL1   C18 1507   5.593   7.025   5.857 -0.6477  0.1053 -0.1691
   21CHL1  H18A 1508   5.683   7.049   5.796 -0.1842 -0.2983  0.3392
   21CHL1  H18B 1509   5.506   7.073   5.809 -1.0975 -0.5717 -0.0395
   21CHL1  H18C 1510   5.609   7.078   5.953  1.0093 -2.2249  0.9385
   21CHL1   C12 1511   5.448   6.842   5.948  0.1177 -0.2088 -0.3763
   21CHL1  H12A 1512   5.368   6.906   5.904 -0.6483 -0.4957  0.5557
   21CHL1  H12B 1513   5.427   6.733   5.940  0.3665 -0.5264  2.2642
   21CHL1   C11 1514   5.457   6.887   6.094  0.1709 -0.3557  0.9099
   21CHL1  H11A 1515   5.449   6.997   6.083  0.2635 -0.5100 -1.0594
   21CHL1  H11B 1516   5.370   6.848   6.151  0.0675 -0.8151  0.4393
   21CHL1    C9 1517   5.577   6.839   6.169 -0.2209 -0.2369 -0.2863
   21CHL1    H9 1518   5.566   6.728   6.172 -1.4298 -0.1065  0.8341
   21CHL1   C10 1519   5.586   6.886   6.321 -0.3958  0.4654 -0.2376
   21CHL1   C19 1520   5.579   7.036   6.331  0.0855 -0.0825  0.2021
   21CHL1  H19A 1521   5.582   7.075   6.435  1.1298  2.0994 -0.5717
   21CHL1  H19B 1522   5.667   7.076   6.277 -0.6125  0.5126 -0.5379
   21CHL1  H19C 1523   5.497   7.088   6.277  0.3786 -0.9555 -1.1146
   21CHL1    C1 1524   5.461   6.826   6.396  0.0092 -0.4013  0.1710
   21CHL1   H1A 1525   5.372   6.888   6.373 -0.4566 -1.0477  0.2071
   21CHL1   H1B 1526   5.435   6.727   6.353 -2.4724  0.5483 -0.6724
   21CHL1    C2 1527   5.472   6.818   6.549  0.7654  0.0587 -0.3354
   21CHL1   H2A 1528   5.389   6.760   6.594  0.8287  1.9311  2.4649
   21CHL1   H2B 1529   5.455   6.915   6.600 -0.3915  0.0969 -0.7656
   21CHL1   C20 1530   5.522   6.859   5.607  0.4259 -0.0092  0.0851
   21CHL1   H20 1531   5.550   6.959   5.567  0.2663  0.3450  0.8392
   21CHL1   C21 1532   5.375   6.863   5.641 -0.0429  0.3514 -0.4826
   21CHL1  H21A 1533   5.351   6.783   5.714 -1.4749  0.1047 -1.1858
   21CHL1  H21B 1534   5.319   6.853   5.545 -1.7820 -2.6394  0.6856
   21CHL1  H21C 1535   5.352   6.964   5.680 -1.4711  0.2547 -0.9808
   21CHL1   C22 1536   5.551   6.773   5.475  0.0110 -0.1088  0.9646
   21CHL1  H22A 1537   5.509   6.840   5.397  1.0203 -1.0768 -0.4615
   21CHL1  H22B 1538   5.659   6.767   5.451 -0.2553  3.7864 -2.2131
   21CHL1   C23 1539   5.479   6.635   5.466 -0.0182 -0.2807  0.1844
   21CHL1  H23A 1540   5.532   6.578   5.546 -1.6432 -0.1199  1.4334
   21CHL1  H23B 1541   5.369   6.642   5.477  0.0154 -1.2068  1.3542
   21CHL1   C24 1542   5.503   6.576   5.323 -0.2844  0.0393 -0.0810
   21CHL1  H24A 1543   5.603   6.613   5.293  0.0380 -0.3916  0.4557
   21CHL1  H24B 1544   5.512   6.465   5.326 -0.1722  0.0724  1.5199
   21CHL1   C25 1545   5.399   6.618   5.217  0.1978 -0.2448 -0.5268
   21CHL1   H25 1546   5.350   6.708   5.260 -1.2153 -1.6770  0.9971
   21CHL1   C26 1547   5.473   6.643   5.084  0.3473  0.2039  0.5329
   21CHL1  H26A 1548   5.572   6.694   5.088 -0.2147  1.8798 -3.1035
   21CHL1  H26B 1549   5.476   6.547   5.027  1.1114 -0.5012  1.6982
   21CHL1  H26C 1550   5.411   6.711   5.022  2.1182  2.1629  0.7876
   21CHL1   C27 1551   5.287   6.521   5.210  0.0369  0.3123  0.4020
   21CHL1  H27A 1552   5.224   6.548   5.122 -0.8956 -0.6264  0.7606
   21CHL1  H27B 1553   5.314   6.414   5.193  0.3189  0.0577  2.2528
   21CHL1  H27C 1554   5.227   6.497   5.300  0.6257 -2.5751  0.1378
   22CHL1    C3 1555   5.397   3.115   6.455  0.0219  0.2497  0.0369
   22CHL1    H3 1556   5.404   3.215   6.407  1.0285 -1.7614 -4.6169
   22CHL1    O3 1557   5.466   3.128   6.581  0.4214  0.1324  0.0298
   22CHL1   H3' 1558   5.394   3.114   6.644 -0.7101 -1.9278 -1.5674
   22CHL1    C4 1559   5.250   3.068   6.473 -0.0917  0.0272 -0.6296
   22CHL1   H4A 1560   5.247   2.967   6.519  1.5334 -0.0759 -0.6922
   22CHL1   H4B 1561   5.207   3.142   6.543  0.7590 -2.6342  3.0273
   22CHL1    C5 1562   5.192   3.069   6.335 -0.1632  0.1207 -0.1966
   22CHL1    C6 1563   5.097   3.152   6.297 -0.9028 -0.3212  0.6541
   22CHL1    H6 1564   5.071   3.230   6.370 -0.7925 -1.8874  2.4651
   22CHL1    C7 1565   5.023   3.154   6.162  0.3153 -0.5390 -0.1860
   22CHL1   H7A 1566   4.916   3.178   6.180  0.6671  1.9863 -0.9852
   22CHL1   H7B 1567   5.062   3.240   6.103 -0.2305 -0.4263 -0.3925
   22CHL1    C8 1568   5.050   3.028   6.080 -0.3420  0.3803 -0.6120
   22CHL1    H8 1569   4.998   2.952   6.142  1.8561 -1.0514 -0.3972
   22CHL1   C14 1570   4.983   3.043   5.943 -0.3340  0.3335 -0.4331
   22CHL1   H14 1571   5.019   3.130   5.885 -1.0288  0.4813 -0.6516
   22CHL1   C15 1572   4.830   3.065   5.931  0.2276 -0.9355  0.1282
   22CHL1  H15A 1573   4.777   2.997   6.002  2.1558 -1.1794  1.4232
   22CHL1  H15B 1574   4.820   3.173   5.954 -2.2302 -0.7545 -1.4858
   22CHL1   C16 1575   4.803   3.024   5.788 -0.2305 -0.0118  0.6118
   22CHL1  H16A 1576   4.728   2.943   5.777  1.0380 -1.0361 -1.1983
   22CHL1  H16B 1577   4.796   3.111   5.719 -1.1990  0.4114  1.2301
   22CHL1   C17 1578   4.938   2.953   5.735 -0.3052  0.5890  0.1366
   22CHL1   H17 1579   4.986   3.043   5.693 -1.4095  2.1151  1.9767
   22CHL1   C13 1580   5.022   2.925   5.855 -0.1906 -0.8051  0.7571
   22CHL1   C18 1581   4.970   2.793   5.918  0.4766 -0.1784 -0.7120
   22CHL1  H18A 1582   5.002   2.775   6.022 -1.9332 -0.9099 -0.0327
   22CHL1  H18B 1583   4.860   2.801   5.934  0.6279  3.5924 -0.8102
   22CHL1  H18C 1584   4.987   2.705   5.851 -1.1297 -0.5027 -0.7335
   22CHL1   C12 1585   5.174   2.927   5.837  0.0670  0.4276 -0.0842
   22CHL1  H12A 1586   5.207   2.841   5.775 -0.9843 -1.0780  1.3502
   22CHL1  H12B 1587   5.206   3.022   5.790  4.3624 -1.5877 -1.8010
   22CHL1   C11 1588   5.246   2.901   5.970  0.1254 -0.0532 -0.5107
   22CHL1  H11A 1589   5.230   2.796   6.000  3.2495 -0.5432 -0.2731
   22CHL1  H11B 1590   5.354   2.924   5.957  0.6565 -1.9283  0.3065
   22CHL1    C9 1591   5.201   3.002   6.085 -0.5067  0.2401 -0.9552
   22CHL1    H9 1592   5.244   3.101   6.058 -1.1319  0.9290  0.5039
   22CHL1   C10 1593   5.258   2.972   6.230  1.0135  0.0755  0.1712
   22CHL1   C19 1594   5.238   2.824   6.280  0.5633  0.1047 -0.1393
   22CHL1  H19A 1595   5.275   2.753   6.202 -0.1867 -0.1912 -0.2370
   22CHL1  H19B 1596   5.303   2.807   6.368  0.3369 -0.4501 -0.0687
   22CHL1  H19C 1597   5.134   2.802   6.313  0.2160  1.1827 -0.4797
   22CHL1    C1 1598   5.409   3.002   6.238 -0.2075 -0.2917 -0.1889
   22CHL1   H1A 1599   5.463   2.927   6.176  0.9054 -0.8769  1.4440
   22CHL1   H1B 1600   5.430   3.099   6.187 -1.5833  0.6924  1.0423
   22CHL1    C2 1601   5.467   3.010   6.377  0.4598  0.2709 -1.0441
   22CHL1   H2A 1602   5.570   3.051   6.375 -0.2866  2.4256  1.1708
   22CHL1   H2B 1603   5.474   2.916   6.437 -2.3994  0.3539 -0.4403
   22CHL1   C20 1604   4.919   2.847   5.623  0.1985  0.4881 -1.5670
   22CHL1   H20 1605   4.880   2.753   5.668 -1.6099  1.3029 -1.3283
   22CHL1   C21 1606   5.058   2.806   5.573 -0.1228  0.2239  0.0140
   22CHL1  H21A 1607   5.045   2.737   5.488  1.4685  0.0723 -0.1242
   22CHL1  H21B 1608   5.113   2.745   5.648  0.1479  1.2681  0.6826
   22CHL1  H21C 1609   5.125   2.891   5.549 -0.2079  0.4719  0.6355
   22CHL1   C22 1610   4.826   2.860   5.505  0.2350 -1.1914 -0.4200
   22CHL1  H22A 1611   4.841   2.778   5.431  0.1685 -0.8702 -0.7945
   22CHL1  H22B 1612   4.720   2.853   5.538 -0.0624 -0.5603 -1.1989
   22CHL1   C23 1613   4.852   2.995   5.433 -0.1553 -0.3020  0.4855
   22CHL1  H23A 1614   4.818   3.073   5.504  0.7427  0.8052 -0.2645
   22CHL1  H23B 1615   4.961   3.013   5.421 -0.4294  1.7927  0.6636
   22CHL1   C24 1616   4.772   3.046   5.309 -0.2124  0.3463 -0.0608
   22CHL1  H24A 1617   4.666   3.048   5.341  0.4459  0.8997  2.3185
   22CHL1  H24B 1618   4.799   3.153   5.293 -0.2835  0.1455 -1.6978
   22CHL1   C25 1619   4.778   2.973   5.179 -0.0728 -1.0130  0.7702
   22CHL1   H25 1620   4.733   2.872   5.188  1.2397 -1.4874  2.5032
   22CHL1   C26 1621   4.707   3.053   5.063 -0.8844  0.3209 -0.4051
   22CHL1  H26A 1622   4.738   3.020   4.962  1.3991 -0.4408  0.4738
   22CHL1  H26B 1623   4.599   3.041   5.083 -0.5719  0.0938  1.3602
   22CHL1  H26C 1624   4.732   3.161   5.068 -1.7615  0.4961  0.5800
   22CHL1   C27 1625   4.926   2.966   5.149  0.0888 -0.7188  0.1025
   22CHL1  H27A 1626   4.994   2.920   5.224  1.8364  3.1323  1.1460
   22CHL1  H27B 1627   4.931   2.913   5.052  0.7331 -1.7995  0.7119
   22CHL1  H27C 1628   4.972   3.067   5.149  1.9277 -1.4919 -1.2750
   23CHL1    C3 1629   4.732   5.992   6.465  0.3121 -0.6190  0.0189
   23CHL1    H3 1630   4.721   5.886   6.433  2.4443 -0.7652 -0.3695
   23CHL1    O3 1631   4.666   6.008   6.591 -0.1783 -0.2670  0.0679
   23CHL1   H3' 1632   4.681   6.101   6.614 -1.1672  0.1585 -0.9365
   23CHL1    C4 1633   4.879   6.028   6.470 -0.4211 -0.0370 -0.1114
   23CHL1   H4A 1634   4.886   6.117   6.537 -0.8573 -0.9560  1.2002
   23CHL1   H4B 1635   4.926   5.953   6.536  2.5663  0.5631 -1.3964
   23CHL1    C5 1636   4.942   6.035   6.338 -0.0122 -0.2443  0.1615
   23CHL1    C6 1637   5.048   5.957   6.317 -0.6780 -0.3212 -0.5661
   23CHL1    H6 1638   5.093   5.913   6.407  1.1529  0.4116 -1.0871
   23CHL1    C7 1639   5.123   5.955   6.186  0.6328 -0.0713  0.1171
   23CHL1   H7A 1640   5.233   5.966   6.198  0.5721  1.4689 -0.5532
   23CHL1   H7B 1641   5.096   5.862   6.132 -3.8896 -0.6895  2.8905
   23CHL1    C8 1642   5.075   6.067   6.092  0.4545  0.2334 -0.0431
   23CHL1    H8 1643   5.123   6.164   6.116  1.4679 -0.0869 -0.7223
   23CHL1   C14 1644   5.111   6.038   5.943  0.0837 -0.3693  0.4750
   23CHL1   H14 1645   5.067   5.939   5.918  0.1216 -0.6713  1.5254
   23CHL1   C15 1646   5.261   6.014   5.930 -0.1127  0.2266  0.5516
   23CHL1  H15A 1647   5.320   6.090   5.986  0.8394 -0.6747  0.8216
   23CHL1  H15B 1648   5.299   5.919   5.973  2.7961  0.9148 -0.2721
   23CHL1   C16 1649   5.284   6.027   5.776  0.4455 -0.0298  0.2633
   23CHL1  H16A 1650   5.354   6.113   5.770 -0.5607  0.8636  1.0215
   23CHL1  H16B 1651   5.323   5.936   5.725 -0.8231  0.4816 -1.7579
   23CHL1   C17 1652   5.150   6.064   5.716  0.4452  0.4849  0.7802
   23CHL1   H17 1653   5.092   5.972   5.694  0.2515  1.3637 -3.0709
   23CHL1   C13 1654   5.077   6.134   5.834 -0.4461  0.1855 -0.2654
   23CHL1   C18 1655   5.151   6.273   5.870  0.2569  0.2174 -0.0894
   23CHL1  H18A 1656   5.118   6.347   5.793 -2.6138  0.0141  0.8599
   23CHL1  H18B 1657   5.099   6.308   5.962 -0.3010  0.7276 -0.5839
   23CHL1  H18C 1658   5.260   6.270   5.894  0.1378 -1.0876  0.3639
   23CHL1   C12 1659   4.923   6.148   5.833  1.5577  0.4173  0.0432
   23CHL1  H12A 1660   4.883   6.219   5.758 -2.2547  0.8964  2.2573
   23CHL1  H12B 1661   4.885   6.048   5.801  1.1558  0.0372  1.6098
   23CHL1   C11 1662   4.859   6.169   5.973 -0.4645 -0.1014  0.3989
   23CHL1  H11A 1663   4.862   6.278   5.996 -1.4589  0.1636 -0.6680
   23CHL1  H11B 1664   4.750   6.154   5.960 -0.3831  0.8489 -1.7776
   23CHL1    C9 1665   4.922   6.078   6.083  0.7114  0.1210  0.0188
   23CHL1    H9 1666   4.887   5.973   6.075  1.4575 -0.3376  2.1068
   23CHL1   C10 1667   4.864   6.115   6.223 -0.3254 -0.5405  0.8719
   23CHL1   C19 1668   4.892   6.261   6.262  0.4835  0.2680  1.1183
   23CHL1  H19A 1669   4.842   6.284   6.358 -1.6362  0.9657 -0.0936
   23CHL1  H19B 1670   5.000   6.285   6.277  0.5049  0.7920  0.1963
   23CHL1  H19C 1671   4.850   6.338   6.194  1.7337 -0.6902 -0.8614
   23CHL1    C1 1672   4.720   6.075   6.224  1.3159  0.2619 -1.4553
   23CHL1   H1A 1673   4.667   6.152   6.164 -0.4494  1.1992  1.1016
   23CHL1   H1B 1674   4.714   5.969   6.194 -0.0311 -0.1141 -0.0149
   23CHL1    C2 1675   4.661   6.087   6.367  0.0284  0.2390  0.0752
   23CHL1   H2A 1676   4.552   6.067   6.364 -0.0577  0.7806 -1.1635
   23CHL1   H2B 1677   4.669   6.189   6.411 -1.8114  1.5843 -2.4604
   23CHL1   C20 1678   5.167   6.145   5.582  0.3393  0.2337  0.0119
   23CHL1   H20 1679   5.231   6.235   5.584  1.1097 -0.1784 -2.6082
   23CHL1   C21 1680   5.026   6.198   5.541 -0.3970  0.0360  0.2304
   23CHL1  H21A 1681   5.024   6.232   5.435 -1.2450 -0.3987  0.0963
   23CHL1  H21B 1682   5.001   6.287   5.603 -1.1026  0.4042 -0.5535
   23CHL1  H21C 1683   4.946   6.121   5.547 -1.6443  1.3118  0.6311
   23CHL1   C22 1684   5.229   6.054   5.478 -0.3256 -0.1223  0.0852
   23CHL1  H22A 1685   5.326   6.016   5.516 -0.1982  0.5429  0.4568
   23CHL1  H22B 1686   5.170   5.964   5.452 -0.9524  0.6443 -1.2281
   23CHL1   C23 1687   5.279   6.130   5.352  0.0232  0.3612 -0.1760
   23CHL1  H23A 1688   5.197   6.181   5.298 -0.2550  1.0215  0.8430
   23CHL1  H23B 1689   5.331   6.219   5.393 -3.6390  1.7416  1.8620
   23CHL1   C24 1690   5.349   6.034   5.251 -0.4628 -0.5377 -0.6210
   23CHL1  H24A 1691   5.431   5.982   5.306 -0.8063 -0.5590 -0.1187
   23CHL1  H24B 1692   5.282   5.950   5.221  1.4492 -2.4176  0.0939
   23CHL1   C25 1693   5.404   6.108   5.125 -0.1196  1.1636  0.0593
   23CHL1   H25 1694   5.321   6.174   5.091 -0.9481  1.4879  2.4908
   23CHL1   C26 1695   5.528   6.186   5.159  0.4084 -0.0455  0.0919
   23CHL1  H26A 1696   5.582   6.239   5.077 -1.2592 -1.2087 -1.8607
   23CHL1  H26B 1697   5.520   6.259   5.243  0.1672 -0.0339  0.0592
   23CHL1  H26C 1698   5.594   6.102   5.189  0.1625 -1.0130 -1.8980
   23CHL1   C27 1699   5.432   5.997   5.013 -0.6375 -0.5390 -0.5741
   23CHL1  H27A 1700   5.518   5.942   5.057 -0.2186  1.0318  0.7161
   23CHL1  H27B 1701   5.349   5.932   4.979 -0.7786 -0.5373 -0.2446
   23CHL1  H27C 1702   5.467   6.047   4.920  1.1823 -0.8292 -0.0855
   24CHL1    C3 1703   0.305   3.265   6.473  0.0881  0.3441 -0.1432
   24CHL1    H3 1704   0.352   3.365   6.459  0.3519  0.0881 -1.2415
   24CHL1    O3 1705   0.256   3.248   6.609 -0.2688  0.1783  0.8959
   24CHL1   H3' 1706   0.227   3.156   6.612  1.8496 -0.6933 -1.7748
   24CHL1    C4 1707   0.185   3.258   6.379 -0.1171  0.2316  0.0727
   24CHL1   H4A 1708   0.127   3.169   6.411 -1.3819  0.7959 -0.5835
   24CHL1   H4B 1709   0.118   3.345   6.394 -0.1012  0.1931  0.3836
   24CHL1    C5 1710   0.225   3.243   6.233 -0.7232  0.7994 -0.0227
   24CHL1    C6 1711   0.171   3.326   6.137 -0.1337  0.0484 -0.2359
   24CHL1    H6 1712   0.107   3.413   6.159  0.4099  0.7690 -1.3859
   24CHL1    C7 1713   0.192   3.313   5.988 -0.7844  0.8289  0.4545
   24CHL1   H7A 1714   0.092   3.312   5.941 -0.7486  0.6604  0.3796
   24CHL1   H7B 1715   0.248   3.399   5.946 -0.2588 -0.2494 -1.1426
   24CHL1    C8 1716   0.275   3.185   5.950 -0.2571 -0.0078 -0.1111
   24CHL1    H8 1717   0.207   3.098   5.959  0.1458 -0.2244  0.9494
   24CHL1   C14 1718   0.332   3.188   5.808 -0.8361  0.7625 -0.2779
   24CHL1   H14 1719   0.401   3.275   5.811  2.2492 -1.5557 -0.2071
   24CHL1   C15 1720   0.248   3.226   5.691 -0.6387 -0.0910 -1.1997
   24CHL1  H15A 1721   0.149   3.175   5.695 -0.9906  0.6545  1.4453
   24CHL1  H15B 1722   0.227   3.335   5.682  0.5212  0.4372  1.5019
   24CHL1   C16 1723   0.335   3.192   5.577  0.9265  0.8014  0.1798
   24CHL1  H16A 1724   0.288   3.144   5.489  2.5268  3.2714 -2.1789
   24CHL1  H16B 1725   0.367   3.289   5.533  2.3855  0.0726 -0.4216
   24CHL1   C17 1726   0.464   3.115   5.626  0.2272  0.1942  0.4769
   24CHL1   H17 1727   0.545   3.189   5.641  1.0713 -0.7569  0.6364
   24CHL1   C13 1728   0.421   3.071   5.756 -0.6584  0.2882 -0.5541
   24CHL1   C18 1729   0.328   2.948   5.746  0.4453 -1.2950  0.2196
   24CHL1  H18A 1730   0.388   2.866   5.700  0.8135  0.6928 -3.1513
   24CHL1  H18B 1731   0.294   2.915   5.847 -1.3955  0.3026  0.1833
   24CHL1  H18C 1732   0.235   2.958   5.686 -0.3189  0.4975  1.6082
   24CHL1   C12 1733   0.536   3.052   5.866  0.2417 -0.5590  0.4187
   24CHL1  H12A 1734   0.598   2.960   5.864  0.7620 -0.2616  1.9190
   24CHL1  H12B 1735   0.595   3.145   5.855 -2.3555  1.1984  0.3542
   24CHL1   C11 1736   0.479   3.032   6.007  0.1448 -0.4286 -0.3080
   24CHL1  H11A 1737   0.433   2.931   6.010 -1.3779  0.2634  0.4731
   24CHL1  H11B 1738   0.562   3.028   6.082 -1.6265  0.2453  1.8025
   24CHL1    C9 1739   0.392   3.150   6.054  0.0503  0.4476  0.1017
   24CHL1    H9 1740   0.455   3.242   6.061 -2.0704  1.9034  1.3320
   24CHL1   C10 1741   0.334   3.131   6.201 -0.1728 -0.6687  0.3648
   24CHL1   C19 1742   0.271   2.993   6.223  0.2789  0.8458  0.0486
   24CHL1  H19A 1743   0.194   2.965   6.148  1.3843  0.6807 -1.0452
   24CHL1  H19B 1744   0.350   2.916   6.217  0.0221  0.7018 -3.6277
   24CHL1  H19C 1745   0.211   2.982   6.316 -0.0774  0.2877 -0.2399
   24CHL1    C1 1746   0.451   3.151   6.299 -0.5814  0.1501 -0.7557
   24CHL1   H1A 1747   0.527   3.071   6.283  0.9032  1.0711  1.2001
   24CHL1   H1B 1748   0.497   3.247   6.266  0.8983 -0.3160 -0.1500
   24CHL1    C2 1749   0.409   3.157   6.445 -0.1947  0.1674  0.2930
   24CHL1   H2A 1750   0.490   3.180   6.517 -0.2828  0.1963  0.3823
   24CHL1   H2B 1751   0.367   3.058   6.473 -1.8987 -0.2546 -3.2161
   24CHL1   C20 1752   0.530   3.019   5.525 -0.7858  0.5463 -0.0543
   24CHL1   H20 1753   0.466   2.928   5.518 -0.5959  0.2783  1.2951
   24CHL1   C21 1754   0.672   2.971   5.574  1.0337 -0.3215 -0.0718
   24CHL1  H21A 1755   0.696   2.881   5.514 -0.7923 -0.6031 -0.4342
   24CHL1  H21B 1756   0.664   2.940   5.680  0.2809  0.1915  0.0332
   24CHL1  H21C 1757   0.748   3.051   5.562 -0.2626  1.0402  0.4863
   24CHL1   C22 1758   0.539   3.079   5.383 -0.3503  0.1779  0.6154
   24CHL1  H22A 1759   0.435   3.087   5.344 -0.5348  0.1011  1.0841
   24CHL1  H22B 1760   0.574   3.185   5.384  0.8274 -0.1951  1.5721
   24CHL1   C23 1761   0.622   2.992   5.280  0.5159  0.0237 -0.5033
   24CHL1  H23A 1762   0.621   3.031   5.177 -1.6169 -4.2284 -2.3535
   24CHL1  H23B 1763   0.724   2.991   5.323  0.5089  0.4615 -0.4737
   24CHL1   C24 1764   0.574   2.851   5.259  0.2139 -0.1786 -0.3396
   24CHL1  H24A 1765   0.574   2.790   5.353 -4.1092  0.1371  0.0501
   24CHL1  H24B 1766   0.465   2.861   5.242 -0.0554 -1.2133  0.5987
   24CHL1   C25 1767   0.640   2.781   5.136 -0.1858  0.6424 -0.0879
   24CHL1   H25 1768   0.637   2.852   5.050 -0.8579 -0.7873 -1.2957
   24CHL1   C26 1769   0.783   2.747   5.180 -0.7866  0.6860 -0.0937
   24CHL1  H26A 1770   0.819   2.665   5.114  4.1446  2.4343  0.0512
   24CHL1  H26B 1771   0.855   2.832   5.174 -0.0998  0.0474 -1.2029
   24CHL1  H26C 1772   0.789   2.713   5.286  1.1748 -0.1704 -0.4299
   24CHL1   C27 1773   0.574   2.651   5.091  0.1377  0.2471  0.1720
   24CHL1  H27A 1774   0.615   2.615   4.994 -2.1880 -1.0644 -0.4080
   24CHL1  H27B 1775   0.601   2.568   5.160 -1.2544 -1.2552 -1.0103
   24CHL1  H27C 1776   0.463   2.652   5.095  0.1473 -0.7359  1.4886
   25CHL1    C3 1777   4.714   5.391   6.390 -1.0643 -0.1474  0.7014
   25CHL1    H3 1778   4.810   5.352   6.430  0.3140  0.8936 -1.4306
   25CHL1    O3 1779   4.622   5.394   6.503 -0.3825  0.2522  0.3398
   25CHL1   H3' 1780   4.594   5.303   6.519 -0.3653 -0.6184 -3.4921
   25CHL1    C4 1781   4.737   5.534   6.334  0.3769  0.2737 -0.0349
   25CHL1   H4A 1782   4.635   5.574   6.320 -0.0335 -0.5611  0.5056
   25CHL1   H4B 1783   4.789   5.598   6.409 -1.6192  0.2378  1.4514
   25CHL1    C5 1784   4.803   5.525   6.195  0.1878 -1.6624 -0.0559
   25CHL1    C6 1785   4.889   5.623   6.163 -0.4554 -0.1283 -0.5632
   25CHL1    H6 1786   4.916   5.694   6.243  1.3213  0.5555 -1.7142
   25CHL1    C7 1787   4.959   5.640   6.033 -0.5308 -0.0369  0.2658
   25CHL1   H7A 1788   4.953   5.744   5.996  2.9449  0.5858  1.0675
   25CHL1   H7B 1789   5.069   5.625   6.046 -0.6574 -2.9208 -1.1090
   25CHL1    C8 1790   4.901   5.550   5.918 -0.3898 -0.0217  0.1934
   25CHL1    H8 1791   4.809   5.595   5.873 -0.6285 -0.5261  0.1773
   25CHL1   C14 1792   5.012   5.541   5.810  0.4030 -0.5566  0.0546
   25CHL1   H14 1793   5.102   5.490   5.850  1.1126  0.5999  0.0083
   25CHL1   C15 1794   5.068   5.675   5.755  0.8023  1.1383 -0.6164
   25CHL1  H15A 1795   4.973   5.732   5.743 -0.6123 -0.3987  2.0643
   25CHL1  H15B 1796   5.143   5.728   5.817  1.3106  1.1785 -1.2654
   25CHL1   C16 1797   5.122   5.633   5.618  0.1910 -0.6824  0.4344
   25CHL1  H16A 1798   5.066   5.684   5.537 -2.1841  0.8201  2.8313
   25CHL1  H16B 1799   5.233   5.640   5.612  0.1599  1.3997  1.2292
   25CHL1   C17 1800   5.086   5.479   5.596 -0.1890 -0.2291  0.0911
   25CHL1   H17 1801   5.175   5.427   5.638 -0.7206  0.0182  1.5995
   25CHL1   C13 1802   4.965   5.456   5.691  0.4967  0.2468 -0.0260
   25CHL1   C18 1803   4.831   5.505   5.620 -0.6741 -0.4709 -0.5445
   25CHL1  H18A 1804   4.824   5.446   5.526 -0.2032  0.2532 -1.0436
   25CHL1  H18B 1805   4.735   5.509   5.676  0.3778  3.5290  1.3389
   25CHL1  H18C 1806   4.848   5.605   5.576 -0.1604 -1.3093 -2.3570
   25CHL1   C12 1807   4.941   5.318   5.758 -0.1956 -0.3707 -0.2658
   25CHL1  H12A 1808   4.902   5.242   5.688  0.1581 -0.3628 -0.4742
   25CHL1  H12B 1809   5.040   5.285   5.798 -0.7340 -0.5807  0.9442
   25CHL1   C11 1810   4.831   5.317   5.867  0.1326  0.3549  0.0027
   25CHL1  H11A 1811   4.733   5.350   5.826 -0.1824 -0.6158 -0.0585
   25CHL1  H11B 1812   4.809   5.217   5.909  1.7115  0.3598  0.9350
   25CHL1    C9 1813   4.867   5.417   5.981  0.1586 -0.8653 -0.0089
   25CHL1    H9 1814   4.961   5.388   6.033 -0.6852 -1.3842  1.3173
   25CHL1   C10 1815   4.766   5.415   6.102 -0.3466  0.7495 -0.3140
   25CHL1   C19 1816   4.620   5.439   6.049 -0.1400  0.3324  0.4859
   25CHL1  H19A 1817   4.589   5.342   6.005 -1.0118  0.2525  1.2429
   25CHL1  H19B 1818   4.548   5.454   6.132 -0.9404  3.5304 -0.6377
   25CHL1  H19C 1819   4.617   5.511   5.964 -0.4762 -3.6537 -3.2431
   25CHL1    C1 1820   4.761   5.278   6.172  0.3132  0.1405  0.3626
   25CHL1   H1A 1821   4.724   5.207   6.094 -4.0091  1.1085  1.2981
   25CHL1   H1B 1822   4.864   5.248   6.200  0.9843 -0.2620 -2.2416
   25CHL1    C2 1823   4.668   5.279   6.290  0.6157 -0.1996  0.6120
   25CHL1   H2A 1824   4.666   5.177   6.336 -3.7230  0.4854  2.4220
   25CHL1   H2B 1825   4.567   5.293   6.246  1.8347  0.4290 -2.2078
   25CHL1   C20 1826   5.078   5.426   5.448 -0.8427 -0.6997  0.7289
   25CHL1   H20 1827   4.984   5.470   5.410  0.5919  2.1541  0.1744
   25CHL1   C21 1828   5.062   5.271   5.442 -0.5452  0.0932  0.2081
   25CHL1  H21A 1829   5.119   5.226   5.526 -1.8729  2.3480  2.4469
   25CHL1  H21B 1830   5.089   5.222   5.346 -1.1898 -0.1820  0.1673
   25CHL1  H21C 1831   4.956   5.258   5.472 -1.4255  1.5293 -2.0050
   25CHL1   C22 1832   5.207   5.458   5.371  0.1137  0.1736 -0.1749
   25CHL1  H22A 1833   5.220   5.567   5.390 -0.2406 -0.0466  1.4870
   25CHL1  H22B 1834   5.290   5.394   5.408  1.3918  0.2936 -2.6441
   25CHL1   C23 1835   5.201   5.430   5.220  0.5749 -0.2667 -0.3827
   25CHL1  H23A 1836   5.147   5.336   5.195  0.1974 -1.1607  3.2222
   25CHL1  H23B 1837   5.135   5.510   5.181  0.5695  0.4496  1.0516
   25CHL1   C24 1838   5.338   5.437   5.158 -0.0713 -0.6832 -0.7926
   25CHL1  H24A 1839   5.334   5.509   5.073  1.6471 -0.3775 -0.6392
   25CHL1  H24B 1840   5.407   5.487   5.229  0.4061 -0.0085 -1.7114
   25CHL1   C25 1841   5.409   5.310   5.108 -0.7733  0.3469 -0.6735
   25CHL1   H25 1842   5.413   5.247   5.200  4.2400  2.9913  1.2824
   25CHL1   C26 1843   5.337   5.235   4.994  0.4189 -0.5180 -0.8841
   25CHL1  H26A 1844   5.353   5.285   4.897  1.0512 -2.6328 -1.9272
   25CHL1  H26B 1845   5.389   5.137   4.988  0.0412 -0.7176 -0.9233
   25CHL1  H26C 1846   5.229   5.221   5.013 -0.1114  1.4216 -2.1911
   25CHL1   C27 1847   5.550   5.338   5.067 -0.7505  0.1464  0.0474
   25CHL1  H27A 1848   5.594   5.238   5.050 -2.7204 -0.8140  0.2457
   25CHL1  H27B 1849   5.567   5.382   4.966 -0.3623  0.7314  0.3612
   25CHL1  H27C 1850   5.611   5.397   5.138 -2.6112  1.2233  0.8417
   26CHL1    C3 1851   0.486   3.608   6.725 -0.2121 -0.1890  0.0935
   26CHL1    H3 1852   0.426   3.518   6.699  1.3166 -1.0611 -0.5202
   26CHL1    O3 1853   0.457   3.660   6.850 -0.2480  0.3873 -0.0191
   26CHL1   H3' 1854   0.512   3.737   6.868  0.3813 -0.5659  2.6737
   26CHL1    C4 1855   0.633   3.568   6.714 -0.2903  0.0251 -0.2251
   26CHL1   H4A 1856   0.699   3.652   6.745 -1.6474  0.7056  0.9012
   26CHL1   H4B 1857   0.648   3.482   6.784  1.1694 -1.2786 -2.0335
   26CHL1    C5 1858   0.685   3.532   6.574 -0.1100 -0.1883 -0.8010
   26CHL1    C6 1859   0.741   3.409   6.557  0.5586 -0.0958 -0.0811
   26CHL1    H6 1860   0.766   3.347   6.645  1.8746 -2.7825 -2.1991
   26CHL1    C7 1861   0.788   3.351   6.427 -0.2556  0.4146 -0.2310
   26CHL1   H7A 1862   0.896   3.323   6.436 -0.6230 -1.1684 -0.3658
   26CHL1   H7B 1863   0.728   3.259   6.410  0.9885 -0.9718  2.2283
   26CHL1    C8 1864   0.769   3.458   6.311  0.1419  0.7175  0.0543
   26CHL1    H8 1865   0.860   3.522   6.317 -0.1431  1.3845 -1.9531
   26CHL1   C14 1866   0.773   3.380   6.175  0.3714 -0.0565  0.7499
   26CHL1   H14 1867   0.677   3.327   6.163 -0.5601  2.0214 -1.8310
   26CHL1   C15 1868   0.877   3.266   6.152 -0.5882 -0.7163 -0.5336
   26CHL1  H15A 1869   0.979   3.286   6.191 -0.2306  1.0034 -2.1834
   26CHL1  H15B 1870   0.839   3.168   6.187  0.2435 -0.7913  0.1873
   26CHL1   C16 1871   0.881   3.256   6.000  0.2094  0.8474  0.3116
   26CHL1  H16A 1872   0.986   3.278   5.970  0.3296 -0.3082 -0.1815
   26CHL1  H16B 1873   0.863   3.155   5.956 -1.2934  1.6163 -0.9221
   26CHL1   C17 1874   0.793   3.368   5.941 -0.2024  0.3301 -0.2397
   26CHL1   H17 1875   0.691   3.328   5.961  0.8420 -1.2215  2.7495
   26CHL1   C13 1876   0.795   3.478   6.051  0.3488 -0.1615 -0.7450
   26CHL1   C18 1877   0.927   3.560   6.060  0.3555 -0.5428  1.0706
   26CHL1  H18A 1878   0.940   3.620   6.153 -3.6654 -0.4823  1.7630
   26CHL1  H18B 1879   1.019   3.498   6.054  0.9753  0.4260  0.3721
   26CHL1  H18C 1880   0.925   3.628   5.972  0.9719 -0.3176  1.2270
   26CHL1   C12 1881   0.666   3.571   6.056 -0.0623  0.0041 -0.0217
   26CHL1  H12A 1882   0.683   3.645   5.976 -0.0942  1.0086  0.8835
   26CHL1  H12B 1883   0.580   3.507   6.028 -0.9829  0.4983  1.5304
   26CHL1   C11 1884   0.642   3.643   6.190  0.0218  0.1485 -0.0109
   26CHL1  H11A 1885   0.725   3.716   6.198  1.5507 -1.2995 -1.9460
   26CHL1  H11B 1886   0.544   3.696   6.196 -0.1817 -0.3496  1.3468
   26CHL1    C9 1887   0.646   3.548   6.318  0.3489  0.3321  0.8612
   26CHL1    H9 1888   0.561   3.478   6.317  1.5242 -1.1357  0.4129
   26CHL1   C10 1889   0.638   3.617   6.455  1.0107  0.1929 -0.1881
   26CHL1   C19 1890   0.721   3.746   6.470  0.2000 -0.8352  0.1660
   26CHL1  H19A 1891   0.707   3.814   6.383 -0.9097 -1.7632 -0.3994
   26CHL1  H19B 1892   0.692   3.809   6.557  1.4180 -1.2110  0.8637
   26CHL1  H19C 1893   0.832   3.738   6.477  0.2263  0.2425  1.3284
   26CHL1    C1 1894   0.490   3.659   6.479  0.0901  0.4401  0.1318
   26CHL1   H1A 1895   0.462   3.730   6.398 -3.9325  0.5710  1.4231
   26CHL1   H1B 1896   0.426   3.570   6.462 -1.2029  1.7090 -2.2661
   26CHL1    C2 1897   0.460   3.710   6.617  0.4075  0.7749  0.2562
   26CHL1   H2A 1898   0.350   3.725   6.620 -0.3027 -3.0774 -0.7994
   26CHL1   H2B 1899   0.501   3.811   6.640 -1.2192  1.8716 -1.2958
   26CHL1   C20 1900   0.819   3.411   5.799  0.1656  0.3697  0.3433
   26CHL1   H20 1901   0.903   3.484   5.800 -0.0451  0.7511 -2.1420
   26CHL1   C21 1902   0.685   3.464   5.737 -0.8138 -0.5493 -0.1711
   26CHL1  H21A 1903   0.602   3.399   5.774 -1.6507  0.3674 -0.3764
   26CHL1  H21B 1904   0.687   3.471   5.627 -0.3786 -0.9831 -0.1952
   26CHL1  H21C 1905   0.665   3.566   5.777  2.7594  0.5937 -0.9235
   26CHL1   C22 1906   0.865   3.285   5.709 -1.3239 -0.1659 -0.1104
   26CHL1  H22A 1907   0.944   3.226   5.759 -1.0176 -0.4550 -0.9067
   26CHL1  H22B 1908   0.777   3.218   5.712  0.8032 -3.1443  0.2919
   26CHL1   C23 1909   0.921   3.326   5.569  0.3970  0.5762 -0.7651
   26CHL1  H23A 1910   0.842   3.376   5.511  1.7687 -0.1394 -3.3984
   26CHL1  H23B 1911   1.010   3.390   5.585  0.6472  0.1130 -0.2563
   26CHL1   C24 1912   0.972   3.206   5.489  0.1059  0.1482  0.6281
   26CHL1  H24A 1913   1.035   3.148   5.560  0.8765  0.2331  0.0317
   26CHL1  H24B 1914   0.899   3.131   5.451  0.1738  0.8839 -1.0312
   26CHL1   C25 1915   1.067   3.243   5.376 -0.3399  0.4705 -0.4881
   26CHL1   H25 1916   1.146   3.307   5.420  0.8208 -0.4345 -1.1714
   26CHL1   C26 1917   1.143   3.113   5.339 -0.0166 -0.3775  0.2683
   26CHL1  H26A 1918   1.160   3.042   5.423 -1.1048  1.4252  2.0701
   26CHL1  H26B 1919   1.096   3.065   5.250 -0.0690  1.1224 -0.5377
   26CHL1  H26C 1920   1.249   3.125   5.307 -0.0135  0.3760  0.5599
   26CHL1   C27 1921   1.003   3.320   5.264  0.6153 -0.8483  0.0809
   26CHL1  H27A 1922   1.081   3.349   5.190  0.5467  1.0982  0.7161
   26CHL1  H27B 1923   0.922   3.261   5.216 -1.2844  2.3990 -1.0701
   26CHL1  H27C 1924   0.969   3.420   5.297 -0.5435 -0.6128 -1.6791
   27CHL1    C3 1925   2.062   1.950   6.423  0.2459 -0.1292 -1.1167
   27CHL1    H3 1926   2.059   1.840   6.408 -0.8472 -0.2973  0.1114
   27CHL1    O3 1927   2.040   1.960   6.562 -0.1341 -0.0659  0.2900
   27CHL1   H3' 1928   1.951   1.925   6.573  0.4192 -2.0681 -1.0633
   27CHL1    C4 1929   2.200   1.995   6.376  0.2245 -0.2322 -0.4496
   27CHL1   H4A 1930   2.229   2.093   6.422 -1.0306  0.6034 -1.3809
   27CHL1   H4B 1931   2.274   1.919   6.408  1.4191 -1.0304 -4.4886
   27CHL1    C5 1932   2.207   2.024   6.220  0.2519 -0.3092 -0.4044
   27CHL1    C6 1933   2.302   1.964   6.145  0.2962 -0.6841 -0.4686
   27CHL1    H6 1934   2.374   1.908   6.205  2.0829  0.3707 -1.5337
   27CHL1    C7 1935   2.314   1.974   5.997  0.1825 -0.4812  0.3373
   27CHL1   H7A 1936   2.418   2.002   5.970 -0.1066 -1.6491 -2.2369
   27CHL1   H7B 1937   2.275   1.882   5.948  1.2278 -0.2401 -1.0246
   27CHL1    C8 1938   2.234   2.100   5.941  0.2775 -0.2747  0.9229
   27CHL1    H8 1939   2.280   2.191   5.987 -3.1500  0.5718  2.9887
   27CHL1   C14 1940   2.222   2.108   5.793  0.1450  0.4434  0.6405
   27CHL1   H14 1941   2.165   2.021   5.755  0.8977  1.2324 -2.6230
   27CHL1   C15 1942   2.356   2.097   5.712 -0.6274 -0.9381  0.3665
   27CHL1  H15A 1943   2.425   2.167   5.763 -0.0219  0.5938 -2.3595
   27CHL1  H15B 1944   2.382   1.989   5.718 -1.4032 -1.3019 -1.7710
   27CHL1   C16 1945   2.328   2.150   5.571 -0.9940  0.1252 -0.4457
   27CHL1  H16A 1946   2.405   2.224   5.540  0.2164 -0.9754 -0.1548
   27CHL1  H16B 1947   2.347   2.068   5.498 -1.2904 -2.1096  1.8447
   27CHL1   C17 1948   2.179   2.197   5.590 -0.2878 -0.5804 -0.0335
   27CHL1   H17 1949   2.119   2.112   5.554 -0.7480  0.3292 -1.5074
   27CHL1   C13 1950   2.150   2.226   5.737 -0.7967 -0.7420 -0.3704
   27CHL1   C18 1951   2.228   2.358   5.787  0.9765 -0.2247  0.8481
   27CHL1  H18A 1952   2.182   2.453   5.751  0.7342 -0.5687  0.2440
   27CHL1  H18B 1953   2.222   2.357   5.898 -0.5331 -2.3547  0.8127
   27CHL1  H18C 1954   2.338   2.351   5.772  0.9347 -1.2294  0.9596
   27CHL1   C12 1955   2.005   2.219   5.779  1.1268  0.9494 -0.1250
   27CHL1  H12A 1956   1.944   2.308   5.750 -0.4030 -0.2678 -0.7531
   27CHL1  H12B 1957   1.952   2.127   5.746 -1.1196  2.7311 -1.8299
   27CHL1   C11 1958   1.997   2.212   5.933  0.1462  0.0487 -0.1972
   27CHL1  H11A 1959   2.014   2.313   5.975 -2.4156 -0.0109  1.2135
   27CHL1  H11B 1960   1.894   2.175   5.954  1.0742 -2.6573 -0.1054
   27CHL1    C9 1961   2.089   2.101   5.997  0.1946  0.1563 -0.5463
   27CHL1    H9 1962   2.035   2.008   5.968 -1.4145  0.7357  0.4369
   27CHL1   C10 1963   2.090   2.105   6.153 -0.0729 -0.0628  0.2122
   27CHL1   C19 1964   2.098   2.250   6.211 -0.4260  0.3961  0.2893
   27CHL1  H19A 1965   2.004   2.309   6.201 -0.4417  0.2650 -0.4130
   27CHL1  H19B 1966   2.127   2.258   6.317  0.8705  1.8144 -0.1467
   27CHL1  H19C 1967   2.170   2.313   6.155 -0.1405 -2.1860 -2.5399
   27CHL1    C1 1968   1.962   2.035   6.213  0.3581  0.5357  0.2399
   27CHL1   H1A 1969   1.872   2.094   6.184  0.4017  0.6829  0.3992
   27CHL1   H1B 1970   1.950   1.942   6.154  0.3120  0.9727 -0.4579
   27CHL1    C2 1971   1.947   2.024   6.363 -0.3397  0.2691  0.2798
   27CHL1   H2A 1972   1.852   1.972   6.386 -0.6085  0.4365 -0.4300
   27CHL1   H2B 1973   1.948   2.127   6.405  0.9900  0.8000 -0.9552
   27CHL1   C20 1974   2.142   2.309   5.496 -0.1362 -0.6288  0.1689
   27CHL1   H20 1975   2.192   2.406   5.516  1.1507 -0.8471 -1.7638
   27CHL1   C21 1976   1.989   2.335   5.480  0.0749 -0.1303  0.5019
   27CHL1  H21A 1977   1.932   2.241   5.462  2.1019 -1.2515 -0.3532
   27CHL1  H21B 1978   1.969   2.412   5.403 -1.0468 -1.4194 -0.5404
   27CHL1  H21C 1979   1.947   2.386   5.570 -2.4482  0.6354 -0.9989
   27CHL1   C22 1980   2.198   2.281   5.352 -0.6215  0.7866  0.4358
   27CHL1  H22A 1981   2.154   2.360   5.287  1.0315 -0.4621 -2.4163
   27CHL1  H22B 1982   2.309   2.280   5.345 -0.5834  0.9997  0.9817
   27CHL1   C23 1983   2.146   2.154   5.288  0.4771  0.2202  0.1916
   27CHL1  H23A 1984   2.156   2.072   5.361 -1.9205  1.4123  1.9971
   27CHL1  H23B 1985   2.036   2.170   5.289  0.6678  1.7493  1.6188
   27CHL1   C24 1986   2.205   2.141   5.152 -0.1860  0.0380 -0.3308
   27CHL1  H24A 1987   2.159   2.222   5.092  1.1914  2.0926  1.2336
   27CHL1  H24B 1988   2.316   2.145   5.155 -0.1599  0.3528 -1.3436
   27CHL1   C25 1989   2.166   2.013   5.071  0.3953  0.7453 -1.1398
   27CHL1   H25 1990   2.055   2.019   5.062  0.1166  0.0738  1.3327
   27CHL1   C26 1991   2.234   2.037   4.941 -0.4641  0.1515  0.6566
   27CHL1  H26A 1992   2.208   1.954   4.872 -0.1892 -1.0474  1.9618
   27CHL1  H26B 1993   2.223   2.139   4.897  0.2623 -0.0884 -0.1117
   27CHL1  H26C 1994   2.344   2.021   4.953 -0.4565 -0.8303 -0.5324
   27CHL1   C27 1995   2.201   1.887   5.145 -0.2569 -0.2083 -0.4392
   27CHL1  H27A 1996   2.309   1.882   5.171 -0.8167 -0.0436  2.2865
   27CHL1  H27B 1997   2.149   1.898   5.243  0.1468 -1.2050 -0.0944
   27CHL1  H27C 1998   2.173   1.799   5.083  1.4461 -1.4603  0.4815
   28CHL1    C3 1999   6.557   5.176   6.289 -0.2579  0.4384  0.3906
   28CHL1    H3 2000   6.658   5.175   6.244 -1.4329 -1.6859 -2.5564
   28CHL1    O3 2001   6.566   5.204   6.427 -0.0657  0.0082  0.0186
   28CHL1   H3' 2002   6.594   5.120   6.465 -1.2150 -1.0431 -1.3652
   28CHL1    C4 2003   6.470   5.281   6.216  0.5008 -0.0208 -0.4174
   28CHL1   H4A 2004   6.370   5.310   6.255  1.6816  1.1761  1.8985
   28CHL1   H4B 2005   6.522   5.378   6.227 -2.0853  1.3366  0.8255
   28CHL1    C5 2006   6.464   5.251   6.071  0.3125 -0.3209  1.0601
   28CHL1    C6 2007   6.528   5.330   5.983 -0.0109 -0.7313 -0.8934
   28CHL1    H6 2008   6.575   5.426   6.010  0.1434 -0.7474 -1.1007
   28CHL1    C7 2009   6.535   5.302   5.834 -0.4887  1.0290  0.0522
   28CHL1   H7A 2010   6.510   5.391   5.772  0.9964  1.0726 -0.5256
   28CHL1   H7B 2011   6.631   5.260   5.797 -1.2185  0.1440 -0.8932
   28CHL1    C8 2012   6.440   5.184   5.786  0.2346 -0.5057 -0.5036
   28CHL1    H8 2013   6.337   5.226   5.795  0.4873 -0.1607  0.9768
   28CHL1   C14 2014   6.478   5.133   5.651 -1.1984  0.3671  0.2141
   28CHL1   H14 2015   6.576   5.083   5.669 -1.5148  0.5806  2.7637
   28CHL1   C15 2016   6.515   5.235   5.537  0.0252 -0.3352  0.1802
   28CHL1  H15A 2017   6.428   5.303   5.548  0.2568  0.3986 -1.9465
   28CHL1  H15B 2018   6.608   5.293   5.552 -1.2738  1.8812  0.0353
   28CHL1   C16 2019   6.500   5.159   5.408 -0.1260 -0.0252  0.5807
   28CHL1  H16A 2020   6.415   5.203   5.352 -2.6729 -1.3413  3.1543
   28CHL1  H16B 2021   6.588   5.158   5.340 -0.4576  4.3361 -0.2166
   28CHL1   C17 2022   6.455   5.012   5.445 -0.1007  0.3410 -0.5829
   28CHL1   H17 2023   6.548   4.958   5.472  1.7055  2.3920 -2.2649
   28CHL1   C13 2024   6.392   5.025   5.590 -0.3885  0.6111  0.6191
   28CHL1   C18 2025   6.246   5.076   5.584  0.4933 -0.3421  0.0772
   28CHL1  H18A 2026   6.255   5.169   5.523 -1.2156 -1.8319 -2.6299
   28CHL1  H18B 2027   6.182   5.004   5.529 -0.9599 -0.0349  1.3299
   28CHL1  H18C 2028   6.198   5.088   5.683  1.0608  0.1902  0.2969
   28CHL1   C12 2029   6.408   4.904   5.684  0.4569 -0.2520  0.0327
   28CHL1  H12A 2030   6.355   4.810   5.656 -0.0682  0.0535 -0.0113
   28CHL1  H12B 2031   6.517   4.885   5.676  0.6357 -0.8281  2.6319
   28CHL1   C11 2032   6.382   4.947   5.833 -1.3158  0.7212 -0.3099
   28CHL1  H11A 2033   6.271   4.955   5.833 -1.4395  0.0002 -3.0051
   28CHL1  H11B 2034   6.413   4.857   5.892  2.3100  3.2545  2.0515
   28CHL1    C9 2035   6.455   5.072   5.885 -0.0256  0.1942  0.9257
   28CHL1    H9 2036   6.564   5.049   5.884  0.1582  0.7279 -2.5155
   28CHL1   C10 2037   6.415   5.111   6.030 -1.0270  0.3152 -0.3793
   28CHL1   C19 2038   6.265   5.109   6.062  0.1813 -0.0926 -0.6980
   28CHL1  H19A 2039   6.249   5.147   6.166  1.8205 -1.8033  0.2320
   28CHL1  H19B 2040   6.196   5.175   6.005 -1.3486  1.3354  2.5522
   28CHL1  H19C 2041   6.221   5.008   6.063 -0.7728  0.3061  0.2609
   28CHL1    C1 2042   6.484   5.007   6.119  0.1913 -0.1041 -0.6797
   28CHL1   H1A 2043   6.418   4.918   6.117  0.1323 -0.0469 -2.4911
   28CHL1   H1B 2044   6.589   4.991   6.085  0.6110  2.8027 -1.0142
   28CHL1    C2 2045   6.495   5.041   6.270  0.2871 -0.0594 -0.6184
   28CHL1   H2A 2046   6.557   4.963   6.319 -1.8617 -1.1621  0.4716
   28CHL1   H2B 2047   6.390   5.044   6.307 -1.0401  1.1027 -4.0697
   28CHL1   C20 2048   6.376   4.925   5.343 -0.4392  0.1826 -0.3267
   28CHL1   H20 2049   6.280   4.978   5.327 -0.5135  0.2940  0.4233
   28CHL1   C21 2050   6.353   4.777   5.384 -0.0209 -0.2182 -0.2643
   28CHL1  H21A 2051   6.259   4.772   5.443 -0.0211  2.2199  0.0462
   28CHL1  H21B 2052   6.439   4.732   5.437  0.9134  2.5781  0.7492
   28CHL1  H21C 2053   6.351   4.714   5.293  1.4393  0.1743 -0.5781
   28CHL1   C22 2054   6.458   4.909   5.207 -0.3074  0.5999  0.0659
   28CHL1  H22A 2055   6.401   4.833   5.148  0.4020  0.3824 -0.3493
   28CHL1  H22B 2056   6.464   5.005   5.151  3.8379  0.3961 -0.1284
   28CHL1   C23 2057   6.607   4.859   5.216  0.0165 -1.1465 -0.4581
   28CHL1  H23A 2058   6.663   4.955   5.222 -3.0395  0.7203  1.0842
   28CHL1  H23B 2059   6.615   4.806   5.313  0.9680  0.6528  0.4908
   28CHL1   C24 2060   6.661   4.783   5.098 -0.2346 -0.0084 -0.3719
   28CHL1  H24A 2061   6.762   4.741   5.116 -0.2151  0.5222  0.8573
   28CHL1  H24B 2062   6.598   4.691   5.097 -0.8492  0.0809  4.6512
   28CHL1   C25 2063   6.668   4.856   4.966  0.3026  0.3078  0.2494
   28CHL1   H25 2064   6.582   4.926   4.965  0.6004  0.7141  1.2199
   28CHL1   C26 2065   6.804   4.928   4.955 -0.0511  0.4993  0.5579
   28CHL1  H26A 2066   6.830   4.988   5.045  0.3836  1.1233  0.0300
   28CHL1  H26B 2067   6.884   4.851   4.945 -0.9208 -0.3709  0.1439
   28CHL1  H26C 2068   6.803   5.000   4.870 -1.7621 -0.8991 -0.6726
   28CHL1   C27 2069   6.641   4.757   4.850  0.5424  0.2396 -0.6042
   28CHL1  H27A 2070   6.628   4.815   4.756 -0.9290  0.9979  0.0380
   28CHL1  H27B 2071   6.729   4.689   4.841 -0.6222 -1.1551 -2.0665
   28CHL1  H27C 2072   6.547   4.700   4.868 -1.1695  2.1282 -2.8219
   29CHL1    C3 2073   0.295   1.979   3.052 -0.5861  1.1025  0.7297
   29CHL1    H3 2074   0.404   1.969   3.073 -0.9858 -2.1935  1.7287
   29CHL1    O3 2075   0.275   1.989   2.915  0.1304 -0.1437  0.4325
   29CHL1   H3' 2076   0.194   1.945   2.886  0.6943 -0.4170 -0.8147
   29CHL1    C4 2077   0.228   1.853   3.107  0.0704  0.0197  0.0074
   29CHL1   H4A 2078   0.121   1.873   3.081  0.2266  0.4191 -0.3326
   29CHL1   H4B 2079   0.268   1.767   3.049 -0.9607 -0.4828  0.0017
   29CHL1    C5 2080   0.244   1.818   3.248  0.4971 -0.3604 -0.8157
   29CHL1    C6 2081   0.286   1.703   3.298  0.0731  0.4316  0.1511
   29CHL1    H6 2082   0.322   1.627   3.227  0.6577  0.7963  0.0477
   29CHL1    C7 2083   0.303   1.674   3.445  0.4112  0.0615 -0.5068
   29CHL1   H7A 2084   0.292   1.565   3.466  0.6099  0.5345  2.4969
   29CHL1   H7B 2085   0.412   1.692   3.462  0.9237 -2.2495 -0.8842
   29CHL1    C8 2086   0.227   1.770   3.534 -0.2979 -0.0891 -0.8796
   29CHL1    H8 2087   0.124   1.730   3.520 -0.2496 -0.3315 -0.5706
   29CHL1   C14 2088   0.266   1.739   3.673  0.2739 -0.1951 -0.7918
   29CHL1   H14 2089   0.375   1.762   3.683  0.2707  0.5489 -2.1419
   29CHL1   C15 2090   0.261   1.592   3.720 -0.5023  0.2346  0.6306
   29CHL1  H15A 2091   0.166   1.544   3.689  0.9600 -2.9505  0.6682
   29CHL1  H15B 2092   0.339   1.520   3.687 -1.6877 -1.3345  1.1768
   29CHL1   C16 2093   0.268   1.615   3.872  0.1759 -0.1660 -0.0940
   29CHL1  H16A 2094   0.183   1.555   3.910  1.2344 -1.5775  0.1053
   29CHL1  H16B 2095   0.367   1.584   3.911  0.4933  0.5354 -0.3269
   29CHL1   C17 2096   0.244   1.763   3.914  0.6790  0.5315 -0.3055
   29CHL1   H17 2097   0.349   1.800   3.919  0.5874  1.0001 -1.5000
   29CHL1   C13 2098   0.194   1.824   3.780 -0.7337 -0.4699 -0.2811
   29CHL1   C18 2099   0.045   1.790   3.777 -0.2406 -1.0206  0.1381
   29CHL1  H18A 2100  -0.001   1.817   3.680 -1.3391  2.7928  1.5512
   29CHL1  H18B 2101   0.018   1.686   3.808  0.6735 -1.0968  0.7391
   29CHL1  H18C 2102   0.005   1.856   3.857  0.7606 -1.6487  1.2028
   29CHL1   C12 2103   0.232   1.971   3.750  0.7256 -0.2461  0.1906
   29CHL1  H12A 2104   0.167   2.035   3.812  0.9385  0.4129 -0.2538
   29CHL1  H12B 2105   0.340   1.999   3.756  0.3637  1.3175 -0.1682
   29CHL1   C11 2106   0.191   2.009   3.601 -0.1816  0.3283  0.1887
   29CHL1  H11A 2107   0.082   2.023   3.586 -0.1839  1.2981  1.0191
   29CHL1  H11B 2108   0.228   2.112   3.586  1.5086 -0.1311  0.9228
   29CHL1    C9 2109   0.252   1.916   3.494  0.8458  0.3369 -0.2863
   29CHL1    H9 2110   0.362   1.929   3.490  1.1504 -1.4796  0.9004
   29CHL1   C10 2111   0.203   1.942   3.344 -0.6180 -0.4041 -0.2876
   29CHL1   C19 2112   0.052   1.958   3.335  0.3373  0.1423 -0.3257
   29CHL1  H19A 2113   0.036   2.055   3.387 -2.0140  0.1257 -0.9014
   29CHL1  H19B 2114  -0.001   1.974   3.239 -2.3909  0.4711  1.1257
   29CHL1  H19C 2115  -0.017   1.884   3.381  0.0510 -0.8463 -2.2283
   29CHL1    C1 2116   0.274   2.069   3.279  0.0219  0.5083 -0.2537
   29CHL1   H1A 2117   0.241   2.156   3.340  0.5271  4.1424 -4.6067
   29CHL1   H1B 2118   0.384   2.066   3.293 -0.1439  1.1269  1.5042
   29CHL1    C2 2119   0.238   2.093   3.129  0.3516 -0.6745 -0.6585
   29CHL1   H2A 2120   0.292   2.184   3.094  1.0181 -1.0604 -0.6627
   29CHL1   H2B 2121   0.130   2.104   3.105  0.6225  0.6679 -1.3696
   29CHL1   C20 2122   0.184   1.792   4.053 -0.1414 -0.2235 -0.5834
   29CHL1   H20 2123   0.076   1.774   4.031 -0.3876 -0.3999  0.7164
   29CHL1   C21 2124   0.192   1.934   4.102 -0.1387  0.8202 -0.0687
   29CHL1  H21A 2125   0.161   2.007   4.024 -2.7172  1.4957  1.4622
   29CHL1  H21B 2126   0.295   1.963   4.131  0.8525 -1.9556 -0.5484
   29CHL1  H21C 2127   0.114   1.946   4.180 -1.8272 -0.2453 -1.5056
   29CHL1   C22 2128   0.238   1.691   4.160  0.3380  0.0274  0.4648
   29CHL1  H22A 2129   0.227   1.587   4.122 -0.7060 -0.2353  1.3999
   29CHL1  H22B 2130   0.343   1.717   4.182  0.9187  0.2440 -2.2513
   29CHL1   C23 2131   0.164   1.696   4.290 -0.5761 -0.1551  0.1705
   29CHL1  H23A 2132   0.214   1.771   4.356 -1.5516 -0.7164  1.5854
   29CHL1  H23B 2133   0.067   1.738   4.257  0.3193  1.5097 -0.4914
   29CHL1   C24 2134   0.152   1.561   4.368 -0.5438 -0.5490 -0.2863
   29CHL1  H24A 2135   0.089   1.588   4.456  0.3140  1.8020 -0.3232
   29CHL1  H24B 2136   0.102   1.478   4.313 -0.9838 -1.0718  0.8675
   29CHL1   C25 2137   0.287   1.517   4.436  0.0020 -0.2511  0.5856
   29CHL1   H25 2138   0.369   1.518   4.361  1.9592 -0.6557  2.6324
   29CHL1   C26 2139   0.330   1.611   4.548 -0.3791  0.2469 -0.6702
   29CHL1  H26A 2140   0.266   1.602   4.639  0.0376  2.5795 -0.0805
   29CHL1  H26B 2141   0.432   1.585   4.583 -0.2155  1.1225 -0.4851
   29CHL1  H26C 2142   0.321   1.720   4.531  3.6372  0.7763 -0.3032
   29CHL1   C27 2143   0.278   1.366   4.485 -0.7177 -0.3492 -0.0945
   29CHL1  H27A 2144   0.240   1.313   4.395 -1.9025 -0.5956  0.5292
   29CHL1  H27B 2145   0.380   1.334   4.514  0.7349  2.7311 -1.3282
   29CHL1  H27C 2146   0.202   1.378   4.566 -0.0521  2.1054  0.2645
   30CHL1    C3 2147   6.410   2.601   3.479  1.4197  0.1013  0.7420
   30CHL1    H3 2148   6.332   2.657   3.534  3.1842  3.2382  0.2895
   30CHL1    O3 2149   6.386   2.631   3.340 -0.2220 -0.2209 -0.0866
   30CHL1   H3' 2150   6.445   2.573   3.291 -0.2332 -2.2074  2.0956
   30CHL1    C4 2151   6.544   2.646   3.528  0.4519 -0.6466  0.0720
   30CHL1   H4A 2152   6.612   2.587   3.464  1.8437  0.3596  0.5832
   30CHL1   H4B 2153   6.569   2.751   3.503  0.6044 -0.6441  0.2355
   30CHL1    C5 2154   6.556   2.613   3.675  0.2120  0.3467 -0.1249
   30CHL1    C6 2155   6.580   2.709   3.763 -0.5436  0.5604 -0.8198
   30CHL1    H6 2156   6.599   2.808   3.717 -1.5715  0.1007 -2.3210
   30CHL1    C7 2157   6.610   2.683   3.905  0.4099  0.6821 -0.2841
   30CHL1   H7A 2158   6.704   2.737   3.932  0.4625 -0.6046  2.3821
   30CHL1   H7B 2159   6.527   2.721   3.967 -2.1566 -1.5495 -2.1466
   30CHL1    C8 2160   6.640   2.533   3.943 -0.1439 -0.6200 -0.6045
   30CHL1    H8 2161   6.744   2.515   3.908  0.8421  0.7260  1.4528
   30CHL1   C14 2162   6.636   2.512   4.094 -0.3103  0.9074  0.3299
   30CHL1   H14 2163   6.535   2.535   4.135 -0.8992  0.4288 -0.8211
   30CHL1   C15 2164   6.733   2.606   4.180  0.5656  0.4219 -0.4227
   30CHL1  H15A 2165   6.831   2.612   4.126  0.7425  0.6805 -0.0776
   30CHL1  H15B 2166   6.698   2.709   4.201 -0.3336  0.3700 -1.6029
   30CHL1   C16 2167   6.739   2.535   4.312 -0.1240  0.0586  0.0659
   30CHL1  H16A 2168   6.846   2.515   4.334  0.0177 -0.3385 -0.9192
   30CHL1  H16B 2169   6.685   2.590   4.392 -1.2531  0.2152 -0.7743
   30CHL1   C17 2170   6.678   2.396   4.294 -0.5623 -0.3604  0.4879
   30CHL1   H17 2171   6.572   2.404   4.326 -0.9015  1.5186 -0.9280
   30CHL1   C13 2172   6.669   2.372   4.147  0.1170  0.0822  0.0192
   30CHL1   C18 2173   6.800   2.318   4.087 -0.6196  0.0773 -0.1980
   30CHL1  H18A 2174   6.820   2.220   4.136  1.7619 -1.3141 -3.5638
   30CHL1  H18B 2175   6.795   2.308   3.977 -3.4641  1.4370 -0.2827
   30CHL1  H18C 2176   6.894   2.370   4.117  0.7193 -1.9850 -0.6526
   30CHL1   C12 2177   6.553   2.283   4.084  0.1897  1.2991  0.3996
   30CHL1  H12A 2178   6.590   2.182   4.114  0.4865  1.4058  0.3967
   30CHL1  H12B 2179   6.457   2.298   4.138 -0.2010  0.0028  0.1010
   30CHL1   C11 2180   6.535   2.301   3.931 -0.5084  0.3432 -0.0775
   30CHL1  H11A 2181   6.619   2.250   3.880 -1.3847 -0.7549 -0.4643
   30CHL1  H11B 2182   6.443   2.247   3.899 -0.3050  0.5358 -1.0094
   30CHL1    C9 2183   6.533   2.446   3.873  0.7219 -0.3293 -0.0506
   30CHL1    H9 2184   6.438   2.485   3.915  0.8869 -1.9889  2.0390
   30CHL1   C10 2185   6.540   2.469   3.715  0.1301  0.5198 -1.2385
   30CHL1   C19 2186   6.661   2.384   3.661 -0.3333 -0.9917  0.0320
   30CHL1  H19A 2187   6.667   2.386   3.550 -1.8508 -0.6201 -0.0607
   30CHL1  H19B 2188   6.757   2.432   3.692 -0.3464 -1.2226  0.4407
   30CHL1  H19C 2189   6.663   2.276   3.685 -1.6320 -1.0722 -0.1749
   30CHL1    C1 2190   6.411   2.413   3.652 -0.5498  0.8017 -0.3669
   30CHL1   H1A 2191   6.408   2.303   3.668  0.4134  0.8225  0.0423
   30CHL1   H1B 2192   6.320   2.456   3.698  0.1417 -0.4379  2.4139
   30CHL1    C2 2193   6.387   2.447   3.506  0.1388 -0.3276  0.5366
   30CHL1   H2A 2194   6.290   2.414   3.463  0.1783 -0.1459  0.3065
   30CHL1   H2B 2195   6.466   2.384   3.460  0.0961 -0.4838  0.6772
   30CHL1   C20 2196   6.745   2.289   4.390  0.2530  0.3568  0.1370
   30CHL1   H20 2197   6.853   2.283   4.365 -0.2734  0.1879 -2.3190
   30CHL1   C21 2198   6.702   2.137   4.369 -0.3523 -1.1755  0.0715
   30CHL1  H21A 2199   6.751   2.080   4.450  0.0664  1.5312  1.8094
   30CHL1  H21B 2200   6.728   2.098   4.268 -0.2720  0.6000 -0.6309
   30CHL1  H21C 2201   6.593   2.120   4.382 -0.2001 -0.8808  1.9220
   30CHL1   C22 2202   6.734   2.328   4.541  0.4068 -0.3554 -0.4713
   30CHL1  H22A 2203   6.634   2.374   4.556  1.9211  2.5149  1.9271
   30CHL1  H22B 2204   6.732   2.237   4.605 -0.6059 -1.4073 -1.9541
   30CHL1   C23 2205   6.838   2.420   4.603 -0.4751 -0.2870 -0.1334
   30CHL1  H23A 2206   6.941   2.383   4.582 -0.1208  0.5670  0.0586
   30CHL1  H23B 2207   6.833   2.526   4.571  1.5352 -0.0126  0.3260
   30CHL1   C24 2208   6.821   2.454   4.760 -0.3866 -0.0611  0.2301
   30CHL1  H24A 2209   6.902   2.520   4.798 -0.7799  0.0347  0.9227
   30CHL1  H24B 2210   6.720   2.499   4.768 -0.3197 -0.1272  1.7571
   30CHL1   C25 2211   6.795   2.334   4.856  0.1305 -0.3625  0.1223
   30CHL1   H25 2212   6.710   2.269   4.827 -0.6684 -0.6238  2.7787
   30CHL1   C26 2213   6.920   2.249   4.866 -0.5558 -0.0062 -0.2388
   30CHL1  H26A 2214   6.915   2.193   4.961  0.7957 -0.3174 -0.3311
   30CHL1  H26B 2215   6.922   2.182   4.777  0.4909 -1.2037  0.6560
   30CHL1  H26C 2216   7.005   2.320   4.878 -0.9296  0.5179 -0.6576
   30CHL1   C27 2217   6.765   2.375   5.003  0.2647  0.6499  0.4075
   30CHL1  H27A 2218   6.860   2.406   5.051  0.4175 -0.4664  0.8599
   30CHL1  H27B 2219   6.684   2.451   5.013  0.3563  0.5779  2.0083
   30CHL1  H27C 2220   6.730   2.284   5.057 -0.7310  0.5401 -0.4013
   31CHL1    C3 2221   5.963   3.308   3.316  0.1372 -0.8414  0.4967
   31CHL1    H3 2222   5.856   3.289   3.294  0.0149  0.1944  0.1724
   31CHL1    O3 2223   6.045   3.290   3.201  0.6476  0.3718  0.1696
   31CHL1   H3' 2224   6.007   3.356   3.142  0.3071  2.1644  2.2561
   31CHL1    C4 2225   5.980   3.456   3.368 -0.1484 -0.4022  0.4941
   31CHL1   H4A 2226   6.090   3.462   3.381 -0.1564 -0.3258  0.5233
   31CHL1   H4B 2227   5.950   3.536   3.297 -2.0681  1.5199  3.2568
   31CHL1    C5 2228   5.916   3.475   3.505 -0.3238 -0.7003 -0.0715
   31CHL1    C6 2229   5.813   3.564   3.517 -0.9064 -0.3329 -0.1432
   31CHL1    H6 2230   5.786   3.622   3.428 -0.8293  0.4552  0.3404
   31CHL1    C7 2231   5.745   3.588   3.654 -0.1220  0.3384  0.4823
   31CHL1   H7A 2232   5.745   3.698   3.668  1.6079  0.4904 -0.4498
   31CHL1   H7B 2233   5.639   3.554   3.649 -0.3420  1.1299 -0.6612
   31CHL1    C8 2234   5.823   3.525   3.772 -0.3992  0.5575  0.7058
   31CHL1    H8 2235   5.911   3.592   3.787 -0.6481  0.7792  1.1833
   31CHL1   C14 2236   5.739   3.528   3.892  0.3315 -0.7948  0.9188
   31CHL1   H14 2237   5.653   3.462   3.868  0.2119  0.1857 -1.7053
   31CHL1   C15 2238   5.682   3.669   3.928 -0.1556  0.6846 -0.3032
   31CHL1  H15A 2239   5.769   3.738   3.918 -0.6587  1.0386 -3.0666
   31CHL1  H15B 2240   5.598   3.694   3.860  1.8404 -0.2770 -3.3815
   31CHL1   C16 2241   5.629   3.645   4.069  0.3582  0.4551  0.3363
   31CHL1  H16A 2242   5.653   3.737   4.126  0.7839  1.0319 -0.7709
   31CHL1  H16B 2243   5.518   3.642   4.074  0.1891  4.0494  1.4882
   31CHL1   C17 2244   5.676   3.500   4.118  0.1235  0.3897  0.8575
   31CHL1   H17 2245   5.602   3.432   4.071 -1.7813  3.8406 -1.6510
   31CHL1   C13 2246   5.799   3.467   4.022  0.1957 -0.0411  0.2632
   31CHL1   C18 2247   5.920   3.548   4.078 -0.8797  0.5868  0.7905
   31CHL1  H18A 2248   5.951   3.505   4.176 -0.3746 -0.8857  0.0193
   31CHL1  H18B 2249   6.012   3.545   4.016 -1.9001  0.7214 -0.7775
   31CHL1  H18C 2250   5.882   3.648   4.106 -2.7025  0.1904 -0.1002
   31CHL1   C12 2251   5.829   3.316   3.994 -0.7115 -0.1581  0.2401
   31CHL1  H12A 2252   5.873   3.256   4.076  0.4427 -1.5054 -1.2961
   31CHL1  H12B 2253   5.738   3.266   3.955 -0.5117 -0.0403 -0.3915
   31CHL1   C11 2254   5.923   3.307   3.870  0.2490 -0.2721 -0.7789
   31CHL1  H11A 2255   6.023   3.345   3.897 -0.0652  0.2089 -0.2736
   31CHL1  H11B 2256   5.935   3.200   3.840  0.4853  0.1851 -2.4397
   31CHL1    C9 2257   5.873   3.386   3.738  0.3587  0.5654  0.2781
   31CHL1    H9 2258   5.784   3.329   3.704  2.1796 -0.5961 -2.9077
   31CHL1   C10 2259   5.962   3.374   3.614  0.4472 -0.6415  0.5618
   31CHL1   C19 2260   6.108   3.410   3.657  0.7823 -0.2582  1.0102
   31CHL1  H19A 2261   6.140   3.348   3.743 -1.0335 -0.6817  1.4124
   31CHL1  H19B 2262   6.188   3.382   3.585 -2.3107 -1.7647 -2.1879
   31CHL1  H19C 2263   6.110   3.518   3.685  0.9118  0.0494 -0.1037
   31CHL1    C1 2264   5.943   3.230   3.550 -0.3525  0.2502  0.1129
   31CHL1   H1A 2265   5.988   3.159   3.623  0.5301  0.6295 -0.0434
   31CHL1   H1B 2266   5.837   3.201   3.535  0.0048 -1.7166  0.9897
   31CHL1    C2 2267   6.014   3.205   3.415  0.1164 -0.0656 -0.5550
   31CHL1   H2A 2268   5.995   3.099   3.386  3.6045 -0.6839 -1.0231
   31CHL1   H2B 2269   6.124   3.218   3.419  0.4947 -2.8265  0.3285
   31CHL1   C20 2270   5.676   3.482   4.272 -0.6531 -0.3655  0.1618
   31CHL1   H20 2271   5.572   3.510   4.300 -0.8951 -0.9466 -0.1412
   31CHL1   C21 2272   5.766   3.582   4.351  0.3262 -0.8978 -0.0289
   31CHL1  H21A 2273   5.768   3.680   4.299 -1.2121 -0.1813  1.1793
   31CHL1  H21B 2274   5.868   3.539   4.353  0.1010 -1.4943  3.0215
   31CHL1  H21C 2275   5.744   3.594   4.459  1.1832  1.4149 -0.0388
   31CHL1   C22 2276   5.687   3.341   4.312 -0.5028  0.0522 -0.3546
   31CHL1  H22A 2277   5.616   3.277   4.255 -1.2583  1.4281 -1.0014
   31CHL1  H22B 2278   5.791   3.309   4.292 -0.7546 -0.6067 -0.6468
   31CHL1   C23 2279   5.666   3.304   4.457 -0.5589 -0.2940  0.0276
   31CHL1  H23A 2280   5.694   3.198   4.468  1.9272  0.0941 -1.6840
   31CHL1  H23B 2281   5.728   3.360   4.531 -1.3703  1.2877 -0.4278
   31CHL1   C24 2282   5.524   3.325   4.514 -0.0042  0.4688 -0.0751
   31CHL1  H24A 2283   5.491   3.431   4.510 -0.6911  0.2457 -0.4189
   31CHL1  H24B 2284   5.454   3.251   4.471 -0.2536  1.3718 -1.2625
   31CHL1   C25 2285   5.514   3.287   4.669  0.0398 -0.3708  0.8851
   31CHL1   H25 2286   5.405   3.283   4.691  0.2976 -1.4926  2.0675
   31CHL1   C26 2287   5.574   3.148   4.704 -0.8323 -0.2772  0.0380
   31CHL1  H26A 2288   5.680   3.154   4.672 -0.5641  1.8063  1.1309
   31CHL1  H26B 2289   5.579   3.131   4.813  0.5696 -0.6713 -0.0700
   31CHL1  H26C 2290   5.508   3.078   4.648 -1.0932  0.0002 -0.0043
   31CHL1   C27 2291   5.578   3.385   4.767  0.3022  0.1616  0.8886
   31CHL1  H27A 2292   5.689   3.381   4.755  0.0807  0.9907 -3.0596
   31CHL1  H27B 2293   5.543   3.489   4.747 -0.6947 -0.6417 -2.1765
   31CHL1  H27C 2294   5.542   3.355   4.867  1.9963 -3.7425  0.5064
   32CHL1    C3 2295   5.895   0.954   3.282  1.4229 -0.0479  0.2678
   32CHL1    H3 2296   5.901   1.061   3.312  0.5040 -0.2165  1.0874
   32CHL1    O3 2297   5.901   0.951   3.143  0.4996  0.6350  0.2990
   32CHL1   H3' 2298   5.973   1.011   3.124  1.4908 -0.0585  1.7013
   32CHL1    C4 2299   6.020   0.889   3.345 -0.4867  0.1983  0.4889
   32CHL1   H4A 2300   6.018   0.785   3.307  0.7200  0.7544 -1.2245
   32CHL1   H4B 2301   6.105   0.946   3.301 -0.1956 -0.7575 -0.2284
   32CHL1    C5 2302   6.016   0.897   3.497  0.0093 -0.3909 -0.5434
   32CHL1    C6 2303   6.116   0.961   3.567  0.3784 -0.3041 -0.2837
   32CHL1    H6 2304   6.205   1.000   3.514 -1.2718  2.4349 -1.2466
   32CHL1    C7 2305   6.113   0.967   3.721 -0.0215 -0.3481  0.1810
   32CHL1   H7A 2306   6.213   0.943   3.762 -0.3580 -1.2208  0.5177
   32CHL1   H7B 2307   6.094   1.072   3.752  0.0408 -0.0680 -0.7108
   32CHL1    C8 2308   6.003   0.890   3.790  0.3901  1.0877 -0.0525
   32CHL1    H8 2309   6.046   0.790   3.813 -1.7412  0.3655  1.1599
   32CHL1   C14 2310   5.965   0.949   3.924  0.0348 -0.1921 -0.2555
   32CHL1   H14 2311   5.925   1.049   3.897  1.2189  0.0405 -1.2229
   32CHL1   C15 2312   6.074   0.986   4.022 -0.5928  0.0022 -0.2900
   32CHL1  H15A 2313   6.139   0.896   4.020 -0.5832  0.0272 -1.6851
   32CHL1  H15B 2314   6.140   1.069   3.993  0.8443 -1.3575 -1.0649
   32CHL1   C16 2315   5.993   1.015   4.151 -0.0282  0.1120 -0.1579
   32CHL1  H16A 2316   6.056   0.957   4.222  1.0015  1.4513  0.0759
   32CHL1  H16B 2317   5.995   1.124   4.177  1.3537  0.2267 -0.6461
   32CHL1   C17 2318   5.854   0.961   4.131  0.2710 -0.3487  0.0322
   32CHL1   H17 2319   5.794   1.052   4.109  0.0478 -0.5841 -0.3642
   32CHL1   C13 2320   5.855   0.880   3.999 -0.1841  0.5740 -0.2539
   32CHL1   C18 2321   5.910   0.736   4.039 -0.4192  0.2923 -0.9892
   32CHL1  H18A 2322   5.953   0.688   3.948 -0.0966 -0.0987 -0.6366
   32CHL1  H18B 2323   5.971   0.739   4.132 -1.9876 -1.6788  0.1812
   32CHL1  H18C 2324   5.827   0.668   4.066  0.5540 -1.3708 -1.9958
   32CHL1   C12 2325   5.732   0.877   3.914 -1.1795 -0.2364  0.3726
   32CHL1  H12A 2326   5.639   0.857   3.971 -2.0642  0.4338 -0.7977
   32CHL1  H12B 2327   5.716   0.986   3.901  1.1435  0.1220  0.1575
   32CHL1   C11 2328   5.755   0.809   3.782 -0.6050  0.4400  0.4188
   32CHL1  H11A 2329   5.766   0.698   3.784 -1.3780  0.3496 -0.0340
   32CHL1  H11B 2330   5.661   0.817   3.722  0.4430 -1.6137 -1.6728
   32CHL1    C9 2331   5.869   0.879   3.703 -0.1716 -0.2648  0.4719
   32CHL1    H9 2332   5.847   0.988   3.709  0.8132 -0.1009  1.2170
   32CHL1   C10 2333   5.880   0.841   3.555 -0.2005  0.0325  0.0921
   32CHL1   C19 2334   5.906   0.681   3.555 -0.5873 -0.0136 -0.2541
   32CHL1  H19A 2335   5.807   0.637   3.581 -0.7755 -1.3553 -2.8615
   32CHL1  H19B 2336   5.934   0.648   3.453 -1.0392 -1.0369 -0.0567
   32CHL1  H19C 2337   5.982   0.649   3.630 -0.3335  0.6818 -0.2067
   32CHL1    C1 2338   5.752   0.887   3.481  0.4465 -0.0244  0.3155
   32CHL1   H1A 2339   5.661   0.826   3.499 -0.9718  1.7492 -0.5579
   32CHL1   H1B 2340   5.723   0.991   3.507  1.0737  0.6608 -1.5433
   32CHL1    C2 2341   5.764   0.889   3.330  0.1210 -0.1883 -0.4113
   32CHL1   H2A 2342   5.682   0.947   3.284  0.7149  1.2167  0.2618
   32CHL1   H2B 2343   5.763   0.788   3.283  0.9251  0.3378 -1.6071
   32CHL1   C20 2344   5.790   0.899   4.260 -0.5301 -0.9364 -0.0858
   32CHL1   H20 2345   5.836   0.798   4.271  2.3680  0.2808 -0.1225
   32CHL1   C21 2346   5.639   0.874   4.241  0.5288  0.0838  0.0581
   32CHL1  H21A 2347   5.613   0.800   4.163 -1.2195 -0.3850  1.0457
   32CHL1  H21B 2348   5.587   0.968   4.211  0.8368 -0.5457 -2.8151
   32CHL1  H21C 2349   5.595   0.855   4.341  3.4186 -0.1049  1.4092
   32CHL1   C22 2350   5.827   0.994   4.385  0.4136 -0.5957  0.2611
   32CHL1  H22A 2351   5.938   0.992   4.396  0.3109 -0.7245  1.3975
   32CHL1  H22B 2352   5.790   1.096   4.365  0.8249 -0.1335  1.7297
   32CHL1   C23 2353   5.775   0.950   4.520 -0.0340 -0.1461 -0.1885
   32CHL1  H23A 2354   5.668   0.972   4.541  0.3310 -0.2456  2.0423
   32CHL1  H23B 2355   5.797   0.841   4.515  0.7639 -0.0296  0.5898
   32CHL1   C24 2356   5.859   1.004   4.640  0.2115  0.2768  0.3322
   32CHL1  H24A 2357   5.968   1.005   4.618  0.0269 -1.4348 -0.8475
   32CHL1  H24B 2358   5.829   1.109   4.655  0.6841  0.1997  2.0210
   32CHL1   C25 2359   5.850   0.929   4.778  0.0858 -0.0686  0.0365
   32CHL1   H25 2360   5.910   0.982   4.854  1.0013  0.6528 -1.1506
   32CHL1   C26 2361   5.700   0.933   4.824 -0.0477  0.4400  0.5500
   32CHL1  H26A 2362   5.634   0.863   4.769  2.1250 -0.0507 -1.6100
   32CHL1  H26B 2363   5.713   0.900   4.929 -1.3419 -0.6214  0.4018
   32CHL1  H26C 2364   5.670   1.040   4.828 -2.5670 -0.0634 -1.7696
   32CHL1   C27 2365   5.881   0.779   4.764  1.3278 -0.7776 -0.0492
   32CHL1  H27A 2366   5.984   0.756   4.730  0.9597  0.8592 -2.5673
   32CHL1  H27B 2367   5.869   0.728   4.861 -2.4480  0.1346  0.1367
   32CHL1  H27C 2368   5.809   0.733   4.692 -0.9303 -0.4621  1.8868
   33CHL1    C3 2369   3.190   2.614   3.286 -0.3560 -0.1389 -0.2784
   33CHL1    H3 2370   3.217   2.510   3.314 -1.1592 -0.1377  0.5470
   33CHL1    O3 2371   3.164   2.619   3.150 -0.1597 -0.3077 -0.1441
   33CHL1   H3' 2372   3.128   2.707   3.133 -3.1707 -1.0699  1.5633
   33CHL1    C4 2373   3.065   2.658   3.359  0.3241 -0.2258  0.5048
   33CHL1   H4A 2374   3.024   2.752   3.316  0.6250  0.5763  1.9043
   33CHL1   H4B 2375   2.987   2.581   3.338  0.6731 -0.6021  0.5892
   33CHL1    C5 2376   3.075   2.679   3.502 -0.5943  0.2584 -0.2057
   33CHL1    C6 2377   2.994   2.604   3.584  0.3657 -0.3434  0.1255
   33CHL1    H6 2378   2.925   2.532   3.538  1.9519 -0.9324 -1.4925
   33CHL1    C7 2379   2.999   2.607   3.737  0.3873 -0.8631  0.7482
   33CHL1   H7A 2380   2.893   2.616   3.768  1.1311 -0.4431  3.3280
   33CHL1   H7B 2381   3.047   2.517   3.782 -1.7867 -2.6044 -0.2062
   33CHL1    C8 2382   3.080   2.734   3.784  0.6168  0.1783  0.6059
   33CHL1    H8 2383   3.022   2.828   3.770 -0.2929 -0.1399  1.9959
   33CHL1   C14 2384   3.103   2.736   3.930 -0.2928  1.0549 -0.2611
   33CHL1   H14 2385   3.161   2.642   3.942 -2.1087 -0.0061  0.5899
   33CHL1   C15 2386   2.992   2.726   4.033  0.2632  0.4048  0.2453
   33CHL1  H15A 2387   2.912   2.797   3.999  0.2970  0.0278 -0.6638
   33CHL1  H15B 2388   2.980   2.621   4.065  3.1455 -0.0162  0.1480
   33CHL1   C16 2389   3.050   2.784   4.155  0.2455  0.1041 -0.0118
   33CHL1  H16A 2390   2.988   2.863   4.203 -0.3403 -1.0177  1.1749
   33CHL1  H16B 2391   3.049   2.705   4.234 -0.3389  1.0019  0.9095
   33CHL1   C17 2392   3.193   2.827   4.130 -0.1213 -0.4070 -0.0789
   33CHL1   H17 2393   3.265   2.746   4.151  0.9160  1.0537  2.5054
   33CHL1   C13 2394   3.199   2.844   3.981  0.6772 -0.2411 -0.3949
   33CHL1   C18 2395   3.149   2.985   3.950  0.4653 -0.3243  0.3259
   33CHL1  H18A 2396   3.231   3.058   3.965 -0.3149  0.3213  1.7377
   33CHL1  H18B 2397   3.108   2.992   3.847 -1.1373 -0.6524  0.9122
   33CHL1  H18C 2398   3.067   3.016   4.019  1.4618  0.9461  0.9877
   33CHL1   C12 2399   3.335   2.813   3.922  0.0145 -0.5602 -0.1901
   33CHL1  H12A 2400   3.419   2.878   3.953  0.3730 -1.9104  1.8687
   33CHL1  H12B 2401   3.359   2.708   3.949  0.9068 -0.6222 -1.1533
   33CHL1   C11 2402   3.318   2.830   3.765  0.3701  0.7445 -0.1140
   33CHL1  H11A 2403   3.286   2.936   3.750 -0.6959  0.5362  0.5852
   33CHL1  H11B 2404   3.408   2.815   3.703 -0.5118 -0.6527 -1.0906
   33CHL1    C9 2405   3.211   2.737   3.699 -0.6568  0.2552 -0.4268
   33CHL1    H9 2406   3.259   2.637   3.706 -2.2559 -0.4767  0.7092
   33CHL1   C10 2407   3.194   2.764   3.550 -0.0007  0.3662 -0.6735
   33CHL1   C19 2408   3.148   2.911   3.530 -0.1504  0.7274 -0.4250
   33CHL1  H19A 2409   3.242   2.966   3.555 -0.4514  0.8675  0.4511
   33CHL1  H19B 2410   3.110   2.933   3.428  0.2908  0.1833 -0.7096
   33CHL1  H19C 2411   3.075   2.942   3.608  1.5070  0.8157  1.1532
   33CHL1    C1 2412   3.323   2.717   3.475  0.0553 -0.3372  0.0840
   33CHL1   H1A 2413   3.408   2.786   3.494  0.6512 -0.1939 -2.7181
   33CHL1   H1B 2414   3.326   2.611   3.508  0.2910 -0.1582  0.6528
   33CHL1    C2 2415   3.310   2.709   3.322  0.1982 -0.1227  0.5777
   33CHL1   H2A 2416   3.404   2.669   3.278 -0.3396 -0.1663 -0.5939
   33CHL1   H2B 2417   3.296   2.810   3.278  0.5322 -0.4324 -0.2665
   33CHL1   C20 2418   3.245   2.940   4.226  0.1878  0.8126  0.0372
   33CHL1   H20 2419   3.187   3.032   4.200 -0.6570  0.3792  0.3367
   33CHL1   C21 2420   3.398   2.961   4.202 -0.1290  0.3231  0.2610
   33CHL1  H21A 2421   3.430   3.045   4.268  2.7205  0.1019 -0.7064
   33CHL1  H21B 2422   3.427   2.998   4.102  2.3461 -0.7771  0.5069
   33CHL1  H21C 2423   3.438   2.859   4.218  0.2933  0.0987 -1.8888
   33CHL1   C22 2424   3.216   2.923   4.379 -0.5424 -0.2544  0.2092
   33CHL1  H22A 2425   3.118   2.875   4.399 -1.7109  2.0179  0.1818
   33CHL1  H22B 2426   3.300   2.856   4.407 -0.7618 -1.0122 -0.8498
   33CHL1   C23 2427   3.221   3.062   4.447  0.3423  0.7782 -0.2681
   33CHL1  H23A 2428   3.322   3.108   4.439  0.9816 -0.5566 -0.2979
   33CHL1  H23B 2429   3.148   3.127   4.395 -2.2628 -0.9144  1.0826
   33CHL1   C24 2430   3.160   3.045   4.592 -0.4470  0.7049  0.2688
   33CHL1  H24A 2431   3.154   3.146   4.638  1.2302  1.3186 -0.7722
   33CHL1  H24B 2432   3.057   3.005   4.577  0.6417 -1.7615 -1.1207
   33CHL1   C25 2433   3.229   2.947   4.689 -0.3488 -0.4859 -0.4913
   33CHL1   H25 2434   3.234   2.849   4.638 -0.6877 -2.0972  2.3950
   33CHL1   C26 2435   3.368   3.003   4.734  0.1850 -0.0911  0.1250
   33CHL1  H26A 2436   3.407   2.942   4.818  0.7128  0.2985  0.1636
   33CHL1  H26B 2437   3.436   3.004   4.646  0.4705 -0.4095  0.3423
   33CHL1  H26C 2438   3.370   3.109   4.766 -1.4100  0.0588 -0.1649
   33CHL1   C27 2439   3.141   2.926   4.812 -0.0893  0.1753 -0.7617
   33CHL1  H27A 2440   3.051   2.867   4.784  0.9286 -0.9629 -1.7095
   33CHL1  H27B 2441   3.197   2.869   4.889 -1.6583  0.3519  0.5757
   33CHL1  H27C 2442   3.109   3.021   4.861  0.0660 -0.4582  0.6100
   34CHL1    C3 2443   1.169   4.888   3.070  0.2341  0.2568  0.0265
   34CHL1    H3 2444   1.110   4.795   3.080  0.7313 -0.1492 -0.6821
   34CHL1    O3 2445   1.218   4.883   2.937  0.0455  0.5569  0.3103
   34CHL1   H3' 2446   1.286   4.950   2.929 -0.3421  0.8810 -0.4132
   34CHL1    C4 2447   1.083   5.008   3.087 -0.1132 -0.3169 -1.0476
   34CHL1   H4A 2448   1.135   5.101   3.055 -3.2109  0.7501 -3.4381
   34CHL1   H4B 2449   0.993   4.994   3.024 -0.9747 -1.3153  0.3654
   34CHL1    C5 2450   1.039   5.021   3.230  0.5847  0.4233 -0.3049
   34CHL1    C6 2451   0.908   5.028   3.263 -0.1061  0.0017 -0.5188
   34CHL1    H6 2452   0.828   5.020   3.188 -1.4072 -0.2614  0.8515
   34CHL1    C7 2453   0.864   5.045   3.404  0.2656 -0.1010 -0.0813
   34CHL1   H7A 2454   0.782   5.120   3.407 -0.3088 -0.7395  0.5506
   34CHL1   H7B 2455   0.816   4.954   3.445  1.4701 -0.2766  1.0094
   34CHL1    C8 2456   0.975   5.084   3.508 -0.3192 -0.2246 -0.1963
   34CHL1    H8 2457   1.009   5.189   3.507 -0.4931 -0.1698 -0.2833
   34CHL1   C14 2458   0.930   5.040   3.649 -0.4246  1.0352  0.0844
   34CHL1   H14 2459   0.921   4.929   3.642 -1.8473  0.9990  1.7254
   34CHL1   C15 2460   0.790   5.097   3.695  0.3897  0.6820  0.1472
   34CHL1  H15A 2461   0.783   5.206   3.673 -0.1778  0.5960 -0.1375
   34CHL1  H15B 2462   0.699   5.048   3.653  0.2072 -0.5434  1.8547
   34CHL1   C16 2463   0.784   5.083   3.852  0.3457 -0.4373  0.4034
   34CHL1  H16A 2464   0.771   5.188   3.887  1.1134  0.0405 -0.7067
   34CHL1  H16B 2465   0.715   5.009   3.899  1.4249 -1.4300  0.4548
   34CHL1   C17 2466   0.925   5.024   3.889 -0.3821 -0.5716 -0.0849
   34CHL1   H17 2467   0.913   4.913   3.887 -1.7311 -0.4579 -3.0348
   34CHL1   C13 2468   1.027   5.056   3.770  0.4002 -0.3487  0.8749
   34CHL1   C18 2469   1.077   5.199   3.784 -0.5651 -0.6985  0.4753
   34CHL1  H18A 2470   1.099   5.254   3.690  1.5405 -0.5050  1.0237
   34CHL1  H18B 2471   1.003   5.269   3.829 -0.9035 -0.7060 -0.0551
   34CHL1  H18C 2472   1.167   5.192   3.848 -0.8469  1.1839  1.1452
   34CHL1   C12 2473   1.149   4.967   3.738  0.5399  0.2683  0.1913
   34CHL1  H12A 2474   1.231   4.988   3.811  2.0520  1.7410 -1.8239
   34CHL1  H12B 2475   1.113   4.862   3.747 -0.6475  0.6365 -0.1183
   34CHL1   C11 2476   1.210   4.995   3.594 -0.0875 -0.8614  0.3329
   34CHL1  H11A 2477   1.252   5.098   3.588 -2.9089  0.3212 -0.9210
   34CHL1  H11B 2478   1.294   4.925   3.574  1.1356  0.7949 -0.6360
   34CHL1    C9 2479   1.101   4.999   3.480  0.0383  0.3039 -0.9448
   34CHL1    H9 2480   1.057   4.897   3.480 -1.1027  0.7811 -2.0959
   34CHL1   C10 2481   1.156   5.017   3.336  1.0402 -0.2158  0.1130
   34CHL1   C19 2482   1.237   5.149   3.327  0.0985  0.4695 -0.0589
   34CHL1  H19A 2483   1.341   5.141   3.363 -0.7849 -2.2536  2.2944
   34CHL1  H19B 2484   1.246   5.177   3.220 -0.1995  1.1437  0.0865
   34CHL1  H19C 2485   1.180   5.225   3.385 -0.2285 -0.3494  0.7097
   34CHL1    C1 2486   1.248   4.896   3.306 -0.1396 -0.4369  0.4733
   34CHL1   H1A 2487   1.339   4.894   3.370 -0.5144 -0.7558  0.9980
   34CHL1   H1B 2488   1.207   4.797   3.332 -0.6630 -0.9856 -2.0980
   34CHL1    C2 2489   1.290   4.890   3.157  0.3646  0.0539 -0.4255
   34CHL1   H2A 2490   1.347   4.796   3.144 -0.7110 -0.3537 -2.5459
   34CHL1   H2B 2491   1.354   4.975   3.125 -0.3987  0.3467 -1.1987
   34CHL1   C20 2492   0.980   5.047   4.034  0.3182 -0.1718 -0.0405
   34CHL1   H20 2493   1.012   5.154   4.034 -0.2911  0.0488 -1.7499
   34CHL1   C21 2494   1.100   4.953   4.059  0.4266  0.7528  0.1590
   34CHL1  H21A 2495   1.129   4.947   4.166 -1.7694  0.0652  0.7752
   34CHL1  H21B 2496   1.191   4.990   4.008  0.3407  0.5965 -0.1050
   34CHL1  H21C 2497   1.094   4.852   4.013  0.0579  0.8468 -0.0074
   34CHL1   C22 2498   0.882   5.022   4.155  0.1608 -0.4860  0.1635
   34CHL1  H22A 2499   0.788   5.078   4.133  1.3188  1.0345 -1.2508
   34CHL1  H22B 2500   0.868   4.912   4.154  0.5707 -0.5418 -0.5436
   34CHL1   C23 2501   0.935   5.064   4.292  0.3208 -0.2053 -0.1792
   34CHL1  H23A 2502   1.004   4.985   4.329  1.0920  0.3517 -0.3939
   34CHL1  H23B 2503   0.990   5.157   4.270 -1.0472  0.4415 -0.9881
   34CHL1   C24 2504   0.823   5.097   4.395 -0.1945  0.1856  0.3803
   34CHL1  H24A 2505   0.786   5.197   4.364 -1.6741 -0.2464  0.6913
   34CHL1  H24B 2506   0.744   5.021   4.381 -0.0024  0.3267 -1.8669
   34CHL1   C25 2507   0.869   5.116   4.538  0.5345 -0.0419  0.0929
   34CHL1   H25 2508   0.903   5.018   4.576  0.9684  1.0736  2.8067
   34CHL1   C26 2509   0.976   5.221   4.561 -0.1287 -0.1367 -0.1886
   34CHL1  H26A 2510   1.010   5.220   4.666  1.2691  2.1072 -0.5427
   34CHL1  H26B 2511   1.057   5.212   4.485 -0.4442 -1.0051 -0.4375
   34CHL1  H26C 2512   0.944   5.325   4.541 -1.6409 -0.8558 -1.7323
   34CHL1   C27 2513   0.743   5.142   4.626 -0.0158 -0.1695 -0.1548
   34CHL1  H27A 2514   0.773   5.145   4.733 -1.8823  2.1549  0.3754
   34CHL1  H27B 2515   0.694   5.240   4.610  0.8766  0.3315  0.1234
   34CHL1  H27C 2516   0.666   5.062   4.621 -1.2942  1.0008  0.2189
   35CHL1    C3 2517   2.458   1.499   3.105 -0.5450  0.1391 -0.1146
   35CHL1    H3 2518   2.441   1.391   3.127 -1.7450  0.1300 -1.0002
   35CHL1    O3 2519   2.492   1.503   2.969 -0.1705 -0.7925  0.1219
   35CHL1   H3' 2520   2.565   1.565   2.961 -0.6331 -0.2835 -0.1468
   35CHL1    C4 2521   2.327   1.582   3.126  0.3205 -0.1277  0.3338
   35CHL1   H4A 2522   2.342   1.685   3.085 -3.4620  0.6765  0.6454
   35CHL1   H4B 2523   2.243   1.538   3.069  0.5883 -0.7449  0.4092
   35CHL1    C5 2524   2.289   1.583   3.276 -0.3980 -0.0644  0.3573
   35CHL1    C6 2525   2.168   1.535   3.313  0.0484 -0.4660 -0.7669
   35CHL1    H6 2526   2.090   1.507   3.241 -0.0520  0.2007 -0.9193
   35CHL1    C7 2527   2.127   1.536   3.464  0.0303  0.1959  0.1543
   35CHL1   H7A 2528   2.023   1.572   3.479 -0.6822 -2.0234  1.0394
   35CHL1   H7B 2529   2.140   1.432   3.502  2.3174 -0.9896 -3.3337
   35CHL1    C8 2530   2.229   1.627   3.552 -0.0966  0.0199 -0.8529
   35CHL1    H8 2531   2.205   1.734   3.538 -0.6686 -0.1097 -0.8612
   35CHL1   C14 2532   2.209   1.591   3.700 -0.2691  0.1717 -0.0359
   35CHL1   H14 2533   2.231   1.482   3.703  0.8535  0.3696 -0.5777
   35CHL1   C15 2534   2.072   1.606   3.761 -0.0873  0.2117 -0.2057
   35CHL1  H15A 2535   2.025   1.695   3.713 -0.5194 -1.3737 -2.9343
   35CHL1  H15B 2536   2.005   1.527   3.721  1.8106  0.5654 -4.6590
   35CHL1   C16 2537   2.091   1.619   3.910 -0.4054 -0.5360 -0.5833
   35CHL1  H16A 2538   2.040   1.715   3.932  2.5548  1.3941 -1.5578
   35CHL1  H16B 2539   2.043   1.540   3.973 -0.6103  1.1847  1.5398
   35CHL1   C17 2540   2.245   1.625   3.933  0.0616 -0.6201  0.5040
   35CHL1   H17 2541   2.279   1.522   3.956  2.8374  0.0665 -0.1436
   35CHL1   C13 2542   2.304   1.663   3.797 -0.3911  1.6330  0.1432
   35CHL1   C18 2543   2.276   1.814   3.783 -0.0945 -0.0410 -0.0431
   35CHL1  H18A 2544   2.171   1.851   3.788  0.4408  1.7549 -1.1551
   35CHL1  H18B 2545   2.335   1.873   3.856  1.6720 -3.8360  1.8882
   35CHL1  H18C 2546   2.309   1.843   3.681  0.4878 -1.0958 -0.1686
   35CHL1   C12 2547   2.445   1.615   3.764 -0.2616  0.2595 -0.4511
   35CHL1  H12A 2548   2.512   1.669   3.834  0.4104  0.5325 -1.2962
   35CHL1  H12B 2549   2.460   1.505   3.777 -0.1062 -0.0828 -3.0005
   35CHL1   C11 2550   2.485   1.651   3.620 -0.3471 -0.6022 -0.4475
   35CHL1  H11A 2551   2.503   1.761   3.629  0.8683 -0.7877 -0.3763
   35CHL1  H11B 2552   2.586   1.609   3.601 -0.3903 -0.4500 -1.0271
   35CHL1    C9 2553   2.377   1.592   3.519  0.4323 -0.2866 -0.4023
   35CHL1    H9 2554   2.389   1.482   3.531  3.1044 -0.0510 -0.3738
   35CHL1   C10 2555   2.405   1.621   3.370 -0.7390 -0.3047  0.5402
   35CHL1   C19 2556   2.422   1.777   3.352  0.4539  0.0862 -0.3788
   35CHL1  H19A 2557   2.436   1.810   3.247  2.3374  1.8952  0.3728
   35CHL1  H19B 2558   2.339   1.837   3.393 -0.1277  0.7396 -2.3963
   35CHL1  H19C 2559   2.514   1.808   3.405  0.8613  0.5571 -1.3377
   35CHL1    C1 2560   2.540   1.546   3.343 -0.1219 -0.1856  0.3553
   35CHL1   H1A 2561   2.625   1.599   3.392  0.3983  1.2627 -1.9478
   35CHL1   H1B 2562   2.530   1.441   3.378 -0.6310 -0.5336 -0.7720
   35CHL1    C2 2563   2.572   1.553   3.196 -0.5278  0.3129  0.3517
   35CHL1   H2A 2564   2.668   1.505   3.166  0.3991  0.0346  3.4169
   35CHL1   H2B 2565   2.592   1.659   3.172 -0.8195 -0.1526 -2.1994
   35CHL1   C20 2566   2.283   1.708   4.055 -0.3245  0.0056  0.1332
   35CHL1   H20 2567   2.257   1.814   4.033 -1.5119 -0.1549  0.6784
   35CHL1   C21 2568   2.432   1.696   4.086  0.2029  0.1853  0.3417
   35CHL1  H21A 2569   2.493   1.765   4.024 -0.9836  1.4905  0.5680
   35CHL1  H21B 2570   2.476   1.595   4.074  0.7792  0.3153  1.2205
   35CHL1  H21C 2571   2.451   1.732   4.190 -2.8850  0.1683  1.0110
   35CHL1   C22 2572   2.209   1.670   4.190  0.0111  0.1389  0.2765
   35CHL1  H22A 2573   2.232   1.752   4.262  0.4375  0.0963  0.1886
   35CHL1  H22B 2574   2.099   1.662   4.174  0.1231 -1.2961  0.0625
   35CHL1   C23 2575   2.266   1.547   4.261  0.2869 -0.4299  0.7405
   35CHL1  H23A 2576   2.264   1.457   4.196  1.2456 -0.8640  1.2886
   35CHL1  H23B 2577   2.370   1.555   4.298  0.2366  0.8418  0.6571
   35CHL1   C24 2578   2.167   1.513   4.375  0.1539  0.2368 -0.5405
   35CHL1  H24A 2579   2.162   1.596   4.449 -3.1320  0.5629 -0.9532
   35CHL1  H24B 2580   2.067   1.509   4.327  0.3799 -1.2477 -0.9320
   35CHL1   C25 2581   2.188   1.372   4.437  0.3995  0.2845 -0.1546
   35CHL1   H25 2582   2.178   1.295   4.357 -1.5186 -0.7127  0.9556
   35CHL1   C26 2583   2.332   1.361   4.492 -0.7936 -0.0939 -1.0863
   35CHL1  H26A 2584   2.362   1.265   4.539 -0.2558  1.0199  0.9513
   35CHL1  H26B 2585   2.408   1.388   4.416 -1.6499 -0.5687 -2.1510
   35CHL1  H26C 2586   2.346   1.439   4.570 -0.1927  0.6391 -1.9060
   35CHL1   C27 2587   2.097   1.339   4.549 -0.6163 -0.3793  0.4047
   35CHL1  H27A 2588   2.127   1.243   4.597  0.9914  0.5167  1.2563
   35CHL1  H27B 2589   2.109   1.412   4.632  0.1840  0.0635 -0.0844
   35CHL1  H27C 2590   1.991   1.324   4.519 -0.8710  0.0293  1.0715
   36CHL1    C3 2591   2.481   6.242   3.340  0.1621 -0.3430  0.6182
   36CHL1    H3 2592   2.586   6.207   3.342  0.6499  0.6851 -2.3346
   36CHL1    O3 2593   2.427   6.246   3.209  0.1985  0.0647  0.2174
   36CHL1   H3' 2594   2.485   6.311   3.167  1.7116 -0.5135  1.3449
   36CHL1    C4 2595   2.401   6.138   3.421 -0.0723 -0.2078 -0.5030
   36CHL1   H4A 2596   2.293   6.161   3.404  0.2957  1.0348 -1.3004
   36CHL1   H4B 2597   2.410   6.043   3.365  0.8066 -0.3534 -0.1279
   36CHL1    C5 2598   2.439   6.139   3.564 -0.8064 -0.4643 -0.0697
   36CHL1    C6 2599   2.477   6.032   3.627 -0.0855  0.2935 -0.2483
   36CHL1    H6 2600   2.468   5.937   3.573 -1.7731  1.7349 -2.7417
   36CHL1    C7 2601   2.495   6.028   3.774 -0.3264  0.0201 -0.1390
   36CHL1   H7A 2602   2.446   5.939   3.818 -1.1077  0.5913  0.1770
   36CHL1   H7B 2603   2.599   6.018   3.812 -0.6587 -0.4547  0.6619
   36CHL1    C8 2604   2.447   6.158   3.846 -0.5434 -0.0262  0.4641
   36CHL1    H8 2605   2.336   6.150   3.845 -0.5893  0.6424 -0.4207
   36CHL1   C14 2606   2.496   6.169   3.989  0.4450 -0.1253 -0.1601
   36CHL1   H14 2607   2.605   6.191   3.982  0.8726 -2.5317 -2.7221
   36CHL1   C15 2608   2.486   6.048   4.080 -0.2693  0.6218  0.6367
   36CHL1  H15A 2609   2.385   6.001   4.081 -0.8137  1.7146 -0.2274
   36CHL1  H15B 2610   2.550   5.962   4.052  0.5289  0.3475  3.0410
   36CHL1   C16 2611   2.513   6.106   4.222 -0.2222  0.3627 -0.2365
   36CHL1  H16A 2612   2.449   6.061   4.301 -0.3690 -1.1272 -1.1793
   36CHL1  H16B 2613   2.617   6.081   4.252 -0.4564 -1.3915 -0.7912
   36CHL1   C17 2614   2.500   6.262   4.217 -0.2150 -0.2548 -0.6420
   36CHL1   H17 2615   2.602   6.303   4.202 -0.8213  1.6945  0.2642
   36CHL1   C13 2616   2.442   6.295   4.077 -0.5155 -0.3645  0.3577
   36CHL1   C18 2617   2.284   6.281   4.076 -0.2513 -0.2164  0.0646
   36CHL1  H18A 2618   2.250   6.187   4.126  0.2772 -0.6802 -0.4271
   36CHL1  H18B 2619   2.233   6.365   4.128 -0.9243 -1.2736  1.1672
   36CHL1  H18C 2620   2.256   6.277   3.969 -1.7400  0.9349  0.3871
   36CHL1   C12 2621   2.496   6.413   4.002 -0.6638  0.1717 -0.8801
   36CHL1  H12A 2622   2.460   6.507   4.049  0.7649  0.8318 -1.0550
   36CHL1  H12B 2623   2.607   6.414   4.008 -0.6420  1.9372 -1.0371
   36CHL1   C11 2624   2.458   6.413   3.856  0.8567  0.1365  0.4245
   36CHL1  H11A 2625   2.353   6.449   3.846  1.5104  1.5930 -2.1491
   36CHL1  H11B 2626   2.515   6.497   3.811  2.1073 -1.6071 -1.3917
   36CHL1    C9 2627   2.489   6.283   3.773 -0.1812  0.3546 -0.1570
   36CHL1    H9 2628   2.599   6.287   3.756 -0.0413  1.5490  0.9100
   36CHL1   C10 2629   2.432   6.285   3.626 -1.2041  0.2955  0.2728
   36CHL1   C19 2630   2.289   6.321   3.622 -0.0733  0.1762  0.0040
   36CHL1  H19A 2631   2.280   6.429   3.644 -2.4379  0.2476 -0.9611
   36CHL1  H19B 2632   2.245   6.316   3.520 -0.9522  0.6540  0.3434
   36CHL1  H19C 2633   2.229   6.275   3.703  0.2910  0.5881  0.5104
   36CHL1    C1 2634   2.509   6.392   3.539 -0.5974  0.3240 -0.2544
   36CHL1   H1A 2635   2.501   6.495   3.580  2.9956  1.0865 -1.0725
   36CHL1   H1B 2636   2.617   6.372   3.553 -1.1190 -3.4208 -0.6490
   36CHL1    C2 2637   2.478   6.385   3.389 -0.1575  0.3550  0.4249
   36CHL1   H2A 2638   2.556   6.439   3.330  0.8646 -1.1185  0.3674
   36CHL1   H2B 2639   2.381   6.432   3.364  0.1446  0.7072 -0.1167
   36CHL1   C20 2640   2.453   6.326   4.347  0.2551  0.9858  0.6514
   36CHL1   H20 2641   2.355   6.278   4.370 -0.5920  2.1233 -0.4839
   36CHL1   C21 2642   2.430   6.472   4.328 -0.1885 -0.2885  0.3080
   36CHL1  H21A 2643   2.513   6.526   4.277  1.8036 -1.2038  2.3966
   36CHL1  H21B 2644   2.403   6.520   4.425 -1.4997 -0.6776  0.1554
   36CHL1  H21C 2645   2.335   6.482   4.271 -0.8717  0.5787  1.5538
   36CHL1   C22 2646   2.551   6.310   4.476 -0.1322 -0.3874  0.6061
   36CHL1  H22A 2647   2.629   6.232   4.461  1.6769  1.4159  0.1071
   36CHL1  H22B 2648   2.616   6.400   4.485 -0.4404  0.0183 -0.9787
   36CHL1   C23 2649   2.490   6.271   4.614 -0.3443 -0.7695  0.4089
   36CHL1  H23A 2650   2.436   6.174   4.617 -1.1906 -0.2953  1.3175
   36CHL1  H23B 2651   2.572   6.274   4.689  0.3474 -0.8872 -0.3297
   36CHL1   C24 2652   2.401   6.385   4.665  0.3811 -0.6880 -0.1912
   36CHL1  H24A 2653   2.451   6.480   4.638  1.6959 -2.1377 -3.3873
   36CHL1  H24B 2654   2.305   6.383   4.608  0.0099  1.0449  0.3150
   36CHL1   C25 2655   2.365   6.388   4.810 -0.1754 -0.5955  0.0144
   36CHL1   H25 2656   2.297   6.305   4.835 -0.6583 -0.3112 -0.3352
   36CHL1   C26 2657   2.492   6.384   4.899  0.2016 -0.6539  0.7789
   36CHL1  H26A 2658   2.565   6.463   4.871 -0.9653  0.6144  1.1827
   36CHL1  H26B 2659   2.462   6.418   5.001  0.0519  0.8776  0.2530
   36CHL1  H26C 2660   2.539   6.284   4.906  0.0012 -0.8802 -0.7466
   36CHL1   C27 2661   2.275   6.510   4.853  0.9100  1.1287  0.2861
   36CHL1  H27A 2662   2.257   6.516   4.962 -2.0308  2.6975 -0.1844
   36CHL1  H27B 2663   2.333   6.597   4.818 -2.1669  3.0763 -0.3341
   36CHL1  H27C 2664   2.175   6.502   4.806 -0.2898  0.9780  2.7403
   37CHL1    C3 2665   3.731   1.296   3.109  0.6371  0.0500  0.2865
   37CHL1    H3 2666   3.831   1.268   3.148  0.3739 -0.6625  0.4645
   37CHL1    O3 2667   3.753   1.309   2.969 -0.3916 -0.6029 -0.3553
   37CHL1   H3' 2668   3.847   1.327   2.958 -0.1369 -1.1632  0.6567
   37CHL1    C4 2669   3.618   1.191   3.126 -0.1213  0.2421  0.5050
   37CHL1   H4A 2670   3.532   1.229   3.067  0.4349  1.5484  0.4965
   37CHL1   H4B 2671   3.651   1.099   3.073  0.9462 -0.2947  2.0283
   37CHL1    C5 2672   3.590   1.179   3.270 -0.0043 -0.1352  0.4486
   37CHL1    C6 2673   3.589   1.063   3.325 -0.1843  0.3482 -0.1465
   37CHL1    H6 2674   3.606   0.967   3.274  1.9551  0.4267  0.3171
   37CHL1    C7 2675   3.549   1.044   3.469 -0.4470 -0.9424  0.4192
   37CHL1   H7A 2676   3.472   0.966   3.485 -2.5542  0.9616  0.1136
   37CHL1   H7B 2677   3.647   1.019   3.515 -0.0311  1.1263  0.7831
   37CHL1    C8 2678   3.481   1.167   3.536 -0.0870 -0.3000  0.0323
   37CHL1    H8 2679   3.385   1.184   3.482  1.6181  2.1691 -2.4900
   37CHL1   C14 2680   3.476   1.150   3.691 -0.3361 -0.6863 -0.3142
   37CHL1   H14 2681   3.583   1.152   3.722 -0.8166 -3.6948  2.1650
   37CHL1   C15 2682   3.414   1.021   3.753 -0.1123 -0.4775 -0.0555
   37CHL1  H15A 2683   3.318   0.995   3.703  0.5384 -0.0954 -1.5589
   37CHL1  H15B 2684   3.483   0.934   3.741  1.2445  0.3821  1.2657
   37CHL1   C16 2685   3.395   1.060   3.901  0.1772  0.5733  0.7949
   37CHL1  H16A 2686   3.295   1.047   3.947  0.5269  3.1642  2.4494
   37CHL1  H16B 2687   3.463   1.000   3.966 -1.2230 -0.4411  1.3619
   37CHL1   C17 2688   3.413   1.219   3.910  0.0037  0.1069 -0.1472
   37CHL1   H17 2689   3.518   1.214   3.948 -0.2539 -6.3053  0.9158
   37CHL1   C13 2690   3.401   1.265   3.764 -0.7990 -0.1541 -0.9699
   37CHL1   C18 2691   3.247   1.283   3.723 -0.1301  0.2367  0.3529
   37CHL1  H18A 2692   3.192   1.203   3.778 -1.1062  0.6878  0.0631
   37CHL1  H18B 2693   3.218   1.379   3.769  1.2055  1.0240 -0.3924
   37CHL1  H18C 2694   3.223   1.275   3.614 -0.6330  2.5797  0.2381
   37CHL1   C12 2695   3.484   1.398   3.732 -0.2484 -0.3295 -0.7643
   37CHL1  H12A 2696   3.436   1.491   3.769 -0.1443 -0.5155 -0.1503
   37CHL1  H12B 2697   3.583   1.390   3.781  0.0241  1.4832 -0.9533
   37CHL1   C11 2698   3.512   1.420   3.579 -0.8032 -0.6702 -0.8972
   37CHL1  H11A 2699   3.411   1.453   3.546 -0.7317  1.0757  0.4657
   37CHL1  H11B 2700   3.578   1.506   3.556 -1.3951  0.2768  0.7266
   37CHL1    C9 2701   3.557   1.293   3.502  0.1621 -0.2320  0.0081
   37CHL1    H9 2702   3.661   1.265   3.530 -0.2156 -1.8256 -0.0942
   37CHL1   C10 2703   3.564   1.317   3.347  0.4121 -0.0709 -0.2700
   37CHL1   C19 2704   3.422   1.375   3.299  1.1164 -0.3174 -0.1827
   37CHL1  H19A 2705   3.335   1.309   3.324 -0.4143  0.9675 -1.8444
   37CHL1  H19B 2706   3.397   1.471   3.349 -2.6995 -1.7153  0.9608
   37CHL1  H19C 2707   3.407   1.382   3.189  0.2295 -1.3643 -0.1492
   37CHL1    C1 2708   3.685   1.416   3.321  0.4250 -0.3637 -0.6805
   37CHL1   H1A 2709   3.642   1.509   3.365  0.1147 -1.4144  1.3483
   37CHL1   H1B 2710   3.776   1.383   3.374  1.0128  1.7142 -0.2987
   37CHL1    C2 2711   3.698   1.434   3.171  0.3266 -0.1515 -0.0086
   37CHL1   H2A 2712   3.777   1.506   3.142  0.8914 -1.1268 -0.9829
   37CHL1   H2B 2713   3.602   1.463   3.123  1.2767 -0.7252 -2.4203
   37CHL1   C20 2714   3.319   1.281   4.022 -0.2590  0.1730  0.1908
   37CHL1   H20 2715   3.213   1.276   3.988 -0.0927 -2.4370 -0.1172
   37CHL1   C21 2716   3.379   1.422   4.046 -0.3407 -0.9927  0.1172
   37CHL1  H21A 2717   3.337   1.480   4.131 -0.5106 -1.1250  0.1229
   37CHL1  H21B 2718   3.364   1.489   3.959 -0.7865 -3.0281 -1.4268
   37CHL1  H21C 2719   3.487   1.423   4.071  0.1598 -1.4703 -1.8712
   37CHL1   C22 2720   3.324   1.207   4.154  0.0044  1.0695 -0.6140
   37CHL1  H22A 2721   3.325   1.096   4.160  1.3014  1.0984  4.8914
   37CHL1  H22B 2722   3.425   1.227   4.196  1.3445 -0.0952 -3.0634
   37CHL1   C23 2723   3.220   1.251   4.253  0.1292 -0.3796  0.5267
   37CHL1  H23A 2724   3.241   1.359   4.268 -2.4622  0.5206 -1.5080
   37CHL1  H23B 2725   3.121   1.266   4.204  0.1423 -2.3167 -0.1779
   37CHL1   C24 2726   3.228   1.183   4.390 -0.6651  0.8208  0.1243
   37CHL1  H24A 2727   3.214   1.075   4.370 -0.0312  0.6865  0.3606
   37CHL1  H24B 2728   3.330   1.197   4.432 -0.3401  0.5298 -0.5606
   37CHL1   C25 2729   3.121   1.233   4.481 -0.7122  0.8628  0.3445
   37CHL1   H25 2730   3.124   1.344   4.472 -0.2890  0.6671 -4.4422
   37CHL1   C26 2731   2.985   1.204   4.427 -0.3535  0.3720 -0.4284
   37CHL1  H26A 2732   2.915   1.234   4.508 -0.6346  2.9690 -1.5432
   37CHL1  H26B 2733   2.966   1.279   4.347  1.6441 -1.5936 -2.9270
   37CHL1  H26C 2734   2.963   1.099   4.397 -1.5260  0.4912 -0.0211
   37CHL1   C27 2735   3.145   1.182   4.618 -0.1801  0.0783 -0.2755
   37CHL1  H27A 2736   3.252   1.185   4.648  0.0176 -1.5394 -0.7304
   37CHL1  H27B 2737   3.088   1.245   4.689 -0.9220 -1.0326  0.1396
   37CHL1  H27C 2738   3.118   1.075   4.631 -1.2365  0.5128  1.4281
   38CHL1    C3 2739   4.371   1.348   2.922  0.5159  0.4352 -0.1691
   38CHL1    H3 2740   4.278   1.399   2.957  1.1248  2.4423 -1.3226
   38CHL1    O3 2741   4.383   1.353   2.781 -0.7282 -0.0840  0.7719
   38CHL1   H3' 2742   4.466   1.311   2.759 -0.8050  0.6556 -1.1921
   38CHL1    C4 2743   4.494   1.423   2.982 -0.0604  1.0069 -0.6681
   38CHL1   H4A 2744   4.581   1.366   2.942 -0.4521 -0.1678  0.1199
   38CHL1   H4B 2745   4.503   1.526   2.940 -1.1066  0.8533 -1.3142
   38CHL1    C5 2746   4.513   1.410   3.135 -0.2242  0.8843 -0.4369
   38CHL1    C6 2747   4.529   1.517   3.214 -0.0228 -0.3637 -0.0866
   38CHL1    H6 2748   4.551   1.617   3.175  2.6558 -0.1409  1.7386
   38CHL1    C7 2749   4.529   1.509   3.365 -0.3637 -0.1126 -0.5361
   38CHL1   H7A 2750   4.596   1.586   3.409 -0.9725 -0.3738  0.8712
   38CHL1   H7B 2751   4.427   1.532   3.402 -0.2317  1.2238 -0.9173
   38CHL1    C8 2752   4.555   1.367   3.423 -1.3576 -0.2512  0.1020
   38CHL1    H8 2753   4.663   1.349   3.406 -1.6589  0.3584 -3.0860
   38CHL1   C14 2754   4.522   1.377   3.572 -0.2618  0.1796  0.7678
   38CHL1   H14 2755   4.414   1.400   3.578 -0.2611  1.7369 -2.7646
   38CHL1   C15 2756   4.594   1.481   3.657 -0.0523 -0.5176 -0.7977
   38CHL1  H15A 2757   4.701   1.491   3.628  0.7913  1.3324  2.4238
   38CHL1  H15B 2758   4.545   1.580   3.650 -2.7891 -1.8653 -2.3436
   38CHL1   C16 2759   4.566   1.425   3.797  0.7763 -0.6002 -0.9404
   38CHL1  H16A 2760   4.664   1.437   3.849 -0.6098 -0.7977  1.8791
   38CHL1  H16B 2761   4.498   1.495   3.850  0.1940 -1.5798 -0.3662
   38CHL1   C17 2762   4.490   1.292   3.785 -0.1226  0.2324 -0.5640
   38CHL1   H17 2763   4.381   1.311   3.784 -0.0593  0.6636  0.0687
   38CHL1   C13 2764   4.532   1.239   3.642 -0.3596  0.1630  0.3259
   38CHL1   C18 2765   4.681   1.195   3.642 -0.6628  0.3316  0.2018
   38CHL1  H18A 2766   4.738   1.266   3.705 -1.3440  0.4051  0.7485
   38CHL1  H18B 2767   4.698   1.089   3.670  0.4249 -0.6996 -3.7203
   38CHL1  H18C 2768   4.731   1.196   3.542 -1.1341  2.1229 -0.0566
   38CHL1   C12 2769   4.454   1.132   3.574  0.4472 -0.5801  0.6033
   38CHL1  H12A 2770   4.470   1.030   3.615  1.6557 -1.3849 -1.6923
   38CHL1  H12B 2771   4.346   1.158   3.586  0.3722 -1.4898  2.0991
   38CHL1   C11 2772   4.488   1.124   3.424 -0.8231 -0.2748 -0.1971
   38CHL1  H11A 2773   4.590   1.082   3.409  0.8184  3.2842  0.1089
   38CHL1  H11B 2774   4.420   1.051   3.375  1.2446 -1.2907 -1.7156
   38CHL1    C9 2775   4.476   1.266   3.346  0.6698  0.6332 -0.8173
   38CHL1    H9 2776   4.369   1.295   3.353  0.5631 -0.1778  1.6907
   38CHL1   C10 2777   4.500   1.267   3.190  0.0541 -0.0796  0.2966
   38CHL1   C19 2778   4.627   1.179   3.164  0.3576 -0.4349  0.2017
   38CHL1  H19A 2779   4.602   1.072   3.147 -3.3536  0.5031 -1.4813
   38CHL1  H19B 2780   4.665   1.206   3.063 -1.9854 -0.0817 -0.6678
   38CHL1  H19C 2781   4.712   1.201   3.231  0.8084 -0.6938 -0.2757
   38CHL1    C1 2782   4.372   1.201   3.128  0.0825  0.9158 -0.6332
   38CHL1   H1A 2783   4.359   1.099   3.169 -2.9020  1.3832 -0.1332
   38CHL1   H1B 2784   4.284   1.259   3.165 -0.5656 -0.9648  0.9347
   38CHL1    C2 2785   4.365   1.201   2.977 -0.1658  0.3706  0.0975
   38CHL1   H2A 2786   4.274   1.154   2.933 -1.3847  2.3559  0.3631
   38CHL1   H2B 2787   4.455   1.150   2.937 -1.3237 -1.1000 -0.7151
   38CHL1   C20 2788   4.501   1.200   3.912  0.2732  0.0341 -0.7040
   38CHL1   H20 2789   4.600   1.150   3.915 -0.4660 -1.4758 -0.7153
   38CHL1   C21 2790   4.401   1.085   3.906  0.0127 -0.1482  0.5946
   38CHL1  H21A 2791   4.303   1.132   3.881  0.4532  0.5281  0.1046
   38CHL1  H21B 2792   4.385   1.026   3.999  0.4103  1.1362  1.5025
   38CHL1  H21C 2793   4.434   1.016   3.826 -1.0041  0.6588 -0.5604
   38CHL1   C22 2794   4.489   1.284   4.044 -0.4965 -0.5224  0.1204
   38CHL1  H22A 2795   4.575   1.353   4.053 -1.9526  1.4519 -0.4325
   38CHL1  H22B 2796   4.392   1.337   4.034 -0.6942 -1.0004 -0.5543
   38CHL1   C23 2797   4.488   1.202   4.173 -0.5291  0.0725 -0.2097
   38CHL1  H23A 2798   4.495   1.274   4.257  1.6534  1.9138 -1.8630
   38CHL1  H23B 2799   4.392   1.146   4.179 -0.1548 -0.5020  0.7646
   38CHL1   C24 2800   4.602   1.097   4.196 -0.0988 -0.3263 -1.4661
   38CHL1  H24A 2801   4.631   1.037   4.106 -1.0927 -1.0897 -1.2969
   38CHL1  H24B 2802   4.695   1.145   4.232 -1.3060 -1.4613  3.9985
   38CHL1   C25 2803   4.577   0.990   4.310  0.9923 -0.4197  0.2490
   38CHL1   H25 2804   4.476   0.946   4.295  0.0302  0.8072  2.6962
   38CHL1   C26 2805   4.684   0.886   4.294  0.2652  0.7201 -0.0666
   38CHL1  H26A 2806   4.786   0.928   4.278 -0.4176  2.3784 -0.2489
   38CHL1  H26B 2807   4.687   0.815   4.380  1.2721 -0.6703 -1.2025
   38CHL1  H26C 2808   4.655   0.824   4.207  0.9585 -0.9836  0.8488
   38CHL1   C27 2809   4.587   1.053   4.448  0.6136  0.1272 -0.1525
   38CHL1  H27A 2810   4.692   1.083   4.465  1.1684 -0.7701 -1.7631
   38CHL1  H27B 2811   4.520   1.141   4.458  1.1416  0.4717  0.3846
   38CHL1  H27C 2812   4.569   0.973   4.523 -0.5989  0.5040 -0.0150
   39CHL1    C3 2813   5.619   2.146   3.228 -0.1121 -0.1662  0.0765
   39CHL1    H3 2814   5.726   2.116   3.222 -0.0363  0.2784 -0.8833
   39CHL1    O3 2815   5.568   2.120   3.099  0.0079 -0.2996 -0.1898
   39CHL1   H3' 2816   5.625   2.049   3.069  0.1726 -1.2319  2.1076
   39CHL1    C4 2817   5.548   2.057   3.323  0.1299  0.1409  0.0005
   39CHL1   H4A 2818   5.440   2.073   3.298 -0.2966 -1.9201  0.3270
   39CHL1   H4B 2819   5.572   1.953   3.293  2.8095  0.6196  0.2933
   39CHL1    C5 2820   5.577   2.081   3.469 -0.0472  0.0229 -0.3562
   39CHL1    C6 2821   5.626   1.985   3.552 -0.1140  0.3140  0.0256
   39CHL1    H6 2822   5.633   1.883   3.511 -1.9612 -0.7738  2.1289
   39CHL1    C7 2823   5.661   1.997   3.694 -0.7949  0.0219 -0.0610
   39CHL1   H7A 2824   5.633   1.906   3.751  0.8080  0.1881  1.0556
   39CHL1   H7B 2825   5.772   2.002   3.691 -0.8386  0.8335 -1.7277
   39CHL1    C8 2826   5.614   2.135   3.750  0.0720 -0.4155 -0.5947
   39CHL1    H8 2827   5.503   2.132   3.751  0.0245  0.6484 -1.1241
   39CHL1   C14 2828   5.667   2.160   3.885 -0.7132  0.0096  0.3015
   39CHL1   H14 2829   5.777   2.163   3.869 -0.9817 -0.9137 -2.3013
   39CHL1   C15 2830   5.654   2.041   3.988 -1.0664 -0.1799 -0.2004
   39CHL1  H15A 2831   5.552   2.007   3.958 -1.9760  1.8058  0.4767
   39CHL1  H15B 2832   5.731   1.961   3.979 -1.3607 -0.5331  0.3648
   39CHL1   C16 2833   5.661   2.117   4.124 -0.5047 -0.1572  0.3539
   39CHL1  H16A 2834   5.574   2.097   4.190 -0.9585  0.4685 -0.0463
   39CHL1  H16B 2835   5.752   2.082   4.178 -1.0851  0.4483  1.7879
   39CHL1   C17 2836   5.691   2.271   4.099  0.6095 -0.2122  1.0383
   39CHL1   H17 2837   5.802   2.274   4.086  0.4145  0.7954 -0.6859
   39CHL1   C13 2838   5.625   2.288   3.957  0.5699 -0.6303  0.5999
   39CHL1   C18 2839   5.472   2.291   3.969  0.3884 -0.4663  0.3491
   39CHL1  H18A 2840   5.440   2.380   4.028 -0.1513 -0.2496 -0.2645
   39CHL1  H18B 2841   5.419   2.293   3.872  0.3437  1.9571  0.3619
   39CHL1  H18C 2842   5.433   2.204   4.025  0.0413 -1.4354 -1.3384
   39CHL1   C12 2843   5.678   2.396   3.859  0.3306  0.5016  0.0109
   39CHL1  H12A 2844   5.673   2.498   3.903  0.5079  1.0954 -1.2771
   39CHL1  H12B 2845   5.787   2.379   3.850  0.7156  2.0453  1.3862
   39CHL1   C11 2846   5.614   2.382   3.723  0.4136 -0.2857  0.4146
   39CHL1  H11A 2847   5.506   2.409   3.726  0.4952  0.4079 -1.5287
   39CHL1  H11B 2848   5.656   2.455   3.651  0.3419 -0.3662  0.2887
   39CHL1    C9 2849   5.645   2.246   3.650  0.1136 -0.4003  0.7842
   39CHL1    H9 2850   5.755   2.246   3.635  0.3534 -1.4055  2.3103
   39CHL1   C10 2851   5.569   2.228   3.515 -0.0138 -0.0892  0.2605
   39CHL1   C19 2852   5.416   2.245   3.523  0.0670  0.2730  0.0468
   39CHL1  H19A 2853   5.356   2.218   3.434 -1.6307 -1.8936  1.7189
   39CHL1  H19B 2854   5.368   2.192   3.608  1.7908  0.6383  1.3031
   39CHL1  H19C 2855   5.393   2.350   3.550 -3.9223 -0.5420  0.3901
   39CHL1    C1 2856   5.631   2.328   3.411 -0.6688  0.3825  0.5284
   39CHL1   H1A 2857   5.605   2.434   3.430  0.1555  0.3063  2.2452
   39CHL1   H1B 2858   5.742   2.325   3.419 -0.7737 -0.3181  2.0119
   39CHL1    C2 2859   5.608   2.297   3.263 -0.2886 -0.4636 -0.0548
   39CHL1   H2A 2860   5.690   2.350   3.211 -0.9671 -0.6648 -1.3520
   39CHL1   H2B 2861   5.507   2.329   3.233 -0.7057 -2.4907 -0.9766
   39CHL1   C20 2862   5.648   2.368   4.215 -0.2757 -0.4660 -0.1702
   39CHL1   H20 2863   5.548   2.343   4.255 -0.1604 -1.8295 -0.6745
   39CHL1   C21 2864   5.647   2.512   4.168 -0.2913 -0.1196  0.3954
   39CHL1  H21A 2865   5.555   2.548   4.116  0.7823  1.8339 -0.2781
   39CHL1  H21B 2866   5.731   2.545   4.104  1.3720  0.4554  2.7593
   39CHL1  H21C 2867   5.640   2.578   4.257 -0.9075  1.5893 -0.8726
   39CHL1   C22 2868   5.746   2.354   4.336 -0.4098 -0.0949  0.2598
   39CHL1  H22A 2869   5.848   2.328   4.299  0.6883  1.5550  1.9545
   39CHL1  H22B 2870   5.747   2.448   4.395  1.3404 -0.8243  1.4824
   39CHL1   C23 2871   5.699   2.247   4.438  0.1268 -0.0665  0.0323
   39CHL1  H23A 2872   5.601   2.285   4.472  0.0096 -0.7426  0.4571
   39CHL1  H23B 2873   5.678   2.152   4.384 -2.3136  0.1834  0.4299
   39CHL1   C24 2874   5.802   2.221   4.547 -0.0862  0.0975 -0.6033
   39CHL1  H24A 2875   5.900   2.214   4.495  0.3624 -1.6402  0.3579
   39CHL1  H24B 2876   5.812   2.309   4.614  0.0358 -0.9420  0.8145
   39CHL1   C25 2877   5.765   2.087   4.626 -0.3064  0.4930 -0.0495
   39CHL1   H25 2878   5.827   2.092   4.718 -1.5521 -0.0888  0.8595
   39CHL1   C26 2879   5.625   2.094   4.683  0.0672  0.0522  0.2855
   39CHL1  H26A 2880   5.594   2.002   4.737  2.3010 -1.5091 -0.9192
   39CHL1  H26B 2881   5.617   2.181   4.752  0.3289  1.1024 -0.9919
   39CHL1  H26C 2882   5.550   2.105   4.602 -0.8957 -0.0762  1.1358
   39CHL1   C27 2883   5.792   1.961   4.553 -0.2300 -0.9847  0.4756
   39CHL1  H27A 2884   5.895   1.962   4.512  0.4901 -1.2693  2.1813
   39CHL1  H27B 2885   5.793   1.876   4.625  1.5843 -1.5093 -0.1038
   39CHL1  H27C 2886   5.722   1.939   4.470 -0.5555 -2.9560  1.2106
   40CHL1    C3 2887   3.661   0.415   3.096  0.2106  0.2786  0.4983
   40CHL1    H3 2888   3.563   0.464   3.113 -0.9818 -1.5467 -0.7124
   40CHL1    O3 2889   3.666   0.408   2.954 -0.4240  0.3912 -0.3494
   40CHL1   H3' 2890   3.744   0.353   2.937 -0.7423 -0.5330  0.9967
   40CHL1    C4 2891   3.783   0.493   3.149 -0.0158  0.5347  0.2952
   40CHL1   H4A 2892   3.872   0.439   3.113  0.9598 -0.3952  3.7781
   40CHL1   H4B 2893   3.779   0.596   3.105  0.8163  1.2164  1.7627
   40CHL1    C5 2894   3.778   0.500   3.300  0.3616 -0.3020  0.0426
   40CHL1    C6 2895   3.763   0.617   3.362  0.3371  0.6408  0.3395
   40CHL1    H6 2896   3.739   0.710   3.308  1.0302  1.3223  1.1790
   40CHL1    C7 2897   3.762   0.640   3.507 -0.4011  0.4445  0.1937
   40CHL1   H7A 2898   3.832   0.723   3.529  1.6609 -0.3509 -2.6923
   40CHL1   H7B 2899   3.666   0.685   3.538 -0.5399  1.8713 -2.0805
   40CHL1    C8 2900   3.802   0.507   3.584  0.1051  0.6111 -0.5527
   40CHL1    H8 2901   3.912   0.502   3.574  0.2236 -3.2253  0.8978
   40CHL1   C14 2902   3.762   0.511   3.730  0.1053 -1.6482  0.5690
   40CHL1   H14 2903   3.651   0.515   3.723 -0.0489 -0.8025  2.6444
   40CHL1   C15 2904   3.790   0.639   3.811  0.5190 -0.4000  0.3389
   40CHL1  H15A 2905   3.900   0.644   3.795  0.2851 -1.5019 -2.1793
   40CHL1  H15B 2906   3.744   0.735   3.777  1.3718 -0.1925 -0.2574
   40CHL1   C16 2907   3.778   0.605   3.956  0.2288 -0.0264  0.5051
   40CHL1  H16A 2908   3.875   0.630   4.003  0.6347 -1.0154  0.1985
   40CHL1  H16B 2909   3.697   0.666   4.003  0.2405  0.5968 -0.2614
   40CHL1   C17 2910   3.737   0.449   3.949 -0.5346  0.0261 -0.4992
   40CHL1   H17 2911   3.626   0.459   3.944 -0.3521  2.6034 -0.6864
   40CHL1   C13 2912   3.792   0.394   3.814  0.3155  0.1020 -0.1234
   40CHL1   C18 2913   3.943   0.374   3.830 -0.1743  0.3939  0.6839
   40CHL1  H18A 2914   3.971   0.270   3.856 -1.6584 -0.7171 -1.7541
   40CHL1  H18B 2915   4.002   0.393   3.738  2.7319 -2.8471  1.6756
   40CHL1  H18C 2916   3.990   0.444   3.902 -0.5904  0.4577  0.8971
   40CHL1   C12 2917   3.718   0.274   3.751 -0.1280 -0.0270 -0.1199
   40CHL1  H12A 2918   3.751   0.184   3.807  1.9469 -0.5597 -2.0468
   40CHL1  H12B 2919   3.608   0.284   3.760 -0.3856 -2.1686 -0.4104
   40CHL1   C11 2920   3.760   0.247   3.606  0.5695  0.0451  0.1364
   40CHL1  H11A 2921   3.866   0.216   3.606 -0.0188 -2.2203  1.5252
   40CHL1  H11B 2922   3.699   0.166   3.560 -2.8007  2.6012 -0.2709
   40CHL1    C9 2923   3.740   0.377   3.519 -0.1630 -0.0891  1.0735
   40CHL1    H9 2924   3.631   0.393   3.536 -0.6533 -2.8527  0.9304
   40CHL1   C10 2925   3.771   0.358   3.370 -0.6931  0.2141  0.4163
   40CHL1   C19 2926   3.914   0.292   3.361  0.3820 -0.2743 -0.2008
   40CHL1  H19A 2927   3.906   0.188   3.399 -1.2581  0.6907  2.3729
   40CHL1  H19B 2928   3.932   0.290   3.252 -3.5436  1.3255 -1.0459
   40CHL1  H19C 2929   3.991   0.350   3.417  0.1956 -0.5247  0.3278
   40CHL1    C1 2930   3.649   0.286   3.310  0.1766 -0.1355  0.2769
   40CHL1   H1A 2931   3.649   0.186   3.359  1.1313 -0.6890 -0.7991
   40CHL1   H1B 2932   3.555   0.343   3.327 -1.0718 -1.3104 -2.0945
   40CHL1    C2 2933   3.656   0.281   3.153  0.2029  0.5856 -0.5049
   40CHL1   H2A 2934   3.567   0.230   3.109 -0.3233  0.8437  0.2402
   40CHL1   H2B 2935   3.736   0.210   3.124 -1.9978 -1.3197 -2.3748
   40CHL1   C20 2936   3.776   0.383   4.083  0.1312  0.0085 -1.0789
   40CHL1   H20 2937   3.886   0.394   4.085  0.2650 -1.1181 -1.6313
   40CHL1   C21 2938   3.748   0.230   4.089  0.1802 -0.1455  0.3506
   40CHL1  H21A 2939   3.796   0.172   4.008 -1.7511 -3.0406  1.1547
   40CHL1  H21B 2940   3.640   0.221   4.111  0.2740  1.9541  2.1210
   40CHL1  H21C 2941   3.795   0.189   4.181  1.8283 -0.0808 -0.4280
   40CHL1   C22 2942   3.706   0.452   4.209 -0.2977 -0.9432  0.3041
   40CHL1  H22A 2943   3.722   0.562   4.198 -5.7856  0.0501 -0.4254
   40CHL1  H22B 2944   3.601   0.423   4.192  0.4336 -3.9670  0.3534
   40CHL1   C23 2945   3.760   0.408   4.343 -1.0099 -0.3994  0.2330
   40CHL1  H23A 2946   3.737   0.301   4.362  0.0948 -0.4493  1.3847
   40CHL1  H23B 2947   3.872   0.407   4.344 -0.9804  0.0498 -0.7842
   40CHL1   C24 2948   3.714   0.495   4.454  0.4879 -0.1449 -1.0677
   40CHL1  H24A 2949   3.757   0.464   4.551 -1.7922  0.0102  0.0397
   40CHL1  H24B 2950   3.733   0.602   4.432  0.1766 -0.0562 -0.9084
   40CHL1   C25 2951   3.556   0.482   4.479 -0.2608  0.1768  0.0735
   40CHL1   H25 2952   3.517   0.525   4.384  2.2900 -0.3534 -1.3233
   40CHL1   C26 2953   3.505   0.339   4.489  0.7275  0.0785  0.1161
   40CHL1  H26A 2954   3.549   0.283   4.575  0.3189  0.7677  0.7838
   40CHL1  H26B 2955   3.394   0.334   4.502  0.8027  1.1949  1.4300
   40CHL1  H26C 2956   3.522   0.272   4.402 -1.8076 -0.8654  0.2643
   40CHL1   C27 2957   3.520   0.564   4.603  0.2486  0.2155  0.4459
   40CHL1  H27A 2958   3.561   0.520   4.696  1.1403 -1.7759 -0.8363
   40CHL1  H27B 2959   3.559   0.666   4.581  2.5366 -0.5748  0.5797
   40CHL1  H27C 2960   3.409   0.561   4.606  0.2436  0.7865  0.9752
   41CHL1    C3 2961   5.150   3.959   3.091  0.3040 -0.1849  0.1345
   41CHL1    H3 2962   5.074   4.038   3.108  0.2127 -0.2836  0.1834
   41CHL1    O3 2963   5.176   3.947   2.954 -0.1695  0.2312 -0.3025
   41CHL1   H3' 2964   5.217   3.862   2.938  2.8774  1.8476 -2.1247
   41CHL1    C4 2965   5.269   3.997   3.172 -0.6576  0.1701  0.4405
   41CHL1   H4A 2966   5.352   3.927   3.150  0.0117  1.5473 -1.7195
   41CHL1   H4B 2967   5.303   4.091   3.124  1.9931 -0.9454 -0.0292
   41CHL1    C5 2968   5.245   4.007   3.319 -0.1735  0.4859  0.2223
   41CHL1    C6 2969   5.269   4.126   3.381 -0.1869  0.8529  0.5439
   41CHL1    H6 2970   5.301   4.210   3.319 -0.7145 -0.7431 -2.0539
   41CHL1    C7 2971   5.248   4.144   3.528 -0.6032  0.6864 -0.2188
   41CHL1   H7A 2972   5.330   4.211   3.564  0.4902  1.1855 -3.3087
   41CHL1   H7B 2973   5.149   4.189   3.549 -2.3218 -3.2273  0.9295
   41CHL1    C8 2974   5.237   4.007   3.600 -0.4257  0.8253  0.3086
   41CHL1    H8 2975   5.339   3.963   3.604 -0.0852  0.7308 -4.2481
   41CHL1   C14 2976   5.186   4.034   3.736  0.2750  0.7640 -0.4095
   41CHL1   H14 2977   5.084   4.077   3.728  0.4795  1.0744 -1.4553
   41CHL1   C15 2978   5.257   4.134   3.832 -0.3579  0.5512 -0.5033
   41CHL1  H15A 2979   5.365   4.110   3.833 -0.4297  0.2306  0.4178
   41CHL1  H15B 2980   5.231   4.237   3.798 -4.2153 -0.8474 -2.3444
   41CHL1   C16 2981   5.207   4.094   3.972 -0.4407 -1.0298 -0.4108
   41CHL1  H16A 2982   5.303   4.079   4.025 -0.8143 -0.3493  0.4913
   41CHL1  H16B 2983   5.153   4.170   4.033  1.5847 -1.5491  2.2461
   41CHL1   C17 2984   5.128   3.966   3.958 -0.0707 -0.1245  0.0268
   41CHL1   H17 2985   5.025   3.997   3.932  0.5572  1.3354 -0.7807
   41CHL1   C13 2986   5.175   3.905   3.821 -0.7429 -0.7014 -0.9210
   41CHL1   C18 2987   5.312   3.831   3.839 -0.5360  0.5428 -0.0648
   41CHL1  H18A 2988   5.366   3.817   3.743  0.8935  2.5297  0.3768
   41CHL1  H18B 2989   5.383   3.882   3.908  1.0179  0.9488 -1.8921
   41CHL1  H18C 2990   5.315   3.733   3.892  2.7129  1.2973  1.4393
   41CHL1   C12 2991   5.080   3.810   3.759  0.1613  0.0886 -0.0859
   41CHL1  H12A 2992   5.063   3.715   3.814 -1.8177  0.9639  0.8990
   41CHL1  H12B 2993   4.984   3.863   3.744 -0.3220 -1.2108 -1.9205
   41CHL1   C11 2994   5.120   3.777   3.612 -0.3139  0.1453 -0.3102
   41CHL1  H11A 2995   5.213   3.715   3.613 -1.1463 -1.3087 -2.6103
   41CHL1  H11B 2996   5.034   3.723   3.567  2.2518 -1.9827 -3.1374
   41CHL1    C9 2997   5.141   3.907   3.531 -0.5700 -0.0194  0.5591
   41CHL1    H9 2998   5.048   3.968   3.530 -0.1263  0.6741 -0.6740
   41CHL1   C10 2999   5.183   3.877   3.388 -1.0176 -0.2086 -0.0225
   41CHL1   C19 3000   5.291   3.765   3.384 -0.5230 -0.5304 -0.3806
   41CHL1  H19A 3001   5.246   3.668   3.414 -0.7718 -0.8875 -1.8172
   41CHL1  H19B 3002   5.328   3.744   3.281  0.3624 -2.0419  0.2276
   41CHL1  H19C 3003   5.379   3.795   3.444  0.9241  1.2600 -3.1868
   41CHL1    C1 3004   5.064   3.833   3.299 -0.4040  0.3225  0.1715
   41CHL1   H1A 3005   5.022   3.742   3.348  1.2743  0.2442  1.6104
   41CHL1   H1B 3006   4.986   3.909   3.319 -0.3916  0.5983 -0.7965
   41CHL1    C2 3007   5.100   3.823   3.145  0.1248  0.3445 -0.5338
   41CHL1   H2A 3008   5.014   3.795   3.081 -0.2364  2.1124 -0.8657
   41CHL1   H2B 3009   5.163   3.732   3.134 -0.8355 -0.6881  1.9479
   41CHL1   C20 3010   5.120   3.877   4.079  0.1839 -0.1095  0.1500
   41CHL1   H20 3011   5.090   3.778   4.039 -0.2160 -0.0007  0.1795
   41CHL1   C21 3012   4.999   3.938   4.155 -0.6615 -0.4509 -0.3120
   41CHL1  H21A 3013   4.904   3.936   4.098  0.1065 -1.3385 -1.6184
   41CHL1  H21B 3014   5.024   4.042   4.184  0.9037 -0.1060 -2.6030
   41CHL1  H21C 3015   4.983   3.872   4.243  0.7931 -0.1975  0.1681
   41CHL1   C22 3016   5.249   3.873   4.166 -0.2491 -0.1341  0.2165
   41CHL1  H22A 3017   5.339   3.873   4.102 -0.4560 -0.9368 -0.0807
   41CHL1  H22B 3018   5.244   3.960   4.236 -0.5261  0.2135 -0.2293
   41CHL1   C23 3019   5.238   3.748   4.246  0.2002  0.3004 -0.3900
   41CHL1  H23A 3020   5.141   3.737   4.299  0.7937  0.6469  0.7928
   41CHL1  H23B 3021   5.248   3.663   4.174 -2.1445  0.0683 -0.5100
   41CHL1   C24 3022   5.350   3.718   4.345  0.5662  0.7686 -0.1702
   41CHL1  H24A 3023   5.369   3.609   4.359 -1.1891  0.6586  1.6951
   41CHL1  H24B 3024   5.445   3.755   4.299  0.9818 -0.6139 -0.4628
   41CHL1   C25 3025   5.347   3.783   4.488 -0.1990  0.4518  0.3857
   41CHL1   H25 3026   5.255   3.747   4.539 -2.0556  1.0707 -2.3109
   41CHL1   C26 3027   5.481   3.759   4.563 -0.3357  0.0730 -0.3881
   41CHL1  H26A 3028   5.480   3.792   4.669  1.5137 -1.1895  0.0711
   41CHL1  H26B 3029   5.514   3.653   4.559  0.0360  0.2177 -1.3474
   41CHL1  H26C 3030   5.553   3.809   4.495 -0.5940  0.3605 -0.4542
   41CHL1   C27 3031   5.344   3.937   4.477  0.0024  0.7850 -0.1007
   41CHL1  H27A 3032   5.245   3.982   4.455 -0.3860 -0.1017 -0.1842
   41CHL1  H27B 3033   5.368   3.980   4.577  3.8029  2.1454 -1.4240
   41CHL1  H27C 3034   5.423   3.972   4.407 -0.2712  1.5922 -0.0196
   42CHL1    C3 3035   0.479   3.152   3.274  0.0361  0.4320 -0.1006
   42CHL1    H3 3036   0.522   3.252   3.295  3.2666 -1.0120  0.8794
   42CHL1    O3 3037   0.421   3.144   3.143  0.0480  0.1056 -0.8067
   42CHL1   H3' 3038   0.407   3.237   3.121  0.4436  0.1796 -0.7648
   42CHL1    C4 3039   0.594   3.054   3.286 -0.1336  0.5461 -0.3316
   42CHL1   H4A 3040   0.558   2.953   3.259  3.1976 -0.8362 -0.1084
   42CHL1   H4B 3041   0.672   3.066   3.208 -0.9518  2.5630 -0.9052
   42CHL1    C5 3042   0.657   3.049   3.420  0.1526  0.2618  0.1651
   42CHL1    C6 3043   0.787   3.073   3.443  0.5603  0.4300  0.0271
   42CHL1    H6 3044   0.858   3.094   3.361  0.0329  0.7077 -0.3718
   42CHL1    C7 3045   0.851   3.080   3.576 -0.5074  0.1991 -0.0115
   42CHL1   H7A 3046   0.950   3.030   3.577  0.2107  1.4965 -1.5231
   42CHL1   H7B 3047   0.861   3.189   3.598  0.4682  0.1954 -0.4324
   42CHL1    C8 3048   0.762   3.018   3.684  0.0261 -0.1069 -0.9120
   42CHL1    H8 3049   0.757   2.909   3.663  0.1509 -0.3282  0.1355
   42CHL1   C14 3050   0.817   3.054   3.826 -0.3020  0.2606 -0.2188
   42CHL1   H14 3051   0.794   3.161   3.844 -0.4826  0.4246 -1.3196
   42CHL1   C15 3052   0.968   3.041   3.852 -0.4787  0.2968  0.4508
   42CHL1  H15A 3053   1.001   2.948   3.800  0.6555  1.7439 -1.5300
   42CHL1  H15B 3054   1.039   3.115   3.811 -2.8832  1.9888 -0.8923
   42CHL1   C16 3055   0.983   3.029   4.005  0.1928  0.0294  0.1500
   42CHL1  H16A 3056   1.022   2.929   4.033 -0.8094 -0.5915 -0.5592
   42CHL1  H16B 3057   1.037   3.110   4.058 -0.5473  0.1301  0.7684
   42CHL1   C17 3058   0.831   3.021   4.055  0.1650 -0.0974  0.1039
   42CHL1   H17 3059   0.799   3.126   4.074 -0.7687 -0.5126  0.9099
   42CHL1   C13 3060   0.745   2.987   3.933 -0.6923 -0.6254  0.0024
   42CHL1   C18 3061   0.738   2.832   3.908  0.0588  0.3305  0.3306
   42CHL1  H18A 3062   0.669   2.808   3.824  0.6462  1.6695 -0.5653
   42CHL1  H18B 3063   0.836   2.780   3.897 -0.0878  0.0999  0.1141
   42CHL1  H18C 3064   0.689   2.793   4.000 -0.4671 -3.1584 -1.2743
   42CHL1   C12 3065   0.602   3.049   3.932 -0.0705  0.9685  0.1340
   42CHL1  H12A 3066   0.557   2.986   4.012  0.3917 -2.3962 -2.0732
   42CHL1  H12B 3067   0.608   3.158   3.950  0.9477  1.0434 -0.5705
   42CHL1   C11 3068   0.537   3.028   3.798  0.3623  0.1625  0.2609
   42CHL1  H11A 3069   0.512   2.921   3.788 -0.4151  0.4377 -0.9570
   42CHL1  H11B 3070   0.448   3.094   3.790  0.4943  0.2938 -0.2113
   42CHL1    C9 3071   0.617   3.070   3.668  0.3663 -0.2470 -0.6261
   42CHL1    H9 3072   0.617   3.181   3.673 -3.5835 -0.1348  3.5497
   42CHL1   C10 3073   0.557   3.028   3.534  0.0966  0.4474  0.8874
   42CHL1   C19 3074   0.495   2.884   3.533 -0.4240 -1.0877  0.1495
   42CHL1  H19A 3075   0.575   2.816   3.570  0.6126 -0.2093 -0.3909
   42CHL1  H19B 3076   0.402   2.873   3.593  0.2283 -1.2587  1.1470
   42CHL1  H19C 3077   0.475   2.850   3.429 -2.6649 -2.5586  0.9884
   42CHL1    C1 3078   0.436   3.127   3.518  0.4583 -0.3381 -0.2043
   42CHL1   H1A 3079   0.352   3.106   3.587  0.8519  1.0970  0.7362
   42CHL1   H1B 3080   0.468   3.230   3.543  0.3844 -0.5076  0.6146
   42CHL1    C2 3081   0.366   3.124   3.382  0.0072 -0.5685  0.8756
   42CHL1   H2A 3082   0.294   3.209   3.379 -0.9696 -1.3921  0.3995
   42CHL1   H2B 3083   0.324   3.027   3.349  1.3791 -0.2136 -2.2693
   42CHL1   C20 3084   0.814   2.928   4.187  0.3829  0.1514 -0.1502
   42CHL1   H20 3085   0.828   2.822   4.156 -1.3763  0.0129 -0.5634
   42CHL1   C21 3086   0.684   2.948   4.269 -0.4721 -0.0655  0.0479
   42CHL1  H21A 3087   0.699   2.895   4.365 -1.2324  1.0093  0.7957
   42CHL1  H21B 3088   0.599   2.907   4.210  0.8513 -0.3435 -1.7511
   42CHL1  H21C 3089   0.673   3.058   4.285  2.8844  1.0424 -3.5561
   42CHL1   C22 3090   0.926   2.958   4.298 -0.2203  0.0373 -0.1174
   42CHL1  H22A 3091   0.907   2.876   4.370  2.4130 -0.1641  0.4500
   42CHL1  H22B 3092   1.025   2.934   4.255 -0.5847 -0.7991 -0.5181
   42CHL1   C23 3093   0.931   3.097   4.351  0.0616 -0.1921  0.1877
   42CHL1  H23A 3094   0.955   3.174   4.274  1.7414 -1.4284 -0.5863
   42CHL1  H23B 3095   0.834   3.125   4.399 -0.1629  0.3106 -0.5359
   42CHL1   C24 3096   1.037   3.118   4.465 -0.1977  0.1793 -0.1388
   42CHL1  H24A 3097   1.023   3.052   4.554 -1.1550  1.1193  0.4366
   42CHL1  H24B 3098   1.141   3.089   4.441  0.3678  3.3456 -2.0540
   42CHL1   C25 3099   1.053   3.262   4.522 -0.0611 -0.0042  0.8545
   42CHL1   H25 3100   1.092   3.322   4.437 -0.4997  0.2860  0.8536
   42CHL1   C26 3101   0.917   3.317   4.563  0.1995  0.2452 -0.5817
   42CHL1  H26A 3102   0.857   3.237   4.611 -1.0109  1.9715  0.9391
   42CHL1  H26B 3103   0.929   3.397   4.640  0.7101  1.2558 -1.6765
   42CHL1  H26C 3104   0.856   3.339   4.473 -3.1366  0.0073  1.4679
   42CHL1   C27 3105   1.152   3.276   4.637 -0.1556 -0.3379 -0.2460
   42CHL1  H27A 3106   1.156   3.384   4.660 -1.8809 -0.3521  0.2759
   42CHL1  H27B 3107   1.107   3.228   4.727 -0.8840  1.9905  0.7061
   42CHL1  H27C 3108   1.256   3.243   4.620 -0.0837 -1.7432  2.3726
   43CHL1    C3 3109   3.940   3.302   3.028  0.0763 -0.8939 -0.7521
   43CHL1    H3 3110   3.866   3.366   3.081  1.2720 -0.5383  0.5587
   43CHL1    O3 3111   3.922   3.287   2.887 -0.4194 -0.0978 -0.4823
   43CHL1   H3' 3112   3.961   3.204   2.859  1.5254  1.8548 -4.4196
   43CHL1    C4 3113   4.076   3.371   3.056  0.7255  0.2056 -0.0753
   43CHL1   H4A 3114   4.151   3.320   2.992  1.7480  0.6613  0.7272
   43CHL1   H4B 3115   4.070   3.476   3.018  1.5855  0.1633 -0.3399
   43CHL1    C5 3116   4.101   3.372   3.208  0.8797  0.8248  0.0989
   43CHL1    C6 3117   4.140   3.483   3.276  0.4098  0.1631  0.5260
   43CHL1    H6 3118   4.160   3.577   3.224  1.3653  1.6864  3.4276
   43CHL1    C7 3119   4.170   3.485   3.423  0.0190  0.2509 -0.4444
   43CHL1   H7A 3120   4.253   3.553   3.449  0.3477 -0.7078  1.1426
   43CHL1   H7B 3121   4.077   3.517   3.474  0.3825  1.7602 -0.6863
   43CHL1    C8 3122   4.204   3.343   3.478  0.2526  0.0997  0.1206
   43CHL1    H8 3123   4.305   3.311   3.444  0.8175  1.8374  0.0915
   43CHL1   C14 3124   4.199   3.343   3.636 -0.0444  0.3901  0.3395
   43CHL1   H14 3125   4.100   3.385   3.665 -0.9771 -1.4811  0.0439
   43CHL1   C15 3126   4.305   3.437   3.710 -0.0326 -0.0081 -0.1030
   43CHL1  H15A 3127   4.403   3.428   3.657 -0.3376  2.5894 -1.2503
   43CHL1  H15B 3128   4.274   3.543   3.700 -1.1994 -0.2970  0.3364
   43CHL1   C16 3129   4.307   3.393   3.859 -0.2493  0.0312 -0.0216
   43CHL1  H16A 3130   4.414   3.368   3.877  0.4688 -1.1421 -4.6740
   43CHL1  H16B 3131   4.265   3.478   3.917 -1.3355  1.9427 -3.3206
   43CHL1   C17 3132   4.212   3.265   3.866  0.8664 -0.0310  0.6977
   43CHL1   H17 3133   4.115   3.316   3.882  0.8754 -0.1132  1.0181
   43CHL1   C13 3134   4.209   3.211   3.716  0.3400 -0.6806  0.3448
   43CHL1   C18 3135   4.345   3.142   3.696 -0.6971 -0.0820  0.9753
   43CHL1  H18A 3136   4.354   3.049   3.756  0.3210 -0.4939  0.2009
   43CHL1  H18B 3137   4.351   3.112   3.589 -0.5722  0.9020  0.6954
   43CHL1  H18C 3138   4.438   3.201   3.713  0.1154 -1.4371  1.3395
   43CHL1   C12 3139   4.084   3.136   3.667  0.4016 -0.2242 -0.0385
   43CHL1  H12A 3140   4.085   3.032   3.705  0.7504  0.6206  2.4357
   43CHL1  H12B 3141   3.990   3.192   3.686  0.4204 -0.7952  1.9393
   43CHL1   C11 3142   4.090   3.116   3.516 -0.0773  0.0316  0.1320
   43CHL1  H11A 3143   4.180   3.060   3.483  1.5537  2.6927 -0.2173
   43CHL1  H11B 3144   4.007   3.052   3.480  1.2548 -1.4653 -0.3760
   43CHL1    C9 3145   4.091   3.251   3.431 -0.6336 -0.5707  0.1338
   43CHL1    H9 3146   3.995   3.302   3.451 -1.4649 -1.7929 -0.6469
   43CHL1   C10 3147   4.091   3.233   3.279 -0.1394 -0.7490  0.3356
   43CHL1   C19 3148   4.216   3.165   3.226  0.1775  0.6733  0.6367
   43CHL1  H19A 3149   4.312   3.211   3.256  0.3633 -0.2859  1.5757
   43CHL1  H19B 3150   4.222   3.065   3.275  1.8279 -0.9171 -2.4639
   43CHL1  H19C 3151   4.218   3.155   3.115 -0.1096  0.8836  0.6133
   43CHL1    C1 3152   3.963   3.163   3.240 -0.2261 -0.4017  0.1489
   43CHL1   H1A 3153   3.979   3.058   3.275 -1.4534 -1.0016 -0.9930
   43CHL1   H1B 3154   3.878   3.209   3.294  1.6883 -0.3037  3.3501
   43CHL1    C2 3155   3.920   3.165   3.092  0.7607 -0.2889 -0.4767
   43CHL1   H2A 3156   3.812   3.142   3.076  0.7944  0.0743 -1.2812
   43CHL1   H2B 3157   3.975   3.086   3.037 -0.1362 -1.7649  0.6724
   43CHL1   C20 3158   4.249   3.169   3.979 -0.1103 -0.2700  0.1268
   43CHL1   H20 3159   4.358   3.154   3.970 -0.2083 -0.3899 -0.9232
   43CHL1   C21 3160   4.167   3.038   3.976 -0.4198 -0.4349 -0.4645
   43CHL1  H21A 3161   4.058   3.060   3.973 -0.3907 -0.4520 -2.0124
   43CHL1  H21B 3162   4.192   2.990   4.074 -1.0492  1.3357  0.6159
   43CHL1  H21C 3163   4.200   2.962   3.903 -1.6014 -0.8273 -0.6200
   43CHL1   C22 3164   4.223   3.244   4.113  0.2819 -0.2708 -0.0195
   43CHL1  H22A 3165   4.243   3.352   4.096 -1.2347  0.2526  1.2831
   43CHL1  H22B 3166   4.115   3.245   4.139  0.1269 -0.6332 -0.6283
   43CHL1   C23 3167   4.317   3.189   4.215  0.0477  0.0255  0.3929
   43CHL1  H23A 3168   4.292   3.083   4.234  1.1310 -0.3976 -0.4897
   43CHL1  H23B 3169   4.422   3.191   4.178 -0.8253  1.3454 -2.2723
   43CHL1   C24 3170   4.319   3.264   4.352 -0.2907  0.3086  0.5136
   43CHL1  H24A 3171   4.380   3.207   4.426  3.0908  1.2359 -1.3528
   43CHL1  H24B 3172   4.371   3.361   4.337  0.1097  0.2220  1.2894
   43CHL1   C25 3173   4.178   3.283   4.419 -1.0618 -0.3711  0.0377
   43CHL1   H25 3174   4.123   3.343   4.344 -0.5513 -2.5941 -2.2734
   43CHL1   C26 3175   4.096   3.159   4.447  0.5059  0.9434  0.6126
   43CHL1  H26A 3176   3.989   3.187   4.448  0.7696  2.0816 -0.5820
   43CHL1  H26B 3177   4.105   3.088   4.361 -3.0524  2.0448 -0.8321
   43CHL1  H26C 3178   4.125   3.106   4.540 -3.0911 -1.0481  0.7982
   43CHL1   C27 3179   4.199   3.371   4.546 -0.5896 -0.0567  0.4099
   43CHL1  H27A 3180   4.105   3.411   4.590 -0.2137  0.6217  0.6151
   43CHL1  H27B 3181   4.261   3.324   4.625  0.4794 -2.3740 -1.6714
   43CHL1  H27C 3182   4.258   3.460   4.516  0.8630 -1.3737 -0.8539
   44CHL1    C3 3183   2.497   3.633   3.108  0.2381 -0.2487 -0.5779
   44CHL1    H3 3184   2.608   3.636   3.115  0.3186 -1.5177 -1.0718
   44CHL1    O3 3185   2.463   3.634   2.971  0.0686 -0.1275 -0.4330
   44CHL1   H3' 3186   2.368   3.630   2.961 -0.0152 -1.5046  0.6743
   44CHL1    C4 3187   2.437   3.509   3.174 -0.2411  0.1755 -0.2025
   44CHL1   H4A 3188   2.327   3.506   3.158 -0.5721  0.1230  1.8064
   44CHL1   H4B 3189   2.492   3.419   3.139  1.4993  1.1078 -0.0066
   44CHL1    C5 3190   2.459   3.516   3.325  0.3818 -0.1754 -0.3219
   44CHL1    C6 3191   2.522   3.411   3.389  0.4848  0.7941  0.1891
   44CHL1    H6 3192   2.563   3.334   3.322 -0.5283  1.3658 -1.1389
   44CHL1    C7 3193   2.540   3.399   3.539  0.6336 -0.3784  0.7008
   44CHL1   H7A 3194   2.518   3.296   3.576 -0.5674 -0.8963 -1.2949
   44CHL1   H7B 3195   2.649   3.415   3.553  0.7740  0.6927 -1.3414
   44CHL1    C8 3196   2.464   3.517   3.614  0.0786  0.2945  0.1134
   44CHL1    H8 3197   2.357   3.487   3.619 -0.6684  2.8934  1.5037
   44CHL1   C14 3198   2.514   3.532   3.757  0.3357  0.4849  0.0562
   44CHL1   H14 3199   2.620   3.564   3.751  0.0591  1.2830 -0.5734
   44CHL1   C15 3200   2.529   3.408   3.844 -0.1925 -0.0965  0.3723
   44CHL1  H15A 3201   2.431   3.360   3.824 -0.6285  1.1904 -0.7768
   44CHL1  H15B 3202   2.612   3.337   3.826 -1.0234 -1.1382  0.5682
   44CHL1   C16 3203   2.543   3.467   3.982 -0.0329 -0.0685 -0.8684
   44CHL1  H16A 3204   2.467   3.416   4.044  0.0430 -1.6449 -2.0051
   44CHL1  H16B 3205   2.648   3.444   4.012 -0.0891  1.9116  1.1268
   44CHL1   C17 3206   2.526   3.623   3.968 -0.2932  0.5702  0.5973
   44CHL1   H17 3207   2.630   3.657   3.949  0.8064 -2.5228  0.5807
   44CHL1   C13 3208   2.444   3.640   3.846  0.2522  0.4917 -0.0780
   44CHL1   C18 3209   2.293   3.604   3.871  0.0913 -0.7335  0.0571
   44CHL1  H18A 3210   2.246   3.682   3.935  1.3865 -0.4943  0.7403
   44CHL1  H18B 3211   2.236   3.598   3.776  2.0596  0.9937 -1.3246
   44CHL1  H18C 3212   2.291   3.510   3.931  0.3855 -0.6989  0.1191
   44CHL1   C12 3213   2.454   3.769   3.768 -0.0448 -0.1419 -0.2174
   44CHL1  H12A 3214   2.385   3.840   3.818  0.1699  0.7065 -1.0933
   44CHL1  H12B 3215   2.553   3.819   3.771  0.2868 -0.7807  2.4494
   44CHL1   C11 3216   2.397   3.767   3.631 -0.4766 -0.2416  0.1830
   44CHL1  H11A 3217   2.288   3.752   3.643 -0.7881  1.0706 -0.8339
   44CHL1  H11B 3218   2.420   3.867   3.588 -1.5525 -0.5951 -1.3032
   44CHL1    C9 3219   2.457   3.652   3.543 -0.3755 -0.2442  0.0822
   44CHL1    H9 3220   2.565   3.676   3.530 -0.0490 -0.3507  2.2486
   44CHL1   C10 3221   2.402   3.637   3.401  0.2548 -0.2411  0.8821
   44CHL1   C19 3222   2.249   3.627   3.398 -0.0265 -0.5121 -0.0621
   44CHL1  H19A 3223   2.222   3.539   3.460 -0.8322 -1.5370 -1.7801
   44CHL1  H19B 3224   2.206   3.723   3.432 -0.4698  0.0066 -1.9574
   44CHL1  H19C 3225   2.209   3.618   3.295  1.5920 -0.5719 -0.7154
   44CHL1    C1 3226   2.444   3.774   3.322 -0.3800  0.1638  0.4129
   44CHL1   H1A 3227   2.373   3.853   3.354  0.3909  0.4788  1.4018
   44CHL1   H1B 3228   2.548   3.807   3.341 -0.2188  0.1443 -0.3785
   44CHL1    C2 3229   2.430   3.762   3.165  0.4527 -0.3939  0.4891
   44CHL1   H2A 3230   2.474   3.859   3.131 -1.6052  1.2721  2.2316
   44CHL1   H2B 3231   2.326   3.765   3.124  1.7026  0.0360 -3.0164
   44CHL1   C20 3232   2.487   3.693   4.093  0.4016 -0.7490  0.1271
   44CHL1   H20 3233   2.381   3.674   4.117  0.8464 -3.3693  0.3243
   44CHL1   C21 3234   2.500   3.844   4.060  0.4088 -0.0633  0.1933
   44CHL1  H21A 3235   2.521   3.898   4.155  0.1962  0.2290  0.0736
   44CHL1  H21B 3236   2.401   3.879   4.024  0.0651 -0.1683  0.9988
   44CHL1  H21C 3237   2.581   3.865   3.988 -0.1047 -0.1305 -0.4141
   44CHL1   C22 3238   2.567   3.648   4.213  0.5137 -0.0195  0.0157
   44CHL1  H22A 3239   2.532   3.543   4.216  0.3287  0.0628  1.1470
   44CHL1  H22B 3240   2.677   3.656   4.194  0.6224  0.2209  0.6970
   44CHL1   C23 3241   2.516   3.698   4.352 -0.3011  0.5016 -0.1707
   44CHL1  H23A 3242   2.533   3.808   4.351  2.1130  0.1926  0.6172
   44CHL1  H23B 3243   2.410   3.664   4.360 -0.1068  0.3113  2.6673
   44CHL1   C24 3244   2.595   3.634   4.468 -0.4101 -0.4813  0.4585
   44CHL1  H24A 3245   2.592   3.524   4.452 -0.3483 -0.8859  2.8051
   44CHL1  H24B 3246   2.700   3.672   4.468 -0.5609 -0.0120 -0.9295
   44CHL1   C25 3247   2.542   3.661   4.613 -0.6708 -0.4835  0.1737
   44CHL1   H25 3248   2.444   3.610   4.626 -0.3480 -0.8177  1.3510
   44CHL1   C26 3249   2.637   3.593   4.713 -0.8107 -0.1919  0.5381
   44CHL1  H26A 3250   2.593   3.581   4.814  0.6220 -1.6531  1.0371
   44CHL1  H26B 3251   2.660   3.493   4.670  0.3344  1.1073 -2.1088
   44CHL1  H26C 3252   2.730   3.654   4.724 -0.2790 -0.8012 -0.4242
   44CHL1   C27 3253   2.520   3.810   4.638 -0.3577  0.6604  0.6239
   44CHL1  H27A 3254   2.453   3.856   4.563  0.2978  1.6007  0.6034
   44CHL1  H27B 3255   2.487   3.847   4.738  1.1609  2.7337  0.4082
   44CHL1  H27C 3256   2.611   3.870   4.620 -1.1901  1.8381  0.2548
   45CHL1    C3 3257   3.082   1.487   3.183 -0.4139  0.2683  0.8291
   45CHL1    H3 3258   3.158   1.407   3.199 -0.4329  0.1993  0.5944
   45CHL1    O3 3259   3.063   1.493   3.035  0.0818  0.1162 -0.4526
   45CHL1   H3' 3260   3.150   1.496   2.994  0.1986 -1.2078 -0.3390
   45CHL1    C4 3261   2.943   1.470   3.244  0.8221 -0.4850  0.5435
   45CHL1   H4A 3262   2.890   1.558   3.201  1.5167 -0.9146 -1.2423
   45CHL1   H4B 3263   2.888   1.384   3.201  0.7623  0.6056 -1.6975
   45CHL1    C5 3264   2.949   1.486   3.394  0.0706 -0.5126 -0.0942
   45CHL1    C6 3265   2.918   1.382   3.471  0.4573  0.3148 -0.2125
   45CHL1    H6 3266   2.888   1.291   3.417  1.0591  0.2707 -0.4792
   45CHL1    C7 3267   2.910   1.384   3.618 -0.1849 -0.5532 -0.3061
   45CHL1   H7A 3268   2.821   1.326   3.652 -0.9450 -0.3074 -1.7971
   45CHL1   H7B 3269   2.997   1.327   3.657 -0.0457  0.0291  0.2534
   45CHL1    C8 3270   2.914   1.529   3.679 -0.1323  0.8224 -0.5098
   45CHL1    H8 3271   2.818   1.581   3.659 -0.5791  0.5090  0.7294
   45CHL1   C14 3272   2.945   1.524   3.834 -0.5138  0.0692 -0.0260
   45CHL1   H14 3273   3.042   1.472   3.847 -1.2304 -0.9389  1.7082
   45CHL1   C15 3274   2.855   1.445   3.926  0.0737 -0.4190  0.1621
   45CHL1  H15A 3275   2.748   1.466   3.900  0.7778  0.1373 -2.6897
   45CHL1  H15B 3276   2.871   1.336   3.914  0.0726 -0.3662 -0.3464
   45CHL1   C16 3277   2.895   1.489   4.069 -0.0217 -0.1855  1.0120
   45CHL1  H16A 3278   2.803   1.516   4.124 -0.9633  0.8385 -0.9441
   45CHL1  H16B 3279   2.946   1.407   4.124  0.8985 -1.5456 -1.6382
   45CHL1   C17 3280   2.982   1.616   4.038 -0.7295  0.4208 -0.2110
   45CHL1   H17 3281   3.086   1.581   4.053 -0.8290 -1.2219 -2.7753
   45CHL1   C13 3282   2.962   1.665   3.896  1.0034  1.2229  0.1985
   45CHL1   C18 3283   2.817   1.728   3.881  0.7251  0.2592  0.6088
   45CHL1  H18A 3284   2.797   1.749   3.773  0.6757 -1.2969  0.3017
   45CHL1  H18B 3285   2.735   1.671   3.928  1.2075 -0.6301  0.3958
   45CHL1  H18C 3286   2.816   1.829   3.929 -0.2512  1.9121 -2.5601
   45CHL1   C12 3287   3.071   1.747   3.824  0.2270  0.4144  0.0385
   45CHL1  H12A 3288   3.066   1.848   3.871 -1.4624 -0.3642  1.6517
   45CHL1  H12B 3289   3.165   1.694   3.849 -0.7730 -1.1193  0.6528
   45CHL1   C11 3290   3.055   1.749   3.665  0.4177 -0.0685  0.2624
   45CHL1  H11A 3291   2.965   1.813   3.655  0.0460 -0.5201  0.6327
   45CHL1  H11B 3292   3.146   1.802   3.631  1.8200 -1.7123  1.2817
   45CHL1    C9 3293   3.027   1.612   3.601 -0.2250 -0.1308 -0.0791
   45CHL1    H9 3294   3.117   1.548   3.612 -0.9922 -1.0212  1.2643
   45CHL1   C10 3295   3.003   1.625   3.444  0.4205  0.4365  0.0484
   45CHL1   C19 3296   2.905   1.743   3.413  0.2519  0.0589 -0.5623
   45CHL1  H19A 3297   2.884   1.750   3.304 -0.7245  0.2161 -0.3759
   45CHL1  H19B 3298   2.807   1.718   3.460 -0.3008  1.0469 -1.1471
   45CHL1  H19C 3299   2.946   1.840   3.450  1.9282 -0.3467 -1.2810
   45CHL1    C1 3300   3.146   1.642   3.375  0.1873 -0.2814  0.4270
   45CHL1   H1A 3301   3.195   1.737   3.405 -1.3638 -0.0703  2.5713
   45CHL1   H1B 3302   3.206   1.560   3.420 -1.8323 -0.8468  2.2843
   45CHL1    C2 3303   3.147   1.615   3.216  0.1845 -0.4773  0.4953
   45CHL1   H2A 3304   3.252   1.617   3.179  0.6286 -2.1806  1.5447
   45CHL1   H2B 3305   3.102   1.699   3.159  0.3060  0.7350  2.1343
   45CHL1   C20 3306   2.953   1.713   4.158  0.0115 -0.1093  0.4182
   45CHL1   H20 3307   2.844   1.733   4.155  0.1824  1.2796  1.9923
   45CHL1   C21 3308   3.037   1.842   4.133 -0.7853  0.5344  0.1913
   45CHL1  H21A 3309   3.041   1.909   4.222  2.2017 -1.3597  1.6123
   45CHL1  H21B 3310   3.010   1.898   4.041  0.6972  0.1503 -0.5076
   45CHL1  H21C 3311   3.144   1.817   4.121  0.0572  2.4209  2.8100
   45CHL1   C22 3312   2.992   1.667   4.297 -0.0186  0.1842 -0.2545
   45CHL1  H22A 3313   2.961   1.562   4.313  0.4151  0.4086  2.4862
   45CHL1  H22B 3314   3.103   1.660   4.305  0.0246  1.7786  0.9948
   45CHL1   C23 3315   2.942   1.756   4.412  0.3380 -0.1540  1.0110
   45CHL1  H23A 3316   2.961   1.862   4.387  0.3669 -0.2269  0.7213
   45CHL1  H23B 3317   2.831   1.746   4.413  0.2597  0.3438 -0.4352
   45CHL1   C24 3318   3.005   1.706   4.546  0.9566 -0.7701 -0.7180
   45CHL1  H24A 3319   2.987   1.599   4.567  0.3015 -0.4167  0.6114
   45CHL1  H24B 3320   3.114   1.723   4.540  0.9811  1.8470  3.2205
   45CHL1   C25 3321   2.958   1.786   4.675 -0.8494  0.1307  0.9290
   45CHL1   H25 3322   2.989   1.892   4.673  2.1360 -0.6750 -0.3362
   45CHL1   C26 3323   2.804   1.787   4.682  0.1481  0.0187 -0.0301
   45CHL1  H26A 3324   2.756   1.835   4.594 -1.2236 -1.2713 -0.0150
   45CHL1  H26B 3325   2.766   1.683   4.688  0.8315 -0.5174 -3.1236
   45CHL1  H26C 3326   2.787   1.846   4.774  0.5435 -1.4734  1.0449
   45CHL1   C27 3327   3.005   1.722   4.802 -1.0175 -0.8954 -0.1556
   45CHL1  H27A 3328   3.114   1.706   4.806 -0.6940  0.7503 -1.3322
   45CHL1  H27B 3329   2.980   1.783   4.892  0.1449  3.3487 -2.4239
   45CHL1  H27C 3330   2.958   1.623   4.818 -0.6631 -0.7236  2.3394
   46CHL1    C3 3331   6.098   5.750   3.416  0.7815 -0.1762  0.5773
   46CHL1    H3 3332   6.186   5.816   3.401 -1.3752  2.7588  0.1885
   46CHL1    O3 3333   6.100   5.640   3.317 -0.4315 -0.5814 -0.8236
   46CHL1   H3' 3334   6.012   5.641   3.277 -1.2852  0.9174  0.9343
   46CHL1    C4 3335   6.094   5.689   3.558 -0.4847  0.6675  0.3989
   46CHL1   H4A 3336   6.025   5.602   3.569 -1.0730  1.1964  0.9598
   46CHL1   H4B 3337   6.197   5.648   3.564  0.0887  2.1292  0.7859
   46CHL1    C5 3338   6.058   5.775   3.671  0.5004  0.6602  0.1271
   46CHL1    C6 3339   6.122   5.776   3.791 -0.1266 -0.2601 -0.1058
   46CHL1    H6 3340   6.205   5.706   3.804 -0.0596 -0.2502 -0.4673
   46CHL1    C7 3341   6.080   5.857   3.913  0.6851  0.0901 -0.1561
   46CHL1   H7A 3342   6.084   5.787   4.000  2.2327 -3.1996 -2.6648
   46CHL1   H7B 3343   6.144   5.946   3.931  0.0894  0.0818  2.4756
   46CHL1    C8 3344   5.940   5.921   3.897 -0.5671 -0.3717 -0.2980
   46CHL1    H8 3345   5.860   5.847   3.917 -2.3344  1.6921  0.5677
   46CHL1   C14 3346   5.937   6.034   3.996  0.2143 -0.5664 -0.7213
   46CHL1   H14 3347   6.005   6.118   3.969 -0.8784  0.6898  0.2471
   46CHL1   C15 3348   5.985   6.001   4.137 -0.0608  0.0563 -0.0846
   46CHL1  H15A 3349   5.951   5.901   4.173  0.4032  0.4759  1.5963
   46CHL1  H15B 3350   6.095   6.000   4.145 -0.0380 -2.0364 -0.0051
   46CHL1   C16 3351   5.921   6.114   4.225 -0.1049  0.3649  0.6887
   46CHL1  H16A 3352   5.851   6.063   4.293  0.1912 -1.2760 -0.1977
   46CHL1  H16B 3353   5.995   6.172   4.284  0.4614 -0.5154  0.8614
   46CHL1   C17 3354   5.832   6.206   4.125  1.0159  0.1293 -0.4289
   46CHL1   H17 3355   5.889   6.291   4.081 -3.3728  3.6927  0.0138
   46CHL1   C13 3356   5.802   6.110   4.010  0.2696  0.1677 -0.4838
   46CHL1   C18 3357   5.694   6.006   4.055  0.0746  1.2894 -0.9969
   46CHL1  H18A 3358   5.692   5.914   3.993 -1.7597  0.3515  0.3288
   46CHL1  H18B 3359   5.706   5.978   4.162 -1.7102  0.3736 -0.9909
   46CHL1  H18C 3360   5.592   6.050   4.048 -1.5633 -1.7143  1.3004
   46CHL1   C12 3361   5.776   6.174   3.870  0.7159 -0.1384 -0.2342
   46CHL1  H12A 3362   5.673   6.213   3.858 -0.2930 -2.0667  1.5455
   46CHL1  H12B 3363   5.858   6.248   3.859 -0.8176  1.9525  1.5859
   46CHL1   C11 3364   5.786   6.066   3.754 -0.1030 -0.0015  0.6382
   46CHL1  H11A 3365   5.697   6.002   3.773 -0.1161 -0.0759  0.3405
   46CHL1  H11B 3366   5.782   6.118   3.656  0.1849  2.3435  1.7978
   46CHL1    C9 3367   5.919   5.981   3.754  0.5061 -0.4331  0.2417
   46CHL1    H9 3368   5.997   6.058   3.740 -0.2204 -0.1388 -2.6691
   46CHL1   C10 3369   5.937   5.866   3.647 -0.2358  0.3480  0.2399
   46CHL1   C19 3370   5.802   5.781   3.646  0.4001  0.2943 -0.3898
   46CHL1  H19A 3371   5.803   5.691   3.581  0.8330 -0.1019  0.1503
   46CHL1  H19B 3372   5.782   5.742   3.748  0.7823 -0.7156 -0.6880
   46CHL1  H19C 3373   5.716   5.844   3.615 -1.3884 -1.6470  0.3851
   46CHL1    C1 3374   5.948   5.936   3.508  0.2214  0.0871 -0.2392
   46CHL1   H1A 3375   5.849   5.984   3.494  0.4761  1.4919  2.1510
   46CHL1   H1B 3376   6.027   6.015   3.508  0.3877 -0.0393  1.4026
   46CHL1    C2 3377   5.971   5.830   3.391 -0.4687  0.5800  0.6124
   46CHL1   H2A 3378   5.979   5.883   3.294  1.4505  0.4432  0.6680
   46CHL1   H2B 3379   5.884   5.762   3.381  0.1893 -0.2737  0.6112
   46CHL1   C20 3380   5.718   6.273   4.191 -0.7191 -0.1710 -0.3258
   46CHL1   H20 3381   5.652   6.200   4.242 -1.3899  0.5585 -0.1300
   46CHL1   C21 3382   5.631   6.344   4.088  0.4085  0.4380  0.2683
   46CHL1  H21A 3383   5.551   6.402   4.138 -1.0555  0.3632 -1.8554
   46CHL1  H21B 3384   5.576   6.270   4.026 -1.0035  0.0836  1.8818
   46CHL1  H21C 3385   5.686   6.418   4.026  0.2552 -1.6111 -2.5393
   46CHL1   C22 3386   5.765   6.378   4.297 -0.7434  0.6900  0.0235
   46CHL1  H22A 3387   5.830   6.319   4.365  0.1209 -0.8397 -2.0199
   46CHL1  H22B 3388   5.825   6.462   4.254 -1.2683  1.4304  0.7274
   46CHL1   C23 3389   5.654   6.434   4.382 -0.1225 -0.0664  0.4039
   46CHL1  H23A 3390   5.584   6.500   4.328 -0.5440  0.1147  1.1516
   46CHL1  H23B 3391   5.588   6.357   4.428 -0.3359  0.2054  0.5593
   46CHL1   C24 3392   5.707   6.512   4.497  0.4964  0.6952 -0.1830
   46CHL1  H24A 3393   5.766   6.438   4.555 -2.1054 -0.6380  0.9591
   46CHL1  H24B 3394   5.751   6.605   4.455 -0.6689  2.0373  1.4103
   46CHL1   C25 3395   5.600   6.582   4.583 -0.2993 -0.0238 -0.5548
   46CHL1   H25 3396   5.527   6.621   4.508 -0.4721  2.4598  0.8094
   46CHL1   C26 3397   5.524   6.487   4.677  0.3705  0.0169 -0.7406
   46CHL1  H26A 3398   5.452   6.420   4.625  0.0035  0.4015 -0.7306
   46CHL1  H26B 3399   5.600   6.434   4.738 -2.7486 -3.5999  0.3794
   46CHL1  H26C 3400   5.463   6.551   4.745  0.6136  2.0376 -2.3446
   46CHL1   C27 3401   5.645   6.700   4.672  0.9841 -0.4974 -0.3824
   46CHL1  H27A 3402   5.554   6.750   4.712 -0.1944 -4.0737  1.7930
   46CHL1  H27B 3403   5.715   6.660   4.748 -0.7279  1.2495  2.2940
   46CHL1  H27C 3404   5.698   6.775   4.609 -3.8165  1.2927 -2.8108
   47CHL1    C3 3405   5.688   1.483   3.220 -0.5215 -0.0924 -0.0659
   47CHL1    H3 3406   5.795   1.497   3.247 -0.4246 -0.2161 -0.3830
   47CHL1    O3 3407   5.673   1.476   3.082 -0.2746 -0.2924  0.2506
   47CHL1   H3' 3408   5.759   1.453   3.046 -1.0572 -0.7179 -1.4359
   47CHL1    C4 3409   5.628   1.353   3.278 -0.5754 -0.3260 -0.1841
   47CHL1   H4A 3410   5.524   1.346   3.238 -0.6087  0.9514 -0.3577
   47CHL1   H4B 3411   5.691   1.271   3.239  0.6092 -1.1241  3.1040
   47CHL1    C5 3412   5.634   1.361   3.424  0.0677 -0.4522 -0.5285
   47CHL1    C6 3413   5.689   1.260   3.497 -0.1318  0.1959  0.5204
   47CHL1    H6 3414   5.720   1.167   3.446 -2.2853 -0.5510  0.4891
   47CHL1    C7 3415   5.690   1.254   3.647  0.1189  0.2762 -0.0540
   47CHL1   H7A 3416   5.639   1.162   3.683 -2.8198  2.5208  1.9905
   47CHL1   H7B 3417   5.793   1.256   3.688  0.2848  3.0407 -0.4280
   47CHL1    C8 3418   5.606   1.372   3.711 -0.1931  0.5453  0.2004
   47CHL1    H8 3419   5.500   1.339   3.710  0.3286 -1.2150  0.5033
   47CHL1   C14 3420   5.644   1.395   3.858 -0.1715 -0.4517  0.3359
   47CHL1   H14 3421   5.745   1.436   3.835  0.0528 -0.7140  0.8445
   47CHL1   C15 3422   5.656   1.274   3.952 -0.9100 -0.1441  0.1990
   47CHL1  H15A 3423   5.561   1.218   3.936 -1.4124  0.5909  0.5429
   47CHL1  H15B 3424   5.741   1.204   3.938  0.3126  1.3117  0.0596
   47CHL1   C16 3425   5.668   1.349   4.090  0.2952 -0.1432  0.6126
   47CHL1  H16A 3426   5.588   1.312   4.158 -0.7690 -0.4038 -0.7401
   47CHL1  H16B 3427   5.769   1.332   4.133  1.3276 -0.6631 -1.8769
   47CHL1   C17 3428   5.640   1.501   4.068  0.4183 -0.9222  0.0327
   47CHL1   H17 3429   5.747   1.532   4.061  0.3903 -0.5537  1.1229
   47CHL1   C13 3430   5.568   1.506   3.936  1.0959 -0.4002 -0.0130
   47CHL1   C18 3431   5.418   1.471   3.965 -0.7588 -0.6615  0.4672
   47CHL1  H18A 3432   5.369   1.560   4.010  0.2729 -0.2290  0.7498
   47CHL1  H18B 3433   5.367   1.435   3.873  0.4474 -0.2029 -0.3991
   47CHL1  H18C 3434   5.409   1.392   4.043 -1.0808 -0.7760  0.3151
   47CHL1   C12 3435   5.576   1.641   3.852  0.1542 -0.1691  0.5725
   47CHL1  H12A 3436   5.505   1.719   3.887  1.2595  1.6577 -1.0457
   47CHL1  H12B 3437   5.682   1.673   3.859  0.0563  0.5309 -0.8158
   47CHL1   C11 3438   5.530   1.621   3.706 -0.3899  0.4610 -0.6974
   47CHL1  H11A 3439   5.423   1.603   3.733  0.3710 -2.7532  0.6153
   47CHL1  H11B 3440   5.552   1.714   3.649 -0.9536 -0.5412 -2.6669
   47CHL1    C9 3441   5.598   1.501   3.632 -0.5499 -1.0354  0.6030
   47CHL1    H9 3442   5.705   1.531   3.628 -1.0322  0.6150 -1.9901
   47CHL1   C10 3443   5.566   1.488   3.482  0.4874  0.7120  0.2222
   47CHL1   C19 3444   5.413   1.468   3.464 -0.0798  0.0578  0.2211
   47CHL1  H19A 3445   5.373   1.457   3.360  0.4751 -2.4041  0.2184
   47CHL1  H19B 3446   5.381   1.371   3.507  0.0453  0.5058  1.3589
   47CHL1  H19C 3447   5.350   1.546   3.514 -2.8545 -1.8807  0.0040
   47CHL1    C1 3448   5.599   1.616   3.406 -0.0927 -0.5115 -0.6180
   47CHL1   H1A 3449   5.532   1.699   3.438  2.7528  1.4541  0.6535
   47CHL1   H1B 3450   5.703   1.642   3.435 -0.5531 -0.8229  1.5117
   47CHL1    C2 3451   5.604   1.602   3.255  0.4785  0.2997  0.1702
   47CHL1   H2A 3452   5.636   1.694   3.202 -2.5663  2.5822  1.9795
   47CHL1   H2B 3453   5.501   1.580   3.221  0.2154 -2.7015  2.5002
   47CHL1   C20 3454   5.592   1.572   4.193  0.3941 -0.3566 -0.1332
   47CHL1   H20 3455   5.488   1.539   4.214 -0.4645  0.3218 -2.8430
   47CHL1   C21 3456   5.580   1.727   4.182 -0.0860 -0.0699  0.4380
   47CHL1  H21A 3457   5.515   1.755   4.096 -0.3094 -2.2316 -0.1620
   47CHL1  H21B 3458   5.678   1.774   4.158 -1.0320  1.6751 -0.1751
   47CHL1  H21C 3459   5.544   1.775   4.275  0.5127 -1.9239  1.6870
   47CHL1   C22 3460   5.687   1.537   4.314  1.1280  0.2367 -0.3122
   47CHL1  H22A 3461   5.706   1.428   4.310  0.9963  0.2229 -0.5770
   47CHL1  H22B 3462   5.783   1.590   4.292  0.3937  1.9935  0.5016
   47CHL1   C23 3463   5.637   1.574   4.454  0.3417 -0.0112  0.1889
   47CHL1  H23A 3464   5.623   1.684   4.463 -0.0513 -0.1924  2.1576
   47CHL1  H23B 3465   5.540   1.522   4.470 -0.2374  1.3887  1.5305
   47CHL1   C24 3466   5.741   1.522   4.551 -0.3154 -0.6894 -0.7165
   47CHL1  H24A 3467   5.783   1.428   4.511  1.0596 -1.0691  1.4410
   47CHL1  H24B 3468   5.810   1.608   4.565 -0.5036 -0.5047 -0.9073
   47CHL1   C25 3469   5.669   1.508   4.688 -0.5781  0.2506 -0.5427
   47CHL1   H25 3470   5.581   1.444   4.668  1.0645 -1.9980 -0.8924
   47CHL1   C26 3471   5.747   1.444   4.810 -0.6826 -0.5596  0.1289
   47CHL1  H26A 3472   5.797   1.351   4.775 -0.4529 -0.3020 -0.2324
   47CHL1  H26B 3473   5.834   1.507   4.839  0.0074 -1.1547 -0.5975
   47CHL1  H26C 3474   5.680   1.440   4.898 -2.0523  1.1016 -0.7629
   47CHL1   C27 3475   5.613   1.645   4.728 -0.1746 -0.3153 -0.4758
   47CHL1  H27A 3476   5.701   1.712   4.736 -0.8376  0.5700 -0.4951
   47CHL1  H27B 3477   5.545   1.699   4.659  0.3325 -0.5656 -1.1838
   47CHL1  H27C 3478   5.560   1.645   4.826 -1.1238 -1.9937 -0.9420
   48CHL1    C3 3479   1.419   1.998   3.105  0.4945  0.1643 -0.3806
   48CHL1    H3 3480   1.520   1.961   3.135  0.5257 -0.3759 -1.1165
   48CHL1    O3 3481   1.417   1.998   2.967 -0.1166  0.0268  0.6810
   48CHL1   H3' 3482   1.430   1.912   2.927 -1.6234 -0.4677  1.2008
   48CHL1    C4 3483   1.311   1.894   3.154 -0.0607 -0.1758  0.4425
   48CHL1   H4A 3484   1.219   1.920   3.097  1.3852 -0.3392 -2.1369
   48CHL1   H4B 3485   1.346   1.799   3.109 -0.1637  0.2288 -0.5325
   48CHL1    C5 3486   1.299   1.889   3.304  0.5750  0.1374  0.0264
   48CHL1    C6 3487   1.311   1.771   3.369  0.5613 -0.0264 -0.7185
   48CHL1    H6 3488   1.330   1.680   3.309  0.5011 -0.6592  0.2060
   48CHL1    C7 3489   1.285   1.760   3.518  0.7482 -0.9528 -0.0160
   48CHL1   H7A 3490   1.213   1.677   3.535  0.8438 -0.7494  1.5011
   48CHL1   H7B 3491   1.388   1.733   3.551  1.9050  1.8615 -1.0115
   48CHL1    C8 3492   1.223   1.883   3.583 -0.5433  0.2880 -0.1340
   48CHL1    H8 3493   1.113   1.884   3.564 -1.1147  0.7636  2.7667
   48CHL1   C14 3494   1.248   1.872   3.730  0.2139 -0.2004  0.0583
   48CHL1   H14 3495   1.359   1.870   3.742  0.3147  2.1905 -0.0674
   48CHL1   C15 3496   1.191   1.745   3.807  0.0300 -0.5778  0.3748
   48CHL1  H15A 3497   1.086   1.729   3.774  0.0537 -2.1890  0.9887
   48CHL1  H15B 3498   1.248   1.653   3.784  1.4706  0.8620 -2.3530
   48CHL1   C16 3499   1.192   1.786   3.954 -0.3839 -0.4085 -0.4254
   48CHL1  H16A 3500   1.091   1.771   3.996 -0.6478 -1.1639 -1.2983
   48CHL1  H16B 3501   1.259   1.738   4.029 -0.9437 -0.3363  0.1209
   48CHL1   C17 3502   1.221   1.945   3.953 -0.0511  0.3657 -0.9346
   48CHL1   H17 3503   1.332   1.946   3.966 -0.0972  0.5384 -0.5373
   48CHL1   C13 3504   1.196   1.989   3.815  0.1080 -0.8102 -0.0257
   48CHL1   C18 3505   1.047   2.009   3.801 -0.1332 -0.0769 -0.5777
   48CHL1  H18A 3506   0.989   1.920   3.834  2.0091 -2.2483 -2.2616
   48CHL1  H18B 3507   1.011   2.097   3.858 -2.7415 -0.5884 -1.3018
   48CHL1  H18C 3508   1.015   2.028   3.696 -0.9257  1.3767 -0.1013
   48CHL1   C12 3509   1.277   2.117   3.761 -0.4586  0.0140  0.1083
   48CHL1  H12A 3510   1.245   2.207   3.818  1.9501  0.8785  0.2151
   48CHL1  H12B 3511   1.384   2.102   3.788 -0.5934  1.6300  1.7792
   48CHL1   C11 3512   1.252   2.133   3.615 -0.0499  0.8051 -0.0218
   48CHL1  H11A 3513   1.145   2.161   3.604 -0.8492 -2.1506 -0.6207
   48CHL1  H11B 3514   1.315   2.216   3.576  0.3938  0.7187  0.4975
   48CHL1    C9 3515   1.288   2.014   3.533 -0.6047  0.3060  0.0474
   48CHL1    H9 3516   1.399   2.005   3.536 -0.6090  0.4560  2.1184
   48CHL1   C10 3517   1.271   2.027   3.381  0.3443  0.3425  0.2938
   48CHL1   C19 3518   1.124   2.072   3.343  0.4720 -0.0619  0.1774
   48CHL1  H19A 3519   1.105   2.058   3.235 -2.0370  1.1552  0.3933
   48CHL1  H19B 3520   1.050   2.012   3.400 -1.0364 -0.3622 -2.0130
   48CHL1  H19C 3521   1.095   2.178   3.362  2.1629  0.5028 -0.1534
   48CHL1    C1 3522   1.366   2.136   3.317  0.3135  0.8136  0.1920
   48CHL1   H1A 3523   1.331   2.233   3.359 -1.9282 -0.7725  2.2410
   48CHL1   H1B 3524   1.468   2.124   3.361  1.6464  3.7012 -1.7271
   48CHL1    C2 3525   1.378   2.137   3.158  0.6302  0.0317  0.2195
   48CHL1   H2A 3526   1.432   2.229   3.126 -0.0446  0.6827  0.9078
   48CHL1   H2B 3527   1.276   2.160   3.120  0.1703  0.7806  1.8483
   48CHL1   C20 3528   1.171   2.031   4.071  0.1421  0.8718 -0.4529
   48CHL1   H20 3529   1.079   2.087   4.044  0.2862  0.8333 -1.0314
   48CHL1   C21 3530   1.273   2.132   4.106 -0.5770 -0.1812  0.0292
   48CHL1  H21A 3531   1.288   2.195   4.016 -3.1189  0.1393 -0.2207
   48CHL1  H21B 3532   1.368   2.083   4.139 -0.3080 -0.2347 -0.7956
   48CHL1  H21C 3533   1.246   2.208   4.182  0.7000 -0.9221  1.2957
   48CHL1   C22 3534   1.137   1.939   4.189 -0.0971  0.2872  0.3713
   48CHL1  H22A 3535   1.055   1.865   4.176  1.1238 -0.9250 -0.9169
   48CHL1  H22B 3536   1.227   1.878   4.213  0.5177  0.0541 -2.1960
   48CHL1   C23 3537   1.102   2.024   4.315 -0.0430 -0.1429  0.6881
   48CHL1  H23A 3538   1.193   2.077   4.352 -0.5754 -0.1447  2.0589
   48CHL1  H23B 3539   1.025   2.095   4.279 -4.4095 -4.3085  0.8253
   48CHL1   C24 3540   1.046   1.943   4.435  0.3167 -0.4136 -0.1139
   48CHL1  H24A 3541   0.938   1.944   4.407  0.2366  1.8619  0.0784
   48CHL1  H24B 3542   1.079   1.837   4.429 -1.9267 -1.3697  2.3739
   48CHL1   C25 3543   1.072   2.007   4.573  0.5980  0.1016 -0.3350
   48CHL1   H25 3544   1.183   2.006   4.576  0.6529 -2.4533 -0.5369
   48CHL1   C26 3545   1.003   2.149   4.587 -1.0636  0.5937  0.0053
   48CHL1  H26A 3546   1.056   2.213   4.512  0.7729 -1.5576 -0.6467
   48CHL1  H26B 3547   0.897   2.143   4.557 -0.6498  0.3784 -1.5052
   48CHL1  H26C 3548   1.011   2.192   4.689 -0.8926  1.0684 -0.2047
   48CHL1   C27 3549   1.019   1.918   4.684 -0.3981  0.1351  0.3135
   48CHL1  H27A 3550   1.040   1.969   4.781 -1.8587  0.8848  0.2684
   48CHL1  H27B 3551   0.910   1.908   4.661  0.0129  2.5152 -3.3315
   48CHL1  H27C 3552   1.066   1.818   4.676 -0.6754 -0.2470  2.6530
   49CHL1    C3 3553   2.132   2.658   3.303 -0.0260 -0.0416  0.2950
   49CHL1    H3 3554   2.197   2.742   3.272 -0.7745  0.5360  0.2643
   49CHL1    O3 3555   2.034   2.632   3.201  0.0462 -0.1473 -0.1630
   49CHL1   H3' 3556   2.064   2.568   3.137 -0.0065 -0.0789 -0.2551
   49CHL1    C4 3557   2.217   2.532   3.330  0.0983 -0.0069  0.1051
   49CHL1   H4A 3558   2.141   2.452   3.341  1.2887 -1.0766  0.9251
   49CHL1   H4B 3559   2.283   2.507   3.244 -2.3948 -0.8770 -1.6485
   49CHL1    C5 3560   2.300   2.534   3.456 -0.6320 -0.1188  0.1881
   49CHL1    C6 3561   2.430   2.511   3.465 -0.3552 -0.5853 -0.0088
   49CHL1    H6 3562   2.493   2.481   3.381  0.1171  2.1510 -0.7323
   49CHL1    C7 3563   2.510   2.521   3.596 -0.1383 -0.0006  0.8446
   49CHL1   H7A 3564   2.580   2.435   3.601  1.4183  1.1972  0.3123
   49CHL1   H7B 3565   2.564   2.618   3.596  0.5328 -0.3629  1.6422
   49CHL1    C8 3566   2.421   2.521   3.727 -0.4602 -0.3386  0.2486
   49CHL1    H8 3567   2.375   2.422   3.749 -1.2614  0.1346  0.7697
   49CHL1   C14 3568   2.497   2.565   3.852  0.3605  0.6088  0.3264
   49CHL1   H14 3569   2.522   2.673   3.847 -1.3587  0.9704 -1.4269
   49CHL1   C15 3570   2.619   2.479   3.866 -0.4044 -0.2202  0.3074
   49CHL1  H15A 3571   2.584   2.380   3.830 -0.3569 -0.2767  0.4177
   49CHL1  H15B 3572   2.696   2.520   3.797 -0.0077 -3.0634 -1.0955
   49CHL1   C16 3573   2.657   2.486   4.015 -0.6352 -0.1461 -0.5440
   49CHL1  H16A 3574   2.667   2.385   4.061 -1.7434  0.2175  0.5590
   49CHL1  H16B 3575   2.760   2.527   4.026 -0.8076 -0.2049  1.8948
   49CHL1   C17 3576   2.547   2.566   4.083 -0.0020 -0.0099  0.3502
   49CHL1   H17 3577   2.569   2.675   4.086 -2.0763  0.4218  1.7299
   49CHL1   C13 3578   2.424   2.545   3.985  0.2633 -0.0927 -0.3248
   49CHL1   C18 3579   2.370   2.405   4.007 -0.5234 -0.3738  0.4953
   49CHL1  H18A 3580   2.450   2.330   3.987 -0.3128 -0.0418  0.0788
   49CHL1  H18B 3581   2.326   2.398   4.109  2.0761  0.8744  1.7986
   49CHL1  H18C 3582   2.289   2.390   3.932 -1.1407 -2.7239  1.5103
   49CHL1   C12 3583   2.314   2.653   3.972 -0.1928 -0.8775 -0.7608
   49CHL1  H12A 3584   2.239   2.653   4.054  0.1301  3.6588 -0.2158
   49CHL1  H12B 3585   2.360   2.754   3.983  1.2060 -1.5412 -0.1477
   49CHL1   C11 3586   2.231   2.630   3.845  0.1068  0.6102  0.1101
   49CHL1  H11A 3587   2.165   2.542   3.860 -1.6578  2.0437  1.0903
   49CHL1  H11B 3588   2.161   2.715   3.832  1.8939  2.3562  1.2874
   49CHL1    C9 3589   2.306   2.617   3.712 -0.6761  0.0663 -0.7567
   49CHL1    H9 3590   2.359   2.712   3.688 -0.3291  0.0541 -0.0462
   49CHL1   C10 3591   2.219   2.588   3.586  0.3206  0.3521 -0.5481
   49CHL1   C19 3592   2.110   2.477   3.632  0.9438  0.4671 -0.4673
   49CHL1  H19A 3593   2.060   2.438   3.541  1.9745  0.1595 -0.9172
   49CHL1  H19B 3594   2.163   2.390   3.678  0.2529 -0.6139 -1.6513
   49CHL1  H19C 3595   2.035   2.532   3.693 -1.3070 -1.7295 -1.0894
   49CHL1    C1 3596   2.148   2.714   3.539  0.2867 -0.2931 -0.2807
   49CHL1   H1A 3597   2.089   2.760   3.621  0.8401  0.3379 -0.2260
   49CHL1   H1B 3598   2.222   2.792   3.512  0.2020  0.4376  1.4755
   49CHL1    C2 3599   2.052   2.697   3.421 -0.6248 -0.0913  0.2818
   49CHL1   H2A 3600   1.998   2.791   3.397 -1.7583 -0.6223  0.6570
   49CHL1   H2B 3601   1.973   2.621   3.437  0.9296 -1.7435  0.4725
   49CHL1   C20 3602   2.524   2.542   4.234 -0.0005 -0.6902 -0.1532
   49CHL1   H20 3603   2.491   2.436   4.243  0.3507 -0.7204  0.9159
   49CHL1   C21 3604   2.415   2.628   4.297  0.5224 -1.1558  0.1897
   49CHL1  H21A 3605   2.419   2.735   4.267 -1.1498 -0.3832  2.4329
   49CHL1  H21B 3606   2.416   2.618   4.408 -2.3202 -0.1814  0.3874
   49CHL1  H21C 3607   2.315   2.588   4.268 -0.6610 -0.4735  2.9878
   49CHL1   C22 3608   2.652   2.562   4.316 -0.2806 -0.0410 -0.2191
   49CHL1  H22A 3609   2.620   2.513   4.411 -0.1406  1.1316  0.4437
   49CHL1  H22B 3610   2.733   2.506   4.265 -1.1509  0.4774 -2.2499
   49CHL1   C23 3611   2.705   2.702   4.341  0.4753 -0.2163  0.3718
   49CHL1  H23A 3612   2.744   2.746   4.247 -1.3286 -0.7989 -0.6813
   49CHL1  H23B 3613   2.624   2.770   4.373 -1.2407 -0.5225 -2.9071
   49CHL1   C24 3614   2.815   2.698   4.447 -1.1657  0.1670 -0.0646
   49CHL1  H24A 3615   2.878   2.609   4.427  0.6766  1.6526 -1.2505
   49CHL1  H24B 3616   2.877   2.789   4.428 -1.5907  0.5548  0.3842
   49CHL1   C25 3617   2.775   2.695   4.596 -0.3156  0.0254  0.5135
   49CHL1   H25 3618   2.692   2.620   4.595 -0.5289  0.2537 -1.3321
   49CHL1   C26 3619   2.886   2.649   4.685 -0.2503  0.1547  0.1613
   49CHL1  H26A 3620   2.973   2.719   4.681  0.7098 -1.0455 -2.4930
   49CHL1  H26B 3621   2.845   2.645   4.788  1.4158  1.4429  0.9333
   49CHL1  H26C 3622   2.914   2.549   4.646 -1.1433  0.0713 -0.2837
   49CHL1   C27 3623   2.716   2.830   4.651 -0.1949 -0.2360  0.1322
   49CHL1  H27A 3624   2.801   2.898   4.673  0.1431 -0.5254 -0.2662
   49CHL1  H27B 3625   2.654   2.871   4.568 -0.5869 -0.2604  0.4141
   49CHL1  H27C 3626   2.667   2.808   4.748  1.4642 -2.2673  0.5799
   50CHL1    C3 3627   0.457   5.804   3.334  0.6525  0.1497 -1.1269
   50CHL1    H3 3628   0.408   5.706   3.346 -0.3365  0.6326 -1.1116
   50CHL1    O3 3629   0.510   5.809   3.204  0.1850  0.1948 -0.4376
   50CHL1   H3' 3630   0.546   5.898   3.191 -0.2154  0.5119  0.5389
   50CHL1    C4 3631   0.349   5.915   3.348  0.5248  0.1681  0.1692
   50CHL1   H4A 3632   0.385   6.014   3.310  2.6584  0.3821  2.4594
   50CHL1   H4B 3633   0.273   5.898   3.269  0.1845 -0.4903  0.6315
   50CHL1    C5 3634   0.284   5.921   3.485 -0.1168  0.0204 -0.4290
   50CHL1    C6 3635   0.153   5.900   3.508  1.0483  0.4663  0.1178
   50CHL1    H6 3636   0.084   5.875   3.427  1.7670  0.3325 -0.4605
   50CHL1    C7 3637   0.098   5.905   3.651 -0.4010 -0.0077 -0.6279
   50CHL1   H7A 3638   0.002   5.960   3.666 -1.9721 -2.8954  0.6548
   50CHL1   H7B 3639   0.075   5.800   3.680 -0.0367 -0.0471 -0.4712
   50CHL1    C8 3640   0.188   5.952   3.755  0.0894 -0.5238 -0.3967
   50CHL1    H8 3641   0.185   6.063   3.748  0.1841 -0.5725 -1.2455
   50CHL1   C14 3642   0.144   5.906   3.892  0.2479 -0.2105  0.0483
   50CHL1   H14 3643   0.150   5.795   3.887 -0.4803 -0.2060 -2.7658
   50CHL1   C15 3644  -0.000   5.943   3.928  0.1884  0.1782 -0.6590
   50CHL1  H15A 3645  -0.033   6.049   3.916  0.2407  0.0167 -2.5714
   50CHL1  H15B 3646  -0.058   5.867   3.871  1.1393  0.6651 -2.3323
   50CHL1   C16 3647  -0.003   5.900   4.078  0.1572  0.3770 -0.0215
   50CHL1  H16A 3648  -0.054   5.978   4.140  0.2504  1.8286 -1.6941
   50CHL1  H16B 3649  -0.055   5.803   4.091  0.4668  0.3578  1.2268
   50CHL1   C17 3650   0.145   5.884   4.125 -1.5992  0.1470 -0.2448
   50CHL1   H17 3651   0.148   5.773   4.119  0.0355  0.0756  1.0594
   50CHL1   C13 3652   0.234   5.946   4.013  0.1295 -0.3573 -0.3040
   50CHL1   C18 3653   0.230   6.098   4.041  0.4917 -0.1555 -0.1811
   50CHL1  H18A 3654   0.129   6.140   4.058  0.3613 -0.9770  1.2175
   50CHL1  H18B 3655   0.291   6.130   4.129 -2.0509 -0.5887  1.8705
   50CHL1  H18C 3656   0.263   6.154   3.951  1.7839 -0.5546  0.0248
   50CHL1   C12 3657   0.378   5.894   3.995  0.0620  0.6648  0.4448
   50CHL1  H12A 3658   0.440   5.935   4.078  0.5321  0.3643  0.2442
   50CHL1  H12B 3659   0.374   5.783   4.002 -0.7769  0.7254  0.9689
   50CHL1   C11 3660   0.427   5.944   3.856  0.1854  0.1760 -0.1536
   50CHL1  H11A 3661   0.440   6.053   3.870 -2.1876  0.2994  1.9286
   50CHL1  H11B 3662   0.524   5.891   3.852  0.8788  1.1396  2.2054
   50CHL1    C9 3663   0.334   5.914   3.739 -0.4742 -0.0508  0.3284
   50CHL1    H9 3664   0.322   5.804   3.736 -2.7995  0.1359  0.9275
   50CHL1   C10 3665   0.388   5.953   3.598 -0.2873  0.2401  0.6046
   50CHL1   C19 3666   0.433   6.099   3.578 -0.4691 -0.4168  0.0187
   50CHL1  H19A 3667   0.483   6.136   3.670 -0.9989 -0.2816  0.2557
   50CHL1  H19B 3668   0.504   6.114   3.494  0.0335  3.6715  0.9547
   50CHL1  H19C 3669   0.341   6.161   3.569  0.0881  0.3303 -0.6250
   50CHL1    C1 3670   0.516   5.861   3.581 -0.1323 -0.4955  0.0205
   50CHL1   H1A 3671   0.599   5.891   3.648 -1.6619 -1.2534  2.4140
   50CHL1   H1B 3672   0.494   5.756   3.609  1.5404 -0.9115 -0.1337
   50CHL1    C2 3673   0.560   5.850   3.434 -0.4287 -0.1381  0.3832
   50CHL1   H2A 3674   0.628   5.761   3.437 -0.1178  0.0920  0.2302
   50CHL1   H2B 3675   0.610   5.944   3.403 -0.9458  0.6581  1.8636
   50CHL1   C20 3676   0.182   5.919   4.268  0.1467 -0.2734 -0.9934
   50CHL1   H20 3677   0.291   5.942   4.267  0.2914 -0.3155  2.4400
   50CHL1   C21 3678   0.154   5.798   4.363 -0.1935  0.4103  0.7030
   50CHL1  H21A 3679   0.193   5.819   4.465 -1.3150  1.3519  0.9557
   50CHL1  H21B 3680   0.187   5.696   4.330 -0.1406  0.8102 -0.5258
   50CHL1  H21C 3681   0.044   5.794   4.377 -0.5606  1.9375 -1.2548
   50CHL1   C22 3682   0.108   6.045   4.334 -0.1758  0.4430  0.3852
   50CHL1  H22A 3683   0.121   6.134   4.269 -2.7459 -0.5151 -1.5896
   50CHL1  H22B 3684  -0.000   6.019   4.339 -0.2977  0.4832 -1.3918
   50CHL1   C23 3685   0.161   6.074   4.472  0.7471 -0.4602 -0.0832
   50CHL1  H23A 3686   0.091   6.013   4.533  0.8216 -0.3688  0.0932
   50CHL1  H23B 3687   0.264   6.042   4.498 -0.0605 -2.0255  1.4023
   50CHL1   C24 3688   0.140   6.213   4.527 -0.3149  0.6500 -0.1612
   50CHL1  H24A 3689   0.208   6.280   4.471 -1.7202 -0.5520 -3.5724
   50CHL1  H24B 3690   0.037   6.247   4.500 -1.5461 -2.4695  0.2053
   50CHL1   C25 3691   0.165   6.230   4.673 -0.2267  0.4380 -0.2355
   50CHL1   H25 3692   0.151   6.336   4.704  1.5960  0.4053  0.8686
   50CHL1   C26 3693   0.069   6.135   4.758  0.3959 -0.1461 -0.1282
   50CHL1  H26A 3694   0.064   6.171   4.863 -1.4114 -0.6863  0.0077
   50CHL1  H26B 3695  -0.036   6.140   4.721 -0.2107  1.9523  1.6108
   50CHL1  H26C 3696   0.115   6.034   4.761 -0.7715 -0.6958 -0.0937
   50CHL1   C27 3697   0.312   6.190   4.708 -0.2379 -0.4700  0.2207
   50CHL1  H27A 3698   0.335   6.220   4.813  1.1910  3.1541 -0.9662
   50CHL1  H27B 3699   0.332   6.080   4.709  2.8206 -0.0141 -0.4917
   50CHL1  H27C 3700   0.388   6.243   4.646 -0.3488  0.8070  1.1391
   51CHL1    C3 3701   3.071   3.433   3.330 -0.3050  0.1734 -0.4751
   51CHL1    H3 3702   3.148   3.509   3.306 -1.2653  0.8271 -1.5992
   51CHL1    O3 3703   3.030   3.382   3.213  0.1320  0.2246  0.0938
   51CHL1   H3' 3704   2.960   3.318   3.227  0.7360 -0.0012  2.3728
   51CHL1    C4 3705   3.124   3.320   3.414  0.2238 -0.3016  0.2642
   51CHL1   H4A 3706   3.061   3.228   3.418 -0.9194  0.4243 -0.4751
   51CHL1   H4B 3707   3.218   3.284   3.366  0.7375 -1.3964  1.9988
   51CHL1    C5 3708   3.147   3.355   3.560 -0.5976  0.4619  0.7009
   51CHL1    C6 3709   3.268   3.330   3.614  0.1004 -0.2935  0.4105
   51CHL1    H6 3710   3.347   3.301   3.543 -2.6744  0.5638 -3.3450
   51CHL1    C7 3711   3.305   3.356   3.755  0.1006 -0.7091 -0.1296
   51CHL1   H7A 3712   3.361   3.271   3.800  2.7785  0.9403 -0.1619
   51CHL1   H7B 3713   3.371   3.445   3.754 -1.3833  0.4262 -0.5542
   51CHL1    C8 3714   3.171   3.383   3.842 -0.8878  0.5177  0.6818
   51CHL1    H8 3715   3.124   3.283   3.853 -1.4946  0.4505 -2.0309
   51CHL1   C14 3716   3.209   3.428   3.974 -0.2357  0.1509  0.7330
   51CHL1   H14 3717   3.255   3.521   3.937  1.1934 -1.8766 -3.1165
   51CHL1   C15 3718   3.319   3.350   4.052  0.1666 -0.1686 -0.3503
   51CHL1  H15A 3719   3.302   3.241   4.040  2.4391 -0.5853 -0.2231
   51CHL1  H15B 3720   3.421   3.383   4.021  0.2691  0.7770  0.9170
   51CHL1   C16 3721   3.300   3.401   4.197  0.0180  0.3907  0.2321
   51CHL1  H16A 3722   3.274   3.316   4.264  1.4638 -1.4447 -1.4188
   51CHL1  H16B 3723   3.393   3.439   4.244  1.0048 -1.2490 -0.3366
   51CHL1   C17 3724   3.184   3.507   4.187 -0.1709 -0.1515 -0.2388
   51CHL1   H17 3725   3.234   3.603   4.164  0.7346 -0.8952 -1.4843
   51CHL1   C13 3726   3.099   3.467   4.066 -0.4509 -0.1301  0.3202
   51CHL1   C18 3727   3.014   3.343   4.105  0.3998 -0.7807  0.6430
   51CHL1  H18A 3728   3.067   3.254   4.145 -0.3621 -1.0250  1.1408
   51CHL1  H18B 3729   2.939   3.388   4.174  1.9409 -0.8210  2.4177
   51CHL1  H18C 3730   2.953   3.296   4.025  0.2488  0.6973 -0.1360
   51CHL1   C12 3731   3.033   3.585   4.000 -0.4956 -0.1618 -0.1477
   51CHL1  H12A 3732   2.954   3.639   4.056 -0.5941  0.6656 -1.0388
   51CHL1  H12B 3733   3.107   3.666   3.978 -0.8682 -0.4787 -2.9877
   51CHL1   C11 3734   2.967   3.543   3.867 -0.5739 -0.1585 -0.2639
   51CHL1  H11A 3735   2.885   3.472   3.890 -0.7396 -0.1498 -0.8178
   51CHL1  H11B 3736   2.914   3.620   3.808 -2.3146 -1.2355 -0.1662
   51CHL1    C9 3737   3.080   3.480   3.772 -0.3125 -0.0676  0.3353
   51CHL1    H9 3738   3.138   3.571   3.744 -2.2359  0.5882 -1.8091
   51CHL1   C10 3739   3.027   3.413   3.633  0.3087  0.3632  0.4185
   51CHL1   C19 3740   2.921   3.307   3.658  0.7510 -0.1101  0.6120
   51CHL1  H19A 3741   2.952   3.223   3.723 -0.9554  0.0375  1.6662
   51CHL1  H19B 3742   2.839   3.353   3.717  0.2480 -0.8911  0.5373
   51CHL1  H19C 3743   2.880   3.269   3.562  0.1551  0.3464  0.6751
   51CHL1    C1 3744   2.971   3.528   3.549 -1.1418 -0.4959 -0.6492
   51CHL1   H1A 3745   2.871   3.552   3.592 -1.2346 -1.8162 -0.0867
   51CHL1   H1B 3746   3.046   3.610   3.540 -1.0195 -0.6327 -0.8833
   51CHL1    C2 3747   2.946   3.490   3.404 -0.0782 -0.6482 -0.3062
   51CHL1   H2A 3748   2.913   3.585   3.357  1.8099  1.0329  1.5282
   51CHL1   H2B 3749   2.866   3.414   3.394 -0.3915 -0.3819  0.1365
   51CHL1   C20 3750   3.128   3.520   4.333  0.3090  0.3728  0.5866
   51CHL1   H20 3751   3.093   3.422   4.371 -0.5044  0.4074 -0.0489
   51CHL1   C21 3752   3.011   3.616   4.329  0.1971  0.4400 -0.5400
   51CHL1  H21A 3753   2.926   3.565   4.281 -0.9317 -0.9745  2.6821
   51CHL1  H21B 3754   3.037   3.712   4.279 -0.1529  1.2520  0.7735
   51CHL1  H21C 3755   2.979   3.638   4.433  0.5108  0.2880 -0.4096
   51CHL1   C22 3756   3.231   3.573   4.443 -0.3355  0.3887  0.0905
   51CHL1  H22A 3757   3.329   3.520   4.443 -1.0222 -0.9424  1.2367
   51CHL1  H22B 3758   3.238   3.681   4.419 -1.7529  0.9934  2.1460
   51CHL1   C23 3759   3.179   3.555   4.586  0.5326 -0.2768  0.3515
   51CHL1  H23A 3760   3.099   3.631   4.607 -0.1064 -0.6994 -0.5042
   51CHL1  H23B 3761   3.154   3.448   4.599 -0.8591 -0.0821 -0.5301
   51CHL1   C24 3762   3.295   3.585   4.683 -0.8271 -0.1978 -0.1782
   51CHL1  H24A 3763   3.374   3.508   4.669  1.3570  1.6868  1.0712
   51CHL1  H24B 3764   3.345   3.681   4.659 -1.8735  0.2135 -0.7900
   51CHL1   C25 3765   3.259   3.580   4.837  0.5864 -0.2523 -0.2122
   51CHL1   H25 3766   3.212   3.482   4.858  0.6496 -0.5238 -1.3128
   51CHL1   C26 3767   3.381   3.592   4.927 -0.0687 -0.9903  0.0762
   51CHL1  H26A 3768   3.446   3.502   4.931  0.0660 -0.8824  0.3357
   51CHL1  H26B 3769   3.443   3.677   4.893 -0.0694 -0.0207  2.3386
   51CHL1  H26C 3770   3.353   3.617   5.031 -1.0511 -1.6851 -0.0032
   51CHL1   C27 3771   3.149   3.687   4.882 -0.1596 -0.1256  0.5338
   51CHL1  H27A 3772   3.045   3.654   4.858 -0.5101  0.5206  1.1358
   51CHL1  H27B 3773   3.157   3.691   4.993 -3.5220 -0.4937  0.8998
   51CHL1  H27C 3774   3.175   3.780   4.828  2.5411 -2.3432 -2.3832
   52CHL1    C3 3775   4.124   1.744   3.090  0.1924  0.3539  0.5829
   52CHL1    H3 3776   4.102   1.851   3.109 -0.3194  0.4277 -0.3557
   52CHL1    O3 3777   4.143   1.739   2.943 -0.4867 -0.4958  0.0021
   52CHL1   H3' 3778   4.060   1.773   2.908 -0.5556 -1.2461 -0.5855
   52CHL1    C4 3779   4.251   1.714   3.159 -0.8658  0.1272 -0.2746
   52CHL1   H4A 3780   4.292   1.615   3.128  2.4655  1.1975  0.3596
   52CHL1   H4B 3781   4.323   1.787   3.116 -2.0634  0.7148 -1.3263
   52CHL1    C5 3782   4.236   1.724   3.313  0.1974 -0.2407  0.0641
   52CHL1    C6 3783   4.310   1.802   3.398  0.0007  0.1046 -0.4398
   52CHL1    H6 3784   4.397   1.859   3.365  0.2835  0.7069  1.2348
   52CHL1    C7 3785   4.293   1.798   3.549 -0.7196 -0.4822  0.1633
   52CHL1   H7A 3786   4.393   1.797   3.598  0.0584 -1.5161 -1.3398
   52CHL1   H7B 3787   4.233   1.886   3.582  0.3361 -0.1820  1.3597
   52CHL1    C8 3788   4.210   1.685   3.595 -0.5102  0.3465 -0.2233
   52CHL1    H8 3789   4.272   1.593   3.589  4.1160  3.0827  0.6738
   52CHL1   C14 3790   4.166   1.703   3.739 -0.0776 -0.1905 -0.5414
   52CHL1   H14 3791   4.103   1.795   3.745  0.6187  0.3760 -1.6103
   52CHL1   C15 3792   4.286   1.725   3.838  0.8258 -0.0989 -0.2968
   52CHL1  H15A 3793   4.351   1.637   3.815  2.3312  1.3405 -1.8319
   52CHL1  H15B 3794   4.336   1.823   3.826 -1.9984  1.8145  2.1628
   52CHL1   C16 3795   4.222   1.695   3.979 -0.0862 -1.0824  0.1903
   52CHL1  H16A 3796   4.287   1.632   4.043 -0.7158 -2.8489 -0.8325
   52CHL1  H16B 3797   4.206   1.790   4.035 -3.2949 -2.1198  1.2424
   52CHL1   C17 3798   4.077   1.646   3.947 -0.1380 -0.7974 -0.5397
   52CHL1   H17 3799   4.021   1.741   3.942  0.9840 -0.1955 -2.9383
   52CHL1   C13 3800   4.075   1.599   3.805  0.1724  0.1500 -0.4636
   52CHL1   C18 3801   4.138   1.456   3.803  0.1003 -0.1945 -0.6108
   52CHL1  H18A 3802   4.058   1.386   3.837  0.2251  0.1288  0.3946
   52CHL1  H18B 3803   4.176   1.426   3.704 -1.6152  0.0095 -1.3707
   52CHL1  H18C 3804   4.222   1.454   3.876  0.1693 -0.3882 -0.6937
   52CHL1   C12 3805   3.944   1.603   3.728  0.0338 -0.9721  1.0184
   52CHL1  H12A 3806   3.868   1.527   3.755 -1.4275  1.1924  3.4600
   52CHL1  H12B 3807   3.901   1.705   3.735 -0.1524 -0.9274 -0.4044
   52CHL1   C11 3808   3.980   1.569   3.578 -0.1434 -0.3509  0.3394
   52CHL1  H11A 3809   4.014   1.468   3.546  0.7139 -0.2982  1.0327
   52CHL1  H11B 3810   3.889   1.578   3.516 -1.1515 -2.4223  1.4208
   52CHL1    C9 3811   4.084   1.666   3.514 -1.1399  0.0782  0.4122
   52CHL1    H9 3812   4.039   1.767   3.507 -2.6597 -0.6524 -1.2961
   52CHL1   C10 3813   4.119   1.634   3.364 -0.1258  0.1230 -0.5950
   52CHL1   C19 3814   4.172   1.491   3.351  0.8358 -0.0545 -0.7403
   52CHL1  H19A 3815   4.227   1.471   3.256  1.4930  0.2959 -0.4451
   52CHL1  H19B 3816   4.232   1.452   3.436 -4.1381 -1.1293  2.7202
   52CHL1  H19C 3817   4.081   1.428   3.341  0.4480  0.5570 -1.1552
   52CHL1    C1 3818   3.988   1.655   3.279 -0.1300 -0.4013 -0.0881
   52CHL1   H1A 3819   3.924   1.573   3.316  0.6852 -0.7083  0.6759
   52CHL1   H1B 3820   3.949   1.755   3.309  1.7739  0.1386  0.7539
   52CHL1    C2 3821   4.002   1.656   3.127 -0.2855  0.1690 -0.4687
   52CHL1   H2A 3822   3.905   1.690   3.085 -0.8477 -0.7373  0.0668
   52CHL1   H2B 3823   4.022   1.554   3.089  1.8229  0.8576 -1.4183
   52CHL1   C20 3824   4.010   1.549   4.050  0.5175  0.4323  0.4757
   52CHL1   H20 3825   4.057   1.449   4.038 -0.8739 -0.2044  0.0105
   52CHL1   C21 3826   3.858   1.522   4.020 -0.2675 -0.7566  0.0014
   52CHL1  H21A 3827   3.835   1.437   3.953 -0.6201 -1.5534  1.0998
   52CHL1  H21B 3828   3.799   1.610   3.986 -1.4462 -1.2748  0.6407
   52CHL1  H21C 3829   3.797   1.481   4.103 -1.0453 -2.6766 -1.4471
   52CHL1   C22 3830   4.033   1.583   4.203  0.6591 -0.7001  0.1897
   52CHL1  H22A 3831   3.996   1.500   4.267 -1.7033  0.1452  0.0156
   52CHL1  H22B 3832   4.144   1.583   4.213  0.6717  0.3483  0.1447
   52CHL1   C23 3833   3.974   1.712   4.255  0.1801 -0.3093 -0.4217
   52CHL1  H23A 3834   4.006   1.807   4.208 -0.8035  1.4335  2.1510
   52CHL1  H23B 3835   3.864   1.715   4.236  0.3537  2.6914 -1.3282
   52CHL1   C24 3836   3.993   1.720   4.402 -0.6513  0.7394  0.1853
   52CHL1  H24A 3837   3.936   1.807   4.440 -1.7759 -1.5795  4.4587
   52CHL1  H24B 3838   3.944   1.637   4.458  0.8263  0.9980  1.9515
   52CHL1   C25 3839   4.137   1.736   4.462  0.1159 -0.3421  0.0846
   52CHL1   H25 3840   4.200   1.645   4.455  0.4354 -0.1294  0.1829
   52CHL1   C26 3841   4.223   1.846   4.394 -0.5703 -0.3301 -0.4748
   52CHL1  H26A 3842   4.249   1.814   4.290 -1.9824 -1.5840 -0.4733
   52CHL1  H26B 3843   4.174   1.945   4.394 -0.4345 -0.2534  0.5053
   52CHL1  H26C 3844   4.309   1.868   4.461  0.5020  0.5103 -2.0522
   52CHL1   C27 3845   4.125   1.756   4.613  0.1818  0.0189 -0.0495
   52CHL1  H27A 3846   4.102   1.666   4.674 -2.3101 -1.1620 -2.4526
   52CHL1  H27B 3847   4.222   1.801   4.640  0.9631 -1.3145 -0.5489
   52CHL1  H27C 3848   4.044   1.826   4.642  0.5621  1.0989 -1.4580
   53CHL1    C3 3849   3.633   4.991   3.175 -0.5435 -0.7672  0.5245
   53CHL1    H3 3850   3.627   4.881   3.160 -1.3158 -0.8166  1.1272
   53CHL1    O3 3851   3.667   5.061   3.050 -0.0585  0.0185  0.2267
   53CHL1   H3' 3852   3.656   5.154   3.072 -1.6039  0.3283 -1.5713
   53CHL1    C4 3853   3.497   5.022   3.232 -0.4713 -0.6003 -0.0484
   53CHL1   H4A 3854   3.485   5.133   3.235  1.6509 -0.2460 -1.9838
   53CHL1   H4B 3855   3.418   5.003   3.157  0.2611  0.5245 -1.1434
   53CHL1    C5 3856   3.468   4.968   3.369  0.2801  0.0139 -0.0401
   53CHL1    C6 3857   3.353   4.901   3.398 -0.7311 -0.3822  0.3224
   53CHL1    H6 3858   3.271   4.872   3.331 -2.0190  0.4549  1.5019
   53CHL1    C7 3859   3.310   4.863   3.544 -0.5501 -0.1118  0.0641
   53CHL1   H7A 3860   3.203   4.883   3.563 -1.1895 -1.6483 -1.5832
   53CHL1   H7B 3861   3.310   4.752   3.553 -0.1342 -0.3422 -2.1115
   53CHL1    C8 3862   3.409   4.928   3.646  0.3303  0.2048 -0.1763
   53CHL1    H8 3863   3.388   5.035   3.664  3.3416  0.6929  1.0696
   53CHL1   C14 3864   3.387   4.871   3.780  0.1237  0.0407  0.0441
   53CHL1   H14 3865   3.421   4.766   3.762 -2.8688 -0.7088 -1.8323
   53CHL1   C15 3866   3.246   4.858   3.828 -0.4833 -0.1679  0.1012
   53CHL1  H15A 3867   3.193   4.951   3.796  2.4929  0.8844 -2.3149
   53CHL1  H15B 3868   3.202   4.773   3.772 -0.1340  1.0477 -2.1437
   53CHL1   C16 3869   3.257   4.831   3.975  0.3840  0.3050 -0.2739
   53CHL1  H16A 3870   3.198   4.914   4.018 -2.9038 -1.6823 -0.5944
   53CHL1  H16B 3871   3.204   4.742   4.017  0.3430  1.3345  1.9613
   53CHL1   C17 3872   3.408   4.854   4.007 -0.2657 -0.2184  0.4912
   53CHL1   H17 3873   3.450   4.751   4.009  2.7072  0.8929  2.4421
   53CHL1   C13 3874   3.463   4.935   3.886  0.2683 -0.9346  0.3686
   53CHL1   C18 3875   3.434   5.080   3.914  0.3151 -0.2101 -0.0796
   53CHL1  H18A 3876   3.493   5.124   3.997  3.3493  0.5582 -2.4338
   53CHL1  H18B 3877   3.461   5.143   3.826 -0.6639  1.6107  0.8619
   53CHL1  H18C 3878   3.324   5.091   3.925 -0.0602 -1.5020 -1.9911
   53CHL1   C12 3879   3.604   4.905   3.853  0.2867 -0.3393  0.0921
   53CHL1  H12A 3880   3.684   4.942   3.921 -0.1127 -2.5672  1.9175
   53CHL1  H12B 3881   3.621   4.795   3.854 -1.8162 -0.7782  3.2261
   53CHL1   C11 3882   3.643   4.958   3.712  0.1368 -0.1566 -0.2297
   53CHL1  H11A 3883   3.649   5.068   3.728  0.1201 -0.3966  1.6302
   53CHL1  H11B 3884   3.744   4.913   3.699  1.1569  1.5552  1.3293
   53CHL1    C9 3885   3.550   4.915   3.600  0.1422 -0.1108 -0.6380
   53CHL1    H9 3886   3.578   4.809   3.581  1.6530 -0.2335  1.7889
   53CHL1   C10 3887   3.574   4.993   3.474  0.4650  0.1497  0.9095
   53CHL1   C19 3888   3.586   5.146   3.503  0.4247  0.3523 -0.5363
   53CHL1  H19A 3889   3.600   5.201   3.408 -0.4854  0.5732 -0.5486
   53CHL1  H19B 3890   3.506   5.187   3.568 -0.0592  1.1374 -1.5975
   53CHL1  H19C 3891   3.685   5.155   3.554  0.5956 -0.3800 -0.7252
   53CHL1    C1 3892   3.707   4.943   3.414  0.3166  0.1039  0.5335
   53CHL1   H1A 3893   3.788   4.952   3.490 -0.0445 -1.7091  1.1999
   53CHL1   H1B 3894   3.694   4.832   3.416  2.3166 -0.1922 -0.1223
   53CHL1    C2 3895   3.744   5.012   3.281  0.4996  0.6643 -0.6735
   53CHL1   H2A 3896   3.839   4.976   3.236  0.8419  0.2137  0.3650
   53CHL1   H2B 3897   3.763   5.119   3.304 -2.9835  1.1710  0.4147
   53CHL1   C20 3898   3.434   4.911   4.145  0.4593  0.6286 -0.5958
   53CHL1   H20 3899   3.359   4.992   4.158 -1.3047 -0.7214 -1.8440
   53CHL1   C21 3900   3.580   4.945   4.177 -0.5604  0.1622 -0.0791
   53CHL1  H21A 3901   3.623   5.019   4.106  1.3898 -0.2765  0.5829
   53CHL1  H21B 3902   3.644   4.855   4.184  0.3395  0.8903  1.8533
   53CHL1  H21C 3903   3.585   5.002   4.272  0.8679 -0.3097  0.1559
   53CHL1   C22 3904   3.382   4.818   4.261 -0.2251  0.0016 -0.2226
   53CHL1  H22A 3905   3.281   4.777   4.245 -0.4068 -0.1379  1.1031
   53CHL1  H22B 3906   3.450   4.731   4.270 -0.1668  0.2448  3.1109
   53CHL1   C23 3907   3.368   4.881   4.399  0.1303  0.6541 -0.4511
   53CHL1  H23A 3908   3.465   4.911   4.442 -0.3951  0.9019  0.5834
   53CHL1  H23B 3909   3.314   4.977   4.389 -0.7902  0.1427 -0.5740
   53CHL1   C24 3910   3.293   4.784   4.505 -0.5257  0.1277  1.4090
   53CHL1  H24A 3911   3.188   4.755   4.485 -0.6950  2.8561 -3.0501
   53CHL1  H24B 3912   3.349   4.689   4.513 -1.3688 -0.4158  0.9772
   53CHL1   C25 3913   3.306   4.844   4.648 -0.3993  0.4115 -0.1117
   53CHL1   H25 3914   3.412   4.875   4.655  0.3128 -1.7575 -0.6277
   53CHL1   C26 3915   3.223   4.967   4.667 -0.1581 -0.2060  0.2948
   53CHL1  H26A 3916   3.221   5.000   4.773 -2.2885  2.9474 -0.5758
   53CHL1  H26B 3917   3.263   5.056   4.613  0.6604 -0.3632  0.6355
   53CHL1  H26C 3918   3.122   4.957   4.622  1.1816  1.8173 -3.6660
   53CHL1   C27 3919   3.269   4.737   4.755 -0.5581  0.2784  0.1604
   53CHL1  H27A 3920   3.260   4.801   4.846 -1.7708  1.5544 -0.8245
   53CHL1  H27B 3921   3.175   4.688   4.721  0.9075 -2.0829 -0.7538
   53CHL1  H27C 3922   3.344   4.659   4.780  0.5996  0.7781 -1.5997
   54CHL1    C3 3923   2.080   4.393   2.803  0.0057 -0.2944 -0.4499
   54CHL1    H3 3924   2.104   4.285   2.815 -2.3351 -0.7408  0.8249
   54CHL1    O3 3925   2.091   4.430   2.666  0.3138 -0.0991  0.4200
   54CHL1   H3' 3926   2.076   4.525   2.674 -1.1200 -0.4828  3.4454
   54CHL1    C4 3927   1.938   4.413   2.848  0.4210 -0.0495 -0.6129
   54CHL1   H4A 3928   1.890   4.510   2.819 -3.2732 -0.7255  2.3763
   54CHL1   H4B 3929   1.881   4.342   2.784 -1.7115  0.0340  1.0903
   54CHL1    C5 3930   1.916   4.386   2.997 -0.4550 -0.5272  0.3425
   54CHL1    C6 3931   1.824   4.305   3.048 -0.2332  0.1061 -0.7672
   54CHL1    H6 3932   1.749   4.265   2.978 -0.0412 -1.0673 -0.3353
   54CHL1    C7 3933   1.800   4.261   3.194 -0.0486 -0.1044  0.9903
   54CHL1   H7A 3934   1.692   4.246   3.214 -0.5521  1.1043 -0.6425
   54CHL1   H7B 3935   1.838   4.159   3.214  0.0308  0.0768  1.8088
   54CHL1    C8 3936   1.866   4.361   3.288 -0.6336  0.4963 -0.7761
   54CHL1    H8 3937   1.801   4.449   3.273 -2.7697 -0.4181  2.2604
   54CHL1   C14 3938   1.869   4.306   3.440 -0.5697  0.0619 -0.4517
   54CHL1   H14 3939   1.933   4.216   3.430 -2.1263 -1.0946 -0.3493
   54CHL1   C15 3940   1.743   4.257   3.507 -0.3220  0.1966  0.4574
   54CHL1  H15A 3941   1.658   4.325   3.481 -1.5249 -1.6086 -0.5396
   54CHL1  H15B 3942   1.708   4.155   3.482  0.2281 -0.4637  2.2565
   54CHL1   C16 3943   1.774   4.270   3.658  0.2283  0.4308 -0.0326
   54CHL1  H16A 3944   1.685   4.322   3.701 -0.5665 -1.5461  0.7962
   54CHL1  H16B 3945   1.778   4.168   3.700  0.3152  0.2484 -0.4756
   54CHL1   C17 3946   1.911   4.342   3.674  0.2667  0.5687 -0.2009
   54CHL1   H17 3947   1.984   4.259   3.672  0.4650  0.7561 -1.0526
   54CHL1   C13 3948   1.927   4.414   3.537  0.2008 -0.5868 -0.1903
   54CHL1   C18 3949   1.829   4.536   3.531  0.1965  0.1578 -1.0543
   54CHL1  H18A 3950   1.868   4.615   3.599 -0.1857  0.2979 -0.9938
   54CHL1  H18B 3951   1.807   4.584   3.434 -0.1233 -0.4632 -1.2953
   54CHL1  H18C 3952   1.732   4.503   3.574  1.7755 -2.4418  0.8603
   54CHL1   C12 3953   2.071   4.434   3.491 -0.2507 -0.1787  0.7845
   54CHL1  H12A 3954   2.120   4.508   3.558  1.8969 -0.7716 -0.0269
   54CHL1  H12B 3955   2.122   4.335   3.489  0.1125  0.0124  0.3664
   54CHL1   C11 3956   2.076   4.487   3.344 -0.5111  0.2346 -0.4234
   54CHL1  H11A 3957   2.027   4.587   3.349 -2.7025 -0.8154  0.2537
   54CHL1  H11B 3958   2.185   4.491   3.320 -0.4607 -2.0574 -0.7752
   54CHL1    C9 3959   1.996   4.403   3.241 -0.7423 -0.1078  0.5739
   54CHL1    H9 3960   2.054   4.309   3.249  2.1004  1.6098  1.9951
   54CHL1   C10 3961   2.013   4.453   3.099 -0.4015  0.4720  0.3048
   54CHL1   C19 3962   1.969   4.596   3.091  0.0473 -0.1931  0.5435
   54CHL1  H19A 3963   2.048   4.656   3.141  0.2224 -0.3949  0.5114
   54CHL1  H19B 3964   1.942   4.640   2.992 -4.9615  0.0343  1.7765
   54CHL1  H19C 3965   1.870   4.617   3.137 -0.4614  1.2467 -1.0902
   54CHL1    C1 3966   2.165   4.445   3.042  0.7961 -0.1454 -0.0736
   54CHL1   H1A 3967   2.227   4.511   3.108 -1.0811  0.5558  1.0831
   54CHL1   H1B 3968   2.200   4.340   3.043 -0.8601 -0.8084 -2.6215
   54CHL1    C2 3969   2.176   4.478   2.897 -0.5305  0.3954  0.4463
   54CHL1   H2A 3970   2.285   4.459   2.880 -0.3676  1.6256 -0.0262
   54CHL1   H2B 3971   2.172   4.588   2.883  2.8555  0.5708 -0.1197
   54CHL1   C20 3972   1.921   4.422   3.801 -0.7912  0.5905 -0.1242
   54CHL1   H20 3973   1.850   4.507   3.791 -2.3126 -0.6421 -0.1723
   54CHL1   C21 3974   2.057   4.484   3.814  0.4413  0.1754  1.3819
   54CHL1  H21A 3975   2.069   4.576   3.754  0.3355 -0.1291  0.8881
   54CHL1  H21B 3976   2.136   4.412   3.782  1.1856  1.0887  1.1127
   54CHL1  H21C 3977   2.061   4.529   3.915 -0.2554 -2.6919  2.7943
   54CHL1   C22 3978   1.879   4.341   3.929 -0.2163  0.5980  0.2980
   54CHL1  H22A 3979   1.790   4.279   3.908  0.1465 -0.2334  1.1405
   54CHL1  H22B 3980   1.967   4.275   3.946 -0.6771  0.0319  0.5002
   54CHL1   C23 3981   1.836   4.422   4.050  0.7815 -0.2018  0.0176
   54CHL1  H23A 3982   1.889   4.519   4.066 -0.9963  0.7859  0.1561
   54CHL1  H23B 3983   1.732   4.451   4.024  0.8966 -0.3223 -0.5989
   54CHL1   C24 3984   1.825   4.340   4.183 -0.1771  0.3632  0.2797
   54CHL1  H24A 3985   1.785   4.238   4.170 -0.1363 -0.3249  4.2879
   54CHL1  H24B 3986   1.926   4.333   4.229  0.5452 -0.0658 -1.2876
   54CHL1   C25 3987   1.736   4.401   4.289 -0.3037  0.1961  0.1167
   54CHL1   H25 3988   1.745   4.510   4.274  1.1370  0.0570 -0.1805
   54CHL1   C26 3989   1.592   4.355   4.262 -0.2108 -0.4123 -0.3621
   54CHL1  H26A 3990   1.582   4.251   4.297  1.0028  0.1043  1.6548
   54CHL1  H26B 3991   1.528   4.423   4.323  0.5199  0.0813 -0.1283
   54CHL1  H26C 3992   1.569   4.371   4.154  1.1445  1.1199 -0.4622
   54CHL1   C27 3993   1.785   4.356   4.430 -0.7868  0.9533 -1.0053
   54CHL1  H27A 3994   1.726   4.398   4.515  0.0886 -1.8103  1.1339
   54CHL1  H27B 3995   1.775   4.246   4.440 -1.1164  1.0406 -0.2899
   54CHL1  H27C 3996   1.891   4.389   4.431 -1.2110  2.4461  1.0067
   55CHL1    C3 3997   1.304   6.352   3.251 -0.1000  0.5863  0.1778
   55CHL1    H3 3998   1.296   6.243   3.272  1.6579  0.7753  2.0526
   55CHL1    O3 3999   1.306   6.360   3.112 -0.2971  0.1453  0.1012
   55CHL1   H3' 4000   1.357   6.438   3.086  1.1839 -0.8657 -0.1657
   55CHL1    C4 4001   1.178   6.424   3.299  0.0312 -0.1198 -0.3503
   55CHL1   H4A 4002   1.160   6.524   3.255 -0.0138 -0.6587 -1.5900
   55CHL1   H4B 4003   1.093   6.362   3.264 -2.0661  2.5477 -0.3107
   55CHL1    C5 4004   1.192   6.427   3.456  0.1582  0.0690  0.4988
   55CHL1    C6 4005   1.088   6.395   3.536  0.4414 -0.1871  0.4683
   55CHL1    H6 4006   0.996   6.358   3.487 -0.6211  0.0969  2.1564
   55CHL1    C7 4007   1.083   6.405   3.682 -0.0083  0.0828  0.4126
   55CHL1   H7A 4008   0.981   6.441   3.708 -0.4998 -0.7406 -0.3017
   55CHL1   H7B 4009   1.092   6.306   3.730  0.4606 -0.1510 -0.1405
   55CHL1    C8 4010   1.193   6.489   3.747  0.4727 -0.5923  0.8900
   55CHL1    H8 4011   1.167   6.596   3.732  1.6316 -0.5546 -1.2079
   55CHL1   C14 4012   1.201   6.462   3.900  0.1497  0.0004  0.0660
   55CHL1   H14 4013   1.216   6.355   3.922 -0.0334  0.3426  1.9803
   55CHL1   C15 4014   1.065   6.482   3.975 -0.4016 -0.2618 -0.2433
   55CHL1  H15A 4015   1.017   6.568   3.924  0.9154 -0.0423 -1.1314
   55CHL1  H15B 4016   1.000   6.395   3.951  2.7070 -2.5010 -1.2271
   55CHL1   C16 4017   1.112   6.486   4.120  0.1693 -0.5531  0.4876
   55CHL1  H16A 4018   1.068   6.576   4.167 -0.1586  0.0075 -0.8444
   55CHL1  H16B 4019   1.092   6.391   4.173  0.7858 -0.5375  0.7512
   55CHL1   C17 4020   1.275   6.491   4.118  0.7866 -0.1474  0.0447
   55CHL1   H17 4021   1.308   6.387   4.137 -0.8124 -0.9041 -1.0682
   55CHL1   C13 4022   1.314   6.530   3.971  0.7834 -0.2296  0.0434
   55CHL1   C18 4023   1.295   6.682   3.950 -0.4380  0.8827 -0.0955
   55CHL1  H18A 4024   1.365   6.748   4.006 -0.9193  1.7291 -0.4764
   55CHL1  H18B 4025   1.318   6.701   3.843 -2.6906  1.7790 -0.4666
   55CHL1  H18C 4026   1.195   6.718   3.982  0.4615 -0.5085  5.4098
   55CHL1   C12 4027   1.446   6.482   3.910 -0.6918 -0.2581 -0.4004
   55CHL1  H12A 4028   1.525   6.550   3.948 -0.4018  0.3067 -1.9395
   55CHL1  H12B 4029   1.467   6.375   3.931  1.5474 -0.2554 -2.1478
   55CHL1   C11 4030   1.450   6.506   3.757 -0.1611  0.7846 -0.4985
   55CHL1  H11A 4031   1.459   6.614   3.734  1.5390  0.7801 -0.0071
   55CHL1  H11B 4032   1.536   6.457   3.707 -0.6966  1.4274 -2.1225
   55CHL1    C9 4033   1.325   6.456   3.680  0.3291 -0.3136 -0.0033
   55CHL1    H9 4034   1.325   6.346   3.692  1.0559 -0.2773  0.3878
   55CHL1   C10 4035   1.324   6.475   3.528 -1.0612  0.2183  0.1208
   55CHL1   C19 4036   1.333   6.626   3.482  0.2111 -0.1381  0.7004
   55CHL1  H19A 4037   1.251   6.685   3.529 -0.1190 -0.4543  0.5287
   55CHL1  H19B 4038   1.429   6.665   3.520 -0.3539  0.5449  1.4605
   55CHL1  H19C 4039   1.326   6.640   3.372 -0.3354 -0.7825  0.6459
   55CHL1    C1 4040   1.434   6.385   3.465 -0.0600 -0.1405  0.5813
   55CHL1   H1A 4041   1.533   6.429   3.488 -0.0339  1.7514 -2.5078
   55CHL1   H1B 4042   1.423   6.280   3.497 -2.8503  0.0140  0.4596
   55CHL1    C2 4043   1.436   6.395   3.306  0.8579  0.1791 -0.1546
   55CHL1   H2A 4044   1.514   6.321   3.281  1.0101 -0.4999  2.0505
   55CHL1   H2B 4045   1.472   6.496   3.275 -0.9720  0.7732 -0.4772
   55CHL1   C20 4046   1.341   6.565   4.238 -0.7538  0.6580  0.2622
   55CHL1   H20 4047   1.308   6.671   4.233  1.3164  1.2601 -2.4425
   55CHL1   C21 4048   1.503   6.539   4.221  0.0087  0.3831 -0.2843
   55CHL1  H21A 4049   1.521   6.439   4.178  1.0211  0.3474  0.1641
   55CHL1  H21B 4050   1.558   6.543   4.318 -1.2607 -0.1201  0.4747
   55CHL1  H21C 4051   1.551   6.607   4.147  0.9140 -1.0475 -1.0584
   55CHL1   C22 4052   1.293   6.506   4.374 -0.1358  0.5647 -1.1402
   55CHL1  H22A 4053   1.183   6.517   4.376 -0.4042 -1.6448  0.6867
   55CHL1  H22B 4054   1.319   6.401   4.397  2.4488  1.6631  1.7237
   55CHL1   C23 4055   1.348   6.601   4.480 -0.0429 -0.2730 -0.6619
   55CHL1  H23A 4056   1.454   6.582   4.506 -1.0696 -0.9959  3.7169
   55CHL1  H23B 4057   1.339   6.707   4.446  3.3764  0.2289 -0.4186
   55CHL1   C24 4058   1.288   6.585   4.626  0.3838  0.5381 -0.0154
   55CHL1  H24A 4059   1.301   6.480   4.661 -0.0503  0.0494 -1.2682
   55CHL1  H24B 4060   1.359   6.649   4.682  0.0572  1.5195 -0.6953
   55CHL1   C25 4061   1.144   6.637   4.652 -0.6661 -0.2041 -0.3461
   55CHL1   H25 4062   1.074   6.569   4.599  0.2128  1.8363 -4.5469
   55CHL1   C26 4063   1.103   6.638   4.805 -0.7856 -0.7105 -0.0967
   55CHL1  H26A 4064   0.995   6.664   4.816 -0.7176  1.3701 -3.1214
   55CHL1  H26B 4065   1.124   6.533   4.835  0.9185 -0.0847  1.0498
   55CHL1  H26C 4066   1.172   6.705   4.861  1.8773 -1.9383 -1.7496
   55CHL1   C27 4067   1.127   6.777   4.590  0.5711 -0.5140  0.0363
   55CHL1  H27A 4068   1.133   6.771   4.479  1.5916 -1.3949  0.1281
   55CHL1  H27B 4069   1.019   6.791   4.613  0.2945 -3.1671  0.6831
   55CHL1  H27C 4070   1.185   6.855   4.642 -2.0247  0.5976  1.4442
   56CHL1    C3 4071   1.421   3.362   3.236 -1.0991  0.1372  0.3952
   56CHL1    H3 4072   1.524   3.330   3.264  1.1725  4.8350 -1.3662
   56CHL1    O3 4073   1.408   3.359   3.096 -0.5352  0.5112 -0.1720
   56CHL1   H3' 4074   1.405   3.266   3.073 -0.0821  0.0594  1.4044
   56CHL1    C4 4075   1.315   3.290   3.313 -0.0127  0.0654  0.2260
   56CHL1   H4A 4076   1.219   3.332   3.277  1.0970  1.2550 -1.4515
   56CHL1   H4B 4077   1.318   3.184   3.277  1.8432  0.5470 -1.1958
   56CHL1    C5 4078   1.326   3.287   3.468  0.1610 -0.3009 -0.0554
   56CHL1    C6 4079   1.351   3.174   3.536  0.6171 -0.1392  0.1797
   56CHL1    H6 4080   1.358   3.082   3.477  0.3358 -0.5474  0.7774
   56CHL1    C7 4081   1.365   3.164   3.687  0.6352  0.3032 -0.3155
   56CHL1   H7A 4082   1.294   3.089   3.729 -0.4737  2.0220  1.0502
   56CHL1   H7B 4083   1.472   3.139   3.705  0.9406  1.9985  0.4318
   56CHL1    C8 4084   1.325   3.303   3.753  0.1013  0.9926  0.0358
   56CHL1    H8 4085   1.214   3.308   3.750  0.0080 -0.8838 -0.5518
   56CHL1   C14 4086   1.369   3.306   3.899 -0.3595  0.0050  0.4411
   56CHL1   H14 4087   1.480   3.307   3.896 -0.3841  1.4938 -1.5342
   56CHL1   C15 4088   1.346   3.178   3.990 -0.1611 -0.3603  0.2960
   56CHL1  H15A 4089   1.241   3.144   3.976  0.0231 -0.3441 -1.2658
   56CHL1  H15B 4090   1.417   3.097   3.964  0.4202  0.8131 -2.0207
   56CHL1   C16 4091   1.374   3.238   4.129 -0.4741  0.6154 -0.0102
   56CHL1  H16A 4092   1.291   3.220   4.200 -0.5361  0.2274 -0.1793
   56CHL1  H16B 4093   1.472   3.206   4.171  0.0175  1.6691 -0.3046
   56CHL1   C17 4094   1.385   3.391   4.113  0.4109 -0.0258  0.3774
   56CHL1   H17 4095   1.494   3.405   4.097  0.4767 -1.1357 -0.2636
   56CHL1   C13 4096   1.326   3.430   3.973 -0.5547 -0.8238 -0.1588
   56CHL1   C18 4097   1.166   3.440   3.978 -0.6341  0.1746  0.4352
   56CHL1  H18A 4098   1.143   3.357   4.049  1.2677 -1.3867 -0.6662
   56CHL1  H18B 4099   1.131   3.535   4.024 -0.3638  0.9172 -0.8467
   56CHL1  H18C 4100   1.111   3.430   3.882 -0.7011 -0.4460  0.5351
   56CHL1   C12 4101   1.393   3.550   3.896 -0.3896  0.0539 -0.1013
   56CHL1  H12A 4102   1.370   3.650   3.939 -0.7670 -0.4590  0.9076
   56CHL1  H12B 4103   1.503   3.537   3.903 -0.4885 -0.4133  0.7593
   56CHL1   C11 4104   1.342   3.554   3.749 -0.8948 -0.0421 -0.2267
   56CHL1  H11A 4105   1.231   3.563   3.745 -1.1887 -2.4101  0.5874
   56CHL1  H11B 4106   1.390   3.632   3.687  0.2601 -3.5165 -4.1879
   56CHL1    C9 4107   1.372   3.424   3.677 -0.8012 -0.3914  0.0552
   56CHL1    H9 4108   1.482   3.407   3.670 -0.7448  0.2847 -0.9829
   56CHL1   C10 4109   1.321   3.424   3.535 -0.8159 -0.2965 -0.2761
   56CHL1   C19 4110   1.177   3.484   3.511 -0.8578 -0.3817 -0.0305
   56CHL1  H19A 4111   1.155   3.480   3.402  0.2923 -0.4546 -0.2739
   56CHL1  H19B 4112   1.107   3.428   3.577 -0.0478 -0.3080  0.9177
   56CHL1  H19C 4113   1.182   3.590   3.542  0.1892 -1.2133  3.1034
   56CHL1    C1 4114   1.418   3.518   3.433 -0.5848  1.0093  0.0995
   56CHL1   H1A 4115   1.396   3.619   3.472 -2.8533  0.3553  0.7007
   56CHL1   H1B 4116   1.521   3.487   3.459 -1.7030 -2.2672  1.2069
   56CHL1    C2 4117   1.398   3.508   3.283 -0.7732  0.3652  0.0834
   56CHL1   H2A 4118   1.471   3.578   3.237 -0.6559  0.7567  0.8699
   56CHL1   H2B 4119   1.299   3.554   3.261 -0.4371  0.7665 -0.6170
   56CHL1   C20 4120   1.342   3.466   4.240  1.0586 -0.1011 -1.1354
   56CHL1   H20 4121   1.233   3.468   4.259  1.6145 -0.7781  2.9964
   56CHL1   C21 4122   1.375   3.617   4.225  0.1184  0.0664 -0.2980
   56CHL1  H21A 4123   1.307   3.668   4.153  1.3258  1.6827 -0.3367
   56CHL1  H21B 4124   1.476   3.623   4.180 -0.2694 -0.9173 -1.3681
   56CHL1  H21C 4125   1.382   3.664   4.325 -1.8320  1.4833 -0.7637
   56CHL1   C22 4126   1.405   3.413   4.375  0.0890 -0.6361 -0.3134
   56CHL1  H22A 4127   1.385   3.494   4.449  0.6686 -1.1203  0.3788
   56CHL1  H22B 4128   1.350   3.327   4.419  0.0889  0.8471  2.8847
   56CHL1   C23 4129   1.557   3.398   4.369 -0.4103 -0.3784  0.3620
   56CHL1  H23A 4130   1.584   3.330   4.286 -0.8899 -1.7671  1.3179
   56CHL1  H23B 4131   1.607   3.493   4.341 -0.0896 -0.4761  0.5932
   56CHL1   C24 4132   1.608   3.340   4.496  0.8941  0.3929 -1.1280
   56CHL1  H24A 4133   1.574   3.413   4.573  2.0011  1.3918 -1.5629
   56CHL1  H24B 4134   1.548   3.246   4.502  1.1375  0.2776 -0.4287
   56CHL1   C25 4135   1.755   3.301   4.508 -0.1023 -0.6300 -0.0578
   56CHL1   H25 4136   1.815   3.380   4.460  1.0594 -1.8343 -0.6715
   56CHL1   C26 4137   1.802   3.284   4.658 -0.3641  0.1647  0.2991
   56CHL1  H26A 4138   1.882   3.207   4.657 -0.6553 -0.2072  2.0148
   56CHL1  H26B 4139   1.828   3.386   4.695  1.4631  0.3618 -1.3720
   56CHL1  H26C 4140   1.722   3.234   4.715  0.8935 -2.8011 -0.3756
   56CHL1   C27 4141   1.793   3.178   4.424 -0.8686  0.3402 -0.4521
   56CHL1  H27A 4142   1.731   3.176   4.331 -2.7499 -1.8523  0.7628
   56CHL1  H27B 4143   1.901   3.167   4.402 -0.8901 -1.7856  0.3113
   56CHL1  H27C 4144   1.767   3.092   4.489 -0.6165  0.7964  0.2641
   57SAPC     N 4145   2.298   0.134   7.239  0.1660 -0.2646 -0.9044
   57SAPC   C12 4146   2.403   0.108   7.127  0.0325  0.1284 -0.8131
   57SAPC  H12A 4147   2.384   0.180   7.049 -3.2932 -0.9588 -1.1499
   57SAPC  H12B 4148   2.396   0.009   7.085  2.5480 -0.6388  0.3405
   57SAPC   C13 4149   2.302   0.044   7.355 -0.1921  0.3700  0.4639
   57SAPC  H13A 4150   2.269  -0.053   7.322 -0.4168  0.6178 -0.0415
   57SAPC  H13B 4151   2.401   0.029   7.395 -0.3112  0.7454  0.9184
   57SAPC  H13C 4152   2.238   0.073   7.438 -1.7599  0.4715 -0.7308
   57SAPC   C14 4153   2.306   0.272   7.301 -0.3785  0.6119  0.2580
   57SAPC  H14A 4154   2.239   0.286   7.384  0.0089  0.7038  0.5577
   57SAPC  H14B 4155   2.406   0.282   7.341 -0.8076  0.3303  1.4483
   57SAPC  H14C 4156   2.299   0.348   7.225 -1.1306 -1.6560 -2.1029
   57SAPC   C15 4157   2.159   0.132   7.183 -0.4297  0.3454 -0.0383
   57SAPC  H15A 4158   2.147   0.036   7.136 -2.0608  0.8793 -0.7769
   57SAPC  H15B 4159   2.089   0.124   7.265  0.2683 -0.5285  0.4953
   57SAPC  H15C 4160   2.137   0.215   7.118 -3.2405  0.1260  0.5147
   57SAPC   C11 4161   2.552   0.127   7.172 -0.3728  0.5008 -0.4856
   57SAPC  H11A 4162   2.603   0.109   7.075 -3.4836 -2.4077 -1.7578
   57SAPC  H11B 4163   2.578   0.044   7.241 -1.2740  0.5220 -0.1121
   57SAPC     P 4164   2.652   0.358   7.159 -0.0012  0.1846 -0.0417
   57SAPC   O13 4165   2.669   0.463   7.261 -0.8562  0.7682  0.1187
   57SAPC   O14 4166   2.774   0.306   7.094 -0.6377  0.2983 -0.2980
   57SAPC   O12 4167   2.572   0.245   7.238  0.0770 -0.8783 -0.5961
   57SAPC   O11 4168   2.549   0.406   7.054  0.4346  0.2857 -0.2886
   57SAPC    C1 4169   2.579   0.517   6.964 -0.5915 -0.0102  0.0398
   57SAPC    HA 4170   2.497   0.592   6.955  0.7170  1.4365 -0.2554
   57SAPC    HB 4171   2.670   0.571   6.997  0.2862 -0.5383 -1.3980
   57SAPC    C2 4172   2.608   0.477   6.815 -0.1723  0.1491  0.0912
   57SAPC    HS 4173   2.512   0.449   6.767 -0.6704  0.6862  0.7408
   57SAPC   O21 4174   2.700   0.364   6.806 -0.3051  0.3507 -0.6571
   57SAPC   C21 4175   2.630   0.240   6.807  0.0771 -0.6902  0.7877
   57SAPC   O22 4176   2.511   0.229   6.826  0.1453 -0.0251 -0.1848
   57SAPC   C22 4177   2.723   0.129   6.755  0.2227 -0.6569 -0.7365
   57SAPC   H2R 4178   2.825   0.162   6.728  0.1618 -0.7034 -1.0305
   57SAPC   H2S 4179   2.732   0.065   6.845 -0.2667  0.7257  0.3319
   57SAPC    C3 4180   2.662   0.595   6.731  0.0513 -0.0717 -0.0857
   57SAPC    HX 4181   2.739   0.649   6.790  0.2234 -1.5572  1.0827
   57SAPC    HY 4182   2.577   0.665   6.714  0.4191  1.1195  2.4433
   57SAPC   O31 4183   2.715   0.555   6.599  0.2015  0.5425 -0.2082
   57SAPC   C31 4184   2.843   0.510   6.592  0.0459 -0.3997  0.0951
   57SAPC   O32 4185   2.909   0.500   6.691  0.5942  0.6588 -0.0800
   57SAPC   C32 4186   2.877   0.481   6.448  0.4726  0.4546 -0.0249
   57SAPC   H2X 4187   2.883   0.574   6.389 -1.4958 -0.3705 -1.6551
   57SAPC   H2Y 4188   2.796   0.417   6.406 -0.3976  2.1000 -0.9636
   57SAPC   C23 4189   2.657   0.048   6.649 -0.0772 -0.2374  0.5620
   57SAPC   H3R 4190   2.547   0.061   6.656 -0.2302  1.9919 -3.3754
   57SAPC   H3S 4191   2.670  -0.060   6.669 -0.1365 -0.0126  1.9398
   57SAPC   C24 4192   2.707   0.082   6.505 -0.0842 -0.0087  0.2022
   57SAPC   H4R 4193   2.691   0.191   6.485  1.5905  0.9814  3.5620
   57SAPC   H4S 4194   2.637   0.044   6.427  0.6555  0.1514 -0.5532
   57SAPC   C25 4195   2.851   0.060   6.470 -0.5026  1.1517  0.3908
   57SAPC   H5R 4196   2.924   0.101   6.540  1.2154 -0.8161 -0.1494
   57SAPC   C26 4197   2.891  -0.017   6.373  1.1633  0.0052 -0.1800
   57SAPC   H6R 4198   2.999  -0.023   6.351  1.0734  0.8319 -0.8759
   57SAPC   C27 4199   2.812  -0.111   6.287 -0.2663 -0.6250 -0.7765
   57SAPC   H7R 4200   2.723  -0.155   6.337 -1.6081  0.4507 -2.0857
   57SAPC   H7S 4201   2.882  -0.195   6.271  3.6607  1.8479  1.6135
   57SAPC   C28 4202   2.767  -0.033   6.165 -0.1795 -0.1190 -0.7653
   57SAPC   H8R 4203   2.694   0.049   6.171 -3.2205 -2.3508 -3.4965
   57SAPC   C29 4204   2.796  -0.060   6.036  0.6239  0.0873  0.7571
   57SAPC   H9R 4205   2.744   0.000   5.960 -0.1293 -1.2967  0.1393
   57SAPC  C210 4206   2.870  -0.177   5.985  0.6014  0.8201  0.1510
   57SAPC  H10R 4207   2.808  -0.231   5.910  1.7940  1.3652 -1.2894
   57SAPC  H10S 4208   2.883  -0.258   6.060  0.5237 -2.6809 -3.3020
   57SAPC  C211 4209   2.995  -0.138   5.915  0.6041  0.1633 -0.0564
   57SAPC  H11R 4210   3.062  -0.075   5.975  1.7051 -0.9348 -0.0930
   57SAPC  C212 4211   3.031  -0.154   5.787  0.0432  0.4952  0.5427
   57SAPC  H12R 4212   3.119  -0.101   5.747 -0.1354  0.2818 -0.1413
   57SAPC  C213 4213   2.961  -0.235   5.684 -0.2119 -0.0835 -0.4247
   57SAPC  H13R 4214   2.909  -0.316   5.738  1.0580 -1.1845 -0.7857
   57SAPC  H13S 4215   3.041  -0.271   5.616  0.3967  0.3818  0.0266
   57SAPC  C214 4216   2.864  -0.146   5.620 -0.0429  0.2117  0.1325
   57SAPC  H14R 4217   2.776  -0.133   5.685  0.4758 -0.9236  1.1124
   57SAPC  C215 4218   2.873  -0.093   5.497 -0.3323  0.2876 -0.6217
   57SAPC  H15R 4219   2.786  -0.030   5.473 -0.3167  2.2771  3.6033
   57SAPC  C216 4220   2.979  -0.106   5.390 -0.3329 -0.0436  0.3280
   57SAPC  H16R 4221   2.959  -0.169   5.302  4.0620 -1.4673  0.1086
   57SAPC  H16S 4222   3.072  -0.151   5.431 -1.0451 -1.7928  0.1049
   57SAPC  C217 4223   2.987   0.042   5.338  0.1855  0.2580  0.8358
   57SAPC  H17R 4224   3.005   0.110   5.424  0.3302  0.6845  0.4666
   57SAPC  H17S 4225   2.898   0.075   5.280  0.8299 -0.3695 -0.5525
   57SAPC  C218 4226   3.114   0.066   5.248  0.6251  0.3476  0.5540
   57SAPC  H18R 4227   3.211   0.030   5.290  1.4899  1.4563 -0.4205
   57SAPC  H18S 4228   3.139   0.173   5.231  0.7532 -0.2908 -4.6514
   57SAPC  C219 4229   3.081   0.003   5.114 -0.4515  0.2504  0.0206
   57SAPC  H19R 4230   2.995   0.034   5.051 -0.7184 -0.3789  0.0646
   57SAPC  H19S 4231   3.062  -0.106   5.123 -0.7978  0.3914  1.1003
   57SAPC  C220 4232   3.197   0.030   5.015 -0.2334  0.0846 -0.2088
   57SAPC  H20R 4233   3.191  -0.048   4.936  0.2953 -0.2691  0.0905
   57SAPC  H20S 4234   3.293   0.020   5.071 -0.4403 -0.4313  0.0551
   57SAPC  H20T 4235   3.192   0.133   4.974 -2.5985  0.3961  0.6751
   57SAPC   C33 4236   3.017   0.415   6.421  0.7559 -0.7639 -0.2939
   57SAPC   H3X 4237   3.021   0.308   6.448  0.3545 -1.0134 -1.1823
   57SAPC   H3Y 4238   3.078   0.465   6.500 -3.4563  2.9197  1.0971
   57SAPC   C34 4239   3.064   0.436   6.272 -0.3076  0.5311 -0.1857
   57SAPC   H4X 4240   3.150   0.368   6.253 -0.6231  0.2684 -0.6808
   57SAPC   H4Y 4241   3.104   0.539   6.262  1.9706 -0.0739  1.6759
   57SAPC   C35 4242   2.957   0.394   6.171  0.1095 -0.3897  0.3312
   57SAPC   H5X 4243   2.905   0.490   6.153  1.9489  0.8491  1.2951
   57SAPC   H5Y 4244   2.902   0.316   6.227  0.1123  0.6360  1.8487
   57SAPC   C36 4245   3.016   0.336   6.044  0.5460 -0.6367  0.5098
   57SAPC   H6X 4246   2.934   0.281   5.994 -0.2056  1.2941 -0.4921
   57SAPC   H6Y 4247   3.091   0.256   6.063 -0.3819 -1.6212  0.0966
   57SAPC   C37 4248   3.063   0.433   5.934 -0.1449  0.1026 -0.1589
   57SAPC   H7X 4249   3.159   0.479   5.964  0.1541 -0.4676 -0.2401
   57SAPC   H7Y 4250   2.988   0.515   5.931 -0.0210  0.3470  1.8885
   57SAPC   C38 4251   3.097   0.375   5.801 -0.4433 -0.0179  0.7324
   57SAPC   H8X 4252   3.025   0.299   5.762 -0.3284 -0.0588  0.5991
   57SAPC   H8Y 4253   3.185   0.311   5.824 -0.8533 -0.5231  0.9230
   57SAPC   C39 4254   3.126   0.479   5.691 -0.4813  0.2752 -0.0009
   57SAPC   H9X 4255   3.178   0.565   5.738 -1.2099  0.3907  0.6158
   57SAPC   H9Y 4256   3.031   0.523   5.652 -0.5594 -1.2055 -1.5919
   57SAPC  C310 4257   3.210   0.431   5.575  0.1732  0.7266  0.1865
   57SAPC  H10X 4258   3.160   0.347   5.523  1.4537  0.9678 -1.5143
   57SAPC  H10Y 4259   3.314   0.415   5.610  0.7150  2.4786 -0.5232
   57SAPC  C311 4260   3.226   0.544   5.459 -0.2029 -0.3562 -0.4050
   57SAPC  H11X 4261   3.275   0.633   5.506 -0.5482 -0.7912  0.8233
   57SAPC  H11Y 4262   3.124   0.580   5.436  0.0425 -0.6070 -1.9358
   57SAPC  C312 4263   3.290   0.500   5.332  0.5414 -0.2499  0.0534
   57SAPC  H12X 4264   3.250   0.402   5.296 -0.0559 -0.1408  0.4119
   57SAPC  H12Y 4265   3.396   0.470   5.351  1.2820 -0.4814 -3.6443
   57SAPC  C313 4266   3.295   0.601   5.213  0.4471 -0.8994 -0.0938
   57SAPC  H13X 4267   3.316   0.707   5.241 -0.2306 -0.0172 -2.6686
   57SAPC  H13Y 4268   3.188   0.618   5.189  0.8961  2.1130 -0.3304
   57SAPC  C314 4269   3.378   0.553   5.093 -0.1016  0.3622  0.4235
   57SAPC  H14X 4270   3.361   0.446   5.070 -2.6517  0.9261 -0.7485
   57SAPC  H14Y 4271   3.485   0.551   5.122  0.7157 -3.8519 -2.0926
   57SAPC  C315 4272   3.355   0.644   4.973  0.5624  0.5198  0.7019
   57SAPC  H15X 4273   3.445   0.636   4.909  1.2701 -0.6410  1.8015
   57SAPC  H15Y 4274   3.351   0.749   5.009 -2.4770  1.9310 -2.9953
   57SAPC  C316 4275   3.221   0.619   4.882  0.2937 -0.0591 -0.5887
   57SAPC  H16X 4276   3.224   0.693   4.799  1.6733 -0.3222 -0.7898
   57SAPC  H16Y 4277   3.136   0.638   4.951  0.3564 -1.9907  0.0608
   57SAPC  C317 4278   3.220   0.487   4.816  0.0747  0.9362  0.2276
   57SAPC  H17X 4279   3.183   0.406   4.882 -1.0649  0.4500 -0.9649
   57SAPC  H17Y 4280   3.316   0.441   4.782 -0.4576 -1.0572  1.2478
   57SAPC  C318 4281   3.128   0.477   4.689  0.4732 -0.0921  0.0506
   57SAPC  H18X 4282   3.160   0.543   4.606 -3.5615  0.9951 -0.8576
   57SAPC  H18Y 4283   3.032   0.516   4.730  0.9253  0.3328  0.7360
   57SAPC  H18Z 4284   3.114   0.371   4.658 -2.1303 -0.1669  1.1903
   58SAPC     N 4285   6.187   0.399   7.315 -0.1074  0.0854  0.1786
   58SAPC   C12 4286   6.212   0.301   7.429 -0.7247  0.2471  0.2737
   58SAPC  H12A 4287   6.159   0.215   7.392  2.2978 -1.4207 -0.4919
   58SAPC  H12B 4288   6.173   0.338   7.523  2.3658  2.6558  0.7659
   58SAPC   C13 4289   6.282   0.517   7.327 -0.0549  0.2989  0.1271
   58SAPC  H13A 4290   6.257   0.588   7.250  0.3701  0.3979  0.0797
   58SAPC  H13B 4291   6.268   0.562   7.425  1.1186  0.8382  0.0631
   58SAPC  H13C 4292   6.385   0.488   7.313 -0.2139 -0.4951  0.5457
   58SAPC   C14 4293   6.213   0.342   7.178  0.2551  0.5093  0.3742
   58SAPC  H14A 4294   6.208   0.427   7.111 -1.0314  1.2204  1.3103
   58SAPC  H14B 4295   6.315   0.308   7.175  0.5690  1.4450 -2.6823
   58SAPC  H14C 4296   6.142   0.264   7.156  0.8268  0.0322  0.2210
   58SAPC   C15 4297   6.055   0.467   7.327 -0.1540 -0.3502  0.2218
   58SAPC  H15A 4298   6.056   0.551   7.260  2.8960 -0.3365  0.1455
   58SAPC  H15B 4299   5.967   0.409   7.303  1.4085 -2.4997 -0.6719
   58SAPC  H15C 4300   6.033   0.517   7.420 -1.8024 -0.6239  0.0162
   58SAPC   C11 4301   6.356   0.266   7.456  0.3763  0.2210 -0.7794
   58SAPC  H11A 4302   6.346   0.172   7.514 -3.0721  0.0422 -1.4586
   58SAPC  H11B 4303   6.385   0.339   7.534  0.9587 -3.0471  2.3171
   58SAPC     P 4304   6.583   0.307   7.345 -0.0247 -0.1433  0.1233
   58SAPC   O13 4305   6.562   0.440   7.279 -0.1976  0.1559  0.3244
   58SAPC   O14 4306   6.635   0.308   7.482  0.5342  0.1105  0.2000
   58SAPC   O12 4307   6.435   0.239   7.340 -0.0752 -0.2535  0.1135
   58SAPC   O11 4308   6.674   0.210   7.260 -0.0808 -0.4654  0.6683
   58SAPC    C1 4309   6.623   0.152   7.135  0.5415  0.1083  0.1483
   58SAPC    HA 4310   6.698   0.074   7.110 -1.7628 -2.5014  0.9096
   58SAPC    HB 4311   6.522   0.110   7.152 -0.0074  0.7778 -1.3107
   58SAPC    C2 4312   6.646   0.253   7.014  0.0494 -0.1023 -0.8838
   58SAPC    HS 4313   6.560   0.320   7.033  0.9129  0.1635  3.1160
   58SAPC   O21 4314   6.645   0.189   6.891 -0.0715  0.3120 -0.0863
   58SAPC   C21 4315   6.522   0.143   6.852 -0.1148  0.0221  0.3322
   58SAPC   O22 4316   6.417   0.159   6.912  0.4538  0.1789  0.0512
   58SAPC   C22 4317   6.543   0.040   6.733  0.2837 -0.4586 -0.3134
   58SAPC   H2R 4318   6.634   0.067   6.676  0.7195 -1.5619 -0.1516
   58SAPC   H2S 4319   6.551  -0.062   6.777  1.1464 -0.7895 -1.2279
   58SAPC    C3 4320   6.776   0.330   7.026 -1.1608  0.6137  0.0301
   58SAPC    HX 4321   6.857   0.254   7.026 -0.6875  1.0960 -0.6841
   58SAPC    HY 4322   6.784   0.374   7.127  0.7586 -0.8249  0.5470
   58SAPC   O31 4323   6.799   0.428   6.924 -0.0453  0.2538  0.2546
   58SAPC   C31 4324   6.916   0.421   6.865  0.4325  0.2610 -0.5636
   58SAPC   O32 4325   7.006   0.344   6.892 -0.3151 -0.2500  0.8066
   58SAPC   C32 4326   6.931   0.547   6.770  0.7731  1.0912  0.1736
   58SAPC   H2X 4327   7.013   0.608   6.814  2.3481  0.0280 -1.1498
   58SAPC   H2Y 4328   6.830   0.594   6.775  0.5138  0.5429  0.0799
   58SAPC   C23 4329   6.420   0.063   6.640  0.1504 -0.3055  0.8755
   58SAPC   H3R 4330   6.414   0.169   6.609  0.5261  0.1274  2.1955
   58SAPC   H3S 4331   6.327   0.038   6.696 -0.8176  1.1972  0.0032
   58SAPC   C24 4332   6.423  -0.024   6.516  0.1206 -0.3528  1.7080
   58SAPC   H4R 4333   6.410  -0.132   6.539 -0.9538 -0.7803 -0.6325
   58SAPC   H4S 4334   6.523  -0.023   6.467 -0.2643 -1.9033  0.8122
   58SAPC   C25 4335   6.300   0.010   6.421 -0.2158  0.0462 -0.2888
   58SAPC   H5R 4336   6.203  -0.011   6.468  1.2738 -2.5703  1.8809
   58SAPC   C26 4337   6.301   0.063   6.297 -0.3911 -0.8825 -0.7496
   58SAPC   H6R 4338   6.204   0.068   6.246 -1.3087 -0.6793  0.9343
   58SAPC   C27 4339   6.416   0.106   6.218 -0.4834  0.0018 -0.3575
   58SAPC   H7R 4340   6.429   0.027   6.140 -2.2461 -1.7153  0.9925
   58SAPC   H7S 4341   6.512   0.123   6.271  0.5306 -2.0803 -1.3830
   58SAPC   C28 4342   6.388   0.230   6.140 -0.7924  0.2122 -0.7682
   58SAPC   H8R 4343   6.386   0.317   6.207  1.7743 -1.0263  1.0534
   58SAPC   C29 4344   6.358   0.245   6.010 -0.6035 -0.8250 -0.2901
   58SAPC   H9R 4345   6.343   0.350   5.980 -0.9985 -1.0234 -0.8238
   58SAPC  C210 4346   6.353   0.138   5.902 -0.4457 -0.3593  0.3608
   58SAPC  H10R 4347   6.385   0.041   5.946 -0.2747 -0.7950 -0.7101
   58SAPC  H10S 4348   6.429   0.172   5.829  0.6430  0.0144  1.6172
   58SAPC  C211 4349   6.211   0.120   5.853 -0.3753  0.3489  1.0787
   58SAPC  H11R 4350   6.148   0.051   5.912  0.6610 -1.5894  0.0204
   58SAPC  C212 4351   6.162   0.154   5.730 -0.1115 -0.2532  0.5372
   58SAPC  H12R 4352   6.055   0.139   5.708 -0.2491  1.0443  0.2827
   58SAPC  C213 4353   6.247   0.236   5.632 -0.8007 -0.5429 -0.4662
   58SAPC  H13R 4354   6.309   0.166   5.571 -1.1337  0.0758 -1.5447
   58SAPC  H13S 4355   6.318   0.304   5.683 -0.7514 -0.0255 -1.2119
   58SAPC  C214 4356   6.162   0.326   5.551 -0.8739 -0.0733  0.2381
   58SAPC  H14R 4357   6.123   0.409   5.612  3.4500 -1.0120  4.9465
   58SAPC  C215 4358   6.145   0.324   5.421 -0.0737  0.7869 -0.2694
   58SAPC  H15R 4359   6.073   0.399   5.384  0.4594  1.1569 -0.5670
   58SAPC  C216 4360   6.188   0.213   5.330  0.3059  0.3708 -0.2363
   58SAPC  H16R 4361   6.097   0.167   5.284 -1.0738  2.0178  0.7293
   58SAPC  H16S 4362   6.242   0.130   5.380  0.8026 -0.1794 -1.6188
   58SAPC  C217 4363   6.281   0.262   5.215  0.2499  0.3801 -0.4851
   58SAPC  H17R 4364   6.315   0.169   5.163 -0.4623  0.4949 -1.1656
   58SAPC  H17S 4365   6.369   0.323   5.247  0.4922  0.1269 -0.6563
   58SAPC  C218 4366   6.200   0.350   5.117 -0.0478  0.7911 -0.6323
   58SAPC  H18R 4367   6.177   0.442   5.174 -0.0829 -0.0054  0.6655
   58SAPC  H18S 4368   6.109   0.293   5.088  0.9990 -1.1493 -0.3205
   58SAPC  C219 4369   6.275   0.399   4.990 -1.0051 -0.7003  0.0759
   58SAPC  H19R 4370   6.324   0.318   4.933  0.8744  1.5873 -1.7992
   58SAPC  H19S 4371   6.361   0.461   5.025  1.3733 -4.9124  2.5810
   58SAPC  C220 4372   6.191   0.495   4.904 -0.1407  0.4684  0.0791
   58SAPC  H20R 4373   6.097   0.442   4.879  1.3977 -2.6461  0.3997
   58SAPC  H20S 4374   6.248   0.528   4.815  0.9897 -0.9290  0.2479
   58SAPC  H20T 4375   6.174   0.581   4.973 -1.0070  0.4932 -0.1583
   58SAPC   C33 4376   6.982   0.487   6.635  0.7013  0.8791 -0.4558
   58SAPC   H3X 4377   6.909   0.414   6.596  1.0333  0.8136 -0.9575
   58SAPC   H3Y 4378   7.079   0.432   6.639 -1.1860 -2.7092 -0.3646
   58SAPC   C34 4379   6.998   0.601   6.532 -0.8517 -0.1509  0.7814
   58SAPC   H4X 4380   7.080   0.664   6.573  2.2667 -3.8729  0.8106
   58SAPC   H4Y 4381   6.900   0.653   6.537 -0.5179  0.3939  2.7957
   58SAPC   C35 4382   7.037   0.561   6.389  0.2753  0.1908 -0.8963
   58SAPC   H5X 4383   6.977   0.470   6.363  0.5072 -0.9494  2.2086
   58SAPC   H5Y 4384   7.144   0.533   6.381  0.5593  0.9989 -0.0132
   58SAPC   C36 4385   7.013   0.686   6.304 -0.1951 -0.4737 -0.1230
   58SAPC   H6X 4386   7.034   0.781   6.359  0.1765  0.5749 -1.9962
   58SAPC   H6Y 4387   6.905   0.699   6.282  0.2037  3.6283 -0.5930
   58SAPC   C37 4388   7.100   0.689   6.172 -0.4320 -0.5763  0.5304
   58SAPC   H7X 4389   7.209   0.687   6.195  0.2715  4.9044 -0.8990
   58SAPC   H7Y 4390   7.090   0.791   6.128 -1.3018 -0.8924 -0.0318
   58SAPC   C38 4391   7.067   0.585   6.066 -0.6589  0.2339  0.1864
   58SAPC   H8X 4392   6.958   0.573   6.054 -0.7015  1.1957 -0.5608
   58SAPC   H8Y 4393   7.100   0.487   6.105 -1.0175 -0.5047 -1.3076
   58SAPC   C39 4394   7.143   0.617   5.933  0.0904  0.6592 -0.7906
   58SAPC   H9X 4395   7.246   0.578   5.951 -0.2072  0.7573  1.5205
   58SAPC   H9Y 4396   7.149   0.726   5.916 -2.3012  0.9587 -0.1355
   58SAPC  C310 4397   7.088   0.540   5.810 -0.3826  0.0484  0.2670
   58SAPC  H10X 4398   6.985   0.575   5.785  0.4855  0.8896 -2.6108
   58SAPC  H10Y 4399   7.091   0.432   5.835  1.1062  0.3533  1.4774
   58SAPC  C311 4400   7.166   0.569   5.687 -0.6275 -0.4616  0.1567
   58SAPC  H11X 4401   7.271   0.535   5.694  0.3168  1.7450 -1.7803
   58SAPC  H11Y 4402   7.175   0.680   5.680 -2.5511 -0.3242 -0.9820
   58SAPC  C312 4403   7.114   0.523   5.554  0.0152 -0.4451  0.5201
   58SAPC  H12X 4404   7.009   0.558   5.546  0.3405  0.1939 -1.9095
   58SAPC  H12Y 4405   7.122   0.412   5.551  2.2090 -0.3542  1.2370
   58SAPC  C313 4406   7.190   0.572   5.428 -0.3982  0.1475  0.0853
   58SAPC  H13X 4407   7.288   0.522   5.414 -0.4703  0.0833 -0.1976
   58SAPC  H13Y 4408   7.220   0.677   5.448  2.0189 -0.8549  2.2526
   58SAPC  C314 4409   7.102   0.575   5.300 -0.2398 -0.1904  0.1443
   58SAPC  H14X 4410   7.024   0.647   5.331  0.6222  1.2780 -1.0166
   58SAPC  H14Y 4411   7.069   0.469   5.291 -0.6715 -0.0440 -0.0328
   58SAPC  C315 4412   7.168   0.623   5.177 -0.3403  0.3737  0.5136
   58SAPC  H15X 4413   7.254   0.556   5.153 -0.8060  0.0965 -0.4256
   58SAPC  H15Y 4414   7.214   0.725   5.174  3.1984 -1.0942  0.3157
   58SAPC  C316 4415   7.079   0.610   5.045  0.1262  0.8632  0.1223
   58SAPC  H16X 4416   7.001   0.688   5.063 -1.2742 -0.9423  2.4798
   58SAPC  H16Y 4417   7.027   0.513   5.033 -1.6345  1.7535  0.1294
   58SAPC  C317 4418   7.152   0.646   4.917 -1.0683 -0.4250  0.8341
   58SAPC  H17X 4419   7.226   0.566   4.896  1.1509  0.6338  3.8073
   58SAPC  H17Y 4420   7.210   0.740   4.931 -0.8766 -0.5338  0.7752
   58SAPC  C318 4421   7.054   0.663   4.797  0.2449 -0.3935 -0.0595
   58SAPC  H18X 4422   6.993   0.570   4.800  2.2639 -1.7729  0.8670
   58SAPC  H18Y 4423   7.113   0.668   4.703 -1.0099  2.3192 -0.7797
   58SAPC  H18Z 4424   6.988   0.752   4.806  0.9219  0.0131  1.1574
   59SAPC     N 4425   5.409   5.264   7.021 -0.8937 -0.0065 -0.3131
   59SAPC   C12 4426   5.375   5.357   6.901  0.3593  0.1067 -0.0100
   59SAPC  H12A 4427   5.312   5.293   6.841 -1.0492  0.3064  1.1945
   59SAPC  H12B 4428   5.456   5.397   6.842 -0.8047 -0.5588 -2.1863
   59SAPC   C13 4429   5.487   5.150   6.958 -0.8076 -0.0800 -0.2050
   59SAPC  H13A 4430   5.586   5.188   6.934 -0.9271 -0.3159 -1.0664
   59SAPC  H13B 4431   5.485   5.064   7.023 -0.4968  0.4829  0.5710
   59SAPC  H13C 4432   5.446   5.112   6.866 -1.5439  0.5960 -0.1612
   59SAPC   C14 4433   5.497   5.334   7.118 -0.5991 -0.2054 -0.4824
   59SAPC  H14A 4434   5.578   5.371   7.058 -2.4241  2.0056 -1.7709
   59SAPC  H14B 4435   5.452   5.415   7.173  2.4687  1.5527 -0.3474
   59SAPC  H14C 4436   5.521   5.262   7.194 -0.1508  0.6264  0.1713
   59SAPC   C15 4437   5.295   5.203   7.090  0.0536  0.7615  0.3060
   59SAPC  H15A 4438   5.242   5.140   7.020 -2.0215  1.1806  1.4163
   59SAPC  H15B 4439   5.328   5.152   7.179  0.3786 -0.9946 -0.7712
   59SAPC  H15C 4440   5.221   5.277   7.116 -1.3640 -1.2579  2.3794
   59SAPC   C11 4441   5.283   5.477   6.928 -0.1687  0.3848 -0.3622
   59SAPC  H11A 4442   5.282   5.533   6.833 -1.1600 -0.7853 -1.0605
   59SAPC  H11B 4443   5.331   5.536   7.010  0.1041  0.1299 -0.3343
   59SAPC     P 4444   5.035   5.526   7.007 -0.0007 -0.3400  0.0781
   59SAPC   O13 4445   4.978   5.487   7.133  0.7985  0.0396  0.0247
   59SAPC   O14 4446   5.070   5.670   6.996 -0.8817 -0.0415  0.3986
   59SAPC   O12 4447   5.157   5.431   6.978  0.0281  0.8343 -0.8313
   59SAPC   O11 4448   4.934   5.477   6.891  0.1405 -0.1004 -0.1510
   59SAPC    C1 4449   4.868   5.351   6.900  0.8432  0.3307 -0.4917
   59SAPC    HA 4450   4.827   5.327   7.000 -2.2408  0.1590 -1.6926
   59SAPC    HB 4451   4.777   5.358   6.837 -0.6272  0.2415  1.5600
   59SAPC    C2 4452   4.949   5.231   6.846  0.3710  0.2763  0.2234
   59SAPC    HS 4453   5.029   5.223   6.922  1.6684  2.2532 -0.8616
   59SAPC   O21 4454   5.001   5.246   6.707 -0.1452 -1.0990  0.4782
   59SAPC   C21 4455   5.108   5.179   6.676  0.7749 -1.1089  0.1969
   59SAPC   O22 4456   5.181   5.121   6.751 -0.1005 -0.2763  0.4399
   59SAPC   C22 4457   5.136   5.184   6.520 -0.3113  0.1071  0.2988
   59SAPC   H2R 4458   5.042   5.159   6.466 -1.0421  0.8795  1.1814
   59SAPC   H2S 4459   5.160   5.289   6.494  0.4628 -0.1095  0.1213
   59SAPC    C3 4460   4.857   5.100   6.854 -0.8707 -0.1878 -0.7978
   59SAPC    HX 4461   4.790   5.115   6.767  0.5935  1.6269 -1.6832
   59SAPC    HY 4462   4.801   5.094   6.950 -1.9172 -0.0944 -1.3866
   59SAPC   O31 4463   4.926   4.977   6.820 -0.3374 -0.3900  0.3042
   59SAPC   C31 4464   4.986   4.927   6.930  0.3117 -0.3542 -0.2095
   59SAPC   O32 4465   5.001   4.992   7.034 -0.1948  0.5226  0.4272
   59SAPC   C32 4466   5.033   4.788   6.915  0.0410  0.3379  0.0529
   59SAPC   H2X 4467   4.979   4.731   6.837  0.0869  2.3327 -1.5204
   59SAPC   H2Y 4468   5.002   4.732   7.005 -0.0080 -0.1126 -0.2407
   59SAPC   C23 4469   5.254   5.089   6.465 -0.2769 -0.3584 -0.3332
   59SAPC   H3R 4470   5.228   4.987   6.430  1.3198 -0.7811 -0.3512
   59SAPC   H3S 4471   5.339   5.093   6.537 -0.3776 -0.1390 -0.2220
   59SAPC   C24 4472   5.308   5.158   6.337  0.5898  0.7782  0.0061
   59SAPC   H4R 4473   5.220   5.207   6.289  1.0929  0.7333 -1.0011
   59SAPC   H4S 4474   5.340   5.078   6.267  1.6923  0.7284  0.5411
   59SAPC   C25 4475   5.406   5.261   6.365  0.2265 -0.2953 -0.1737
   59SAPC   H5R 4476   5.480   5.232   6.441 -2.8773 -0.9419  2.8405
   59SAPC   C26 4477   5.400   5.393   6.326 -0.1774 -0.3305 -0.3741
   59SAPC   H6R 4478   5.495   5.446   6.344 -1.4149  0.9805  2.9971
   59SAPC   C27 4479   5.303   5.461   6.231 -0.0450  0.2219  0.2439
   59SAPC   H7R 4480   5.243   5.527   6.296 -0.4605 -0.1465  0.2337
   59SAPC   H7S 4481   5.226   5.395   6.187  0.5704  0.5119 -1.3300
   59SAPC   C28 4482   5.351   5.545   6.120 -0.5459 -0.0132  0.4069
   59SAPC   H8R 4483   5.356   5.653   6.139  0.3225 -0.3284  2.1933
   59SAPC   C29 4484   5.403   5.499   6.004 -0.1810  0.3513  0.4329
   59SAPC   H9R 4485   5.444   5.570   5.931  1.7681  0.9489  2.0110
   59SAPC  C210 4486   5.434   5.353   5.963 -0.0874 -0.0566 -0.5298
   59SAPC  H10R 4487   5.481   5.301   6.050  0.7035  0.4528 -0.6501
   59SAPC  H10S 4488   5.522   5.363   5.897  0.4571 -2.7423 -0.3449
   59SAPC  C211 4489   5.327   5.269   5.900  1.0487 -0.7055  0.0745
   59SAPC  H11R 4490   5.240   5.252   5.964 -0.1457 -1.6460 -1.7070
   59SAPC  C212 4491   5.337   5.209   5.782 -0.0689  0.7907  0.2720
   59SAPC  H12R 4492   5.258   5.141   5.746 -2.0796  2.7101  0.8724
   59SAPC  C213 4493   5.445   5.214   5.681  0.2096  0.2858 -0.1829
   59SAPC  H13R 4494   5.510   5.303   5.695 -0.2014  0.6912 -0.7863
   59SAPC  H13S 4495   5.392   5.237   5.587 -1.0094  1.8744  0.8280
   59SAPC  C214 4496   5.534   5.089   5.680  0.5356  0.2712  0.2769
   59SAPC  H14R 4497   5.588   5.069   5.774  3.8161  0.2971 -1.4891
   59SAPC  C215 4498   5.568   5.016   5.571 -0.8111  0.1353 -0.3781
   59SAPC  H15R 4499   5.634   4.928   5.574 -0.4439  0.4014 -0.5910
   59SAPC  C216 4500   5.509   5.037   5.436 -0.5319  0.1437 -0.3307
   59SAPC  H16R 4501   5.519   5.142   5.402  0.5504 -0.2431 -1.2583
   59SAPC  H16S 4502   5.398   5.037   5.445 -0.5307  2.3020  0.2639
   59SAPC  C217 4503   5.573   4.956   5.324 -0.6814 -0.4421  0.0132
   59SAPC  H17R 4504   5.681   4.982   5.327 -1.3011  2.3413  0.8718
   59SAPC  H17S 4505   5.531   4.993   5.228  1.1709  0.8353 -0.3554
   59SAPC  C218 4506   5.539   4.813   5.323 -0.5224 -0.5935  0.2163
   59SAPC  H18R 4507   5.428   4.809   5.332 -0.7542  1.9530 -0.5430
   59SAPC  H18S 4508   5.589   4.759   5.406 -0.3146 -1.7053 -0.6099
   59SAPC  C219 4509   5.581   4.742   5.195 -0.2385  0.1692  0.0622
   59SAPC  H19R 4510   5.691   4.749   5.190  0.0195 -1.5527  2.0901
   59SAPC  H19S 4511   5.537   4.790   5.104 -0.3325  0.5180  0.2900
   59SAPC  C220 4512   5.545   4.594   5.193 -0.0305 -0.2217 -0.0662
   59SAPC  H20R 4513   5.612   4.545   5.118  2.4425  2.6948  0.0463
   59SAPC  H20S 4514   5.442   4.568   5.162 -0.1685 -0.8808  0.9015
   59SAPC  H20T 4515   5.563   4.554   5.294  1.0195 -1.2844 -0.6473
   59SAPC   C33 4516   5.188   4.769   6.884 -0.5206 -0.3319 -0.4076
   59SAPC   H3X 4517   5.214   4.664   6.909 -2.1864 -0.9901 -1.2376
   59SAPC   H3Y 4518   5.255   4.836   6.942  0.3135 -1.5733  0.1018
   59SAPC   C34 4519   5.235   4.783   6.734  0.4453 -0.3148 -0.5528
   59SAPC   H4X 4520   5.345   4.781   6.747  0.3643  1.4007  0.6898
   59SAPC   H4Y 4521   5.193   4.873   6.683 -2.6384 -1.8676 -1.0254
   59SAPC   C35 4522   5.204   4.654   6.658  0.1818  0.1683  0.1523
   59SAPC   H5X 4523   5.098   4.652   6.625  1.0110 -0.9345 -2.7475
   59SAPC   H5Y 4524   5.226   4.562   6.716 -0.0679  0.1098  0.1573
   59SAPC   C36 4525   5.288   4.637   6.526  0.8214  0.2929  0.0745
   59SAPC   H6X 4526   5.396   4.637   6.552  1.6297  1.0824 -2.8910
   59SAPC   H6Y 4527   5.275   4.723   6.457  2.5083 -0.2019 -0.9086
   59SAPC   C37 4528   5.264   4.515   6.438  0.6297  0.0375 -0.2302
   59SAPC   H7X 4529   5.160   4.477   6.452 -0.9172  2.0613 -4.5857
   59SAPC   H7Y 4530   5.331   4.434   6.475 -0.9079 -1.0649  0.2788
   59SAPC   C38 4531   5.295   4.534   6.289 -0.3513 -0.0020 -0.0940
   59SAPC   H8X 4532   5.405   4.550   6.280 -0.0587 -1.0418  1.3342
   59SAPC   H8Y 4533   5.244   4.629   6.265 -0.0586  0.7274  1.9996
   59SAPC   C39 4534   5.262   4.411   6.199 -0.1216  0.3903 -0.3064
   59SAPC   H9X 4535   5.151   4.415   6.199 -0.1448  0.0783  0.4907
   59SAPC   H9Y 4536   5.282   4.310   6.242  1.8568  0.6250 -0.6040
   59SAPC  C310 4537   5.337   4.411   6.069 -0.8183 -0.3736  0.1123
   59SAPC  H10X 4538   5.447   4.417   6.082 -0.6924  4.3455 -1.3466
   59SAPC  H10Y 4539   5.300   4.492   6.002 -3.3281 -0.2733  1.5033
   59SAPC  C311 4540   5.311   4.280   5.993 -0.4973  0.1265  0.8630
   59SAPC  H11X 4541   5.202   4.258   5.985 -0.7549  0.6679  2.4998
   59SAPC  H11Y 4542   5.368   4.205   6.051  2.0650  0.8335 -0.6120
   59SAPC  C312 4543   5.374   4.287   5.853  0.8519  0.2049  0.2901
   59SAPC  H12X 4544   5.391   4.182   5.823 -0.8562  0.0418 -0.2216
   59SAPC  H12Y 4545   5.474   4.335   5.858  0.1244  1.8365  0.1459
   59SAPC  C313 4546   5.288   4.368   5.751 -0.2831 -0.0298 -0.0121
   59SAPC  H13X 4547   5.276   4.474   5.783 -0.8871  0.8291 -2.8006
   59SAPC  H13Y 4548   5.185   4.325   5.750  0.3009 -1.5782  1.6690
   59SAPC  C314 4549   5.339   4.360   5.608 -0.3526  0.7197 -0.3405
   59SAPC  H14X 4550   5.434   4.417   5.599  1.6812 -2.5545 -1.0938
   59SAPC  H14Y 4551   5.265   4.407   5.540  0.2434  1.3000 -0.5989
   59SAPC  C315 4552   5.349   4.222   5.541  0.2345 -0.5270 -0.2982
   59SAPC  H15X 4553   5.252   4.169   5.550  0.5905 -1.1597 -0.1162
   59SAPC  H15Y 4554   5.418   4.149   5.587 -0.1358 -1.8162 -1.6842
   59SAPC  C316 4555   5.377   4.229   5.390  0.2166 -0.1698  0.3859
   59SAPC  H16X 4556   5.449   4.306   5.357 -1.2077 -0.5247 -4.3664
   59SAPC  H16Y 4557   5.293   4.260   5.324  0.2189 -0.2181  0.3595
   59SAPC  C317 4558   5.434   4.095   5.332 -0.1626  0.3988 -0.3681
   59SAPC  H17X 4559   5.385   4.003   5.370  0.1928  1.0628  1.8538
   59SAPC  H17Y 4560   5.539   4.085   5.367 -0.7353 -0.7999  1.1326
   59SAPC  C318 4561   5.431   4.094   5.181 -0.8389  0.2762 -0.6545
   59SAPC  H18X 4562   5.324   4.089   5.152 -1.1914  0.8838  0.5062
   59SAPC  H18Y 4563   5.470   3.995   5.149 -2.7255 -1.5533  2.2616
   59SAPC  H18Z 4564   5.477   4.182   5.132 -2.0321  1.8153  0.8982
   60SAPC     N 4565   1.067   1.335   7.182 -0.2436  0.5429  0.2546
   60SAPC   C12 4566   1.011   1.461   7.119 -0.8016 -0.3401  0.4462
   60SAPC  H12A 4567   1.095   1.505   7.067 -0.4632 -0.8323  0.5667
   60SAPC  H12B 4568   0.977   1.526   7.199 -3.6237  1.9318 -2.3369
   60SAPC   C13 4569   1.105   1.250   7.060 -0.1328 -0.1904  0.1543
   60SAPC  H13A 4570   1.178   1.311   7.010  0.6677 -0.9979  0.3096
   60SAPC  H13B 4571   1.146   1.156   7.093 -2.4574 -0.9037  1.2550
   60SAPC  H13C 4572   1.024   1.229   6.993  0.8073 -1.4227 -0.6420
   60SAPC   C14 4573   1.182   1.361   7.271  0.0198  0.0146  0.0342
   60SAPC  H14A 4574   1.226   1.268   7.305  1.9578  1.3984  1.5258
   60SAPC  H14B 4575   1.259   1.427   7.235 -0.4254  1.2456  1.2771
   60SAPC  H14C 4576   1.158   1.416   7.360  0.8036 -0.8503  0.8018
   60SAPC   C15 4577   0.964   1.254   7.253 -0.2415  0.2664  0.4308
   60SAPC  H15A 4578   0.886   1.233   7.180  0.3694  0.9485 -0.4379
   60SAPC  H15B 4579   0.999   1.158   7.287 -1.9957 -0.2034  1.0199
   60SAPC  H15C 4580   0.921   1.296   7.343 -0.5411 -0.6715  0.7375
   60SAPC   C11 4581   0.888   1.448   7.036  0.8463 -0.2316  0.1759
   60SAPC  H11A 4582   0.861   1.342   7.020 -1.7557  0.3432  0.3170
   60SAPC  H11B 4583   0.910   1.493   6.937  0.8800 -1.4093 -0.3680
   60SAPC     P 4584   0.762   1.669   7.107  0.0283  0.2311 -0.1295
   60SAPC   O13 4585   0.626   1.709   7.149 -0.1806  0.0135  0.1457
   60SAPC   O14 4586   0.872   1.721   7.194  0.3849 -0.0229 -0.5471
   60SAPC   O12 4587   0.774   1.511   7.102  0.8241 -0.0927 -0.0697
   60SAPC   O11 4588   0.788   1.713   6.958 -0.2007 -0.0548 -0.4925
   60SAPC    C1 4589   0.684   1.762   6.874 -0.2286 -0.2799 -0.2568
   60SAPC    HA 4590   0.588   1.787   6.924 -0.4120  0.1331 -0.8064
   60SAPC    HB 4591   0.726   1.854   6.830 -1.9511  0.2316 -0.9351
   60SAPC    C2 4592   0.653   1.681   6.754  0.4359  0.3178  0.2115
   60SAPC    HS 4593   0.748   1.646   6.709  0.1849 -0.8410  0.5451
   60SAPC   O21 4594   0.569   1.765   6.664 -0.0235  0.0859  0.0960
   60SAPC   C21 4595   0.610   1.758   6.534  0.4260  0.6905 -0.3369
   60SAPC   O22 4596   0.668   1.664   6.485 -0.8215  0.3215  0.6739
   60SAPC   C22 4597   0.567   1.880   6.458  0.4245  0.8387 -0.0474
   60SAPC   H2R 4598   0.472   1.919   6.502  0.4107 -0.0878  0.7811
   60SAPC   H2S 4599   0.648   1.956   6.460  0.4201  0.8347  1.9456
   60SAPC    C3 4600   0.577   1.558   6.799  0.3810 -0.4399 -0.1781
   60SAPC    HX 4601   0.495   1.595   6.865  0.0180 -0.5670 -0.5495
   60SAPC    HY 4602   0.631   1.495   6.872  0.8911 -0.6427 -0.7289
   60SAPC   O31 4603   0.528   1.473   6.698 -0.7207 -0.7580 -0.3618
   60SAPC   C31 4604   0.621   1.390   6.648 -0.2674  0.4710  0.9374
   60SAPC   O32 4605   0.731   1.368   6.688 -0.3659 -0.0258 -0.3772
   60SAPC   C32 4606   0.552   1.324   6.523 -0.4212  0.5844 -0.0038
   60SAPC   H2X 4607   0.494   1.400   6.466  0.6222 -0.5870 -2.7890
   60SAPC   H2Y 4608   0.497   1.234   6.557  1.1547  0.7187  3.3136
   60SAPC   C23 4609   0.534   1.840   6.313  0.5275  0.0490  0.3376
   60SAPC   H3R 4610   0.455   1.910   6.280 -1.9350 -2.8393 -0.3359
   60SAPC   H3S 4611   0.482   1.742   6.323 -1.5257  0.9791 -0.6671
   60SAPC   C24 4612   0.646   1.828   6.209  0.2024 -0.2632  0.3293
   60SAPC   H4R 4613   0.609   1.788   6.113  1.8307  0.0657 -0.4669
   60SAPC   H4S 4614   0.725   1.764   6.252  0.5379 -0.7954 -1.0316
   60SAPC   C25 4615   0.685   1.976   6.181  0.2236  0.4220 -0.1432
   60SAPC   H5R 4616   0.686   2.047   6.265  0.6595 -1.3824  1.4609
   60SAPC   C26 4617   0.728   2.011   6.056  0.0700 -0.3316  0.5828
   60SAPC   H6R 4618   0.752   2.117   6.038 -0.7220 -0.4940 -1.7121
   60SAPC   C27 4619   0.734   1.922   5.933 -0.0357 -1.0386  0.0085
   60SAPC   H7R 4620   0.713   1.814   5.949  1.0528 -1.1378  0.8852
   60SAPC   H7S 4621   0.835   1.929   5.887  0.4788  0.3950  1.2615
   60SAPC   C28 4622   0.635   1.960   5.830  0.1123 -0.3904 -0.2411
   60SAPC   H8R 4623   0.540   2.002   5.868 -0.4444 -1.6202 -0.2357
   60SAPC   C29 4624   0.648   1.948   5.697 -0.1874  0.0903  0.2263
   60SAPC   H9R 4625   0.570   1.971   5.624  1.2431  0.7495 -1.1579
   60SAPC  C210 4626   0.755   1.866   5.625 -0.0629  0.5648  0.1439
   60SAPC  H10R 4627   0.714   1.771   5.585  1.0395  0.2492 -0.2773
   60SAPC  H10S 4628   0.816   1.820   5.706  1.1150  0.2705 -0.8707
   60SAPC  C211 4629   0.846   1.951   5.545  0.5608 -0.6519  0.1951
   60SAPC  H11R 4630   0.913   2.016   5.603 -0.6670 -2.3887  3.8174
   60SAPC  C212 4631   0.859   1.937   5.415 -0.6194  0.6328  0.3898
   60SAPC  H12R 4632   0.921   2.007   5.357  0.9768  0.3848  1.7155
   60SAPC  C213 4633   0.799   1.837   5.327  0.2701  0.7478  0.0432
   60SAPC  H13R 4634   0.708   1.884   5.284 -0.1036 -0.0269 -0.0400
   60SAPC  H13S 4635   0.762   1.757   5.395 -0.1075  0.4883 -0.4590
   60SAPC  C214 4636   0.883   1.790   5.208  0.8254 -0.2020  0.0167
   60SAPC  H14R 4637   0.974   1.729   5.226  1.1906  0.7107  1.3932
   60SAPC  C215 4638   0.849   1.812   5.079 -0.2229  0.6533 -0.2680
   60SAPC  H15R 4639   0.904   1.752   5.005 -0.5382  2.4740 -2.0419
   60SAPC  C216 4640   0.729   1.887   5.027 -0.1512  0.2437 -0.4777
   60SAPC  H16R 4641   0.753   1.927   4.926  0.7052 -0.3021 -0.5056
   60SAPC  H16S 4642   0.692   1.963   5.099 -0.7328  1.1008 -1.6521
   60SAPC  C217 4643   0.609   1.786   5.020  0.1189  0.1279 -0.2563
   60SAPC  H17R 4644   0.518   1.847   5.001 -1.2792 -1.0114  2.2752
   60SAPC  H17S 4645   0.599   1.742   5.122 -0.2461  1.0837  0.1310
   60SAPC  C218 4646   0.627   1.671   4.914  0.5680 -1.2657  0.1691
   60SAPC  H18R 4647   0.704   1.602   4.954 -0.1561 -0.9519  2.2124
   60SAPC  H18S 4648   0.661   1.714   4.817  0.0608 -0.9467  0.1283
   60SAPC  C219 4649   0.488   1.612   4.875  0.6050  0.3446  0.4058
   60SAPC  H19R 4650   0.520   1.526   4.812 -2.4149  0.2033 -1.1155
   60SAPC  H19S 4651   0.440   1.692   4.816  3.0071  0.8722 -0.9377
   60SAPC  C220 4652   0.405   1.570   4.998 -0.1339 -0.1572 -0.2399
   60SAPC  H20R 4653   0.470   1.526   5.076  0.3052  1.9860  0.6802
   60SAPC  H20S 4654   0.331   1.497   4.958  0.6645 -0.2714 -1.5793
   60SAPC  H20T 4655   0.365   1.659   5.051  0.1593 -0.4114  0.4104
   60SAPC   C33 4656   0.658   1.278   6.416 -0.2779  0.2605 -0.1508
   60SAPC   H3X 4657   0.735   1.229   6.480  1.2473  2.3697 -0.2932
   60SAPC   H3Y 4658   0.704   1.365   6.364  0.3654  1.5423  2.3918
   60SAPC   C34 4659   0.590   1.183   6.316 -0.4615 -0.0007  0.0451
   60SAPC   H4X 4660   0.543   1.245   6.237  0.7409 -0.4783 -1.0809
   60SAPC   H4Y 4661   0.513   1.112   6.354 -2.1379  0.2318 -2.6815
   60SAPC   C35 4662   0.683   1.076   6.245 -0.1042  0.0432 -0.6831
   60SAPC   H5X 4663   0.740   1.025   6.325 -0.1713 -0.7939 -1.1540
   60SAPC   H5Y 4664   0.751   1.134   6.178  0.8307  0.9074  0.9596
   60SAPC   C36 4665   0.613   0.967   6.172  0.0960  0.1147  0.4694
   60SAPC   H6X 4666   0.529   0.923   6.229 -1.0529  3.0472  1.2170
   60SAPC   H6Y 4667   0.684   0.883   6.159  1.4324  1.1436  0.8527
   60SAPC   C37 4668   0.559   1.012   6.040  0.7404  0.8258 -0.7621
   60SAPC   H7X 4669   0.506   1.109   6.047 -1.4640 -0.4268  2.9209
   60SAPC   H7Y 4670   0.470   0.945   6.034 -0.8835  2.4747  2.2368
   60SAPC   C38 4671   0.644   0.986   5.918 -0.7569  0.7346  0.2039
   60SAPC   H8X 4672   0.666   0.877   5.919  0.5430  0.7484 -4.4412
   60SAPC   H8Y 4673   0.738   1.045   5.919  0.2428 -0.6248 -2.9349
   60SAPC   C39 4674   0.568   1.008   5.783  0.0257  0.3799  0.2553
   60SAPC   H9X 4675   0.552   1.118   5.781  1.4079  0.5898 -0.1412
   60SAPC   H9Y 4676   0.469   0.960   5.793 -1.4103  1.4306 -5.3517
   60SAPC  C310 4677   0.638   0.965   5.647  0.1062  0.7063  0.3547
   60SAPC  H10X 4678   0.659   0.857   5.658  1.2685  0.9286  0.4179
   60SAPC  H10Y 4679   0.740   1.009   5.647  1.5840 -2.4969  0.0157
   60SAPC  C311 4680   0.559   0.997   5.526 -0.8484  0.0529  0.0172
   60SAPC  H11X 4681   0.520   1.101   5.526 -2.1792 -0.4211  0.5309
   60SAPC  H11Y 4682   0.468   0.935   5.515 -1.6433  1.1722  0.1484
   60SAPC  C312 4683   0.649   0.979   5.402  0.2340 -0.4918  0.0401
   60SAPC  H12X 4684   0.739   1.044   5.402  0.4242 -0.6114 -3.0465
   60SAPC  H12Y 4685   0.588   1.030   5.325  0.1598  0.2340  0.5684
   60SAPC  C313 4686   0.681   0.830   5.364 -0.5053  0.0867 -0.1145
   60SAPC  H13X 4687   0.581   0.793   5.332 -1.4406  1.5245  0.9914
   60SAPC  H13Y 4688   0.710   0.777   5.457 -0.2570 -0.8594 -0.7253
   60SAPC  C314 4689   0.791   0.807   5.252  0.2236 -0.0546  0.7313
   60SAPC  H14X 4690   0.869   0.733   5.283  1.4081  0.8974  0.1131
   60SAPC  H14Y 4691   0.841   0.903   5.228  0.2586 -0.1408  0.4456
   60SAPC  C315 4692   0.725   0.756   5.123  0.1974 -0.0739  0.0950
   60SAPC  H15X 4693   0.676   0.841   5.072 -1.1200  0.0110  1.4354
   60SAPC  H15Y 4694   0.646   0.684   5.156 -1.4978  2.1650  1.1638
   60SAPC  C316 4695   0.816   0.692   5.015 -0.2321  0.0157 -0.1692
   60SAPC  H16X 4696   0.762   0.665   4.922  1.4372 -0.6538 -0.9909
   60SAPC  H16Y 4697   0.855   0.595   5.053 -0.4844 -0.0262 -0.0169
   60SAPC  C317 4698   0.937   0.772   4.961 -0.2209  0.7996  0.7671
   60SAPC  H17X 4699   0.968   0.726   4.865  1.6509  0.0559  1.6891
   60SAPC  H17Y 4700   1.026   0.766   5.028  0.8382  1.0929 -0.5700
   60SAPC  C318 4701   0.912   0.918   4.929  0.0332 -0.9196  0.5431
   60SAPC  H18X 4702   0.990   0.977   4.878  0.6367 -2.5383 -0.4930
   60SAPC  H18Y 4703   0.890   0.966   5.027  0.0445 -0.1544  0.1800
   60SAPC  H18Z 4704   0.821   0.927   4.866  0.6923  0.1551 -0.2760
   61SAPC     N 4705   3.060   2.825   7.634 -0.4679  0.6921 -0.2791
   61SAPC   C12 4706   3.130   2.828   7.497  0.1678 -0.3136 -0.6803
   61SAPC  H12A 4707   3.230   2.791   7.512  0.7953  2.0149  1.6084
   61SAPC  H12B 4708   3.151   2.933   7.479  1.3809 -0.6159 -1.0775
   61SAPC   C13 4709   3.133   2.911   7.734 -0.1942 -0.4455  0.1861
   61SAPC  H13A 4710   3.143   3.011   7.695 -2.3655  1.4221  3.8257
   61SAPC  H13B 4711   3.083   2.928   7.828  0.8650 -0.5107  0.7778
   61SAPC  H13C 4712   3.235   2.879   7.746 -0.8048 -2.8597 -0.4185
   61SAPC   C14 4713   2.917   2.871   7.619 -0.4772  0.4164 -0.5129
   61SAPC  H14A 4714   2.904   2.967   7.571 -1.9580  0.6717  0.3272
   61SAPC  H14B 4715   2.868   2.794   7.562 -0.7853 -0.0970  0.4208
   61SAPC  H14C 4716   2.873   2.877   7.718 -0.2377 -0.8589 -0.3146
   61SAPC   C15 4717   3.058   2.678   7.685 -0.1302 -0.6549 -0.7237
   61SAPC  H15A 4718   3.013   2.619   7.607 -1.9899 -0.2571 -0.0213
   61SAPC  H15B 4719   3.150   2.624   7.699 -0.5736 -1.0807  0.8241
   61SAPC  H15C 4720   3.006   2.663   7.779 -1.7310  0.2934 -1.4146
   61SAPC   C11 4721   3.068   2.769   7.366  0.3556  0.1709  0.1907
   61SAPC  H11A 4722   3.132   2.794   7.278 -0.9856 -1.6577 -1.4144
   61SAPC  H11B 4723   2.975   2.824   7.344  0.4543  0.4756  0.5448
   61SAPC     P 4724   3.166   2.517   7.348  0.2134 -0.4780 -0.1121
   61SAPC   O13 4725   3.296   2.573   7.381 -0.4234 -0.3522 -0.6535
   61SAPC   O14 4726   3.126   2.383   7.400  0.0862 -0.2581 -0.0145
   61SAPC   O12 4727   3.042   2.622   7.371  0.0798 -0.6491 -0.1898
   61SAPC   O11 4728   3.167   2.513   7.191  0.5163  0.4011 -0.0662
   61SAPC    C1 4729   3.183   2.398   7.108  0.2321  0.2769 -0.4471
   61SAPC    HA 4730   3.213   2.312   7.171  1.0237  1.7553  1.2905
   61SAPC    HB 4731   3.090   2.377   7.051 -1.2549  4.0723  0.2659
   61SAPC    C2 4732   3.281   2.420   6.983 -0.0249  1.3318  0.8397
   61SAPC    HS 4733   3.388   2.420   7.012 -0.5980 -0.0150  3.2656
   61SAPC   O21 4734   3.234   2.531   6.911  0.1035 -0.4079  0.7719
   61SAPC   C21 4735   3.296   2.641   6.924 -0.1589 -0.2402  0.0247
   61SAPC   O22 4736   3.401   2.656   6.994  0.4153 -0.0239 -0.0665
   61SAPC   C22 4737   3.225   2.751   6.837 -0.1715 -0.0354  0.8323
   61SAPC   H2R 4738   3.198   2.700   6.742 -1.1617  1.3526  0.3399
   61SAPC   H2S 4739   3.134   2.780   6.894 -1.1757 -3.5744  1.2460
   61SAPC    C3 4740   3.276   2.296   6.890 -0.0501 -0.8168 -0.7206
   61SAPC    HX 4741   3.172   2.277   6.855 -0.6189 -2.0094  1.4126
   61SAPC    HY 4742   3.315   2.218   6.959 -3.3645 -0.0773  2.3531
   61SAPC   O31 4743   3.356   2.315   6.773 -0.5438 -0.7813  0.2041
   61SAPC   C31 4744   3.491   2.304   6.793  1.0064 -1.4188 -0.4034
   61SAPC   O32 4745   3.538   2.268   6.902 -0.4854  0.3297  0.8978
   61SAPC   C32 4746   3.573   2.349   6.673 -0.4722 -0.2570  0.6757
   61SAPC   H2X 4747   3.663   2.284   6.663 -1.2603 -1.7390  2.5199
   61SAPC   H2Y 4748   3.610   2.450   6.698  1.3510 -0.8035  0.3512
   61SAPC   C23 4749   3.308   2.878   6.797  0.8230 -0.1632  0.8818
   61SAPC   H3R 4750   3.332   2.944   6.883  1.1424 -0.0142  0.6801
   61SAPC   H3S 4751   3.222   2.924   6.744  0.2338 -1.1034  0.9884
   61SAPC   C24 4752   3.415   2.849   6.695  0.5430  0.7829  0.7442
   61SAPC   H4R 4753   3.380   2.801   6.602  1.8455 -2.9538  1.9877
   61SAPC   H4S 4754   3.482   2.772   6.738  0.0093 -0.3872 -0.4665
   61SAPC   C25 4755   3.489   2.973   6.661 -0.0742  0.3053  0.7743
   61SAPC   H5R 4756   3.551   3.029   6.733  0.2186  0.6688  0.2474
   61SAPC   C26 4757   3.495   3.030   6.540 -0.1920 -0.6877  0.1654
   61SAPC   H6R 4758   3.561   3.117   6.534 -1.5140  0.3340  0.0614
   61SAPC   C27 4759   3.427   2.987   6.412 -0.3403  0.2491 -0.3048
   61SAPC   H7R 4760   3.365   3.073   6.378 -5.1250 -1.4960  3.0076
   61SAPC   H7S 4761   3.356   2.904   6.428  2.1904 -2.7298 -3.0279
   61SAPC   C28 4762   3.519   2.923   6.310 -0.2849  0.4877  0.2029
   61SAPC   H8R 4763   3.604   2.862   6.343  0.4827  1.6366  0.4266
   61SAPC   C29 4764   3.534   2.961   6.182  0.7988  0.3280  0.1186
   61SAPC   H9R 4765   3.605   2.917   6.110 -0.2035 -0.7800 -0.2155
   61SAPC  C210 4766   3.447   3.058   6.118 -0.7582  0.2413 -0.3652
   61SAPC  H10R 4767   3.512   3.142   6.082 -0.9947  0.3935 -0.4409
   61SAPC  H10S 4768   3.385   3.116   6.190  1.5656  0.0144  1.9579
   61SAPC  C211 4769   3.363   2.994   6.012 -0.3842 -0.2441  0.2755
   61SAPC  H11R 4770   3.287   2.921   6.043 -1.5127  0.7353 -0.1309
   61SAPC  C212 4771   3.382   3.000   5.881  0.3393 -0.1189  0.4993
   61SAPC  H12R 4772   3.308   2.942   5.825 -0.8502 -0.5511  2.4431
   61SAPC  C213 4773   3.485   3.076   5.806  0.0827  0.4366  0.3317
   61SAPC  H13R 4774   3.589   3.054   5.841 -0.2708  0.4130  1.4007
   61SAPC  H13S 4775   3.476   3.185   5.826  1.2447  0.8671 -1.2624
   61SAPC  C214 4776   3.469   3.046   5.659  1.0324 -0.3111  0.7377
   61SAPC  H14R 4777   3.495   2.948   5.617 -1.8531 -0.2136 -1.5462
   61SAPC  C215 4778   3.416   3.129   5.562 -0.3345  0.3798  0.2616
   61SAPC  H15R 4779   3.390   3.091   5.462 -0.6795  1.1784  0.0368
   61SAPC  C216 4780   3.383   3.270   5.578 -0.0274 -0.3952 -0.2285
   61SAPC  H16R 4781   3.440   3.321   5.658  0.3565 -0.1916 -0.6332
   61SAPC  H16S 4782   3.277   3.267   5.611  0.1543  2.2056  0.8093
   61SAPC  C217 4783   3.398   3.362   5.459  0.0251 -0.7498  0.1587
   61SAPC  H17R 4784   3.354   3.317   5.367  0.4155 -2.2941  0.6975
   61SAPC  H17S 4785   3.505   3.379   5.438 -0.0323 -1.5518 -0.8907
   61SAPC  C218 4786   3.354   3.510   5.496 -0.3563 -0.0493  0.3807
   61SAPC  H18R 4787   3.429   3.558   5.561  0.1265 -0.8895  0.4591
   61SAPC  H18S 4788   3.266   3.504   5.564 -1.0732 -0.2289 -0.5400
   61SAPC  C219 4789   3.316   3.597   5.378  0.4477 -0.1011  0.7968
   61SAPC  H19R 4790   3.232   3.553   5.318  0.8111  2.7696 -2.1244
   61SAPC  H19S 4791   3.406   3.597   5.314 -0.3870 -1.3654 -0.4418
   61SAPC  C220 4792   3.279   3.742   5.412 -0.4603  0.4420 -0.2822
   61SAPC  H20R 4793   3.363   3.789   5.467 -1.1740  0.7170  0.5920
   61SAPC  H20S 4794   3.183   3.756   5.465  0.7735 -0.6558  2.4389
   61SAPC  H20T 4795   3.276   3.806   5.321 -0.9408  0.6259 -0.1383
   61SAPC   C33 4796   3.488   2.350   6.545  0.9381  0.8881  0.0918
   61SAPC   H3X 4797   3.408   2.274   6.543 -1.3063  3.1121  0.2064
   61SAPC   H3Y 4798   3.548   2.330   6.453  0.6434  3.3093 -0.7001
   61SAPC   C34 4799   3.407   2.474   6.532 -0.3015 -0.0414  0.2393
   61SAPC   H4X 4800   3.483   2.553   6.514  0.5354 -0.7605  0.5377
   61SAPC   H4Y 4801   3.343   2.485   6.622 -1.3125  1.5221 -0.6368
   61SAPC   C35 4802   3.307   2.464   6.411 -1.4177 -0.3539  0.3520
   61SAPC   H5X 4803   3.245   2.376   6.435 -1.2708 -0.6480 -0.3124
   61SAPC   H5Y 4804   3.361   2.464   6.314  1.7192 -0.3993  1.9816
   61SAPC   C36 4805   3.216   2.590   6.402  0.9407  0.0862 -0.2697
   61SAPC   H6X 4806   3.276   2.683   6.407 -0.1935  0.8710 -0.9216
   61SAPC   H6Y 4807   3.149   2.594   6.491  0.0086  1.3003 -1.0066
   61SAPC   C37 4808   3.138   2.592   6.277 -0.6785  0.8160 -0.2570
   61SAPC   H7X 4809   3.214   2.584   6.196 -0.2554 -0.0367  0.2093
   61SAPC   H7Y 4810   3.090   2.690   6.256 -2.7500  0.0355  0.6458
   61SAPC   C38 4811   3.042   2.468   6.257 -0.1432 -0.0928 -0.2849
   61SAPC   H8X 4812   2.959   2.505   6.192 -0.7496 -2.0066 -0.6654
   61SAPC   H8Y 4813   2.989   2.455   6.354  0.7385 -1.4791  0.0374
   61SAPC   C39 4814   3.106   2.336   6.204 -0.2221 -0.0521  0.4729
   61SAPC   H9X 4815   3.028   2.257   6.193 -0.0570 -0.3781  1.5703
   61SAPC   H9Y 4816   3.181   2.289   6.270  1.3351 -2.1411 -2.5936
   61SAPC  C310 4817   3.160   2.352   6.059  0.1604  0.3613  0.3794
   61SAPC  H10X 4818   3.248   2.419   6.072  0.6407 -0.5921  2.3436
   61SAPC  H10Y 4819   3.079   2.408   6.007 -0.2571 -0.0426  0.5832
   61SAPC  C311 4820   3.195   2.224   5.983 -0.9103  0.4190  0.4769
   61SAPC  H11X 4821   3.104   2.161   5.979 -1.7903  1.5914  1.4829
   61SAPC  H11Y 4822   3.275   2.177   6.045 -3.5141 -1.0270  2.9684
   61SAPC  C312 4823   3.268   2.245   5.842 -0.2707  0.2495 -0.1311
   61SAPC  H12X 4824   3.321   2.154   5.806  2.0893  2.9374 -4.3186
   61SAPC  H12Y 4825   3.350   2.319   5.847  1.1475 -1.0077 -2.6660
   61SAPC  C313 4826   3.158   2.282   5.734  0.4112  0.5855 -0.3156
   61SAPC  H13X 4827   3.094   2.365   5.772 -2.1765 -0.7998 -1.3749
   61SAPC  H13Y 4828   3.081   2.202   5.724 -1.1544  1.7068  1.8607
   61SAPC  C314 4829   3.206   2.312   5.588 -0.0552  0.6798 -0.2421
   61SAPC  H14X 4830   3.245   2.221   5.538 -0.5538  0.1381  0.3412
   61SAPC  H14Y 4831   3.284   2.390   5.577 -1.1013  1.7532 -0.2472
   61SAPC  C315 4832   3.086   2.358   5.505  0.2002 -0.5261 -0.0368
   61SAPC  H15X 4833   3.042   2.450   5.550  2.7637  0.3103  0.9532
   61SAPC  H15Y 4834   3.011   2.276   5.506  1.3450 -1.6285  2.0837
   61SAPC  C316 4835   3.120   2.398   5.360  0.2892  1.1945  0.1663
   61SAPC  H16X 4836   3.191   2.333   5.305  0.3749  1.9893 -0.6839
   61SAPC  H16Y 4837   3.169   2.497   5.359  0.3981  1.2539 -3.7357
   61SAPC  C317 4838   2.988   2.413   5.280 -0.0767 -0.3793  1.0781
   61SAPC  H17X 4839   2.916   2.479   5.332 -0.2318  1.1243 -0.9018
   61SAPC  H17Y 4840   2.935   2.316   5.284  1.0983 -1.2012 -1.2416
   61SAPC  C318 4841   3.003   2.463   5.133  0.0484 -0.2296  0.2639
   61SAPC  H18X 4842   2.910   2.498   5.082  0.2253 -1.1779 -0.7533
   61SAPC  H18Y 4843   3.048   2.383   5.070 -0.1578 -2.6751  3.0660
   61SAPC  H18Z 4844   3.072   2.550   5.125  0.5692 -0.6779 -0.1881
   62SAPC     N 4845   4.943   1.662   7.218  0.5787  0.2989  0.2014
   62SAPC   C12 4846   4.995   1.795   7.268 -0.1684 -0.3226 -0.4271
   62SAPC  H12A 4847   5.102   1.806   7.254 -0.1880  2.2890  0.8500
   62SAPC  H12B 4848   4.978   1.791   7.375 -1.3427  0.0246 -0.5851
   62SAPC   C13 4849   4.941   1.652   7.064 -0.1188 -0.2678 -0.1886
   62SAPC  H13A 4850   5.042   1.662   7.028  0.4137  1.6302  1.6010
   62SAPC  H13B 4851   4.889   1.569   7.019 -0.9069 -0.7792  1.5480
   62SAPC  H13C 4852   4.885   1.737   7.028 -0.4367 -0.6934 -0.7034
   62SAPC   C14 4853   5.027   1.548   7.269  0.1139  0.3975 -0.6751
   62SAPC  H14A 4854   5.025   1.529   7.375 -0.4530 -0.9860 -0.9033
   62SAPC  H14B 4855   4.991   1.459   7.218 -0.1252  0.4112 -0.5352
   62SAPC  H14C 4856   5.132   1.555   7.247  0.3092 -0.9259 -0.2836
   62SAPC   C15 4857   4.808   1.640   7.262  0.8760 -0.0129 -0.8983
   62SAPC  H15A 4858   4.801   1.618   7.368 -1.5303 -0.8677 -1.1808
   62SAPC  H15B 4859   4.743   1.722   7.238  0.1182 -0.5645 -0.7699
   62SAPC  H15C 4860   4.765   1.557   7.209  1.5809 -0.5213 -0.6881
   62SAPC   C11 4861   4.916   1.920   7.230  0.0357 -0.8981  0.0006
   62SAPC  H11A 4862   4.952   2.008   7.289  1.0939  0.1125 -2.0526
   62SAPC  H11B 4863   4.812   1.912   7.269 -0.5051 -1.4829 -1.5171
   62SAPC     P 4864   5.018   2.038   7.025 -0.6163 -0.0255  0.0762
   62SAPC   O13 4865   4.998   2.166   7.097 -0.4001 -0.3736  0.4610
   62SAPC   O14 4866   5.154   1.971   7.041  0.2654 -0.4889 -0.0565
   62SAPC   O12 4867   4.910   1.944   7.087 -0.0359  0.0612  0.1364
   62SAPC   O11 4868   4.978   2.052   6.870  0.7823 -0.3814  0.4651
   62SAPC    C1 4869   4.845   2.088   6.829  0.8018 -0.7867  0.4280
   62SAPC    HA 4870   4.772   2.005   6.821  1.5064 -1.3299 -0.6079
   62SAPC    HB 4871   4.801   2.164   6.898  2.6612  1.6177 -0.8715
   62SAPC    C2 4872   4.841   2.160   6.695  0.0876 -0.0198 -0.0504
   62SAPC    HS 4873   4.736   2.187   6.667  0.1795 -0.1437 -0.5352
   62SAPC   O21 4874   4.897   2.077   6.589  0.0544  0.1375 -0.7069
   62SAPC   C21 4875   4.808   1.981   6.556 -0.2656  0.0365  0.3345
   62SAPC   O22 4876   4.695   1.970   6.589  0.2929 -0.0267 -0.3875
   62SAPC   C22 4877   4.875   1.898   6.438 -0.3074  0.1105 -0.1977
   62SAPC   H2R 4878   4.978   1.876   6.472  0.2653  0.7296 -1.4918
   62SAPC   H2S 4879   4.819   1.802   6.437  0.3247 -0.2616 -0.2971
   62SAPC    C3 4880   4.913   2.291   6.697 -0.1020  0.5391  0.4633
   62SAPC    HX 4881   5.022   2.277   6.713 -0.4362 -2.8595  0.6081
   62SAPC    HY 4882   4.872   2.355   6.777 -1.1224 -1.6678  1.7951
   62SAPC   O31 4883   4.885   2.348   6.563  0.1883 -0.1822 -0.1775
   62SAPC   C31 4884   4.952   2.467   6.547  0.3157 -0.2323 -0.3646
   62SAPC   O32 4885   5.013   2.525   6.641  0.4696 -0.0804 -0.2361
   62SAPC   C32 4886   4.943   2.522   6.410  0.5252 -0.4678  0.1113
   62SAPC   H2X 4887   4.981   2.627   6.414  0.9869 -0.6550  0.7470
   62SAPC   H2Y 4888   4.836   2.513   6.384  0.3699 -2.5229  1.2791
   62SAPC   C23 4889   4.885   1.971   6.298  0.4011  0.0813 -1.0354
   62SAPC   H3R 4890   4.961   2.052   6.299  0.2162  0.2476 -0.5544
   62SAPC   H3S 4891   4.785   2.009   6.270 -0.2499 -1.6959 -1.2482
   62SAPC   C24 4892   4.925   1.864   6.197  0.1262 -0.0105  0.2055
   62SAPC   H4R 4893   4.929   1.922   6.102 -0.8190  0.5294  0.4788
   62SAPC   H4S 4894   4.836   1.798   6.203 -0.6080  0.9557  0.1841
   62SAPC   C25 4895   5.059   1.801   6.216  0.4212 -0.6398 -0.3661
   62SAPC   H5R 4896   5.100   1.813   6.318  2.8363  0.6745 -1.4118
   62SAPC   C26 4897   5.134   1.753   6.121  0.1142 -0.6326  0.1085
   62SAPC   H6R 4898   5.231   1.708   6.148 -1.0383 -4.1432 -0.9983
   62SAPC   C27 4899   5.106   1.725   5.974  0.1754  0.6632  0.2725
   62SAPC   H7R 4900   5.188   1.661   5.935  0.7103  2.5637 -1.8834
   62SAPC   H7S 4901   5.110   1.828   5.933  1.0467  0.8759  0.8612
   62SAPC   C28 4902   4.982   1.644   5.947  0.4501 -0.0308 -0.7490
   62SAPC   H8R 4903   4.944   1.583   6.030 -0.2839  2.3408  0.7647
   62SAPC   C29 4904   4.896   1.656   5.847  0.2454  0.6035  0.1467
   62SAPC   H9R 4905   4.824   1.573   5.847  3.3366 -2.3137 -2.0115
   62SAPC  C210 4906   4.903   1.729   5.710  0.2218 -0.5268  0.1248
   62SAPC  H10R 4907   4.910   1.834   5.743 -0.9773 -0.2058 -0.5762
   62SAPC  H10S 4908   4.814   1.723   5.644  0.4985  1.6484 -0.5239
   62SAPC  C211 4909   5.025   1.694   5.633  0.0181 -0.2747 -0.3371
   62SAPC  H11R 4910   5.107   1.645   5.687 -0.1353 -0.0029  0.1491
   62SAPC  C212 4911   5.044   1.719   5.503  0.3986 -0.1145  0.3776
   62SAPC  H12R 4912   5.146   1.696   5.466  0.6330  0.5603  0.5895
   62SAPC  C213 4913   4.945   1.775   5.406  0.1431  0.0611  0.2173
   62SAPC  H13R 4914   4.997   1.794   5.310 -1.9220  0.8320 -0.8050
   62SAPC  H13S 4915   4.896   1.865   5.450  0.8180 -0.1417  1.4490
   62SAPC  C214 4916   4.831   1.688   5.369 -0.7170  0.0236  0.1815
   62SAPC  H14R 4917   4.791   1.634   5.456 -0.9203 -1.3695 -0.7526
   62SAPC  C215 4918   4.779   1.661   5.244  0.2446  0.3264  0.3880
   62SAPC  H15R 4919   4.694   1.593   5.235  1.3947 -1.3207  1.3760
   62SAPC  C216 4920   4.820   1.730   5.119 -0.2490  0.2354  0.1084
   62SAPC  H16R 4921   4.838   1.836   5.143  2.1680  0.5997 -2.7435
   62SAPC  H16S 4922   4.727   1.738   5.059  0.5406  0.3779 -1.1445
   62SAPC  C217 4923   4.930   1.657   5.028  0.3274  0.1055 -0.9254
   62SAPC  H17R 4924   4.909   1.548   5.023  0.4693 -0.0336  0.9496
   62SAPC  H17S 4925   5.023   1.681   5.084 -0.8798 -1.2143  1.8207
   62SAPC  C218 4926   4.942   1.711   4.886  0.0791 -0.7358  0.3019
   62SAPC  H18R 4927   5.044   1.694   4.847 -0.4291  1.0980 -2.0511
   62SAPC  H18S 4928   4.936   1.822   4.895  1.0254 -0.4833 -1.7027
   62SAPC  C219 4929   4.850   1.655   4.776  0.1162 -0.3663  0.1151
   62SAPC  H19R 4930   4.754   1.703   4.807 -1.0891 -1.5006 -1.6549
   62SAPC  H19S 4931   4.842   1.544   4.773  2.1449 -0.5377 -0.4891
   62SAPC  C220 4932   4.890   1.706   4.639 -1.0528 -0.6083  0.6930
   62SAPC  H20R 4933   4.816   1.666   4.565 -1.4794 -0.6473  1.1324
   62SAPC  H20S 4934   4.993   1.669   4.622 -0.1232  1.8149  0.7611
   62SAPC  H20T 4935   4.897   1.815   4.623 -1.1883 -0.3937  1.9873
   62SAPC   C33 4936   5.028   2.441   6.312 -0.8020 -0.1599 -0.0466
   62SAPC   H3X 4937   5.007   2.334   6.333  1.0743 -0.9958 -2.0204
   62SAPC   H3Y 4938   5.136   2.455   6.336 -0.2187 -1.4335 -1.7025
   62SAPC   C34 4939   5.002   2.463   6.169  0.3347 -0.3115  0.3477
   62SAPC   H4X 4940   5.032   2.567   6.146 -0.7388  0.3931  1.9527
   62SAPC   H4Y 4941   4.895   2.471   6.141 -0.0652 -1.9881  1.2587
   62SAPC   C35 4942   5.063   2.361   6.072  0.1943 -0.0921 -0.0951
   62SAPC   H5X 4943   5.020   2.261   6.095 -1.6386  0.6813 -0.0241
   62SAPC   H5Y 4944   5.174   2.360   6.081  0.3214  0.6069 -1.4087
   62SAPC   C36 4945   5.021   2.399   5.927  0.5535  0.2809  0.1320
   62SAPC   H6X 4946   5.089   2.483   5.899  0.9673 -0.4309 -1.0708
   62SAPC   H6Y 4947   4.915   2.428   5.915 -0.3741 -3.2283 -1.2823
   62SAPC   C37 4948   5.047   2.276   5.845  0.1019  0.0874  0.9234
   62SAPC   H7X 4949   5.011   2.183   5.894  4.0318 -2.5346 -0.6396
   62SAPC   H7Y 4950   5.153   2.246   5.832  0.3365  1.0953  0.4198
   62SAPC   C38 4951   5.009   2.292   5.698  0.4099  0.2187  0.8834
   62SAPC   H8X 4952   4.902   2.322   5.696  0.3670  0.0643 -1.8436
   62SAPC   H8Y 4953   5.013   2.192   5.649 -2.2617  0.3123  0.3589
   62SAPC   C39 4954   5.091   2.398   5.621  0.3101  0.8445 -0.1699
   62SAPC   H9X 4955   5.197   2.365   5.617  0.3014  0.8471 -0.4766
   62SAPC   H9Y 4956   5.085   2.499   5.666  2.1425  2.5808 -3.4707
   62SAPC  C310 4957   5.044   2.409   5.475 -0.0482  0.4129 -0.3344
   62SAPC  H10X 4958   4.944   2.453   5.460 -1.5650 -2.5588  0.2806
   62SAPC  H10Y 4959   5.025   2.307   5.434 -0.6914  0.5831 -0.4616
   62SAPC  C311 4960   5.143   2.473   5.377  0.0481  0.1411  0.3930
   62SAPC  H11X 4961   5.251   2.455   5.397  0.8816  4.0487  0.4076
   62SAPC  H11Y 4962   5.139   2.583   5.396 -1.1520 -0.2007  2.3711
   62SAPC  C312 4963   5.110   2.457   5.226 -0.2617  1.0412 -0.5588
   62SAPC  H12X 4964   5.114   2.352   5.190 -0.0069 -0.3494  3.0973
   62SAPC  H12Y 4965   5.191   2.514   5.177  0.0354  1.5931  0.5289
   62SAPC  C313 4966   4.971   2.509   5.189  0.2707 -0.0843  1.0819
   62SAPC  H13X 4967   4.959   2.615   5.221 -1.0117 -0.4676  1.9280
   62SAPC  H13Y 4968   4.894   2.452   5.245 -0.5013  0.4000  0.5171
   62SAPC  C314 4969   4.939   2.519   5.038  0.0074  0.5926 -0.6747
   62SAPC  H14X 4970   4.942   2.422   4.986  0.7555  0.0594  0.3292
   62SAPC  H14Y 4971   5.024   2.568   4.986  1.3642 -0.5787  0.3659
   62SAPC  C315 4972   4.812   2.598   5.009  0.0359 -0.4273  0.4044
   62SAPC  H15X 4973   4.812   2.685   5.078 -2.0846 -2.5228  3.2935
   62SAPC  H15Y 4974   4.718   2.546   5.036 -1.1432  0.9751 -0.8082
   62SAPC  C316 4975   4.800   2.640   4.867  0.3814 -0.0073 -0.0997
   62SAPC  H16X 4976   4.890   2.703   4.849 -1.4497  2.2364 -1.9570
   62SAPC  H16Y 4977   4.709   2.703   4.864 -0.3399 -1.0623 -2.2576
   62SAPC  C317 4978   4.804   2.530   4.764 -0.1106  0.0011  0.4603
   62SAPC  H17X 4979   4.755   2.437   4.800  1.1780 -0.1032  2.0315
   62SAPC  H17Y 4980   4.911   2.499   4.768 -0.5657 -1.8482 -0.5037
   62SAPC  C318 4981   4.747   2.564   4.628 -0.2532 -0.6646 -0.2917
   62SAPC  H18X 4982   4.808   2.641   4.577  0.6464 -1.1432  0.0254
   62SAPC  H18Y 4983   4.642   2.598   4.630 -0.1555 -0.3886  0.5688
   62SAPC  H18Z 4984   4.752   2.470   4.569 -0.0719 -1.6377  1.1921
   63SAPC     N 4985   0.629   3.724   7.602  0.5202  0.0279 -0.3562
   63SAPC   C12 4986   0.634   3.813   7.479  0.6996  0.1764  0.0842
   63SAPC  H12A 4987   0.636   3.916   7.514  0.0236  0.4063 -0.5421
   63SAPC  H12B 4988   0.548   3.798   7.416  0.5248  2.7627 -0.4076
   63SAPC   C13 4989   0.516   3.767   7.686  0.2376 -0.7063  0.4628
   63SAPC  H13A 4990   0.494   3.689   7.758  1.1556  0.1605  1.7232
   63SAPC  H13B 4991   0.542   3.860   7.734 -1.2973  0.4687 -0.8821
   63SAPC  H13C 4992   0.428   3.792   7.628 -0.0662  0.3310  1.3406
   63SAPC   C14 4993   0.611   3.578   7.574 -0.0071 -0.1114  0.2521
   63SAPC  H14A 4994   0.519   3.574   7.518  1.7912 -1.0068 -2.9003
   63SAPC  H14B 4995   0.682   3.535   7.505 -0.7070 -0.2270 -0.4050
   63SAPC  H14C 4996   0.604   3.509   7.657  0.1824 -0.3703  0.0553
   63SAPC   C15 4997   0.759   3.738   7.685  0.3480 -0.0690  0.5039
   63SAPC  H15A 4998   0.834   3.740   7.607 -0.0706  0.5187  0.1092
   63SAPC  H15B 4999   0.754   3.826   7.747  0.6584  0.5916 -0.3853
   63SAPC  H15C 5000   0.775   3.655   7.752  1.9149 -0.3040 -0.1128
   63SAPC   C11 5001   0.762   3.795   7.388 -0.4737  0.0336 -0.5625
   63SAPC  H11A 5002   0.743   3.840   7.288  0.0031  0.8564 -0.2948
   63SAPC  H11B 5003   0.774   3.685   7.371  1.9240  0.3584 -1.4480
   63SAPC     P 5004   0.926   3.992   7.403  0.0153 -0.0158  0.4626
   63SAPC   O13 5005   0.815   4.070   7.339  0.3391  0.7589 -0.1528
   63SAPC   O14 5006   0.991   4.062   7.514 -0.5477  0.3964 -0.0533
   63SAPC   O12 5007   0.881   3.850   7.448  0.8734  0.2313  0.4274
   63SAPC   O11 5008   1.030   3.947   7.287  0.3696 -0.0537  0.3054
   63SAPC    C1 5009   1.089   3.819   7.278  0.1231  0.0339 -1.0696
   63SAPC    HA 5010   1.188   3.818   7.328 -0.8649  0.9059  1.0621
   63SAPC    HB 5011   1.012   3.747   7.313 -1.6404  2.2028 -0.2084
   63SAPC    C2 5012   1.109   3.784   7.125 -0.6206 -0.8140  0.7178
   63SAPC    HS 5013   1.131   3.676   7.113  1.3360 -0.3204 -0.6152
   63SAPC   O21 5014   1.215   3.867   7.073  0.4116  0.2508 -0.6325
   63SAPC   C21 5015   1.335   3.819   7.086 -0.3362 -0.3033  0.5270
   63SAPC   O22 5016   1.357   3.721   7.155 -0.3985 -0.1447 -0.0987
   63SAPC   C22 5017   1.436   3.892   6.996  0.1845  0.1285  0.0564
   63SAPC   H2R 5018   1.425   3.999   7.023 -0.4617 -0.5695  2.8320
   63SAPC   H2S 5019   1.539   3.855   7.017  0.3463 -0.0955 -1.0740
   63SAPC    C3 5020   0.980   3.807   7.041  0.3690 -0.0815 -0.1780
   63SAPC    HX 5021   0.930   3.905   7.056 -1.6319 -0.9302 -0.9320
   63SAPC    HY 5022   0.909   3.728   7.075  1.2185 -1.6821 -1.9454
   63SAPC   O31 5023   0.987   3.772   6.899 -0.3271 -0.4113  0.2711
   63SAPC   C31 5024   1.015   3.872   6.815  0.3614 -0.2695 -0.1278
   63SAPC   O32 5025   1.035   3.990   6.850 -0.0053  0.8291 -0.2593
   63SAPC   C32 5026   1.013   3.819   6.674  0.3258  0.1526 -0.3440
   63SAPC   H2X 5027   0.924   3.868   6.628 -0.8682  1.5025  3.0744
   63SAPC   H2Y 5028   0.980   3.713   6.676  0.0020  0.1722  3.8234
   63SAPC   C23 5029   1.391   3.887   6.840 -0.1865 -0.7827 -0.2633
   63SAPC   H3R 5030   1.290   3.934   6.836 -0.5413 -1.2841  1.6599
   63SAPC   H3S 5031   1.378   3.789   6.791 -1.7645 -0.4587 -0.5522
   63SAPC   C24 5032   1.497   3.968   6.764 -0.3998  0.4078  0.4363
   63SAPC   H4R 5033   1.496   3.940   6.656 -1.7088  2.1661 -0.0629
   63SAPC   H4S 5034   1.596   3.944   6.807  1.1234  1.7997 -2.0651
   63SAPC   C25 5035   1.498   4.117   6.772 -0.7683 -0.2678 -0.5971
   63SAPC   H5R 5036   1.553   4.155   6.860 -0.4010  0.7567 -1.2591
   63SAPC   C26 5037   1.437   4.203   6.689 -0.4552 -0.3249 -0.1331
   63SAPC   H6R 5038   1.468   4.305   6.716  2.5377 -1.3639  0.7487
   63SAPC   C27 5039   1.359   4.188   6.568  0.2825  0.0982  0.7517
   63SAPC   H7R 5040   1.261   4.142   6.591 -0.1790  1.1715  0.9523
   63SAPC   H7S 5041   1.405   4.107   6.507  0.6678  0.8244  0.0562
   63SAPC   C28 5042   1.334   4.305   6.482 -0.0734  0.1697 -0.3431
   63SAPC   H8R 5043   1.276   4.389   6.524 -1.0711 -0.9585  0.6283
   63SAPC   C29 5044   1.364   4.317   6.350 -0.9054 -1.2628 -0.4408
   63SAPC   H9R 5045   1.345   4.418   6.310 -0.8608 -0.9953  0.1954
   63SAPC  C210 5046   1.425   4.222   6.251 -0.4434  0.3374  0.4713
   63SAPC  H10R 5047   1.347   4.212   6.172 -1.2596 -0.9206  1.4112
   63SAPC  H10S 5048   1.442   4.122   6.296 -1.4389  0.6116  1.4992
   63SAPC  C211 5049   1.560   4.261   6.209 -0.4289 -0.8071  0.2268
   63SAPC  H11R 5050   1.622   4.294   6.294  0.6513  0.1921 -0.9033
   63SAPC  C212 5051   1.605   4.277   6.079  0.3183  0.2134  0.2855
   63SAPC  H12R 5052   1.707   4.319   6.073  0.5357 -0.3416  0.0509
   63SAPC  C213 5053   1.526   4.239   5.956  0.5144 -0.1879  0.5823
   63SAPC  H13R 5054   1.423   4.202   5.979  0.4858 -0.7088 -0.3180
   63SAPC  H13S 5055   1.583   4.154   5.914  0.7945 -0.6657  1.8926
   63SAPC  C214 5056   1.526   4.348   5.853 -0.2646  0.1402  0.2939
   63SAPC  H14R 5057   1.561   4.449   5.882 -0.2516 -0.2275  1.5828
   63SAPC  C215 5058   1.478   4.344   5.725  0.0494 -0.4030  0.0719
   63SAPC  H15R 5059   1.480   4.436   5.664 -0.7593  0.3610  1.1601
   63SAPC  C216 5060   1.410   4.227   5.661  0.3802  0.1914 -0.0466
   63SAPC  H16R 5061   1.300   4.240   5.664  0.2124 -1.0484 -0.0771
   63SAPC  H16S 5062   1.446   4.135   5.712 -0.8443 -0.1210  0.2877
   63SAPC  C217 5063   1.440   4.207   5.519  0.0977  0.1262 -0.4638
   63SAPC  H17R 5064   1.542   4.162   5.513  0.2009  0.4537 -1.3580
   63SAPC  H17S 5065   1.428   4.301   5.460  0.9960  0.9838  0.6680
   63SAPC  C218 5066   1.348   4.114   5.450  0.8713 -0.2049  0.0503
   63SAPC  H18R 5067   1.337   4.024   5.514  0.3329  0.7141  1.3060
   63SAPC  H18S 5068   1.391   4.084   5.352  1.9513  0.8716  0.1795
   63SAPC  C219 5069   1.211   4.170   5.428 -0.3945 -0.3183  0.4631
   63SAPC  H19R 5070   1.215   4.268   5.376  0.6539  0.1652  1.3911
   63SAPC  H19S 5071   1.148   4.188   5.518 -0.4092  0.6402  0.2681
   63SAPC  C220 5072   1.108   4.100   5.336  0.2748  0.0304  1.0370
   63SAPC  H20R 5073   1.005   4.137   5.355 -0.9093 -3.1537  1.2673
   63SAPC  H20S 5074   1.100   3.994   5.367 -2.6720  0.3269  1.5267
   63SAPC  H20T 5075   1.143   4.116   5.231  0.3548  0.1951  1.0876
   63SAPC   C33 5076   1.126   3.846   6.579 -0.3747 -0.0668  0.4310
   63SAPC   H3X 5077   1.213   3.778   6.594  1.9271  2.7179  0.5319
   63SAPC   H3Y 5078   1.163   3.950   6.586 -2.8232  1.0142 -1.5194
   63SAPC   C34 5079   1.081   3.843   6.434  0.1120 -0.6492 -0.1403
   63SAPC   H4X 5080   1.002   3.920   6.422  0.8668  0.0694 -0.5516
   63SAPC   H4Y 5081   1.032   3.745   6.416 -0.2944 -0.4928  0.1126
   63SAPC   C35 5082   1.192   3.867   6.331 -0.0369  0.5515 -0.3156
   63SAPC   H5X 5083   1.272   3.792   6.351  0.2050  1.1264  0.9413
   63SAPC   H5Y 5084   1.222   3.974   6.336  0.6615  0.3408  0.1640
   63SAPC   C36 5085   1.144   3.849   6.180 -0.3938 -0.1955  0.4913
   63SAPC   H6X 5086   1.041   3.888   6.172  0.3476  1.7979 -0.0345
   63SAPC   H6Y 5087   1.144   3.744   6.143  0.0900 -0.5998  1.5996
   63SAPC   C37 5088   1.228   3.943   6.087  0.6909  0.0926 -0.5894
   63SAPC   H7X 5089   1.331   3.901   6.094 -0.3661 -2.5689  0.3995
   63SAPC   H7Y 5090   1.239   4.044   6.132  2.2498  0.2616 -1.2665
   63SAPC   C38 5091   1.187   3.959   5.943  0.5509  0.9967  0.1746
   63SAPC   H8X 5092   1.247   4.042   5.899  2.5311  0.5869  1.9661
   63SAPC   H8Y 5093   1.080   3.990   5.945  1.1233  3.1199  1.1003
   63SAPC   C39 5094   1.205   3.827   5.859  0.3997 -0.1602 -0.1478
   63SAPC   H9X 5095   1.125   3.750   5.864 -0.3738  0.7070  1.8450
   63SAPC   H9Y 5096   1.296   3.773   5.890  1.2275  0.6138 -1.1697
   63SAPC  C310 5097   1.225   3.857   5.709 -0.3024  0.3588 -0.2272
   63SAPC  H10X 5098   1.304   3.934   5.699  0.1971 -0.1783 -0.4363
   63SAPC  H10Y 5099   1.138   3.914   5.668  0.3446  1.6019  0.0928
   63SAPC  C311 5100   1.249   3.734   5.630  0.2232  0.7213  0.1061
   63SAPC  H11X 5101   1.166   3.660   5.635  1.1749 -0.3503  0.2187
   63SAPC  H11Y 5102   1.334   3.674   5.666  0.9371  0.9890 -1.0764
   63SAPC  C312 5103   1.273   3.764   5.471 -0.0342  0.2641 -0.6218
   63SAPC  H12X 5104   1.375   3.807   5.461  2.2049 -3.6109  2.5468
   63SAPC  H12Y 5105   1.203   3.842   5.434  1.4264  2.5176  1.0181
   63SAPC  C313 5106   1.262   3.632   5.396 -0.4391 -0.4434 -0.4501
   63SAPC  H13X 5107   1.165   3.581   5.411 -1.1467  1.0120  0.0415
   63SAPC  H13Y 5108   1.334   3.559   5.439 -0.3721 -0.6771 -0.9499
   63SAPC  C314 5109   1.286   3.657   5.248 -0.2519 -0.6913  0.2389
   63SAPC  H14X 5110   1.363   3.737   5.242 -2.2771  1.2597 -2.5420
   63SAPC  H14Y 5111   1.189   3.697   5.211 -0.6628  0.1147  2.0913
   63SAPC  C315 5112   1.340   3.541   5.172  0.3811  1.3834  0.1983
   63SAPC  H15X 5113   1.282   3.458   5.218 -0.5828  3.1990  2.4510
   63SAPC  H15Y 5114   1.442   3.514   5.205  0.8134 -0.8406 -2.5263
   63SAPC  C316 5115   1.323   3.539   5.022  0.1139  0.8958 -0.4407
   63SAPC  H16X 5116   1.412   3.595   4.985  1.6329  0.1677  1.9154
   63SAPC  H16Y 5117   1.225   3.579   4.986 -0.4412 -1.0826 -1.2262
   63SAPC  C317 5118   1.320   3.400   4.956  0.2861  0.2722  0.2648
   63SAPC  H17X 5119   1.315   3.408   4.846 -0.9767  1.3666  0.3797
   63SAPC  H17Y 5120   1.229   3.344   4.988  0.8592 -0.6085  0.3938
   63SAPC  C318 5121   1.453   3.325   4.998  0.0835  0.4454  0.4056
   63SAPC  H18X 5122   1.441   3.297   5.105  2.6934 -2.6752  0.0358
   63SAPC  H18Y 5123   1.542   3.390   4.983 -0.1973  0.5324 -0.9399
   63SAPC  H18Z 5124   1.471   3.229   4.946  2.1796  1.1479 -0.2625
   64SAPC     N 5125   0.088   4.122   7.452  0.2911  0.6393 -0.1320
   64SAPC   C12 5126   0.162   4.006   7.527  0.0293 -0.4057 -0.7338
   64SAPC  H12A 5127   0.104   3.969   7.610 -1.5143  1.4319 -0.9062
   64SAPC  H12B 5128   0.248   4.047   7.577  0.5605  0.6384 -2.4201
   64SAPC   C13 5129   0.179   4.172   7.343 -0.5491 -0.0284  0.8191
   64SAPC  H13A 5130   0.277   4.200   7.379  0.4382 -0.5265 -1.3671
   64SAPC  H13B 5131   0.204   4.093   7.274  0.9432  1.1844 -0.0871
   64SAPC  H13C 5132   0.143   4.265   7.301  4.0257  1.6816  0.0917
   64SAPC   C14 5133  -0.041   4.075   7.396 -0.2928 -0.1688 -0.3849
   64SAPC  H14A 5134  -0.101   4.038   7.478 -0.6421  1.0809 -0.0621
   64SAPC  H14B 5135  -0.093   4.151   7.340 -0.4834 -1.4468 -2.0285
   64SAPC  H14C 5136  -0.011   3.992   7.333 -0.1750  0.1858 -0.7992
   64SAPC   C15 5137   0.063   4.230   7.550 -1.3332 -0.1961 -0.2107
   64SAPC  H15A 5138  -0.028   4.215   7.606 -2.1395  1.3566 -1.0316
   64SAPC  H15B 5139   0.141   4.231   7.625 -0.6891  2.5224 -0.7889
   64SAPC  H15C 5140   0.058   4.332   7.516  1.5700  0.9343  2.2623
   64SAPC   C11 5141   0.205   3.876   7.456  0.3829  0.1436  0.7753
   64SAPC  H11A 5142   0.212   3.803   7.539 -1.4085 -0.9544  0.0228
   64SAPC  H11B 5143   0.301   3.887   7.402  0.3206 -0.6601  0.4991
   64SAPC     P 5144   0.141   3.766   7.230 -0.2729 -0.0018 -0.3791
   64SAPC   O13 5145   0.206   3.870   7.144  0.1098  0.5051  0.3758
   64SAPC   O14 5146   0.212   3.638   7.241 -0.5959 -0.2545  0.0503
   64SAPC   O12 5147   0.097   3.832   7.371  0.1480 -0.1526 -0.1033
   64SAPC   O11 5148   0.004   3.731   7.162 -0.0840 -0.2614 -0.1719
   64SAPC    C1 5149  -0.086   3.823   7.093 -0.7534  0.2625 -0.1755
   64SAPC    HA 5150  -0.179   3.849   7.148 -0.2542  2.5782 -0.3366
   64SAPC    HB 5151  -0.026   3.914   7.073  0.9838 -1.1077 -1.5003
   64SAPC    C2 5152  -0.130   3.759   6.956  0.3264 -0.2991  0.1209
   64SAPC    HS 5153  -0.198   3.674   6.977 -0.0219  0.2769  1.4953
   64SAPC   O21 5154  -0.012   3.731   6.875  0.3181 -0.2768 -0.4854
   64SAPC   C21 5155  -0.018   3.612   6.813  0.3865 -0.2264 -0.4420
   64SAPC   O22 5156  -0.115   3.535   6.810  0.6280  0.0464  0.4400
   64SAPC   C22 5157   0.118   3.592   6.748 -0.0181  0.2834  0.2344
   64SAPC   H2R 5158   0.181   3.683   6.765 -1.2069  1.1115  0.3119
   64SAPC   H2S 5159   0.151   3.504   6.808 -0.4786 -0.5127 -0.6648
   64SAPC    C3 5160  -0.204   3.870   6.870  0.7939 -0.6171 -0.6838
   64SAPC    HX 5161  -0.131   3.953   6.876  1.5954 -1.4085  1.0824
   64SAPC    HY 5162  -0.294   3.900   6.928 -1.4948 -5.9142 -0.8972
   64SAPC   O31 5163  -0.253   3.835   6.736 -0.2624  0.0579  0.2278
   64SAPC   C31 5164  -0.358   3.758   6.738  0.2720  1.0299 -0.1746
   64SAPC   O32 5165  -0.412   3.708   6.837  0.1255  0.1533  0.1084
   64SAPC   C32 5166  -0.410   3.730   6.590  0.6158  0.1369 -0.4014
   64SAPC   H2X 5167  -0.521   3.742   6.590  0.5301 -0.2094 -2.4008
   64SAPC   H2Y 5168  -0.396   3.623   6.566  1.4913  0.0443  0.4778
   64SAPC   C23 5169   0.103   3.545   6.606 -0.3345 -0.1066 -0.1788
   64SAPC   H3R 5170   0.079   3.437   6.599 -1.5169  0.1060  0.4179
   64SAPC   H3S 5171   0.206   3.551   6.562  0.6983 -0.7757  2.0242
   64SAPC   C24 5172   0.005   3.629   6.521 -0.2163  0.0308 -0.0205
   64SAPC   H4R 5173  -0.096   3.597   6.554 -0.3527 -0.9907 -1.3667
   64SAPC   H4S 5174   0.012   3.604   6.414 -2.6300  0.5209 -0.3508
   64SAPC   C25 5175   0.020   3.783   6.542 -0.2720  0.5674  0.3582
   64SAPC   H5R 5176  -0.001   3.816   6.645  1.1384 -1.9308  1.5446
   64SAPC   C26 5177   0.057   3.874   6.449 -0.1943  0.3551  0.7212
   64SAPC   H6R 5178   0.048   3.980   6.476 -0.4914  0.9309 -1.4435
   64SAPC   C27 5179   0.096   3.857   6.307 -0.6854  0.1611 -0.3087
   64SAPC   H7R 5180   0.124   3.952   6.257 -0.2113  0.2522  0.1096
   64SAPC   H7S 5181   0.002   3.830   6.254 -0.6023  1.1594 -0.9947
   64SAPC   C28 5182   0.199   3.749   6.278  0.7369  0.4964 -0.6841
   64SAPC   H8R 5183   0.239   3.697   6.366 -0.8739 -0.0436 -0.2417
   64SAPC   C29 5184   0.229   3.690   6.163 -0.6948  0.0563  1.0094
   64SAPC   H9R 5185   0.312   3.618   6.158 -2.0390 -1.4956  0.2685
   64SAPC  C210 5186   0.181   3.735   6.025 -0.4714  0.6137 -0.8353
   64SAPC  H10R 5187   0.094   3.804   6.032 -0.9565  0.1118 -1.8229
   64SAPC  H10S 5188   0.144   3.642   5.977 -1.0869  0.0018  0.7588
   64SAPC  C211 5189   0.289   3.801   5.950  0.1128 -0.1060 -0.5960
   64SAPC  H11R 5190   0.361   3.860   6.008  1.6106 -0.9478 -1.5390
   64SAPC  C212 5191   0.307   3.799   5.814  0.4419  0.7906  0.1552
   64SAPC  H12R 5192   0.375   3.869   5.763  2.4644 -1.7133 -0.8235
   64SAPC  C213 5193   0.225   3.713   5.714 -0.9686  0.2307 -0.5015
   64SAPC  H13R 5194   0.191   3.773   5.627 -0.9078 -0.4948 -1.0342
   64SAPC  H13S 5195   0.132   3.672   5.759 -3.1160  0.3914 -4.3496
   64SAPC  C214 5196   0.332   3.606   5.680  0.5714 -0.3521 -0.0809
   64SAPC  H14R 5197   0.360   3.537   5.762  0.6145 -0.4225 -0.1550
   64SAPC  C215 5198   0.402   3.608   5.565  0.7525 -0.4443 -0.2367
   64SAPC  H15R 5199   0.482   3.536   5.542  0.9120  0.4878 -3.0509
   64SAPC  C216 5200   0.399   3.702   5.450 -0.3329  0.0400  0.0578
   64SAPC  H16R 5201   0.495   3.757   5.454 -1.0281  1.7188 -3.0092
   64SAPC  H16S 5202   0.318   3.779   5.444  0.2052  0.4832 -2.9742
   64SAPC  C217 5203   0.394   3.628   5.319 -0.4112 -0.5826 -0.2857
   64SAPC  H17R 5204   0.354   3.694   5.239  1.4168 -2.0587 -2.5275
   64SAPC  H17S 5205   0.310   3.555   5.315 -1.3962  0.5507 -1.8351
   64SAPC  C218 5206   0.517   3.554   5.282 -0.7265  0.2336 -0.4832
   64SAPC  H18R 5207   0.515   3.458   5.338 -0.6522  0.5208  0.0169
   64SAPC  H18S 5208   0.608   3.616   5.297 -0.3657 -0.0562 -1.4208
   64SAPC  C219 5209   0.523   3.511   5.127  1.3142 -0.0186 -0.6799
   64SAPC  H19R 5210   0.541   3.590   5.052 -0.1310 -1.8463 -3.1016
   64SAPC  H19S 5211   0.419   3.475   5.109  0.6226  1.5001  0.0413
   64SAPC  C220 5212   0.634   3.411   5.107 -0.3833 -0.9373 -0.3721
   64SAPC  H20R 5213   0.595   3.322   5.054  1.6589 -1.1744 -1.5632
   64SAPC  H20S 5214   0.685   3.372   5.197 -0.9347 -0.9585 -0.0617
   64SAPC  H20T 5215   0.707   3.464   5.043 -0.7504 -0.4971 -0.4327
   64SAPC   C33 5216  -0.339   3.816   6.489  0.3575 -0.3306  0.1204
   64SAPC   H3X 5217  -0.229   3.806   6.487  0.6967  2.5747 -0.9249
   64SAPC   H3Y 5218  -0.341   3.926   6.506  2.2402 -0.2831  0.2049
   64SAPC   C34 5219  -0.397   3.812   6.343 -0.2924 -0.9011 -0.0042
   64SAPC   H4X 5220  -0.495   3.864   6.345  0.6297  0.9115  1.1258
   64SAPC   H4Y 5221  -0.419   3.713   6.299  0.6582 -0.5338 -1.3602
   64SAPC   C35 5222  -0.305   3.885   6.243 -0.0128 -0.6188 -0.4306
   64SAPC   H5X 5223  -0.201   3.846   6.240  0.3870 -0.1064  2.9542
   64SAPC   H5Y 5224  -0.306   3.993   6.269 -0.8723  0.1362 -3.2347
   64SAPC   C36 5225  -0.377   3.883   6.108 -0.2178  0.2953  0.7396
   64SAPC   H6X 5226  -0.482   3.901   6.139 -0.2567 -2.8748  2.9421
   64SAPC   H6Y 5227  -0.368   3.780   6.067 -0.1023  0.3075  0.7344
   64SAPC   C37 5228  -0.328   3.975   6.002 -0.1025  0.2833 -0.0980
   64SAPC   H7X 5229  -0.339   4.083   6.025  0.8004  0.9961 -2.6408
   64SAPC   H7Y 5230  -0.397   3.967   5.915 -2.1670  1.4425  1.3429
   64SAPC   C38 5231  -0.181   3.949   5.964  0.4451  1.1451  0.4545
   64SAPC   H8X 5232  -0.171   3.839   5.952  2.3819  0.9598  3.0291
   64SAPC   H8Y 5233  -0.116   3.984   6.048  0.0415  1.6836  0.5512
   64SAPC   C39 5234  -0.153   4.017   5.833 -0.4099 -0.3010  0.5942
   64SAPC   H9X 5235  -0.185   4.123   5.844  1.1390  0.2530 -0.0047
   64SAPC   H9Y 5236  -0.210   3.981   5.744 -0.3180 -1.3235  0.9374
   64SAPC  C310 5237  -0.007   4.018   5.792  0.3582  0.2106  0.3449
   64SAPC  H10X 5238   0.022   3.914   5.764  0.6986  0.6290 -0.9174
   64SAPC  H10Y 5239   0.057   4.059   5.873  1.6726 -0.3022 -0.4069
   64SAPC  C311 5240   0.023   4.089   5.659 -0.3973  0.6595  0.1061
   64SAPC  H11X 5241   0.132   4.079   5.637 -0.3054  3.3657 -1.0195
   64SAPC  H11Y 5242  -0.006   4.196   5.663  0.2398  0.8311  0.2593
   64SAPC  C312 5243  -0.060   4.020   5.545 -0.1196 -0.4127 -0.5165
   64SAPC  H12X 5244  -0.171   4.030   5.549 -0.1199 -0.7052  0.7047
   64SAPC  H12Y 5245  -0.039   3.911   5.554  2.3593  0.0259 -0.3407
   64SAPC  C313 5246  -0.007   4.048   5.390  0.2212 -0.0980 -0.2720
   64SAPC  H13X 5247   0.098   4.013   5.382  0.0441 -0.4359 -1.2883
   64SAPC  H13Y 5248   0.009   4.157   5.376  3.1343 -0.1128  1.9960
   64SAPC  C314 5249  -0.095   3.997   5.276 -0.4902  0.3106 -0.7415
   64SAPC  H14X 5250  -0.062   4.042   5.180 -0.5504  0.5640 -0.6414
   64SAPC  H14Y 5251  -0.201   4.024   5.298 -0.3087  0.6045 -0.2383
   64SAPC  C315 5252  -0.076   3.843   5.255  0.6569 -0.1667 -0.1991
   64SAPC  H15X 5253  -0.139   3.802   5.337 -0.1007 -0.8689 -1.1029
   64SAPC  H15Y 5254   0.032   3.825   5.272  0.7892  0.4358 -0.3801
   64SAPC  C316 5255  -0.132   3.778   5.123  0.2967  0.4312 -0.2219
   64SAPC  H16X 5256  -0.104   3.670   5.122  0.8648  0.4867  2.4789
   64SAPC  H16Y 5257  -0.083   3.829   5.037  0.2905 -0.6115 -0.8648
   64SAPC  C317 5258  -0.287   3.806   5.118 -0.9968 -0.2085  0.1282
   64SAPC  H17X 5259  -0.305   3.805   5.008 -2.6580  0.4442  0.3540
   64SAPC  H17Y 5260  -0.307   3.909   5.155 -1.6228  0.5193 -2.0673
   64SAPC  C318 5261  -0.369   3.709   5.200  0.1191  0.5382  0.0514
   64SAPC  H18X 5262  -0.344   3.605   5.169  2.1927  1.5021 -1.7355
   64SAPC  H18Y 5263  -0.474   3.727   5.167  0.0443  1.7305  0.8864
   64SAPC  H18Z 5264  -0.372   3.721   5.311  1.7559 -1.1337  0.3323
   65SAPC     N 5265   5.545   6.550   2.256  0.3272  0.3228  0.0053
   65SAPC   C12 5266   5.697   6.565   2.260 -0.9330  0.5893  0.2776
   65SAPC  H12A 5267   5.731   6.661   2.298 -0.0724 -0.1221  1.3616
   65SAPC  H12B 5268   5.730   6.569   2.157 -1.6399  0.0739  0.0295
   65SAPC   C13 5269   5.464   6.632   2.158 -0.6029 -1.1594  0.4162
   65SAPC  H13A 5270   5.481   6.736   2.182 -0.6332 -0.4357 -2.3411
   65SAPC  H13B 5271   5.502   6.617   2.057 -0.7241 -1.6507  0.4376
   65SAPC  H13C 5272   5.362   6.597   2.163 -0.1524 -2.3411  2.2346
   65SAPC   C14 5273   5.514   6.409   2.219 -0.1012  0.0986  0.3390
   65SAPC  H14A 5274   5.559   6.345   2.294 -1.0073  1.0357  1.7225
   65SAPC  H14B 5275   5.409   6.383   2.220 -1.4468  4.7324 -0.1965
   65SAPC  H14C 5276   5.542   6.388   2.116 -0.9381 -2.0248  0.4811
   65SAPC   C15 5277   5.493   6.576   2.394 -0.4316  0.1108  0.1058
   65SAPC  H15A 5278   5.392   6.545   2.415 -0.8023  0.3597 -1.2422
   65SAPC  H15B 5279   5.561   6.525   2.460 -0.9294  0.4167  0.8835
   65SAPC  H15C 5280   5.500   6.681   2.422 -1.0244  0.3832 -0.7372
   65SAPC   C11 5281   5.781   6.454   2.334  0.3872 -0.3004  0.5732
   65SAPC  H11A 5282   5.745   6.450   2.439  1.9973  3.3397  1.4100
   65SAPC  H11B 5283   5.885   6.489   2.347  0.4366 -0.7690  1.5613
   65SAPC     P 5284   5.851   6.205   2.344 -0.1107 -0.1408 -0.1923
   65SAPC   O13 5285   5.816   6.092   2.260  0.3681 -0.5973  0.1246
   65SAPC   O14 5286   5.991   6.223   2.377  0.2263  0.0016 -0.5326
   65SAPC   O12 5287   5.785   6.330   2.269 -0.8658  0.2764 -0.0417
   65SAPC   O11 5288   5.764   6.190   2.469 -0.0506 -0.1496 -1.1691
   65SAPC    C1 5289   5.820   6.147   2.594 -1.0343 -0.1909 -0.6737
   65SAPC    HA 5290   5.854   6.042   2.583 -2.4124 -0.6080 -1.1163
   65SAPC    HB 5291   5.907   6.212   2.620 -0.9991  0.5037 -2.3965
   65SAPC    C2 5292   5.723   6.163   2.717  0.1384  0.9090 -0.5713
   65SAPC    HS 5293   5.625   6.123   2.681 -0.5783  0.0957  2.0705
   65SAPC   O21 5294   5.717   6.295   2.766  0.2491 -0.0188  0.2648
   65SAPC   C21 5295   5.639   6.373   2.698  0.0003 -0.4379 -0.2602
   65SAPC   O22 5296   5.567   6.341   2.609 -0.1629  0.3850  0.3509
   65SAPC   C22 5297   5.645   6.516   2.750 -0.4236  0.3229  0.0967
   65SAPC   H2R 5298   5.722   6.513   2.830  1.4288 -4.5883 -1.4976
   65SAPC   H2S 5299   5.679   6.584   2.669  1.7029  0.6927  1.2304
   65SAPC    C3 5300   5.761   6.064   2.833  0.5984 -0.1328  0.5389
   65SAPC    HX 5301   5.856   6.102   2.875 -0.3357  0.4929  2.1955
   65SAPC    HY 5302   5.774   5.958   2.801  1.1309 -0.7559  2.6193
   65SAPC   O31 5303   5.652   6.075   2.933 -0.0266 -0.2109  0.1683
   65SAPC   C31 5304   5.695   6.036   3.051  0.3775  0.6316  0.1802
   65SAPC   O32 5305   5.808   6.014   3.085  0.0939 -0.4314 -0.0576
   65SAPC   C32 5306   5.572   6.001   3.137 -0.4173  0.0626 -0.6251
   65SAPC   H2X 5307   5.570   5.894   3.164  0.7738 -0.0867 -1.0557
   65SAPC   H2Y 5308   5.478   6.035   3.088 -0.6354  1.9282  0.9594
   65SAPC   C23 5309   5.508   6.546   2.816 -1.0658  0.2995 -0.4812
   65SAPC   H3R 5310   5.429   6.524   2.741 -0.5488 -0.3741 -0.8462
   65SAPC   H3S 5311   5.501   6.653   2.843 -4.3149 -0.1014  0.6136
   65SAPC   C24 5312   5.484   6.461   2.944 -0.1003 -0.8881 -0.3747
   65SAPC   H4R 5313   5.568   6.479   3.015 -0.9627 -1.7774  0.9378
   65SAPC   H4S 5314   5.480   6.353   2.917 -1.3053 -1.0602  0.4168
   65SAPC   C25 5315   5.351   6.488   3.021 -0.0540  0.6961  0.4930
   65SAPC   H5R 5316   5.268   6.429   2.979  1.3258  1.2045 -3.4056
   65SAPC   C26 5317   5.329   6.571   3.128  0.3960 -0.3752  0.0381
   65SAPC   H6R 5318   5.223   6.578   3.157 -0.2383  0.9071 -2.3677
   65SAPC   C27 5319   5.427   6.670   3.192  0.1328 -0.6341 -0.0030
   65SAPC   H7R 5320   5.499   6.711   3.118  1.0354  0.6225  1.5116
   65SAPC   H7S 5321   5.486   6.640   3.281  0.1813 -0.0224  0.1725
   65SAPC   C28 5322   5.349   6.795   3.229  0.6191 -0.6520  0.0648
   65SAPC   H8R 5323   5.330   6.869   3.151 -0.5843 -1.2228 -0.2132
   65SAPC   C29 5324   5.309   6.832   3.354 -0.2387  0.4277 -0.3853
   65SAPC   H9R 5325   5.253   6.927   3.365  2.9527  2.6482 -1.7774
   65SAPC  C210 5326   5.327   6.746   3.482 -0.4529 -0.3067  0.0615
   65SAPC  H10R 5327   5.340   6.640   3.450  3.2709 -0.4144  1.4576
   65SAPC  H10S 5328   5.233   6.747   3.540 -0.2836 -0.8776  0.3550
   65SAPC  C211 5329   5.450   6.789   3.562 -0.1049 -0.4797 -0.3760
   65SAPC  H11R 5330   5.543   6.787   3.504  0.8379 -0.8883  1.0967
   65SAPC  C212 5331   5.455   6.838   3.691  0.3154  0.0863  0.7505
   65SAPC  H12R 5332   5.556   6.865   3.724  0.1506  0.1605  1.2144
   65SAPC  C213 5333   5.343   6.864   3.793 -1.0575  0.9205 -0.2477
   65SAPC  H13R 5334   5.311   6.763   3.826 -0.3512  0.5368 -0.7044
   65SAPC  H13S 5335   5.259   6.913   3.738 -1.0969  0.7807 -0.3114
   65SAPC  C214 5336   5.387   6.956   3.909 -0.0683  0.3624 -0.0981
   65SAPC  H14R 5337   5.467   7.025   3.878 -1.1900  1.2894 -1.0505
   65SAPC  C215 5338   5.343   6.969   4.035 -0.6627  0.3870 -1.2280
   65SAPC  H15R 5339   5.393   7.044   4.098 -0.9040  0.5829 -1.2708
   65SAPC  C216 5340   5.236   6.882   4.099  0.2884 -0.9131  0.4687
   65SAPC  H16R 5341   5.210   6.794   4.037  1.1849 -0.2398 -0.9366
   65SAPC  H16S 5342   5.139   6.935   4.107 -0.4655 -1.5667 -2.7915
   65SAPC  C217 5343   5.260   6.831   4.239 -0.2036  0.1575  0.1694
   65SAPC  H17R 5344   5.353   6.771   4.230  0.3655  1.1646 -0.9572
   65SAPC  H17S 5345   5.176   6.765   4.269 -1.0070  0.4828 -1.2936
   65SAPC  C218 5346   5.287   6.941   4.350  0.4661 -0.2239  0.4070
   65SAPC  H18R 5347   5.184   6.980   4.369  0.7944  0.3408  1.0688
   65SAPC  H18S 5348   5.364   7.010   4.310  0.8159 -0.8725 -0.0372
   65SAPC  C219 5349   5.340   6.887   4.486 -0.1042 -0.4046  0.4135
   65SAPC  H19R 5350   5.442   6.842   4.484 -0.1672 -0.5616  0.7548
   65SAPC  H19S 5351   5.272   6.805   4.518 -2.3848  0.3620 -2.0545
   65SAPC  C220 5352   5.322   6.984   4.602 -0.2446 -0.0804 -0.1405
   65SAPC  H20R 5353   5.360   7.086   4.579 -0.0378  0.1022  0.9416
   65SAPC  H20S 5354   5.377   6.937   4.686 -1.1270 -0.0987  0.4370
   65SAPC  H20T 5355   5.214   6.987   4.628 -0.3703  0.9604 -0.7041
   65SAPC   C33 5356   5.589   6.082   3.272  0.1985  0.7719  0.5425
   65SAPC   H3X 5357   5.697   6.088   3.298  0.5309  1.7383 -0.9604
   65SAPC   H3Y 5358   5.518   6.027   3.338 -2.6678  2.0419 -1.2946
   65SAPC   C34 5359   5.527   6.224   3.250 -0.5148  0.9655  0.0164
   65SAPC   H4X 5360   5.431   6.202   3.199  0.8140 -1.8551 -1.4496
   65SAPC   H4Y 5361   5.592   6.289   3.188  0.9658 -0.6879 -0.2483
   65SAPC   C35 5362   5.474   6.279   3.379  0.7186  0.1271 -0.2086
   65SAPC   H5X 5363   5.398   6.203   3.410 -0.2992  0.9619 -0.5957
   65SAPC   H5Y 5364   5.411   6.368   3.361 -2.8723 -2.1109  0.1630
   65SAPC   C36 5365   5.570   6.312   3.501  0.6977  0.2451 -0.0298
   65SAPC   H6X 5366   5.655   6.373   3.464 -0.5655  1.4366 -1.0769
   65SAPC   H6Y 5367   5.611   6.215   3.535  1.8611  1.3179  1.7742
   65SAPC   C37 5368   5.497   6.384   3.611  0.2215  0.5884  0.2972
   65SAPC   H7X 5369   5.454   6.482   3.579  0.2181  0.1986 -0.9435
   65SAPC   H7Y 5370   5.574   6.401   3.689 -0.1579 -0.7131  0.9835
   65SAPC   C38 5371   5.383   6.298   3.664 -0.2712 -0.3265  0.1956
   65SAPC   H8X 5372   5.414   6.192   3.675 -2.3872 -0.8209  2.3118
   65SAPC   H8Y 5373   5.305   6.308   3.587  0.9790  1.0392 -0.9520
   65SAPC   C39 5374   5.337   6.335   3.802  0.3274  0.2322 -0.0509
   65SAPC   H9X 5375   5.423   6.314   3.870  0.3265  0.5755  0.0604
   65SAPC   H9Y 5376   5.253   6.272   3.838 -0.6994  1.5500 -0.0538
   65SAPC  C310 5377   5.284   6.473   3.829  0.0539 -0.3893  0.1743
   65SAPC  H10X 5378   5.192   6.497   3.771  0.5704 -2.3288 -1.5935
   65SAPC  H10Y 5379   5.359   6.550   3.803 -1.1779  1.0887  0.8597
   65SAPC  C311 5380   5.264   6.499   3.979  1.1360 -0.5929  0.4029
   65SAPC  H11X 5381   5.265   6.609   3.996 -0.4307 -0.4458 -0.3055
   65SAPC  H11Y 5382   5.351   6.455   4.034  3.8971  2.8976 -0.8247
   65SAPC  C312 5383   5.140   6.448   4.050  1.2677  0.0229 -0.1029
   65SAPC  H12X 5384   5.102   6.347   4.023  0.2395  0.1758  0.7211
   65SAPC  H12Y 5385   5.066   6.526   4.022  1.4570 -0.1920 -1.2364
   65SAPC  C313 5386   5.151   6.445   4.205 -0.2010 -0.8834  0.0663
   65SAPC  H13X 5387   5.174   6.546   4.244 -1.5994 -0.1536 -0.9347
   65SAPC  H13Y 5388   5.232   6.378   4.241 -0.6926 -0.5518  1.8735
   65SAPC  C314 5389   5.021   6.406   4.271  0.0378  0.6982 -0.0831
   65SAPC  H14X 5390   4.985   6.316   4.216 -0.0190  0.4872  0.2930
   65SAPC  H14Y 5391   4.948   6.488   4.254 -0.1262  0.6150  0.2108
   65SAPC  C315 5392   5.039   6.367   4.421  0.0389 -0.0344 -0.0105
   65SAPC  H15X 5393   4.989   6.439   4.489  0.2600 -0.7990  0.9963
   65SAPC  H15Y 5394   5.147   6.359   4.442  0.6547  2.6852 -1.6711
   65SAPC  C316 5395   4.978   6.231   4.454 -0.1899  0.3623  0.3646
   65SAPC  H16X 5396   5.034   6.168   4.381 -0.2127 -0.0629  0.7028
   65SAPC  H16Y 5397   4.868   6.225   4.438 -0.0494 -2.1018 -0.1572
   65SAPC  C317 5398   5.021   6.190   4.597 -0.5062 -0.2419 -0.1629
   65SAPC  H17X 5399   4.935   6.207   4.666 -2.2015  0.2912 -2.3107
   65SAPC  H17Y 5400   5.114   6.242   4.629  0.5247 -2.4005  0.5510
   65SAPC  C318 5401   5.056   6.042   4.602 -1.1311 -0.0619 -0.9994
   65SAPC  H18X 5402   4.973   5.991   4.548 -1.3417 -1.2132  0.3410
   65SAPC  H18Y 5403   5.071   5.999   4.703 -1.7238  0.0084 -0.8789
   65SAPC  H18Z 5404   5.150   6.031   4.544 -0.2499  0.3488  0.2986
   66SAPC     N 5405   0.726   2.333   2.367  0.1585 -0.2751  0.2431
   66SAPC   C12 5406   0.816   2.339   2.493 -0.2879  0.6345 -0.2396
   66SAPC  H12A 5407   0.795   2.430   2.548 -2.5595 -1.1922  2.1373
   66SAPC  H12B 5408   0.914   2.352   2.450 -1.2149  2.6517 -1.9254
   66SAPC   C13 5409   0.582   2.329   2.412  0.1908 -0.0199  0.8450
   66SAPC  H13A 5410   0.515   2.332   2.328  0.7434  2.8049  0.4262
   66SAPC  H13B 5411   0.563   2.236   2.465 -3.4091  0.1521  0.0912
   66SAPC  H13C 5412   0.559   2.421   2.464 -0.1170  1.8085 -2.3010
   66SAPC   C14 5413   0.756   2.449   2.276 -0.2171 -0.2856 -0.1074
   66SAPC  H14A 5414   0.724   2.545   2.312 -2.7730 -0.7641 -0.9213
   66SAPC  H14B 5415   0.860   2.471   2.257 -0.5538 -0.2892 -2.1423
   66SAPC  H14C 5416   0.708   2.436   2.181 -0.5887 -0.5992  0.1191
   66SAPC   C15 5417   0.755   2.202   2.291  0.5049 -0.2380  0.0216
   66SAPC  H15A 5418   0.710   2.193   2.193 -0.0261 -1.9343  0.3845
   66SAPC  H15B 5419   0.862   2.189   2.288  0.3875 -1.1612 -1.3675
   66SAPC  H15C 5420   0.714   2.120   2.347  0.3927  0.3025  0.7445
   66SAPC   C11 5421   0.808   2.219   2.592 -0.2819  0.9729 -0.5705
   66SAPC  H11A 5422   0.709   2.217   2.641  1.0542 -0.3101  2.3547
   66SAPC  H11B 5423   0.878   2.241   2.676 -0.5267 -0.0024 -0.0886
   66SAPC     P 5424   0.980   2.037   2.515  0.1773 -0.2364  0.0755
   66SAPC   O13 5425   0.973   1.894   2.475 -0.2964 -0.0788  0.7004
   66SAPC   O14 5426   1.052   2.131   2.423 -0.4022  0.9279  0.4106
   66SAPC   O12 5427   0.837   2.092   2.530  0.2388 -0.4720 -0.6860
   66SAPC   O11 5428   1.045   2.049   2.661  0.0794  0.0333 -0.8229
   66SAPC    C1 5429   1.066   1.924   2.731 -0.1488 -0.1857  0.2297
   66SAPC    HA 5430   1.101   1.840   2.668  1.6136  1.0242 -0.4666
   66SAPC    HB 5431   1.146   1.952   2.804 -0.2029  2.7004 -0.7139
   66SAPC    C2 5432   0.938   1.884   2.813  0.3242 -0.2702  0.9096
   66SAPC    HS 5433   0.850   1.885   2.744  1.2136  0.0569 -0.2641
   66SAPC   O21 5434   0.925   1.995   2.908 -0.1319  0.5937  0.5058
   66SAPC   C21 5435   0.804   2.016   2.954  0.5679 -0.0257 -0.2420
   66SAPC   O22 5436   0.705   1.975   2.898 -0.0966  0.4038 -0.0696
   66SAPC   C22 5437   0.796   2.078   3.093  0.3093  0.0330 -0.6765
   66SAPC   H2R 5438   0.877   2.043   3.160  0.5051  1.1293 -0.3231
   66SAPC   H2S 5439   0.810   2.188   3.079  2.3826 -0.0865  0.0971
   66SAPC    C3 5440   0.961   1.751   2.885 -0.1334 -0.2446 -0.2455
   66SAPC    HX 5441   1.062   1.759   2.929  0.2295  0.6419 -1.1996
   66SAPC    HY 5442   0.968   1.674   2.805  1.2974 -0.0213 -0.3515
   66SAPC   O31 5443   0.860   1.718   2.984 -0.9660 -0.0336 -0.4352
   66SAPC   C31 5444   0.752   1.652   2.935  0.4864  0.6697 -0.3553
   66SAPC   O32 5445   0.738   1.607   2.822  0.0208  0.0494  0.5289
   66SAPC   C32 5446   0.653   1.642   3.058 -0.3814 -0.4734 -0.2028
   66SAPC   H2X 5447   0.584   1.729   3.062  1.1850  0.8607 -0.7050
   66SAPC   H2Y 5448   0.712   1.650   3.152 -2.7099  2.6034  1.1616
   66SAPC   C23 5449   0.658   2.044   3.158 -1.2458 -0.5269 -0.4684
   66SAPC   H3R 5450   0.647   1.934   3.155 -0.0384 -0.6395 -2.6032
   66SAPC   H3S 5451   0.573   2.097   3.111 -1.1074 -1.9659 -2.4749
   66SAPC   C24 5452   0.656   2.070   3.315 -0.0903 -0.3546  0.5625
   66SAPC   H4R 5453   0.757   2.044   3.352  0.1433 -1.4970 -0.8140
   66SAPC   H4S 5454   0.575   2.006   3.358 -0.1216  0.1437  1.2709
   66SAPC   C25 5455   0.642   2.212   3.360 -0.2606 -0.1989  0.0645
   66SAPC   H5R 5456   0.654   2.282   3.276 -0.3465 -0.6119 -0.2943
   66SAPC   C26 5457   0.616   2.248   3.490  0.3634  0.5362  0.9216
   66SAPC   H6R 5458   0.593   2.351   3.521 -2.9625  0.1562  0.0721
   66SAPC   C27 5459   0.600   2.151   3.608 -0.0048  0.1740 -0.3482
   66SAPC   H7R 5460   0.578   2.045   3.582 -1.3339  0.3401  0.0149
   66SAPC   H7S 5461   0.508   2.183   3.662  0.2086  0.2278 -0.0102
   66SAPC   C28 5462   0.712   2.151   3.707  0.2219  0.2973 -0.0289
   66SAPC   H8R 5463   0.814   2.172   3.670  0.1485  0.7611  0.0210
   66SAPC   C29 5464   0.699   2.113   3.835  0.4039  0.1635 -0.6272
   66SAPC   H9R 5465   0.790   2.107   3.897 -1.3012 -2.5955  1.8921
   66SAPC  C210 5466   0.582   2.073   3.924 -0.8151 -0.3888 -0.4619
   66SAPC  H10R 5467   0.559   1.967   3.902  1.9182 -1.0608 -0.4332
   66SAPC  H10S 5468   0.492   2.135   3.905 -1.3008 -0.9726 -0.0641
   66SAPC  C211 5469   0.607   2.073   4.074 -0.0698  0.7181  0.6086
   66SAPC  H11R 5470   0.556   2.153   4.131 -0.5921 -0.2013  1.4705
   66SAPC  C212 5471   0.661   1.978   4.143 -0.2060  0.5026 -0.0830
   66SAPC  H12R 5472   0.645   1.992   4.251  1.6326  0.1351  0.2837
   66SAPC  C213 5473   0.736   1.860   4.091 -0.6621  0.0489 -0.9475
   66SAPC  H13R 5474   0.825   1.842   4.156  0.6137  2.5349 -1.8450
   66SAPC  H13S 5475   0.791   1.886   3.998  0.6409 -2.0050 -0.8140
   66SAPC  C214 5476   0.649   1.736   4.072 -0.2507  0.0342  0.2263
   66SAPC  H14R 5477   0.571   1.730   4.149 -0.1356  2.9794  0.7212
   66SAPC  C215 5478   0.648   1.653   3.965 -0.1033 -0.5944  0.0153
   66SAPC  H15R 5479   0.572   1.574   3.972  1.1624 -1.8112  0.6027
   66SAPC  C216 5480   0.750   1.653   3.849 -0.1396  1.1919 -0.7807
   66SAPC  H16R 5481   0.770   1.545   3.829 -3.1016  0.4943 -0.4182
   66SAPC  H16S 5482   0.845   1.703   3.878 -0.9423  1.8184  0.8976
   66SAPC  C217 5483   0.700   1.725   3.727 -0.0374 -0.2602 -0.1952
   66SAPC  H17R 5484   0.657   1.824   3.753 -1.4502 -0.9114  0.0529
   66SAPC  H17S 5485   0.604   1.675   3.701 -0.1064 -0.2018 -0.0529
   66SAPC  C218 5486   0.810   1.716   3.615  0.3554  0.0504 -0.1118
   66SAPC  H18R 5487   0.842   1.610   3.610  0.5542  0.1865 -3.0341
   66SAPC  H18S 5488   0.897   1.764   3.664  0.1826  1.1676 -0.8576
   66SAPC  C219 5489   0.767   1.791   3.490 -0.4014  0.6964  0.3037
   66SAPC  H19R 5490   0.778   1.900   3.506  0.6731  0.8129 -0.9995
   66SAPC  H19S 5491   0.660   1.770   3.472 -0.0138  0.9841 -2.9206
   66SAPC  C220 5492   0.857   1.765   3.368 -0.0353 -0.1679  0.8006
   66SAPC  H20R 5493   0.819   1.802   3.270 -0.1598 -1.9965  0.1147
   66SAPC  H20S 5494   0.864   1.656   3.350  0.7820  0.0407 -0.2350
   66SAPC  H20T 5495   0.959   1.806   3.388  0.3357 -0.5618 -0.2266
   66SAPC   C33 5496   0.567   1.512   3.051  0.3125 -0.1410  1.0116
   66SAPC   H3X 5497   0.522   1.503   2.950  1.1783 -0.8756  0.6744
   66SAPC   H3Y 5498   0.489   1.510   3.131  1.0932 -0.0222  1.7882
   66SAPC   C34 5499   0.656   1.382   3.076  0.3674 -0.2420  0.2758
   66SAPC   H4X 5500   0.735   1.379   2.998 -2.0616 -2.7882 -2.2909
   66SAPC   H4Y 5501   0.589   1.296   3.058  0.0322 -0.8072  3.5772
   66SAPC   C35 5502   0.720   1.375   3.218 -0.7391 -0.1388 -0.3069
   66SAPC   H5X 5503   0.788   1.462   3.230 -0.2408 -0.5615 -0.0332
   66SAPC   H5Y 5504   0.779   1.281   3.219 -0.0541  0.2818 -0.3770
   66SAPC   C36 5505   0.619   1.368   3.340 -0.7335  0.1097 -0.3334
   66SAPC   H6X 5506   0.568   1.270   3.329  0.2782 -0.2272 -2.7596
   66SAPC   H6Y 5507   0.550   1.456   3.342  0.5802  1.1996 -0.8191
   66SAPC   C37 5508   0.685   1.363   3.479  0.1668 -0.5520  0.8180
   66SAPC   H7X 5509   0.756   1.445   3.502 -0.2909 -0.0011  0.2858
   66SAPC   H7Y 5510   0.746   1.270   3.480 -1.5239 -1.7135  1.1291
   66SAPC   C38 5511   0.584   1.349   3.586  0.2526  0.4718  0.1066
   66SAPC   H8X 5512   0.507   1.276   3.555  2.9110 -2.3833 -0.2329
   66SAPC   H8Y 5513   0.540   1.451   3.599  0.7093  0.6169  0.5326
   66SAPC   C39 5514   0.646   1.291   3.710  0.2591 -0.3307  0.2374
   66SAPC   H9X 5515   0.732   1.351   3.746  1.9558 -1.9152 -0.9747
   66SAPC   H9Y 5516   0.689   1.190   3.690  2.7387  0.9352 -1.1839
   66SAPC  C310 5517   0.546   1.276   3.826  0.0881  0.6428  0.8411
   66SAPC  H10X 5518   0.451   1.235   3.783  0.9543 -1.3607  0.7244
   66SAPC  H10Y 5519   0.527   1.380   3.860 -0.7999 -0.3159  3.4974
   66SAPC  C311 5520   0.599   1.195   3.944 -0.0973 -0.2639 -0.2594
   66SAPC  H11X 5521   0.700   1.228   3.977  0.3809  0.3975 -2.2308
   66SAPC  H11Y 5522   0.600   1.090   3.908 -0.6650 -0.2819 -0.2170
   66SAPC  C312 5523   0.513   1.201   4.067  0.4474  0.1835 -1.3904
   66SAPC  H12X 5524   0.426   1.136   4.045  0.7518 -0.8223  0.2105
   66SAPC  H12Y 5525   0.476   1.304   4.090  2.2504  0.5221  0.2663
   66SAPC  C313 5526   0.563   1.143   4.197 -0.4638  0.5440 -0.5731
   66SAPC  H13X 5527   0.654   1.198   4.230  0.8188 -1.6619 -0.2778
   66SAPC  H13Y 5528   0.585   1.038   4.170  0.9532  0.2620  1.4503
   66SAPC  C314 5529   0.461   1.135   4.314 -0.3568 -0.4003 -0.0585
   66SAPC  H14X 5530   0.370   1.086   4.273  0.8654 -2.1761 -0.7858
   66SAPC  H14Y 5531   0.439   1.242   4.336  0.6520  0.0162 -0.9279
   66SAPC  C315 5532   0.519   1.057   4.432 -0.1743 -0.6459 -0.3751
   66SAPC  H15X 5533   0.426   1.035   4.490 -2.1036  1.6260 -2.3848
   66SAPC  H15Y 5534   0.586   1.118   4.496 -2.5350 -0.4639  2.1461
   66SAPC  C316 5535   0.595   0.927   4.406  0.2760 -0.0911  0.1397
   66SAPC  H16X 5536   0.676   0.927   4.330  0.6094 -0.8847  0.4811
   66SAPC  H16Y 5537   0.516   0.858   4.370 -0.3896  1.3332 -1.2455
   66SAPC  C317 5538   0.664   0.890   4.541 -0.1359  0.3478  0.0561
   66SAPC  H17X 5539   0.727   0.974   4.577 -2.1746  1.2651  1.6913
   66SAPC  H17Y 5540   0.727   0.799   4.532 -2.1289 -1.2194  1.1025
   66SAPC  C318 5541   0.565   0.845   4.657  0.1554  0.6952  0.3551
   66SAPC  H18X 5542   0.512   0.761   4.608  1.8143  0.8627 -1.9206
   66SAPC  H18Y 5543   0.492   0.924   4.684 -0.5827 -0.1820  0.9747
   66SAPC  H18Z 5544   0.623   0.807   4.744 -0.1133 -2.3443 -0.6725
   67SAPC     N 5545   5.147   1.432   2.119  0.6397  0.4465 -0.7377
   67SAPC   C12 5546   5.284   1.366   2.148  0.5325  0.4297  0.5086
   67SAPC  H12A 5547   5.302   1.302   2.062  0.4019  0.5366  0.4009
   67SAPC  H12B 5548   5.277   1.290   2.224 -1.0081 -0.2730 -0.2779
   67SAPC   C13 5549   5.153   1.534   2.011 -0.6560  0.1892  0.0859
   67SAPC  H13A 5550   5.060   1.588   2.000 -1.1792 -0.7563 -0.2949
   67SAPC  H13B 5551   5.228   1.608   2.035 -0.3319 -0.4486  1.0990
   67SAPC  H13C 5552   5.177   1.494   1.914  0.3322  0.6555  0.1317
   67SAPC   C14 5553   5.052   1.324   2.081  0.2888  0.4013  0.2110
   67SAPC  H14A 5554   4.952   1.366   2.086 -0.3488 -1.0375  0.1265
   67SAPC  H14B 5555   5.078   1.289   1.983  0.5091 -0.2973  0.5131
   67SAPC  H14C 5556   5.050   1.251   2.161  0.1917 -0.5803 -0.6738
   67SAPC   C15 5557   5.094   1.506   2.244 -0.5643  0.4948 -0.1398
   67SAPC  H15A 5558   4.992   1.540   2.238 -1.2249 -1.0294  1.4587
   67SAPC  H15B 5559   5.085   1.432   2.322 -1.7394 -2.6282 -2.9827
   67SAPC  H15C 5560   5.157   1.591   2.264  0.2345 -0.5706  2.2619
   67SAPC   C11 5561   5.400   1.461   2.176  0.5982 -0.4987 -0.1825
   67SAPC  H11A 5562   5.419   1.529   2.090  2.3409  1.3565  1.5532
   67SAPC  H11B 5563   5.497   1.408   2.176  0.8023 -0.1567  0.9765
   67SAPC     P 5564   5.415   1.465   2.438  0.1675 -0.2317  0.1252
   67SAPC   O13 5565   5.485   1.335   2.422 -0.2796  0.8399  0.1039
   67SAPC   O14 5566   5.486   1.566   2.525  0.5076  0.3116 -0.4453
   67SAPC   O12 5567   5.378   1.537   2.294  0.1918 -0.7677  0.0065
   67SAPC   O11 5568   5.269   1.437   2.497  0.0611 -0.2458  0.0533
   67SAPC    C1 5569   5.254   1.371   2.620  0.1104 -0.4305  0.5358
   67SAPC    HA 5570   5.310   1.275   2.614  1.1110  0.2132 -3.9954
   67SAPC    HB 5571   5.293   1.427   2.708 -0.3175  1.0863 -0.2058
   67SAPC    C2 5572   5.104   1.342   2.644 -0.6808 -0.0661 -0.4396
   67SAPC    HS 5573   5.076   1.271   2.563 -0.0759 -0.6215 -0.1746
   67SAPC   O21 5574   5.030   1.461   2.632 -0.4025 -0.0806 -0.5332
   67SAPC   C21 5575   4.901   1.454   2.641  0.2048  0.3539 -0.0778
   67SAPC   O22 5576   4.829   1.357   2.649 -0.1845  0.1639 -0.1806
   67SAPC   C22 5577   4.845   1.595   2.662 -0.3220  0.7845  0.3496
   67SAPC   H2R 5578   4.929   1.667   2.652  0.3247 -0.1536 -1.3174
   67SAPC   H2S 5579   4.774   1.616   2.580  0.3368  0.8311 -0.2155
   67SAPC    C3 5580   5.091   1.274   2.786  0.2431  0.0652 -0.4894
   67SAPC    HX 5581   5.162   1.190   2.804 -1.4330 -0.8451  2.6691
   67SAPC    HY 5582   4.993   1.222   2.794 -0.0115  0.5955 -0.1135
   67SAPC   O31 5583   5.133   1.367   2.889  0.6014  0.4962 -0.4777
   67SAPC   C31 5584   5.033   1.407   2.969  0.4789 -0.1478  0.1808
   67SAPC   O32 5585   4.917   1.371   2.960  0.0941 -0.3476  0.7365
   67SAPC   C32 5586   5.087   1.508   3.078  0.0139  0.0984  0.3910
   67SAPC   H2X 5587   5.124   1.600   3.027 -0.8482 -0.2383 -0.8804
   67SAPC   H2Y 5588   5.182   1.469   3.121  0.4980 -0.0481 -0.7616
   67SAPC   C23 5589   4.772   1.607   2.800 -0.1846  0.0681  0.1714
   67SAPC   H3R 5590   4.850   1.599   2.879 -1.1856 -0.0136  1.1783
   67SAPC   H3S 5591   4.701   1.522   2.812  0.5262 -0.2433  2.8047
   67SAPC   C24 5592   4.696   1.734   2.824 -0.2505  0.5258 -0.4319
   67SAPC   H4R 5593   4.652   1.733   2.926 -3.3159  0.4735 -1.6692
   67SAPC   H4S 5594   4.621   1.732   2.742 -0.5337  1.4793 -0.2085
   67SAPC   C25 5595   4.786   1.855   2.797 -0.3530 -0.1293  0.4300
   67SAPC   H5R 5596   4.813   1.875   2.692  1.2076  0.4596  0.9202
   67SAPC   C26 5597   4.834   1.943   2.889 -0.2405 -0.4358 -0.0580
   67SAPC   H6R 5598   4.895   2.027   2.852 -0.4845 -0.5817 -0.8031
   67SAPC   C27 5599   4.810   1.942   3.036  0.2353  0.3157 -0.4985
   67SAPC   H7R 5600   4.880   2.007   3.092 -2.8835  2.5651  1.1095
   67SAPC   H7S 5601   4.833   1.840   3.074 -0.0207  0.3218 -0.3291
   67SAPC   C28 5602   4.663   1.970   3.074  0.2366 -0.2444 -0.7328
   67SAPC   H8R 5603   4.595   1.961   2.988 -1.8387  3.7662  0.2314
   67SAPC   C29 5604   4.618   1.989   3.200  0.8953  0.0275  0.4389
   67SAPC   H9R 5605   4.509   1.996   3.216  1.0745  1.1499  1.3322
   67SAPC  C210 5606   4.705   1.990   3.321 -0.5346 -0.1661  0.0758
   67SAPC  H10R 5607   4.652   2.045   3.401  0.6800  0.2078  0.6550
   67SAPC  H10S 5608   4.799   2.047   3.303 -0.9150  0.3610 -0.2218
   67SAPC  C211 5609   4.752   1.850   3.370 -0.2172 -0.1266 -0.3323
   67SAPC  H11R 5610   4.803   1.783   3.299  0.3944 -0.8380  0.7464
   67SAPC  C212 5611   4.748   1.814   3.504  0.2986 -1.1249 -0.2336
   67SAPC  H12R 5612   4.780   1.711   3.527 -1.0095 -1.6214 -0.5481
   67SAPC  C213 5613   4.687   1.895   3.615 -0.4583  0.2035  0.3852
   67SAPC  H13R 5614   4.654   1.825   3.696  0.9775 -0.2236  0.6247
   67SAPC  H13S 5615   4.591   1.932   3.573 -0.4270 -1.1032 -0.9037
   67SAPC  C214 5616   4.764   2.008   3.683 -0.1223 -0.0582 -1.1461
   67SAPC  H14R 5617   4.852   2.044   3.628  0.6703  0.1751  0.2358
   67SAPC  C215 5618   4.731   2.071   3.803 -1.0417 -0.0597 -0.0563
   67SAPC  H15R 5619   4.793   2.155   3.837 -2.7929  0.8690  0.9632
   67SAPC  C216 5620   4.613   2.035   3.887 -0.0825  0.1021 -0.4328
   67SAPC  H16R 5621   4.648   1.998   3.985 -1.1041 -0.5546 -0.3004
   67SAPC  H16S 5622   4.550   1.953   3.845 -2.0002  1.2395  0.0616
   67SAPC  C217 5623   4.524   2.161   3.920  0.0326 -0.0276  0.3996
   67SAPC  H17R 5624   4.492   2.210   3.825  0.1083 -0.2984  0.2322
   67SAPC  H17S 5625   4.587   2.230   3.979  0.7231  0.3864 -0.7993
   67SAPC  C218 5626   4.395   2.113   3.980 -0.5800  0.5397  0.8841
   67SAPC  H18R 5627   4.337   2.056   3.904  1.2682 -1.1853  0.7076
   67SAPC  H18S 5628   4.337   2.202   4.013 -0.5209  0.6607  0.6684
   67SAPC  C219 5629   4.409   2.031   4.112  0.2120  0.1879 -0.2823
   67SAPC  H19R 5630   4.442   1.929   4.081  0.0246  0.2189 -0.5826
   67SAPC  H19S 5631   4.313   2.025   4.167 -0.2725  1.9301 -0.8733
   67SAPC  C220 5632   4.509   2.088   4.218  0.1052 -0.8408 -0.3838
   67SAPC  H20R 5633   4.611   2.098   4.174 -0.3344  1.8652 -0.9728
   67SAPC  H20S 5634   4.516   2.023   4.307 -0.3059  0.4994  0.6684
   67SAPC  H20T 5635   4.490   2.194   4.245 -0.1110 -0.5467 -1.6239
   67SAPC   C33 5636   4.983   1.548   3.186  0.6750  0.1387 -0.2501
   67SAPC   H3X 5637   4.881   1.552   3.143  1.2974 -1.8025 -2.0855
   67SAPC   H3Y 5638   5.011   1.643   3.237  1.8796 -0.8705  1.0471
   67SAPC   C34 5639   4.970   1.453   3.301  0.1821 -0.0105  0.4923
   67SAPC   H4X 5640   5.010   1.355   3.267  1.3829  0.0066  1.7493
   67SAPC   H4Y 5641   4.861   1.442   3.320  0.5116 -1.5631  1.7387
   67SAPC   C35 5642   5.028   1.496   3.440  0.3923  0.3797 -0.0459
   67SAPC   H5X 5643   4.987   1.596   3.468  0.4772  0.1608  0.9239
   67SAPC   H5Y 5644   5.136   1.508   3.419  0.4146  1.9624  0.7663
   67SAPC   C36 5645   5.027   1.388   3.548 -0.3058 -0.5464  0.2981
   67SAPC   H6X 5646   5.099   1.317   3.503 -0.4633 -0.3392 -0.2863
   67SAPC   H6Y 5647   4.933   1.330   3.557 -0.9061  0.4900  0.9962
   67SAPC   C37 5648   5.076   1.428   3.686  1.1918  0.4916  0.8450
   67SAPC   H7X 5649   5.167   1.492   3.678 -0.7128  3.2876 -0.1783
   67SAPC   H7Y 5650   5.099   1.344   3.755  0.5741 -0.0426  0.4085
   67SAPC   C38 5651   4.975   1.517   3.763  0.5812  0.6778  0.2057
   67SAPC   H8X 5652   4.885   1.454   3.776  2.4665 -1.8562  1.8128
   67SAPC   H8Y 5653   4.940   1.606   3.705 -0.1782 -0.7468 -1.6118
   67SAPC   C39 5654   5.018   1.549   3.908 -0.5043  0.1145  0.1782
   67SAPC   H9X 5655   5.112   1.608   3.899 -0.5786  0.4892  1.6530
   67SAPC   H9Y 5656   5.035   1.453   3.962  1.5417  0.3627  0.0573
   67SAPC  C310 5657   4.912   1.621   3.988 -0.0365 -0.5131 -0.2286
   67SAPC  H10X 5658   4.832   1.543   3.995  1.1259 -1.6795  0.6201
   67SAPC  H10Y 5659   4.870   1.711   3.940  1.7836  0.7893  0.5171
   67SAPC  C311 5660   4.966   1.653   4.132  0.0503 -0.5315  0.8772
   67SAPC  H11X 5661   5.054   1.718   4.115 -0.4533 -0.1132 -0.2575
   67SAPC  H11Y 5662   5.009   1.570   4.191 -0.5019 -1.3417  0.1833
   67SAPC  C312 5663   4.866   1.738   4.217 -0.5238  0.4380 -0.6334
   67SAPC  H12X 5664   4.833   1.822   4.153 -2.0368  1.6359  1.5660
   67SAPC  H12Y 5665   4.918   1.789   4.301  0.5514 -2.7934  0.8135
   67SAPC  C313 5666   4.761   1.638   4.273 -0.7009  0.0228  0.5980
   67SAPC  H13X 5667   4.804   1.582   4.359  0.8815 -1.1356 -0.8973
   67SAPC  H13Y 5668   4.743   1.563   4.193  3.1056  0.9820 -1.4067
   67SAPC  C314 5669   4.626   1.698   4.311 -0.8035 -0.3654  0.2984
   67SAPC  H14X 5670   4.585   1.751   4.223  2.2888 -0.1374 -1.1326
   67SAPC  H14Y 5671   4.636   1.776   4.390 -1.8521  0.5912 -0.4659
   67SAPC  C315 5672   4.521   1.600   4.353  0.3375 -0.7779  1.1959
   67SAPC  H15X 5673   4.510   1.521   4.275 -2.9066  1.9003 -1.3646
   67SAPC  H15Y 5674   4.421   1.648   4.343 -0.2199 -2.0110  0.6645
   67SAPC  C316 5675   4.545   1.539   4.490  0.3568 -0.3842  0.2707
   67SAPC  H16X 5676   4.551   1.620   4.566  0.3074 -1.8681  1.9107
   67SAPC  H16Y 5677   4.640   1.482   4.484  0.3706 -0.2100 -2.7319
   67SAPC  C317 5678   4.435   1.444   4.537  0.7625  0.1128 -0.3661
   67SAPC  H17X 5679   4.417   1.365   4.461 -2.6908 -0.1490  0.5296
   67SAPC  H17Y 5680   4.333   1.488   4.539 -0.1810 -1.9273 -0.7554
   67SAPC  C318 5681   4.455   1.392   4.682  0.5026  0.2662  0.3069
   67SAPC  H18X 5682   4.534   1.314   4.691  2.6279  2.3484  0.9473
   67SAPC  H18Y 5683   4.361   1.351   4.724  0.0049  1.2082  0.1267
   67SAPC  H18Z 5684   4.485   1.483   4.738 -0.8335  2.5168 -2.4089
   68SAPC     N 5685   3.236   6.019   2.373 -0.1135 -0.2868 -0.6672
   68SAPC   C12 5686   3.238   5.884   2.443  0.3035 -1.2343 -0.3602
   68SAPC  H12A 5687   3.343   5.876   2.469  0.3529  0.5014  0.0978
   68SAPC  H12B 5688   3.204   5.815   2.368  0.6408  0.9006 -2.6395
   68SAPC   C13 5689   3.280   6.134   2.466 -0.4042 -0.1901  0.1086
   68SAPC  H13A 5690   3.219   6.142   2.555 -0.2838 -4.8185  0.8836
   68SAPC  H13B 5691   3.379   6.123   2.509  0.0274  0.8505 -0.5949
   68SAPC  H13C 5692   3.271   6.223   2.406 -2.3755 -2.2510 -2.9084
   68SAPC   C14 5693   3.335   6.006   2.259  0.1653  0.3708  0.4177
   68SAPC  H14A 5694   3.438   5.991   2.287  0.2961  1.1365  0.3763
   68SAPC  H14B 5695   3.303   5.932   2.187 -2.7761 -2.4578  4.2207
   68SAPC  H14C 5696   3.331   6.101   2.207 -1.9518 -1.0194 -2.1768
   68SAPC   C15 5697   3.102   6.057   2.318  0.4218 -0.0383  0.6921
   68SAPC  H15A 5698   3.026   6.060   2.394 -1.0236  0.5218 -0.7255
   68SAPC  H15B 5699   3.111   6.156   2.275 -0.5766 -0.1598  0.1820
   68SAPC  H15C 5700   3.068   5.991   2.240 -0.1041 -0.4052  1.2224
   68SAPC   C11 5701   3.148   5.874   2.574  0.5817 -0.1772  0.2819
   68SAPC  H11A 5702   3.179   5.958   2.640  0.0340  0.7180 -0.5699
   68SAPC  H11B 5703   3.186   5.782   2.622 -0.3439 -0.2721  0.8447
   68SAPC     P 5704   2.908   5.893   2.667  0.4438  0.2077  0.1028
   68SAPC   O13 5705   2.851   6.028   2.646 -0.2666 -0.2387  0.4404
   68SAPC   O14 5706   2.810   5.783   2.668  0.1987 -0.0080  0.7028
   68SAPC   O12 5707   3.008   5.860   2.554 -0.4540  0.0444  0.3320
   68SAPC   O11 5708   2.992   5.892   2.798 -0.0312  0.3553 -0.1794
   68SAPC    C1 5709   3.016   6.010   2.881 -0.5028  0.7772  0.6138
   68SAPC    HA 5710   3.119   6.049   2.866  0.1523 -1.1516 -0.2467
   68SAPC    HB 5711   2.951   6.094   2.848 -0.8795  0.8382  1.4781
   68SAPC    C2 5712   2.993   5.993   3.030 -0.2029 -0.1529 -0.7355
   68SAPC    HS 5713   2.884   5.982   3.048 -0.3589  0.0503 -1.5197
   68SAPC   O21 5714   3.059   6.097   3.109  0.3168  0.4602  0.3550
   68SAPC   C21 5715   2.982   6.196   3.130  0.0760 -0.1219 -0.2166
   68SAPC   O22 5716   2.863   6.210   3.088 -0.5591 -0.1222  0.1713
   68SAPC   C22 5717   3.061   6.300   3.209  0.0501  0.4754 -0.1238
   68SAPC   H2R 5718   3.113   6.250   3.294  0.3439 -0.4519 -0.8246
   68SAPC   H2S 5719   3.141   6.342   3.145  0.9422  2.4949  2.1571
   68SAPC    C3 5720   3.057   5.855   3.080  0.7411  0.7469 -0.5236
   68SAPC    HX 5721   3.165   5.854   3.053  0.5669  0.2869 -1.2359
   68SAPC    HY 5722   3.006   5.767   3.035  1.0116 -0.3398  1.2007
   68SAPC   O31 5723   3.046   5.839   3.228 -0.8014 -0.3997  0.0643
   68SAPC   C31 5724   3.139   5.752   3.285 -0.0742 -0.2012  0.4255
   68SAPC   O32 5725   3.211   5.680   3.221  0.1536 -0.9583  0.7136
   68SAPC   C32 5726   3.154   5.792   3.427 -0.2842 -0.6596 -0.3176
   68SAPC   H2X 5727   3.125   5.895   3.457  1.1676 -0.3577  0.1598
   68SAPC   H2Y 5728   3.263   5.781   3.448 -0.4900 -1.1727  0.4989
   68SAPC   C23 5729   2.971   6.412   3.262 -0.1555 -0.5917 -0.1070
   68SAPC   H3R 5730   2.899   6.379   3.340 -2.0921  2.0835 -0.6108
   68SAPC   H3S 5731   2.918   6.443   3.170  0.8628 -1.2309 -0.9352
   68SAPC   C24 5732   3.059   6.529   3.314  0.0339 -0.2615 -0.1264
   68SAPC   H4R 5733   3.124   6.573   3.236  0.2042  1.7100  1.0532
   68SAPC   H4S 5734   3.131   6.484   3.386  0.3435  0.0535 -0.2398
   68SAPC   C25 5735   2.969   6.638   3.363  0.2493 -0.0882 -0.4562
   68SAPC   H5R 5736   2.926   6.690   3.276 -0.9653  0.0399  0.1942
   68SAPC   C26 5737   2.929   6.669   3.493 -0.3793  0.5269 -0.0706
   68SAPC   H6R 5738   2.861   6.751   3.520 -1.4402 -0.7367  1.2857
   68SAPC   C27 5739   3.002   6.604   3.609  0.1647 -0.1144 -0.2206
   68SAPC   H7R 5740   3.031   6.682   3.682 -0.7302 -0.7240  0.8056
   68SAPC   H7S 5741   3.104   6.569   3.583 -1.1029 -3.4345 -1.2524
   68SAPC   C28 5742   2.920   6.504   3.682 -0.4277 -0.3707 -0.7233
   68SAPC   H8R 5743   2.881   6.425   3.616 -0.9743  0.8271 -1.8809
   68SAPC   C29 5744   2.881   6.513   3.813  0.2280 -1.0767 -0.0863
   68SAPC   H9R 5745   2.816   6.437   3.859 -0.4474  0.9068  2.4468
   68SAPC  C210 5746   2.911   6.629   3.909  0.4442  0.4970 -0.1653
   68SAPC  H10R 5747   2.954   6.717   3.855  0.0824  1.8340  1.6130
   68SAPC  H10S 5748   2.992   6.614   3.983 -0.4885  2.5102  1.3626
   68SAPC  C211 5749   2.791   6.676   3.980  0.5102 -0.2136 -0.5078
   68SAPC  H11R 5750   2.721   6.719   3.907  1.0767 -0.9396 -1.4972
   68SAPC  C212 5751   2.755   6.647   4.108  0.4447 -0.5644  0.3313
   68SAPC  H12R 5752   2.660   6.687   4.144  0.1592 -0.4417 -0.5300
   68SAPC  C213 5753   2.850   6.584   4.212  1.1074 -0.6336  0.8159
   68SAPC  H13R 5754   2.829   6.605   4.319  0.5219  0.8757  0.4370
   68SAPC  H13S 5755   2.951   6.626   4.193  1.3384 -1.4117  0.2817
   68SAPC  C214 5756   2.864   6.434   4.184 -0.8062  0.0735  0.3847
   68SAPC  H14R 5757   2.833   6.410   4.081  0.8121  2.1506 -0.6789
   68SAPC  C215 5758   2.926   6.342   4.254 -0.4811  0.0197  0.0055
   68SAPC  H15R 5759   2.936   6.235   4.227  0.3576 -0.1432  0.8981
   68SAPC  C216 5760   2.987   6.373   4.391 -0.1687  0.0643 -0.2431
   68SAPC  H16R 5761   2.967   6.476   4.428 -0.1148 -0.2565  0.7239
   68SAPC  H16S 5762   3.098   6.363   4.386 -0.0603 -0.8515  2.2669
   68SAPC  C217 5763   2.936   6.276   4.505  0.0792 -0.2927 -0.8383
   68SAPC  H17R 5764   2.983   6.179   4.478  3.0414  0.9704 -0.5711
   68SAPC  H17S 5765   2.826   6.262   4.512  0.0627  0.0362 -0.4269
   68SAPC  C218 5766   2.993   6.295   4.648  0.4514 -0.2130 -1.2720
   68SAPC  H18R 5767   3.104   6.298   4.641  0.5189  2.4544 -0.3476
   68SAPC  H18S 5768   2.957   6.215   4.716  1.0473  0.3515 -0.2531
   68SAPC  C219 5769   2.964   6.434   4.703 -0.4535 -0.1330  0.0331
   68SAPC  H19R 5770   2.859   6.452   4.735 -0.6124 -1.9411  0.6601
   68SAPC  H19S 5771   3.004   6.506   4.629 -0.4273 -0.3044 -0.1180
   68SAPC  C220 5772   3.035   6.460   4.841 -0.8667  0.0061  0.0843
   68SAPC  H20R 5773   3.146   6.461   4.828 -0.9835  2.4662 -1.4564
   68SAPC  H20S 5774   3.005   6.391   4.922 -0.9811 -0.7224 -0.5686
   68SAPC  H20T 5775   3.017   6.568   4.859  0.5952  0.0518  1.4967
   68SAPC   C33 5776   3.095   5.695   3.524 -0.5124 -0.2118 -0.1113
   68SAPC   H3X 5777   3.105   5.728   3.629 -1.2753  0.0577 -0.1172
   68SAPC   H3Y 5778   3.158   5.603   3.525  0.2556  0.3141  1.3776
   68SAPC   C34 5779   2.953   5.657   3.508 -0.0383 -0.7771 -0.0403
   68SAPC   H4X 5780   2.932   5.596   3.598 -1.6925 -0.0889  0.0813
   68SAPC   H4Y 5781   2.936   5.601   3.413  1.0944 -1.1848 -0.0127
   68SAPC   C35 5782   2.855   5.775   3.526 -0.3080  0.1445  0.2290
   68SAPC   H5X 5783   2.883   5.852   3.451 -0.2323 -1.6949 -1.7239
   68SAPC   H5Y 5784   2.871   5.806   3.632 -2.2900  0.6385  0.4202
   68SAPC   C36 5785   2.709   5.734   3.498 -0.7640  0.1720  0.6571
   68SAPC   H6X 5786   2.708   5.667   3.409 -0.6410 -0.5364  1.1780
   68SAPC   H6Y 5787   2.658   5.831   3.479 -1.9874 -0.6031 -0.2317
   68SAPC   C37 5788   2.643   5.666   3.618  0.5617  0.7344  0.0872
   68SAPC   H7X 5789   2.642   5.741   3.700 -1.6729 -0.5297  1.2843
   68SAPC   H7Y 5790   2.704   5.583   3.660  0.8482  0.5573 -0.6689
   68SAPC   C38 5791   2.495   5.627   3.609  0.3495 -0.0246 -0.1524
   68SAPC   H8X 5792   2.486   5.574   3.512 -1.4295 -0.5510  0.2740
   68SAPC   H8Y 5793   2.436   5.721   3.604  1.6596  0.7867 -2.7047
   68SAPC   C39 5794   2.448   5.533   3.725  0.0644 -0.7352 -0.3823
   68SAPC   H9X 5795   2.528   5.456   3.731 -0.6534 -1.8095 -3.1944
   68SAPC   H9Y 5796   2.346   5.493   3.707 -0.4523  0.8286 -1.1617
   68SAPC  C310 5797   2.447   5.607   3.863 -0.1958 -0.4777  0.6392
   68SAPC  H10X 5798   2.376   5.692   3.865  1.2530  0.9114 -1.8479
   68SAPC  H10Y 5799   2.546   5.655   3.877 -0.8546  1.5760 -1.1584
   68SAPC  C311 5800   2.425   5.517   3.980  0.1365 -0.7007  0.0791
   68SAPC  H11X 5801   2.500   5.435   3.976  0.6707 -0.2152  0.0959
   68SAPC  H11Y 5802   2.330   5.462   3.963  0.0680 -0.3031 -0.8765
   68SAPC  C312 5803   2.430   5.578   4.119  0.1725 -0.1104 -0.0106
   68SAPC  H12X 5804   2.537   5.607   4.121  0.3368 -0.3121 -2.3100
   68SAPC  H12Y 5805   2.405   5.501   4.195 -0.9159 -0.5841 -0.8091
   68SAPC  C313 5806   2.346   5.699   4.134  0.5652 -0.0265 -0.9904
   68SAPC  H13X 5807   2.245   5.674   4.093  1.0073 -2.4383 -0.7223
   68SAPC  H13Y 5808   2.386   5.781   4.071 -1.1161  0.4764 -1.4544
   68SAPC  C314 5809   2.322   5.743   4.281 -0.4396  0.3613  0.0862
   68SAPC  H14X 5810   2.277   5.662   4.342  1.4457 -0.5637  0.3414
   68SAPC  H14Y 5811   2.257   5.832   4.287 -0.9989 -0.0738  0.6421
   68SAPC  C315 5812   2.450   5.759   4.361 -0.4550  0.4046  0.2681
   68SAPC  H15X 5813   2.502   5.851   4.326  1.1543  1.0145  3.7216
   68SAPC  H15Y 5814   2.517   5.673   4.340 -0.2265  1.2787 -3.0125
   68SAPC  C316 5815   2.433   5.771   4.510  0.8493 -0.7600 -0.6880
   68SAPC  H16X 5816   2.375   5.862   4.537  1.9509 -0.5670  1.2333
   68SAPC  H16Y 5817   2.529   5.786   4.563 -0.3936 -2.3351  2.2319
   68SAPC  C317 5818   2.359   5.656   4.580 -0.3754  0.4074  0.4886
   68SAPC  H17X 5819   2.402   5.564   4.534 -1.0717 -0.5340  1.6408
   68SAPC  H17Y 5820   2.252   5.643   4.553 -0.0641  1.3600 -1.3176
   68SAPC  C318 5821   2.375   5.660   4.727  0.3932 -0.1174  0.6830
   68SAPC  H18X 5822   2.476   5.688   4.763 -0.4556  3.7489  0.5511
   68SAPC  H18Y 5823   2.352   5.567   4.782 -0.9185  0.8058  1.7646
   68SAPC  H18Z 5824   2.313   5.742   4.770  1.2726  1.1691 -0.3763
   69SAPC     N 5825   0.987   6.387   2.641 -0.1951  0.1016  0.1057
   69SAPC   C12 5826   0.934   6.447   2.513 -0.4890  0.0233 -0.1389
   69SAPC  H12A 5827   0.851   6.384   2.486 -0.1803 -0.7804  0.7259
   69SAPC  H12B 5828   1.005   6.434   2.432 -0.0182 -0.9460  0.4107
   69SAPC   C13 5829   0.887   6.397   2.746  0.2969 -0.1794 -0.2120
   69SAPC  H13A 5830   0.939   6.365   2.834  0.1773  0.1655 -0.0136
   69SAPC  H13B 5831   0.860   6.502   2.756  0.5813  0.0883 -1.8287
   69SAPC  H13C 5832   0.804   6.333   2.721  2.3799 -1.6121 -4.3403
   69SAPC   C14 5833   1.026   6.242   2.621  0.1533 -0.6086 -0.1557
   69SAPC  H14A 5834   0.935   6.193   2.590 -0.2589 -0.8205  1.2756
   69SAPC  H14B 5835   1.110   6.226   2.556 -0.7055 -1.8889 -0.9996
   69SAPC  H14C 5836   1.044   6.199   2.719 -0.2076  1.3817  0.8348
   69SAPC   C15 5837   1.108   6.468   2.696  0.4264  0.0430  0.2740
   69SAPC  H15A 5838   1.190   6.440   2.631  0.3347  0.3168  0.0364
   69SAPC  H15B 5839   1.097   6.574   2.682  0.4273  0.0625  0.4225
   69SAPC  H15C 5840   1.133   6.440   2.797  1.1281 -0.8861 -0.1375
   69SAPC   C11 5841   0.880   6.595   2.512  0.3698 -0.1361  0.7359
   69SAPC  H11A 5842   0.779   6.589   2.559 -0.3397 -1.1693 -0.8290
   69SAPC  H11B 5843   0.855   6.613   2.405 -2.6815  0.2535  1.4059
   69SAPC     P 5844   0.943   6.848   2.580 -0.0984  0.1209  0.1303
   69SAPC   O13 5845   0.891   6.892   2.448  0.0477 -0.7464 -0.1169
   69SAPC   O14 5846   0.853   6.848   2.702 -0.5361 -0.5069  0.0149
   69SAPC   O12 5847   0.981   6.694   2.557 -0.0935  0.8041 -0.0738
   69SAPC   O11 5848   1.078   6.927   2.612  0.0644  0.0380 -0.6505
   69SAPC    C1 5849   1.195   6.866   2.649 -0.4869 -0.5222 -0.0812
   69SAPC    HA 5850   1.204   6.756   2.664  2.6800 -0.3577 -0.1334
   69SAPC    HB 5851   1.274   6.901   2.578 -1.3935  1.6762 -0.0753
   69SAPC    C2 5852   1.253   6.926   2.780 -0.2025  0.2065  0.5798
   69SAPC    HS 5853   1.343   6.868   2.810  0.5572  1.8685  1.6622
   69SAPC   O21 5854   1.152   6.925   2.884  0.0399  0.0549  0.5847
   69SAPC   C21 5855   1.115   6.811   2.925 -0.1918 -0.1725 -0.5738
   69SAPC   O22 5856   1.163   6.701   2.893  0.2933  0.1432  0.6193
   69SAPC   C22 5857   0.992   6.829   3.020  0.6545  0.3090  0.0637
   69SAPC   H2R 5858   1.016   6.915   3.086 -1.0145  0.1439  0.9488
   69SAPC   H2S 5859   0.902   6.850   2.959 -0.4537 -0.4668  1.3837
   69SAPC    C3 5860   1.295   7.072   2.764 -0.7996 -0.4477 -0.5963
   69SAPC    HX 5861   1.211   7.136   2.730 -1.8163  0.2310  2.8517
   69SAPC    HY 5862   1.365   7.084   2.678  0.4187 -0.4949  0.3685
   69SAPC   O31 5863   1.342   7.136   2.883  0.2680 -0.7825  0.3290
   69SAPC   C31 5864   1.456   7.108   2.930 -0.6497  0.4644  0.1109
   69SAPC   O32 5865   1.522   7.011   2.887 -0.3663  0.1249 -0.6133
   69SAPC   C32 5866   1.496   7.185   3.059  0.2378 -0.6579  0.2243
   69SAPC   H2X 5867   1.575   7.122   3.106 -0.4324 -3.5923 -2.3227
   69SAPC   H2Y 5868   1.412   7.190   3.131  1.3186 -0.8984  1.5416
   69SAPC   C23 5869   0.972   6.710   3.116  0.4194 -0.0261 -0.1876
   69SAPC   H3R 5870   1.052   6.700   3.192  0.4843  1.1306 -0.0978
   69SAPC   H3S 5871   0.968   6.611   3.065 -2.0207 -0.2946  0.3819
   69SAPC   C24 5872   0.836   6.715   3.195  0.4421 -0.7046 -0.4876
   69SAPC   H4R 5873   0.824   6.615   3.242 -0.3987  0.2547  1.4127
   69SAPC   H4S 5874   0.755   6.729   3.121 -1.4561 -1.4407  1.3629
   69SAPC   C25 5875   0.831   6.824   3.300  0.3028 -0.6305 -0.4795
   69SAPC   H5R 5876   0.832   6.929   3.268 -2.0659 -0.7733 -1.1665
   69SAPC   C26 5877   0.820   6.808   3.430 -0.0284 -0.0422 -0.3265
   69SAPC   H6R 5878   0.822   6.902   3.486  2.0752 -2.3716  4.0354
   69SAPC   C27 5879   0.818   6.683   3.514 -0.2573 -0.3374  0.8600
   69SAPC   H7R 5880   0.832   6.590   3.455 -1.3495  0.0687 -0.0776
   69SAPC   H7S 5881   0.717   6.672   3.558 -0.9741 -2.2489 -1.1184
   69SAPC   C28 5882   0.915   6.697   3.624  0.1204 -0.7277 -0.0942
   69SAPC   H8R 5883   1.018   6.674   3.592  0.6893  0.9954  0.3986
   69SAPC   C29 5884   0.897   6.730   3.755  0.1215  0.2154  0.5415
   69SAPC   H9R 5885   0.983   6.741   3.822  0.9820 -1.0487 -0.3138
   69SAPC  C210 5886   0.768   6.767   3.821 -0.2774  0.2668  0.2665
   69SAPC  H10R 5887   0.690   6.709   3.767 -0.5560 -0.4452  1.4108
   69SAPC  H10S 5888   0.745   6.872   3.796  0.2473 -0.2884 -3.0407
   69SAPC  C211 5889   0.763   6.755   3.968 -1.0005  0.1752  0.3864
   69SAPC  H11R 5890   0.824   6.671   4.005 -0.8159  0.0839 -0.1117
   69SAPC  C212 5891   0.690   6.826   4.058 -0.1655 -0.2668 -0.2605
   69SAPC  H12R 5892   0.685   6.791   4.163 -2.1249  1.2693  0.2246
   69SAPC  C213 5893   0.603   6.942   4.023 -0.1403 -0.0461  0.6817
   69SAPC  H13R 5894   0.577   6.947   3.915 -0.1044  3.3342  0.7182
   69SAPC  H13S 5895   0.666   7.033   4.025  0.2704 -0.0510 -3.3847
   69SAPC  C214 5896   0.478   6.958   4.094  0.0839 -0.0898  0.8069
   69SAPC  H14R 5897   0.393   6.897   4.059 -0.5514  1.2088  0.0048
   69SAPC  C215 5898   0.469   7.030   4.209  0.1640 -0.0231 -0.1091
   69SAPC  H15R 5899   0.370   7.043   4.254  1.2686  1.7689  1.9839
   69SAPC  C216 5900   0.576   7.110   4.283  0.6980  0.0330 -0.0145
   69SAPC  H16R 5901   0.540   7.206   4.326  0.8825 -0.5875  1.6089
   69SAPC  H16S 5902   0.652   7.147   4.212 -0.3842 -0.8849 -1.7260
   69SAPC  C217 5903   0.640   7.022   4.394  0.0409 -0.0568 -0.1721
   69SAPC  H17R 5904   0.688   6.932   4.350  0.5733 -0.0305  0.3504
   69SAPC  H17S 5905   0.571   6.981   4.471  3.1008 -1.3590  2.0809
   69SAPC  C218 5906   0.737   7.106   4.480 -0.6901  0.6187 -0.6671
   69SAPC  H18R 5907   0.820   7.146   4.417  0.3272 -1.3952 -0.6910
   69SAPC  H18S 5908   0.780   7.033   4.552 -1.9801  0.0126 -0.4859
   69SAPC  C219 5909   0.676   7.211   4.577  0.3655  0.1801  0.2462
   69SAPC  H19R 5910   0.604   7.164   4.647  0.8048  0.6645  1.0274
   69SAPC  H19S 5911   0.624   7.278   4.504 -2.6457 -2.7183 -0.5316
   69SAPC  C220 5912   0.774   7.299   4.658  0.1816  0.2746 -0.0886
   69SAPC  H20R 5913   0.731   7.388   4.709  1.2358 -0.3649  2.0664
   69SAPC  H20S 5914   0.841   7.338   4.579 -0.9962  2.7092  0.0292
   69SAPC  H20T 5915   0.822   7.230   4.731 -0.4091  0.2675  0.3072
   69SAPC   C33 5916   1.547   7.331   3.039  0.4285  0.2463  0.1081
   69SAPC   H3X 5917   1.472   7.391   2.983 -0.0412 -2.4344 -2.3741
   69SAPC   H3Y 5918   1.650   7.325   2.997 -0.0228  1.1163 -1.1866
   69SAPC   C34 5919   1.540   7.396   3.178  0.6883  0.1128 -0.6711
   69SAPC   H4X 5920   1.443   7.382   3.230  1.5301 -2.0798  0.4454
   69SAPC   H4Y 5921   1.557   7.505   3.170  0.4808  0.4047  1.9611
   69SAPC   C35 5922   1.655   7.346   3.270  0.4183 -0.3613  0.9150
   69SAPC   H5X 5923   1.750   7.352   3.212  0.0590 -1.3084  0.1998
   69SAPC   H5Y 5924   1.626   7.240   3.281 -2.3282 -0.0426 -1.8710
   69SAPC   C36 5925   1.660   7.423   3.394  0.3055 -0.2983 -0.6050
   69SAPC   H6X 5926   1.658   7.533   3.379 -0.2226  0.1061  1.9782
   69SAPC   H6Y 5927   1.745   7.386   3.455 -0.7851  3.2345  3.5324
   69SAPC   C37 5928   1.538   7.395   3.486 -0.1670  0.0018 -0.4366
   69SAPC   H7X 5929   1.515   7.286   3.482  0.7838 -0.3062  1.3210
   69SAPC   H7Y 5930   1.446   7.448   3.455 -0.8512 -1.3202 -0.7202
   69SAPC   C38 5931   1.566   7.432   3.637 -0.0005  0.3346 -0.0436
   69SAPC   H8X 5932   1.567   7.543   3.642  0.5636  0.3303  0.0363
   69SAPC   H8Y 5933   1.659   7.386   3.679 -0.6529  0.4900  1.6681
   69SAPC   C39 5934   1.464   7.381   3.738  0.0977 -0.0720  0.4461
   69SAPC   H9X 5935   1.472   7.270   3.733  2.1903 -0.2466  4.0450
   69SAPC   H9Y 5936   1.362   7.412   3.709  0.3567  0.3727 -0.0028
   69SAPC  C310 5937   1.494   7.438   3.871  0.1514 -0.2810 -0.3705
   69SAPC  H10X 5938   1.494   7.549   3.873  0.6865 -0.2326 -1.8072
   69SAPC  H10Y 5939   1.591   7.412   3.918  0.0990 -0.3913 -0.3241
   69SAPC  C311 5940   1.388   7.389   3.975  0.0294 -0.4322 -0.2805
   69SAPC  H11X 5941   1.417   7.283   3.990 -0.1271 -0.4288  0.0598
   69SAPC  H11Y 5942   1.286   7.401   3.934 -1.5088 -0.8949  3.1105
   69SAPC  C312 5943   1.382   7.470   4.107 -0.2953  0.1201 -0.0247
   69SAPC  H12X 5944   1.306   7.415   4.166 -0.8523 -0.7143 -1.4768
   69SAPC  H12Y 5945   1.339   7.570   4.085 -3.2316 -1.0861 -0.2955
   69SAPC  C313 5946   1.524   7.463   4.179 -0.1170 -0.0363 -0.0650
   69SAPC  H13X 5947   1.595   7.531   4.127  0.3813  0.0750  0.7443
   69SAPC  H13Y 5948   1.560   7.358   4.183 -0.3919 -0.1575 -0.6687
   69SAPC  C314 5949   1.514   7.506   4.328  0.3140 -0.3475 -0.3146
   69SAPC  H14X 5950   1.435   7.441   4.371 -0.9227 -0.0170 -1.9875
   69SAPC  H14Y 5951   1.463   7.604   4.318 -0.3213 -0.6641 -0.2219
   69SAPC  C315 5952   1.650   7.511   4.402  0.2319  0.3489  0.0742
   69SAPC  H15X 5953   1.708   7.572   4.329 -1.4088  0.9288 -0.7838
   69SAPC  H15Y 5954   1.701   7.412   4.407  1.1877  0.8407  0.3297
   69SAPC  C316 5955   1.646   7.574   4.543  0.4430  0.6798 -0.3005
   69SAPC  H16X 5956   1.588   7.670   4.547  1.2927  1.3161 -1.9737
   69SAPC  H16Y 5957   1.754   7.594   4.557  0.3511  1.0749 -0.1379
   69SAPC  C317 5958   1.595   7.490   4.657 -0.0334 -0.6571 -0.3411
   69SAPC  H17X 5959   1.486   7.475   4.641 -0.5762  1.5870  0.8715
   69SAPC  H17Y 5960   1.615   7.540   4.755 -1.1170 -1.3599  0.2635
   69SAPC  C318 5961   1.668   7.357   4.676 -0.8943  0.3141 -0.1984
   69SAPC  H18X 5962   1.652   7.292   4.588  0.7794  0.3943 -0.5933
   69SAPC  H18Y 5963   1.621   7.310   4.765  0.9516  2.3740  2.0006
   69SAPC  H18Z 5964   1.776   7.376   4.693 -1.5940  3.0023  2.1820
   70SAPC     N 5965   5.721   3.509   2.662 -0.2048 -0.2130 -0.1469
   70SAPC   C12 5966   5.644   3.429   2.560  0.6818  0.2007  0.6888
   70SAPC  H12A 5967   5.698   3.407   2.469  2.3774  1.8007  1.2574
   70SAPC  H12B 5968   5.554   3.482   2.533  1.1447  0.8061  0.3193
   70SAPC   C13 5969   5.641   3.532   2.786 -0.6423 -0.7484 -1.0972
   70SAPC  H13A 5970   5.689   3.603   2.851 -1.7606 -2.1082  1.3429
   70SAPC  H13B 5971   5.542   3.569   2.766 -0.2040  1.0861 -0.0744
   70SAPC  H13C 5972   5.628   3.442   2.844 -2.3370  0.0498 -0.1655
   70SAPC   C14 5973   5.851   3.436   2.701 -0.0052  0.1117  0.3172
   70SAPC  H14A 5974   5.836   3.340   2.748 -0.9104  1.5008  3.1333
   70SAPC  H14B 5975   5.907   3.417   2.611 -1.9769 -0.9655 -0.7505
   70SAPC  H14C 5976   5.923   3.495   2.755 -1.9688  0.2176  3.0662
   70SAPC   C15 5977   5.753   3.644   2.601  0.4816 -0.4645 -0.0065
   70SAPC  H15A 5978   5.799   3.711   2.672 -2.7954  1.9735  0.0665
   70SAPC  H15B 5979   5.819   3.630   2.517  1.2019  1.4696  0.1982
   70SAPC  H15C 5980   5.665   3.698   2.570  1.7493  0.7430 -1.6535
   70SAPC   C11 5981   5.594   3.291   2.614  1.0410 -0.6551 -0.3649
   70SAPC  H11A 5982   5.509   3.305   2.684  0.6035 -2.0088 -0.5984
   70SAPC  H11B 5983   5.682   3.242   2.660  1.9705  1.5977  0.3887
   70SAPC     P 5984   5.404   3.210   2.455 -0.2660  0.6243 -0.5227
   70SAPC   O13 5985   5.341   3.346   2.461 -0.4951 -0.2240 -0.2787
   70SAPC   O14 5986   5.411   3.154   2.317  0.4845  0.1628  0.0215
   70SAPC   O12 5987   5.552   3.220   2.498  0.1724  0.9518  0.3221
   70SAPC   O11 5988   5.351   3.113   2.570  0.4372  0.0641  0.2152
   70SAPC    C1 5989   5.371   2.970   2.592  0.1744  0.0819 -0.4105
   70SAPC    HA 5990   5.288   2.919   2.538 -0.9835  2.2638 -0.8149
   70SAPC    HB 5991   5.459   2.934   2.535  2.4566  1.6367  1.9276
   70SAPC    C2 5992   5.393   2.925   2.740 -0.0435 -0.1036  0.7539
   70SAPC    HS 5993   5.442   2.825   2.729  0.5834  0.3501 -1.0602
   70SAPC   O21 5994   5.264   2.919   2.807  0.1591 -0.9030 -0.6177
   70SAPC   C21 5995   5.265   2.836   2.913  0.9362 -0.3611  0.0706
   70SAPC   O22 5996   5.354   2.755   2.944  0.9529 -0.4477  0.4110
   70SAPC   C22 5997   5.125   2.856   2.987 -0.2094  0.2966  0.0105
   70SAPC   H2R 5998   5.100   2.964   2.993  0.0189  0.2744  2.1625
   70SAPC   H2S 5999   5.056   2.808   2.914 -1.3006  0.0042  1.2030
   70SAPC    C3 6000   5.500   3.015   2.820  0.3388 -0.1691 -0.4685
   70SAPC    HX 6001   5.465   3.120   2.826  1.0537  0.0750 -0.5455
   70SAPC    HY 6002   5.593   3.008   2.760  0.2147 -2.7128 -0.4979
   70SAPC   O31 6003   5.516   2.961   2.946 -0.1747 -0.0425 -0.2728
   70SAPC   C31 6004   5.631   2.904   2.976  0.1195 -0.6535 -0.3190
   70SAPC   O32 6005   5.729   2.895   2.896  0.0627  0.0528  0.0312
   70SAPC   C32 6006   5.621   2.839   3.122  0.7489  0.3761  0.4002
   70SAPC   H2X 6007   5.710   2.773   3.129  0.5458  0.2436  2.1350
   70SAPC   H2Y 6008   5.535   2.770   3.132  0.5701  0.7435  1.5512
   70SAPC   C23 6009   5.130   2.795   3.129 -1.3926  0.2064  0.3949
   70SAPC   H3R 6010   5.213   2.839   3.190 -2.2774 -1.9330  3.3754
   70SAPC   H3S 6011   5.157   2.688   3.115 -1.8195  0.1242  0.1839
   70SAPC   C24 6012   4.990   2.818   3.196 -0.5786 -0.2039  1.2032
   70SAPC   H4R 6013   4.966   2.750   3.281  2.3499 -2.5786  0.3164
   70SAPC   H4S 6014   4.915   2.798   3.117  0.4752 -0.9786  0.3718
   70SAPC   C25 6015   4.990   2.959   3.255 -0.0008  0.5347  0.1579
   70SAPC   H5R 6016   4.944   3.030   3.185  2.1130 -1.4815 -3.5223
   70SAPC   C26 6017   5.028   3.003   3.375  1.1581  0.5375  0.2274
   70SAPC   H6R 6018   5.018   3.109   3.400 -1.8929  0.6133 -0.9098
   70SAPC   C27 6019   5.078   2.910   3.486  0.3699  0.3027 -0.2206
   70SAPC   H7R 6020   5.079   2.801   3.462  0.3511  0.2661 -0.0555
   70SAPC   H7S 6021   5.000   2.925   3.564  0.2023  1.8952 -0.6651
   70SAPC   C28 6022   5.208   2.944   3.548 -0.2854 -0.2866  0.6759
   70SAPC   H8R 6023   5.288   2.966   3.476 -0.6594 -0.5360  0.1773
   70SAPC   C29 6024   5.246   2.914   3.672  0.2863 -0.5581  0.0452
   70SAPC   H9R 6025   5.344   2.950   3.708 -0.5005  2.5818 -0.6842
   70SAPC  C210 6026   5.150   2.864   3.776 -0.3250  0.5153  0.1130
   70SAPC  H10R 6027   5.043   2.847   3.754 -0.6117  0.9754  1.1149
   70SAPC  H10S 6028   5.143   2.940   3.856 -0.3013  0.0694  0.5456
   70SAPC  C211 6029   5.208   2.736   3.836  0.9948 -0.4449  0.7264
   70SAPC  H11R 6030   5.179   2.650   3.773  1.2348  1.3800 -2.0719
   70SAPC  C212 6031   5.280   2.722   3.948 -0.5464 -0.2603 -1.2201
   70SAPC  H12R 6032   5.323   2.624   3.971  2.1602  0.8919 -0.9880
   70SAPC  C213 6033   5.320   2.839   4.045  0.0645  0.2221 -0.4122
   70SAPC  H13R 6034   5.330   2.932   3.984 -1.1315  1.8450  1.7657
   70SAPC  H13S 6035   5.422   2.830   4.089 -0.6945  2.3731  1.9689
   70SAPC  C214 6036   5.215   2.875   4.152 -0.1618 -0.1561  0.5834
   70SAPC  H14R 6037   5.116   2.891   4.107  0.4526 -1.3068 -1.2847
   70SAPC  C215 6038   5.230   2.902   4.287 -0.1117  0.3561 -0.2462
   70SAPC  H15R 6039   5.140   2.923   4.347 -1.2631 -0.5851 -1.5664
   70SAPC  C216 6040   5.368   2.910   4.357 -0.4770 -0.2964 -1.1967
   70SAPC  H16R 6041   5.383   3.005   4.413  0.9353 -0.8463 -0.6035
   70SAPC  H16S 6042   5.448   2.906   4.281 -0.0082 -3.4686 -0.6573
   70SAPC  C217 6043   5.406   2.793   4.450 -1.1097 -0.5772  0.1364
   70SAPC  H17R 6044   5.412   2.704   4.384  2.6824 -1.2967  1.2329
   70SAPC  H17S 6045   5.336   2.784   4.536 -0.6921 -1.0901  0.4211
   70SAPC  C218 6046   5.550   2.832   4.508  0.0515  0.4217 -0.1276
   70SAPC  H18R 6047   5.534   2.874   4.609  1.1037  3.6907 -1.2092
   70SAPC  H18S 6048   5.602   2.906   4.444 -0.5803  0.9183 -0.0841
   70SAPC  C219 6049   5.642   2.712   4.544  0.2860 -0.2017 -0.2004
   70SAPC  H19R 6050   5.646   2.640   4.460 -2.0470 -1.1414  0.4130
   70SAPC  H19S 6051   5.599   2.662   4.634 -2.1675 -1.4829 -1.9507
   70SAPC  C220 6052   5.783   2.756   4.572  0.5569 -0.3051 -0.7045
   70SAPC  H20R 6053   5.822   2.815   4.487 -2.9467  1.6823 -1.1460
   70SAPC  H20S 6054   5.857   2.677   4.596  0.1339 -0.1485  1.2998
   70SAPC  H20T 6055   5.787   2.825   4.660 -0.4016 -1.6547  0.4483
   70SAPC   C33 6056   5.614   2.946   3.242  0.6351 -0.7604 -0.0160
   70SAPC   H3X 6057   5.524   3.007   3.222  0.1721 -2.1213 -2.4938
   70SAPC   H3Y 6058   5.704   3.012   3.248 -0.0091  0.0911  0.4323
   70SAPC   C34 6059   5.608   2.891   3.382 -0.0455 -0.1550  1.6789
   70SAPC   H4X 6060   5.689   2.815   3.384  2.1293  1.9665 -0.1252
   70SAPC   H4Y 6061   5.506   2.850   3.398 -0.0713 -0.5416  0.5760
   70SAPC   C35 6062   5.652   2.982   3.493  0.3111  0.2226  0.5713
   70SAPC   H5X 6063   5.581   3.066   3.509 -0.6080 -0.4714  0.2071
   70SAPC   H5Y 6064   5.753   3.023   3.468  0.8287 -1.3157  0.0401
   70SAPC   C36 6065   5.647   2.906   3.632  0.5696 -0.6535  0.5425
   70SAPC   H6X 6066   5.699   2.808   3.629 -0.8161 -1.3806 -1.5315
   70SAPC   H6Y 6067   5.538   2.892   3.648  0.8051 -1.4221  1.5954
   70SAPC   C37 6068   5.701   2.980   3.749 -0.5413  0.1808  0.3144
   70SAPC   H7X 6069   5.811   2.966   3.742 -0.8576 -1.8489 -2.1867
   70SAPC   H7Y 6070   5.683   3.090   3.739  2.1652  0.6768  0.0004
   70SAPC   C38 6071   5.666   2.920   3.888  0.2023 -0.8784  0.0653
   70SAPC   H8X 6072   5.661   2.811   3.868  1.1545 -0.2695 -4.7188
   70SAPC   H8Y 6073   5.562   2.951   3.913  0.9649 -0.3338  3.0185
   70SAPC   C39 6074   5.760   2.963   3.998 -0.4885 -0.1691  0.3849
   70SAPC   H9X 6075   5.733   3.063   4.039 -0.3978 -0.0702  0.2036
   70SAPC   H9Y 6076   5.861   2.981   3.955 -0.9644 -0.5686 -0.9466
   70SAPC  C310 6077   5.780   2.859   4.110  0.2414  0.9843 -0.2166
   70SAPC  H10X 6078   5.792   2.756   4.071 -2.5947 -0.0292  1.2824
   70SAPC  H10Y 6079   5.695   2.848   4.181  1.9432 -1.9149  1.5758
   70SAPC  C311 6080   5.904   2.880   4.201  0.7894 -0.3173  0.1413
   70SAPC  H11X 6081   5.993   2.898   4.137 -0.4121  1.3826 -1.1419
   70SAPC  H11Y 6082   5.915   2.795   4.271  0.7913 -0.6037 -0.2035
   70SAPC  C312 6083   5.891   3.002   4.294 -0.4807 -0.0522  0.2881
   70SAPC  H12X 6084   5.806   2.988   4.365 -0.8370 -2.2891 -0.4931
   70SAPC  H12Y 6085   5.883   3.100   4.242 -0.5598  0.8182  1.8701
   70SAPC  C313 6086   6.027   3.016   4.377 -0.7791  0.1462  0.1707
   70SAPC  H13X 6087   6.102   3.028   4.296 -0.6058 -0.8477  0.1692
   70SAPC  H13Y 6088   6.069   2.935   4.440  0.8631  1.1023  0.3695
   70SAPC  C314 6089   6.027   3.139   4.469 -0.1225 -0.5794 -0.1302
   70SAPC  H14X 6090   5.947   3.210   4.442  0.3130 -0.4758 -1.1868
   70SAPC  H14Y 6091   6.125   3.190   4.479 -0.4376  0.4106 -1.7722
   70SAPC  C315 6092   6.003   3.091   4.613  0.0637 -0.1161 -0.4928
   70SAPC  H15X 6093   6.086   3.020   4.633  0.6816  0.3708 -1.2481
   70SAPC  H15Y 6094   5.907   3.042   4.639  0.3373 -0.1941  0.3965
   70SAPC  C316 6095   6.000   3.208   4.715 -0.1196  0.3035  0.7714
   70SAPC  H16X 6096   5.923   3.279   4.678 -0.4636 -0.2087  0.4906
   70SAPC  H16Y 6097   6.088   3.275   4.711 -0.8709  1.2468 -1.0336
   70SAPC  C317 6098   5.957   3.167   4.854 -0.5020  0.2868 -0.4970
   70SAPC  H17X 6099   6.048   3.124   4.901  1.2145  1.3899 -2.6163
   70SAPC  H17Y 6100   5.871   3.097   4.851  0.1053 -0.4768 -0.6677
   70SAPC  C318 6101   5.908   3.285   4.943 -0.1520 -0.6410  0.2314
   70SAPC  H18X 6102   5.892   3.251   5.048  2.1269 -0.6849  0.6296
   70SAPC  H18Y 6103   5.814   3.328   4.905  1.7093  0.3000 -3.8431
   70SAPC  H18Z 6104   5.969   3.377   4.933 -2.3993  1.1025  1.6523
   71SAPC     N 6105   2.150   0.909   2.357  0.0021 -0.1403 -0.2341
   71SAPC   C12 6106   2.007   0.950   2.364  0.4680  0.6914 -0.0768
   71SAPC  H12A 6107   1.936   0.872   2.337  1.5420 -0.1592 -0.5303
   71SAPC  H12B 6108   2.004   1.014   2.277  1.1142  0.3878 -0.3293
   71SAPC   C13 6109   2.178   0.817   2.476 -0.2840 -0.2159 -0.2499
   71SAPC  H13A 6110   2.146   0.850   2.573  0.5793 -0.3296  0.0835
   71SAPC  H13B 6111   2.145   0.717   2.452 -1.1521  0.2756 -1.1836
   71SAPC  H13C 6112   2.284   0.801   2.484  0.2841  1.3286 -3.2752
   71SAPC   C14 6113   2.169   0.821   2.234  0.2504  0.5882  0.0627
   71SAPC  H14A 6114   2.101   0.738   2.220 -0.0173  1.2755 -3.7186
   71SAPC  H14B 6115   2.150   0.885   2.149 -1.5814 -0.5678 -0.4444
   71SAPC  H14C 6116   2.267   0.776   2.242 -0.4694 -1.0212  0.2787
   71SAPC   C15 6117   2.249   1.012   2.355  0.8994 -0.1599 -0.6498
   71SAPC  H15A 6118   2.216   1.075   2.437 -0.4256  1.0484 -2.0489
   71SAPC  H15B 6119   2.351   0.985   2.377  0.6288 -0.2075  0.6467
   71SAPC  H15C 6120   2.239   1.070   2.264 -0.2529  0.2324 -0.3029
   71SAPC   C11 6121   1.959   1.032   2.483 -0.9528  0.0907 -0.2543
   71SAPC  H11A 6122   1.957   0.967   2.573 -0.8414 -0.6127 -0.7528
   71SAPC  H11B 6123   1.852   1.052   2.462 -0.7531 -0.2664 -1.7101
   71SAPC     P 6124   1.985   1.291   2.484  0.1934 -0.0503  0.1280
   71SAPC   O13 6125   2.104   1.380   2.457 -0.3501  0.9603 -0.2325
   71SAPC   O14 6126   1.889   1.283   2.373  0.4407  0.0168 -0.1907
   71SAPC   O12 6127   2.041   1.147   2.516  0.2952  0.5459  0.4507
   71SAPC   O11 6128   1.914   1.342   2.621  0.1617  0.1919  0.2488
   71SAPC    C1 6129   1.806   1.265   2.686 -0.4132 -0.5071  0.8212
   71SAPC    HA 6130   1.749   1.207   2.610 -0.9762  0.7001  0.3037
   71SAPC    HB 6131   1.854   1.187   2.750  0.4032 -1.2584 -0.6534
   71SAPC    C2 6132   1.710   1.334   2.775  0.0407 -0.0921 -0.2921
   71SAPC    HS 6133   1.659   1.408   2.709  2.2395  0.7185 -1.1588
   71SAPC   O21 6134   1.790   1.399   2.878  0.1189  0.4345 -0.3046
   71SAPC   C21 6135   1.759   1.522   2.911  0.0352 -1.0302  0.0628
   71SAPC   O22 6136   1.665   1.589   2.866 -0.2461  0.3908  0.5683
   71SAPC   C22 6137   1.849   1.566   3.027 -0.5706 -0.2877  0.0332
   71SAPC   H2R 6138   1.892   1.477   3.078  2.0258  0.9324  0.1596
   71SAPC   H2S 6139   1.939   1.609   2.978 -0.8631 -1.5695 -1.7480
   71SAPC    C3 6140   1.592   1.245   2.832  0.8758  0.8964 -0.1433
   71SAPC    HX 6141   1.623   1.167   2.905 -3.1668  1.0942  2.0671
   71SAPC    HY 6142   1.544   1.194   2.746 -0.1770 -1.4642  1.7335
   71SAPC   O31 6143   1.497   1.319   2.910 -0.3168 -0.0877  0.1141
   71SAPC   C31 6144   1.391   1.375   2.841 -0.2122  0.6102 -0.3726
   71SAPC   O32 6145   1.366   1.364   2.723  0.3792 -0.4152 -0.4521
   71SAPC   C32 6146   1.307   1.451   2.943 -0.0867 -0.5835 -0.1426
   71SAPC   H2X 6147   1.297   1.560   2.924 -3.2311 -0.8191 -0.4719
   71SAPC   H2Y 6148   1.352   1.436   3.043 -2.5831  0.0687  1.1800
   71SAPC   C23 6149   1.770   1.666   3.108  0.1859 -1.1583  0.7716
   71SAPC   H3R 6150   1.741   1.742   3.033  1.9311  1.7699  2.8368
   71SAPC   H3S 6151   1.835   1.727   3.173  0.7233 -0.3750 -0.4759
   71SAPC   C24 6152   1.653   1.604   3.186  0.2115  0.0695 -0.0876
   71SAPC   H4R 6153   1.573   1.611   3.110  1.7273  1.2720 -1.6245
   71SAPC   H4S 6154   1.625   1.672   3.269  0.0182 -1.4844  1.1901
   71SAPC   C25 6155   1.662   1.461   3.220 -0.6673  0.5976  0.4595
   71SAPC   H5R 6156   1.685   1.390   3.139 -1.3241 -0.1595  0.9143
   71SAPC   C26 6157   1.623   1.409   3.335  0.1338  1.0702 -0.3529
   71SAPC   H6R 6158   1.610   1.300   3.333  0.7818  0.9971 -1.3491
   71SAPC   C27 6159   1.563   1.484   3.455  0.0704  0.4158  0.0640
   71SAPC   H7R 6160   1.519   1.406   3.520 -0.1649 -1.2600 -2.0028
   71SAPC   H7S 6161   1.472   1.539   3.420  0.0675 -0.5701 -1.5994
   71SAPC   C28 6162   1.666   1.575   3.520 -0.5865 -0.4341  0.4626
   71SAPC   H8R 6163   1.732   1.632   3.453 -0.5101 -1.3475 -0.2629
   71SAPC   C29 6164   1.691   1.581   3.652  0.7158 -0.2384  0.3061
   71SAPC   H9R 6165   1.772   1.650   3.678 -1.0922  1.5777  1.3708
   71SAPC  C210 6166   1.645   1.493   3.770  0.2212 -0.0564  0.1106
   71SAPC  H10R 6167   1.737   1.457   3.821 -0.7084  1.6845  3.2158
   71SAPC  H10S 6168   1.589   1.405   3.732  0.9874  0.0262 -1.3051
   71SAPC  C211 6169   1.557   1.569   3.862 -0.1412  0.4226  0.5389
   71SAPC  H11R 6170   1.450   1.559   3.840  0.3544 -0.9673 -1.5139
   71SAPC  C212 6171   1.590   1.647   3.961 -0.2205  0.4941  0.3262
   71SAPC  H12R 6172   1.501   1.682   4.016 -1.5770 -1.1630 -0.6936
   71SAPC  C213 6173   1.724   1.685   4.010  0.2466 -0.4145  0.0690
   71SAPC  H13R 6174   1.806   1.631   3.958  1.6203  2.0318 -0.4571
   71SAPC  H13S 6175   1.727   1.659   4.118 -1.3754  2.6159  0.9656
   71SAPC  C214 6176   1.743   1.825   3.974 -0.5226  0.1578  1.0081
   71SAPC  H14R 6177   1.779   1.845   3.872 -1.7260 -0.9841  0.3229
   71SAPC  C215 6178   1.703   1.929   4.049 -0.1581  1.2905  0.1360
   71SAPC  H15R 6179   1.733   2.030   4.018  1.6423  0.1664 -2.0540
   71SAPC  C216 6180   1.638   1.911   4.188 -0.3663  0.5830  0.0743
   71SAPC  H16R 6181   1.590   1.810   4.188 -1.3068  1.0138  1.3222
   71SAPC  H16S 6182   1.553   1.981   4.197  1.3375  2.6911  0.4256
   71SAPC  C217 6183   1.734   1.932   4.307 -1.6732  0.1171  0.4134
   71SAPC  H17R 6184   1.791   2.027   4.296  1.6205 -1.6985  0.3912
   71SAPC  H17S 6185   1.814   1.856   4.324 -1.0310  0.7483  0.2664
   71SAPC  C218 6186   1.668   1.941   4.445  0.2770  0.2570 -0.7904
   71SAPC  H18R 6187   1.744   1.926   4.525  1.2388  0.8961 -1.5619
   71SAPC  H18S 6188   1.589   1.864   4.456  0.4732 -0.0115 -1.2082
   71SAPC  C219 6189   1.609   2.079   4.472 -0.1746 -0.4098  0.2768
   71SAPC  H19R 6190   1.515   2.087   4.414 -0.6547 -3.2390  0.5039
   71SAPC  H19S 6191   1.686   2.147   4.429 -2.3962 -0.1028 -3.7519
   71SAPC  C220 6192   1.588   2.122   4.624 -0.2303  0.1603 -1.2572
   71SAPC  H20R 6193   1.569   2.231   4.630 -1.6040 -0.1367  1.7090
   71SAPC  H20S 6194   1.670   2.090   4.691 -1.1550  1.7058  0.7369
   71SAPC  H20T 6195   1.495   2.073   4.661  1.6107 -1.4348  1.5894
   71SAPC   C33 6196   1.170   1.383   2.978 -0.0687  0.2337  0.0259
   71SAPC   H3X 6197   1.180   1.273   2.978 -2.4892 -0.0411 -0.6026
   71SAPC   H3Y 6198   1.111   1.421   2.892  0.9930 -1.0961 -1.3495
   71SAPC   C34 6199   1.117   1.439   3.113  0.4027 -0.0161  0.4943
   71SAPC   H4X 6200   1.009   1.411   3.108  0.5402 -0.9589  2.0948
   71SAPC   H4Y 6201   1.130   1.549   3.100  1.8926 -0.0658  1.3594
   71SAPC   C35 6202   1.184   1.386   3.239 -0.1173 -0.4551 -0.3422
   71SAPC   H5X 6203   1.277   1.444   3.260  1.4630 -1.5812 -3.5049
   71SAPC   H5Y 6204   1.226   1.285   3.220  1.5066 -0.2110  1.6136
   71SAPC   C36 6205   1.091   1.392   3.362 -1.1146  0.6917  0.0160
   71SAPC   H6X 6206   1.031   1.299   3.356  1.6169 -1.1314 -1.8416
   71SAPC   H6Y 6207   1.024   1.480   3.359 -0.3414  1.3246  0.6096
   71SAPC   C37 6208   1.170   1.391   3.501 -0.0404  0.3796  0.6809
   71SAPC   H7X 6209   1.249   1.467   3.482  0.1892 -0.0936 -0.3278
   71SAPC   H7Y 6210   1.219   1.292   3.505  0.8820  0.8044  0.2608
   71SAPC   C38 6211   1.077   1.420   3.617 -1.0041  0.0682 -0.3851
   71SAPC   H8X 6212   0.986   1.360   3.597 -0.6354 -1.3782  1.9991
   71SAPC   H8Y 6213   1.049   1.526   3.599 -0.6958 -0.2407 -3.0868
   71SAPC   C39 6214   1.140   1.402   3.760 -0.6538  0.5155  0.3861
   71SAPC   H9X 6215   1.237   1.456   3.761 -0.3636  0.0716  2.7834
   71SAPC   H9Y 6216   1.161   1.293   3.763 -0.9869  0.4524  0.5021
   71SAPC  C310 6217   1.043   1.446   3.870 -0.6801 -0.7995  0.5067
   71SAPC  H10X 6218   0.949   1.388   3.853 -1.1013  0.0528 -0.1832
   71SAPC  H10Y 6219   1.023   1.553   3.847 -0.2323 -1.0776 -1.3806
   71SAPC  C311 6220   1.097   1.434   4.016  0.1408  0.0751  0.3562
   71SAPC  H11X 6221   1.186   1.500   4.010 -0.9228  1.4347 -1.6839
   71SAPC  H11Y 6222   1.137   1.335   4.046  0.1753  0.5775  2.1077
   71SAPC  C312 6223   0.994   1.486   4.116 -0.6101 -0.3345 -0.3678
   71SAPC  H12X 6224   0.910   1.416   4.095  0.3371 -1.1197 -1.6437
   71SAPC  H12Y 6225   0.942   1.576   4.077 -1.3056 -0.7271 -0.3581
   71SAPC  C313 6226   1.042   1.481   4.256  0.2362  0.5965  0.0283
   71SAPC  H13X 6227   1.133   1.544   4.265 -0.3787  1.3507  1.3466
   71SAPC  H13Y 6228   1.066   1.375   4.278 -0.4383  0.4951  0.2971
   71SAPC  C314 6229   0.937   1.535   4.346 -0.4471 -0.1986 -0.2762
   71SAPC  H14X 6230   0.851   1.465   4.350  1.1251 -2.1490  2.1249
   71SAPC  H14Y 6231   0.886   1.630   4.318 -1.8725 -0.6607  0.6607
   71SAPC  C315 6232   0.984   1.545   4.495  0.7110  0.0041  0.1862
   71SAPC  H15X 6233   1.049   1.635   4.498 -1.4278  1.6098  0.9415
   71SAPC  H15Y 6234   1.050   1.457   4.510 -0.1809 -0.7619 -0.3229
   71SAPC  C316 6235   0.865   1.576   4.595 -0.3021  0.4569 -0.3721
   71SAPC  H16X 6236   0.794   1.647   4.547 -1.7043 -1.4451 -1.2533
   71SAPC  H16Y 6237   0.900   1.620   4.691  1.0079 -1.6378  0.1713
   71SAPC  C317 6238   0.791   1.450   4.652  0.0842  0.0126  0.2769
   71SAPC  H17X 6239   0.758   1.399   4.560  2.3352 -1.7506  0.3515
   71SAPC  H17Y 6240   0.708   1.475   4.722 -0.4240  0.1306 -0.3555
   71SAPC  C318 6241   0.880   1.355   4.739  0.1393  0.1596  0.0938
   71SAPC  H18X 6242   0.892   1.408   4.836 -0.0982  1.5389 -0.6024
   71SAPC  H18Y 6243   0.976   1.326   4.691 -0.6864 -1.3285 -0.7306
   71SAPC  H18Z 6244   0.824   1.269   4.779  0.8680 -0.0225  0.7513
   72SAPC     N 6245   2.414   5.546   2.119 -0.0651  0.1878 -0.2113
   72SAPC   C12 6246   2.304   5.612   2.204  0.8193  0.6551 -0.5215
   72SAPC  H12A 6247   2.214   5.619   2.144  1.1803 -0.2298 -1.1847
   72SAPC  H12B 6248   2.335   5.714   2.220 -0.5685  0.8484  1.2197
   72SAPC   C13 6249   2.431   5.603   1.985 -0.4017  0.4878 -0.3948
   72SAPC  H13A 6250   2.514   5.564   1.927  0.2494  0.6925  0.3923
   72SAPC  H13B 6251   2.337   5.595   1.932 -3.4759  1.2114  4.4230
   72SAPC  H13C 6252   2.448   5.709   1.983  1.2909  0.2421 -1.5643
   72SAPC   C14 6253   2.544   5.565   2.193  0.4490  0.1693  0.4722
   72SAPC  H14A 6254   2.545   5.670   2.214 -0.7915  0.3435 -0.2132
   72SAPC  H14B 6255   2.551   5.505   2.283  0.7779  0.2458  0.4971
   72SAPC  H14C 6256   2.627   5.523   2.138  0.7904 -1.4223  2.0785
   72SAPC   C15 6257   2.393   5.397   2.102 -0.5239  0.3679  0.4868
   72SAPC  H15A 6258   2.377   5.347   2.196 -2.3073 -2.5564 -1.2412
   72SAPC  H15B 6259   2.297   5.383   2.055  1.2224 -2.1496 -2.7539
   72SAPC  H15C 6260   2.477   5.353   2.050 -0.8394 -1.2649  1.2944
   72SAPC   C11 6261   2.288   5.565   2.350  0.0959 -0.0178  0.4723
   72SAPC  H11A 6262   2.228   5.637   2.410  2.6394  1.5962  1.2128
   72SAPC  H11B 6263   2.383   5.567   2.406  2.0020  0.8364 -2.5405
   72SAPC     P 6264   2.076   5.409   2.362 -0.2627 -0.1559 -0.3409
   72SAPC   O13 6265   2.001   5.504   2.287 -0.1646 -0.0226  0.0984
   72SAPC   O14 6266   2.047   5.273   2.321 -0.0163  0.8088  0.1158
   72SAPC   O12 6267   2.230   5.434   2.357 -0.1481 -0.4348 -0.2346
   72SAPC   O11 6268   2.046   5.423   2.511 -0.2408 -0.1710 -0.7543
   72SAPC    C1 6269   2.142   5.401   2.617 -0.4662  0.7481 -0.2693
   72SAPC    HA 6270   2.175   5.296   2.605 -0.2654  0.9807 -2.0222
   72SAPC    HB 6271   2.231   5.467   2.611 -0.3997  0.5333 -2.0286
   72SAPC    C2 6272   2.067   5.409   2.754  0.0389 -0.6824 -0.7125
   72SAPC    HS 6273   2.055   5.519   2.764  0.4559 -0.5579 -1.4986
   72SAPC   O21 6274   2.156   5.361   2.857 -0.2243  0.0924  0.4746
   72SAPC   C21 6275   2.168   5.422   2.975 -0.1319  0.3951 -0.1606
   72SAPC   O22 6276   2.085   5.501   3.023  0.2909  0.0066  0.4640
   72SAPC   C22 6277   2.286   5.381   3.061 -0.0459  0.6749 -0.2584
   72SAPC   H2R 6278   2.287   5.270   3.060  1.1541  0.6678  0.1781
   72SAPC   H2S 6279   2.381   5.401   3.008  0.5417  0.4778  0.6934
   72SAPC    C3 6280   1.929   5.336   2.749  0.0230  0.0443 -0.4054
   72SAPC    HX 6281   1.956   5.237   2.708 -1.5822 -0.7051  0.2752
   72SAPC    HY 6282   1.861   5.393   2.682  1.1464 -0.2008 -1.8090
   72SAPC   O31 6283   1.867   5.330   2.880  0.5390 -0.4142  0.1062
   72SAPC   C31 6284   1.864   5.217   2.943  0.0898 -0.0455  0.0990
   72SAPC   O32 6285   1.907   5.108   2.899  0.2888  0.0781  0.1569
   72SAPC   C32 6286   1.797   5.243   3.082  0.2745  0.5640 -0.8476
   72SAPC   H2X 6287   1.739   5.335   3.059 -0.7870  0.6821  1.9158
   72SAPC   H2Y 6288   1.877   5.264   3.157 -0.0649 -1.6848  0.2238
   72SAPC   C23 6289   2.290   5.446   3.200  0.3516  0.1166 -0.6451
   72SAPC   H3R 6290   2.268   5.554   3.189 -0.2266  0.1063  0.3687
   72SAPC   H3S 6291   2.393   5.426   3.235 -0.2793 -0.4484  0.9901
   72SAPC   C24 6292   2.185   5.392   3.298 -0.9375  0.0929 -0.2574
   72SAPC   H4R 6293   2.213   5.287   3.318 -1.6539 -0.1355 -0.3967
   72SAPC   H4S 6294   2.086   5.391   3.247 -0.4054  0.3186 -1.3059
   72SAPC   C25 6295   2.176   5.465   3.436  1.0868  0.1286  0.0816
   72SAPC   H5R 6296   2.271   5.476   3.491  0.5680 -0.1935  1.0802
   72SAPC   C26 6297   2.062   5.507   3.496  0.6681  0.4518  0.3961
   72SAPC   H6R 6298   2.074   5.551   3.597  2.2779 -2.0233  1.3897
   72SAPC   C27 6299   1.921   5.489   3.444 -0.8155 -0.6786 -0.5060
   72SAPC   H7R 6300   1.892   5.386   3.474  0.5840 -0.6289  1.1800
   72SAPC   H7S 6301   1.916   5.498   3.334  2.0085  0.4134 -0.6159
   72SAPC   C28 6302   1.828   5.594   3.497 -0.4384 -0.0721  0.1466
   72SAPC   H8R 6303   1.780   5.663   3.426 -0.2283 -0.4659 -0.3898
   72SAPC   C29 6304   1.780   5.597   3.623  0.8941 -0.2343 -0.4568
   72SAPC   H9R 6305   1.716   5.681   3.656 -0.6476 -2.0689  1.4759
   72SAPC  C210 6306   1.825   5.505   3.731  0.1371  0.5496 -0.0901
   72SAPC  H10R 6307   1.869   5.411   3.691 -0.3222  0.1028  0.4375
   72SAPC  H10S 6308   1.734   5.473   3.786 -0.2507  0.5800 -0.7099
   72SAPC  C211 6309   1.925   5.569   3.827 -0.0145  0.5875  0.4565
   72SAPC  H11R 6310   1.908   5.678   3.823 -1.6136  0.3381  0.0065
   72SAPC  C212 6311   2.013   5.524   3.915 -0.7582  0.9552  0.6076
   72SAPC  H12R 6312   2.077   5.598   3.965  0.7019  0.2265 -0.1327
   72SAPC  C213 6313   2.048   5.378   3.953 -0.6937  0.3385 -0.7665
   72SAPC  H13R 6314   2.126   5.351   3.879 -0.1794 -0.6996  0.1193
   72SAPC  H13S 6315   1.962   5.309   3.941 -1.8874  1.4067  1.1110
   72SAPC  C214 6316   2.096   5.347   4.096 -0.1252 -0.0807  0.4692
   72SAPC  H14R 6317   2.204   5.332   4.113 -0.5419 -1.2409  2.2317
   72SAPC  C215 6318   2.014   5.345   4.202 -0.7893  0.7517 -1.0427
   72SAPC  H15R 6319   2.068   5.330   4.297 -0.4934 -0.9292 -1.4600
   72SAPC  C216 6320   1.873   5.385   4.210 -0.5818 -0.6998 -0.9263
   72SAPC  H16R 6321   1.807   5.303   4.245  1.0754 -2.1686 -1.1144
   72SAPC  H16S 6322   1.831   5.418   4.112 -0.3696  0.6410 -0.5986
   72SAPC  C217 6323   1.861   5.513   4.295 -0.1557  0.3439 -0.0102
   72SAPC  H17R 6324   1.939   5.581   4.256  0.4874 -0.7417 -0.6657
   72SAPC  H17S 6325   1.892   5.488   4.399 -1.1618  2.1771  0.7765
   72SAPC  C218 6326   1.722   5.575   4.291  0.2911 -1.3575  1.0987
   72SAPC  H18R 6327   1.716   5.670   4.348  1.3916 -0.3051 -0.4586
   72SAPC  H18S 6328   1.646   5.506   4.335 -0.8409 -0.1371  1.1081
   72SAPC  C219 6329   1.674   5.609   4.147  0.1610  0.6075  0.2145
   72SAPC  H19R 6330   1.647   5.518   4.088 -1.7695  0.9761  0.4730
   72SAPC  H19S 6331   1.770   5.651   4.111  0.8024 -0.7691  0.2232
   72SAPC  C220 6332   1.557   5.705   4.154  0.2291 -0.4127 -0.4052
   72SAPC  H20R 6333   1.496   5.685   4.245 -0.7229  0.8696 -0.7271
   72SAPC  H20S 6334   1.497   5.704   4.061  1.0690  1.1456 -1.0022
   72SAPC  H20T 6335   1.595   5.808   4.171  2.9918 -0.8143 -3.3053
   72SAPC   C33 6336   1.725   5.119   3.119  1.1356 -0.0144 -0.0752
   72SAPC   H3X 6337   1.788   5.030   3.140  1.0589 -0.1491 -0.4228
   72SAPC   H3Y 6338   1.655   5.091   3.038  2.8543 -2.2560 -0.8877
   72SAPC   C34 6339   1.638   5.155   3.245  0.2678 -0.5788  0.0235
   72SAPC   H4X 6340   1.541   5.101   3.243 -0.0510 -0.0484  0.6922
   72SAPC   H4Y 6341   1.618   5.264   3.237 -1.9786 -0.9764 -0.3382
   72SAPC   C35 6342   1.700   5.140   3.382 -0.6154  0.2491 -0.3479
   72SAPC   H5X 6343   1.797   5.193   3.393 -1.2047  1.3299 -0.1590
   72SAPC   H5Y 6344   1.710   5.030   3.395 -1.4404  0.1053 -0.8862
   72SAPC   C36 6345   1.608   5.183   3.502 -0.3438  0.2219 -0.1973
   72SAPC   H6X 6346   1.504   5.154   3.475  0.9515 -1.4070 -4.2392
   72SAPC   H6Y 6347   1.617   5.294   3.508 -0.5746  0.4001 -2.2018
   72SAPC   C37 6348   1.665   5.123   3.630  0.1521 -0.2759  0.2949
   72SAPC   H7X 6349   1.774   5.143   3.640  0.0704 -0.2035  1.0896
   72SAPC   H7Y 6350   1.661   5.012   3.619  1.4074 -0.1806 -1.5145
   72SAPC   C38 6351   1.582   5.165   3.757  0.5399 -0.0655 -0.4934
   72SAPC   H8X 6352   1.480   5.172   3.714 -1.1584  0.5430  3.2286
   72SAPC   H8Y 6353   1.601   5.270   3.785 -0.9865  0.0892  0.0534
   72SAPC   C39 6354   1.586   5.074   3.876 -0.5162 -0.5566  0.0197
   72SAPC   H9X 6355   1.693   5.078   3.908 -0.9833  1.9854  1.5422
   72SAPC   H9Y 6356   1.561   4.970   3.843 -0.8038  0.2758 -2.6477
   72SAPC  C310 6357   1.485   5.105   3.978 -0.6282  0.4519  0.2693
   72SAPC  H10X 6358   1.489   5.023   4.053 -0.7366  0.5385  0.3684
   72SAPC  H10Y 6359   1.380   5.104   3.941 -0.8441 -0.1012  0.8808
   72SAPC  C311 6360   1.511   5.237   4.035 -0.1306  0.9595 -0.8441
   72SAPC  H11X 6361   1.502   5.316   3.957 -0.2298  1.2779 -0.5167
   72SAPC  H11Y 6362   1.612   5.259   4.077 -0.8852  0.7192  1.2251
   72SAPC  C312 6363   1.409   5.258   4.157 -0.1449  0.4766 -0.3891
   72SAPC  H12X 6364   1.313   5.210   4.128  0.0803 -0.8795  1.0119
   72SAPC  H12Y 6365   1.394   5.366   4.173 -1.3812  0.1256  0.9756
   72SAPC  C313 6366   1.461   5.204   4.290 -0.3636 -0.0643  1.0814
   72SAPC  H13X 6367   1.539   5.269   4.334  1.2482 -0.5738 -0.8552
   72SAPC  H13Y 6368   1.521   5.111   4.281  1.3342  0.8018  2.7367
   72SAPC  C314 6369   1.343   5.165   4.378 -0.1539 -0.1884  0.5384
   72SAPC  H14X 6370   1.261   5.121   4.317 -0.4631 -1.7795  2.0145
   72SAPC  H14Y 6371   1.301   5.258   4.421  0.1807 -0.7590  2.2182
   72SAPC  C315 6372   1.381   5.083   4.498  0.3119  0.0458  0.0682
   72SAPC  H15X 6373   1.417   4.983   4.466 -2.4354 -1.0276  0.0687
   72SAPC  H15Y 6374   1.293   5.057   4.561  0.6553 -0.1570  0.4703
   72SAPC  C316 6375   1.495   5.142   4.584 -0.4832 -0.5384 -0.3628
   72SAPC  H16X 6376   1.576   5.175   4.516 -2.8367  1.5077 -2.4023
   72SAPC  H16Y 6377   1.532   5.056   4.644  0.4059 -0.8235 -1.2934
   72SAPC  C317 6378   1.450   5.259   4.677 -0.3023 -0.6961 -0.1304
   72SAPC  H17X 6379   1.380   5.216   4.751 -2.3914  1.4729 -0.7192
   72SAPC  H17Y 6380   1.402   5.340   4.618  0.1177 -0.2001  0.2025
   72SAPC  C318 6381   1.564   5.316   4.756 -0.6296  0.3838  0.4607
   72SAPC  H18X 6382   1.611   5.234   4.814 -2.2400 -0.1360  1.0684
   72SAPC  H18Y 6383   1.516   5.387   4.826  0.6992 -0.7562  2.6215
   72SAPC  H18Z 6384   1.632   5.374   4.690 -1.7007  0.4486 -0.6272
   73SLPC     N 6385   2.347   2.523   7.227 -0.3292 -0.3003 -0.1403
   73SLPC   C13 6386   2.312   2.620   7.121 -0.0148  0.3403  0.5711
   73SLPC  H13A 6387   2.315   2.720   7.161 -0.1572  1.0919 -1.2020
   73SLPC  H13B 6388   2.371   2.617   7.030  1.5458 -2.3123  1.5378
   73SLPC  H13C 6389   2.214   2.597   7.084  1.0886 -0.2105 -2.2655
   73SLPC   C14 6390   2.271   2.556   7.355  0.4997  0.3989  0.4797
   73SLPC  H14A 6391   2.166   2.554   7.329  0.6193  3.1144 -0.5885
   73SLPC  H14B 6392   2.291   2.487   7.435  1.6518  0.8537  0.6136
   73SLPC  H14C 6393   2.297   2.659   7.379  0.2279  0.9317 -1.3648
   73SLPC   C15 6394   2.490   2.539   7.261 -0.4943  0.4967 -0.2848
   73SLPC  H15A 6395   2.548   2.519   7.172  2.8294  0.2340  1.7474
   73SLPC  H15B 6396   2.508   2.639   7.298  4.1809 -1.2582  3.2038
   73SLPC  H15C 6397   2.527   2.468   7.334  0.2301 -0.2688 -1.3626
   73SLPC   C12 6398   2.319   2.378   7.176  0.7718  0.0659 -0.8376
   73SLPC  H12A 6399   2.216   2.374   7.145  0.6153 -0.9600 -0.2322
   73SLPC  H12B 6400   2.336   2.305   7.254 -3.2304 -0.2613 -0.0626
   73SLPC   C11 6401   2.400   2.333   7.056 -0.8464 -0.1475  0.1777
   73SLPC  H11A 6402   2.364   2.393   6.970 -1.8360  1.7656  1.8482
   73SLPC  H11B 6403   2.373   2.229   7.027 -1.8265  0.7307 -2.3383
   73SLPC     P 6404   2.617   2.240   7.173  0.1088  0.0041  0.1690
   73SLPC   O13 6405   2.765   2.251   7.154  0.7874  0.1572  0.8781
   73SLPC   O14 6406   2.569   2.261   7.311 -0.3230  0.0265 -0.5930
   73SLPC   O12 6407   2.544   2.343   7.072 -0.0668 -0.4223  0.2471
   73SLPC   O11 6408   2.567   2.097   7.119  0.1632  0.3909 -0.3500
   73SLPC    C1 6409   2.668   2.025   7.049 -0.2760 -0.1052  0.1965
   73SLPC    HA 6410   2.761   2.017   7.109  0.1021 -0.7228 -0.4472
   73SLPC    HB 6411   2.627   1.923   7.035 -2.0657  0.6719 -0.5753
   73SLPC    C2 6412   2.691   2.079   6.907 -0.0913  0.3525  0.1289
   73SLPC    HS 6413   2.768   2.160   6.908  0.6837 -0.1083 -3.8077
   73SLPC   O21 6414   2.569   2.129   6.845 -0.1540  0.1801  0.6136
   73SLPC   C21 6415   2.584   2.235   6.761 -0.4333  0.4406 -0.1469
   73SLPC   O22 6416   2.679   2.311   6.755  0.1359 -0.3237  0.4046
   73SLPC   C22 6417   2.455   2.252   6.686 -0.2780 -0.3333  0.2787
   73SLPC   H2R 6418   2.423   2.149   6.661 -0.1230 -0.6014  1.1413
   73SLPC   H2S 6419   2.385   2.312   6.749  0.8247  0.2625  0.9595
   73SLPC    C3 6420   2.752   1.969   6.811  0.0483  0.2723 -0.1664
   73SLPC    HX 6421   2.676   1.889   6.796  2.1958 -1.6239 -1.5464
   73SLPC    HY 6422   2.836   1.912   6.855  0.5134  1.8478  1.0729
   73SLPC   O31 6423   2.786   2.027   6.686  0.0770 -0.0144  0.6047
   73SLPC   C31 6424   2.911   2.083   6.676  0.8566  0.5544 -1.1572
   73SLPC   O32 6425   2.979   2.111   6.775  0.0327  0.3981  0.3434
   73SLPC   C32 6426   2.955   2.110   6.534 -0.4395 -0.1903  0.5896
   73SLPC   H2X 6427   3.015   2.203   6.526 -1.5327  0.5238  0.4409
   73SLPC   H2Y 6428   2.862   2.113   6.474  0.3054 -1.9295 -0.7207
   73SLPC   C23 6429   2.486   2.330   6.559 -0.1541 -0.0332 -0.5420
   73SLPC   H3R 6430   2.547   2.419   6.585  0.9933 -0.8391 -0.3864
   73SLPC   H3S 6431   2.395   2.373   6.513  1.0836  1.4946 -1.6396
   73SLPC   C24 6432   2.556   2.247   6.448  0.6835 -0.4387  0.1213
   73SLPC   H4R 6433   2.486   2.171   6.406 -0.9359  2.0527 -2.0420
   73SLPC   H4S 6434   2.648   2.199   6.488  0.4870 -1.6981 -0.8617
   73SLPC   C25 6435   2.595   2.316   6.318 -0.2465 -0.5779  0.5459
   73SLPC   H5R 6436   2.681   2.386   6.327  0.7302 -1.5117 -0.9590
   73SLPC   H5S 6437   2.505   2.367   6.278 -0.6546 -0.8590  1.0931
   73SLPC   C26 6438   2.638   2.213   6.205 -0.0654  0.6629  0.2327
   73SLPC   H6R 6439   2.562   2.135   6.189 -0.1302  0.3152  1.9932
   73SLPC   H6S 6440   2.728   2.159   6.241  0.5350 -0.0602 -2.1694
   73SLPC   C27 6441   2.695   2.280   6.080  0.2697  0.5477 -0.2825
   73SLPC   H7R 6442   2.736   2.210   6.004 -2.8787  2.2056 -3.8400
   73SLPC   H7S 6443   2.772   2.354   6.110  1.4848 -0.4494 -0.8300
   73SLPC   C28 6444   2.585   2.353   5.990 -0.6813 -0.6608 -0.2896
   73SLPC   H8R 6445   2.529   2.423   6.055  0.9215  1.4919 -1.1075
   73SLPC   H8S 6446   2.510   2.280   5.953 -3.2665  0.2290  2.7293
   73SLPC   C29 6447   2.649   2.432   5.882  0.2985 -0.0780  0.4735
   73SLPC   H9R 6448   2.652   2.381   5.785  1.6352 -2.7416  1.8105
   73SLPC  C210 6449   2.703   2.555   5.900 -0.7887  0.2976 -0.7864
   73SLPC  H10R 6450   2.742   2.616   5.817  1.8013 -0.7197 -0.4274
   73SLPC  C211 6451   2.719   2.619   6.031  0.8348 -0.0901  0.0226
   73SLPC  H11R 6452   2.795   2.565   6.092  0.1313 -2.2282 -0.8974
   73SLPC  H11S 6453   2.626   2.613   6.090  1.0402 -0.8528  0.2771
   73SLPC  C212 6454   2.747   2.764   6.009 -0.0252 -0.7974  0.2369
   73SLPC  H12R 6455   2.663   2.832   6.027  1.8599  1.6462  0.3980
   73SLPC  C213 6456   2.859   2.824   5.964 -0.3754 -0.6548 -0.0353
   73SLPC  H13R 6457   2.867   2.932   5.945  2.0981 -0.9212 -0.8834
   73SLPC  C214 6458   2.986   2.758   5.921 -0.2230  0.5592 -0.1970
   73SLPC  H14R 6459   2.969   2.649   5.904  0.6797  0.6874 -2.2475
   73SLPC  H14S 6460   3.052   2.781   6.008 -1.7666 -0.7589  1.4001
   73SLPC  C215 6461   3.045   2.818   5.791  0.4809 -0.5043 -0.0342
   73SLPC  H15R 6462   3.145   2.773   5.770  0.4179 -1.5347  1.6509
   73SLPC  H15S 6463   3.056   2.926   5.814 -0.7609 -0.2319 -0.6374
   73SLPC  C216 6464   2.945   2.805   5.676  0.5809 -1.0692 -0.1299
   73SLPC  H16R 6465   2.850   2.850   5.712  0.5634 -2.0589  1.1519
   73SLPC  H16S 6466   2.917   2.699   5.656 -1.0526 -0.3696 -1.9124
   73SLPC  C217 6467   2.989   2.868   5.544  0.5330 -0.0184 -0.6263
   73SLPC  H17R 6468   2.916   2.829   5.470  0.5417 -1.2758  0.0172
   73SLPC  H17S 6469   3.090   2.823   5.530  1.5072  0.6587  3.1284
   73SLPC  C218 6470   2.984   3.018   5.553  0.0167 -0.7255 -0.2808
   73SLPC  H18R 6471   3.056   3.055   5.630 -1.0394  2.8157 -0.7900
   73SLPC  H18S 6472   2.885   3.061   5.578  0.6650  0.2287  0.7571
   73SLPC  H18T 6473   3.000   3.055   5.450 -1.9440 -0.3241 -0.4793
   73SLPC   C33 6474   3.049   1.989   6.484 -0.5135  0.4466  0.5309
   73SLPC   H3X 6475   2.995   1.893   6.499  2.9761 -2.0820 -1.4963
   73SLPC   H3Y 6476   3.142   1.973   6.541 -0.5333 -0.8055  0.2484
   73SLPC   C34 6477   3.096   1.989   6.335  0.4075 -0.0067 -0.1859
   73SLPC   H4X 6478   3.173   2.065   6.310  1.3476 -0.3621  1.5141
   73SLPC   H4Y 6479   3.004   2.006   6.275 -0.2002 -1.1679  0.3924
   73SLPC   C35 6480   3.131   1.855   6.267  0.2034  0.5239  0.1696
   73SLPC   H5X 6481   3.058   1.777   6.299  0.4206  0.5534  0.7389
   73SLPC   H5Y 6482   3.235   1.827   6.292  1.0564 -0.2302 -3.6030
   73SLPC   C36 6483   3.140   1.870   6.114  1.0464 -0.0884  0.1187
   73SLPC   H6X 6484   3.193   1.964   6.090 -1.3506  0.5039 -3.5004
   73SLPC   H6Y 6485   3.038   1.891   6.075  1.2385 -0.1357 -0.4049
   73SLPC   C37 6486   3.196   1.737   6.053 -0.0104 -0.1215  0.3243
   73SLPC   H7X 6487   3.109   1.669   6.040 -1.1380  1.5555 -1.6323
   73SLPC   H7Y 6488   3.270   1.692   6.122 -0.2932 -0.6969  0.2577
   73SLPC   C38 6489   3.270   1.747   5.908  0.1627 -0.1122 -0.2143
   73SLPC   H8X 6490   3.287   1.643   5.873 -3.2524  0.0577 -2.9644
   73SLPC   H8Y 6491   3.371   1.792   5.924  0.1441  0.1567 -0.8091
   73SLPC   C39 6492   3.189   1.816   5.803 -0.1035 -0.3221 -0.1834
   73SLPC   H9X 6493   3.179   1.921   5.838  1.1648  0.1132 -1.0913
   73SLPC   H9Y 6494   3.088   1.770   5.796  0.3104 -1.1192 -1.1095
   73SLPC  C310 6495   3.247   1.814   5.661 -0.1479 -0.5170  0.5158
   73SLPC  H10X 6496   3.249   1.711   5.621  1.7953  0.2854 -1.7001
   73SLPC  H10Y 6497   3.353   1.848   5.666 -1.0965  2.6438  2.6183
   73SLPC  C311 6498   3.169   1.902   5.561 -0.1248  0.4532  0.5883
   73SLPC  H11X 6499   3.184   2.010   5.583 -0.6361  0.4026  1.1999
   73SLPC  H11Y 6500   3.065   1.879   5.591 -0.0776  1.3128  1.4433
   73SLPC  C312 6501   3.200   1.876   5.407  0.1739 -0.4214 -0.1055
   73SLPC  H12X 6502   3.162   1.774   5.388 -0.1664 -0.0204 -1.7352
   73SLPC  H12Y 6503   3.311   1.872   5.408  0.1389 -1.8732  0.9288
   73SLPC  C313 6504   3.132   1.982   5.319  0.2259  0.0200 -0.2701
   73SLPC  H13X 6505   3.169   2.081   5.353 -2.2491  2.3320 -3.6396
   73SLPC  H13Y 6506   3.023   1.997   5.332  0.1287 -0.9201  0.1036
   73SLPC  C314 6507   3.168   1.959   5.173 -0.0278 -0.5658  0.4707
   73SLPC  H14X 6508   3.099   1.883   5.130  0.0986  0.8726 -2.5800
   73SLPC  H14Y 6509   3.274   1.927   5.168  1.4709  3.8039 -0.5875
   73SLPC  C315 6510   3.150   2.081   5.073 -0.6073  0.5942  0.4777
   73SLPC  H15X 6511   3.196   2.176   5.107 -0.9981  1.0647 -0.2867
   73SLPC  H15Y 6512   3.043   2.098   5.052 -0.7965  0.9479  1.6720
   73SLPC  C316 6513   3.202   2.064   4.931  0.3359  0.0675  1.3430
   73SLPC  H16X 6514   3.150   1.976   4.887 -0.8319  1.9212 -1.2266
   73SLPC  H16Y 6515   3.312   2.053   4.941  0.7696  1.5957 -1.0573
   73SLPC  C317 6516   3.174   2.186   4.845  0.6547  0.1813 -0.4015
   73SLPC  H17X 6517   3.256   2.257   4.870 -0.5965  1.4996  0.1145
   73SLPC  H17Y 6518   3.080   2.234   4.878  0.8140 -1.6055  3.1082
   73SLPC  C318 6519   3.168   2.162   4.693 -0.0886  0.3471 -0.1037
   73SLPC  H18X 6520   3.265   2.164   4.639 -0.3000 -1.4217 -0.6236
   73SLPC  H18Y 6521   3.110   2.243   4.645 -0.0675 -0.2302 -1.1245
   73SLPC  H18Z 6522   3.122   2.061   4.679  2.4408 -0.8606 -0.2126
   74SLPC     N 6523   5.096   2.919   7.154 -0.4495  0.6629  0.3239
   74SLPC   C13 6524   5.092   2.951   7.303  0.0853  0.5502 -0.0726
   74SLPC  H13A 6525   5.032   2.876   7.353 -1.0361  0.3743 -1.6043
   74SLPC  H13B 6526   5.192   2.938   7.341 -0.3310 -0.2496  0.8132
   74SLPC  H13C 6527   5.051   3.048   7.328 -0.8598 -0.7151  4.1642
   74SLPC   C14 6528   4.967   2.964   7.087 -0.5278  0.4876  0.4593
   74SLPC  H14A 6529   4.943   3.067   7.108 -1.0592  0.4841 -0.1097
   74SLPC  H14B 6530   4.985   2.949   6.981 -0.9096  0.7611  0.3552
   74SLPC  H14C 6531   4.890   2.892   7.110  0.9566 -1.5526 -0.6395
   74SLPC   C15 6532   5.103   2.764   7.137  0.1346  0.3218  0.0601
   74SLPC  H15A 6533   5.093   2.730   7.035 -1.0135  1.1237 -0.1111
   74SLPC  H15B 6534   5.202   2.729   7.164  0.9719  1.1215 -1.8022
   74SLPC  H15C 6535   5.035   2.721   7.210  0.5826 -0.1745  0.1936
   74SLPC   C12 6536   5.216   2.980   7.090 -0.6476 -0.1770  0.0774
   74SLPC  H12A 6537   5.309   2.950   7.135  1.0711 -1.8344 -4.0308
   74SLPC  H12B 6538   5.206   3.087   7.105 -0.3945 -0.3532  1.6890
   74SLPC   C11 6539   5.232   2.964   6.930 -0.1218 -0.0049 -0.2797
   74SLPC  H11A 6540   5.211   2.857   6.909 -1.3082  0.0099  0.6940
   74SLPC  H11B 6541   5.336   2.988   6.901 -0.3137  0.4919 -0.5766
   74SLPC     P 6542   5.164   3.203   6.836  0.6260 -0.1165 -0.1878
   74SLPC   O13 6543   5.152   3.276   6.965  0.3321 -0.5380  0.4687
   74SLPC   O14 6544   5.294   3.215   6.768 -0.3303  0.1367 -0.1436
   74SLPC   O12 6545   5.140   3.056   6.867 -0.2190 -0.5339 -0.1550
   74SLPC   O11 6546   5.042   3.243   6.746 -0.1805  0.6371  0.0206
   74SLPC    C1 6547   4.910   3.226   6.800 -0.5423  0.4546 -0.6022
   74SLPC    HA 6548   4.900   3.253   6.907 -0.3386 -0.9393 -0.2067
   74SLPC    HB 6549   4.847   3.300   6.746 -1.6087  0.7891  1.0238
   74SLPC    C2 6550   4.841   3.090   6.766  0.3910 -0.0980  0.0802
   74SLPC    HS 6551   4.906   3.010   6.807 -0.0937 -2.0380 -2.6707
   74SLPC   O21 6552   4.836   3.083   6.621  0.6405 -0.2539 -0.1186
   74SLPC   C21 6553   4.795   2.969   6.573 -0.3269  0.4351  0.2431
   74SLPC   O22 6554   4.780   2.867   6.640 -0.3005 -0.0029  0.4661
   74SLPC   C22 6555   4.787   2.980   6.425 -0.5050  0.3582  0.4434
   74SLPC   H2R 6556   4.722   3.070   6.414  1.2979  1.4874 -1.7828
   74SLPC   H2S 6557   4.891   3.004   6.397 -0.1056  0.2904  1.7904
   74SLPC    C3 6558   4.702   3.080   6.834  0.3371 -0.0094 -0.5868
   74SLPC    HX 6559   4.708   3.090   6.944  0.1332 -1.5282 -0.4075
   74SLPC    HY 6560   4.658   2.978   6.828  1.4865 -0.4731 -1.6259
   74SLPC   O31 6561   4.612   3.183   6.777  0.0477  0.3090  0.0712
   74SLPC   C31 6562   4.522   3.141   6.688  1.1052 -1.0897 -0.9363
   74SLPC   O32 6563   4.507   3.026   6.661  0.2229 -0.3334  0.4628
   74SLPC   C32 6564   4.435   3.256   6.651 -0.1468 -0.0001  0.1380
   74SLPC   H2X 6565   4.466   3.345   6.710  2.6602  0.3829 -1.7088
   74SLPC   H2Y 6566   4.328   3.227   6.656 -0.5541  1.3043 -0.5237
   74SLPC   C23 6567   4.717   2.854   6.373 -0.2289 -0.4192  0.2441
   74SLPC   H3R 6568   4.612   2.862   6.409 -0.7009  2.8216 -1.4265
   74SLPC   H3S 6569   4.758   2.756   6.405  2.6325 -0.0049 -1.8054
   74SLPC   C24 6570   4.707   2.843   6.220 -0.5479  0.2318  0.7738
   74SLPC   H4R 6571   4.801   2.819   6.166 -0.0857  2.4278  0.4870
   74SLPC   H4S 6572   4.674   2.940   6.175  2.5589  1.0020 -0.1071
   74SLPC   C25 6573   4.595   2.748   6.179 -0.1346 -0.5958  0.0667
   74SLPC   H5R 6574   4.499   2.790   6.216 -0.7202  0.2036 -2.2357
   74SLPC   H5S 6575   4.611   2.648   6.224 -0.0090 -0.0529  1.2752
   74SLPC   C26 6576   4.590   2.739   6.023  0.5853 -0.3260  0.4147
   74SLPC   H6R 6577   4.645   2.823   5.976 -2.1348  0.6325 -1.3351
   74SLPC   H6S 6578   4.485   2.759   5.991 -0.2486 -1.1921  2.4536
   74SLPC   C27 6579   4.621   2.604   5.956  0.2584 -0.3590  0.2542
   74SLPC   H7R 6580   4.544   2.531   5.991  1.1107 -1.4529 -0.1183
   74SLPC   H7S 6581   4.720   2.571   5.993  2.1243  2.3634 -1.8823
   74SLPC   C28 6582   4.613   2.618   5.799  0.0553  0.3872  0.7588
   74SLPC   H8R 6583   4.709   2.665   5.770 -1.2920  1.2042 -2.9211
   74SLPC   H8S 6584   4.531   2.683   5.761 -0.4761 -0.8922 -0.3541
   74SLPC   C29 6585   4.606   2.485   5.735  0.4521  1.3289 -0.2383
   74SLPC   H9R 6586   4.645   2.400   5.793  1.6800  2.0130 -0.0440
   74SLPC  C210 6587   4.570   2.464   5.609  0.5098 -0.1360  0.4209
   74SLPC  H10R 6588   4.588   2.364   5.565  1.4912  0.1037  0.2358
   74SLPC  C211 6589   4.529   2.572   5.512 -0.1100 -0.6319  0.2201
   74SLPC  H11R 6590   4.612   2.578   5.438 -0.2898 -1.9107 -0.1087
   74SLPC  H11S 6591   4.533   2.673   5.556  0.3378  0.1789 -1.5842
   74SLPC  C212 6592   4.404   2.520   5.447 -0.2906  0.8158  0.5927
   74SLPC  H12R 6593   4.329   2.491   5.522 -0.0859  0.8674  0.8233
   74SLPC  C213 6594   4.383   2.494   5.317  0.7681  0.5053 -1.0458
   74SLPC  H13R 6595   4.284   2.469   5.278  0.1150  2.1225 -0.5147
   74SLPC  C214 6596   4.481   2.526   5.213  0.1335 -0.1969  0.6212
   74SLPC  H14R 6597   4.493   2.435   5.151 -0.0304 -1.3406  2.1925
   74SLPC  H14S 6598   4.578   2.553   5.259 -0.8773 -0.0900  2.8438
   74SLPC  C215 6599   4.419   2.634   5.125 -0.1695 -0.5606 -0.2119
   74SLPC  H15R 6600   4.505   2.681   5.073 -0.6606  2.7276  1.7139
   74SLPC  H15S 6601   4.382   2.722   5.181  0.7514  0.6180 -1.4026
   74SLPC  C216 6602   4.316   2.577   5.025 -0.3455  0.3401 -0.3453
   74SLPC  H16R 6603   4.239   2.516   5.076  0.4551 -1.2733 -1.0030
   74SLPC  H16S 6604   4.362   2.499   4.961 -1.2608  0.0984 -0.7287
   74SLPC  C217 6605   4.259   2.690   4.936  0.0915 -0.7342  0.2379
   74SLPC  H17R 6606   4.196   2.754   5.001 -1.6169 -2.7907  0.7082
   74SLPC  H17S 6607   4.198   2.645   4.856  3.5177 -1.8950 -1.9553
   74SLPC  C218 6608   4.364   2.771   4.850 -0.2298  0.1323 -0.3587
   74SLPC  H18R 6609   4.456   2.719   4.818  1.9503  1.9194  2.4638
   74SLPC  H18S 6610   4.383   2.859   4.916 -3.6015  0.3322  0.5076
   74SLPC  H18T 6611   4.308   2.805   4.760 -1.0994  2.6448  1.0178
   74SLPC   C33 6612   4.471   3.299   6.505 -0.1852  1.2275  0.2484
   74SLPC   H3X 6613   4.581   3.311   6.493 -0.0415  0.1702  0.3784
   74SLPC   H3Y 6614   4.426   3.400   6.494 -0.1053  1.0915 -1.5549
   74SLPC   C34 6615   4.427   3.217   6.386  0.1124  0.8874 -0.6487
   74SLPC   H4X 6616   4.317   3.199   6.387 -0.0667  1.6781  1.9726
   74SLPC   H4Y 6617   4.476   3.117   6.378 -1.1614  0.2583 -0.8832
   74SLPC   C35 6618   4.470   3.289   6.252  1.2967  0.2497 -0.4389
   74SLPC   H5X 6619   4.576   3.294   6.221  1.0183  1.6090 -1.2310
   74SLPC   H5Y 6620   4.443   3.396   6.238  1.8563  0.5102  0.3894
   74SLPC   C36 6621   4.398   3.203   6.141 -0.3086 -0.2090 -0.0579
   74SLPC   H6X 6622   4.296   3.175   6.174 -0.3482  0.5424  0.4746
   74SLPC   H6Y 6623   4.457   3.114   6.112  2.3701  1.7584 -1.0812
   74SLPC   C37 6624   4.380   3.298   6.018 -0.5122 -0.0438 -0.6713
   74SLPC   H7X 6625   4.485   3.327   5.999 -0.5605 -0.0699 -0.9853
   74SLPC   H7Y 6626   4.321   3.384   6.056  1.5118  0.5735  1.3159
   74SLPC   C38 6627   4.338   3.226   5.894 -0.1957  0.0939 -0.1476
   74SLPC   H8X 6628   4.293   3.310   5.836 -0.9147 -1.5885 -2.1482
   74SLPC   H8Y 6629   4.260   3.159   5.936  1.1489  0.4673  3.2647
   74SLPC   C39 6630   4.444   3.141   5.815  0.3347  0.0570  0.0809
   74SLPC   H9X 6631   4.494   3.070   5.884  1.9727  0.2515 -0.8570
   74SLPC   H9Y 6632   4.522   3.213   5.782  0.6480  0.3697  1.4688
   74SLPC  C310 6633   4.384   3.076   5.690 -0.7955 -0.3539  0.4222
   74SLPC  H10X 6634   4.346   3.165   5.635 -0.8827 -0.9258 -0.4616
   74SLPC  H10Y 6635   4.298   3.008   5.713 -0.8920 -0.3682  0.0292
   74SLPC  C311 6636   4.485   2.995   5.607  0.6963 -0.5589  0.1414
   74SLPC  H11X 6637   4.524   2.914   5.673 -0.9734 -1.8483 -0.3754
   74SLPC  H11Y 6638   4.566   3.063   5.572 -0.5957  1.5903  1.1074
   74SLPC  C312 6639   4.409   2.941   5.485 -0.4696  0.0719  0.8321
   74SLPC  H12X 6640   4.322   2.875   5.509 -1.0408  0.2090 -0.7533
   74SLPC  H12Y 6641   4.481   2.877   5.430  0.2582  0.1586  1.6553
   74SLPC  C313 6642   4.364   3.047   5.385  0.1600  0.0943 -0.0361
   74SLPC  H13X 6643   4.447   3.098   5.332  0.9900  0.3212  1.4551
   74SLPC  H13Y 6644   4.321   3.127   5.448  1.3425 -0.0496  0.9794
   74SLPC  C314 6645   4.276   2.992   5.273  0.0707  0.1629  0.1925
   74SLPC  H14X 6646   4.204   2.928   5.328 -1.3437  0.3076 -1.3959
   74SLPC  H14Y 6647   4.340   2.930   5.207  0.6974  1.4282 -0.4209
   74SLPC  C315 6648   4.207   3.101   5.180 -0.1625  0.3860 -0.2332
   74SLPC  H15X 6649   4.157   3.176   5.245  1.6750 -1.9130  4.2780
   74SLPC  H15Y 6650   4.136   3.052   5.111  1.0686  0.2107 -1.4301
   74SLPC  C316 6651   4.316   3.177   5.103  0.6036  1.0776  0.5202
   74SLPC  H16X 6652   4.385   3.100   5.063  0.2515  1.3455 -0.6396
   74SLPC  H16Y 6653   4.370   3.247   5.170  1.7699  0.2781  0.4446
   74SLPC  C317 6654   4.271   3.244   4.973 -0.0323 -0.7051 -0.2388
   74SLPC  H17X 6655   4.173   3.293   4.991 -0.1141 -1.0824  0.3723
   74SLPC  H17Y 6656   4.250   3.161   4.902  0.5559  0.1701 -1.4852
   74SLPC  C318 6657   4.370   3.331   4.886 -0.2129  0.0312 -0.3717
   74SLPC  H18X 6658   4.451   3.263   4.851 -1.2171 -1.0977 -0.5868
   74SLPC  H18Y 6659   4.404   3.417   4.947 -2.6608  0.8450 -0.0249
   74SLPC  H18Z 6660   4.326   3.385   4.799  0.3225  0.7299 -0.2163
   75SLPC     N 6661   3.795   0.203   7.067  0.0956 -0.4334 -0.3727
   75SLPC   C13 6662   3.784   0.356   7.067 -0.6068  0.8643  0.6790
   75SLPC  H13A 6663   3.723   0.381   6.981 -0.3327  0.8249  0.4728
   75SLPC  H13B 6664   3.744   0.401   7.157 -1.6548  1.1947  0.0613
   75SLPC  H13C 6665   3.878   0.404   7.046 -0.8963  1.3287  0.4430
   75SLPC   C14 6666   3.664   0.139   7.120  0.1799 -0.1548 -0.8241
   75SLPC  H14A 6667   3.644   0.169   7.221  1.1465 -2.8799  0.2596
   75SLPC  H14B 6668   3.588   0.175   7.052  0.4308  2.5164  0.1950
   75SLPC  H14C 6669   3.659   0.031   7.118  0.5667 -0.2097  0.6423
   75SLPC   C15 6670   3.906   0.173   7.163 -0.6471 -0.0077 -0.4807
   75SLPC  H15A 6671   3.991   0.239   7.153 -0.6214  0.5316  2.4069
   75SLPC  H15B 6672   3.874   0.183   7.266  0.1800  1.2872 -0.3254
   75SLPC  H15C 6673   3.936   0.069   7.158 -0.7032 -0.0006 -1.0541
   75SLPC   C12 6674   3.815   0.155   6.926  0.5348  0.0100  0.0362
   75SLPC  H12A 6675   3.794   0.049   6.930 -2.2906  0.4853  0.3390
   75SLPC  H12B 6676   3.917   0.169   6.894  0.5156  0.3420  0.1165
   75SLPC   C11 6677   3.740   0.209   6.809  0.1202 -0.2399  0.0255
   75SLPC  H11A 6678   3.633   0.190   6.832  0.6381 -1.6717  1.4073
   75SLPC  H11B 6679   3.773   0.150   6.722  0.0622  0.4608 -0.4802
   75SLPC     P 6680   3.866   0.420   6.699  0.7928 -0.3711  0.2249
   75SLPC   O13 6681   3.876   0.566   6.734 -0.4480  0.0263 -0.3395
   75SLPC   O14 6682   3.982   0.333   6.695 -0.6741  0.0064 -0.4945
   75SLPC   O12 6683   3.768   0.348   6.789 -0.2723 -0.5423 -0.3312
   75SLPC   O11 6684   3.783   0.414   6.560  0.1534 -0.2072 -0.2752
   75SLPC    C1 6685   3.647   0.451   6.561 -0.1957  0.0686  0.1602
   75SLPC    HA 6686   3.579   0.376   6.515 -0.9980  1.5776 -1.2249
   75SLPC    HB 6687   3.595   0.464   6.658 -1.7205 -0.2586 -0.5707
   75SLPC    C2 6688   3.630   0.578   6.467  0.4293 -0.0277  0.2658
   75SLPC    HS 6689   3.521   0.602   6.466  0.4467  0.0370 -0.4244
   75SLPC   O21 6690   3.678   0.551   6.332  0.5128 -0.1254 -0.3778
   75SLPC   C21 6691   3.587   0.503   6.255  0.0381 -0.5423  0.5618
   75SLPC   O22 6692   3.471   0.476   6.286  0.4213 -0.1528  0.0644
   75SLPC   C22 6693   3.652   0.495   6.116  0.7376  0.2409  0.0921
   75SLPC   H2R 6694   3.692   0.596   6.092 -0.1102  0.6131  0.1973
   75SLPC   H2S 6695   3.730   0.419   6.136 -0.6096 -1.3183 -0.2924
   75SLPC    C3 6696   3.712   0.699   6.518 -0.8183  0.1566 -0.1415
   75SLPC    HX 6697   3.817   0.689   6.485  0.0594  0.5826  2.3625
   75SLPC    HY 6698   3.710   0.697   6.629  2.0231  1.2003  0.0171
   75SLPC   O31 6699   3.643   0.817   6.465  0.1961  0.0102  0.0715
   75SLPC   C31 6700   3.716   0.915   6.433 -0.5200 -0.4930 -0.0298
   75SLPC   O32 6701   3.840   0.924   6.440 -0.7748 -0.4621 -0.5526
   75SLPC   C32 6702   3.632   1.016   6.363 -0.1458  0.6694  0.1162
   75SLPC   H2X 6703   3.687   1.109   6.337 -1.5604  1.3491 -0.5864
   75SLPC   H2Y 6704   3.547   1.042   6.429  1.7853  0.5439  2.8135
   75SLPC   C23 6705   3.553   0.439   6.008  0.2205 -0.2105 -0.4346
   75SLPC   H3R 6706   3.466   0.504   5.985 -0.6186 -0.3504  2.0019
   75SLPC   H3S 6707   3.519   0.339   6.043  0.5193 -0.4543 -0.8348
   75SLPC   C24 6708   3.622   0.424   5.873  0.0434 -0.1893  0.4732
   75SLPC   H4R 6709   3.558   0.356   5.814 -2.0700 -0.2632  2.7082
   75SLPC   H4S 6710   3.720   0.374   5.893  0.7449  0.8734 -0.1689
   75SLPC   C25 6711   3.640   0.562   5.794  0.0041  0.2339 -0.5978
   75SLPC   H5R 6712   3.685   0.648   5.847 -1.9303  1.2064 -0.4250
   75SLPC   H5S 6713   3.540   0.609   5.779  1.2948  2.8364 -1.5246
   75SLPC   C26 6714   3.711   0.533   5.662  0.2383  0.2046 -0.0175
   75SLPC   H6R 6715   3.722   0.424   5.642  1.6835  0.5165 -1.1827
   75SLPC   H6S 6716   3.817   0.568   5.655  1.1408 -2.2965  0.0801
   75SLPC   C27 6717   3.634   0.587   5.542 -0.1799  0.2871  0.5175
   75SLPC   H7R 6718   3.584   0.681   5.574  1.5424  1.6842 -0.6766
   75SLPC   H7S 6719   3.552   0.518   5.513 -0.0772  0.4895 -0.2807
   75SLPC   C28 6720   3.722   0.599   5.422 -0.5000 -0.2321 -0.1958
   75SLPC   H8R 6721   3.757   0.499   5.389 -0.2178 -0.3810  0.5373
   75SLPC   H8S 6722   3.807   0.662   5.457  0.5788 -0.7087 -1.8193
   75SLPC   C29 6723   3.659   0.682   5.309 -0.0423  0.3473  0.1378
   75SLPC   H9R 6724   3.571   0.743   5.336  0.7056  2.3854 -1.6869
   75SLPC  C210 6725   3.695   0.701   5.180 -0.1424 -0.0332 -0.6246
   75SLPC  H10R 6726   3.615   0.746   5.121  0.1098  1.3102  0.0211
   75SLPC  C211 6727   3.810   0.630   5.113  0.0460 -0.1491 -0.1375
   75SLPC  H11R 6728   3.854   0.551   5.177  1.2980 -0.8963 -1.8292
   75SLPC  H11S 6729   3.898   0.697   5.100  0.4892 -0.2745  1.9319
   75SLPC  C212 6730   3.770   0.578   4.974  0.0666 -0.4630 -0.5331
   75SLPC  H12R 6731   3.675   0.522   4.973 -0.7399  0.8518 -1.4644
   75SLPC  C213 6732   3.834   0.574   4.857  0.4326 -0.0590  0.3795
   75SLPC  H13R 6733   3.780   0.540   4.767 -1.6740  3.7645 -0.0256
   75SLPC  C214 6734   3.969   0.623   4.831 -1.1838 -0.4734 -0.4821
   75SLPC  H14R 6735   4.037   0.622   4.918 -0.1166  0.3432 -1.2851
   75SLPC  H14S 6736   3.963   0.729   4.798 -2.7341  0.1800  1.6905
   75SLPC  C215 6737   4.040   0.533   4.729 -0.5211 -0.5440  0.1532
   75SLPC  H15R 6738   3.991   0.546   4.630 -0.3329 -0.1477  0.1074
   75SLPC  H15S 6739   4.044   0.426   4.757 -1.1448 -0.8271 -0.7869
   75SLPC  C216 6740   4.189   0.581   4.696 -0.1774 -0.6760 -0.8781
   75SLPC  H16R 6741   4.184   0.691   4.704 -2.7514 -0.7632 -0.4096
   75SLPC  H16S 6742   4.224   0.539   4.599  1.3699 -1.6290  0.0524
   75SLPC  C217 6743   4.280   0.531   4.808 -0.5087 -0.7628 -0.3808
   75SLPC  H17R 6744   4.271   0.420   4.810  1.8184 -1.0116  2.2437
   75SLPC  H17S 6745   4.234   0.572   4.900 -0.4087 -1.2898 -0.0897
   75SLPC  C218 6746   4.426   0.584   4.797 -0.2183  0.6471 -0.0445
   75SLPC  H18R 6747   4.484   0.592   4.891  2.0135  1.8734 -1.4440
   75SLPC  H18S 6748   4.431   0.681   4.743  1.0516  1.8628  2.1426
   75SLPC  H18T 6749   4.497   0.514   4.748  2.0659 -0.3434  4.2486
   75SLPC   C33 6750   3.588   0.956   6.223  0.5747 -0.2490 -0.6658
   75SLPC   H3X 6751   3.481   0.980   6.207  0.7095 -0.8921 -2.7278
   75SLPC   H3Y 6752   3.601   0.846   6.228 -1.5780 -0.5707 -1.1484
   75SLPC   C34 6753   3.670   1.018   6.107 -0.1182 -1.2633 -0.2991
   75SLPC   H4X 6754   3.643   1.126   6.094 -0.8028 -1.3546  0.2946
   75SLPC   H4Y 6755   3.634   0.960   6.019  1.8958  0.2426 -2.2282
   75SLPC   C35 6756   3.824   0.998   6.110  0.1913 -0.2152  0.0687
   75SLPC   H5X 6757   3.848   0.890   6.123  2.2010  0.4294  2.2973
   75SLPC   H5Y 6758   3.861   1.052   6.199  0.9611 -0.2083 -0.2462
   75SLPC   C36 6759   3.882   1.049   5.971 -0.2881 -0.2013 -0.3020
   75SLPC   H6X 6760   3.993   1.052   5.964 -0.2259 -1.9828 -0.5188
   75SLPC   H6Y 6761   3.846   1.152   5.950 -0.4183 -0.3790 -0.9645
   75SLPC   C37 6762   3.832   0.966   5.853  1.1745  0.4123  0.4971
   75SLPC   H7X 6763   3.725   0.985   5.835  1.5802  3.0460  0.5148
   75SLPC   H7Y 6764   3.866   0.861   5.871  0.0196  0.0429  0.5786
   75SLPC   C38 6765   3.877   1.011   5.725 -0.4509 -0.0949  0.5604
   75SLPC   H8X 6766   3.987   0.999   5.719 -0.5008  0.1130 -1.0195
   75SLPC   H8Y 6767   3.858   1.120   5.716  1.5964  0.2233 -0.5745
   75SLPC   C39 6768   3.809   0.934   5.609  0.1694  0.1958  0.3411
   75SLPC   H9X 6769   3.703   0.966   5.594  0.3139  0.1656 -0.8501
   75SLPC   H9Y 6770   3.808   0.827   5.638  0.0101 -0.0762 -0.6214
   75SLPC  C310 6771   3.891   0.949   5.476  0.6124 -0.5255  0.1841
   75SLPC  H10X 6772   3.857   0.866   5.410  1.4609 -0.5029 -0.3017
   75SLPC  H10Y 6773   4.001   0.931   5.483  0.2234 -3.1130  0.6491
   75SLPC  C311 6774   3.877   1.078   5.395 -0.6399 -0.0777  0.1362
   75SLPC  H11X 6775   3.933   1.155   5.452  1.7268 -2.3802  1.1271
   75SLPC  H11Y 6776   3.769   1.099   5.409 -0.5290  0.6437 -0.0430
   75SLPC  C312 6777   3.917   1.061   5.244  0.1283 -0.6837  0.1717
   75SLPC  H12X 6778   3.879   0.963   5.210 -1.7620  0.3910 -0.9548
   75SLPC  H12Y 6779   4.028   1.057   5.241  0.1195 -1.3033  0.5672
   75SLPC  C313 6780   3.849   1.181   5.176 -0.1247 -0.6154  0.6759
   75SLPC  H13X 6781   3.911   1.273   5.180 -1.9902  0.6639  2.3105
   75SLPC  H13Y 6782   3.752   1.201   5.227 -0.9480 -0.2441 -0.9711
   75SLPC  C314 6783   3.820   1.160   5.029 -0.1337 -0.2255  0.2938
   75SLPC  H14X 6784   3.914   1.160   4.969 -0.3990 -1.6457 -0.1592
   75SLPC  H14Y 6785   3.755   1.231   4.972  0.3557 -0.7206 -0.9219
   75SLPC  C315 6786   3.768   1.020   5.005 -0.7173 -0.5126  0.0485
   75SLPC  H15X 6787   3.692   0.979   5.075  0.4943 -5.0085 -0.9231
   75SLPC  H15Y 6788   3.855   0.951   5.011  1.2786  1.9976  2.1998
   75SLPC  C316 6789   3.708   0.997   4.863  0.8145  0.1539  0.1900
   75SLPC  H16X 6790   3.788   0.982   4.788  0.2072 -3.1544  0.0585
   75SLPC  H16Y 6791   3.651   1.088   4.835 -0.8093 -0.6544  0.7150
   75SLPC  C317 6792   3.619   0.877   4.856  0.1643 -0.3307 -0.0680
   75SLPC  H17X 6793   3.572   0.862   4.956  0.4766 -1.9598 -0.1523
   75SLPC  H17Y 6794   3.672   0.781   4.841  1.7518  0.1906  1.8766
   75SLPC  C318 6795   3.515   0.880   4.740  0.0344 -0.0779 -0.0384
   75SLPC  H18X 6796   3.558   0.873   4.637 -1.8232 -1.2212 -0.7912
   75SLPC  H18Y 6797   3.443   0.962   4.754 -0.1213 -0.4612  1.6197
   75SLPC  H18Z 6798   3.463   0.783   4.753 -0.4787  0.1749 -0.2079
   76SLPC     N 6799   3.080   6.644   6.744 -0.3568  0.1077 -0.1959
   76SLPC   C13 6800   3.084   6.723   6.625 -0.2462 -0.2323 -0.1167
   76SLPC  H13A 6801   3.165   6.700   6.558  0.6560  1.3618  0.3700
   76SLPC  H13B 6802   3.000   6.707   6.560 -0.3923 -0.8323  0.2197
   76SLPC  H13C 6803   3.101   6.826   6.652 -0.4284 -0.6209  1.5942
   76SLPC   C14 6804   3.033   6.507   6.712  0.3421 -0.2655  0.6934
   76SLPC  H14A 6805   2.930   6.504   6.682 -0.0562 -1.2501  2.0329
   76SLPC  H14B 6806   3.086   6.467   6.627 -1.1801 -0.2361 -0.3033
   76SLPC  H14C 6807   3.042   6.421   6.777  0.0129 -2.6785 -2.2631
   76SLPC   C15 6808   2.986   6.704   6.849  0.2144  0.1086  0.3379
   76SLPC  H15A 6809   3.014   6.808   6.858  3.2496 -0.4439 -1.4001
   76SLPC  H15B 6810   2.884   6.699   6.813  0.3501 -1.0967  0.0862
   76SLPC  H15C 6811   2.988   6.651   6.943  1.0665  0.5765  0.5957
   76SLPC   C12 6812   3.224   6.643   6.802  0.0853  0.1425 -0.1989
   76SLPC  H12A 6813   3.230   6.580   6.890 -0.7586  1.0285  0.5284
   76SLPC  H12B 6814   3.253   6.739   6.842  3.1936 -1.4800  1.8594
   76SLPC   C11 6815   3.337   6.607   6.704  0.4691 -0.1438  0.0145
   76SLPC  H11A 6816   3.302   6.510   6.661  1.4947 -1.3155  1.6985
   76SLPC  H11B 6817   3.428   6.571   6.755  1.3530 -0.2831 -1.6118
   76SLPC     P 6818   3.446   6.831   6.657 -0.1541  0.3179  0.2229
   76SLPC   O13 6819   3.412   6.949   6.584  0.2374 -0.6888  0.9584
   76SLPC   O14 6820   3.433   6.840   6.802  0.3760 -0.5913 -0.2753
   76SLPC   O12 6821   3.364   6.705   6.600  0.9105  0.0700  0.0658
   76SLPC   O11 6822   3.592   6.780   6.622  0.3129  0.4293  0.3230
   76SLPC    C1 6823   3.670   6.832   6.512 -0.0981 -0.0580  0.4292
   76SLPC    HA 6824   3.656   6.943   6.508 -1.8678 -0.2367  0.8195
   76SLPC    HB 6825   3.780   6.822   6.527  0.3209  0.9732 -1.5964
   76SLPC    C2 6826   3.644   6.751   6.381 -0.4282  0.5850  0.5538
   76SLPC    HS 6827   3.730   6.765   6.312 -0.0478 -0.7407  0.7322
   76SLPC   O21 6828   3.526   6.774   6.308  0.2034 -0.3980  0.0590
   76SLPC   C21 6829   3.514   6.895   6.263 -0.1782  0.2058 -0.1090
   76SLPC   O22 6830   3.603   6.980   6.263  0.2175  0.3745 -0.5337
   76SLPC   C22 6831   3.374   6.921   6.218  0.1145  0.0703  0.1613
   76SLPC   H2R 6832   3.307   6.900   6.304 -0.1619 -1.2141 -0.3297
   76SLPC   H2S 6833   3.380   7.027   6.186  0.8783 -0.5047 -1.7535
   76SLPC    C3 6834   3.653   6.598   6.403 -0.4833  0.2008 -0.5124
   76SLPC    HX 6835   3.557   6.563   6.448 -0.0436 -1.3493 -0.7281
   76SLPC    HY 6836   3.731   6.587   6.481 -0.4463  2.7665 -0.0765
   76SLPC   O31 6837   3.686   6.526   6.286  0.2345  0.0975 -1.2002
   76SLPC   C31 6838   3.584   6.503   6.205  0.8719 -0.7314 -0.5052
   76SLPC   O32 6839   3.465   6.492   6.241  0.5567 -0.0773  0.3007
   76SLPC   C32 6840   3.633   6.499   6.064 -0.4709 -0.0712  0.0176
   76SLPC   H2X 6841   3.712   6.423   6.049 -1.7030 -1.1235 -1.3736
   76SLPC   H2Y 6842   3.674   6.600   6.039 -1.2300  0.5541  1.2120
   76SLPC   C23 6843   3.333   6.833   6.095 -0.8360 -0.7990 -0.3466
   76SLPC   H3R 6844   3.229   6.864   6.070 -0.8995 -1.5626 -1.0732
   76SLPC   H3S 6845   3.336   6.725   6.119 -0.4357 -1.3577 -2.6596
   76SLPC   C24 6846   3.427   6.853   5.983  0.5186  0.1444  0.5917
   76SLPC   H4R 6847   3.511   6.781   5.973 -0.5362 -1.1285  0.7668
   76SLPC   H4S 6848   3.475   6.954   5.980 -0.1271  0.4335 -0.8283
   76SLPC   C25 6849   3.355   6.844   5.846  0.3930 -0.0851 -0.5185
   76SLPC   H5R 6850   3.272   6.917   5.837 -1.8155 -2.6505 -2.8658
   76SLPC   H5S 6851   3.306   6.745   5.858 -0.2018  0.2684  0.0396
   76SLPC   C26 6852   3.440   6.860   5.725 -0.0945  0.5695 -0.9722
   76SLPC   H6R 6853   3.507   6.771   5.724  0.4827  0.8831  1.5558
   76SLPC   H6S 6854   3.508   6.946   5.742  0.2141  0.0628  0.5748
   76SLPC   C27 6855   3.367   6.877   5.593  0.5268 -0.1183  0.7348
   76SLPC   H7R 6856   3.313   6.974   5.596  0.0566 -0.3871  1.3598
   76SLPC   H7S 6857   3.294   6.794   5.577  0.4388 -0.0684  0.8687
   76SLPC   C28 6858   3.452   6.871   5.466  0.1364 -0.0213 -0.6652
   76SLPC   H8R 6859   3.388   6.898   5.379  0.4821  2.2555 -0.2907
   76SLPC   H8S 6860   3.503   6.773   5.469  0.1642  0.0260  1.1965
   76SLPC   C29 6861   3.561   6.978   5.462 -0.0316  0.0823 -0.2457
   76SLPC   H9R 6862   3.626   6.979   5.551  0.1152  3.2448 -0.2740
   76SLPC  C210 6863   3.601   7.043   5.356  0.5314  0.9001  0.6252
   76SLPC  H10R 6864   3.687   7.112   5.362 -0.2485  2.1485 -1.5541
   76SLPC  C211 6865   3.540   7.019   5.219 -0.7849  0.2733 -0.0546
   76SLPC  H11R 6866   3.585   7.100   5.158 -1.0596 -0.1519 -0.8396
   76SLPC  H11S 6867   3.430   7.027   5.224 -1.1940 -3.9632  1.8550
   76SLPC  C212 6868   3.582   6.882   5.163  0.5217 -1.2741  0.8928
   76SLPC  H12R 6869   3.579   6.803   5.240 -1.1905 -2.0013  0.1476
   76SLPC  C213 6870   3.628   6.860   5.034 -0.1983  0.2891 -0.1210
   76SLPC  H13R 6871   3.666   6.759   5.019 -0.7497 -0.1131  1.0408
   76SLPC  C214 6872   3.631   6.954   4.914 -0.4334  0.6822 -0.6704
   76SLPC  H14R 6873   3.568   7.043   4.935 -0.6293  0.8214 -1.7854
   76SLPC  H14S 6874   3.585   6.904   4.826 -1.0449 -0.4783  0.2745
   76SLPC  C215 6875   3.777   7.003   4.867 -0.6695  0.4342  0.3511
   76SLPC  H15R 6876   3.805   7.088   4.932  0.3995  0.8592 -0.6294
   76SLPC  H15S 6877   3.766   7.039   4.762  1.4406  0.8483  0.2259
   76SLPC  C216 6878   3.885   6.886   4.875  0.1878  0.3565 -0.1684
   76SLPC  H16R 6879   3.866   6.815   4.792  1.0913  2.9463 -2.7887
   76SLPC  H16S 6880   3.897   6.844   4.977 -0.5062  1.4515  0.3808
   76SLPC  C217 6881   4.016   6.942   4.820  0.3895  0.7396  0.0593
   76SLPC  H17R 6882   4.051   7.012   4.899 -1.0326  0.7731  0.6925
   76SLPC  H17S 6883   3.996   6.985   4.719 -0.0649 -0.2141 -0.2699
   76SLPC  C218 6884   4.127   6.828   4.801  0.0813 -0.5428 -0.8170
   76SLPC  H18R 6885   4.215   6.874   4.752  0.7576 -1.2155 -0.2771
   76SLPC  H18S 6886   4.088   6.745   4.738  0.7088  0.0345 -1.9977
   76SLPC  H18T 6887   4.169   6.785   4.895 -0.6477 -1.3442 -0.8378
   76SLPC   C33 6888   3.506   6.476   5.975 -0.4749  0.3114  0.7467
   76SLPC   H3X 6889   3.440   6.564   5.991  1.9736  1.9520  2.5484
   76SLPC   H3Y 6890   3.465   6.379   6.010  3.1305 -0.6162  2.9341
   76SLPC   C34 6891   3.524   6.476   5.817  0.1919  0.4442  0.2274
   76SLPC   H4X 6892   3.589   6.389   5.791 -0.4998 -0.1304  0.4135
   76SLPC   H4Y 6893   3.584   6.564   5.785  0.6064  0.6844  1.5972
   76SLPC   C35 6894   3.394   6.466   5.730 -0.3447 -0.8540  0.8227
   76SLPC   H5X 6895   3.335   6.555   5.760  1.3654  1.2797 -1.6918
   76SLPC   H5Y 6896   3.341   6.373   5.762  1.8205 -2.4177  0.0908
   76SLPC   C36 6897   3.428   6.466   5.576  0.6365  0.0480 -0.0097
   76SLPC   H6X 6898   3.502   6.384   5.561  0.9468  0.4163 -0.5054
   76SLPC   H6Y 6899   3.490   6.555   5.552  0.4506  0.2872  0.3787
   76SLPC   C37 6900   3.300   6.467   5.491 -0.0984  0.1035 -0.1375
   76SLPC   H7X 6901   3.226   6.540   5.531 -0.4825 -0.1359 -0.4012
   76SLPC   H7Y 6902   3.254   6.369   5.517  1.9930 -0.6559  0.9243
   76SLPC   C38 6903   3.313   6.477   5.335  0.4932 -0.4649  0.9334
   76SLPC   H8X 6904   3.322   6.581   5.299 -0.0012 -0.5561  0.5248
   76SLPC   H8Y 6905   3.217   6.429   5.305  0.7554  0.4055 -1.5280
   76SLPC   C39 6906   3.430   6.397   5.278 -0.2479 -0.5263 -0.3532
   76SLPC   H9X 6907   3.436   6.303   5.337 -1.1818  0.2669  1.0597
   76SLPC   H9Y 6908   3.517   6.457   5.311  1.3325 -2.9693  0.2160
   76SLPC  C310 6909   3.430   6.363   5.129 -0.0862 -0.5246 -0.2238
   76SLPC  H10X 6910   3.336   6.305   5.111  0.8979 -1.6980 -1.8294
   76SLPC  H10Y 6911   3.513   6.295   5.103 -2.6360 -3.5509 -1.0268
   76SLPC  C311 6912   3.432   6.493   5.041 -0.1999 -0.1220 -0.2216
   76SLPC  H11X 6913   3.524   6.532   5.088 -0.9609 -0.4491  1.6272
   76SLPC  H11Y 6914   3.343   6.557   5.062  0.2526  0.0430  1.3062
   76SLPC  C312 6915   3.454   6.470   4.888  0.4410  0.3049 -0.1881
   76SLPC  H12X 6916   3.366   6.411   4.854 -1.0325  1.3525  1.6180
   76SLPC  H12Y 6917   3.544   6.408   4.865  2.2341  2.2805  1.1018
   76SLPC  C313 6918   3.464   6.599   4.809  0.4268 -0.2442 -0.0251
   76SLPC  H13X 6919   3.552   6.653   4.849 -0.7313  1.1994  0.6646
   76SLPC  H13Y 6920   3.376   6.657   4.844 -1.1036 -2.5099  0.0422
   76SLPC  C314 6921   3.473   6.579   4.663  0.3178 -0.1074  0.0159
   76SLPC  H14X 6922   3.387   6.512   4.640 -0.0350  0.0463  0.8532
   76SLPC  H14Y 6923   3.554   6.509   4.635 -2.1524 -3.6182  0.9671
   76SLPC  C315 6924   3.465   6.704   4.579  0.5810  0.2552  0.2300
   76SLPC  H15X 6925   3.465   6.671   4.472 -0.6184  0.5028  0.1332
   76SLPC  H15Y 6926   3.563   6.755   4.590  0.0939  0.7488  2.6350
   76SLPC  C316 6927   3.344   6.791   4.603 -0.0291  0.5275  0.3953
   76SLPC  H16X 6928   3.357   6.885   4.546  2.1983 -0.3980 -0.7177
   76SLPC  H16Y 6929   3.336   6.826   4.709 -1.1457  1.2186  0.1078
   76SLPC  C317 6930   3.198   6.736   4.574  0.5473  0.5883 -0.2252
   76SLPC  H17X 6931   3.199   6.640   4.629  0.6387  1.9197  2.2371
   76SLPC  H17Y 6932   3.191   6.718   4.465  1.2054 -0.4935 -0.1100
   76SLPC  C318 6933   3.077   6.815   4.597 -0.1526  0.0842  0.2251
   76SLPC  H18X 6934   2.979   6.766   4.578  0.2569 -0.1178 -1.5172
   76SLPC  H18Y 6935   3.081   6.905   4.533  1.0549  1.0834  1.6279
   76SLPC  H18Z 6936   3.066   6.837   4.706  1.1648  0.5351  0.2827
   77SLPC     N 6937   4.676   5.734   6.828  0.0749  0.1803 -0.1006
   77SLPC   C13 6938   4.761   5.654   6.737 -0.9470  0.9330 -0.1401
   77SLPC  H13A 6939   4.781   5.714   6.650  2.5190 -1.6596 -1.3780
   77SLPC  H13B 6940   4.854   5.642   6.791 -0.4730  0.2039 -1.0872
   77SLPC  H13C 6941   4.727   5.556   6.708 -0.2577  0.6288  0.0506
   77SLPC   C14 6942   4.734   5.868   6.863  0.1035  0.0511  0.5444
   77SLPC  H14A 6943   4.671   5.924   6.931 -0.5292 -0.4715  0.4036
   77SLPC  H14B 6944   4.836   5.875   6.897  0.4828  3.4058 -0.9405
   77SLPC  H14C 6945   4.734   5.931   6.776 -1.0483 -0.1505  0.3869
   77SLPC   C15 6946   4.666   5.659   6.960 -0.0236  0.3160  0.5560
   77SLPC  H15A 6947   4.607   5.707   7.036  0.0714 -1.7387  2.0138
   77SLPC  H15B 6948   4.624   5.560   6.951  0.9415  0.0711 -2.1043
   77SLPC  H15C 6949   4.764   5.641   7.001 -0.7801 -0.8161  1.9667
   77SLPC   C12 6950   4.534   5.750   6.771 -0.1749 -0.4860  0.3891
   77SLPC  H12A 6951   4.536   5.814   6.684  1.4736 -0.1496  0.6470
   77SLPC  H12B 6952   4.475   5.805   6.842 -0.8091 -0.9361  0.2270
   77SLPC   C11 6953   4.452   5.619   6.759 -0.7113  0.4401  1.0343
   77SLPC  H11A 6954   4.452   5.569   6.859  1.8907  0.6940  1.2263
   77SLPC  H11B 6955   4.509   5.554   6.689 -1.2290 -2.5263  3.1567
   77SLPC     P 6956   4.221   5.528   6.671 -0.3378  0.3819  0.0670
   77SLPC   O13 6957   4.260   5.397   6.739 -0.4382  0.2947  0.2544
   77SLPC   O14 6958   4.080   5.568   6.696 -0.4681  0.3407  0.1281
   77SLPC   O12 6959   4.320   5.646   6.710  0.1625  0.1093 -0.5025
   77SLPC   O11 6960   4.239   5.512   6.514  0.0563  0.6596 -0.0504
   77SLPC    C1 6961   4.336   5.592   6.443 -0.1502  0.3303  0.0991
   77SLPC    HA 6962   4.438   5.589   6.488 -0.2012  1.3635  0.3006
   77SLPC    HB 6963   4.356   5.558   6.339  1.2827 -0.2729  0.5337
   77SLPC    C2 6964   4.289   5.743   6.425 -0.7192  0.9210  0.7935
   77SLPC    HS 6965   4.253   5.776   6.525 -2.4478  1.5337  0.0012
   77SLPC   O21 6966   4.186   5.751   6.330  0.3342 -0.3181 -0.3373
   77SLPC   C21 6967   4.081   5.828   6.366 -0.3518 -0.5263 -0.3192
   77SLPC   O22 6968   4.075   5.902   6.461 -0.3396  0.6472  0.1326
   77SLPC   C22 6969   3.974   5.802   6.262  0.8471 -0.0983  0.2774
   77SLPC   H2R 6970   4.018   5.739   6.182  0.3406  0.4268 -0.4230
   77SLPC   H2S 6971   3.897   5.749   6.323 -1.7094  3.2120  0.1949
   77SLPC    C3 6972   4.409   5.836   6.401 -0.0388  0.0092  0.2239
   77SLPC    HX 6973   4.490   5.831   6.478  2.0527 -0.0403 -1.8664
   77SLPC    HY 6974   4.386   5.945   6.405 -2.2309 -0.3894 -0.5813
   77SLPC   O31 6975   4.478   5.802   6.280  0.2131 -0.2564 -0.8215
   77SLPC   C31 6976   4.427   5.861   6.177  0.6108 -0.2404 -0.2389
   77SLPC   O32 6977   4.349   5.954   6.183  0.3932  0.0292  0.7587
   77SLPC   C32 6978   4.505   5.812   6.057 -0.5649 -0.8342  0.3563
   77SLPC   H2X 6979   4.463   5.711   6.034 -0.3749 -0.8188 -0.0655
   77SLPC   H2Y 6980   4.606   5.794   6.098 -0.0199  1.6878  0.2323
   77SLPC   C23 6981   3.906   5.934   6.225  0.4608 -0.2731  0.0214
   77SLPC   H3R 6982   3.888   5.998   6.313  0.3104  1.0260 -0.9268
   77SLPC   H3S 6983   3.802   5.905   6.197  0.3762  0.7664 -0.7908
   77SLPC   C24 6984   3.969   6.009   6.108 -0.3370  0.3543 -0.4719
   77SLPC   H4R 6985   3.937   5.945   6.023 -0.2060 -2.1793  1.2569
   77SLPC   H4S 6986   4.080   6.005   6.112 -0.3492 -3.7811  0.0160
   77SLPC   C25 6987   3.935   6.158   6.103  0.8782  0.5345 -0.6303
   77SLPC   H5R 6988   3.994   6.205   6.184  0.4455  1.6072 -0.9276
   77SLPC   H5S 6989   3.827   6.176   6.118  1.0161 -0.3950  1.9113
   77SLPC   C26 6990   3.972   6.226   5.974  0.2180 -0.1394  0.3398
   77SLPC   H6R 6991   3.955   6.336   5.978 -0.3520 -0.0956 -1.8908
   77SLPC   H6S 6992   3.905   6.204   5.888  1.3672  0.8829 -0.8667
   77SLPC   C27 6993   4.112   6.179   5.930 -0.6612 -0.1644 -0.3078
   77SLPC   H7R 6994   4.114   6.070   5.909 -0.8933 -0.0282 -1.0884
   77SLPC   H7S 6995   4.188   6.195   6.009  0.9430  0.1460 -1.8371
   77SLPC   C28 6996   4.169   6.256   5.805 -1.0910  0.1600 -0.9545
   77SLPC   H8R 6997   4.279   6.243   5.801 -0.9091 -0.0800  2.4877
   77SLPC   H8S 6998   4.143   6.363   5.823  0.0020  0.0233  1.8206
   77SLPC   C29 6999   4.129   6.218   5.667  0.2294 -0.8857  0.3671
   77SLPC   H9R 7000   4.200   6.141   5.633  0.8334 -1.0976  2.0064
   77SLPC  C210 7001   4.037   6.255   5.579  0.0131 -0.3962 -0.0375
   77SLPC  H10R 7002   4.040   6.218   5.476 -2.2636 -0.7744  0.0005
   77SLPC  C211 7003   3.937   6.363   5.598  0.0742 -0.1374 -0.0175
   77SLPC  H11R 7004   3.977   6.453   5.546 -0.7137 -0.6165 -1.4956
   77SLPC  H11S 7005   3.935   6.399   5.703  1.6546  1.1578 -0.3911
   77SLPC  C212 7006   3.806   6.328   5.540 -0.8684  0.3714 -0.6092
   77SLPC  H12R 7007   3.731   6.292   5.612 -0.4851 -0.3026 -0.5376
   77SLPC  C213 7008   3.773   6.340   5.413 -0.2257  0.2211  0.9511
   77SLPC  H13R 7009   3.673   6.311   5.379  0.0679 -0.3959  0.6039
   77SLPC  C214 7010   3.865   6.386   5.303 -0.3567 -0.1458 -0.1384
   77SLPC  H14R 7011   3.970   6.403   5.335 -1.0148  2.5476  0.9181
   77SLPC  H14S 7012   3.821   6.482   5.270  1.0887  0.0257 -1.7040
   77SLPC  C215 7013   3.879   6.303   5.175  0.1261  0.0018 -0.7955
   77SLPC  H15R 7014   3.783   6.290   5.120  0.9495 -0.5303 -2.1796
   77SLPC  H15S 7015   3.904   6.198   5.201 -2.9777 -0.3890  1.1251
   77SLPC  C216 7016   3.969   6.368   5.069  0.3107 -0.0645  0.4416
   77SLPC  H16R 7017   3.979   6.286   4.995 -0.8279  1.0573 -1.0168
   77SLPC  H16S 7018   4.071   6.397   5.102  0.5344  0.3039 -0.5434
   77SLPC  C217 7019   3.898   6.482   4.990  0.4683  0.4804 -0.4028
   77SLPC  H17R 7020   3.906   6.583   5.036 -2.6236  0.3241  0.7023
   77SLPC  H17S 7021   3.790   6.458   4.980  0.9017 -1.2549 -1.2748
   77SLPC  C218 7022   3.945   6.486   4.844  0.1089 -0.3650 -0.4910
   77SLPC  H18R 7023   3.934   6.390   4.789  1.5007 -0.1041 -1.2715
   77SLPC  H18S 7024   4.047   6.529   4.847  0.7633 -1.8410 -0.8592
   77SLPC  H18T 7025   3.872   6.540   4.779  0.3980 -0.5255 -0.9585
   77SLPC   C33 7026   4.506   5.911   5.943  0.2766  0.1577  0.8686
   77SLPC   H3X 7027   4.523   6.017   5.971 -1.1670  0.3344  1.1783
   77SLPC   H3Y 7028   4.405   5.910   5.897 -0.0853 -1.9787  1.6226
   77SLPC   C34 7029   4.598   5.886   5.819 -0.3506  0.9119 -0.1473
   77SLPC   H4X 7030   4.576   5.783   5.785 -3.1210  1.8968 -1.6028
   77SLPC   H4Y 7031   4.705   5.892   5.850 -0.7779 -0.0713  1.6909
   77SLPC   C35 7032   4.564   5.971   5.697 -0.2997 -0.3286  0.4279
   77SLPC   H5X 7033   4.563   6.077   5.729 -1.6554  0.2251 -1.2570
   77SLPC   H5Y 7034   4.462   5.944   5.660 -0.7476  2.3812 -0.5931
   77SLPC   C36 7035   4.650   5.965   5.568 -0.7538 -0.0497  0.2128
   77SLPC   H6X 7036   4.753   6.007   5.579 -0.4685  0.5977 -3.5519
   77SLPC   H6Y 7037   4.604   6.023   5.486  0.1133  2.6181  1.4997
   77SLPC   C37 7038   4.670   5.815   5.522 -0.1890 -0.0864  0.1044
   77SLPC   H7X 7039   4.570   5.775   5.495  0.6013 -1.7391 -0.4670
   77SLPC   H7Y 7040   4.726   5.766   5.604  1.2472 -0.4018 -1.0304
   77SLPC   C38 7041   4.763   5.807   5.403 -0.0536 -0.3948  0.2846
   77SLPC   H8X 7042   4.766   5.697   5.390  3.0785 -0.3638 -0.1598
   77SLPC   H8Y 7043   4.868   5.836   5.425  0.0535  1.0414 -1.8400
   77SLPC   C39 7044   4.723   5.884   5.274 -0.0948 -0.7418  0.7357
   77SLPC   H9X 7045   4.757   5.990   5.276 -0.5439 -0.5527 -0.6219
   77SLPC   H9Y 7046   4.613   5.893   5.259  0.0325  1.1006  0.6734
   77SLPC  C310 7047   4.786   5.827   5.143  0.2645  0.9788 -0.1205
   77SLPC  H10X 7048   4.722   5.856   5.057 -1.3616 -1.2076  0.2552
   77SLPC  H10Y 7049   4.757   5.720   5.142  1.0325  0.7703 -0.6556
   77SLPC  C311 7050   4.933   5.841   5.124 -1.0507  0.8877 -0.1999
   77SLPC  H11X 7051   4.980   5.776   5.202  0.5081  1.2623 -0.7932
   77SLPC  H11Y 7052   4.981   5.940   5.139  4.0675 -1.3034 -0.1117
   77SLPC  C312 7053   4.970   5.779   4.979  0.1276  0.0483 -0.4043
   77SLPC  H12X 7054   4.913   5.834   4.902  0.9781  2.6634  0.7242
   77SLPC  H12Y 7055   4.941   5.672   4.989  2.0949 -0.5349 -0.4190
   77SLPC  C313 7056   5.120   5.788   4.949  0.5568 -0.1594 -0.5518
   77SLPC  H13X 7057   5.182   5.791   5.041 -0.0153 -0.4177 -0.1454
   77SLPC  H13Y 7058   5.131   5.878   4.886  0.4606 -0.1706 -0.5848
   77SLPC  C314 7059   5.156   5.661   4.871 -0.0500  1.0303 -0.1314
   77SLPC  H14X 7060   5.149   5.568   4.932  0.5936  0.6788 -0.5830
   77SLPC  H14Y 7061   5.265   5.661   4.851  0.5366 -0.5167  2.5379
   77SLPC  C315 7062   5.080   5.634   4.736  0.1134 -0.1106 -0.2281
   77SLPC  H15X 7063   5.001   5.711   4.723 -0.8984 -1.2758 -1.2299
   77SLPC  H15Y 7064   5.043   5.530   4.725 -1.2887  0.3975 -0.4750
   77SLPC  C316 7065   5.164   5.665   4.615  0.1231  0.6859  0.0064
   77SLPC  H16X 7066   5.200   5.770   4.622  3.8179 -0.5449  2.7352
   77SLPC  H16Y 7067   5.101   5.658   4.523 -1.8647  0.4738  1.3208
   77SLPC  C317 7068   5.288   5.574   4.587  0.4164 -0.0926 -0.3085
   77SLPC  H17X 7069   5.245   5.472   4.583  0.6943 -0.1835 -0.9275
   77SLPC  H17Y 7070   5.368   5.589   4.662  1.3761  1.2753 -1.5490
   77SLPC  C318 7071   5.356   5.587   4.449 -0.0040 -0.0093 -0.6670
   77SLPC  H18X 7072   5.415   5.681   4.446 -1.3962  0.9430  0.5213
   77SLPC  H18Y 7073   5.278   5.602   4.370 -0.3084  1.2066 -0.1585
   77SLPC  H18Z 7074   5.406   5.496   4.410  0.0123 -0.7157  0.9553
   78SLPC     N 7075   0.840   5.542   6.994  0.2895 -0.2699  0.2162
   78SLPC   C13 7076   0.859   5.455   6.878  0.7169  0.1964  0.0580
   78SLPC  H13A 7077   0.776   5.459   6.809  1.3760 -0.1225 -0.7804
   78SLPC  H13B 7078   0.948   5.481   6.822  0.2511 -0.8554 -1.2358
   78SLPC  H13C 7079   0.861   5.352   6.910 -0.9377  0.1622  0.1365
   78SLPC   C14 7080   0.959   5.538   7.076 -0.3586 -0.1676  0.3412
   78SLPC  H14A 7081   0.927   5.538   7.179 -2.1803 -1.5434 -0.1845
   78SLPC  H14B 7082   1.018   5.447   7.074  1.0651  0.7223 -1.3394
   78SLPC  H14C 7083   1.026   5.612   7.036 -1.3781  0.9209  0.6093
   78SLPC   C15 7084   0.730   5.478   7.070 -0.7088  0.4456 -0.5774
   78SLPC  H15A 7085   0.635   5.475   7.019 -0.9686 -1.1048 -0.0520
   78SLPC  H15B 7086   0.748   5.374   7.090  2.1130  0.6966 -1.4401
   78SLPC  H15C 7087   0.713   5.525   7.166 -2.4983 -0.6458 -0.3217
   78SLPC   C12 7088   0.819   5.691   6.956 -0.1813  0.5284  0.3891
   78SLPC  H12A 7089   0.910   5.731   6.914 -0.9959  1.7720 -0.2561
   78SLPC  H12B 7090   0.812   5.748   7.048 -0.2784 -0.4337  0.9908
   78SLPC   C11 7091   0.707   5.723   6.853 -0.1449  1.2356  0.3642
   78SLPC  H11A 7092   0.705   5.670   6.755 -0.3788  0.3264  0.8494
   78SLPC  H11B 7093   0.729   5.828   6.825 -0.5953  1.1036 -0.5068
   78SLPC     P 7094   0.517   5.820   7.004  0.6235 -0.0588  0.2028
   78SLPC   O13 7095   0.485   5.758   7.135 -0.0555 -0.0290 -0.3894
   78SLPC   O14 7096   0.608   5.934   7.013  0.2403 -0.0999  0.1875
   78SLPC   O12 7097   0.580   5.709   6.908  0.5399 -0.5909 -0.2434
   78SLPC   O11 7098   0.380   5.861   6.939 -0.0367  0.2794 -0.3921
   78SLPC    C1 7099   0.292   5.763   6.874 -0.2448  0.2845  0.9170
   78SLPC    HA 7100   0.303   5.657   6.905 -1.2299  0.5557  2.2897
   78SLPC    HB 7101   0.191   5.794   6.908 -2.1129 -3.2790 -0.9092
   78SLPC    C2 7102   0.306   5.740   6.719 -0.8036  0.1340  0.5242
   78SLPC    HS 7103   0.394   5.673   6.708 -1.2703 -0.2728 -1.1828
   78SLPC   O21 7104   0.324   5.866   6.645  0.2100  0.3155  0.3633
   78SLPC   C21 7105   0.405   5.857   6.536 -0.0795 -0.0507  0.0489
   78SLPC   O22 7106   0.471   5.757   6.505 -0.9777 -0.0654  0.6946
   78SLPC   C22 7107   0.387   5.981   6.443 -0.2057 -0.1956 -0.1760
   78SLPC   H2R 7108   0.278   5.989   6.426  0.1301  0.3662 -2.3747
   78SLPC   H2S 7109   0.426   6.067   6.503  0.3749 -1.5083  1.4068
   78SLPC    C3 7110   0.190   5.660   6.658  0.1507  0.2910  0.4822
   78SLPC    HX 7111   0.105   5.732   6.650 -0.1153 -0.0446  0.2220
   78SLPC    HY 7112   0.168   5.563   6.709 -0.6443  0.3154  0.1983
   78SLPC   O31 7113   0.236   5.620   6.524  0.2210 -0.1738  0.1303
   78SLPC   C31 7114   0.141   5.553   6.454 -0.5208  0.2124  0.8979
   78SLPC   O32 7115   0.027   5.529   6.493 -0.2915  0.2906  0.2369
   78SLPC   C32 7116   0.205   5.531   6.312 -0.2398  0.6628  0.0444
   78SLPC   H2X 7117   0.247   5.429   6.307  0.0172  0.7875 -0.3429
   78SLPC   H2Y 7118   0.288   5.602   6.290 -0.3668  0.8720  0.2399
   78SLPC   C23 7119   0.458   5.980   6.308 -0.2447  0.5150 -0.5971
   78SLPC   H3R 7120   0.564   5.955   6.330 -0.3673  1.2657  1.0309
   78SLPC   H3S 7121   0.468   6.085   6.272 -1.0605  1.1034  0.7985
   78SLPC   C24 7122   0.390   5.896   6.201 -0.0926  0.3302 -0.1831
   78SLPC   H4R 7123   0.279   5.902   6.191 -0.3409  0.1783  1.9583
   78SLPC   H4S 7124   0.422   5.790   6.213  2.3357  1.1633  1.4501
   78SLPC   C25 7125   0.444   5.938   6.061 -0.1454 -0.2993  0.2754
   78SLPC   H5R 7126   0.554   5.929   6.055 -0.1256 -0.7712  1.0928
   78SLPC   H5S 7127   0.419   6.045   6.049  0.7842 -0.0134  0.7874
   78SLPC   C26 7128   0.394   5.862   5.944 -0.5132  0.3402 -0.4221
   78SLPC   H6R 7129   0.283   5.874   5.939 -0.6796 -0.6318  0.4507
   78SLPC   H6S 7130   0.423   5.762   5.983 -0.6857  0.0216 -1.1002
   78SLPC   C27 7131   0.462   5.908   5.814 -0.3410  0.2926 -0.5727
   78SLPC   H7R 7132   0.434   5.833   5.738 -2.5530 -0.0488  0.4874
   78SLPC   H7S 7133   0.572   5.902   5.828 -0.4104  0.3113 -0.0022
   78SLPC   C28 7134   0.424   6.048   5.768  0.6078  0.1288 -0.3780
   78SLPC   H8R 7135   0.464   6.115   5.847  0.7617  1.5994 -1.6567
   78SLPC   H8S 7136   0.317   6.072   5.784  0.7834 -0.7873  2.7381
   78SLPC   C29 7137   0.473   6.091   5.626 -0.0314 -0.2761  0.2088
   78SLPC   H9R 7138   0.545   6.173   5.619  1.5471 -1.6706 -0.5005
   78SLPC  C210 7139   0.425   6.045   5.511  0.6492  0.3274 -0.1597
   78SLPC  H10R 7140   0.456   6.090   5.416  0.9132  2.1039  0.7148
   78SLPC  C211 7141   0.319   5.938   5.502 -0.1930  0.0677  0.0670
   78SLPC  H11R 7142   0.287   5.909   5.605  0.9353  0.3068  0.5025
   78SLPC  H11S 7143   0.365   5.848   5.456 -0.0472  0.3164 -0.2770
   78SLPC  C212 7144   0.204   5.992   5.421  0.0364 -0.2715 -0.2450
   78SLPC  H12R 7145   0.146   6.070   5.474  3.3474  3.8487 -2.1056
   78SLPC  C213 7146   0.188   5.990   5.288 -0.0925  0.7446  0.1827
   78SLPC  H13R 7147   0.095   6.033   5.249  0.6245  0.9141 -1.4348
   78SLPC  C214 7148   0.268   5.918   5.180 -0.0828 -0.7995 -0.1727
   78SLPC  H14R 7149   0.210   5.842   5.124 -0.3750 -0.7510  0.0606
   78SLPC  H14S 7150   0.358   5.866   5.220 -0.1178 -0.3579  0.4967
   78SLPC  C215 7151   0.325   6.022   5.075  0.8170 -0.0288 -0.1289
   78SLPC  H15R 7152   0.253   6.105   5.060 -1.4782 -1.6228  1.3995
   78SLPC  H15S 7153   0.347   5.969   4.980 -0.7566 -2.3967  0.7372
   78SLPC  C216 7154   0.458   6.094   5.118  0.3180  0.7088  0.0228
   78SLPC  H16R 7155   0.547   6.031   5.134  1.1974  1.9181  0.0657
   78SLPC  H16S 7156   0.439   6.137   5.218 -0.2194  0.8642 -0.1397
   78SLPC  C217 7157   0.499   6.214   5.033 -0.8870 -0.0211 -0.7732
   78SLPC  H17R 7158   0.420   6.293   5.041 -1.8004 -1.0271  0.5682
   78SLPC  H17S 7159   0.503   6.167   4.933 -0.0635 -1.8858  0.1026
   78SLPC  C218 7160   0.630   6.267   5.073 -0.5642  0.4515 -0.2823
   78SLPC  H18R 7161   0.686   6.328   4.999 -0.9882  1.0598 -0.1086
   78SLPC  H18S 7162   0.683   6.172   5.094 -2.3314 -1.1888 -2.7010
   78SLPC  H18T 7163   0.624   6.320   5.170 -0.0872  0.8207 -0.4511
   78SLPC   C33 7164   0.104   5.540   6.203  0.0944 -0.7845 -0.3546
   78SLPC   H3X 7165   0.034   5.625   6.220 -0.8636 -1.7043  0.4957
   78SLPC   H3Y 7166   0.050   5.443   6.214 -0.9619 -0.0434  1.5070
   78SLPC   C34 7167   0.175   5.559   6.067 -0.0234 -0.3034  0.3178
   78SLPC   H4X 7168   0.267   5.498   6.065  0.0634 -0.1941  0.8163
   78SLPC   H4Y 7169   0.196   5.667   6.055  0.3773 -0.0264  2.9052
   78SLPC   C35 7170   0.094   5.509   5.941  0.1940 -0.2236  0.0726
   78SLPC   H5X 7171  -0.002   5.565   5.952 -0.4412 -1.1014 -0.8315
   78SLPC   H5Y 7172   0.069   5.401   5.945 -1.5131  0.1770  1.2002
   78SLPC   C36 7173   0.153   5.550   5.810  0.1734 -0.3929  0.0886
   78SLPC   H6X 7174   0.232   5.479   5.777 -1.2582 -1.5663 -0.9358
   78SLPC   H6Y 7175   0.181   5.658   5.810 -1.7519  0.1612  1.4967
   78SLPC   C37 7176   0.047   5.535   5.705 -0.1730  0.5379 -0.1735
   78SLPC   H7X 7177  -0.045   5.590   5.732 -1.8542 -0.0344 -4.1183
   78SLPC   H7Y 7178   0.010   5.431   5.689 -2.5115  1.3055 -0.0999
   78SLPC   C38 7179   0.098   5.587   5.566  0.7711 -0.3925  0.8068
   78SLPC   H8X 7180   0.189   5.528   5.544  1.6638  0.3665  2.2698
   78SLPC   H8Y 7181   0.127   5.694   5.565  0.9015 -0.4305 -0.4913
   78SLPC   C39 7182  -0.009   5.558   5.460  0.1346  0.4207 -0.1513
   78SLPC   H9X 7183  -0.057   5.459   5.477 -1.0167  0.2069 -3.8867
   78SLPC   H9Y 7184   0.044   5.549   5.363  0.1968  0.3116 -0.1078
   78SLPC  C310 7185  -0.117   5.662   5.460  0.3468  0.3554 -0.3806
   78SLPC  H10X 7186  -0.073   5.763   5.447 -0.0038  0.8713  1.9991
   78SLPC  H10Y 7187  -0.170   5.660   5.557 -1.5179  0.3945 -1.3430
   78SLPC  C311 7188  -0.209   5.641   5.345 -0.0438 -0.9114 -0.4621
   78SLPC  H11X 7189  -0.149   5.604   5.259 -0.2630 -0.8746 -0.6331
   78SLPC  H11Y 7190  -0.256   5.735   5.308 -1.2139 -1.0932  0.5261
   78SLPC  C312 7191  -0.334   5.561   5.370 -0.5655  0.3039  0.7267
   78SLPC  H12X 7192  -0.383   5.577   5.468  0.0812 -1.7632  1.4303
   78SLPC  H12Y 7193  -0.289   5.460   5.373 -0.0323  0.5522  1.9137
   78SLPC  C313 7194  -0.444   5.566   5.261 -0.1579 -0.1105  0.1601
   78SLPC  H13X 7195  -0.498   5.662   5.274 -0.9574 -0.6229  0.7012
   78SLPC  H13Y 7196  -0.515   5.481   5.265 -0.6892  0.3708  1.9341
   78SLPC  C314 7197  -0.375   5.559   5.123  0.3902  0.0031 -0.4961
   78SLPC  H14X 7198  -0.308   5.470   5.110  0.1364 -0.5897  1.8241
   78SLPC  H14Y 7199  -0.321   5.654   5.104 -0.3909  0.5722  0.1250
   78SLPC  C315 7200  -0.470   5.553   5.009  0.5038 -0.1747 -0.1070
   78SLPC  H15X 7201  -0.521   5.454   5.011  1.9399 -0.9537 -0.4893
   78SLPC  H15Y 7202  -0.406   5.560   4.919 -0.2143 -0.1475 -0.6270
   78SLPC  C316 7203  -0.571   5.667   5.014  0.0908 -0.4606  0.2469
   78SLPC  H16X 7204  -0.524   5.760   5.050 -1.1399 -0.2461  1.3786
   78SLPC  H16Y 7205  -0.652   5.650   5.089  0.4773 -0.7815  0.5998
   78SLPC  C317 7206  -0.618   5.707   4.874 -0.3321 -0.1169 -0.0983
   78SLPC  H17X 7207  -0.666   5.616   4.831 -1.1553  0.2556  0.0171
   78SLPC  H17Y 7208  -0.539   5.736   4.801 -0.3654 -2.7074 -1.2695
   78SLPC  C318 7209  -0.708   5.827   4.890  0.2073 -0.3333 -0.3796
   78SLPC  H18X 7210  -0.790   5.804   4.961  0.7077  0.4015  0.4718
   78SLPC  H18Y 7211  -0.755   5.862   4.796 -2.0659  0.8434  1.1215
   78SLPC  H18Z 7212  -0.647   5.915   4.919  1.9993 -1.1572 -1.4310
   79SLPC     N 7213   4.712   1.057   6.808  0.1432  0.2645 -0.0844
   79SLPC   C13 7214   4.708   1.060   6.652  0.6123 -0.9187 -0.2516
   79SLPC  H13A 7215   4.639   0.984   6.619 -2.2314  1.4953 -0.3351
   79SLPC  H13B 7216   4.654   1.150   6.625 -0.1896 -1.7304 -1.4697
   79SLPC  H13C 7217   4.806   1.054   6.606 -0.0180 -1.2244 -1.6044
   79SLPC   C14 7218   4.742   0.919   6.845  0.1200  0.2099 -0.2735
   79SLPC  H14A 7219   4.754   0.903   6.951  0.9962 -1.0536 -0.5342
   79SLPC  H14B 7220   4.675   0.841   6.813  0.8718 -0.9390  0.8771
   79SLPC  H14C 7221   4.831   0.889   6.791 -0.6078 -0.6251 -1.0616
   79SLPC   C15 7222   4.581   1.105   6.854  0.1537 -0.1034 -0.1657
   79SLPC  H15A 7223   4.568   1.207   6.822  1.7858  0.2457  0.1927
   79SLPC  H15B 7224   4.500   1.038   6.830  0.2006  0.0710 -0.8230
   79SLPC  H15C 7225   4.581   1.107   6.962 -3.6162  0.2968 -0.0717
   79SLPC   C12 7226   4.826   1.150   6.852 -1.0147 -0.2346 -0.2676
   79SLPC  H12A 7227   4.840   1.146   6.959 -1.5591 -2.3825 -0.2311
   79SLPC  H12B 7228   4.792   1.251   6.835  2.6531  0.9498 -1.3916
   79SLPC   C11 7229   4.971   1.144   6.777  0.0759  0.3276  0.1233
   79SLPC  H11A 7230   5.038   1.200   6.845  0.3086  0.1466  0.0436
   79SLPC  H11B 7231   4.967   1.203   6.683 -0.7153 -0.8226 -0.6014
   79SLPC     P 7232   5.104   0.970   6.622  0.0926  0.1575 -0.0081
   79SLPC   O13 7233   5.243   1.027   6.618 -0.1351 -0.3461 -0.1930
   79SLPC   O14 7234   5.097   0.822   6.606  0.6800  0.5356 -0.4253
   79SLPC   O12 7235   5.022   1.010   6.755 -0.5817  0.0266 -0.4655
   79SLPC   O11 7236   5.010   1.039   6.506 -0.3711  0.5199  0.0576
   79SLPC    C1 7237   4.932   0.963   6.413 -0.3472 -0.0206  0.2808
   79SLPC    HA 7238   4.894   0.872   6.463  2.8959 -1.2584  0.7252
   79SLPC    HB 7239   4.852   1.024   6.365 -0.2417  0.6474  0.9273
   79SLPC    C2 7240   5.016   0.906   6.295 -0.2640 -0.2103 -0.2448
   79SLPC    HS 7241   5.115   0.875   6.336 -0.0566 -0.9139 -1.2414
   79SLPC   O21 7242   5.029   1.001   6.179 -0.3847 -0.4732 -0.7160
   79SLPC   C21 7243   5.122   1.092   6.178 -0.7368 -0.0831  0.2352
   79SLPC   O22 7244   5.185   1.127   6.274  0.9292  0.0573 -0.2661
   79SLPC   C22 7245   5.141   1.156   6.043 -0.0304 -0.7253 -0.3359
   79SLPC   H2R 7246   5.098   1.258   6.047 -0.3834 -0.8261 -1.3474
   79SLPC   H2S 7247   5.249   1.178   6.033  0.1963 -0.8613  1.4747
   79SLPC    C3 7248   4.964   0.766   6.253 -0.9216 -0.6045  0.7436
   79SLPC    HX 7249   4.869   0.787   6.200 -0.2761  0.8507  0.1186
   79SLPC    HY 7250   4.942   0.711   6.347 -0.3212  2.9777  3.1695
   79SLPC   O31 7251   5.061   0.702   6.159  0.1515 -0.3859  0.1123
   79SLPC   C31 7252   5.081   0.575   6.169  0.0710  0.3502  0.4285
   79SLPC   O32 7253   5.002   0.493   6.219 -0.0386  1.1254 -0.0280
   79SLPC   C32 7254   5.219   0.535   6.111 -0.0711 -0.0573 -0.0843
   79SLPC   H2X 7255   5.234   0.431   6.150 -0.5189 -0.3516 -0.6770
   79SLPC   H2Y 7256   5.291   0.610   6.150 -1.3300  0.3612  1.5488
   79SLPC   C23 7257   5.079   1.071   5.920 -0.1075  0.2755  0.0747
   79SLPC   H3R 7258   4.977   1.040   5.953 -0.4724  0.4334 -0.8818
   79SLPC   H3S 7259   5.145   0.983   5.908  1.2408  1.0634  1.2953
   79SLPC   C24 7260   5.083   1.150   5.791 -0.1204 -0.2916  0.2567
   79SLPC   H4R 7261   5.011   1.235   5.795  0.4329  0.1684  0.9942
   79SLPC   H4S 7262   5.048   1.087   5.707 -2.4105 -1.0785  1.7002
   79SLPC   C25 7263   5.210   1.219   5.739 -0.3109  0.2267 -0.0547
   79SLPC   H5R 7264   5.300   1.155   5.752 -0.5390  0.2014  1.5526
   79SLPC   H5S 7265   5.243   1.309   5.796 -0.1821  0.2316 -0.1364
   79SLPC   C26 7266   5.209   1.260   5.589  0.3292 -0.6836 -0.0388
   79SLPC   H6R 7267   5.103   1.281   5.564 -0.1773 -0.5597  2.0219
   79SLPC   H6S 7268   5.228   1.170   5.526 -0.0399 -0.6451 -0.2055
   79SLPC   C27 7269   5.295   1.382   5.565  0.1701 -0.0547  0.4879
   79SLPC   H7R 7270   5.386   1.358   5.624 -0.3316  0.4071  1.4838
   79SLPC   H7S 7271   5.243   1.467   5.615  0.5192 -0.3274  1.3430
   79SLPC   C28 7272   5.340   1.398   5.426 -0.5475  0.1305 -0.2611
   79SLPC   H8R 7273   5.391   1.306   5.391 -1.3170 -0.5528  0.3903
   79SLPC   H8S 7274   5.404   1.489   5.433 -0.6126  0.1867 -0.3922
   79SLPC   C29 7275   5.215   1.440   5.348 -0.1378  0.4173 -0.1732
   79SLPC   H9R 7276   5.142   1.488   5.415  1.3000  1.1736  0.8935
   79SLPC  C210 7277   5.195   1.424   5.216  0.2201  0.1882  0.3563
   79SLPC  H10R 7278   5.107   1.473   5.171  1.9630  2.1070 -1.1821
   79SLPC  C211 7279   5.283   1.369   5.098 -0.2799  0.3585 -0.6964
   79SLPC  H11R 7280   5.228   1.286   5.049  0.5981  0.0533 -1.1875
   79SLPC  H11S 7281   5.371   1.319   5.142 -0.5712 -0.6156 -1.1884
   79SLPC  C212 7282   5.338   1.472   5.002 -0.0813  0.4337  1.1398
   79SLPC  H12R 7283   5.416   1.532   5.051  0.6676 -0.4668  1.0907
   79SLPC  C213 7284   5.293   1.481   4.869 -0.3243  0.6482 -0.0624
   79SLPC  H13R 7285   5.345   1.559   4.811 -1.0914  1.0577 -0.2115
   79SLPC  C214 7286   5.189   1.404   4.790 -0.2532  0.2994 -0.6505
   79SLPC  H14R 7287   5.099   1.467   4.774 -1.0691  0.0110  2.2267
   79SLPC  H14S 7288   5.156   1.314   4.846 -0.3364  1.3562  1.0845
   79SLPC  C215 7289   5.242   1.354   4.652 -0.3998  0.2945  0.3063
   79SLPC  H15R 7290   5.174   1.271   4.626  0.3492 -1.1352  2.5978
   79SLPC  H15S 7291   5.347   1.319   4.663 -0.4875  0.4052  1.6680
   79SLPC  C216 7292   5.258   1.457   4.540  0.4812  0.4167  0.0299
   79SLPC  H16R 7293   5.335   1.530   4.569  0.8169  0.8779 -1.8497
   79SLPC  H16S 7294   5.165   1.519   4.535  1.6865  2.2645 -0.2887
   79SLPC  C217 7295   5.283   1.407   4.399 -0.0350  1.2025 -0.0109
   79SLPC  H17R 7296   5.369   1.337   4.399 -0.7385  0.2986  1.1932
   79SLPC  H17S 7297   5.323   1.497   4.348  2.1007 -0.6572 -1.8480
   79SLPC  C218 7298   5.167   1.340   4.319 -0.2038 -0.6205  0.1699
   79SLPC  H18R 7299   5.074   1.401   4.312 -1.4537 -2.1523  2.4700
   79SLPC  H18S 7300   5.138   1.242   4.362  0.1744  0.2526  2.5481
   79SLPC  H18T 7301   5.205   1.327   4.215  0.3075 -1.0063  0.4056
   79SLPC   C33 7302   5.226   0.546   5.960  0.2502 -0.2687  0.4143
   79SLPC   H3X 7303   5.320   0.500   5.924 -1.0847 -2.2887 -0.6795
   79SLPC   H3Y 7304   5.220   0.652   5.929  2.6746  0.2784  1.5926
   79SLPC   C34 7305   5.116   0.469   5.881 -0.3126 -0.0000  0.3569
   79SLPC   H4X 7306   5.016   0.473   5.929 -1.2206 -2.0610 -1.1978
   79SLPC   H4Y 7307   5.141   0.361   5.873  2.4356  0.5046  0.9564
   79SLPC   C35 7308   5.102   0.525   5.738  0.1291 -0.0115 -0.5776
   79SLPC   H5X 7309   5.032   0.456   5.686  0.4900 -0.8477  0.0219
   79SLPC   H5Y 7310   5.197   0.531   5.681 -0.1304  0.9118 -0.9322
   79SLPC   C36 7311   5.041   0.662   5.723  0.4560 -0.1075  0.2126
   79SLPC   H6X 7312   5.108   0.743   5.759  2.2070 -0.6614 -1.6671
   79SLPC   H6Y 7313   4.955   0.662   5.794 -0.5006 -0.3900 -0.9310
   79SLPC   C37 7314   5.015   0.683   5.571  0.5039 -0.7288 -0.0208
   79SLPC   H7X 7315   4.945   0.769   5.560 -2.0121 -2.7981 -1.1192
   79SLPC   H7Y 7316   4.954   0.601   5.529 -0.4777 -0.2069  0.3541
   79SLPC   C38 7317   5.142   0.705   5.486 -0.1891 -0.4172  0.0457
   79SLPC   H8X 7318   5.204   0.613   5.490 -0.4574 -0.5749  1.0390
   79SLPC   H8Y 7319   5.206   0.776   5.543  2.4829 -1.0478 -1.9714
   79SLPC   C39 7320   5.114   0.763   5.342 -0.1102 -0.5698  0.2641
   79SLPC   H9X 7321   5.050   0.852   5.362  0.6256 -0.1879  0.9977
   79SLPC   H9Y 7322   5.052   0.696   5.279 -1.5902  0.6985  0.3176
   79SLPC  C310 7323   5.246   0.800   5.269 -0.0782  0.1654 -0.5085
   79SLPC  H10X 7324   5.292   0.712   5.219 -0.3289 -0.0929 -0.2902
   79SLPC  H10Y 7325   5.332   0.826   5.335 -0.0487  1.8051 -1.1268
   79SLPC  C311 7326   5.232   0.902   5.154  0.2612 -0.1570 -0.1877
   79SLPC  H11X 7327   5.253   1.006   5.186  0.2181 -0.2529  0.1638
   79SLPC  H11Y 7328   5.128   0.903   5.116 -0.0438  1.6559  0.5957
   79SLPC  C312 7329   5.324   0.874   5.036 -0.7983 -0.0002  0.4821
   79SLPC  H12X 7330   5.300   0.770   5.006  0.1637 -0.4763  1.3140
   79SLPC  H12Y 7331   5.434   0.883   5.052 -0.2168 -2.6512 -1.3236
   79SLPC  C313 7332   5.294   0.954   4.901  0.4488  0.1036 -0.3276
   79SLPC  H13X 7333   5.362   1.041   4.897 -0.0249  0.4835 -0.1426
   79SLPC  H13Y 7334   5.186   0.978   4.910  0.8498  1.0023  4.7219
   79SLPC  C314 7335   5.324   0.880   4.776 -0.2235 -0.2836 -0.2312
   79SLPC  H14X 7336   5.233   0.822   4.753 -2.5618  0.8728  4.7845
   79SLPC  H14Y 7337   5.412   0.813   4.784  0.3431  0.6339  2.4966
   79SLPC  C315 7338   5.362   0.986   4.671 -0.2499 -0.3334  0.5271
   79SLPC  H15X 7339   5.467   1.014   4.696 -0.5854  1.6903 -0.1285
   79SLPC  H15Y 7340   5.296   1.074   4.685 -1.4202 -1.0840 -0.1740
   79SLPC  C316 7341   5.372   0.932   4.525 -0.4131  0.6986 -0.2500
   79SLPC  H16X 7342   5.455   0.859   4.519  0.4284  1.5316  0.8722
   79SLPC  H16Y 7343   5.386   1.020   4.459 -1.0179  0.7844 -0.2721
   79SLPC  C317 7344   5.247   0.862   4.462 -0.0811  0.0450 -0.3736
   79SLPC  H17X 7345   5.156   0.925   4.469 -0.7918 -0.8840 -1.0637
   79SLPC  H17Y 7346   5.204   0.776   4.517 -0.7749  0.8418  0.3714
   79SLPC  C318 7347   5.259   0.830   4.306 -0.8825  0.0464  0.0140
   79SLPC  H18X 7348   5.323   0.905   4.256 -0.5640  0.5519  1.1427
   79SLPC  H18Y 7349   5.160   0.836   4.255 -0.0039  0.4532 -1.7158
   79SLPC  H18Z 7350   5.301   0.728   4.290 -0.1505  0.1896  0.9177
   80SLPC     N 7351   3.190   3.580   7.346  0.9933  0.4227  0.1956
   80SLPC   C13 7352   3.305   3.676   7.323 -0.1729 -0.5138  0.1085
   80SLPC  H13A 7353   3.306   3.763   7.387 -0.6020 -0.5852  0.2138
   80SLPC  H13B 7354   3.401   3.629   7.341 -1.1593 -2.2994  1.0503
   80SLPC  H13C 7355   3.288   3.727   7.230  0.1792 -1.4095 -0.4587
   80SLPC   C14 7356   3.180   3.539   7.492  0.3878  0.3865  0.6592
   80SLPC  H14A 7357   3.272   3.488   7.516 -0.2037 -0.5907  0.9213
   80SLPC  H14B 7358   3.148   3.616   7.560 -1.5245 -0.8186  1.2297
   80SLPC  H14C 7359   3.103   3.464   7.505  1.7721 -1.5937 -1.5985
   80SLPC   C15 7360   3.216   3.455   7.268 -0.0581 -0.4399  0.2552
   80SLPC  H15A 7361   3.127   3.393   7.278  0.9539 -1.6906  2.2257
   80SLPC  H15B 7362   3.222   3.479   7.163  4.0836 -1.9429 -0.0373
   80SLPC  H15C 7363   3.306   3.404   7.299 -0.6809 -1.0571  1.1136
   80SLPC   C12 7364   3.055   3.649   7.305 -0.9381  0.6791  0.1945
   80SLPC  H12A 7365   3.044   3.741   7.360  0.0164 -0.1135  1.7947
   80SLPC  H12B 7366   2.977   3.582   7.336  1.4954 -1.9918  1.0002
   80SLPC   C11 7367   3.040   3.686   7.154 -0.0265  1.0944  0.2871
   80SLPC  H11A 7368   2.936   3.714   7.127 -1.3198 -2.8854  0.5829
   80SLPC  H11B 7369   3.066   3.598   7.091  2.5544 -0.1239  2.8214
   80SLPC     P 7370   3.096   3.941   7.099  0.0022  0.0099 -0.0393
   80SLPC   O13 7371   3.068   4.017   7.220  0.0768 -0.1277 -0.2329
   80SLPC   O14 7372   3.197   4.002   7.011 -0.1567  0.2011 -0.5054
   80SLPC   O12 7373   3.132   3.783   7.128 -0.2288 -0.2990  1.0881
   80SLPC   O11 7374   2.950   3.936   7.026 -0.6348  0.7502  1.0931
   80SLPC    C1 7375   2.909   3.860   6.915 -0.8087  0.0824 -0.4483
   80SLPC    HA 7376   2.940   3.754   6.906  0.1191  0.1150  1.8028
   80SLPC    HB 7377   2.798   3.850   6.920 -0.8294  0.7481  3.1948
   80SLPC    C2 7378   2.949   3.928   6.778  0.5008 -0.1136  0.1915
   80SLPC    HS 7379   3.060   3.931   6.787  0.3079  0.8333  4.4996
   80SLPC   O21 7380   2.877   4.058   6.763 -0.1183  0.3010  0.4694
   80SLPC   C21 7381   2.957   4.143   6.701 -0.4983 -0.4158 -0.3986
   80SLPC   O22 7382   3.082   4.128   6.702  0.4901  0.6604 -0.3876
   80SLPC   C22 7383   2.888   4.265   6.643  0.6483  0.2350 -0.3802
   80SLPC   H2R 7384   2.781   4.258   6.672  0.7337 -0.9441 -0.2691
   80SLPC   H2S 7385   2.938   4.357   6.680 -0.2140 -0.2726  2.2607
   80SLPC    C3 7386   2.925   3.839   6.643 -0.6354  0.5420 -0.4906
   80SLPC    HX 7387   2.816   3.821   6.644 -0.5896  0.2625 -0.5478
   80SLPC    HY 7388   2.979   3.743   6.653  2.3452  2.2629  1.8238
   80SLPC   O31 7389   2.959   3.899   6.510  0.1100 -0.2813 -0.4412
   80SLPC   C31 7390   3.096   3.895   6.474 -0.2506  0.0611 -0.1599
   80SLPC   O32 7391   3.182   3.855   6.546  0.4042  0.1630 -0.4061
   80SLPC   C32 7392   3.119   3.948   6.340 -0.2174 -0.0812 -0.0477
   80SLPC   H2X 7393   3.035   4.016   6.318 -0.8154 -1.3873 -2.0877
   80SLPC   H2Y 7394   3.112   3.865   6.266  0.6296 -0.3060  0.1062
   80SLPC   C23 7395   2.904   4.263   6.488  0.2911 -0.4496 -0.3626
   80SLPC   H3R 7396   2.855   4.170   6.451  1.1425 -0.4827 -1.4678
   80SLPC   H3S 7397   3.013   4.252   6.471  0.1255 -1.1199 -1.0905
   80SLPC   C24 7398   2.831   4.374   6.422 -0.1558 -0.0844 -0.4134
   80SLPC   H4R 7399   2.872   4.472   6.453  1.2856 -0.7975  0.0187
   80SLPC   H4S 7400   2.723   4.371   6.448 -0.1143  1.9709  0.1866
   80SLPC   C25 7401   2.836   4.363   6.271  1.3055 -0.4856  0.1860
   80SLPC   H5R 7402   2.771   4.444   6.232  2.2594 -0.0605 -0.5504
   80SLPC   H5S 7403   2.799   4.271   6.220 -4.9680  2.2869 -1.2871
   80SLPC   C26 7404   2.973   4.399   6.213 -0.1040  0.6583  0.2751
   80SLPC   H6R 7405   3.055   4.329   6.240  1.3497  0.8092 -3.1389
   80SLPC   H6S 7406   3.000   4.494   6.264  0.0677  0.5589  0.3705
   80SLPC   C27 7407   2.977   4.436   6.063 -0.2801 -0.3523  0.4181
   80SLPC   H7R 7408   3.083   4.455   6.036 -1.3655  3.6077 -1.8451
   80SLPC   H7S 7409   2.910   4.522   6.044  1.9114  1.4504  0.3976
   80SLPC   C28 7410   2.938   4.319   5.973 -0.0585 -0.1384 -0.4609
   80SLPC   H8R 7411   2.862   4.252   6.018  1.8591 -1.7538  0.5026
   80SLPC   H8S 7412   3.022   4.248   5.966  0.0369  0.1242 -2.8509
   80SLPC   C29 7413   2.891   4.367   5.838  0.2991  0.1126  0.2573
   80SLPC   H9R 7414   2.799   4.427   5.841  0.8127  0.8715  1.2926
   80SLPC  C210 7415   2.945   4.353   5.717 -0.4400 -0.1154 -0.1482
   80SLPC  H10R 7416   2.900   4.398   5.628  1.3685  3.4381  0.5521
   80SLPC  C211 7417   3.062   4.267   5.689  0.3798  0.4968  0.3635
   80SLPC  H11R 7418   3.025   4.183   5.625 -0.8380  1.6599 -0.5060
   80SLPC  H11S 7419   3.107   4.217   5.777  2.0968  1.9242  0.3520
   80SLPC  C212 7420   3.163   4.349   5.613  0.9515  0.9359  0.2895
   80SLPC  H12R 7421   3.223   4.412   5.679  1.0254 -0.6931  1.8562
   80SLPC  C213 7422   3.158   4.366   5.477  0.5908 -0.1958 -0.1205
   80SLPC  H13R 7423   3.218   4.447   5.433 -0.9710  0.5487 -0.9562
   80SLPC  C214 7424   3.061   4.294   5.383  0.5740 -0.0966 -0.3933
   80SLPC  H14R 7425   2.975   4.249   5.439  0.1580  0.3064 -0.6990
   80SLPC  H14S 7426   3.119   4.217   5.327  1.6719 -0.2026  0.8589
   80SLPC  C215 7427   2.994   4.385   5.277  0.3830  0.4767 -0.5796
   80SLPC  H15R 7428   2.948   4.467   5.336 -0.3350 -1.0497  1.0314
   80SLPC  H15S 7429   2.912   4.333   5.223 -0.5695  0.7460  0.5697
   80SLPC  C216 7430   3.092   4.422   5.162  0.0512 -0.4402 -0.0525
   80SLPC  H16R 7431   3.043   4.389   5.067 -1.6101 -0.2477  0.7043
   80SLPC  H16S 7432   3.186   4.364   5.174 -1.6697 -3.2161  1.0557
   80SLPC  C217 7433   3.132   4.570   5.162  0.6359 -0.3668  0.5782
   80SLPC  H17R 7434   3.176   4.580   5.263 -1.1703 -0.8254  1.4550
   80SLPC  H17S 7435   3.037   4.627   5.167  0.6143 -0.4954  2.3719
   80SLPC  C218 7436   3.225   4.618   5.055  0.3407  0.1797  0.2144
   80SLPC  H18R 7437   3.170   4.628   4.959  2.8044  0.8531 -1.2226
   80SLPC  H18S 7438   3.312   4.551   5.039 -0.1389 -0.1060 -1.4272
   80SLPC  H18T 7439   3.270   4.719   5.067 -0.1471  0.6726 -1.7659
   80SLPC   C33 7440   3.254   4.018   6.319 -0.7053  0.5589  0.2551
   80SLPC   H3X 7441   3.331   3.938   6.319 -1.4324 -0.1821 -1.6939
   80SLPC   H3Y 7442   3.281   4.085   6.404  0.8021 -0.5843  0.7139
   80SLPC   C34 7443   3.263   4.088   6.179  0.3237 -0.2103 -0.5775
   80SLPC   H4X 7444   3.174   4.151   6.159 -0.6606 -1.7643 -1.2886
   80SLPC   H4Y 7445   3.279   4.009   6.102 -1.0358  0.0191 -1.1282
   80SLPC   C35 7446   3.384   4.189   6.174 -0.1569 -0.2750  0.4646
   80SLPC   H5X 7447   3.471   4.148   6.229 -1.4274 -2.3200  1.0414
   80SLPC   H5Y 7448   3.353   4.279   6.231  0.5749  0.6830 -0.6018
   80SLPC   C36 7449   3.430   4.219   6.035  0.1621 -0.3756 -0.3061
   80SLPC   H6X 7450   3.341   4.249   5.975 -0.1736  1.6035  1.0701
   80SLPC   H6Y 7451   3.455   4.123   5.985 -1.3812  0.2773 -2.4511
   80SLPC   C37 7452   3.544   4.328   6.037  0.3390  0.8411  0.1340
   80SLPC   H7X 7453   3.617   4.307   6.119 -2.0770  0.8929  2.4423
   80SLPC   H7Y 7454   3.510   4.429   6.065  0.7139  0.7075  1.1121
   80SLPC   C38 7455   3.616   4.323   5.902  0.2886  0.0785  0.1583
   80SLPC   H8X 7456   3.608   4.217   5.867  0.2875  0.2775 -0.4484
   80SLPC   H8Y 7457   3.726   4.342   5.905 -0.0773  2.4263  0.4822
   80SLPC   C39 7458   3.553   4.397   5.783  1.0279  0.0637 -0.5155
   80SLPC   H9X 7459   3.559   4.506   5.803  1.5708 -0.0558 -0.0137
   80SLPC   H9Y 7460   3.446   4.376   5.766  1.3355 -0.8018 -1.4982
   80SLPC  C310 7461   3.641   4.369   5.653  0.4308  0.4116 -0.6596
   80SLPC  H10X 7462   3.665   4.262   5.636 -0.7008  0.2498 -1.3623
   80SLPC  H10Y 7463   3.733   4.427   5.672  0.4504 -0.0289  0.7042
   80SLPC  C311 7464   3.581   4.425   5.529  0.1610 -0.0764  0.1867
   80SLPC  H11X 7465   3.578   4.536   5.524  2.1075 -0.0042 -0.4448
   80SLPC  H11Y 7466   3.481   4.378   5.531  0.6465 -1.2640 -1.2164
   80SLPC  C312 7467   3.662   4.371   5.409  0.2815 -0.3772 -0.2388
   80SLPC  H12X 7468   3.596   4.331   5.328  1.5303 -2.7425 -0.1762
   80SLPC  H12Y 7469   3.727   4.283   5.430  1.0990  0.6772  1.9039
   80SLPC  C313 7470   3.762   4.470   5.345  0.2729 -0.3996 -0.2927
   80SLPC  H13X 7471   3.706   4.542   5.281 -1.1005 -0.9587  0.2328
   80SLPC  H13Y 7472   3.817   4.395   5.284  0.1031 -0.4536 -0.3810
   80SLPC  C314 7473   3.859   4.547   5.447 -1.2023 -0.0190  0.2011
   80SLPC  H14X 7474   3.907   4.478   5.519  0.0417  0.9850  0.3721
   80SLPC  H14Y 7475   3.816   4.633   5.502  0.4216  0.9537  0.0045
   80SLPC  C315 7476   3.977   4.612   5.379  0.0569  0.6086  0.5778
   80SLPC  H15X 7477   4.040   4.523   5.358  1.4739  1.6727  0.1373
   80SLPC  H15Y 7478   4.031   4.679   5.450 -0.1879  0.2664  1.0892
   80SLPC  C316 7479   3.941   4.701   5.256  0.1255  0.0171  0.4724
   80SLPC  H16X 7480   3.882   4.789   5.290  1.3139  1.2641 -0.5507
   80SLPC  H16Y 7481   3.880   4.647   5.180  0.7225 -0.4625  0.3248
   80SLPC  C317 7482   4.064   4.756   5.184  0.3306 -0.3195  0.3425
   80SLPC  H17X 7483   4.104   4.663   5.138  1.2855  0.4812 -0.4910
   80SLPC  H17Y 7484   4.139   4.802   5.251  0.7755  1.4694 -1.3061
   80SLPC  C318 7485   4.040   4.862   5.071 -0.3582  0.1242 -0.5101
   80SLPC  H18X 7486   4.005   4.960   5.111 -0.3176  0.3959 -1.1178
   80SLPC  H18Y 7487   3.964   4.817   5.003  0.7083 -2.3766 -0.1537
   80SLPC  H18Z 7488   4.142   4.874   5.028  0.3578 -1.5175  0.6439
   81SLPC     N 7489   1.181   4.744   2.543  1.1486 -0.8887 -0.4180
   81SLPC   C13 7490   1.316   4.788   2.490 -0.7355  0.3380 -0.3280
   81SLPC  H13A 7491   1.309   4.888   2.449 -0.0943  0.3961 -0.3087
   81SLPC  H13B 7492   1.387   4.785   2.571 -1.2028 -2.4210  0.0823
   81SLPC  H13C 7493   1.347   4.717   2.414  0.3857 -0.2249  0.6299
   81SLPC   C14 7494   1.188   4.603   2.596 -0.4517 -0.2805  0.7164
   81SLPC  H14A 7495   1.261   4.595   2.675 -2.2269 -0.1904  2.4657
   81SLPC  H14B 7496   1.096   4.571   2.644 -2.1080 -0.6170 -2.3777
   81SLPC  H14C 7497   1.195   4.526   2.521 -0.4046  0.3802  0.0307
   81SLPC   C15 7498   1.089   4.735   2.433  1.0821 -0.0588  0.4416
   81SLPC  H15A 7499   1.122   4.692   2.340  1.3369 -0.0536  0.5272
   81SLPC  H15B 7500   1.001   4.678   2.458  2.1617 -1.0314  2.2757
   81SLPC  H15C 7501   1.048   4.834   2.416 -0.8929 -0.6459  1.4917
   81SLPC   C12 7502   1.136   4.844   2.655 -0.4263  0.2254 -0.4611
   81SLPC  H12A 7503   1.176   4.936   2.615  0.3943 -0.7438 -1.9780
   81SLPC  H12B 7504   1.191   4.822   2.745  0.2625 -1.3210 -1.2174
   81SLPC   C11 7505   0.985   4.847   2.691  0.0601  0.2840  0.1741
   81SLPC  H11A 7506   0.982   4.910   2.782  2.9316 -0.3871  0.8290
   81SLPC  H11B 7507   0.952   4.743   2.713 -1.0717  0.8853  1.4727
   81SLPC     P 7508   0.883   5.052   2.552  0.2592 -0.1095 -0.2481
   81SLPC   O13 7509   1.008   5.124   2.566 -0.3094 -0.1107  0.1555
   81SLPC   O14 7510   0.812   5.071   2.423  0.1716 -0.2409 -0.0131
   81SLPC   O12 7511   0.907   4.897   2.579  0.3702  0.0019 -0.3264
   81SLPC   O11 7512   0.794   5.094   2.676  0.6509  0.1559  0.3303
   81SLPC    C1 7513   0.648   5.083   2.668 -0.6289 -0.5161  0.0649
   81SLPC    HA 7514   0.597   5.181   2.676 -0.4942 -0.3913 -0.5741
   81SLPC    HB 7515   0.612   5.041   2.572 -0.1277 -0.1377 -0.2911
   81SLPC    C2 7516   0.590   5.005   2.788  0.0061 -0.0146  0.0248
   81SLPC    HS 7517   0.483   4.991   2.761  0.4115 -4.4329  0.0188
   81SLPC   O21 7518   0.613   5.071   2.917  0.3770 -0.5436 -0.3055
   81SLPC   C21 7519   0.516   5.154   2.961 -0.2542  0.6531 -0.3246
   81SLPC   O22 7520   0.421   5.192   2.897  0.0234  0.1402 -0.2947
   81SLPC   C22 7521   0.559   5.199   3.099  0.7804 -0.5102 -0.2944
   81SLPC   H2R 7522   0.642   5.136   3.138  0.4561 -2.1742 -2.1722
   81SLPC   H2S 7523   0.597   5.303   3.084 -3.7311  1.4874  0.5805
   81SLPC    C3 7524   0.642   4.858   2.790  0.2844 -0.2318  0.3605
   81SLPC    HX 7525   0.752   4.854   2.776  0.2242 -0.1709 -0.1311
   81SLPC    HY 7526   0.601   4.811   2.698 -0.9620 -1.3638  1.4433
   81SLPC   O31 7527   0.587   4.778   2.899  0.3586 -0.2173 -0.2054
   81SLPC   C31 7528   0.668   4.758   3.007  0.5009 -0.6916  0.2419
   81SLPC   O32 7529   0.788   4.776   3.017 -0.1369 -0.4906 -0.5023
   81SLPC   C32 7530   0.573   4.701   3.108 -0.1839 -0.5958 -0.1139
   81SLPC   H2X 7531   0.624   4.608   3.141  2.9566  0.9089 -0.2971
   81SLPC   H2Y 7532   0.469   4.675   3.080 -0.1372 -0.2259 -0.6627
   81SLPC   C23 7533   0.444   5.212   3.200  1.0371 -0.0158 -0.1337
   81SLPC   H3R 7534   0.413   5.112   3.237 -0.8178 -1.3222 -4.4736
   81SLPC   H3S 7535   0.357   5.265   3.156  1.7785  0.2881 -1.2825
   81SLPC   C24 7536   0.488   5.285   3.332 -0.4833  0.5786 -0.4744
   81SLPC   H4R 7537   0.505   5.389   3.298  1.5803  0.9265  1.4539
   81SLPC   H4S 7538   0.588   5.253   3.368 -0.6232  0.4822 -0.1689
   81SLPC   C25 7539   0.378   5.275   3.443  0.0807  0.0278  0.0190
   81SLPC   H5R 7540   0.362   5.179   3.496 -0.6270  0.2409  0.1952
   81SLPC   H5S 7541   0.282   5.307   3.397  1.2877  2.2981 -1.0938
   81SLPC   C26 7542   0.408   5.376   3.558  0.2889  0.5293 -0.1506
   81SLPC   H6R 7543   0.411   5.470   3.501 -2.3392 -0.0455 -1.3521
   81SLPC   H6S 7544   0.501   5.339   3.608 -1.0044 -1.0875  1.1912
   81SLPC   C27 7545   0.301   5.375   3.673 -0.7620  0.2402 -0.0580
   81SLPC   H7R 7546   0.317   5.291   3.743  0.2610  1.6916  1.5194
   81SLPC   H7S 7547   0.200   5.366   3.626 -0.9389  0.5916  0.2494
   81SLPC   C28 7548   0.296   5.498   3.764 -0.1024 -0.2076 -0.6865
   81SLPC   H8R 7549   0.265   5.592   3.713 -1.7560 -0.3084  0.0705
   81SLPC   H8S 7550   0.396   5.517   3.809 -0.8740 -1.2771  1.6139
   81SLPC   C29 7551   0.196   5.484   3.877  0.0097  0.0304  0.5177
   81SLPC   H9R 7552   0.092   5.509   3.850 -0.5686 -0.5676  2.0411
   81SLPC  C210 7553   0.218   5.472   4.012 -0.4567 -0.0087  0.5773
   81SLPC  H10R 7554   0.128   5.485   4.074 -1.9946 -2.6166 -0.8964
   81SLPC  C211 7555   0.349   5.476   4.076  0.2188  0.8515 -0.6107
   81SLPC  H11R 7556   0.338   5.516   4.179  2.0724  1.0671 -0.4618
   81SLPC  H11S 7557   0.415   5.549   4.026  1.8792  0.3842  0.7839
   81SLPC  C212 7558   0.422   5.343   4.072 -0.4606  0.3953 -0.4870
   81SLPC  H12R 7559   0.460   5.310   3.974  0.7220 -0.3032  0.1835
   81SLPC  C213 7560   0.480   5.275   4.175 -0.4361 -0.0104 -0.5361
   81SLPC  H13R 7561   0.532   5.180   4.158 -1.6010 -0.1810 -3.9370
   81SLPC  C214 7562   0.471   5.313   4.323 -0.5187 -0.6717 -0.1010
   81SLPC  H14R 7563   0.421   5.411   4.335  1.5161  0.4175  0.0680
   81SLPC  H14S 7564   0.576   5.325   4.358 -0.4734 -1.6989  0.1378
   81SLPC  C215 7565   0.399   5.210   4.413  0.2265  0.1853  0.7645
   81SLPC  H15R 7566   0.461   5.118   4.417 -0.6080 -0.3944  0.5845
   81SLPC  H15S 7567   0.297   5.189   4.374 -0.5628  1.5525  2.0150
   81SLPC  C216 7568   0.376   5.275   4.549 -0.3022  0.8711 -0.1569
   81SLPC  H16R 7569   0.306   5.361   4.548 -0.1023  1.0612  1.0562
   81SLPC  H16S 7570   0.478   5.295   4.588  0.4411 -2.0758 -0.3180
   81SLPC  C217 7571   0.306   5.185   4.657 -0.0233  0.5265  0.6482
   81SLPC  H17R 7572   0.208   5.156   4.614  1.2968 -3.4949 -0.1067
   81SLPC  H17S 7573   0.287   5.233   4.755  0.7230  1.2387  0.4522
   81SLPC  C218 7574   0.368   5.049   4.681 -0.5964  0.3946 -0.1831
   81SLPC  H18R 7575   0.310   4.995   4.759  0.1221  0.8481  0.6691
   81SLPC  H18S 7576   0.467   5.076   4.723 -0.8695  1.9670 -0.5078
   81SLPC  H18T 7577   0.383   4.987   4.590 -1.1459 -1.1744  0.7412
   81SLPC   C33 7578   0.561   4.790   3.241  0.2829  0.5712  0.4268
   81SLPC   H3X 7579   0.508   4.884   3.213 -1.0017 -0.5164 -0.9520
   81SLPC   H3Y 7580   0.662   4.814   3.279  0.3756  2.6245 -0.9499
   81SLPC   C34 7581   0.486   4.727   3.357  0.0383 -0.8435 -0.1820
   81SLPC   H4X 7582   0.539   4.635   3.388 -1.2902 -2.4351 -2.3427
   81SLPC   H4Y 7583   0.383   4.696   3.328 -0.1616  0.0976 -0.5128
   81SLPC   C35 7584   0.475   4.823   3.473 -0.7986 -0.5418  0.6324
   81SLPC   H5X 7585   0.407   4.906   3.444 -0.5232 -1.0340 -1.5899
   81SLPC   H5Y 7586   0.577   4.868   3.475 -0.5144 -0.9671 -1.7440
   81SLPC   C36 7587   0.446   4.747   3.599 -0.4150 -0.0682 -1.3812
   81SLPC   H6X 7588   0.503   4.659   3.635 -0.8244  0.0592 -0.4028
   81SLPC   H6Y 7589   0.339   4.717   3.598 -1.3945  3.0715 -2.0168
   81SLPC   C37 7590   0.461   4.836   3.727 -0.1093  0.1520 -0.6536
   81SLPC   H7X 7591   0.414   4.936   3.719  0.3379  0.6975  2.3060
   81SLPC   H7Y 7592   0.570   4.846   3.744 -0.2770 -1.0261  1.5907
   81SLPC   C38 7593   0.407   4.767   3.857 -0.0473 -0.1745  0.4233
   81SLPC   H8X 7594   0.446   4.663   3.849  1.5485  0.3857  0.5935
   81SLPC   H8Y 7595   0.296   4.761   3.859 -0.0339 -2.5200 -1.5286
   81SLPC   C39 7596   0.466   4.825   3.986 -0.5328 -0.3606 -0.1810
   81SLPC   H9X 7597   0.437   4.932   3.998 -0.7587 -0.6874  2.8617
   81SLPC   H9Y 7598   0.576   4.828   3.982 -0.2295 -3.0053  2.3819
   81SLPC  C310 7599   0.448   4.732   4.103 -0.1065 -0.5495 -1.1434
   81SLPC  H10X 7600   0.483   4.631   4.071  1.2998 -0.0923 -1.1143
   81SLPC  H10Y 7601   0.340   4.704   4.113  0.4421 -4.0455 -3.1676
   81SLPC  C311 7602   0.512   4.783   4.234 -0.0794 -0.0778 -0.0335
   81SLPC  H11X 7603   0.489   4.888   4.263 -0.4355  0.4093 -1.9180
   81SLPC  H11Y 7604   0.622   4.784   4.217 -0.4095 -2.0097 -3.2123
   81SLPC  C312 7605   0.490   4.684   4.349 -0.2034  0.1139  0.7185
   81SLPC  H12X 7606   0.535   4.586   4.323 -1.7264 -0.7218  1.1417
   81SLPC  H12Y 7607   0.382   4.661   4.352  0.3762 -3.2316 -0.4321
   81SLPC  C313 7608   0.547   4.730   4.483  0.4344 -0.2233 -0.3430
   81SLPC  H13X 7609   0.497   4.827   4.502 -1.4402 -0.5222 -3.2761
   81SLPC  H13Y 7610   0.658   4.736   4.475  0.6291 -1.7765  0.8342
   81SLPC  C314 7611   0.516   4.630   4.596 -1.0371  0.2623 -0.1100
   81SLPC  H14X 7612   0.565   4.534   4.566 -1.8205 -0.7039  1.5731
   81SLPC  H14Y 7613   0.406   4.618   4.605 -0.9467  0.1326  0.9127
   81SLPC  C315 7614   0.556   4.687   4.731 -0.1453  0.1164 -0.6039
   81SLPC  H15X 7615   0.492   4.774   4.760 -0.8302 -0.6289  0.1468
   81SLPC  H15Y 7616   0.661   4.724   4.734  0.3098 -1.2169  0.9862
   81SLPC  C316 7617   0.571   4.581   4.848 -0.4824  0.6580 -0.1800
   81SLPC  H16X 7618   0.630   4.635   4.926  2.3280 -0.9004 -1.0626
   81SLPC  H16Y 7619   0.633   4.493   4.820 -1.6005 -0.3277  0.3579
   81SLPC  C317 7620   0.445   4.516   4.902  0.0597  0.1559  0.2789
   81SLPC  H17X 7621   0.389   4.467   4.820 -1.3039  1.2165  0.5381
   81SLPC  H17Y 7622   0.369   4.588   4.938 -1.5969 -1.2943 -0.1951
   81SLPC  C318 7623   0.458   4.406   5.014 -0.4349 -0.3023  0.4535
   81SLPC  H18X 7624   0.492   4.463   5.103  1.8995 -1.1990  0.1919
   81SLPC  H18Y 7625   0.530   4.331   4.976 -0.9175  0.5151 -2.3781
   81SLPC  H18Z 7626   0.363   4.351   5.033 -0.1025 -1.1006 -0.1627
   82SLPC     N 7627   3.637   1.967   1.857  0.6070  0.4762  0.2838
   82SLPC   C13 7628   3.550   1.863   1.921 -0.1996 -0.0189 -0.1315
   82SLPC  H13A 7629   3.533   1.881   2.027 -0.6480 -0.9582 -0.0369
   82SLPC  H13B 7630   3.451   1.855   1.878  0.1507 -2.6451 -0.5913
   82SLPC  H13C 7631   3.592   1.764   1.916 -1.7842 -0.6861 -0.9827
   82SLPC   C14 7632   3.553   2.091   1.849  0.1359  0.4970 -0.3754
   82SLPC  H14A 7633   3.466   2.080   1.786  0.7457  0.0711 -1.1701
   82SLPC  H14B 7634   3.542   2.118   1.953  1.0182  1.5705 -0.5473
   82SLPC  H14C 7635   3.611   2.175   1.814  0.5256  0.1939 -0.4738
   82SLPC   C15 7636   3.666   1.925   1.722 -0.0848  0.8662  0.8262
   82SLPC  H15A 7637   3.726   1.998   1.670  0.0410 -1.4912 -2.6871
   82SLPC  H15B 7638   3.727   1.835   1.721 -0.7711  0.3778 -1.0053
   82SLPC  H15C 7639   3.574   1.902   1.670 -0.1694  0.8728  0.9722
   82SLPC   C12 7640   3.769   1.989   1.933  0.2886 -0.3045  0.9591
   82SLPC  H12A 7641   3.814   2.077   1.890  1.4853 -1.5277 -0.3941
   82SLPC  H12B 7642   3.833   1.903   1.919 -0.6408 -0.9944  0.8637
   82SLPC   C11 7643   3.761   2.002   2.088 -0.3671  1.1609  0.5073
   82SLPC  H11A 7644   3.861   2.020   2.133  0.0401 -0.7066  0.4526
   82SLPC  H11B 7645   3.727   1.900   2.116 -0.2037  0.1025 -2.7279
   82SLPC     P 7646   3.695   2.235   2.170  0.2512  0.1679 -0.2945
   82SLPC   O13 7647   3.835   2.266   2.129  0.9150 -0.1489  0.0102
   82SLPC   O14 7648   3.589   2.317   2.113 -0.3898  0.2084  0.0256
   82SLPC   O12 7649   3.658   2.090   2.126 -0.1644  0.0917 -0.0530
   82SLPC   O11 7650   3.683   2.244   2.328 -0.0079  0.2308  0.0893
   82SLPC    C1 7651   3.743   2.151   2.417 -0.9930  0.7470  0.0410
   82SLPC    HA 7652   3.672   2.068   2.433  0.0720 -0.7683 -2.4132
   82SLPC    HB 7653   3.824   2.109   2.353 -1.4239  1.4170 -0.9910
   82SLPC    C2 7654   3.812   2.217   2.545 -0.3966  0.2060  0.2452
   82SLPC    HS 7655   3.893   2.150   2.581  1.0041  1.6947  0.0041
   82SLPC   O21 7656   3.717   2.223   2.651 -0.0328 -0.1563  0.6029
   82SLPC   C21 7657   3.676   2.114   2.707 -0.1757  0.2941 -1.0061
   82SLPC   O22 7658   3.731   2.004   2.693  0.1606  0.1658  0.0951
   82SLPC   C22 7659   3.579   2.159   2.815 -0.8129  0.8615  0.1383
   82SLPC   H2R 7660   3.520   2.246   2.778 -0.2791  1.3641  0.4398
   82SLPC   H2S 7661   3.518   2.069   2.837 -1.0893  0.1133 -3.2458
   82SLPC    C3 7662   3.868   2.355   2.523  0.5817  0.5064  1.1796
   82SLPC    HX 7663   3.792   2.424   2.481  0.6655 -0.3027 -0.3830
   82SLPC    HY 7664   3.935   2.347   2.435 -0.8298  0.0296  0.1074
   82SLPC   O31 7665   3.928   2.404   2.642  0.5514 -0.1845  0.5523
   82SLPC   C31 7666   3.925   2.527   2.671 -0.8313 -0.8077 -0.3982
   82SLPC   O32 7667   3.880   2.621   2.608 -0.1662  0.1491  0.1846
   82SLPC   C32 7668   3.985   2.556   2.811 -0.2072  0.0042  0.7870
   82SLPC   H2X 7669   3.970   2.461   2.868  0.6601  0.3941  1.6996
   82SLPC   H2Y 7670   3.932   2.640   2.861  1.3402  1.8954 -0.6144
   82SLPC   C23 7671   3.663   2.202   2.939  0.5964 -0.0262 -0.1446
   82SLPC   H3R 7672   3.698   2.305   2.916 -0.3280  0.0959 -1.0893
   82SLPC   H3S 7673   3.754   2.139   2.950  0.0936 -0.7368 -0.0099
   82SLPC   C24 7674   3.580   2.201   3.070 -0.2452 -0.8334 -0.2098
   82SLPC   H4R 7675   3.551   2.095   3.086  0.7904 -0.9374  1.1944
   82SLPC   H4S 7676   3.490   2.264   3.055 -0.3378 -1.3018 -1.7934
   82SLPC   C25 7677   3.654   2.244   3.198  0.0076 -0.2694  0.0187
   82SLPC   H5R 7678   3.651   2.355   3.196 -1.6831 -0.2643 -2.8223
   82SLPC   H5S 7679   3.757   2.203   3.202 -0.5272 -1.6256  3.4119
   82SLPC   C26 7680   3.592   2.191   3.328 -0.6787 -0.7073  0.2881
   82SLPC   H6R 7681   3.573   2.082   3.317 -0.1719 -0.6828 -0.9599
   82SLPC   H6S 7682   3.504   2.252   3.357  0.4456  0.1141  2.1417
   82SLPC   C27 7683   3.683   2.198   3.448 -0.4252 -0.1138 -0.4843
   82SLPC   H7R 7684   3.780   2.155   3.414 -0.6516 -0.4974 -0.6632
   82SLPC   H7S 7685   3.638   2.130   3.524 -1.2207  0.9016 -0.0234
   82SLPC   C28 7686   3.695   2.339   3.513 -0.5301 -0.1689 -0.4162
   82SLPC   H8R 7687   3.744   2.403   3.436 -2.0097  1.2462 -0.2372
   82SLPC   H8S 7688   3.777   2.322   3.586  1.5069 -0.0829 -2.5544
   82SLPC   C29 7689   3.565   2.403   3.560  0.0664 -0.0371 -0.4184
   82SLPC   H9R 7690   3.488   2.417   3.484 -1.3683  0.5213  1.0817
   82SLPC  C210 7691   3.523   2.402   3.689 -0.4091 -0.4278  0.4356
   82SLPC  H10R 7692   3.420   2.437   3.703 -0.2090  1.4025 -1.9193
   82SLPC  C211 7693   3.612   2.365   3.805  0.3746  0.1968  0.2848
   82SLPC  H11R 7694   3.606   2.457   3.866 -1.0710 -0.3525  1.0227
   82SLPC  H11S 7695   3.719   2.351   3.777  0.1705  1.4130 -1.2418
   82SLPC  C212 7696   3.552   2.253   3.880  0.3727  0.4172 -0.5947
   82SLPC  H12R 7697   3.570   2.155   3.833 -0.8208 -0.4629  0.6711
   82SLPC  C213 7698   3.491   2.260   4.005  0.1221  0.0267 -0.3984
   82SLPC  H13R 7699   3.460   2.167   4.054 -0.5023  0.4316 -0.0019
   82SLPC  C214 7700   3.450   2.385   4.081 -0.2465 -0.0097 -0.5554
   82SLPC  H14R 7701   3.350   2.417   4.046 -1.9312 -3.0975  0.9824
   82SLPC  H14S 7702   3.524   2.468   4.080 -2.0400  1.6673 -0.1550
   82SLPC  C215 7703   3.427   2.352   4.237 -0.3239  0.3501  0.1213
   82SLPC  H15R 7704   3.517   2.316   4.291 -1.0542 -0.9798  0.4974
   82SLPC  H15S 7705   3.353   2.269   4.249 -1.4278  1.4301  1.0652
   82SLPC  C216 7706   3.372   2.470   4.310  0.5112  0.1780 -0.1482
   82SLPC  H16R 7707   3.276   2.495   4.262  0.8925 -0.4670 -1.2840
   82SLPC  H16S 7708   3.441   2.556   4.297  0.7656  0.0608  0.3961
   82SLPC  C217 7709   3.338   2.449   4.453 -0.0206  0.4427  0.1227
   82SLPC  H17R 7710   3.436   2.440   4.504  0.8149 -0.5670 -1.5555
   82SLPC  H17S 7711   3.287   2.352   4.473  0.5159  0.3892  1.3336
   82SLPC  C218 7712   3.257   2.564   4.515  0.2316  0.2156  0.1082
   82SLPC  H18R 7713   3.169   2.587   4.450  0.0632  2.1494  0.9565
   82SLPC  H18S 7714   3.324   2.652   4.522  1.8839 -1.0008  0.1885
   82SLPC  H18T 7715   3.231   2.546   4.621  1.4713  0.0368  0.3936
   82SLPC   C33 7716   4.136   2.596   2.812  0.2160 -0.3369 -0.3561
   82SLPC   H3X 7717   4.152   2.676   2.737  3.0062  0.9533  1.4553
   82SLPC   H3Y 7718   4.202   2.513   2.780  0.3611 -1.2613  2.0902
   82SLPC   C34 7719   4.180   2.643   2.948 -0.7440 -0.3096  0.0033
   82SLPC   H4X 7720   4.183   2.559   3.022  0.1076  1.5115  2.1453
   82SLPC   H4Y 7721   4.100   2.707   2.991 -0.2781 -0.2505  0.8062
   82SLPC   C35 7722   4.312   2.719   2.951  0.3858  0.1703 -0.5280
   82SLPC   H5X 7723   4.326   2.784   2.862  0.4437  2.6455  1.1664
   82SLPC   H5Y 7724   4.387   2.637   2.954  1.7035  1.3501  0.9920
   82SLPC   C36 7725   4.328   2.803   3.078  0.2327 -0.0485  0.7599
   82SLPC   H6X 7726   4.277   2.749   3.160 -2.6330  0.2637 -0.6865
   82SLPC   H6Y 7727   4.267   2.895   3.060 -0.2987  0.3796  4.0953
   82SLPC   C37 7728   4.470   2.834   3.113  0.7811  0.0010 -0.8336
   82SLPC   H7X 7729   4.506   2.929   3.068  1.5351  0.4534  0.6639
   82SLPC   H7Y 7730   4.538   2.752   3.081  0.2529 -0.9670  0.4319
   82SLPC   C38 7731   4.491   2.863   3.266  0.3544  0.3793  0.3859
   82SLPC   H8X 7732   4.457   2.772   3.319 -0.3067 -0.6440 -1.6905
   82SLPC   H8Y 7733   4.433   2.955   3.289  2.1113  1.5342  0.3964
   82SLPC   C39 7734   4.637   2.883   3.306  0.4023  0.2069  0.0355
   82SLPC   H9X 7735   4.680   2.946   3.225  1.3823 -0.4919 -0.0065
   82SLPC   H9Y 7736   4.696   2.789   3.297 -0.1511 -0.4830  2.7797
   82SLPC  C310 7737   4.657   2.951   3.440  0.0111 -0.2412 -0.0953
   82SLPC  H10X 7738   4.572   3.014   3.473 -0.7662 -1.0181 -0.5918
   82SLPC  H10Y 7739   4.749   3.012   3.453 -1.9750  2.8308  0.7052
   82SLPC  C311 7740   4.673   2.838   3.547 -0.0229  0.4047  0.4101
   82SLPC  H11X 7741   4.743   2.756   3.518  1.6085  1.6776  0.5609
   82SLPC  H11Y 7742   4.571   2.802   3.571  0.0107  0.7205  1.0515
   82SLPC  C312 7743   4.729   2.880   3.686 -0.0621 -0.5119 -0.8433
   82SLPC  H12X 7744   4.824   2.937   3.681  1.0799 -1.8120  2.7231
   82SLPC  H12Y 7745   4.765   2.792   3.744  0.6685  0.5838  0.4429
   82SLPC  C313 7746   4.633   2.961   3.785 -0.3338 -0.3103 -0.6228
   82SLPC  H13X 7747   4.541   2.900   3.800  0.0768 -1.0471 -1.0537
   82SLPC  H13Y 7748   4.603   3.060   3.746  0.0032 -0.3458 -0.9733
   82SLPC  C314 7749   4.713   2.981   3.921  0.4808  0.5589  0.0581
   82SLPC  H14X 7750   4.811   3.032   3.909  0.4487 -0.0122 -3.5355
   82SLPC  H14Y 7751   4.726   2.873   3.947 -2.3268  0.3695  0.9511
   82SLPC  C315 7752   4.628   3.053   4.022 -0.3157 -0.7146 -1.0589
   82SLPC  H15X 7753   4.527   3.009   4.032 -1.6342  2.2093 -0.4500
   82SLPC  H15Y 7754   4.615   3.158   3.990  2.3835  0.6763  1.8453
   82SLPC  C316 7755   4.695   3.070   4.158 -0.1403  0.0352 -0.0481
   82SLPC  H16X 7756   4.640   3.148   4.215 -0.9103  0.1365 -0.9040
   82SLPC  H16Y 7757   4.798   3.110   4.153  0.4690 -1.1204  1.8631
   82SLPC  C317 7758   4.698   2.945   4.249  0.1793  0.1980  0.7496
   82SLPC  H17X 7759   4.747   2.865   4.189 -0.1353  1.0395 -0.6657
   82SLPC  H17Y 7760   4.589   2.925   4.261  0.1894  0.7472  1.9107
   82SLPC  C318 7761   4.770   2.954   4.384 -0.3194 -0.7460  0.7298
   82SLPC  H18X 7762   4.698   2.996   4.458 -1.2784 -1.6484  0.3442
   82SLPC  H18Y 7763   4.866   3.009   4.386 -1.2865  1.3410 -2.6638
   82SLPC  H18Z 7764   4.808   2.852   4.407  1.9204 -0.1120  0.0118
   83SLPC     N 7765   0.455   3.072   2.738  0.6899 -0.1707  0.2418
   83SLPC   C13 7766   0.427   3.177   2.631  0.1541 -0.2546 -0.1589
   83SLPC  H13A 7767   0.429   3.276   2.673  0.4797 -1.3567  2.6924
   83SLPC  H13B 7768   0.500   3.178   2.551 -1.4120  1.0693 -1.6274
   83SLPC  H13C 7769   0.334   3.155   2.582 -0.3982 -0.4457  0.9454
   83SLPC   C14 7770   0.598   3.077   2.786  0.8255  0.0960 -0.1875
   83SLPC  H14A 7771   0.618   2.991   2.847  0.6873 -2.0840 -3.0201
   83SLPC  H14B 7772   0.661   3.077   2.698  0.5038  0.6253 -0.4267
   83SLPC  H14C 7773   0.612   3.169   2.842 -2.7740  1.2400 -0.8672
   83SLPC   C15 7774   0.435   2.932   2.682  0.5365  0.4534 -0.0572
   83SLPC  H15A 7775   0.330   2.909   2.673  0.8886 -0.8189 -1.0955
   83SLPC  H15B 7776   0.475   2.930   2.582  0.4861  1.8082 -0.1287
   83SLPC  H15C 7777   0.485   2.857   2.742  1.4168  0.4078 -0.8277
   83SLPC   C12 7778   0.368   3.099   2.861 -0.3383  0.3631  0.5622
   83SLPC  H12A 7779   0.395   3.201   2.885  1.1057  0.2620 -0.4723
   83SLPC  H12B 7780   0.401   3.040   2.945  0.0696  1.6448  1.3393
   83SLPC   C11 7781   0.214   3.070   2.860  0.1658  0.2150 -0.6079
   83SLPC  H11A 7782   0.168   3.133   2.781  1.6145 -0.5491 -2.1362
   83SLPC  H11B 7783   0.172   3.103   2.957  0.5812  1.5217 -0.8638
   83SLPC     P 7784   0.040   2.888   2.880  0.2225 -0.0283  0.4892
   83SLPC   O13 7785  -0.048   2.957   2.781  0.4037  0.1408  1.0406
   83SLPC   O14 7786   0.037   2.738   2.880 -0.1318 -0.3982 -0.3842
   83SLPC   O12 7787   0.182   2.931   2.846  0.4143 -0.4582 -0.1311
   83SLPC   O11 7788   0.009   2.956   3.020 -0.4575  0.4833  0.0050
   83SLPC    C1 7789   0.061   2.907   3.141 -0.1823  0.1826 -0.5809
   83SLPC    HA 7790   0.074   2.797   3.149 -0.3251  0.2648  1.6746
   83SLPC    HB 7791   0.161   2.953   3.155  0.2781 -0.6575 -1.0686
   83SLPC    C2 7792  -0.024   2.944   3.268 -0.8708 -0.2118 -0.0582
   83SLPC    HS 7793  -0.036   3.054   3.259 -0.6201 -0.1551  0.2881
   83SLPC   O21 7794   0.051   2.913   3.381  0.2573  0.1963  0.9475
   83SLPC   C21 7795   0.012   2.958   3.496  0.0514 -0.0836 -0.1619
   83SLPC   O22 7796  -0.062   3.054   3.518  0.3582  0.2515  0.6706
   83SLPC   C22 7797   0.092   2.875   3.601  0.5905  0.1321 -0.6391
   83SLPC   H2R 7798   0.040   2.778   3.617 -1.7951  1.4489 -0.0628
   83SLPC   H2S 7799   0.196   2.864   3.564 -0.2972 -0.4362 -3.1503
   83SLPC    C3 7800  -0.159   2.880   3.259 -0.1019  0.5362  0.5281
   83SLPC    HX 7801  -0.146   2.772   3.281  1.5483 -0.2143 -3.4163
   83SLPC    HY 7802  -0.204   2.888   3.158  1.3418  2.5416 -0.0205
   83SLPC   O31 7803  -0.262   2.929   3.353  0.7904  0.5057  0.0329
   83SLPC   C31 7804  -0.311   3.048   3.333 -0.2582 -0.6114 -0.7261
   83SLPC   O32 7805  -0.299   3.112   3.229 -0.4297  0.3840 -0.1226
   83SLPC   C32 7806  -0.396   3.093   3.450  0.4368  0.5143  0.5582
   83SLPC   H2X 7807  -0.501   3.103   3.415  0.6007  0.5546  0.0805
   83SLPC   H2Y 7808  -0.365   3.192   3.489  0.4320  0.3169  1.0687
   83SLPC   C23 7809   0.093   2.942   3.737 -0.1209  0.2063 -0.2743
   83SLPC   H3R 7810  -0.009   2.979   3.763 -1.3428 -1.6278 -2.1962
   83SLPC   H3S 7811   0.158   3.031   3.721  0.7621 -0.6711 -1.7166
   83SLPC   C24 7812   0.167   2.865   3.848 -0.2627  0.2971 -0.2893
   83SLPC   H4R 7813   0.265   2.830   3.809  0.7302  1.3987  1.0509
   83SLPC   H4S 7814   0.112   2.774   3.877  0.0651  0.3496  0.5427
   83SLPC   C25 7815   0.184   2.936   3.982 -0.1212 -0.4477  0.1994
   83SLPC   H5R 7816   0.087   2.975   4.018 -0.1953  0.3223 -0.8003
   83SLPC   H5S 7817   0.247   3.027   3.969  0.0767 -0.8024 -1.5004
   83SLPC   C26 7818   0.245   2.847   4.097  0.4808 -0.0315  0.8702
   83SLPC   H6R 7819   0.353   2.869   4.110  0.5139  0.6139 -0.3609
   83SLPC   H6S 7820   0.245   2.738   4.076  2.0890 -0.2072  1.6350
   83SLPC   C27 7821   0.174   2.886   4.229  0.3667 -0.0691 -0.2291
   83SLPC   H7R 7822   0.066   2.870   4.209  0.1944 -1.6547  1.7175
   83SLPC   H7S 7823   0.189   2.994   4.249 -1.8211  0.2831 -0.3220
   83SLPC   C28 7824   0.220   2.806   4.354 -0.1395  0.4704 -0.5426
   83SLPC   H8R 7825   0.319   2.761   4.328 -0.2047 -1.1138  1.6641
   83SLPC   H8S 7826   0.152   2.718   4.357 -0.1834  0.5415  1.1016
   83SLPC   C29 7827   0.212   2.883   4.483 -0.0654  0.1129 -0.7888
   83SLPC   H9R 7828   0.109   2.915   4.507  0.2639  0.1686  0.6455
   83SLPC  C210 7829   0.310   2.908   4.570 -0.2186 -1.1618  0.1684
   83SLPC  H10R 7830   0.282   2.950   4.668 -0.0438  0.6460 -0.5309
   83SLPC  C211 7831   0.458   2.883   4.558 -0.0278 -0.0067  0.1878
   83SLPC  H11R 7832   0.521   2.974   4.546  2.0383 -1.4250 -0.2184
   83SLPC  H11S 7833   0.467   2.833   4.459 -1.1258  0.2559 -0.0706
   83SLPC  C212 7834   0.508   2.784   4.663 -0.0299  0.5543 -0.3063
   83SLPC  H12R 7835   0.462   2.684   4.668 -0.9279  0.9926  0.4886
   83SLPC  C213 7836   0.606   2.809   4.749 -0.6586 -0.8775  0.3339
   83SLPC  H13R 7837   0.637   2.722   4.809  0.8422 -0.4986  0.1553
   83SLPC  C214 7838   0.687   2.944   4.778 -0.2824  0.2504 -0.8904
   83SLPC  H14R 7839   0.641   2.976   4.874  2.5898 -1.5202  1.2838
   83SLPC  H14S 7840   0.666   3.015   4.696 -2.4535 -0.7040 -1.2439
   83SLPC  C215 7841   0.841   2.934   4.803 -0.1569  0.3827  0.6245
   83SLPC  H15R 7842   0.882   2.901   4.706 -0.6790 -0.4619  0.6796
   83SLPC  H15S 7843   0.849   2.853   4.879  3.4042  0.8600  0.9100
   83SLPC  C216 7844   0.907   3.058   4.853 -0.3764  0.2277  0.5767
   83SLPC  H16R 7845   0.844   3.099   4.934  0.5341 -1.9199  2.4927
   83SLPC  H16S 7846   0.914   3.135   4.773  1.8869 -2.1991 -1.7986
   83SLPC  C217 7847   1.053   3.042   4.896 -0.6402 -0.2376 -0.5065
   83SLPC  H17R 7848   1.079   3.141   4.940  2.0938 -1.5691  1.1535
   83SLPC  H17S 7849   1.129   3.026   4.816 -0.4148 -3.0542  0.1784
   83SLPC  C218 7850   1.093   2.951   5.009  0.5651 -0.4202 -0.1579
   83SLPC  H18R 7851   1.088   2.843   4.983 -1.3385 -1.5514  4.0773
   83SLPC  H18S 7852   1.032   2.953   5.102  0.7018  3.6082  0.0234
   83SLPC  H18T 7853   1.199   2.962   5.041  0.8825 -2.4431 -0.3553
   83SLPC   C33 7854  -0.408   2.986   3.564 -0.0341  0.3296  0.2661
   83SLPC   H3X 7855  -0.322   2.952   3.626  0.4353  3.2317  1.3792
   83SLPC   H3Y 7856  -0.445   2.893   3.516 -0.4079 -0.1831  1.4922
   83SLPC   C34 7857  -0.512   3.036   3.665 -0.2275  0.8836 -0.7504
   83SLPC   H4X 7858  -0.563   2.949   3.712  1.0085  1.8325  2.7005
   83SLPC   H4Y 7859  -0.586   3.098   3.609 -2.6738  0.5631  1.8783
   83SLPC   C35 7860  -0.440   3.105   3.786  0.2995 -0.2034 -0.5876
   83SLPC   H5X 7861  -0.530   3.148   3.835  0.6318  1.1849 -1.1287
   83SLPC   H5Y 7862  -0.372   3.188   3.757  0.2260  0.3495  0.7200
   83SLPC   C36 7863  -0.379   3.024   3.897 -0.0456  0.2284 -0.3919
   83SLPC   H6X 7864  -0.290   2.972   3.858 -0.6959  1.1886 -3.4006
   83SLPC   H6Y 7865  -0.467   2.958   3.916 -1.1209  2.0137  1.2989
   83SLPC   C37 7866  -0.339   3.090   4.031 -0.0100  0.4523 -0.3873
   83SLPC   H7X 7867  -0.431   3.135   4.073  0.5040  3.7065 -2.3822
   83SLPC   H7Y 7868  -0.261   3.169   4.031  0.7893 -0.3262 -0.5199
   83SLPC   C38 7869  -0.283   2.978   4.121 -0.0714  0.3519 -0.0586
   83SLPC   H8X 7870  -0.195   2.939   4.066 -0.9191 -0.5792 -0.8084
   83SLPC   H8Y 7871  -0.351   2.890   4.123  1.1543 -0.6406 -0.7412
   83SLPC   C39 7872  -0.241   3.018   4.260 -0.9225 -0.0125  0.2706
   83SLPC   H9X 7873  -0.155   3.088   4.258 -0.6362 -0.3585  0.3236
   83SLPC   H9Y 7874  -0.209   2.926   4.313  1.1609 -0.2619 -1.3204
   83SLPC  C310 7875  -0.342   3.107   4.331 -0.0959 -0.5581 -0.7723
   83SLPC  H10X 7876  -0.437   3.049   4.323 -0.2549 -0.2673 -0.9936
   83SLPC  H10Y 7877  -0.351   3.199   4.270 -1.9109  0.4944  0.9685
   83SLPC  C311 7878  -0.292   3.144   4.475  0.1466 -0.2771  0.0750
   83SLPC  H11X 7879  -0.274   3.049   4.529 -1.1827 -0.7908 -0.3517
   83SLPC  H11Y 7880  -0.364   3.211   4.529  4.3667  4.5963  0.4223
   83SLPC  C312 7881  -0.168   3.225   4.487  0.1145 -0.4822  0.0593
   83SLPC  H12X 7882  -0.169   3.302   4.407 -2.7507  0.7921  1.1975
   83SLPC  H12Y 7883  -0.086   3.156   4.459  2.4937  2.8032 -1.7020
   83SLPC  C313 7884  -0.156   3.295   4.625 -0.2954 -0.2466 -0.0708
   83SLPC  H13X 7885  -0.167   3.218   4.704 -1.5871 -0.9992 -0.9404
   83SLPC  H13Y 7886  -0.223   3.383   4.637  0.5007  0.3512  0.0494
   83SLPC  C314 7887  -0.017   3.369   4.643  0.5131 -0.1350 -0.6147
   83SLPC  H14X 7888   0.007   3.440   4.561  2.6767  3.2766  2.6010
   83SLPC  H14Y 7889   0.061   3.290   4.631  1.4795  0.8912 -1.3242
   83SLPC  C315 7890  -0.002   3.430   4.777  0.5246  0.3806 -0.0689
   83SLPC  H15X 7891   0.024   3.352   4.851 -0.0704 -1.1193 -1.3860
   83SLPC  H15Y 7892  -0.102   3.470   4.803 -1.0450 -2.7831 -0.7700
   83SLPC  C316 7893   0.104   3.546   4.780 -0.4485 -0.1305 -0.1889
   83SLPC  H16X 7894   0.095   3.618   4.695 -2.5029 -2.3755 -2.0346
   83SLPC  H16Y 7895   0.197   3.488   4.766 -0.4629 -0.7852  2.1114
   83SLPC  C317 7896   0.115   3.629   4.912 -0.2668  0.0028 -0.7388
   83SLPC  H17X 7897   0.112   3.560   4.999  0.2849  1.3230  0.3553
   83SLPC  H17Y 7898   0.024   3.689   4.934 -1.2673 -1.7979  0.2875
   83SLPC  C318 7899   0.240   3.710   4.910  0.2277 -0.4602 -0.2100
   83SLPC  H18X 7900   0.252   3.778   4.823  1.1285  0.4360  0.5902
   83SLPC  H18Y 7901   0.325   3.640   4.906  0.9178 -0.2517  4.5821
   83SLPC  H18Z 7902   0.244   3.759   5.010  0.1328 -0.6328 -0.1206
   84SLPC     N 7903   6.671   6.696   2.217 -0.6486 -0.5656  0.0866
   84SLPC   C13 7904   6.689   6.845   2.181 -0.7398  0.0754 -0.1058
   84SLPC  H13A 7905   6.685   6.867   2.076 -1.3127 -1.6618 -0.4872
   84SLPC  H13B 7906   6.606   6.900   2.223  1.0278  1.0744  2.3094
   84SLPC  H13C 7907   6.781   6.880   2.225 -0.5465 -1.4221  0.7563
   84SLPC   C14 7908   6.805   6.634   2.173 -0.2618 -0.7370  1.1768
   84SLPC  H14A 7909   6.825   6.659   2.070  0.0269 -0.4995  1.2868
   84SLPC  H14B 7910   6.891   6.660   2.232  0.7387  1.1337 -0.9614
   84SLPC  H14C 7911   6.794   6.527   2.166 -2.1818 -0.4627 -3.1359
   84SLPC   C15 7912   6.571   6.618   2.134 -0.0478  0.3278 -0.0310
   84SLPC  H15A 7913   6.595   6.622   2.029  0.9545 -0.1752  0.1699
   84SLPC  H15B 7914   6.567   6.518   2.174 -1.8898  0.1630 -0.5333
   84SLPC  H15C 7915   6.475   6.666   2.151 -0.9068 -0.9238 -1.1187
   84SLPC   C12 7916   6.672   6.678   2.371  0.2673  0.0725  0.1785
   84SLPC  H12A 7917   6.752   6.742   2.406  1.2303 -0.2469 -1.3623
   84SLPC  H12B 7918   6.692   6.575   2.394 -0.7156 -0.3362 -0.7404
   84SLPC   C11 7919   6.546   6.718   2.449  0.0602  0.3435  0.0566
   84SLPC  H11A 7920   6.530   6.824   2.419  1.5532  0.3166 -0.9066
   84SLPC  H11B 7921   6.569   6.717   2.557  0.9590  1.1635 -0.1067
   84SLPC     P 7922   6.424   6.491   2.482 -0.1337 -0.0395  0.5017
   84SLPC   O13 7923   6.287   6.442   2.459 -0.6154  0.2612  0.5376
   84SLPC   O14 7924   6.530   6.405   2.427 -0.1553 -0.0226 -0.3538
   84SLPC   O12 7925   6.432   6.636   2.423 -0.5604 -0.4417  0.0902
   84SLPC   O11 7926   6.448   6.512   2.629  0.3073  0.3947 -0.0595
   84SLPC    C1 7927   6.387   6.613   2.712  0.2162  0.7885 -0.2171
   84SLPC    HA 7928   6.472   6.669   2.754 -1.0042  2.1335  0.5362
   84SLPC    HB 7929   6.319   6.684   2.660 -0.2455  3.0957  3.2448
   84SLPC    C2 7930   6.320   6.553   2.845 -0.7946 -0.8041 -0.5230
   84SLPC    HS 7931   6.292   6.638   2.912  2.9215  0.2779 -0.1382
   84SLPC   O21 7932   6.411   6.467   2.916 -0.3633 -0.0368 -0.1081
   84SLPC   C21 7933   6.484   6.520   3.007 -0.5143 -0.3231 -0.6560
   84SLPC   O22 7934   6.494   6.639   3.028  0.2105 -0.4721  0.0715
   84SLPC   C22 7935   6.541   6.407   3.094 -0.2954  0.8165  0.3609
   84SLPC   H2R 7936   6.461   6.331   3.108 -0.4173  1.1197  1.3489
   84SLPC   H2S 7937   6.622   6.363   3.030 -1.3814 -1.4826  0.4667
   84SLPC    C3 7938   6.189   6.483   2.814 -0.4993  1.2678  0.8909
   84SLPC    HX 7939   6.201   6.403   2.738 -0.3746  1.5282  0.6338
   84SLPC    HY 7940   6.125   6.550   2.752 -0.3330 -0.4537 -1.2797
   84SLPC   O31 7941   6.126   6.429   2.933 -0.0714  0.3407  0.5052
   84SLPC   C31 7942   6.160   6.299   2.968 -0.4792 -0.0764 -0.0533
   84SLPC   O32 7943   6.232   6.228   2.900 -0.1064 -0.0538 -0.2684
   84SLPC   C32 7944   6.101   6.269   3.106 -0.1122  0.0115  0.1297
   84SLPC   H2X 7945   6.071   6.162   3.100 -1.0747  0.3238 -1.6649
   84SLPC   H2Y 7946   6.005   6.323   3.118 -0.4745 -0.3079 -1.1103
   84SLPC   C23 7947   6.606   6.454   3.225 -0.4285  0.0340  0.6604
   84SLPC   H3R 7948   6.678   6.536   3.206 -0.0615  0.0970  2.1815
   84SLPC   H3S 7949   6.653   6.365   3.272  0.2134 -1.0571 -1.8430
   84SLPC   C24 7950   6.496   6.497   3.318 -0.1824  0.4692 -0.1964
   84SLPC   H4R 7951   6.433   6.409   3.341  0.4496 -0.6156 -2.3904
   84SLPC   H4S 7952   6.448   6.586   3.273  2.5668  1.4998 -1.2926
   84SLPC   C25 7953   6.564   6.542   3.451  0.1136 -0.2345  0.0288
   84SLPC   H5R 7954   6.500   6.615   3.505 -1.9012 -1.1130 -1.0319
   84SLPC   H5S 7955   6.665   6.580   3.428  0.9568 -1.8913  0.7760
   84SLPC   C26 7956   6.570   6.434   3.560 -0.5037  0.2680  0.3204
   84SLPC   H6R 7957   6.618   6.341   3.523 -0.5710  1.0469 -1.9185
   84SLPC   H6S 7958   6.468   6.414   3.601  0.6652 -2.3340  2.1741
   84SLPC   C27 7959   6.658   6.480   3.681 -0.8904 -0.9650 -0.1519
   84SLPC   H7R 7960   6.601   6.560   3.733  1.5574 -0.8886  2.6768
   84SLPC   H7S 7961   6.753   6.519   3.637 -0.8956 -2.3647 -1.4870
   84SLPC   C28 7962   6.677   6.373   3.787 -1.3426 -0.4098 -0.5561
   84SLPC   H8R 7963   6.696   6.279   3.731  0.5117  0.7867 -2.1021
   84SLPC   H8S 7964   6.591   6.371   3.856 -0.4284  0.5490  0.6489
   84SLPC   C29 7965   6.796   6.411   3.863  0.0386 -0.7300 -0.4053
   84SLPC   H9R 7966   6.884   6.386   3.802  1.4247  1.9246  0.3384
   84SLPC  C210 7967   6.806   6.464   3.985  0.1681  0.4874  0.6339
   84SLPC  H10R 7968   6.904   6.498   4.024  0.6856  0.3527 -0.5281
   84SLPC  C211 7969   6.688   6.502   4.068 -0.3424 -0.0357 -0.6614
   84SLPC  H11R 7970   6.591   6.475   4.021 -1.0252  2.0538 -0.5898
   84SLPC  H11S 7971   6.701   6.613   4.065 -0.3032 -0.0568 -2.2475
   84SLPC  C212 7972   6.688   6.440   4.207  0.6355 -0.9950 -0.0044
   84SLPC  H12R 7973   6.611   6.362   4.221 -3.4952  2.6666 -0.2171
   84SLPC  C213 7974   6.773   6.474   4.307 -0.7396  0.1019  0.5044
   84SLPC  H13R 7975   6.771   6.423   4.405  4.7573  0.9604  1.4111
   84SLPC  C214 7976   6.886   6.575   4.304  0.7997  0.3734 -0.3928
   84SLPC  H14R 7977   6.899   6.619   4.202  0.0110  2.1187  0.2166
   84SLPC  H14S 7978   6.976   6.512   4.321 -0.0622 -1.2781 -1.6492
   84SLPC  C215 7979   6.845   6.684   4.403  0.3160  0.4960 -0.5737
   84SLPC  H15R 7980   6.830   6.630   4.499  0.6013  0.3328 -0.6204
   84SLPC  H15S 7981   6.743   6.720   4.376 -0.1624  0.9717  1.6788
   84SLPC  C216 7982   6.948   6.794   4.408  0.2538  0.1356  0.3363
   84SLPC  H16R 7983   6.986   6.815   4.306 -0.2794  0.3326  0.1713
   84SLPC  H16S 7984   7.032   6.780   4.479 -1.3686 -0.6916  2.1912
   84SLPC  C217 7985   6.873   6.917   4.475 -0.6619 -0.4331  0.6848
   84SLPC  H17R 7986   6.944   6.995   4.507  1.2366 -1.4564 -0.8079
   84SLPC  H17S 7987   6.825   6.876   4.566  1.6926  0.9504  2.6697
   84SLPC  C218 7988   6.760   6.991   4.401  0.1760  0.4305  0.4603
   84SLPC  H18R 7989   6.799   7.048   4.314  0.4945  0.1030  0.3854
   84SLPC  H18S 7990   6.714   7.065   4.469  1.4288  1.7790 -0.0922
   84SLPC  H18T 7991   6.690   6.921   4.351  0.2586 -0.5527  1.6662
   84SLPC   C33 7992   6.204   6.294   3.212 -0.6432  0.3989  0.2007
   84SLPC   H3X 7993   6.247   6.395   3.198  2.4806 -0.7522  0.5545
   84SLPC   H3Y 7994   6.299   6.238   3.200  0.4254  1.9932  0.8577
   84SLPC   C34 7995   6.130   6.286   3.349  0.4083 -0.4250 -0.0801
   84SLPC   H4X 7996   6.102   6.179   3.346  1.7402 -0.7763 -1.2804
   84SLPC   H4Y 7997   6.037   6.346   3.351 -2.0406 -3.9545  1.3371
   84SLPC   C35 7998   6.210   6.329   3.478  0.4348 -0.0098 -0.2983
   84SLPC   H5X 7999   6.248   6.432   3.461 -0.5161 -0.0209 -2.8705
   84SLPC   H5Y 8000   6.299   6.265   3.495  0.4985  0.3492  0.7902
   84SLPC   C36 8001   6.135   6.320   3.612  0.1577  1.1547  0.0921
   84SLPC   H6X 8002   6.117   6.213   3.636  0.1727  0.9716 -0.6741
   84SLPC   H6Y 8003   6.030   6.356   3.602 -0.7363 -0.5844  2.4462
   84SLPC   C37 8004   6.197   6.407   3.718  0.1862 -0.2416  0.4938
   84SLPC   H7X 8005   6.191   6.516   3.699 -2.0458 -0.4333 -0.3029
   84SLPC   H7Y 8006   6.305   6.386   3.733  0.2726  0.0749  0.3125
   84SLPC   C38 8007   6.141   6.387   3.857 -0.8324 -0.3941  0.2787
   84SLPC   H8X 8008   6.147   6.277   3.871  0.1367 -0.4773 -0.6170
   84SLPC   H8Y 8009   6.036   6.418   3.877 -0.9391 -0.7550  0.2810
   84SLPC   C39 8010   6.242   6.448   3.958  0.6506 -0.4854 -0.6767
   84SLPC   H9X 8011   6.221   6.555   3.937 -0.9643 -0.5022  0.5812
   84SLPC   H9Y 8012   6.343   6.409   3.933  0.8476  1.6263 -3.7278
   84SLPC  C310 8013   6.201   6.422   4.101 -0.3194  0.6824  0.0855
   84SLPC  H10X 8014   6.182   6.313   4.114 -2.2931  0.9550 -0.0806
   84SLPC  H10Y 8015   6.111   6.487   4.107  0.2325  1.3579  1.2546
   84SLPC  C311 8016   6.291   6.470   4.204  0.2625  0.2614 -0.5311
   84SLPC  H11X 8017   6.282   6.580   4.213 -3.0871 -0.0304  2.1047
   84SLPC  H11Y 8018   6.395   6.432   4.193  0.9586  1.6059  1.0013
   84SLPC  C312 8019   6.255   6.416   4.349  0.0750  0.5142  0.7443
   84SLPC  H12X 8020   6.249   6.306   4.334 -0.8138  0.8280 -1.5958
   84SLPC  H12Y 8021   6.165   6.476   4.373  1.6279  3.1945  0.3223
   84SLPC  C313 8022   6.364   6.449   4.451  0.5505 -0.7979 -0.7757
   84SLPC  H13X 8023   6.341   6.539   4.512 -3.4619 -0.4333 -2.4666
   84SLPC  H13Y 8024   6.456   6.461   4.389  1.8073  3.1233  1.5018
   84SLPC  C314 8025   6.392   6.340   4.552  0.2787  0.2147  0.2530
   84SLPC  H14X 8026   6.401   6.242   4.500  0.4471 -0.0036  0.6874
   84SLPC  H14Y 8027   6.305   6.319   4.618 -0.9175 -1.3318 -1.7084
   84SLPC  C315 8028   6.531   6.351   4.624  0.7154  0.0693  0.7423
   84SLPC  H15X 8029   6.606   6.346   4.543  0.8103  0.3707  0.8114
   84SLPC  H15Y 8030   6.555   6.257   4.679  0.5022 -0.2516  0.2975
   84SLPC  C316 8031   6.558   6.478   4.695 -0.0751 -0.0037 -0.3647
   84SLPC  H16X 8032   6.481   6.491   4.774  1.3657 -1.3282  1.3363
   84SLPC  H16Y 8033   6.564   6.558   4.617  2.2468 -1.5845 -1.9680
   84SLPC  C317 8034   6.690   6.467   4.774  0.0630  0.1762 -0.6951
   84SLPC  H17X 8035   6.737   6.567   4.786 -2.5594  1.2945  1.2310
   84SLPC  H17Y 8036   6.752   6.414   4.699 -0.5569  1.6885 -2.3547
   84SLPC  C318 8037   6.680   6.388   4.903  0.4289 -0.0054  0.0049
   84SLPC  H18X 8038   6.605   6.441   4.964 -0.0507  0.9077 -1.3340
   84SLPC  H18Y 8039   6.770   6.368   4.966  1.5660  1.1256 -1.1816
   84SLPC  H18Z 8040   6.640   6.288   4.875 -0.0229  0.5635 -1.4761
   85SLPC     N 8041   2.590   2.105   2.423 -0.3596 -0.3658  0.3339
   85SLPC   C13 8042   2.616   2.239   2.356  0.4095 -0.3404  0.4684
   85SLPC  H13A 8043   2.526   2.295   2.336  2.0023  2.0028 -0.5934
   85SLPC  H13B 8044   2.668   2.301   2.428  0.2788  0.9200 -0.5097
   85SLPC  H13C 8045   2.671   2.222   2.265 -2.0982 -0.9505 -1.0158
   85SLPC   C14 8046   2.732   2.057   2.462  0.1989  0.7061  0.2845
   85SLPC  H14A 8047   2.726   1.970   2.526  1.6988 -0.4321 -1.0267
   85SLPC  H14B 8048   2.781   2.009   2.378 -2.1960 -1.9993  0.2452
   85SLPC  H14C 8049   2.794   2.135   2.504  1.4395  1.0080 -1.9304
   85SLPC   C15 8050   2.531   2.021   2.309  0.2012 -0.9253  0.1054
   85SLPC  H15A 8051   2.430   2.053   2.286 -1.0432 -3.1637  1.9800
   85SLPC  H15B 8052   2.596   2.037   2.224 -0.5172  1.8611 -0.0177
   85SLPC  H15C 8053   2.527   1.915   2.331  0.4520 -0.8048  0.7279
   85SLPC   C12 8054   2.496   2.111   2.537  0.0175  0.6042  0.3197
   85SLPC  H12A 8055   2.430   2.193   2.512 -1.8273 -1.3682 -1.7545
   85SLPC  H12B 8056   2.551   2.147   2.623  0.9387 -1.2055  0.5204
   85SLPC   C11 8057   2.423   1.985   2.579  0.7219  0.3850  0.7300
   85SLPC  H11A 8058   2.392   2.003   2.684  0.2493 -1.2232  0.9046
   85SLPC  H11B 8059   2.491   1.897   2.589  0.2543 -0.3969 -2.1213
   85SLPC     P 8060   2.170   2.040   2.530  0.0217 -0.3433 -0.2560
   85SLPC   O13 8061   2.190   2.174   2.481 -0.7455 -0.1587  0.8481
   85SLPC   O14 8062   2.066   1.961   2.465  0.6566  0.1817  0.3068
   85SLPC   O12 8063   2.305   1.961   2.496  0.1787  0.2551  0.2524
   85SLPC   O11 8064   2.161   2.027   2.690 -0.1961 -0.7790  0.4689
   85SLPC    C1 8065   2.151   1.894   2.745 -0.5092  0.2635  0.4320
   85SLPC    HA 8066   2.074   1.836   2.688  0.4830 -1.0360  0.3668
   85SLPC    HB 8067   2.243   1.832   2.747 -0.6057  0.0960 -0.2230
   85SLPC    C2 8068   2.106   1.903   2.892 -0.1816 -0.6547 -0.0011
   85SLPC    HS 8069   2.071   1.803   2.926 -1.6551 -0.3728 -0.6126
   85SLPC   O21 8070   2.006   1.999   2.914  0.3759  0.6890 -0.1021
   85SLPC   C21 8071   1.890   1.962   2.862 -0.0841 -0.3128  0.5353
   85SLPC   O22 8072   1.868   1.858   2.806  0.5262  0.0684 -0.0260
   85SLPC   C22 8073   1.788   2.067   2.887 -0.3759  0.0772  0.4583
   85SLPC   H2R 8074   1.786   2.111   2.785 -0.9196 -1.3668 -0.1803
   85SLPC   H2S 8075   1.688   2.022   2.906 -0.8962  0.2621 -1.6249
   85SLPC    C3 8076   2.224   1.948   2.983  0.7624 -0.2121  0.6325
   85SLPC    HX 8077   2.263   2.045   2.945  0.2512  1.2004  3.4932
   85SLPC    HY 8078   2.307   1.874   2.979  0.5769 -0.3708 -0.8214
   85SLPC   O31 8079   2.181   1.962   3.125  0.3309 -0.0358  0.1160
   85SLPC   C31 8080   2.163   2.082   3.171  0.2371 -0.7426 -0.0515
   85SLPC   O32 8081   2.181   2.190   3.114  0.1004  0.1017  0.2275
   85SLPC   C32 8082   2.120   2.076   3.319 -0.3921  0.3157  0.2221
   85SLPC   H2X 8083   2.061   2.170   3.329  0.1131  0.5118  1.5549
   85SLPC   H2Y 8084   2.214   2.083   3.377 -1.1085  0.9665  1.3505
   85SLPC   C23 8085   1.815   2.193   2.975  0.2279  0.0237 -0.0062
   85SLPC   H3R 8086   1.766   2.272   2.914  0.3611  0.2138  0.1348
   85SLPC   H3S 8087   1.924   2.216   2.973  0.1848  0.1877 -1.7210
   85SLPC   C24 8088   1.745   2.188   3.121 -0.3118  0.0003 -0.1113
   85SLPC   H4R 8089   1.802   2.116   3.185 -2.0202  1.8873  3.9277
   85SLPC   H4S 8090   1.647   2.144   3.095  1.1705 -3.0278 -1.0981
   85SLPC   C25 8091   1.739   2.320   3.201  0.1471 -0.0779 -0.7536
   85SLPC   H5R 8092   1.840   2.367   3.203 -0.5814  1.5196  0.4738
   85SLPC   H5S 8093   1.675   2.390   3.143  0.3277  1.4542  0.8412
   85SLPC   C26 8094   1.679   2.294   3.337  0.9531 -0.5471 -0.0106
   85SLPC   H6R 8095   1.682   2.185   3.358  0.8840 -0.6213 -0.3818
   85SLPC   H6S 8096   1.569   2.313   3.328  0.7877 -1.3408  0.2662
   85SLPC   C27 8097   1.746   2.385   3.445  0.1685  0.6969 -0.1481
   85SLPC   H7R 8098   1.731   2.490   3.410 -1.0192 -0.1806 -2.5167
   85SLPC   H7S 8099   1.856   2.371   3.442  0.1388  0.3559  0.3178
   85SLPC   C28 8100   1.690   2.376   3.581  0.2879 -0.2084 -0.8855
   85SLPC   H8R 8101   1.711   2.274   3.619  0.8295 -0.3371 -1.5149
   85SLPC   H8S 8102   1.580   2.393   3.577  0.1052 -1.2275 -0.4651
   85SLPC   C29 8103   1.746   2.477   3.676  0.1621 -0.2933 -0.3472
   85SLPC   H9R 8104   1.802   2.556   3.625 -3.1497  1.5688 -1.3993
   85SLPC  C210 8105   1.752   2.458   3.810  0.4305  1.0545 -0.7899
   85SLPC  H10R 8106   1.787   2.549   3.860  1.3706 -0.5980  1.7364
   85SLPC  C211 8107   1.678   2.349   3.896  0.0434 -0.3301  0.0765
   85SLPC  H11R 8108   1.732   2.315   3.986 -0.0521  0.5212  0.4658
   85SLPC  H11S 8109   1.676   2.256   3.836 -2.2993 -0.6706  0.5710
   85SLPC  C212 8110   1.535   2.389   3.912  0.3199 -0.2837 -0.4626
   85SLPC  H12R 8111   1.471   2.352   3.831 -0.8385 -4.2014  1.9849
   85SLPC  C213 8112   1.479   2.429   4.028 -0.4559  0.1115  0.0469
   85SLPC  H13R 8113   1.370   2.444   4.039 -1.6724 -5.6792 -0.9516
   85SLPC  C214 8114   1.555   2.486   4.144 -0.0579  0.0283 -0.4490
   85SLPC  H14R 8115   1.567   2.596   4.140  1.6322 -0.0860  0.2799
   85SLPC  H14S 8116   1.662   2.454   4.148  0.1619  0.8077  0.6454
   85SLPC  C215 8117   1.495   2.447   4.280  0.5309 -0.0996 -0.3807
   85SLPC  H15R 8118   1.457   2.345   4.297  2.1827 -0.6348  0.3412
   85SLPC  H15S 8119   1.400   2.504   4.292 -0.2810 -1.5541  0.3175
   85SLPC  C216 8120   1.595   2.475   4.389  0.5276 -0.0107 -0.4034
   85SLPC  H16R 8121   1.633   2.576   4.365 -0.5628  0.3599 -0.6031
   85SLPC  H16S 8122   1.681   2.404   4.391  0.8227  0.2917 -1.5489
   85SLPC  C217 8123   1.528   2.496   4.530  0.2905 -0.0527  0.3863
   85SLPC  H17R 8124   1.471   2.407   4.562 -1.2279  1.2693  1.5682
   85SLPC  H17S 8125   1.450   2.575   4.527 -2.2401 -2.4471 -0.4441
   85SLPC  C218 8126   1.620   2.526   4.647 -0.1771 -0.0730 -0.0471
   85SLPC  H18R 8127   1.687   2.613   4.629 -1.1231  0.9531  1.1373
   85SLPC  H18S 8128   1.681   2.436   4.667 -0.0533 -0.1716 -0.8159
   85SLPC  H18T 8129   1.559   2.559   4.734  0.8302 -1.5073  1.2618
   85SLPC   C33 8130   2.048   1.946   3.351  0.3878  0.1208 -0.6353
   85SLPC   H3X 8131   2.109   1.857   3.324 -0.4645 -0.2058 -1.5482
   85SLPC   H3Y 8132   1.960   1.935   3.285  0.0550  0.5684 -0.2751
   85SLPC   C34 8133   2.007   1.923   3.501  0.8241  0.1254  0.0733
   85SLPC   H4X 8134   2.097   1.924   3.566  0.4342  1.2728  0.6217
   85SLPC   H4Y 8135   1.955   1.826   3.503 -0.4734  0.8105  0.5780
   85SLPC   C35 8136   1.915   2.026   3.561  0.2091  0.1430  0.2576
   85SLPC   H5X 8137   1.810   1.991   3.561  0.0102  0.6393  2.0271
   85SLPC   H5Y 8138   1.925   2.124   3.508  0.1077  0.2462  0.4268
   85SLPC   C36 8139   1.929   2.047   3.712  0.3458 -0.2960  0.4570
   85SLPC   H6X 8140   1.925   1.946   3.759  0.7963 -0.8668 -0.6899
   85SLPC   H6Y 8141   1.842   2.106   3.747  1.3065  1.1202  0.5056
   85SLPC   C37 8142   2.049   2.123   3.756 -0.0862 -0.6674 -1.0291
   85SLPC   H7X 8143   2.030   2.230   3.734  0.9512 -0.6859 -2.1008
   85SLPC   H7Y 8144   2.136   2.088   3.698  0.0296  0.9037 -1.8672
   85SLPC   C38 8145   2.080   2.106   3.910 -0.2364  0.0355  0.3272
   85SLPC   H8X 8146   2.189   2.124   3.920 -0.3647  0.6027  0.7399
   85SLPC   H8Y 8147   2.075   2.001   3.946  3.4543 -0.1484  0.6415
   85SLPC   C39 8148   1.998   2.202   4.003 -0.7720  0.2666 -0.0008
   85SLPC   H9X 8149   1.891   2.173   3.992 -0.7534  0.2796 -0.2245
   85SLPC   H9Y 8150   2.011   2.302   3.957 -1.7950  0.2081 -0.4399
   85SLPC  C310 8151   2.041   2.187   4.155  0.0893  0.5726  0.7893
   85SLPC  H10X 8152   2.149   2.206   4.168  0.3599 -1.1026  1.2313
   85SLPC  H10Y 8153   2.026   2.078   4.170  2.2033  0.4642  2.6091
   85SLPC  C311 8154   1.950   2.264   4.252 -0.3490  0.4086 -0.3126
   85SLPC  H11X 8155   1.842   2.237   4.242 -0.0789  0.0324 -3.3130
   85SLPC  H11Y 8156   1.960   2.372   4.228 -0.6991  0.8776  1.4913
   85SLPC  C312 8157   2.000   2.250   4.401 -0.2188  0.3445 -0.3623
   85SLPC  H12X 8158   2.018   2.146   4.434 -1.5656  0.1276 -0.2428
   85SLPC  H12Y 8159   1.926   2.304   4.464 -0.0826  1.8288 -1.4041
   85SLPC  C313 8160   2.144   2.307   4.420  0.1122 -0.2794 -0.1825
   85SLPC  H13X 8161   2.138   2.400   4.359 -0.4989  1.2176  2.0415
   85SLPC  H13Y 8162   2.220   2.242   4.371 -0.6455  0.3970 -2.4147
   85SLPC  C314 8163   2.184   2.322   4.570 -0.2279  0.5029 -0.4693
   85SLPC  H14X 8164   2.175   2.223   4.619 -1.2044 -0.4151 -2.3838
   85SLPC  H14Y 8165   2.116   2.379   4.637  0.0732  0.8675 -0.4711
   85SLPC  C315 8166   2.329   2.372   4.576 -0.3155  0.3482  0.2149
   85SLPC  H15X 8167   2.344   2.481   4.586  0.7598  0.2217  0.0599
   85SLPC  H15Y 8168   2.382   2.337   4.485 -1.5458  0.7993 -0.7073
   85SLPC  C316 8169   2.405   2.330   4.700  0.2139  0.1595  0.2833
   85SLPC  H16X 8170   2.386   2.221   4.704 -0.4829  0.2219 -0.8038
   85SLPC  H16Y 8171   2.368   2.368   4.797  1.0665  1.1821  0.2304
   85SLPC  C317 8172   2.553   2.364   4.695  0.1710 -0.2967  0.0257
   85SLPC  H17X 8173   2.571   2.470   4.667  0.8570  0.1154  1.8739
   85SLPC  H17Y 8174   2.604   2.308   4.614  0.2194  0.9696 -0.8414
   85SLPC  C318 8175   2.633   2.337   4.825 -0.2947  0.1329  0.1096
   85SLPC  H18X 8176   2.615   2.229   4.839  0.9833 -0.4186 -2.0333
   85SLPC  H18Y 8177   2.605   2.401   4.911 -0.5410  0.9731 -0.5714
   85SLPC  H18Z 8178   2.741   2.363   4.810 -0.3206  1.0176  1.2705
   86SLPC     N 8179   6.105   0.376   2.087 -0.9426  0.6130 -0.6500
   86SLPC   C13 8180   6.182   0.247   2.073 -0.0628 -0.4997  0.3689
   86SLPC  H13A 8181   6.190   0.227   1.967  1.6091  1.3513  0.0946
   86SLPC  H13B 8182   6.281   0.258   2.115 -0.0447 -1.3063  0.5677
   86SLPC  H13C 8183   6.138   0.164   2.127 -2.5982 -1.7337 -3.2333
   86SLPC   C14 8184   5.966   0.364   2.023  0.1101  0.3392 -1.0129
   86SLPC  H14A 8185   5.907   0.291   2.076 -1.0614  2.0467  0.1298
   86SLPC  H14B 8186   5.919   0.461   2.030  0.6492  0.5313  0.1640
   86SLPC  H14C 8187   5.968   0.356   1.915  0.9672 -1.3690 -0.9064
   86SLPC   C15 8188   6.179   0.485   2.015 -0.0846 -0.3315 -0.4828
   86SLPC  H15A 8189   6.279   0.490   2.057  0.3019  1.4278 -1.5504
   86SLPC  H15B 8190   6.194   0.459   1.911 -0.1737 -1.6724 -0.1810
   86SLPC  H15C 8191   6.133   0.582   2.020  0.1857 -0.2509  0.7860
   86SLPC   C12 8192   6.101   0.410   2.238  0.6889  0.2479 -0.1938
   86SLPC  H12A 8193   6.040   0.498   2.254  0.1879 -0.4254  1.9477
   86SLPC  H12B 8194   6.197   0.427   2.284  0.6648  2.5006 -0.8551
   86SLPC   C11 8195   6.043   0.303   2.330 -0.4791  0.6601 -0.7252
   86SLPC  H11A 8196   6.068   0.317   2.438  0.9462 -1.1198 -0.7814
   86SLPC  H11B 8197   6.106   0.215   2.304 -2.5457 -0.5936 -1.7050
   86SLPC     P 8198   5.784   0.346   2.367 -0.5043 -0.1513 -0.1282
   86SLPC   O13 8199   5.826   0.479   2.399 -0.2609 -0.4006  0.1350
   86SLPC   O14 8200   5.675   0.337   2.267  0.6422 -0.2874 -0.4354
   86SLPC   O12 8201   5.907   0.274   2.303  0.3789  0.9955  0.4158
   86SLPC   O11 8202   5.747   0.263   2.502 -0.6125 -0.1295  0.0410
   86SLPC    C1 8203   5.834   0.271   2.614  0.2808 -0.4382 -0.0560
   86SLPC    HA 8204   5.893   0.177   2.616  0.7236 -0.2321 -1.8499
   86SLPC    HB 8205   5.908   0.354   2.605  0.2988 -0.4335  0.1303
   86SLPC    C2 8206   5.751   0.284   2.743  0.2359  0.0840 -0.1316
   86SLPC    HS 8207   5.673   0.206   2.751  2.1946 -1.9580  0.0734
   86SLPC   O21 8208   5.692   0.414   2.738  0.2338 -0.1505 -0.1824
   86SLPC   C21 8209   5.595   0.435   2.826  0.0087  0.1756  0.2162
   86SLPC   O22 8210   5.549   0.352   2.906 -0.1580 -0.1889 -0.0156
   86SLPC   C22 8211   5.530   0.572   2.801  0.2744  0.2572 -0.0772
   86SLPC   H2R 8212   5.599   0.651   2.765  0.2050  0.1306 -0.4978
   86SLPC   H2S 8213   5.463   0.555   2.714  2.5686 -0.0731 -1.8913
   86SLPC    C3 8214   5.838   0.260   2.875  0.4085  0.9671 -0.1884
   86SLPC    HX 8215   5.784   0.277   2.971 -2.4072  0.0057 -1.5040
   86SLPC    HY 8216   5.923   0.332   2.872  2.5456 -1.4428 -0.7046
   86SLPC   O31 8217   5.909   0.134   2.863 -1.1187  0.1181  0.0295
   86SLPC   C31 8218   5.838   0.026   2.905 -0.8489  0.4406 -0.8345
   86SLPC   O32 8219   5.717   0.012   2.919 -0.2344 -0.3816  0.3277
   86SLPC   C32 8220   5.936  -0.082   2.955  0.0532  0.2205  0.0103
   86SLPC   H2X 8221   6.033  -0.036   2.984 -0.3287  0.2248  1.3666
   86SLPC   H2Y 8222   5.961  -0.152   2.872 -0.4875 -0.0852  0.1016
   86SLPC   C23 8223   5.456   0.614   2.929  0.0558 -0.2051  0.3298
   86SLPC   H3R 8224   5.527   0.647   3.008  1.2202 -0.4895 -0.5656
   86SLPC   H3S 8225   5.390   0.532   2.964 -0.3101 -1.6369 -3.2552
   86SLPC   C24 8226   5.354   0.725   2.906 -0.0581 -0.4095  0.0956
   86SLPC   H4R 8227   5.289   0.710   2.817  1.4781 -1.1447 -0.9459
   86SLPC   H4S 8228   5.416   0.816   2.888 -1.1202  0.2127 -0.5518
   86SLPC   C25 8229   5.273   0.758   3.038  0.2372 -0.4947  0.3435
   86SLPC   H5R 8230   5.334   0.728   3.125 -1.3930 -1.2823  1.2697
   86SLPC   H5S 8231   5.185   0.690   3.039  0.9057 -1.3780  0.3645
   86SLPC   C26 8232   5.228   0.903   3.045  0.1444 -0.0526 -0.5482
   86SLPC   H6R 8233   5.146   0.925   2.974  0.1071  1.1617 -0.1471
   86SLPC   H6S 8234   5.319   0.966   3.038 -0.1016  0.4575  0.6475
   86SLPC   C27 8235   5.167   0.929   3.189  0.1941 -0.4055 -0.2881
   86SLPC   H7R 8236   5.220   0.866   3.264  2.1785 -0.4557 -1.6424
   86SLPC   H7S 8237   5.061   0.898   3.176  0.0599 -0.5839  1.0706
   86SLPC   C28 8238   5.169   1.076   3.240 -0.1941 -0.0401  0.3759
   86SLPC   H8R 8239   5.083   1.081   3.310  0.0192 -2.0848  0.8332
   86SLPC   H8S 8240   5.145   1.144   3.155  0.0658 -1.8579 -1.2200
   86SLPC   C29 8241   5.301   1.122   3.281 -0.7965 -0.9676 -0.9363
   86SLPC   H9R 8242   5.363   1.179   3.211  1.1676 -0.4687  1.0892
   86SLPC  C210 8243   5.343   1.118   3.409 -1.2832  0.2273 -0.3499
   86SLPC  H10R 8244   5.446   1.147   3.432 -1.0787 -0.7097 -0.0346
   86SLPC  C211 8245   5.285   1.046   3.530 -0.6310  0.5347 -0.1453
   86SLPC  H11R 8246   5.187   0.999   3.507 -0.4635  0.5448 -0.9030
   86SLPC  H11S 8247   5.263   1.121   3.608  0.2575 -0.7388  1.4097
   86SLPC  C212 8248   5.367   0.936   3.587  0.3061 -0.1440  0.0723
   86SLPC  H12R 8249   5.451   0.903   3.523  1.8726  2.7021  0.4814
   86SLPC  C213 8250   5.340   0.883   3.704 -0.2793  0.2013 -0.2537
   86SLPC  H13R 8251   5.393   0.792   3.736 -0.7440  0.8297  2.5656
   86SLPC  C214 8252   5.226   0.931   3.793 -0.0037  0.6344 -0.4954
   86SLPC  H14R 8253   5.174   0.847   3.845 -2.5131  1.5472 -1.3725
   86SLPC  H14S 8254   5.146   0.980   3.734 -0.0036  0.6308 -0.4983
   86SLPC  C215 8255   5.267   1.035   3.898  0.5579  0.1360 -0.6324
   86SLPC  H15R 8256   5.297   1.129   3.846 -0.2160  0.1159 -1.1293
   86SLPC  H15S 8257   5.357   0.994   3.949  0.7959 -1.2950 -2.1079
   86SLPC  C216 8258   5.151   1.049   3.999  0.4520 -0.0488  0.2211
   86SLPC  H16R 8259   5.175   1.122   4.079 -0.7811 -1.0450  1.5469
   86SLPC  H16S 8260   5.135   0.953   4.052  0.1708  0.3089  0.7923
   86SLPC  C217 8261   5.021   1.092   3.928  0.0480  0.0013 -0.4253
   86SLPC  H17R 8262   4.982   1.001   3.878  1.3230 -0.2850 -0.9603
   86SLPC  H17S 8263   5.031   1.170   3.848 -0.3733 -0.5182 -0.9941
   86SLPC  C218 8264   4.922   1.148   4.030 -0.6785  0.5735 -0.8987
   86SLPC  H18R 8265   4.893   1.072   4.105 -1.7968  1.4655 -0.3994
   86SLPC  H18S 8266   4.836   1.197   3.980 -3.2083 -1.9328  0.7047
   86SLPC  H18T 8267   4.977   1.226   4.089  0.7743  0.5068 -2.1040
   86SLPC   C33 8268   5.886  -0.160   3.072 -0.3112  0.5179  0.3359
   86SLPC   H3X 8269   5.924  -0.264   3.069 -2.0756 -0.2315  1.7243
   86SLPC   H3Y 8270   5.776  -0.178   3.075 -0.3559  0.1778 -1.8040
   86SLPC   C34 8271   5.926  -0.106   3.208 -0.6636 -0.4448 -0.2125
   86SLPC   H4X 8272   5.906   0.002   3.229  0.6769 -0.1804 -0.2064
   86SLPC   H4Y 8273   6.036  -0.110   3.222 -0.7554  0.1179  0.7899
   86SLPC   C35 8274   5.861  -0.186   3.323 -0.7590 -0.2115  0.2219
   86SLPC   H5X 8275   5.856  -0.294   3.299 -0.2431 -0.4105  0.9702
   86SLPC   H5Y 8276   5.758  -0.147   3.334 -0.2635  1.4926 -0.8131
   86SLPC   C36 8277   5.930  -0.166   3.459  0.2957 -0.1408 -0.4838
   86SLPC   H6X 8278   5.957  -0.058   3.466  0.7343 -0.1855 -1.3763
   86SLPC   H6Y 8279   6.021  -0.222   3.486  0.2720  0.6843  1.5404
   86SLPC   C37 8280   5.830  -0.186   3.573  0.0105 -0.2324  0.5018
   86SLPC   H7X 8281   5.825  -0.295   3.594 -1.9348  0.1938  2.7234
   86SLPC   H7Y 8282   5.735  -0.134   3.547  0.1967 -0.1843 -0.0930
   86SLPC   C38 8283   5.875  -0.120   3.702  0.4184 -0.9783  0.0335
   86SLPC   H8X 8284   5.868  -0.010   3.688  0.6453 -0.7849  1.3030
   86SLPC   H8Y 8285   5.980  -0.151   3.719  1.3282  2.1579  0.7359
   86SLPC   C39 8286   5.789  -0.164   3.824 -0.5934  0.4743  0.0454
   86SLPC   H9X 8287   5.811  -0.271   3.848 -0.1586  0.7068  0.7087
   86SLPC   H9Y 8288   5.686  -0.142   3.790 -0.7262 -0.1320  0.0348
   86SLPC  C310 8289   5.835  -0.074   3.947  0.3128 -0.0466  1.3164
   86SLPC  H10X 8290   5.776  -0.112   4.033 -1.9945 -1.1705 -0.6722
   86SLPC  H10Y 8291   5.824   0.036   3.936  0.3204 -0.3237 -3.5133
   86SLPC  C311 8292   5.980  -0.089   3.989 -0.1360  0.5146  0.0646
   86SLPC  H11X 8293   6.042  -0.046   3.907 -0.0651  2.6945  1.2144
   86SLPC  H11Y 8294   6.006  -0.197   3.997 -0.8563  0.3978  0.8793
   86SLPC  C312 8295   6.014  -0.017   4.123  0.0105  0.5494  0.0890
   86SLPC  H12X 8296   6.113  -0.058   4.149 -1.0569 -2.7543 -0.5880
   86SLPC  H12Y 8297   5.945  -0.047   4.206 -0.0651  0.3971 -0.0283
   86SLPC  C313 8298   6.024   0.133   4.102 -0.7251  0.1388 -0.5439
   86SLPC  H13X 8299   5.917   0.163   4.096 -0.6706  0.4855  0.0800
   86SLPC  H13Y 8300   6.086   0.160   4.014 -0.5023  1.8993  0.1218
   86SLPC  C314 8301   6.081   0.201   4.231 -0.0499 -0.1949  0.5417
   86SLPC  H14X 8302   6.184   0.161   4.239 -0.4595 -1.2834  0.4550
   86SLPC  H14Y 8303   6.017   0.164   4.314 -0.1308 -0.5335  0.3258
   86SLPC  C315 8304   6.082   0.352   4.206 -0.4644 -0.5958 -0.8445
   86SLPC  H15X 8305   5.980   0.396   4.193 -1.4344 -2.4894 -0.0271
   86SLPC  H15Y 8306   6.164   0.369   4.133  0.3774 -1.3812 -0.1080
   86SLPC  C316 8307   6.138   0.417   4.331 -0.7042  0.3537  0.1189
   86SLPC  H16X 8308   6.248   0.402   4.326 -1.0909 -2.6749 -1.8099
   86SLPC  H16Y 8309   6.101   0.358   4.417  1.8621 -1.4249  0.1127
   86SLPC  C317 8310   6.102   0.561   4.341  0.1981 -0.0729 -0.5793
   86SLPC  H17X 8311   5.991   0.561   4.335  0.2397  1.4594 -2.3006
   86SLPC  H17Y 8312   6.150   0.624   4.263  1.7052  1.3192  1.3656
   86SLPC  C318 8313   6.152   0.624   4.477 -0.1230  0.1671 -0.6092
   86SLPC  H18X 8314   6.088   0.711   4.506 -0.5932 -0.6102  0.7950
   86SLPC  H18Y 8315   6.258   0.655   4.463  1.1715 -2.5863  2.0013
   86SLPC  H18Z 8316   6.161   0.554   4.563  1.4902  1.3950  0.2900
   87SLPC     N 8317   2.028   6.114   2.347  0.1657  0.3684  0.1133
   87SLPC   C13 8318   2.067   5.977   2.307  0.0409 -0.0097 -0.3096
   87SLPC  H13A 8319   2.147   5.929   2.364  0.2593 -1.6893 -1.9257
   87SLPC  H13B 8320   1.978   5.916   2.310  0.3428 -0.4565  1.8030
   87SLPC  H13C 8321   2.110   5.987   2.209 -0.9944 -0.8938 -0.8755
   87SLPC   C14 8322   1.952   6.175   2.236  0.2458  0.4546 -0.3014
   87SLPC  H14A 8323   1.873   6.118   2.189 -0.1946  1.1944 -0.4726
   87SLPC  H14B 8324   1.909   6.267   2.273  1.0893 -0.0016  2.0022
   87SLPC  H14C 8325   2.019   6.192   2.152  1.4456  0.0565  0.5434
   87SLPC   C15 8326   2.151   6.188   2.373  0.4358 -0.6592  0.3664
   87SLPC  H15A 8327   2.125   6.284   2.416  0.4318 -0.9127  0.9448
   87SLPC  H15B 8328   2.210   6.123   2.436 -0.1703 -2.4798 -0.8853
   87SLPC  H15C 8329   2.204   6.206   2.281 -1.0298  0.5304 -0.2768
   87SLPC   C12 8330   1.950   6.101   2.481  0.1189  0.1532  0.2353
   87SLPC  H12A 8331   1.862   6.039   2.472 -0.0456  0.3772  0.2878
   87SLPC  H12B 8332   1.921   6.202   2.506  0.9363  0.4085  0.1922
   87SLPC   C11 8333   2.029   6.062   2.605  0.4237 -0.4058  0.1909
   87SLPC  H11A 8334   1.975   6.047   2.701  2.2591 -2.7469  0.9707
   87SLPC  H11B 8335   2.107   6.133   2.638 -0.6599  0.4210  1.0647
   87SLPC     P 8336   2.213   5.888   2.654 -0.2998  0.1105 -0.0478
   87SLPC   O13 8337   2.209   5.741   2.657 -0.4977 -0.1111 -0.1369
   87SLPC   O14 8338   2.313   5.961   2.577 -0.3976 -0.4388 -0.6280
   87SLPC   O12 8339   2.079   5.929   2.587 -0.1060  0.2318 -0.2066
   87SLPC   O11 8340   2.212   5.943   2.809  0.2070  0.4133 -0.7397
   87SLPC    C1 8341   2.134   5.858   2.900  0.4610 -0.1720 -0.1884
   87SLPC    HA 8342   2.028   5.856   2.868  0.6663  0.1894 -0.9137
   87SLPC    HB 8343   2.163   5.751   2.890 -0.5677 -0.2875 -2.5395
   87SLPC    C2 8344   2.147   5.905   3.053  0.1470  0.0198  0.6953
   87SLPC    HS 8345   2.092   6.001   3.058  0.4377  0.2195  0.1783
   87SLPC   O21 8346   2.279   5.931   3.089  0.5540  0.3807 -0.2176
   87SLPC   C21 8347   2.362   5.829   3.080  0.5960  0.8177  0.1493
   87SLPC   O22 8348   2.335   5.713   3.043 -0.0394 -0.3279 -0.2491
   87SLPC   C22 8349   2.502   5.868   3.117 -0.6061  0.0414  0.2143
   87SLPC   H2R 8350   2.507   5.979   3.116  1.0163  0.0221 -2.1113
   87SLPC   H2S 8351   2.527   5.835   3.220  1.6598  0.3608 -0.1889
   87SLPC    C3 8352   2.077   5.811   3.160 -0.1598  1.0684 -0.1360
   87SLPC    HX 8353   2.131   5.715   3.174 -1.6627 -0.5133 -3.8541
   87SLPC    HY 8354   1.980   5.782   3.115 -1.4335  1.9591  1.8761
   87SLPC   O31 8355   2.053   5.877   3.285  0.1941  0.1637  0.3148
   87SLPC   C31 8356   2.146   5.873   3.380  0.2413 -0.4164  0.2728
   87SLPC   O32 8357   2.259   5.831   3.371  0.1320 -0.6621 -0.3547
   87SLPC   C32 8358   2.091   5.935   3.506  0.9063  0.5648 -0.0623
   87SLPC   H2X 8359   1.983   5.953   3.488 -0.0646 -2.7033  1.5800
   87SLPC   H2Y 8360   2.127   6.040   3.513 -0.4214  1.0600 -0.4803
   87SLPC   C23 8361   2.604   5.822   3.007 -0.5128  0.8572  0.2619
   87SLPC   H3R 8362   2.685   5.898   3.004 -1.8941  2.4343  1.0482
   87SLPC   H3S 8363   2.549   5.825   2.910  0.3795  1.2535 -0.2400
   87SLPC   C24 8364   2.654   5.682   3.024 -0.1375  0.4729 -0.1054
   87SLPC   H4R 8365   2.575   5.606   3.007  2.5411 -2.7610  0.9138
   87SLPC   H4S 8366   2.685   5.676   3.130 -0.8093 -0.7820  0.0396
   87SLPC   C25 8367   2.762   5.637   2.923 -0.3857 -0.0549 -0.3650
   87SLPC   H5R 8368   2.822   5.726   2.894  1.1567 -0.9633 -0.1093
   87SLPC   H5S 8369   2.719   5.601   2.827  1.7674 -0.2508 -1.3287
   87SLPC   C26 8370   2.849   5.523   2.997 -0.3400 -0.8093  0.4822
   87SLPC   H6R 8371   2.906   5.567   3.082 -2.0673 -0.8655  1.7472
   87SLPC   H6S 8372   2.920   5.483   2.922  0.2853  0.6429  0.2684
   87SLPC   C27 8373   2.763   5.410   3.049 -0.0948  0.4423 -0.3345
   87SLPC   H7R 8374   2.714   5.362   2.962  0.1265 -0.7831  0.1975
   87SLPC   H7S 8375   2.686   5.459   3.112  0.6526  0.6752  0.4215
   87SLPC   C28 8376   2.849   5.315   3.132 -0.3739  0.5398 -0.0220
   87SLPC   H8R 8377   2.904   5.360   3.217  2.3625  2.6667 -2.6800
   87SLPC   H8S 8378   2.930   5.277   3.065  0.0041 -1.8729  1.6909
   87SLPC   C29 8379   2.776   5.191   3.161  0.6930  0.6978  0.4279
   87SLPC   H9R 8380   2.752   5.122   3.079 -0.1139 -1.0522  2.0663
   87SLPC  C210 8381   2.722   5.162   3.284 -0.1307  0.2610  0.1702
   87SLPC  H10R 8382   2.681   5.062   3.303 -0.1209  0.6612  2.6682
   87SLPC  C211 8383   2.714   5.258   3.398 -1.1253  0.6228 -0.1389
   87SLPC  H11R 8384   2.777   5.348   3.379 -0.0059  0.0027  0.5500
   87SLPC  H11S 8385   2.746   5.216   3.496 -2.0139  0.0804 -0.0616
   87SLPC  C212 8386   2.575   5.305   3.424  0.2741  0.9562 -0.2913
   87SLPC  H12R 8387   2.552   5.398   3.371  0.1951  0.8416 -0.4563
   87SLPC  C213 8388   2.481   5.244   3.492 -0.1457  0.7946  0.0961
   87SLPC  H13R 8389   2.394   5.306   3.515 -0.4157  0.5400 -0.2348
   87SLPC  C214 8390   2.498   5.110   3.568  0.1883 -0.2238 -0.2260
   87SLPC  H14R 8391   2.600   5.066   3.562 -0.6292 -2.5901  1.6343
   87SLPC  H14S 8392   2.432   5.026   3.536  1.5710 -0.3011 -3.1175
   87SLPC  C215 8393   2.458   5.128   3.716 -0.1980 -0.6938  0.2473
   87SLPC  H15R 8394   2.368   5.191   3.734  1.9261  2.6589  0.0905
   87SLPC  H15S 8395   2.538   5.186   3.766 -0.2580  0.3432 -0.8242
   87SLPC  C216 8396   2.439   5.006   3.798 -0.2344 -0.4138  0.1324
   87SLPC  H16R 8397   2.542   4.971   3.820 -0.1685 -0.9856 -0.9934
   87SLPC  H16S 8398   2.397   4.927   3.732  1.0920  1.8370 -3.7231
   87SLPC  C217 8399   2.355   5.038   3.923 -0.4007 -0.2085 -0.4876
   87SLPC  H17R 8400   2.339   4.940   3.973 -2.8288  0.4008  0.0972
   87SLPC  H17S 8401   2.253   5.068   3.888 -0.9105 -0.0890  1.0154
   87SLPC  C218 8402   2.407   5.129   4.021 -0.4864 -0.6725 -0.0907
   87SLPC  H18R 8403   2.456   5.223   3.988  1.5526 -1.5874  0.1365
   87SLPC  H18S 8404   2.488   5.079   4.078  1.8203  2.2990 -0.4872
   87SLPC  H18T 8405   2.332   5.155   4.099 -1.4967 -1.3061 -0.8315
   87SLPC   C33 8406   2.094   5.853   3.638 -0.0532  0.3303  0.1010
   87SLPC   H3X 8407   2.188   5.793   3.644 -0.1047  0.3591  2.4481
   87SLPC   H3Y 8408   2.012   5.779   3.633  1.3794 -1.3315  0.2747
   87SLPC   C34 8409   2.105   5.932   3.771  0.6377  0.6038 -0.3767
   87SLPC   H4X 8410   2.134   6.036   3.745 -1.3690  0.7828 -2.0947
   87SLPC   H4Y 8411   2.190   5.884   3.824  0.2531 -2.0746 -1.9677
   87SLPC   C35 8412   1.980   5.949   3.850  0.2223  0.3343 -0.6617
   87SLPC   H5X 8413   1.968   5.857   3.912  0.3595 -0.2099 -1.4239
   87SLPC   H5Y 8414   1.887   5.961   3.790  0.5778 -1.0364 -1.5276
   87SLPC   C36 8415   1.976   6.066   3.941 -0.4709  0.5846 -0.4654
   87SLPC   H6X 8416   2.004   6.157   3.884 -1.7635  1.2276 -0.1416
   87SLPC   H6Y 8417   2.049   6.057   4.024  1.2236  1.9601 -1.7240
   87SLPC   C37 8418   1.841   6.079   4.007 -0.3660 -0.4694  0.4276
   87SLPC   H7X 8419   1.815   5.995   4.074 -1.1329 -0.5537  0.0253
   87SLPC   H7Y 8420   1.760   6.090   3.932  0.9808  1.5453 -0.8481
   87SLPC   C38 8421   1.827   6.217   4.081 -0.7513  1.0527 -0.0457
   87SLPC   H8X 8422   1.723   6.229   4.118 -0.2277  3.2378  0.8260
   87SLPC   H8Y 8423   1.840   6.299   4.007  0.1570 -0.3126 -1.4789
   87SLPC   C39 8424   1.927   6.232   4.201  0.8403 -0.5786  0.2328
   87SLPC   H9X 8425   1.877   6.305   4.268 -1.5460 -3.2068  1.5400
   87SLPC   H9Y 8426   2.020   6.283   4.168 -0.0896 -0.3970 -2.2428
   87SLPC  C310 8427   1.949   6.108   4.290  0.2308  0.6098 -0.1916
   87SLPC  H10X 8428   2.005   6.029   4.235 -2.7448 -1.9780  0.1846
   87SLPC  H10Y 8429   1.850   6.064   4.314  0.6033 -0.3110 -0.2986
   87SLPC  C311 8430   2.024   6.149   4.421  0.1826  0.5269 -0.7873
   87SLPC  H11X 8431   1.949   6.197   4.487 -1.4073 -1.7089 -0.8626
   87SLPC  H11Y 8432   2.094   6.226   4.383 -0.2502  0.9179 -0.7949
   87SLPC  C312 8433   2.094   6.034   4.490  0.3350  0.3411  0.9790
   87SLPC  H12X 8434   2.142   6.080   4.579  2.1796  1.4569 -0.5048
   87SLPC  H12Y 8435   2.171   5.996   4.419 -3.0539 -0.5120 -2.6231
   87SLPC  C313 8436   2.022   5.908   4.540 -0.8004  0.2461  0.5026
   87SLPC  H13X 8437   2.091   5.860   4.612 -1.2186  1.4094  1.7152
   87SLPC  H13Y 8438   2.011   5.841   4.452 -1.1263 -0.8875  1.3823
   87SLPC  C314 8439   1.886   5.935   4.600 -0.1683  0.0024 -0.2651
   87SLPC  H14X 8440   1.813   5.984   4.532  0.1836 -1.8984 -2.1401
   87SLPC  H14Y 8441   1.898   6.006   4.684  0.4387  0.4686 -0.7416
   87SLPC  C315 8442   1.823   5.801   4.636  0.2198 -0.0030 -0.2548
   87SLPC  H15X 8443   1.850   5.762   4.737 -0.8285 -0.4019 -0.1197
   87SLPC  H15Y 8444   1.847   5.726   4.559 -2.1538  0.1810 -1.2693
   87SLPC  C316 8445   1.667   5.816   4.643 -0.3917  0.7708 -0.2688
   87SLPC  H16X 8446   1.643   5.841   4.538  1.1505 -0.6983 -1.0133
   87SLPC  H16Y 8447   1.639   5.897   4.713 -0.0597 -0.3138  1.1710
   87SLPC  C317 8448   1.581   5.691   4.673  0.0333  0.1547  0.2455
   87SLPC  H17X 8449   1.589   5.679   4.784  0.3224 -2.4090  0.0032
   87SLPC  H17Y 8450   1.624   5.605   4.619 -0.0684  1.3135 -1.7548
   87SLPC  C318 8451   1.439   5.720   4.623  0.0376  0.3472 -0.4113
   87SLPC  H18X 8452   1.405   5.825   4.634 -0.7470  0.0198  0.3556
   87SLPC  H18Y 8453   1.368   5.652   4.676 -0.0409  2.0931  1.8543
   87SLPC  H18Z 8454   1.436   5.717   4.512 -1.6882 -0.2516 -0.3680
   88SLPC     N 8455   4.189   6.453   2.149 -0.7275 -0.6792 -0.5548
   88SLPC   C13 8456   4.133   6.592   2.130 -0.2172  0.5950 -0.3575
   88SLPC  H13A 8457   4.195   6.678   2.114  0.5080  1.1264  4.0303
   88SLPC  H13B 8458   4.056   6.580   2.055 -0.0579 -0.0073 -0.4298
   88SLPC  H13C 8459   4.083   6.616   2.223  1.7400 -0.8929  1.1869
   88SLPC   C14 8460   4.304   6.434   2.052 -0.6635 -0.5677 -0.4675
   88SLPC  H14A 8461   4.362   6.523   2.032 -0.5682 -0.9297 -1.9485
   88SLPC  H14B 8462   4.356   6.341   2.069 -0.9799 -0.8599 -1.0910
   88SLPC  H14C 8463   4.267   6.409   1.954 -0.5997  1.5466 -1.0796
   88SLPC   C15 8464   4.092   6.343   2.128  0.6686 -0.1276  0.0719
   88SLPC  H15A 8465   4.006   6.358   2.192  0.1416  0.6529 -0.8038
   88SLPC  H15B 8466   4.062   6.338   2.024  1.1405 -1.7260 -0.0151
   88SLPC  H15C 8467   4.137   6.247   2.147 -2.3259 -1.5134  0.7708
   88SLPC   C12 8468   4.240   6.432   2.289 -0.5299  0.2269 -0.7410
   88SLPC  H12A 8469   4.321   6.502   2.306  0.0642 -0.2759 -1.4334
   88SLPC  H12B 8470   4.285   6.335   2.301  0.5760  0.7676 -0.2914
   88SLPC   C11 8471   4.140   6.457   2.410  0.2966  0.5338  0.5124
   88SLPC  H11A 8472   4.088   6.554   2.402  0.2459  0.6055  1.5696
   88SLPC  H11B 8473   4.201   6.475   2.502  0.2807  0.8574  0.4591
   88SLPC     P 8474   4.100   6.208   2.483 -0.0092 -0.2858 -0.1732
   88SLPC   O13 8475   3.980   6.125   2.517 -0.2782  0.0479 -0.2237
   88SLPC   O14 8476   4.193   6.157   2.377  0.0332 -0.0740  0.1657
   88SLPC   O12 8477   4.052   6.347   2.429  0.4038 -0.2074 -0.0527
   88SLPC   O11 8478   4.177   6.247   2.607 -0.3806 -0.2474  0.4708
   88SLPC    C1 8479   4.115   6.327   2.707  0.6762  0.3337 -0.1840
   88SLPC    HA 8480   4.184   6.411   2.732  2.1064 -0.2399 -1.9744
   88SLPC    HB 8481   4.018   6.368   2.674  1.3872  0.9716 -1.5412
   88SLPC    C2 8482   4.101   6.246   2.834  0.4864 -0.0957  0.2256
   88SLPC    HS 8483   4.029   6.164   2.815 -1.5716  1.4659  1.0263
   88SLPC   O21 8484   4.055   6.336   2.939  0.2487  0.4943  0.1499
   88SLPC   C21 8485   3.944   6.299   3.002 -0.1934  0.0975 -0.9322
   88SLPC   O22 8486   3.858   6.227   2.957  0.2723  0.5105 -0.0663
   88SLPC   C22 8487   3.934   6.369   3.135  0.4152  0.3450  0.0653
   88SLPC   H2R 8488   4.019   6.441   3.141  1.4349 -0.9006  0.8914
   88SLPC   H2S 8489   3.829   6.406   3.123 -0.3608 -1.1620  1.7914
   88SLPC    C3 8490   4.236   6.181   2.878 -0.3295 -0.3571 -0.1296
   88SLPC    HX 8491   4.322   6.251   2.879 -0.1565 -0.5537 -0.6012
   88SLPC    HY 8492   4.264   6.109   2.798 -0.5209  0.5680 -1.0432
   88SLPC   O31 8493   4.221   6.121   3.014  0.0488  0.3035  0.0777
   88SLPC   C31 8494   4.187   5.988   3.016 -0.7079  0.1292 -0.3652
   88SLPC   O32 8495   4.185   5.915   2.916 -0.0263  0.5936  0.5287
   88SLPC   C32 8496   4.161   5.945   3.161 -0.0880  0.0537  1.0430
   88SLPC   H2X 8497   4.070   5.999   3.194 -1.8441 -0.9966 -1.7431
   88SLPC   H2Y 8498   4.250   5.953   3.227 -1.2184  0.6599  2.5421
   88SLPC   C23 8499   3.925   6.279   3.259  0.0451  0.3277 -0.1765
   88SLPC   H3R 8500   4.028   6.241   3.277  0.9237  1.7388 -1.8795
   88SLPC   H3S 8501   3.872   6.185   3.234  2.0928 -1.2032  0.8794
   88SLPC   C24 8502   3.857   6.344   3.383  0.2325 -0.6324  0.4806
   88SLPC   H4R 8503   3.749   6.339   3.356  0.7506 -1.1723 -1.7812
   88SLPC   H4S 8504   3.882   6.452   3.391 -0.5338 -0.4970  1.1217
   88SLPC   C25 8505   3.896   6.278   3.515 -0.2847  0.3060 -0.2560
   88SLPC   H5R 8506   4.005   6.299   3.526  0.0202 -1.5436  0.6783
   88SLPC   H5S 8507   3.888   6.167   3.510  0.5720  0.2120  0.2118
   88SLPC   C26 8508   3.823   6.325   3.643  0.7024  0.6048 -0.1331
   88SLPC   H6R 8509   3.717   6.350   3.619  0.5436 -0.4658 -0.6008
   88SLPC   H6S 8510   3.875   6.413   3.687  2.7692 -1.8772  2.8279
   88SLPC   C27 8511   3.838   6.228   3.756  0.3424  1.0999 -0.4764
   88SLPC   H7R 8512   3.946   6.202   3.759  0.9402  3.4639  1.9181
   88SLPC   H7S 8513   3.782   6.139   3.719  2.1475 -1.0567  1.6158
   88SLPC   C28 8514   3.783   6.271   3.894 -0.4978  0.4247 -0.9473
   88SLPC   H8R 8515   3.768   6.178   3.953 -0.0528  2.1002  2.0111
   88SLPC   H8S 8516   3.688   6.321   3.867 -0.7469  0.4173 -0.1163
   88SLPC   C29 8517   3.881   6.367   3.964 -0.4391  0.8376  0.4484
   88SLPC   H9R 8518   3.967   6.388   3.899 -1.4631  3.7341 -0.1250
   88SLPC  C210 8519   3.882   6.398   4.094  0.3374 -0.8334 -0.1875
   88SLPC  H10R 8520   3.965   6.459   4.131 -0.7597 -1.2341  3.3114
   88SLPC  C211 8521   3.772   6.382   4.195 -0.2800  0.5290  0.0185
   88SLPC  H11R 8522   3.817   6.359   4.294 -2.0778 -0.1627  0.7149
   88SLPC  H11S 8523   3.694   6.308   4.166 -2.5394  2.2629  1.3984
   88SLPC  C212 8524   3.713   6.519   4.216  0.3317  0.7395 -0.1838
   88SLPC  H12R 8525   3.664   6.547   4.121 -0.4446 -0.6815 -0.2325
   88SLPC  C213 8526   3.738   6.607   4.314  0.3736 -0.0035  0.1340
   88SLPC  H13R 8527   3.677   6.698   4.314 -3.9025 -2.5242 -2.5454
   88SLPC  C214 8528   3.816   6.589   4.435 -0.3257  0.3461  0.8016
   88SLPC  H14R 8529   3.903   6.525   4.407 -0.4941  0.3589  0.2295
   88SLPC  H14S 8530   3.760   6.535   4.515 -1.8417  1.1500  0.3081
   88SLPC  C215 8531   3.892   6.722   4.475  0.5896  0.5327  0.1834
   88SLPC  H15R 8532   3.945   6.693   4.568  1.2974 -0.5713 -0.5484
   88SLPC  H15S 8533   3.825   6.804   4.507 -0.7997 -0.1806 -0.7858
   88SLPC  C216 8534   3.985   6.779   4.367 -0.7164 -0.7371 -0.6340
   88SLPC  H16R 8535   3.938   6.794   4.267  3.2254  0.2703 -2.5452
   88SLPC  H16S 8536   4.072   6.712   4.352  0.2734  0.1285  1.0222
   88SLPC  C217 8537   4.034   6.925   4.401  0.3179 -0.4497 -0.6610
   88SLPC  H17R 8538   4.091   6.919   4.496  1.0095 -0.8132 -1.0913
   88SLPC  H17S 8539   3.953   6.999   4.418  1.3085  0.2908  1.0380
   88SLPC  C218 8540   4.118   6.978   4.295 -0.1045 -0.1002  0.6746
   88SLPC  H18R 8541   4.213   6.923   4.278 -0.1304  0.0283  0.0999
   88SLPC  H18S 8542   4.150   7.083   4.309 -0.2126  0.3499 -2.0317
   88SLPC  H18T 8543   4.073   6.979   4.193  0.8409  4.0107  0.1053
   88SLPC   C33 8544   4.133   5.793   3.164  0.1691 -0.0323 -0.3330
   88SLPC   H3X 8545   4.213   5.739   3.108 -0.9097 -0.5414 -1.4291
   88SLPC   H3Y 8546   4.034   5.762   3.123 -0.0791  1.6032 -1.0637
   88SLPC   C34 8547   4.125   5.744   3.309 -0.1601 -0.6409 -0.4790
   88SLPC   H4X 8548   4.227   5.751   3.352  0.3010 -1.3255 -1.4204
   88SLPC   H4Y 8549   4.092   5.638   3.299  0.3515 -0.9505  0.8921
   88SLPC   C35 8550   4.022   5.818   3.400 -0.0796  0.9052 -0.3601
   88SLPC   H5X 8551   3.917   5.807   3.366  0.2660 -1.2478 -0.9066
   88SLPC   H5Y 8552   4.043   5.926   3.406 -1.5928  1.1491  3.1932
   88SLPC   C36 8553   4.019   5.772   3.552  0.4755  0.3615 -0.8543
   88SLPC   H6X 8554   4.127   5.765   3.578  0.7684  0.7050 -1.9599
   88SLPC   H6Y 8555   3.965   5.675   3.558  1.1451 -0.0913 -1.9230
   88SLPC   C37 8556   3.946   5.879   3.645  0.7907 -0.4759 -0.4565
   88SLPC   H7X 8557   3.881   5.942   3.582  0.5932 -1.8149 -1.6452
   88SLPC   H7Y 8558   4.032   5.936   3.686  0.7494 -0.0193 -0.9988
   88SLPC   C38 8559   3.872   5.830   3.772 -0.1983  0.1415 -0.1011
   88SLPC   H8X 8560   3.779   5.776   3.743 -0.0866  0.2797 -0.7363
   88SLPC   H8Y 8561   3.829   5.922   3.817 -2.0365 -0.1217 -1.2013
   88SLPC   C39 8562   3.955   5.756   3.872 -1.1819 -0.8378 -0.4689
   88SLPC   H9X 8563   4.062   5.786   3.875 -1.7406  1.2714  1.2750
   88SLPC   H9Y 8564   3.970   5.657   3.825 -1.6746 -0.1711 -2.1178
   88SLPC  C310 8565   3.894   5.760   4.008 -0.7633 -0.1433  0.1765
   88SLPC  H10X 8566   3.910   5.663   4.061 -1.2665 -1.2086 -1.5632
   88SLPC  H10Y 8567   3.783   5.765   4.002 -0.7846  2.1568  1.2586
   88SLPC  C311 8568   3.950   5.873   4.103 -0.2884  0.2203  0.0533
   88SLPC  H11X 8569   3.936   5.966   4.045  3.0189  1.1657  0.6002
   88SLPC  H11Y 8570   4.060   5.864   4.114 -0.3785 -1.3264 -0.0715
   88SLPC  C312 8571   3.867   5.874   4.228  0.0496  0.9658 -0.9690
   88SLPC  H12X 8572   3.886   5.770   4.263 -0.6333  1.5437  1.2607
   88SLPC  H12Y 8573   3.759   5.892   4.206 -0.4955 -0.9862 -0.1293
   88SLPC  C313 8574   3.920   5.965   4.340 -0.1952  0.5885  0.8200
   88SLPC  H13X 8575   3.868   6.063   4.334 -0.0189  0.6082 -0.8406
   88SLPC  H13Y 8576   4.027   5.981   4.312 -0.5335  1.0515 -0.2725
   88SLPC  C314 8577   3.910   5.918   4.482  0.1981  0.4089 -0.1794
   88SLPC  H14X 8578   3.815   5.862   4.493  0.5029  0.0545  0.7966
   88SLPC  H14Y 8579   3.906   6.009   4.545  2.6469 -0.3682  1.2415
   88SLPC  C315 8580   4.026   5.835   4.521 -1.0155  0.6658  0.2205
   88SLPC  H15X 8581   4.123   5.887   4.506 -0.8190  0.1768 -0.2247
   88SLPC  H15Y 8582   4.015   5.746   4.455  0.3623  0.0745  0.7513
   88SLPC  C316 8583   4.016   5.798   4.667  0.1634  0.7116 -0.0658
   88SLPC  H16X 8584   3.933   5.731   4.696  0.5076 -0.6064 -1.8994
   88SLPC  H16Y 8585   4.011   5.891   4.726  2.9532 -1.0064  3.2064
   88SLPC  C317 8586   4.144   5.712   4.707  0.2011 -0.1810 -0.0647
   88SLPC  H17X 8587   4.152   5.701   4.817  0.9065 -1.1652 -0.1983
   88SLPC  H17Y 8588   4.227   5.778   4.673  0.3405  0.2390  1.0455
   88SLPC  C318 8589   4.149   5.572   4.646 -0.7374 -0.5085  0.2476
   88SLPC  H18X 8590   4.160   5.581   4.536  2.2095 -0.1783  0.5021
   88SLPC  H18Y 8591   4.057   5.511   4.662 -1.7576  0.8252 -0.3316
   88SLPC  H18Z 8592   4.243   5.523   4.679 -0.1578 -0.9651 -1.9141
   89SAPE     N 8593   5.358   1.318   6.950 -0.1201  0.7569 -0.3841
   89SAPE   HN1 8594   5.271   1.280   6.992  0.6225 -0.2185  0.3213
   89SAPE   HN2 8595   5.407   1.240   6.902 -0.1267 -0.0278  0.8463
   89SAPE   HN3 8596   5.419   1.342   7.031  0.7165 -1.7338 -0.1737
   89SAPE   C12 8597   5.320   1.411   6.837  0.8905 -0.2954 -0.1041
   89SAPE  H12A 8598   5.276   1.500   6.886  0.6889  0.8489 -2.2624
   89SAPE  H12B 8599   5.251   1.354   6.771  0.1208 -0.8828  1.1723
   89SAPE   C11 8600   5.435   1.473   6.759 -0.0954 -0.1248 -0.3819
   89SAPE  H11A 8601   5.392   1.549   6.691  0.1298  0.3551  0.0081
   89SAPE  H11B 8602   5.472   1.388   6.697  0.5250  0.5383 -0.9362
   89SAPE     P 8603   5.668   1.575   6.758 -0.0557  0.2919  0.2723
   89SAPE   O13 8604   5.758   1.671   6.825  0.5852 -0.6397  0.0210
   89SAPE   O14 8605   5.719   1.443   6.717 -0.2575 -0.2182 -0.0740
   89SAPE   O12 8606   5.533   1.539   6.845 -0.4281  0.1897 -0.0166
   89SAPE   O11 8607   5.606   1.641   6.625 -0.5658  0.0378  0.0469
   89SAPE    C1 8608   5.580   1.783   6.619 -0.2916 -0.2393 -0.4964
   89SAPE    HA 8609   5.535   1.823   6.712 -2.0931  1.2841 -1.9491
   89SAPE    HB 8610   5.673   1.844   6.609 -2.7530  3.9955 -0.0182
   89SAPE    C2 8611   5.482   1.820   6.505 -0.4310  0.3746  0.0219
   89SAPE    HS 8612   5.377   1.794   6.531  0.6614 -0.9690  3.6953
   89SAPE   O21 8613   5.529   1.751   6.385 -0.0021  0.0919 -0.8150
   89SAPE   C21 8614   5.454   1.651   6.345  0.3972 -0.4978  0.5216
   89SAPE   O22 8615   5.341   1.628   6.379 -0.3074 -0.2658  0.4928
   89SAPE   C22 8616   5.532   1.567   6.239  0.3505  0.7349 -0.9063
   89SAPE   H2R 8617   5.625   1.545   6.296  0.1792  1.6163 -0.2710
   89SAPE   H2S 8618   5.469   1.476   6.227  0.9893  0.4693 -2.3633
   89SAPE    C3 8619   5.468   1.974   6.487  0.2497 -0.6291 -0.0222
   89SAPE    HX 8620   5.572   2.012   6.478 -0.4121  0.9869 -1.3964
   89SAPE    HY 8621   5.422   2.011   6.581 -1.6524 -1.5106 -0.5583
   89SAPE   O31 8622   5.391   2.014   6.375 -0.6706  0.1911 -0.2755
   89SAPE   C31 8623   5.377   2.140   6.353  0.4295 -0.5939  0.4429
   89SAPE   O32 8624   5.424   2.228   6.421  0.6981  0.1231 -0.9180
   89SAPE   C32 8625   5.321   2.157   6.214  0.4216 -0.1714  0.0966
   89SAPE   H2X 8626   5.329   2.264   6.187 -0.1514 -0.4911 -1.4250
   89SAPE   H2Y 8627   5.213   2.128   6.222  0.3975 -0.6446 -1.5896
   89SAPE   C23 8628   5.558   1.639   6.104 -0.0938  0.7463 -0.3078
   89SAPE   H3R 8629   5.615   1.734   6.107  0.0184  0.7852 -2.2953
   89SAPE   H3S 8630   5.459   1.659   6.056 -0.3227  0.6018  0.1060
   89SAPE   C24 8631   5.658   1.563   6.019  0.4174 -0.0485  0.0884
   89SAPE   H4R 8632   5.750   1.543   6.078  0.9001  0.6991 -0.3925
   89SAPE   H4S 8633   5.680   1.623   5.928 -0.0918 -1.2693 -0.8693
   89SAPE   C25 8634   5.593   1.431   5.982  0.0498 -0.0430 -0.2092
   89SAPE   H5R 8635   5.548   1.373   6.063  0.3550  0.8850  0.6417
   89SAPE   C26 8636   5.587   1.370   5.866 -0.0736 -0.8212  0.2046
   89SAPE   H6R 8637   5.538   1.272   5.863 -0.0339 -0.8170 -0.9713
   89SAPE   C27 8638   5.627   1.426   5.730  0.3132  0.0418 -0.6151
   89SAPE   H7R 8639   5.688   1.518   5.741 -0.3488  0.4137  0.0144
   89SAPE   H7S 8640   5.534   1.462   5.681 -1.3739 -2.3675  0.6031
   89SAPE   C28 8641   5.702   1.329   5.641  0.3336 -0.5706  0.7490
   89SAPE   H8R 8642   5.701   1.223   5.669 -0.8287 -0.9312 -0.5168
   89SAPE   C29 8643   5.740   1.358   5.511  0.4196 -0.0739 -0.2687
   89SAPE   H9R 8644   5.790   1.277   5.456 -0.8512 -0.2152 -1.2704
   89SAPE  C210 8645   5.726   1.486   5.433  0.0893 -0.2522  0.0795
   89SAPE  H10R 8646   5.832   1.520   5.433  0.4141 -1.2200 -0.0495
   89SAPE  H10S 8647   5.670   1.568   5.483 -0.5162 -1.0678  0.7780
   89SAPE  C211 8648   5.674   1.460   5.295  0.3527 -0.0764 -0.5404
   89SAPE  H11R 8649   5.628   1.362   5.273  1.3230 -0.0180 -3.3266
   89SAPE  C212 8650   5.688   1.546   5.191 -0.4317  1.2121  0.8194
   89SAPE  H12R 8651   5.645   1.514   5.095 -0.7105 -1.4481  1.7288
   89SAPE  C213 8652   5.774   1.673   5.195  0.4296  0.3776 -0.5612
   89SAPE  H13R 8653   5.881   1.652   5.220  0.8162 -0.1334 -2.5182
   89SAPE  H13S 8654   5.727   1.735   5.274 -0.8682  1.7588 -2.3500
   89SAPE  C214 8655   5.756   1.748   5.067 -0.5323 -0.7775 -0.3839
   89SAPE  H14R 8656   5.706   1.693   4.986  0.0689 -1.0922 -0.5475
   89SAPE  C215 8657   5.785   1.883   5.048  0.2510  0.7709  0.2670
   89SAPE  H15R 8658   5.763   1.929   4.951  0.7705 -0.3035 -0.3862
   89SAPE  C216 8659   5.841   1.967   5.161  0.4931 -0.3603 -0.0415
   89SAPE  H16R 8660   5.934   2.009   5.118 -0.5561 -0.2107 -2.2834
   89SAPE  H16S 8661   5.864   1.912   5.255 -2.2031 -2.7172 -0.6293
   89SAPE  C217 8662   5.744   2.082   5.208  0.5485 -0.3519  0.2839
   89SAPE  H17R 8663   5.800   2.135   5.288  1.9369  1.5372 -1.7901
   89SAPE  H17S 8664   5.649   2.036   5.242 -0.6487  1.6527 -0.1607
   89SAPE  C218 8665   5.694   2.189   5.109  0.0645 -0.1209 -1.0117
   89SAPE  H18R 8666   5.629   2.255   5.170  2.6492  0.6213  1.1933
   89SAPE  H18S 8667   5.634   2.148   5.025 -0.7095  2.2178 -1.6540
   89SAPE  C219 8668   5.802   2.282   5.063  0.1609  1.0289 -0.2546
   89SAPE  H19R 8669   5.865   2.229   4.989 -2.6191 -0.4485 -1.7119
   89SAPE  H19S 8670   5.869   2.299   5.151  0.2040 -0.2560 -0.0167
   89SAPE  C220 8671   5.753   2.416   5.017  0.7498 -0.1305  1.0544
   89SAPE  H20R 8672   5.698   2.403   4.921  2.2960  1.9879 -0.1918
   89SAPE  H20S 8673   5.846   2.473   4.999  1.6484 -1.8526  0.0441
   89SAPE  H20T 8674   5.689   2.480   5.082 -0.1098  0.2463 -0.1225
   89SAPE   C33 8675   5.391   2.068   6.109  0.0043  0.3475 -0.4162
   89SAPE   H3X 8676   5.386   1.960   6.135 -0.5436  0.6547  0.8120
   89SAPE   H3Y 8677   5.500   2.089   6.113  0.0496  0.0272  0.3176
   89SAPE   C34 8678   5.338   2.069   5.970 -0.1475  0.6723  0.5821
   89SAPE   H4X 8679   5.328   2.176   5.944 -0.3512  0.6884  0.7215
   89SAPE   H4Y 8680   5.232   2.038   5.977 -0.2406  1.3672  3.4046
   89SAPE   C35 8681   5.431   1.990   5.884 -0.1368  0.1792 -0.3158
   89SAPE   H5X 8682   5.439   1.887   5.927  1.8568 -0.1035 -1.2611
   89SAPE   H5Y 8683   5.532   2.036   5.886 -0.0849  0.0716 -0.4735
   89SAPE   C36 8684   5.379   1.980   5.739  0.2327  0.8483 -0.1299
   89SAPE   H6X 8685   5.378   2.084   5.699  0.9477 -0.0107 -2.6088
   89SAPE   H6Y 8686   5.272   1.951   5.734  0.1827  0.9965  0.0714
   89SAPE   C37 8687   5.468   1.901   5.641 -0.7156  0.3367  0.0143
   89SAPE   H7X 8688   5.458   1.795   5.674 -1.6051  0.5239  0.3899
   89SAPE   H7Y 8689   5.573   1.931   5.658 -1.0323  1.8185 -0.5391
   89SAPE   C38 8690   5.413   1.924   5.500 -0.5924  0.4793 -0.2149
   89SAPE   H8X 8691   5.460   2.016   5.459  0.9377 -0.7539 -1.3495
   89SAPE   H8Y 8692   5.304   1.942   5.507 -0.4861  0.5040  2.2378
   89SAPE   C39 8693   5.454   1.806   5.407  0.2711 -0.3435 -0.0203
   89SAPE   H9X 8694   5.411   1.706   5.433  1.0697 -1.1704 -1.7260
   89SAPE   H9Y 8695   5.563   1.792   5.421  0.3574  1.1587  0.9991
   89SAPE  C310 8696   5.427   1.843   5.256 -0.1760 -0.2153 -0.4582
   89SAPE  H10X 8697   5.479   1.769   5.192 -0.8873  0.0157 -1.3313
   89SAPE  H10Y 8698   5.458   1.946   5.228  1.8049 -0.9115 -0.9193
   89SAPE  C311 8699   5.275   1.830   5.212  0.5563 -0.5691  0.6495
   89SAPE  H11X 8700   5.218   1.880   5.294 -1.3423  1.4815 -1.7520
   89SAPE  H11Y 8701   5.236   1.727   5.198  2.7389 -1.2255 -1.1186
   89SAPE  C312 8702   5.247   1.914   5.087  0.7196 -0.0509  0.0985
   89SAPE  H12X 8703   5.284   2.019   5.087  0.5435  0.0219 -0.9855
   89SAPE  H12Y 8704   5.139   1.934   5.104  0.9200  0.9862  0.2117
   89SAPE  C313 8705   5.288   1.847   4.960  0.1640  0.8097  0.0274
   89SAPE  H13X 8706   5.214   1.766   4.942  1.8967 -0.8317  0.0773
   89SAPE  H13Y 8707   5.386   1.796   4.961  0.0125  0.5131 -0.1383
   89SAPE  C314 8708   5.278   1.941   4.831 -1.1309 -0.0818 -0.2178
   89SAPE  H14X 8709   5.380   1.985   4.830 -1.8294  1.6041 -0.5788
   89SAPE  H14Y 8710   5.200   2.020   4.829  1.1100  2.2709 -0.5418
   89SAPE  C315 8711   5.285   1.865   4.703  0.1451  0.1651  0.5019
   89SAPE  H15X 8712   5.193   1.802   4.705  1.7302 -2.2780  1.4403
   89SAPE  H15Y 8713   5.368   1.792   4.691  1.0709  1.5309 -2.1382
   89SAPE  C316 8714   5.266   1.954   4.579 -0.3401  0.3932 -0.5129
   89SAPE  H16X 8715   5.325   2.047   4.592 -0.0385  0.0921  0.3568
   89SAPE  H16Y 8716   5.164   1.998   4.584 -0.5064  0.0296 -0.6627
   89SAPE  C317 8717   5.309   1.878   4.458 -0.3306  0.3412  0.6891
   89SAPE  H17X 8718   5.398   1.813   4.472 -1.5919 -1.4550  0.7384
   89SAPE  H17Y 8719   5.333   1.961   4.388 -0.8110  0.0383  0.1580
   89SAPE  C318 8720   5.205   1.790   4.402  0.3664 -0.2834 -0.1410
   89SAPE  H18X 8721   5.109   1.844   4.416 -0.2281 -1.2476 -0.3761
   89SAPE  H18Y 8722   5.204   1.695   4.461 -0.9133 -0.1707  0.0497
   89SAPE  H18Z 8723   5.219   1.762   4.296  2.0087 -1.8173  0.4346
   90SAPE     N 8724   2.481   5.784   7.220 -0.0029 -0.3511  0.3514
   90SAPE   HN1 8725   2.433   5.821   7.304 -0.1584 -0.1550  0.1785
   90SAPE   HN2 8726   2.486   5.680   7.231  0.0282 -0.6707 -2.1172
   90SAPE   HN3 8727   2.579   5.819   7.215  0.2546 -1.0215  0.5627
   90SAPE   C12 8728   2.399   5.819   7.099  0.1253  0.8333  0.2558
   90SAPE  H12A 8729   2.292   5.802   7.123 -0.9333  2.8704 -2.4853
   90SAPE  H12B 8730   2.435   5.758   7.014 -3.2418  1.0791 -1.5046
   90SAPE   C11 8731   2.416   5.965   7.053 -0.1505  0.5257  0.2657
   90SAPE  H11A 8732   2.361   5.978   6.958  1.3328 -1.9145 -1.0040
   90SAPE  H11B 8733   2.523   5.982   7.025 -0.3783 -0.9820 -1.6694
   90SAPE     P 8734   2.325   6.189   7.146  0.2576  0.3604  0.2617
   90SAPE   O13 8735   2.215   6.194   7.049  0.3363 -0.3545  0.0546
   90SAPE   O14 8736   2.299   6.243   7.283  0.5866 -0.1700 -0.3258
   90SAPE   O12 8737   2.362   6.041   7.157 -0.1292 -0.4429 -0.0695
   90SAPE   O11 8738   2.454   6.252   7.087  0.3868  0.5103 -0.4593
   90SAPE    C1 8739   2.459   6.363   6.997  0.3804 -0.3946  0.2862
   90SAPE    HA 8740   2.372   6.431   7.004  0.0815 -0.8614  1.2324
   90SAPE    HB 8741   2.535   6.439   7.022 -0.4647  0.7124 -0.4481
   90SAPE    C2 8742   2.475   6.311   6.843  0.4996  0.6272 -0.6562
   90SAPE    HS 8743   2.501   6.403   6.787  1.2457  1.7417  1.4036
   90SAPE   O21 8744   2.362   6.237   6.786 -0.2510 -0.7683  0.1976
   90SAPE   C21 8745   2.256   6.307   6.755  0.3421 -0.5761  0.4173
   90SAPE   O22 8746   2.256   6.433   6.751  0.4559  0.4611 -0.1051
   90SAPE   C22 8747   2.127   6.231   6.715 -0.2983 -0.5871  0.0368
   90SAPE   H2R 8748   2.161   6.128   6.695  0.0281 -0.5689  0.4913
   90SAPE   H2S 8749   2.059   6.238   6.803  2.2694 -0.9561  2.1675
   90SAPE    C3 8750   2.589   6.200   6.835  0.4733  0.1026  1.4044
   90SAPE    HX 8751   2.550   6.107   6.882  1.0737 -0.1412  1.4272
   90SAPE    HY 8752   2.666   6.243   6.903  1.1236 -2.1278  2.1645
   90SAPE   O31 8753   2.646   6.182   6.702  0.5766  0.3340 -0.2459
   90SAPE   C31 8754   2.724   6.281   6.651  0.2890  0.1909  0.3604
   90SAPE   O32 8755   2.755   6.380   6.716  0.3373 -0.8785 -0.2144
   90SAPE   C32 8756   2.753   6.267   6.494  0.3718 -0.2649 -0.2765
   90SAPE   H2X 8757   2.810   6.355   6.457 -1.8539  0.8910 -1.1204
   90SAPE   H2Y 8758   2.652   6.266   6.448  0.3040 -2.0205 -0.1832
   90SAPE   C23 8759   2.051   6.291   6.591  0.2286 -0.7841 -0.3149
   90SAPE   H3R 8760   2.112   6.249   6.508  1.4979 -4.3065  2.1467
   90SAPE   H3S 8761   2.064   6.402   6.589 -0.5266 -0.6431  1.1984
   90SAPE   C24 8762   1.909   6.244   6.577 -0.6411 -0.2522  0.4054
   90SAPE   H4R 8763   1.851   6.314   6.515 -1.8218 -1.5709 -0.0257
   90SAPE   H4S 8764   1.875   6.255   6.682 -2.0863  0.8969 -0.1498
   90SAPE   C25 8765   1.902   6.106   6.524  0.2002  0.2224  0.2403
   90SAPE   H5R 8766   1.952   6.022   6.575 -2.2547 -1.8085 -0.5463
   90SAPE   C26 8767   1.868   6.081   6.398  0.5742  0.0168  1.3030
   90SAPE   H6R 8768   1.855   5.976   6.366 -2.4780  0.6810 -0.0074
   90SAPE   C27 8769   1.835   6.176   6.281  0.3079 -0.3312 -0.5159
   90SAPE   H7R 8770   1.799   6.272   6.323 -3.7364 -1.9022  0.1569
   90SAPE   H7S 8771   1.740   6.140   6.235  0.7839  2.0208 -3.6929
   90SAPE   C28 8772   1.927   6.198   6.167  0.1514  0.4057  0.4941
   90SAPE   H8R 8773   2.023   6.240   6.201  1.1143 -0.5313 -0.9394
   90SAPE   C29 8774   1.904   6.189   6.032  0.1091 -0.4109 -0.2447
   90SAPE   H9R 8775   1.987   6.218   5.967 -0.3470  2.0524  0.1593
   90SAPE  C210 8776   1.781   6.134   5.959 -0.4595 -0.3396  0.0983
   90SAPE  H10R 8777   1.711   6.217   5.935  1.3397  1.8903  2.0738
   90SAPE  H10S 8778   1.734   6.064   6.032 -1.5756  0.7147  0.4308
   90SAPE  C211 8779   1.815   6.059   5.833  0.6935  0.1342 -0.3403
   90SAPE  H11R 8780   1.873   5.967   5.852  0.2368 -0.0913 -0.0126
   90SAPE  C212 8781   1.785   6.103   5.708 -0.3067  0.1795  0.0970
   90SAPE  H12R 8782   1.813   6.043   5.620 -0.6270  1.5911 -0.9947
   90SAPE  C213 8783   1.714   6.231   5.670  0.0791 -0.2222 -0.0341
   90SAPE  H13R 8784   1.674   6.285   5.759  1.0270 -2.5420  1.9028
   90SAPE  H13S 8785   1.627   6.207   5.606  0.7929  0.5774 -1.3489
   90SAPE  C214 8786   1.812   6.320   5.591 -0.0664 -0.2025  0.7043
   90SAPE  H14R 8787   1.852   6.405   5.648  1.2455 -0.5048  0.2776
   90SAPE  C215 8788   1.864   6.287   5.471  0.1484  0.3398  0.5337
   90SAPE  H15R 8789   1.910   6.368   5.413  0.0359  0.5403  0.7234
   90SAPE  C216 8790   1.845   6.159   5.389 -0.3369 -0.3335 -0.0852
   90SAPE  H16R 8791   1.759   6.101   5.428 -0.6826 -1.1491 -1.9360
   90SAPE  H16S 8792   1.935   6.096   5.408 -0.4423  0.0410  1.9095
   90SAPE  C217 8793   1.820   6.179   5.231 -0.2146  0.7327  0.5982
   90SAPE  H17R 8794   1.824   6.076   5.190  0.9513  1.1846 -0.4784
   90SAPE  H17S 8795   1.905   6.233   5.184  0.8575 -3.2851 -2.6720
   90SAPE  C218 8796   1.689   6.240   5.187  0.1699 -0.0261  0.0041
   90SAPE  H18R 8797   1.679   6.344   5.223 -0.4067  0.0343 -0.3270
   90SAPE  H18S 8798   1.605   6.182   5.230  2.2196 -3.2140  0.1085
   90SAPE  C219 8799   1.672   6.222   5.029 -0.3150  0.5014 -0.2530
   90SAPE  H19R 8800   1.694   6.122   4.985 -0.7947  0.9203 -1.5055
   90SAPE  H19S 8801   1.743   6.286   4.973 -0.0638  1.2562  0.9010
   90SAPE  C220 8802   1.527   6.254   4.993 -0.2174 -0.1921  0.3556
   90SAPE  H20R 8803   1.455   6.174   5.022 -1.4024  1.0181  0.8529
   90SAPE  H20S 8804   1.513   6.273   4.884 -0.3122 -0.3671  0.3354
   90SAPE  H20T 8805   1.484   6.339   5.050  0.2330  1.5383 -1.7631
   90SAPE   C33 8806   2.817   6.133   6.458 -0.2325  0.1529 -0.2171
   90SAPE   H3X 8807   2.747   6.053   6.491 -2.0832  2.7628  2.6619
   90SAPE   H3Y 8808   2.904   6.118   6.525 -1.6526 -0.9789  1.4813
   90SAPE   C34 8809   2.865   6.126   6.313  0.3546  0.1412  0.1734
   90SAPE   H4X 8810   2.895   6.022   6.286  1.4329 -0.1208  2.2045
   90SAPE   H4Y 8811   2.960   6.181   6.294 -0.3468  1.5384  0.6048
   90SAPE   C35 8812   2.766   6.177   6.199 -0.5675  0.4109 -0.8491
   90SAPE   H5X 8813   2.724   6.277   6.225  1.9851  0.9716  1.5389
   90SAPE   H5Y 8814   2.676   6.112   6.193 -0.9944  0.9550 -0.4042
   90SAPE   C36 8815   2.827   6.180   6.055 -0.1140  0.0999 -0.2778
   90SAPE   H6X 8816   2.910   6.107   6.041  0.4598  0.1840  2.2061
   90SAPE   H6Y 8817   2.884   6.276   6.056  0.9194 -0.4941  0.9235
   90SAPE   C37 8818   2.717   6.186   5.948  0.0944 -0.4521  0.5070
   90SAPE   H7X 8819   2.670   6.285   5.931  0.1964 -0.4353  0.3171
   90SAPE   H7Y 8820   2.638   6.111   5.970  1.1971 -1.6899  0.3814
   90SAPE   C38 8821   2.777   6.158   5.815  0.1835 -0.1464  0.6297
   90SAPE   H8X 8822   2.809   6.051   5.808 -0.6073 -0.4001  0.8537
   90SAPE   H8Y 8823   2.866   6.221   5.794  0.2715 -0.1788  0.9042
   90SAPE   C39 8824   2.677   6.188   5.703 -0.1665  0.6274 -0.1004
   90SAPE   H9X 8825   2.664   6.297   5.720  1.6831  0.8145  0.2894
   90SAPE   H9Y 8826   2.577   6.142   5.717 -0.7835  1.8738 -0.2038
   90SAPE  C310 8827   2.736   6.180   5.562 -0.4633  0.1409 -0.1836
   90SAPE  H10X 8828   2.655   6.201   5.490 -0.8277  0.7878  0.4068
   90SAPE  H10Y 8829   2.777   6.081   5.530  1.9086  1.2671 -0.8822
   90SAPE  C311 8830   2.849   6.277   5.536  0.6046  0.3235  0.7282
   90SAPE  H11X 8831   2.944   6.244   5.584  0.5014 -0.2209  0.5642
   90SAPE  H11Y 8832   2.822   6.377   5.577 -0.0960 -0.4351  2.1520
   90SAPE  C312 8833   2.879   6.299   5.381  0.2822 -0.4202 -0.1861
   90SAPE  H12X 8834   2.949   6.383   5.362 -0.4970 -0.0121 -1.3898
   90SAPE  H12Y 8835   2.788   6.339   5.331  0.2379 -1.6698 -1.1467
   90SAPE  C313 8836   2.920   6.170   5.313  0.5805  0.3812  0.3561
   90SAPE  H13X 8837   2.856   6.087   5.349  2.3250 -0.5348  1.4819
   90SAPE  H13Y 8838   3.026   6.143   5.332 -0.0380 -2.5528  0.1091
   90SAPE  C314 8839   2.903   6.193   5.158 -0.0606 -0.5109 -0.0533
   90SAPE  H14X 8840   2.997   6.233   5.114 -0.6599  0.2936 -0.6184
   90SAPE  H14Y 8841   2.818   6.257   5.126 -0.0760 -0.4307  0.1496
   90SAPE  C315 8842   2.865   6.063   5.087 -0.5301  0.4002  0.2165
   90SAPE  H15X 8843   2.782   6.013   5.141 -0.9724  1.4894  0.5673
   90SAPE  H15Y 8844   2.955   5.998   5.101 -0.5221  0.5534  0.9271
   90SAPE  C316 8845   2.853   6.065   4.931 -0.1060  0.2030  0.4709
   90SAPE  H16X 8846   2.951   6.050   4.880 -1.9440  1.0088 -3.7199
   90SAPE  H16Y 8847   2.816   6.167   4.904 -0.8323  0.3412  1.9124
   90SAPE  C317 8848   2.768   5.944   4.875 -0.4263  0.7582 -0.4167
   90SAPE  H17X 8849   2.666   5.968   4.913  0.2671  1.8997  0.8474
   90SAPE  H17Y 8850   2.799   5.850   4.926 -1.7057  0.7398  0.3711
   90SAPE  C318 8851   2.776   5.942   4.727 -0.3724  0.6189  0.3780
   90SAPE  H18X 8852   2.876   5.915   4.688  0.0806  2.8158 -0.1500
   90SAPE  H18Y 8853   2.745   6.039   4.682 -1.8005 -0.6087 -1.4320
   90SAPE  H18Z 8854   2.710   5.861   4.691  0.7822  0.3703 -1.2722
   91SAPE     N 8855   5.918   2.170   7.158  0.8253  0.1502  0.5147
   91SAPE   HN1 8856   5.823   2.135   7.184 -1.9244  3.6065 -3.5133
   91SAPE   HN2 8857   5.991   2.149   7.229 -1.4335 -0.3471  2.8558
   91SAPE   HN3 8858   5.913   2.274   7.163 -0.2981  0.1668 -0.4857
   91SAPE   C12 8859   5.971   2.127   7.020  0.8702 -0.4941  0.2208
   91SAPE  H12A 8860   5.903   2.178   6.950  2.8621  0.8045 -0.8656
   91SAPE  H12B 8861   5.956   2.018   7.002 -2.2099  0.1701 -1.9629
   91SAPE   C11 8862   6.111   2.169   6.999 -0.9238 -0.4793 -0.4281
   91SAPE  H11A 8863   6.129   2.278   7.014 -1.0007 -0.7495  2.0416
   91SAPE  H11B 8864   6.164   2.146   6.904  1.6046  0.0226  0.7596
   91SAPE     P 8865   6.253   1.964   7.099 -0.2188  0.3746  0.1072
   91SAPE   O13 8866   6.364   1.955   7.199 -0.0230  0.3215 -0.3883
   91SAPE   O14 8867   6.149   1.863   7.105 -0.0902 -0.1848 -0.0955
   91SAPE   O12 8868   6.190   2.112   7.106  0.0764  0.8102 -0.4927
   91SAPE   O11 8869   6.316   1.953   6.951  0.2320  0.7300  0.8468
   91SAPE    C1 8870   6.430   2.025   6.910 -0.0940  0.0924 -0.5238
   91SAPE    HA 8871   6.392   2.118   6.864  0.1744 -0.0081 -0.9490
   91SAPE    HB 8872   6.493   2.061   6.994 -0.9973  2.1165 -0.6621
   91SAPE    C2 8873   6.518   1.951   6.811  0.7822  0.3445  0.2351
   91SAPE    HS 8874   6.596   2.024   6.780  2.3224 -1.3543 -0.0816
   91SAPE   O21 8875   6.439   1.904   6.700 -0.3316  0.0583  0.4743
   91SAPE   C21 8876   6.399   2.000   6.623  0.0955 -0.1345  1.1557
   91SAPE   O22 8877   6.432   2.116   6.626 -0.2436 -0.1275 -0.1907
   91SAPE   C22 8878   6.306   1.947   6.511 -0.1794 -0.1207  0.3661
   91SAPE   H2R 8879   6.316   1.837   6.506 -1.2306 -0.1634 -2.2092
   91SAPE   H2S 8880   6.200   1.972   6.530 -1.1514 -2.5111 -1.4788
   91SAPE    C3 8881   6.598   1.842   6.875  0.1311  0.1940  0.4487
   91SAPE    HX 8882   6.534   1.751   6.877  0.6318 -0.2160 -0.9167
   91SAPE    HY 8883   6.627   1.877   6.976  0.3461  1.3213  0.0060
   91SAPE   O31 8884   6.715   1.808   6.789 -0.0683 -0.8172 -0.2711
   91SAPE   C31 8885   6.712   1.707   6.710 -0.6939  0.1013  0.4425
   91SAPE   O32 8886   6.622   1.626   6.690  0.1326 -0.1721  0.1300
   91SAPE   C32 8887   6.844   1.687   6.634 -0.8435  0.3100 -0.1982
   91SAPE   H2X 8888   6.917   1.711   6.715 -0.6562  0.0866 -0.2995
   91SAPE   H2Y 8889   6.864   1.766   6.558 -2.3778  1.1722  0.2539
   91SAPE   C23 8890   6.344   2.010   6.368  0.1229  0.6826 -0.0476
   91SAPE   H3R 8891   6.340   2.120   6.379  0.4416  0.7039 -0.1463
   91SAPE   H3S 8892   6.256   1.988   6.303 -1.2873  3.8337  0.6034
   91SAPE   C24 8893   6.484   1.979   6.313  0.1082  0.1116  0.0788
   91SAPE   H4R 8894   6.561   1.997   6.391 -0.1077 -0.0548  0.3283
   91SAPE   H4S 8895   6.493   2.053   6.230 -0.0248 -0.5110 -0.5045
   91SAPE   C25 8896   6.495   1.834   6.262  0.5350 -0.2428 -0.9486
   91SAPE   H5R 8897   6.457   1.755   6.329  1.2172  0.2886  0.1000
   91SAPE   C26 8898   6.534   1.799   6.139  0.4943 -0.0166 -0.0455
   91SAPE   H6R 8899   6.540   1.692   6.117 -0.6733 -0.0517 -0.2519
   91SAPE   C27 8900   6.590   1.886   6.026  0.4305  0.7071  0.9588
   91SAPE   H7R 8901   6.674   1.833   5.976  0.8780  0.5829  1.8291
   91SAPE   H7S 8902   6.615   1.984   6.072  0.1425  0.4172  1.7339
   91SAPE   C28 8903   6.480   1.930   5.934  0.1999 -0.6142 -0.1668
   91SAPE   H8R 8904   6.382   1.944   5.981  0.1135 -1.8290  0.0451
   91SAPE   C29 8905   6.489   1.950   5.806  0.0512  0.1769  0.0199
   91SAPE   H9R 8906   6.400   1.958   5.743  1.0008  0.2551 -1.3650
   91SAPE  C210 8907   6.624   1.942   5.734  0.5521  0.6548 -0.1870
   91SAPE  H10R 8908   6.640   1.833   5.719 -0.2539  0.6521 -1.1066
   91SAPE  H10S 8909   6.702   1.986   5.799  0.4718  1.6344 -0.7380
   91SAPE  C211 8910   6.621   2.015   5.609  0.0486  0.1687  0.3271
   91SAPE  H11R 8911   6.597   2.121   5.623 -0.7017 -0.0796  0.9747
   91SAPE  C212 8912   6.646   1.975   5.481  0.0357  0.1281  0.1532
   91SAPE  H12R 8913   6.632   2.051   5.402 -1.9451  1.3747  1.5972
   91SAPE  C213 8914   6.675   1.833   5.431  0.3508 -0.2607  0.3738
   91SAPE  H13R 8915   6.637   1.742   5.482 -2.1963  0.1780 -0.5948
   91SAPE  H13S 8916   6.784   1.812   5.426  0.7616  1.3659  1.8398
   91SAPE  C214 8917   6.626   1.827   5.290 -0.3882  0.0033  0.3573
   91SAPE  H14R 8918   6.697   1.868   5.217 -0.5683  1.4763  0.9874
   91SAPE  C215 8919   6.494   1.802   5.253 -0.3998 -0.3878  0.1864
   91SAPE  H15R 8920   6.475   1.796   5.145 -0.6590 -0.2344  0.2248
   91SAPE  C216 8921   6.380   1.781   5.346 -0.0417  0.3570  0.1390
   91SAPE  H16R 8922   6.296   1.842   5.307  0.7417  0.4243 -1.5204
   91SAPE  H16S 8923   6.403   1.817   5.449  1.9553  0.2222 -0.2085
   91SAPE  C217 8924   6.342   1.627   5.347  0.5020  0.4629  0.6822
   91SAPE  H17R 8925   6.272   1.632   5.433  2.1072  1.3160  1.9878
   91SAPE  H17S 8926   6.424   1.557   5.375  1.0883  0.9769  0.2783
   91SAPE  C218 8927   6.266   1.587   5.224 -0.5937 -0.1552  0.0153
   91SAPE  H18R 8928   6.334   1.609   5.139  1.1579 -0.5698  1.2394
   91SAPE  H18S 8929   6.166   1.636   5.215  0.6711  2.8023  0.8544
   91SAPE  C219 8930   6.241   1.431   5.210 -0.9097  0.2211 -0.4696
   91SAPE  H19R 8931   6.337   1.376   5.226 -0.9536 -0.0719 -1.1931
   91SAPE  H19S 8932   6.204   1.423   5.106 -1.4596  1.8051 -0.4213
   91SAPE  C220 8933   6.143   1.369   5.305  0.7744  0.6353 -0.0218
   91SAPE  H20R 8934   6.199   1.367   5.401 -1.5541 -1.1244  1.4185
   91SAPE  H20S 8935   6.121   1.265   5.273  2.2103  0.7073 -1.3750
   91SAPE  H20T 8936   6.053   1.432   5.322 -0.1004 -0.6456  0.2575
   91SAPE   C33 8937   6.857   1.547   6.565  0.6385  0.1618 -0.4307
   91SAPE   H3X 8938   6.780   1.543   6.485  1.0211  1.0352 -0.8518
   91SAPE   H3Y 8939   6.855   1.468   6.644 -1.1298 -0.0919 -0.6887
   91SAPE   C34 8940   6.998   1.528   6.504 -0.1935  0.3951 -0.4680
   91SAPE   H4X 8941   7.020   1.422   6.482  2.3910  1.3482 -3.0760
   91SAPE   H4Y 8942   7.083   1.568   6.563  0.2826 -2.1722  0.6895
   91SAPE   C35 8943   7.014   1.586   6.358 -0.2228  0.4066 -0.1535
   91SAPE   H5X 8944   7.055   1.689   6.358  0.4702  0.1380 -0.3071
   91SAPE   H5Y 8945   6.921   1.578   6.297 -0.6712  0.7158  0.4783
   91SAPE   C36 8946   7.113   1.511   6.279 -0.4652 -0.0660 -0.5514
   91SAPE   H6X 8947   7.091   1.402   6.290 -0.3549  0.0871  1.5271
   91SAPE   H6Y 8948   7.213   1.527   6.324 -1.4676  1.3235  1.3147
   91SAPE   C37 8949   7.098   1.543   6.129  0.4282 -0.1677 -0.0291
   91SAPE   H7X 8950   7.113   1.653   6.117 -1.1814 -0.0651 -1.3883
   91SAPE   H7Y 8951   6.992   1.521   6.106  0.6111  0.0597 -1.1333
   91SAPE   C38 8952   7.191   1.471   6.042 -0.2874 -0.0820 -0.2700
   91SAPE   H8X 8953   7.160   1.480   5.936  3.0657 -3.5292 -1.7734
   91SAPE   H8Y 8954   7.205   1.365   6.069  0.6586  0.1161  0.0831
   91SAPE   C39 8955   7.330   1.533   6.039  0.1541 -0.2799 -0.0875
   91SAPE   H9X 8956   7.371   1.553   6.140 -0.2592  1.9173 -0.3032
   91SAPE   H9Y 8957   7.321   1.635   5.995 -2.5490  0.1761  1.2898
   91SAPE  C310 8958   7.440   1.455   5.957 -0.4935 -0.3896 -0.3949
   91SAPE  H10X 8959   7.459   1.354   5.999  0.1390  0.1216  0.5692
   91SAPE  H10Y 8960   7.539   1.501   5.975 -1.7246  1.8267  1.2006
   91SAPE  C311 8961   7.421   1.451   5.811 -0.6740 -0.4771 -0.0660
   91SAPE  H11X 8962   7.406   1.555   5.775  2.5403  0.8759  2.0589
   91SAPE  H11Y 8963   7.328   1.396   5.787 -2.0898  1.3219  1.0145
   91SAPE  C312 8964   7.541   1.388   5.729  0.2064  0.5029 -0.4181
   91SAPE  H12X 8965   7.547   1.284   5.767  1.7820  1.3110  1.7366
   91SAPE  H12Y 8966   7.635   1.442   5.754  0.1559  0.6208 -0.4808
   91SAPE  C313 8967   7.527   1.383   5.573  0.0104  0.3655  0.5928
   91SAPE  H13X 8968   7.509   1.487   5.538  0.3680  1.2405  2.8504
   91SAPE  H13Y 8969   7.436   1.324   5.548  0.3943  1.0125 -2.7695
   91SAPE  C314 8970   7.651   1.317   5.513 -0.2349 -0.1325 -0.1587
   91SAPE  H14X 8971   7.667   1.216   5.558 -0.1763 -0.0499  0.0081
   91SAPE  H14Y 8972   7.722   1.397   5.544 -1.4623  1.1795 -0.6614
   91SAPE  C315 8973   7.654   1.328   5.365  0.8235  0.0818  0.2969
   91SAPE  H15X 8974   7.641   1.435   5.341 -1.1965 -0.8745 -3.7379
   91SAPE  H15Y 8975   7.561   1.277   5.331  0.9067 -0.7378  1.2159
   91SAPE  C316 8976   7.784   1.279   5.306  0.2456  0.2887 -0.2794
   91SAPE  H16X 8977   7.793   1.175   5.343  0.5156  0.3148 -0.2654
   91SAPE  H16Y 8978   7.857   1.345   5.359 -1.7678  2.2817  0.1830
   91SAPE  C317 8979   7.786   1.296   5.153  0.2372  0.1037 -0.0544
   91SAPE  H17X 8980   7.783   1.405   5.135  0.5727  0.1372  0.0877
   91SAPE  H17Y 8981   7.693   1.255   5.108 -1.2131  2.2441  0.8504
   91SAPE  C318 8982   7.911   1.242   5.088  0.2767 -0.1604 -0.7472
   91SAPE  H18X 8983   7.894   1.245   4.978 -1.2930  0.2449 -0.5284
   91SAPE  H18Y 8984   7.924   1.134   5.108  1.0066  0.0309 -0.1484
   91SAPE  H18Z 8985   8.001   1.290   5.131 -0.2052 -0.3245  0.4651
   92SAPE     N 8986   1.179   2.458   7.322  0.0111 -0.6379 -0.6851
   92SAPE   HN1 8987   1.088   2.491   7.361 -0.3732  0.2526 -2.2347
   92SAPE   HN2 8988   1.268   2.504   7.349  1.0187 -3.0024  0.3049
   92SAPE   HN3 8989   1.169   2.448   7.219 -1.5820  0.0005 -0.6132
   92SAPE   C12 8990   1.191   2.318   7.355 -0.7123  0.4600  0.3803
   92SAPE  H12A 8991   1.185   2.311   7.466 -1.3808 -0.2043  0.3118
   92SAPE  H12B 8992   1.293   2.285   7.328 -1.6091 -1.4334 -0.8577
   92SAPE   C11 8993   1.081   2.237   7.277 -0.4399  0.2194 -0.7596
   92SAPE  H11A 8994   1.108   2.130   7.291 -0.6266  0.6320  6.0252
   92SAPE  H11B 8995   1.084   2.252   7.167  0.8503  0.4344 -0.7181
   92SAPE     P 8996   0.831   2.208   7.266 -0.0318  0.2366  0.3916
   92SAPE   O13 8997   0.844   2.061   7.263  0.3969 -0.0596  0.0303
   92SAPE   O14 8998   0.719   2.261   7.336  0.2644 -0.4398  0.2203
   92SAPE   O12 8999   0.957   2.264   7.338  0.2940 -0.5599 -0.6402
   92SAPE   O11 9000   0.851   2.276   7.120  0.0701  0.4544  0.6146
   92SAPE    C1 9001   0.809   2.412   7.107 -0.2429 -0.2653  0.1724
   92SAPE    HA 9002   0.712   2.433   7.156  0.6928 -0.5183  2.2175
   92SAPE    HB 9003   0.889   2.478   7.146 -0.3787 -0.3266  0.5584
   92SAPE    C2 9004   0.793   2.444   6.952 -0.0991 -0.5793  0.5353
   92SAPE    HS 9005   0.734   2.538   6.944  1.2894  0.2586 -0.3103
   92SAPE   O21 9006   0.739   2.341   6.869  0.3681  0.5668 -0.3558
   92SAPE   C21 9007   0.613   2.301   6.910 -0.0856 -0.2822  0.4567
   92SAPE   O22 9008   0.548   2.360   6.993  0.2905  0.2673 -0.2996
   92SAPE   C22 9009   0.581   2.170   6.835  0.3890  0.2086 -0.5615
   92SAPE   H2R 9010   0.601   2.186   6.727  3.6989 -0.4628 -0.1529
   92SAPE   H2S 9011   0.656   2.103   6.882 -1.1842 -0.3338  1.3565
   92SAPE    C3 9012   0.938   2.464   6.892  0.0109 -0.0164  0.0999
   92SAPE    HX 9013   0.931   2.453   6.782  0.9434  2.3128 -0.2431
   92SAPE    HY 9014   1.007   2.381   6.920 -0.9925 -2.2742 -3.4896
   92SAPE   O31 9015   0.985   2.599   6.917 -0.0191  0.6684  0.0617
   92SAPE   C31 9016   1.076   2.605   7.017 -0.7469  0.0657  0.6279
   92SAPE   O32 9017   1.126   2.504   7.069  0.0200  0.7312  0.3297
   92SAPE   C32 9018   1.120   2.751   7.038  0.2120 -0.0614 -0.0765
   92SAPE   H2X 9019   1.186   2.765   7.126  1.0507 -0.3738 -0.6386
   92SAPE   H2Y 9020   1.026   2.794   7.078 -1.2285 -2.1744 -0.9622
   92SAPE   C23 9021   0.436   2.108   6.859  0.5979  0.2078 -0.2429
   92SAPE   H3R 9022   0.389   2.163   6.944 -3.0399 -2.8503  0.0406
   92SAPE   H3S 9023   0.443   2.003   6.896 -2.7066  0.1178  0.4775
   92SAPE   C24 9024   0.355   2.127   6.731  0.8527  0.2706 -0.3421
   92SAPE   H4R 9025   0.404   2.098   6.636  1.2954  0.4527 -0.1694
   92SAPE   H4S 9026   0.339   2.236   6.716 -0.8647  0.0439 -0.3629
   92SAPE   C25 9027   0.228   2.055   6.748  0.4383  0.5457  0.1434
   92SAPE   H5R 9028   0.243   1.956   6.795  1.8611  0.2846 -0.8018
   92SAPE   C26 9029   0.105   2.080   6.696 -0.7625 -0.5122  0.3890
   92SAPE   H6R 9030   0.020   2.020   6.729  0.2423 -0.2070  3.9280
   92SAPE   C27 9031   0.082   2.213   6.635  0.0479 -0.7910 -0.5190
   92SAPE   H7R 9032   0.175   2.247   6.584 -1.2526 -1.8785 -3.8788
   92SAPE   H7S 9033   0.056   2.292   6.709 -0.5566 -0.6870 -0.8382
   92SAPE   C28 9034  -0.025   2.208   6.532  0.3211  0.6798  0.3131
   92SAPE   H8R 9035  -0.125   2.212   6.578  1.4264  1.8031  2.8343
   92SAPE   C29 9036  -0.016   2.180   6.398  0.4168  0.8045 -0.4148
   92SAPE   H9R 9037  -0.110   2.186   6.341  0.5450 -0.5746 -0.8001
   92SAPE  C210 9038   0.112   2.157   6.325 -0.3974  0.0968 -0.1478
   92SAPE  H10R 9039   0.189   2.208   6.386  0.5084 -0.1600 -1.0587
   92SAPE  H10S 9040   0.126   2.220   6.235 -0.3339 -1.4722 -1.2840
   92SAPE  C211 9041   0.147   2.011   6.313 -0.5357 -0.2940  0.2299
   92SAPE  H11R 9042   0.162   1.949   6.403  1.0982  1.6659  1.3968
   92SAPE  C212 9043   0.172   1.945   6.198  0.2766 -0.1127  0.2204
   92SAPE  H12R 9044   0.208   1.842   6.213  0.2902 -0.0776  0.4362
   92SAPE  C213 9045   0.190   2.016   6.062  1.0087 -0.5778 -0.3620
   92SAPE  H13R 9046   0.222   2.122   6.066  1.1504 -0.6464  0.4773
   92SAPE  H13S 9047   0.092   2.018   6.010 -0.1099 -0.4997  1.6517
   92SAPE  C214 9048   0.300   1.941   5.995 -0.2669 -0.4060 -0.0241
   92SAPE  H14R 9049   0.398   1.956   6.041 -0.4456  0.7198  0.0276
   92SAPE  C215 9050   0.290   1.865   5.884  0.6932  1.1541  1.0786
   92SAPE  H15R 9051   0.382   1.823   5.843 -0.4778  0.0326 -0.5061
   92SAPE  C216 9052   0.161   1.842   5.801  0.5520 -0.0314 -0.6496
   92SAPE  H16R 9053   0.136   1.931   5.740 -0.1726 -0.4100 -0.9230
   92SAPE  H16S 9054   0.083   1.817   5.876  1.5561  0.0918  0.4681
   92SAPE  C217 9055   0.154   1.731   5.700 -1.0606 -0.3788 -0.7238
   92SAPE  H17R 9056   0.048   1.714   5.671 -0.8375 -0.5840 -1.4290
   92SAPE  H17S 9057   0.179   1.633   5.747 -1.5925 -0.3004 -0.2592
   92SAPE  C218 9058   0.247   1.748   5.578 -0.1267 -0.6128 -0.7887
   92SAPE  H18R 9059   0.349   1.780   5.609 -0.5413 -0.6982  0.7427
   92SAPE  H18S 9060   0.200   1.832   5.523  0.8096  0.0169 -0.6498
   92SAPE  C219 9061   0.246   1.627   5.485 -0.1950  0.2371 -0.2430
   92SAPE  H19R 9062   0.151   1.609   5.431  0.1308 -0.2775 -0.6559
   92SAPE  H19S 9063   0.287   1.537   5.536  2.3893  0.1263 -2.2806
   92SAPE  C220 9064   0.351   1.652   5.374  0.5130  0.0331  0.2157
   92SAPE  H20R 9065   0.373   1.554   5.326  0.0610  0.4423 -0.8523
   92SAPE  H20S 9066   0.452   1.671   5.416  0.2924 -0.3558  0.9448
   92SAPE  H20T 9067   0.318   1.727   5.299  0.0723  2.1923  2.4566
   92SAPE   C33 9068   1.186   2.815   6.911  0.4087  0.0861 -0.2588
   92SAPE   H3X 9069   1.218   2.731   6.845  1.3709  1.3600 -1.4609
   92SAPE   H3Y 9070   1.278   2.876   6.924  0.4700 -0.3899  2.1382
   92SAPE   C34 9071   1.070   2.903   6.843 -0.1709 -0.5979  0.0297
   92SAPE   H4X 9072   1.036   2.975   6.921  1.4161 -1.1796  1.2972
   92SAPE   H4Y 9073   0.982   2.840   6.817  1.2518 -1.5053 -3.0190
   92SAPE   C35 9074   1.133   2.985   6.728 -0.0868  0.4098 -0.2085
   92SAPE   H5X 9075   1.154   2.932   6.633 -0.3610 -0.1539  0.0386
   92SAPE   H5Y 9076   1.225   3.032   6.769  0.1255 -0.7659  0.7284
   92SAPE   C36 9077   1.042   3.104   6.688  0.2022  0.1262 -0.1558
   92SAPE   H6X 9078   0.983   3.123   6.780 -1.9895 -1.0286 -1.2587
   92SAPE   H6Y 9079   0.964   3.082   6.612  1.1065 -1.8761 -0.5581
   92SAPE   C37 9080   1.124   3.235   6.649  1.1924 -0.0911 -0.5668
   92SAPE   H7X 9081   1.191   3.260   6.734 -1.4331  1.5437  1.1436
   92SAPE   H7Y 9082   1.048   3.315   6.641  0.5649 -0.4566  1.1846
   92SAPE   C38 9083   1.189   3.243   6.520  0.8129 -0.2383 -0.6010
   92SAPE   H8X 9084   1.115   3.241   6.436  0.3773  0.6894 -0.2617
   92SAPE   H8Y 9085   1.257   3.156   6.520  2.0725  0.7169 -1.0332
   92SAPE   C39 9086   1.285   3.365   6.514 -0.2648  0.1362  0.3222
   92SAPE   H9X 9087   1.371   3.349   6.582  1.9595 -0.1244 -2.3808
   92SAPE   H9Y 9088   1.237   3.462   6.537  1.3515  0.8940  0.6505
   92SAPE  C310 9089   1.335   3.377   6.363  0.8720  0.3936  0.2615
   92SAPE  H10X 9090   1.381   3.282   6.328 -1.5668 -0.2221 -1.6088
   92SAPE  H10Y 9091   1.416   3.451   6.370 -0.6034  2.0444  0.6135
   92SAPE  C311 9092   1.231   3.452   6.278  0.3643  0.5559  0.0534
   92SAPE  H11X 9093   1.197   3.545   6.328  0.0019  1.6026 -2.0346
   92SAPE  H11Y 9094   1.144   3.389   6.252  1.0834 -0.5889  0.3502
   92SAPE  C312 9095   1.293   3.497   6.142 -0.3181  0.5115 -0.4413
   92SAPE  H12X 9096   1.393   3.541   6.161 -0.9253  1.3102  1.0473
   92SAPE  H12Y 9097   1.233   3.580   6.098 -1.1194 -0.6939 -1.6819
   92SAPE  C313 9098   1.291   3.392   6.027 -0.3321 -0.1630  0.1161
   92SAPE  H13X 9099   1.193   3.339   6.034  0.3696 -1.5476 -0.1778
   92SAPE  H13Y 9100   1.369   3.316   6.048  0.9732  1.1991  0.3408
   92SAPE  C314 9101   1.311   3.443   5.881  0.0787 -0.9175 -1.0367
   92SAPE  H14X 9102   1.401   3.507   5.887 -1.4526  1.2496 -0.0033
   92SAPE  H14Y 9103   1.228   3.515   5.868 -1.3128 -2.3185 -0.2884
   92SAPE  C315 9104   1.319   3.331   5.785 -0.2645 -0.3609 -0.3763
   92SAPE  H15X 9105   1.224   3.275   5.769  0.1605 -0.5512 -2.5796
   92SAPE  H15Y 9106   1.389   3.248   5.810  2.0376  0.5961 -3.0535
   92SAPE  C316 9107   1.358   3.371   5.642  0.3639  0.1748 -0.5838
   92SAPE  H16X 9108   1.427   3.458   5.640 -0.6171  0.9905 -3.4365
   92SAPE  H16Y 9109   1.259   3.389   5.595 -1.3668 -1.4045  2.1874
   92SAPE  C317 9110   1.436   3.252   5.575  0.4960  0.3206 -1.2912
   92SAPE  H17X 9111   1.354   3.178   5.565  0.4479  0.0739  0.5386
   92SAPE  H17Y 9112   1.518   3.212   5.638  1.2118  4.1361  0.4893
   92SAPE  C318 9113   1.487   3.283   5.442 -0.8235  0.0433  0.3248
   92SAPE  H18X 9114   1.576   3.349   5.440  1.4064 -2.7732  0.7285
   92SAPE  H18Y 9115   1.403   3.337   5.393 -0.4407 -1.1375 -1.7499
   92SAPE  H18Z 9116   1.499   3.186   5.388  0.1993  0.0536  0.5123
   93SAPE     N 9117   2.502   1.595   7.294 -0.3693 -0.0102 -1.4990
   93SAPE   HN1 9118   2.566   1.514   7.285 -2.8345 -2.7172  2.2857
   93SAPE   HN2 9119   2.559   1.671   7.336 -1.2392  0.4382 -1.1079
   93SAPE   HN3 9120   2.428   1.581   7.366  1.9419 -1.1273  0.7854
   93SAPE   C12 9121   2.433   1.627   7.163  0.2815 -0.1357  0.2017
   93SAPE  H12A 9122   2.367   1.713   7.188 -1.0823 -1.5785  1.8785
   93SAPE  H12B 9123   2.370   1.542   7.128  0.9199 -0.8724  0.8000
   93SAPE   C11 9124   2.537   1.656   7.059  0.2783 -0.3544  0.4996
   93SAPE  H11A 9125   2.622   1.720   7.092  1.9768 -0.8692 -2.4513
   93SAPE  H11B 9126   2.499   1.710   6.969  3.1619  0.6865 -0.2053
   93SAPE     P 9127   2.734   1.530   6.938 -0.0255 -0.1122  0.0379
   93SAPE   O13 9128   2.786   1.665   6.930 -0.5476  0.5290 -0.3238
   93SAPE   O14 9129   2.830   1.427   6.992  0.1648 -0.5051 -0.2979
   93SAPE   O12 9130   2.600   1.529   7.021  0.0464 -0.6010  0.1579
   93SAPE   O11 9131   2.692   1.489   6.792  0.4296 -0.4590  0.0471
   93SAPE    C1 9132   2.578   1.408   6.772  0.2325 -0.0766 -0.0147
   93SAPE    HA 9133   2.488   1.453   6.817  0.3856  0.1905  0.0262
   93SAPE    HB 9134   2.560   1.397   6.663 -0.1256 -1.5224  0.1661
   93SAPE    C2 9135   2.596   1.263   6.826  0.1857 -0.2335  0.2488
   93SAPE    HS 9136   2.585   1.255   6.936 -0.5679 -3.2227  0.0416
   93SAPE   O21 9137   2.716   1.203   6.778 -0.4469 -0.5609 -0.5778
   93SAPE   C21 9138   2.760   1.102   6.849  0.7608  0.1407  0.3903
   93SAPE   O22 9139   2.696   1.048   6.938 -0.0110  0.0626 -0.4349
   93SAPE   C22 9140   2.893   1.062   6.795 -0.5925  0.3392  0.3699
   93SAPE   H2R 9141   2.926   1.148   6.733 -1.7912 -1.0592 -2.3537
   93SAPE   H2S 9142   2.962   1.053   6.881 -1.3059 -0.2061  0.9004
   93SAPE    C3 9143   2.477   1.175   6.782  0.8444  0.4860 -0.8567
   93SAPE    HX 9144   2.380   1.228   6.792  0.8407  0.1253  1.5184
   93SAPE    HY 9145   2.477   1.095   6.859 -1.0672  0.5441 -0.7429
   93SAPE   O31 9146   2.484   1.134   6.643  0.0801  0.3137 -0.0112
   93SAPE   C31 9147   2.476   1.008   6.612  0.9613 -0.0694  0.1220
   93SAPE   O32 9148   2.465   0.924   6.694  0.3796 -0.1741 -0.1430
   93SAPE   C32 9149   2.494   0.981   6.460  0.1477  0.1545  0.0296
   93SAPE   H2X 9150   2.587   1.036   6.433  0.0307 -0.2080 -1.2038
   93SAPE   H2Y 9151   2.411   1.019   6.397  0.3265  1.9396  0.8061
   93SAPE   C23 9152   2.867   0.927   6.719  0.4338  0.6749  0.0145
   93SAPE   H3R 9153   2.791   0.933   6.638 -0.4259 -0.5766  0.6898
   93SAPE   H3S 9154   2.847   0.841   6.787  1.3031 -0.3779 -1.0082
   93SAPE   C24 9155   2.993   0.884   6.644 -0.5820  0.3566 -0.2646
   93SAPE   H4R 9156   3.022   0.967   6.576  1.4701  0.1357  0.2821
   93SAPE   H4S 9157   2.981   0.796   6.577 -1.6252  0.7017 -0.5596
   93SAPE   C25 9158   3.105   0.851   6.738  0.2109  0.2143  0.7590
   93SAPE   H5R 9159   3.084   0.866   6.845 -0.2280 -0.5015  0.7768
   93SAPE   C26 9160   3.217   0.782   6.706 -0.3982  0.2574  0.3238
   93SAPE   H6R 9161   3.293   0.763   6.784  0.5381 -1.0441 -0.8704
   93SAPE   C27 9162   3.267   0.758   6.571 -0.3201 -0.4711  0.9844
   93SAPE   H7R 9163   3.202   0.691   6.512 -0.4153 -0.1578  0.7299
   93SAPE   H7S 9164   3.359   0.696   6.575  0.5174  0.6180 -0.4891
   93SAPE   C28 9165   3.308   0.885   6.490 -0.0936 -0.1787 -0.5164
   93SAPE   H8R 9166   3.377   0.955   6.539 -2.7863  1.8052  0.6773
   93SAPE   C29 9167   3.259   0.912   6.370  0.2987  0.3286 -0.0067
   93SAPE   H9R 9168   3.293   1.002   6.317  1.3654 -1.1278 -1.9334
   93SAPE  C210 9169   3.174   0.819   6.293 -0.4354  0.5400 -0.3423
   93SAPE  H10R 9170   3.092   0.870   6.239 -0.1347  0.9359 -0.4237
   93SAPE  H10S 9171   3.116   0.747   6.355  1.8734  0.1014  1.4390
   93SAPE  C211 9172   3.255   0.737   6.196  0.3294 -0.0903  0.5330
   93SAPE  H11R 9173   3.295   0.646   6.242  2.9438  0.3170 -0.7418
   93SAPE  C212 9174   3.271   0.760   6.062 -0.4486  0.6743  0.1445
   93SAPE  H12R 9175   3.334   0.689   6.006 -1.7094  1.6585 -2.6760
   93SAPE  C213 9176   3.208   0.871   5.980  0.1322  0.0706  0.8618
   93SAPE  H13R 9177   3.282   0.953   5.993  1.0885 -0.5636 -0.3085
   93SAPE  H13S 9178   3.113   0.908   6.024  0.5397  0.6406  1.2828
   93SAPE  C214 9179   3.184   0.833   5.836 -0.2480  0.1370 -0.3488
   93SAPE  H14R 9180   3.089   0.783   5.817 -0.3096  0.2743 -0.4016
   93SAPE  C215 9181   3.279   0.831   5.738 -0.0182 -0.3643 -0.1107
   93SAPE  H15R 9182   3.246   0.814   5.635  0.4513 -0.7997 -0.1957
   93SAPE  C216 9183   3.410   0.912   5.745 -0.1040 -0.1327  0.2220
   93SAPE  H16R 9184   3.498   0.844   5.749 -0.0555 -0.0196  1.1895
   93SAPE  H16S 9185   3.418   0.964   5.842  0.9059 -1.7606  1.0667
   93SAPE  C217 9186   3.421   1.018   5.637 -0.4305 -0.1368 -0.7183
   93SAPE  H17R 9187   3.501   1.094   5.653 -0.6543 -0.2364  1.0452
   93SAPE  H17S 9188   3.324   1.073   5.644 -0.1872  0.1863  0.3645
   93SAPE  C218 9189   3.428   0.958   5.496  0.9143 -0.6075 -0.7027
   93SAPE  H18R 9190   3.320   0.936   5.481  0.3029  0.3870  1.7031
   93SAPE  H18S 9191   3.493   0.870   5.478 -0.4186 -1.4203 -1.6909
   93SAPE  C219 9192   3.450   1.065   5.389  0.3802 -0.0258 -0.1424
   93SAPE  H19R 9193   3.549   1.110   5.415  0.8309 -1.4012  0.6046
   93SAPE  H19S 9194   3.365   1.136   5.404 -0.0401 -0.6814  0.6403
   93SAPE  C220 9195   3.454   1.007   5.249 -0.6183  1.0875 -0.2383
   93SAPE  H20R 9196   3.534   0.932   5.229 -1.3314  0.6008 -1.3735
   93SAPE  H20S 9197   3.474   1.080   5.168  0.0970 -0.8116 -1.8547
   93SAPE  H20T 9198   3.358   0.959   5.221  1.1540 -0.9902 -3.3963
   93SAPE   C33 9199   2.524   0.831   6.425  0.0712  0.1095 -0.3850
   93SAPE   H3X 9200   2.430   0.773   6.435 -0.2896  0.8951  1.0004
   93SAPE   H3Y 9201   2.590   0.800   6.509 -0.8936  2.2665  1.2539
   93SAPE   C34 9202   2.601   0.814   6.299  0.0982  0.2973 -0.1351
   93SAPE   H4X 9203   2.632   0.707   6.296 -0.6447  0.0415  0.7695
   93SAPE   H4Y 9204   2.693   0.874   6.315 -1.0641  2.1699 -0.3064
   93SAPE   C35 9205   2.526   0.849   6.169 -0.4532 -0.3080 -0.0094
   93SAPE   H5X 9206   2.514   0.959   6.167  0.7416 -0.1523  0.5352
   93SAPE   H5Y 9207   2.423   0.808   6.164 -1.5359  2.3128 -1.1355
   93SAPE   C36 9208   2.595   0.795   6.046 -0.1976  0.5271 -0.1933
   93SAPE   H6X 9209   2.526   0.790   5.958  0.3601  0.3790 -0.6297
   93SAPE   H6Y 9210   2.629   0.695   6.080 -1.0388  1.3513  3.5070
   93SAPE   C37 9211   2.721   0.872   5.999  0.3184  0.3554 -0.1265
   93SAPE   H7X 9212   2.797   0.860   6.079 -0.2213  2.9700  0.8790
   93SAPE   H7Y 9213   2.704   0.981   6.008  0.0218  0.1812  1.9326
   93SAPE   C38 9214   2.770   0.820   5.860 -0.0402  0.4709  0.0820
   93SAPE   H8X 9215   2.752   0.710   5.856  0.8169  0.3575 -1.8406
   93SAPE   H8Y 9216   2.875   0.855   5.857 -0.1642  1.0198  1.4394
   93SAPE   C39 9217   2.691   0.879   5.741  0.6533  0.4270 -0.3428
   93SAPE   H9X 9218   2.676   0.988   5.760  0.7699  0.2913  0.5448
   93SAPE   H9Y 9219   2.596   0.822   5.741  0.3237  0.9510  0.4935
   93SAPE  C310 9220   2.752   0.851   5.609 -0.6376  0.6404  0.0484
   93SAPE  H10X 9221   2.675   0.878   5.534 -1.2971  1.5693  1.0195
   93SAPE  H10Y 9222   2.772   0.742   5.604 -0.8058  0.6848 -2.5063
   93SAPE  C311 9223   2.890   0.925   5.577  0.1848  0.8961  0.5172
   93SAPE  H11X 9224   2.952   0.931   5.669 -0.7528  0.0795  1.2323
   93SAPE  H11Y 9225   2.867   1.027   5.541 -2.5957 -0.2177 -1.1711
   93SAPE  C312 9226   2.964   0.860   5.459  0.4046 -0.2014 -0.5630
   93SAPE  H12X 9227   2.973   0.750   5.472  1.0909 -0.2180 -1.1233
   93SAPE  H12Y 9228   3.061   0.910   5.442 -0.8120  2.2369 -0.7599
   93SAPE  C313 9229   2.890   0.876   5.327 -0.1063  0.8777 -0.1770
   93SAPE  H13X 9230   2.790   0.829   5.338  0.0748  0.1569 -1.4274
   93SAPE  H13Y 9231   2.944   0.806   5.260  1.0634  0.6144  0.9840
   93SAPE  C314 9232   2.879   1.017   5.278 -0.4733 -0.4721  0.7382
   93SAPE  H14X 9233   2.968   1.080   5.295 -2.0282  2.1775 -0.4158
   93SAPE  H14Y 9234   2.795   1.067   5.331 -1.2507  0.8382 -1.5864
   93SAPE  C315 9235   2.838   1.016   5.123 -0.8326 -0.1904  0.3646
   93SAPE  H15X 9236   2.735   0.974   5.115 -0.8700  0.1109 -1.1967
   93SAPE  H15Y 9237   2.909   0.961   5.056  0.0594  3.1871 -1.7103
   93SAPE  C316 9238   2.824   1.162   5.071  0.1926  0.2888  0.5782
   93SAPE  H16X 9239   2.913   1.227   5.090  0.7125  0.2428 -1.4676
   93SAPE  H16Y 9240   2.738   1.217   5.116 -0.9602  1.0851 -2.3987
   93SAPE  C317 9241   2.808   1.168   4.917  0.0291  0.1709  0.6337
   93SAPE  H17X 9242   2.896   1.110   4.882 -0.2622 -0.2982  0.6565
   93SAPE  H17Y 9243   2.809   1.270   4.875  0.2972 -0.3805 -0.7621
   93SAPE  C318 9244   2.684   1.099   4.858 -0.1294 -0.5787 -0.3612
   93SAPE  H18X 9245   2.587   1.145   4.884 -0.2821 -1.4580  0.6965
   93SAPE  H18Y 9246   2.678   0.998   4.904  1.2845 -0.3631  0.3598
   93SAPE  H18Z 9247   2.691   1.082   4.748  2.8856  1.5598 -0.6193
   94SAPE     N 9248   2.207   3.316   7.543  0.0115 -0.0678 -0.2662
   94SAPE   HN1 9249   2.149   3.234   7.515  0.2076 -1.5881  3.3191
   94SAPE   HN2 9250   2.177   3.350   7.636  1.4243  2.4604 -0.6354
   94SAPE   HN3 9251   2.198   3.398   7.480 -0.8662  0.2993  0.3230
   94SAPE   C12 9252   2.352   3.282   7.539  0.5643 -0.4368 -0.6710
   94SAPE  H12A 9253   2.377   3.207   7.618 -1.1295 -0.5810 -0.2378
   94SAPE  H12B 9254   2.404   3.380   7.547  0.0693 -0.1338 -1.1827
   94SAPE   C11 9255   2.378   3.221   7.399 -0.5057  0.0110  0.0138
   94SAPE  H11A 9256   2.486   3.194   7.396 -0.5209 -0.1929  0.9136
   94SAPE  H11B 9257   2.353   3.297   7.323 -2.0898 -1.6965 -1.2569
   94SAPE     P 9258   2.337   2.981   7.296 -0.3486  0.2785 -0.0138
   94SAPE   O13 9259   2.481   2.952   7.293 -0.5398  0.1218  0.3066
   94SAPE   O14 9260   2.239   2.873   7.334 -0.0923  0.0630 -0.3806
   94SAPE   O12 9261   2.308   3.100   7.390 -0.5202  0.5792 -0.0474
   94SAPE   O11 9262   2.284   3.042   7.161  0.0050 -0.3341 -0.9210
   94SAPE    C1 9263   2.369   3.114   7.068  0.1630 -0.3016 -0.1996
   94SAPE    HA 9264   2.358   3.224   7.080  1.2954 -0.1413 -0.5310
   94SAPE    HB 9265   2.477   3.090   7.082  0.0416  0.1881  1.8484
   94SAPE    C2 9266   2.333   3.081   6.919  0.4677 -0.1654 -0.3807
   94SAPE    HS 9267   2.245   3.144   6.893 -0.5710 -0.9469  1.1003
   94SAPE   O21 9268   2.309   2.947   6.905 -0.6015 -0.1215 -0.0858
   94SAPE   C21 9269   2.270   2.913   6.790  0.4126  0.2973 -0.4743
   94SAPE   O22 9270   2.219   2.991   6.707 -0.0944 -0.0212 -0.0787
   94SAPE   C22 9271   2.278   2.756   6.772  0.1671 -0.0970  0.2881
   94SAPE   H2R 9272   2.272   2.713   6.874 -0.9945  0.1884  0.3532
   94SAPE   H2S 9273   2.182   2.735   6.720  0.3037  0.0184 -0.0188
   94SAPE    C3 9274   2.439   3.132   6.823  0.4965  0.0033  0.7153
   94SAPE    HX 9275   2.449   3.243   6.819  0.5357 -0.0376 -2.0856
   94SAPE    HY 9276   2.401   3.120   6.720 -1.3953  1.5275  1.1798
   94SAPE   O31 9277   2.566   3.061   6.843 -0.0861 -0.0720  0.1145
   94SAPE   C31 9278   2.640   3.038   6.739 -0.5023 -0.2448 -0.1105
   94SAPE   O32 9279   2.613   3.075   6.627  0.0757 -0.3607 -0.0484
   94SAPE   C32 9280   2.737   2.924   6.782  0.0207 -1.0309  0.5796
   94SAPE   H2X 9281   2.676   2.841   6.822  0.7487 -1.5701  0.5982
   94SAPE   H2Y 9282   2.804   2.954   6.866  1.5120  1.7099 -1.4083
   94SAPE   C23 9283   2.390   2.700   6.688  0.3814 -0.4761  0.6604
   94SAPE   H3R 9284   2.366   2.593   6.671 -2.3926 -0.0934  1.6081
   94SAPE   H3S 9285   2.490   2.727   6.726  0.5206  2.0920 -1.2418
   94SAPE   C24 9286   2.383   2.757   6.538 -0.2217  0.5519 -0.2398
   94SAPE   H4R 9287   2.391   2.867   6.532  0.0671  0.5453  0.0115
   94SAPE   H4S 9288   2.278   2.731   6.511  0.0975  1.1125 -2.1739
   94SAPE   C25 9289   2.475   2.690   6.442 -0.1772 -0.2472 -0.5335
   94SAPE   H5R 9290   2.574   2.682   6.489 -0.9279  0.7332  1.3471
   94SAPE   C26 9291   2.449   2.632   6.329 -0.5502  0.2093  0.0298
   94SAPE   H6R 9292   2.530   2.577   6.278 -2.2313 -1.8754 -0.5523
   94SAPE   C27 9293   2.318   2.630   6.252  0.5537 -0.2694 -0.4429
   94SAPE   H7R 9294   2.241   2.594   6.324  0.7913 -1.8232 -0.9273
   94SAPE   H7S 9295   2.336   2.551   6.175 -0.6591 -0.5341 -0.4860
   94SAPE   C28 9296   2.273   2.762   6.190 -0.2154  0.2510  0.0605
   94SAPE   H8R 9297   2.207   2.816   6.260  1.4174  0.5481  1.4462
   94SAPE   C29 9298   2.300   2.807   6.066 -1.2354 -0.4087 -0.3507
   94SAPE   H9R 9299   2.249   2.901   6.038  0.8151  0.1342 -2.5607
   94SAPE  C210 9300   2.376   2.751   5.949  0.0829 -0.1003 -0.1122
   94SAPE  H10R 9301   2.443   2.667   5.979  0.1829 -0.8059 -2.1190
   94SAPE  H10S 9302   2.448   2.826   5.910  1.1528 -0.1698  1.6250
   94SAPE  C211 9303   2.281   2.712   5.840 -0.2124 -0.3881 -0.0309
   94SAPE  H11R 9304   2.180   2.678   5.870  0.0485 -1.7288 -0.6059
   94SAPE  C212 9305   2.311   2.705   5.709 -0.1886 -0.0654  0.1720
   94SAPE  H12R 9306   2.229   2.680   5.640 -1.0015  0.9765  0.7176
   94SAPE  C213 9307   2.438   2.743   5.636  0.2178 -1.1328  0.0744
   94SAPE  H13R 9308   2.505   2.795   5.707  0.1608  1.7554 -1.8247
   94SAPE  H13S 9309   2.410   2.824   5.565  0.8968 -0.0052  1.0690
   94SAPE  C214 9310   2.495   2.617   5.571  0.0943 -0.7057  0.5728
   94SAPE  H14R 9311   2.550   2.549   5.637 -1.3763 -1.9738  0.5491
   94SAPE  C215 9312   2.489   2.591   5.440 -0.1403 -0.2979  0.2943
   94SAPE  H15R 9313   2.537   2.502   5.397  0.1203  0.6288 -1.4417
   94SAPE  C216 9314   2.414   2.666   5.328  0.0422  0.1774 -0.8126
   94SAPE  H16R 9315   2.390   2.773   5.349 -1.2799 -0.2990  0.2200
   94SAPE  H16S 9316   2.323   2.613   5.295  0.2007 -0.9052  0.4200
   94SAPE  C217 9317   2.517   2.672   5.211  0.3535 -1.1802 -0.2041
   94SAPE  H17R 9318   2.548   2.571   5.176 -0.0047 -0.3750 -3.0562
   94SAPE  H17S 9319   2.612   2.716   5.250 -1.7457  2.6488  1.1395
   94SAPE  C218 9320   2.460   2.756   5.090 -0.2125 -0.5137 -1.0128
   94SAPE  H18R 9321   2.544   2.808   5.039  0.1174 -0.0269 -0.0184
   94SAPE  H18S 9322   2.403   2.841   5.134  0.1580 -1.2198  0.9526
   94SAPE  C219 9323   2.376   2.661   5.000 -1.0572 -0.3141 -0.0936
   94SAPE  H19R 9324   2.291   2.635   5.066 -0.1373  0.9086  1.6590
   94SAPE  H19S 9325   2.446   2.581   4.968 -0.6125  0.1585 -0.3165
   94SAPE  C220 9326   2.333   2.753   4.882  0.4941 -0.2068  0.3482
   94SAPE  H20R 9327   2.294   2.684   4.805 -0.7483  0.6607  0.1703
   94SAPE  H20S 9328   2.423   2.809   4.851 -1.0895  2.0437 -0.4171
   94SAPE  H20T 9329   2.250   2.820   4.912 -1.2007 -0.9039 -2.4544
   94SAPE   C33 9330   2.822   2.873   6.663 -0.1318  0.5211  0.0692
   94SAPE   H3X 9331   2.758   2.847   6.576 -0.3075 -1.0342  0.6370
   94SAPE   H3Y 9332   2.875   2.779   6.689  1.4154  1.3920  0.1845
   94SAPE   C34 9333   2.924   2.981   6.622 -0.1673  0.1913 -0.0972
   94SAPE   H4X 9334   2.982   3.014   6.711 -0.3462  0.8370 -0.2138
   94SAPE   H4Y 9335   2.877   3.071   6.577 -0.4445 -0.7469 -1.7692
   94SAPE   C35 9336   3.012   2.917   6.513 -0.3980  0.0612  0.0172
   94SAPE   H5X 9337   3.003   2.806   6.512 -2.7602  0.1264  2.3427
   94SAPE   H5Y 9338   3.112   2.962   6.524 -0.3850  0.4060 -1.3217
   94SAPE   C36 9339   2.965   2.949   6.372 -0.3160 -0.6037 -0.3057
   94SAPE   H6X 9340   2.854   2.940   6.368 -0.4967  1.2452 -0.2411
   94SAPE   H6Y 9341   2.993   2.865   6.305 -2.2046 -0.1662 -1.7472
   94SAPE   C37 9342   3.024   3.078   6.319 -0.2117  0.6510  0.1415
   94SAPE   H7X 9343   3.132   3.055   6.327 -0.5793 -1.5461 -0.4050
   94SAPE   H7Y 9344   2.992   3.169   6.372  1.0945  1.1691  0.0706
   94SAPE   C38 9345   2.985   3.094   6.168  0.0764 -0.0117  0.3001
   94SAPE   H8X 9346   2.875   3.107   6.157 -0.0523 -1.2884 -0.0291
   94SAPE   H8Y 9347   3.023   3.004   6.115  0.6420  0.8647 -0.8321
   94SAPE   C39 9348   3.052   3.213   6.094  0.5916  0.9108  0.2633
   94SAPE   H9X 9349   2.988   3.248   6.010 -0.5732  0.3242  0.8786
   94SAPE   H9Y 9350   3.137   3.165   6.042  0.9858  0.0882  1.6160
   94SAPE  C310 9351   3.119   3.314   6.183 -0.0791 -0.5698  0.6657
   94SAPE  H10X 9352   3.207   3.280   6.241 -1.1865 -1.1155  2.0905
   94SAPE  H10Y 9353   3.044   3.348   6.258 -1.4400 -0.2324 -0.7913
   94SAPE  C311 9354   3.177   3.447   6.112 -0.3136 -0.5313 -0.1966
   94SAPE  H11X 9355   3.251   3.494   6.180  0.9514 -0.3489 -1.6481
   94SAPE  H11Y 9356   3.099   3.525   6.106 -0.7984 -0.9903  0.0632
   94SAPE  C312 9357   3.246   3.420   5.974 -0.3579 -0.3903 -0.5810
   94SAPE  H12X 9358   3.169   3.384   5.903 -0.0360 -0.1122 -1.0805
   94SAPE  H12Y 9359   3.323   3.340   5.979 -0.4947 -0.4800  0.3928
   94SAPE  C313 9360   3.308   3.546   5.919 -0.1573 -0.5196 -0.2628
   94SAPE  H13X 9361   3.359   3.526   5.822 -0.3037  2.6374 -1.0811
   94SAPE  H13Y 9362   3.382   3.590   5.989 -2.3399  0.2940  1.6765
   94SAPE  C314 9363   3.214   3.670   5.885  0.0286 -0.3336 -0.1586
   94SAPE  H14X 9364   3.193   3.723   5.980 -1.7258  3.1062 -2.2587
   94SAPE  H14Y 9365   3.114   3.637   5.850 -0.3320  0.6662 -0.0880
   94SAPE  C315 9366   3.275   3.772   5.786 -0.3232  0.2114  0.5553
   94SAPE  H15X 9367   3.199   3.843   5.748 -1.3532 -0.7256  0.7998
   94SAPE  H15Y 9368   3.311   3.707   5.703 -1.8929  0.4243 -0.3352
   94SAPE  C316 9369   3.395   3.847   5.846 -0.7903  0.1795  0.0815
   94SAPE  H16X 9370   3.471   3.784   5.897  3.2552  3.0694 -1.8212
   94SAPE  H16Y 9371   3.354   3.919   5.919 -1.4932 -0.6861  0.5569
   94SAPE  C317 9372   3.480   3.931   5.743 -0.0485 -0.5093  0.5594
   94SAPE  H17X 9373   3.503   3.859   5.662  0.8760 -1.5030  1.6585
   94SAPE  H17Y 9374   3.576   3.963   5.788  0.5552 -1.2915 -0.1440
   94SAPE  C318 9375   3.408   4.055   5.701  0.5677 -0.3420  0.1897
   94SAPE  H18X 9376   3.343   4.027   5.615  1.0846 -1.7643  0.2336
   94SAPE  H18Y 9377   3.478   4.134   5.667  0.7794 -0.9300 -0.8017
   94SAPE  H18Z 9378   3.345   4.102   5.779 -2.1301  0.0098 -2.0223
   95SAPE     N 9379   4.610   2.302   7.341 -0.1122 -0.8466 -0.0353
   95SAPE   HN1 9380   4.512   2.313   7.309  0.1247 -1.1939 -0.9002
   95SAPE   HN2 9381   4.610   2.234   7.420 -0.8201 -0.2171  0.5140
   95SAPE   HN3 9382   4.644   2.388   7.387 -1.1975 -0.3946 -0.0601
   95SAPE   C12 9383   4.688   2.261   7.221 -0.2852  0.2129 -0.6367
   95SAPE  H12A 9384   4.660   2.161   7.181 -1.1271  1.2640 -2.8030
   95SAPE  H12B 9385   4.798   2.260   7.240 -0.1354 -0.7736 -1.4794
   95SAPE   C11 9386   4.656   2.367   7.115 -0.4223  0.3287 -0.3655
   95SAPE  H11A 9387   4.739   2.361   7.042  0.8172  1.2018  0.9179
   95SAPE  H11B 9388   4.673   2.468   7.157 -1.3201  0.4515 -0.2946
   95SAPE     P 9389   4.505   2.276   6.925  0.0674 -0.0887 -0.3434
   95SAPE   O13 9390   4.549   2.140   6.949 -0.4326  0.3322  0.3290
   95SAPE   O14 9391   4.365   2.290   6.874  0.6353 -0.1408  0.2319
   95SAPE   O12 9392   4.523   2.359   7.069 -0.0601 -0.3020  0.0383
   95SAPE   O11 9393   4.607   2.346   6.833 -0.2533  0.3251 -0.7129
   95SAPE    C1 9394   4.592   2.484   6.797 -0.1633  0.3289 -0.0605
   95SAPE    HA 9395   4.537   2.541   6.874  0.4779  0.4747  0.3012
   95SAPE    HB 9396   4.690   2.536   6.790 -1.7570  3.6046  0.5546
   95SAPE    C2 9397   4.521   2.501   6.654 -1.0106  0.0727  0.4344
   95SAPE    HS 9398   4.418   2.462   6.668 -0.7936 -0.8695 -0.4846
   95SAPE   O21 9399   4.589   2.419   6.557  0.6503  0.0537  0.3278
   95SAPE   C21 9400   4.523   2.339   6.481  0.4178 -1.1888  0.6544
   95SAPE   O22 9401   4.402   2.319   6.488 -0.0214  0.1643 -0.0588
   95SAPE   C22 9402   4.610   2.282   6.372  0.1873  0.6209  0.3366
   95SAPE   H2R 9403   4.676   2.366   6.341  0.4199  0.0597 -0.7467
   95SAPE   H2S 9404   4.663   2.190   6.404 -1.6442 -0.1813  1.2672
   95SAPE    C3 9405   4.532   2.648   6.613 -0.4518 -0.8663  0.2349
   95SAPE    HX 9406   4.640   2.661   6.588 -0.6053 -0.1753 -0.0917
   95SAPE    HY 9407   4.511   2.716   6.698  0.4867  0.8691 -0.8652
   95SAPE   O31 9408   4.462   2.680   6.496 -0.0486  0.2214  0.4332
   95SAPE   C31 9409   4.345   2.740   6.520  0.2284  0.2141  0.1269
   95SAPE   O32 9410   4.308   2.776   6.632  0.0590 -0.3608  0.3156
   95SAPE   C32 9411   4.262   2.748   6.395 -0.2331 -0.5046  0.3932
   95SAPE   H2X 9412   4.297   2.840   6.343 -1.2302 -1.4414 -2.0890
   95SAPE   H2Y 9413   4.158   2.765   6.428 -0.2848  1.7820 -0.7388
   95SAPE   C23 9414   4.527   2.247   6.244 -0.2802 -0.0077  0.4807
   95SAPE   H3R 9415   4.429   2.298   6.246 -0.3980 -0.2209  0.1874
   95SAPE   H3S 9416   4.504   2.139   6.257 -0.5441  0.1426  1.3514
   95SAPE   C24 9417   4.609   2.283   6.121  0.4093  0.1959 -0.0656
   95SAPE   H4R 9418   4.648   2.387   6.126 -0.1058  0.3591  0.9630
   95SAPE   H4S 9419   4.535   2.288   6.038  1.0181  2.0029 -0.5524
   95SAPE   C25 9420   4.717   2.183   6.089  0.6175  0.3190 -0.7961
   95SAPE   H5R 9421   4.801   2.189   6.160  1.6339  1.3911 -2.0381
   95SAPE   C26 9422   4.727   2.094   5.984  0.0398 -0.4370  0.0546
   95SAPE   H6R 9423   4.806   2.017   5.984 -0.0602 -0.6457 -2.7299
   95SAPE   C27 9424   4.623   2.085   5.868  0.2078  0.0666 -0.7919
   95SAPE   H7R 9425   4.553   2.172   5.868  0.4014  0.4035  3.3225
   95SAPE   H7S 9426   4.568   1.992   5.890  0.9999 -0.2070  0.1092
   95SAPE   C28 9427   4.706   2.077   5.746  0.0163 -0.0274  0.1297
   95SAPE   H8R 9428   4.815   2.082   5.758  0.1427 -0.0362 -0.9007
   95SAPE   C29 9429   4.658   2.088   5.622  0.3639 -0.2638  0.6691
   95SAPE   H9R 9430   4.715   2.078   5.528 -2.5241 -0.5213 -1.1897
   95SAPE  C210 9431   4.517   2.068   5.578  1.0933 -1.0944 -0.3935
   95SAPE  H10R 9432   4.479   2.167   5.545  0.6837 -1.1729 -0.1722
   95SAPE  H10S 9433   4.458   2.030   5.664  0.6618  2.6087  1.1541
   95SAPE  C211 9434   4.501   1.973   5.466  0.2888  0.4823 -0.0612
   95SAPE  H11R 9435   4.504   1.870   5.503  0.4456  1.0677  1.6643
   95SAPE  C212 9436   4.507   2.001   5.331  0.5057 -0.0349 -0.4244
   95SAPE  H12R 9437   4.486   1.919   5.260  1.4073  0.2372 -1.0241
   95SAPE  C213 9438   4.506   2.136   5.263 -0.1529  0.6401  0.0840
   95SAPE  H13R 9439   4.457   2.211   5.328  0.8858  3.8287 -2.5006
   95SAPE  H13S 9440   4.453   2.117   5.167  0.8514 -0.7820 -0.2144
   95SAPE  C214 9441   4.651   2.182   5.253  0.2355  0.5700  0.4351
   95SAPE  H14R 9442   4.696   2.201   5.351  1.8303  3.1216 -0.6909
   95SAPE  C215 9443   4.727   2.190   5.140  0.3414  0.4172 -0.4903
   95SAPE  H15R 9444   4.836   2.199   5.139  0.4574 -0.4728 -3.0548
   95SAPE  C216 9445   4.678   2.168   4.999  0.6558  0.0411  0.0899
   95SAPE  H16R 9446   4.701   2.253   4.932  0.2404  0.8763  0.9870
   95SAPE  H16S 9447   4.567   2.162   4.996  0.5676  1.4731 -0.1247
   95SAPE  C217 9448   4.727   2.046   4.922 -0.5843 -0.0585 -0.1025
   95SAPE  H17R 9449   4.691   1.953   4.973 -0.9177 -0.2136 -0.6153
   95SAPE  H17S 9450   4.837   2.035   4.913 -0.6049 -2.7769  1.5815
   95SAPE  C218 9451   4.685   2.020   4.774  0.4932  0.5920  0.8327
   95SAPE  H18R 9452   4.576   2.035   4.762  0.5295 -0.3204 -0.9510
   95SAPE  H18S 9453   4.698   1.915   4.739  0.1336  0.6232  0.6012
   95SAPE  C219 9454   4.766   2.106   4.677 -0.7364 -0.2287 -0.2598
   95SAPE  H19R 9455   4.875   2.097   4.701 -0.4015  4.4691  1.0589
   95SAPE  H19S 9456   4.736   2.210   4.702  1.8177  0.3859  0.6468
   95SAPE  C220 9457   4.738   2.079   4.522 -0.3313  0.0654 -0.3172
   95SAPE  H20R 9458   4.763   1.973   4.503  0.4934 -0.5817  3.5126
   95SAPE  H20S 9459   4.802   2.146   4.462 -1.4503  1.9529  0.4882
   95SAPE  H20T 9460   4.630   2.094   4.500 -0.3137 -2.5423 -2.7148
   95SAPE   C33 9461   4.281   2.624   6.309  0.3340  0.6392  0.4946
   95SAPE   H3X 9462   4.240   2.537   6.364 -0.9965 -1.2845 -3.2062
   95SAPE   H3Y 9463   4.385   2.592   6.286 -0.1624 -0.1465 -0.7599
   95SAPE   C34 9464   4.204   2.600   6.176  1.2197 -0.1425  0.3270
   95SAPE   H4X 9465   4.225   2.682   6.105 -1.4294  0.5250  0.2251
   95SAPE   H4Y 9466   4.095   2.601   6.195  1.2779 -0.4328  0.6876
   95SAPE   C35 9467   4.236   2.459   6.111 -0.5070 -0.7627 -0.8362
   95SAPE   H5X 9468   4.228   2.379   6.188  1.3886 -0.0972  0.1033
   95SAPE   H5Y 9469   4.339   2.463   6.069 -0.7765  0.3025 -1.4302
   95SAPE   C36 9470   4.146   2.416   5.999 -0.1662 -0.2731  0.6286
   95SAPE   H6X 9471   4.043   2.411   6.039  0.0681  0.7457  1.3910
   95SAPE   H6Y 9472   4.189   2.317   5.969 -2.5237 -1.5282  1.1469
   95SAPE   C37 9473   4.139   2.520   5.887  0.2371 -0.1089  0.8038
   95SAPE   H7X 9474   4.241   2.539   5.847  0.2831 -0.9998  0.4777
   95SAPE   H7Y 9475   4.084   2.612   5.916  1.3391  0.8555 -0.0295
   95SAPE   C38 9476   4.059   2.469   5.765  0.1811  0.3870  0.1065
   95SAPE   H8X 9477   3.955   2.445   5.796  0.5491  0.4685  1.4575
   95SAPE   H8Y 9478   4.112   2.384   5.716  0.9241  1.5713 -1.2118
   95SAPE   C39 9479   4.033   2.583   5.662 -0.0587  0.8203 -0.5192
   95SAPE   H9X 9480   4.122   2.649   5.648  0.2131  0.1363 -2.2256
   95SAPE   H9Y 9481   3.959   2.645   5.717 -1.6959  0.9156 -2.7219
   95SAPE  C310 9482   3.988   2.545   5.524 -0.5800  0.2994  0.5928
   95SAPE  H10X 9483   3.891   2.496   5.546  0.4671 -2.7738 -0.9186
   95SAPE  H10Y 9484   4.059   2.470   5.483  0.4961  0.2101  2.5452
   95SAPE  C311 9485   3.972   2.658   5.423 -0.2522 -0.1926 -0.8872
   95SAPE  H11X 9486   4.054   2.734   5.419  0.7792 -1.2329 -0.1764
   95SAPE  H11Y 9487   3.888   2.717   5.464  0.6025  0.5160 -0.1149
   95SAPE  C312 9488   3.939   2.610   5.281  0.1388  0.8553 -0.4174
   95SAPE  H12X 9489   3.857   2.536   5.290 -0.3838  1.5255  0.6062
   95SAPE  H12Y 9490   4.032   2.568   5.238  0.3608  0.2391  0.6346
   95SAPE  C313 9491   3.891   2.726   5.198  0.0054  0.7095 -0.2915
   95SAPE  H13X 9492   3.956   2.815   5.207 -0.1531  0.6809  1.6147
   95SAPE  H13Y 9493   3.792   2.767   5.228  1.2268  1.3070  3.5215
   95SAPE  C314 9494   3.870   2.676   5.052 -0.0090  0.5317 -0.2570
   95SAPE  H14X 9495   3.797   2.593   5.050  0.4595  0.0898  0.3690
   95SAPE  H14Y 9496   3.972   2.646   5.018  0.2978  1.1996  0.0459
   95SAPE  C315 9497   3.818   2.785   4.952 -0.2638 -0.0678  0.4616
   95SAPE  H15X 9498   3.738   2.847   4.998  0.4625  0.6757  0.7444
   95SAPE  H15Y 9499   3.779   2.735   4.861 -2.4719 -0.6114  1.6474
   95SAPE  C316 9500   3.913   2.892   4.913 -0.2678  0.0461 -0.0773
   95SAPE  H16X 9501   4.017   2.853   4.907 -1.1332 -2.4253  0.1683
   95SAPE  H16Y 9502   3.915   2.968   4.994  1.0241 -1.7699  1.6908
   95SAPE  C317 9503   3.872   2.969   4.786  0.1012 -0.0684 -0.1266
   95SAPE  H17X 9504   3.761   2.970   4.790  0.0190  2.5586 -1.3300
   95SAPE  H17Y 9505   3.910   2.919   4.694 -2.2476  1.1638 -1.8664
   95SAPE  C318 9506   3.908   3.119   4.788 -0.4320  0.7602  0.0214
   95SAPE  H18X 9507   3.869   3.162   4.693  1.8437 -0.6975 -1.6770
   95SAPE  H18Y 9508   4.019   3.128   4.782  0.1914 -1.3629  4.5323
   95SAPE  H18Z 9509   3.870   3.171   4.878 -1.0881  1.1633 -0.4824
   96SAPE     N 9510   3.619   5.483   6.932  0.1731 -0.0062 -0.0052
   96SAPE   HN1 9511   3.673   5.403   6.892 -0.8375 -1.0059  0.5647
   96SAPE   HN2 9512   3.525   5.487   6.886 -1.1694  0.0428  2.5953
   96SAPE   HN3 9513   3.658   5.570   6.891  0.7713 -0.4003 -0.2861
   96SAPE   C12 9514   3.606   5.494   7.081 -0.2082 -0.0245  1.0777
   96SAPE  H12A 9515   3.704   5.528   7.120  0.2141  0.2535 -0.1764
   96SAPE  H12B 9516   3.586   5.391   7.118  2.7066 -1.4985 -1.0213
   96SAPE   C11 9517   3.496   5.595   7.119 -0.1669  0.6543 -0.1488
   96SAPE  H11A 9518   3.493   5.609   7.229 -2.1103 -0.8404  0.0480
   96SAPE  H11B 9519   3.399   5.555   7.082  0.4922  0.7428 -2.0989
   96SAPE     P 9520   3.626   5.822   7.065 -0.5130 -0.0632 -0.3163
   96SAPE   O13 9521   3.592   5.899   7.181  0.1788 -0.3303  0.5161
   96SAPE   O14 9522   3.763   5.765   7.060 -0.6045 -0.1760 -0.2431
   96SAPE   O12 9523   3.522   5.718   7.052 -0.0952 -0.0302 -0.0016
   96SAPE   O11 9524   3.608   5.903   6.932  0.2640  0.1089  0.3395
   96SAPE    C1 9525   3.473   5.921   6.887  0.6906 -0.4881 -0.3882
   96SAPE    HA 9526   3.399   5.897   6.965  0.2621  1.5254 -0.1365
   96SAPE    HB 9527   3.458   6.023   6.846 -1.4003 -0.8097 -0.5276
   96SAPE    C2 9528   3.439   5.830   6.762 -0.1330 -0.1081  0.4311
   96SAPE    HS 9529   3.447   5.728   6.806 -0.5534  0.0974  0.9923
   96SAPE   O21 9530   3.541   5.861   6.663 -0.0725  1.1802 -0.6282
   96SAPE   C21 9531   3.630   5.761   6.636  0.1084  0.4836 -0.5232
   96SAPE   O22 9532   3.655   5.666   6.709 -0.1644 -0.0012 -0.2878
   96SAPE   C22 9533   3.689   5.790   6.498 -0.0381 -0.4621 -0.1900
   96SAPE   H2R 9534   3.728   5.894   6.499  0.8665 -0.6166  4.6412
   96SAPE   H2S 9535   3.777   5.723   6.486 -0.5455 -0.9083 -1.6084
   96SAPE    C3 9536   3.296   5.852   6.702  0.7357 -0.3633  0.0750
   96SAPE    HX 9537   3.295   5.963   6.695  1.1816 -0.2609  1.3979
   96SAPE    HY 9538   3.232   5.823   6.788  0.2013  0.2805 -0.0971
   96SAPE   O31 9539   3.276   5.793   6.571  0.0184  0.7220  0.4148
   96SAPE   C31 9540   3.171   5.834   6.509 -0.0081 -0.8009 -0.3165
   96SAPE   O32 9541   3.100   5.933   6.534  0.4218 -0.7383 -0.8847
   96SAPE   C32 9542   3.156   5.760   6.376  0.4472  0.2258 -0.1437
   96SAPE   H2X 9543   3.118   5.657   6.394  1.8116 -0.7875 -2.5206
   96SAPE   H2Y 9544   3.254   5.736   6.328  0.4562 -1.1258  0.5007
   96SAPE   C23 9545   3.586   5.778   6.380 -0.2032 -0.2073 -0.0716
   96SAPE   H3R 9546   3.616   5.841   6.294 -0.7741 -0.3397 -0.3697
   96SAPE   H3S 9547   3.483   5.812   6.402 -0.1744 -1.2956  1.9974
   96SAPE   C24 9548   3.578   5.638   6.327 -0.4318 -0.6393 -0.3308
   96SAPE   H4R 9549   3.577   5.567   6.412  0.3351 -0.4925 -0.1929
   96SAPE   H4S 9550   3.681   5.626   6.285 -0.1499  3.1248 -1.0711
   96SAPE   C25 9551   3.465   5.599   6.227 -0.7352  0.3921 -0.2974
   96SAPE   H5R 9552   3.387   5.534   6.268 -0.8416  0.1006 -0.9506
   96SAPE   C26 9553   3.454   5.633   6.099 -0.4368 -0.1916  0.3311
   96SAPE   H6R 9554   3.363   5.597   6.048  0.0147  2.5055 -2.6555
   96SAPE   C27 9555   3.543   5.715   6.007  0.6344  0.2974 -0.5049
   96SAPE   H7R 9556   3.551   5.818   6.046 -4.4186  1.0936 -0.8087
   96SAPE   H7S 9557   3.484   5.717   5.912 -0.4957  1.5169  0.1928
   96SAPE   C28 9558   3.687   5.662   5.992  0.1276  1.0349  0.7144
   96SAPE   H8R 9559   3.739   5.610   6.074  1.4745  1.6339  0.2723
   96SAPE   C29 9560   3.758   5.684   5.875  0.1024  0.2947 -0.3779
   96SAPE   H9R 9561   3.861   5.648   5.877 -0.3421 -1.1780  2.5558
   96SAPE  C210 9562   3.711   5.778   5.761 -0.1767  0.4766  0.1400
   96SAPE  H10R 9563   3.610   5.822   5.768  0.6420  2.4273  0.3598
   96SAPE  H10S 9564   3.721   5.731   5.661  1.2116  0.3076  0.3417
   96SAPE  C211 9565   3.809   5.898   5.777 -0.0049 -0.2410 -0.7654
   96SAPE  H11R 9566   3.783   5.962   5.863  0.3122  0.5691 -1.2662
   96SAPE  C212 9567   3.908   5.938   5.689 -0.4711  0.4387 -0.9439
   96SAPE  H12R 9568   3.958   6.033   5.711 -1.5781  0.4792  1.7621
   96SAPE  C213 9569   3.944   5.886   5.555 -1.1991  0.8288 -0.0493
   96SAPE  H13R 9570   3.918   5.778   5.547  1.0230  0.3437 -1.4127
   96SAPE  H13S 9571   4.055   5.884   5.553 -1.1722 -2.2641 -0.3332
   96SAPE  C214 9572   3.876   5.954   5.440 -0.0065 -0.9443  0.6161
   96SAPE  H14R 9573   3.887   6.063   5.445 -1.8992 -0.6042 -1.0949
   96SAPE  C215 9574   3.813   5.901   5.334 -0.7779 -0.0390 -0.5697
   96SAPE  H15R 9575   3.773   5.971   5.259 -1.6857 -0.5256 -0.5536
   96SAPE  C216 9576   3.793   5.750   5.300  0.4955 -0.3428 -0.5023
   96SAPE  H16R 9577   3.686   5.736   5.274  0.4859  3.3018 -3.1513
   96SAPE  H16S 9578   3.804   5.690   5.393 -0.6856 -1.2481 -0.9257
   96SAPE  C217 9579   3.883   5.687   5.198  0.5924  0.6123  0.4688
   96SAPE  H17R 9580   3.884   5.579   5.222 -0.8189  0.4675 -0.0192
   96SAPE  H17S 9581   3.986   5.729   5.206  1.5061 -1.3330 -0.4340
   96SAPE  C218 9582   3.815   5.701   5.054 -0.9099 -0.0997 -0.9008
   96SAPE  H18R 9583   3.905   5.682   4.992 -0.9020 -0.5575 -0.7524
   96SAPE  H18S 9584   3.776   5.805   5.047  0.2110  0.4604  0.5402
   96SAPE  C219 9585   3.711   5.591   5.032  0.5958  0.1357  0.7995
   96SAPE  H19R 9586   3.613   5.629   5.069 -0.3984 -2.7449  1.3928
   96SAPE  H19S 9587   3.720   5.498   5.092 -0.2846 -0.4868  0.0002
   96SAPE  C220 9588   3.704   5.560   4.882  0.5495 -0.8172 -0.5675
   96SAPE  H20R 9589   3.696   5.651   4.820 -3.2871 -2.2806 -2.5563
   96SAPE  H20S 9590   3.628   5.483   4.857  0.5132 -0.5707 -1.2390
   96SAPE  H20T 9591   3.798   5.504   4.862  1.2614 -0.5669  1.7224
   96SAPE   C33 9592   3.078   5.831   6.265 -0.2684 -0.0953  0.2307
   96SAPE   H3X 9593   3.094   5.941   6.256 -1.5012 -0.0375 -1.7133
   96SAPE   H3Y 9594   2.973   5.831   6.301 -0.8070 -0.3291 -1.2835
   96SAPE   C34 9595   3.105   5.774   6.127  0.4064  0.5886  0.2379
   96SAPE   H4X 9596   3.076   5.667   6.122  2.4688  0.0070 -0.3535
   96SAPE   H4Y 9597   3.211   5.779   6.093  1.1914 -3.9130  1.3504
   96SAPE   C35 9598   3.034   5.847   6.010  0.7309  0.0734 -0.2429
   96SAPE   H5X 9599   3.031   5.956   6.032 -1.4571  0.3503 -1.5815
   96SAPE   H5Y 9600   2.929   5.810   6.013  0.9460 -0.6251 -0.9363
   96SAPE   C36 9601   3.094   5.818   5.870 -0.1377 -0.4476  0.3083
   96SAPE   H6X 9602   3.081   5.709   5.850 -0.6721 -0.2316 -0.5516
   96SAPE   H6Y 9603   3.203   5.838   5.872 -0.2600  0.5311 -1.1363
   96SAPE   C37 9604   3.039   5.887   5.748 -0.1231 -0.4743  0.3660
   96SAPE   H7X 9605   3.049   5.997   5.759 -0.4244 -0.4116  0.0353
   96SAPE   H7Y 9606   2.930   5.867   5.745  0.5025 -4.7746 -0.2675
   96SAPE   C38 9607   3.085   5.817   5.616 -0.4413  0.2098  0.3430
   96SAPE   H8X 9608   3.068   5.708   5.606 -0.2337  0.1083  0.9994
   96SAPE   H8Y 9609   3.196   5.825   5.613 -0.2525 -2.0618 -1.2612
   96SAPE   C39 9610   3.027   5.888   5.498  0.5269  0.2700  0.3092
   96SAPE   H9X 9611   3.062   5.994   5.504 -1.2402  0.8411  1.1563
   96SAPE   H9Y 9612   2.917   5.889   5.515  0.4043  2.1159 -0.3766
   96SAPE  C310 9613   3.065   5.807   5.362 -0.7163  0.3634  0.2298
   96SAPE  H10X 9614   3.170   5.771   5.374 -0.9428 -0.7501 -0.8897
   96SAPE  H10Y 9615   3.043   5.883   5.284 -1.0588  0.8391  0.7851
   96SAPE  C311 9616   2.982   5.678   5.349  0.5975 -0.0288  0.6394
   96SAPE  H11X 9617   2.874   5.693   5.367  0.3877  0.9784 -1.2435
   96SAPE  H11Y 9618   3.017   5.614   5.433  0.1488  0.9647  1.6103
   96SAPE  C312 9619   2.991   5.602   5.218 -0.2102  0.0665 -0.0053
   96SAPE  H12X 9620   3.089   5.550   5.209 -0.2493 -0.3240  1.4932
   96SAPE  H12Y 9621   2.989   5.675   5.135  0.5441 -1.0992 -1.0889
   96SAPE  C313 9622   2.895   5.488   5.200  0.2499 -0.4573 -0.1992
   96SAPE  H13X 9623   2.845   5.461   5.295  1.2835 -0.1123  0.4529
   96SAPE  H13Y 9624   2.966   5.408   5.170  1.9828  0.1409  2.0707
   96SAPE  C314 9625   2.777   5.516   5.097  0.6136 -0.7499 -0.5984
   96SAPE  H14X 9626   2.822   5.552   5.002  0.3210  0.4116 -0.3127
   96SAPE  H14Y 9627   2.717   5.606   5.123  2.1542  0.5513 -1.3619
   96SAPE  C315 9628   2.687   5.408   5.047 -0.3835  0.0757 -0.3248
   96SAPE  H15X 9629   2.607   5.386   5.120  1.2287 -0.8026  1.2565
   96SAPE  H15Y 9630   2.745   5.316   5.023 -0.2782 -0.0987  0.5876
   96SAPE  C316 9631   2.623   5.434   4.913  0.1346  0.0671 -0.2808
   96SAPE  H16X 9632   2.571   5.531   4.900  1.9615  1.0566 -0.5304
   96SAPE  H16Y 9633   2.550   5.352   4.899  0.4445 -0.8077  2.5330
   96SAPE  C317 9634   2.719   5.403   4.797  0.1329  0.6039 -0.0166
   96SAPE  H17X 9635   2.667   5.323   4.740  2.6674 -2.1467  1.2580
   96SAPE  H17Y 9636   2.813   5.354   4.830 -1.3460 -1.2263  1.7907
   96SAPE  C318 9637   2.761   5.515   4.701 -0.2963 -0.4981  0.2741
   96SAPE  H18X 9638   2.837   5.476   4.630  0.0472  0.5627  0.0425
   96SAPE  H18Y 9639   2.800   5.607   4.749 -0.8846 -0.8117  1.3878
   96SAPE  H18Z 9640   2.673   5.542   4.639  0.3828 -1.5427 -1.2005
   97SAPE     N 9641   1.466   5.010   6.916 -0.1007 -0.5798  0.1982
   97SAPE   HN1 9642   1.395   4.936   6.932 -2.0773  1.4551  1.3632
   97SAPE   HN2 9643   1.567   4.992   6.933 -0.2776 -0.7047  1.1665
   97SAPE   HN3 9644   1.443   5.081   6.989 -2.7284 -1.0799 -0.0267
   97SAPE   C12 9645   1.439   5.090   6.793 -0.0356 -0.2383 -0.0225
   97SAPE  H12A 9646   1.330   5.110   6.792 -0.3255 -1.2134  3.0407
   97SAPE  H12B 9647   1.469   5.037   6.699  0.3222  0.0654 -0.0801
   97SAPE   C11 9648   1.492   5.238   6.805 -0.0421  0.6027 -0.5159
   97SAPE  H11A 9649   1.439   5.305   6.734  2.4965  3.2660 -0.0962
   97SAPE  H11B 9650   1.598   5.255   6.777  0.0663  1.7304  0.5083
   97SAPE     P 9651   1.572   5.332   7.034  0.2717  0.1833 -0.0303
   97SAPE   O13 9652   1.518   5.426   7.140  0.5436  0.3730 -0.1882
   97SAPE   O14 9653   1.629   5.201   7.070  0.2959  0.0696 -0.6049
   97SAPE   O12 9654   1.463   5.291   6.934  0.3236  0.1584  0.1172
   97SAPE   O11 9655   1.668   5.421   6.935  0.6473 -0.1112 -0.3084
   97SAPE    C1 9656   1.610   5.552   6.918  0.3963  0.2510  0.9812
   97SAPE    HA 9657   1.507   5.549   6.876  1.5921  1.8220 -2.4057
   97SAPE    HB 9658   1.621   5.611   7.011  1.1166  1.8064 -0.0609
   97SAPE    C2 9659   1.695   5.638   6.813  0.9676  0.2384  0.1239
   97SAPE    HS 9660   1.631   5.716   6.766 -1.0427 -0.2901  1.8556
   97SAPE   O21 9661   1.765   5.568   6.709  0.3442  0.0538 -0.7108
   97SAPE   C21 9662   1.693   5.494   6.630  0.2764 -1.3721  0.7287
   97SAPE   O22 9663   1.573   5.493   6.616  0.1525  0.5308  0.1052
   97SAPE   C22 9664   1.797   5.407   6.567  0.5995  0.0076  0.6158
   97SAPE   H2R 9665   1.876   5.466   6.516 -0.2174 -1.2938 -2.4205
   97SAPE   H2S 9666   1.847   5.347   6.646 -0.5556 -3.7490 -1.2661
   97SAPE    C3 9667   1.805   5.710   6.880 -0.5232 -0.3262 -0.2860
   97SAPE    HX 9668   1.850   5.653   6.965 -0.5425  0.3815  0.2084
   97SAPE    HY 9669   1.764   5.788   6.948  0.4083 -1.0583  1.1919
   97SAPE   O31 9670   1.893   5.776   6.789 -0.0766  0.7328  0.2568
   97SAPE   C31 9671   2.014   5.719   6.783 -0.0627 -0.7153 -0.3236
   97SAPE   O32 9672   2.054   5.618   6.841  0.4477 -0.4591  0.1886
   97SAPE   C32 9673   2.108   5.795   6.686 -0.5255 -0.4287  0.0797
   97SAPE   H2X 9674   2.092   5.904   6.698 -0.8060 -0.4461 -0.1199
   97SAPE   H2Y 9675   2.081   5.763   6.583 -2.1065  0.8794  0.0589
   97SAPE   C23 9676   1.723   5.311   6.468  0.1705 -0.6269  0.2236
   97SAPE   H3R 9677   1.668   5.376   6.396 -1.1626 -0.5453  1.2912
   97SAPE   H3S 9678   1.644   5.259   6.524 -0.4392  0.2433  0.1988
   97SAPE   C24 9679   1.811   5.217   6.391 -0.0628 -0.0579 -0.3249
   97SAPE   H4R 9680   1.875   5.276   6.322  1.0382 -0.7771  0.0366
   97SAPE   H4S 9681   1.739   5.154   6.334 -2.2511 -0.1518  2.3273
   97SAPE   C25 9682   1.891   5.117   6.468  0.7230 -0.8077  0.2018
   97SAPE   H5R 9683   1.855   5.078   6.564  0.4677  0.3450  0.5985
   97SAPE   C26 9684   2.013   5.078   6.434 -0.2473  0.5236  0.4690
   97SAPE   H6R 9685   2.057   4.994   6.490 -0.2657  0.5538  0.5286
   97SAPE   C27 9686   2.078   5.119   6.302  0.0814  0.2874  0.6687
   97SAPE   H7R 9687   2.172   5.171   6.330  0.0761 -0.2976  1.7989
   97SAPE   H7S 9688   2.015   5.184   6.239 -0.2265 -0.7924 -0.1764
   97SAPE   C28 9689   2.134   5.003   6.212  0.2054 -0.6819 -0.1662
   97SAPE   H8R 9690   2.130   4.900   6.251  0.5144 -1.1516 -1.3280
   97SAPE   C29 9691   2.176   5.006   6.082 -0.0112 -0.0688 -0.3800
   97SAPE   H9R 9692   2.227   4.918   6.041 -1.7388 -0.3836 -1.9577
   97SAPE  C210 9693   2.187   5.145   6.015  0.2143 -0.2976  0.0853
   97SAPE  H10R 9694   2.290   5.162   5.977 -0.0493  0.8522 -0.1557
   97SAPE  H10S 9695   2.170   5.229   6.086 -0.1571 -1.0276  0.8762
   97SAPE  C211 9696   2.081   5.150   5.911  0.2246 -1.0742 -0.4034
   97SAPE  H11R 9697   1.977   5.141   5.945  0.1601  2.6294  0.9079
   97SAPE  C212 9698   2.096   5.190   5.786  0.2175 -0.1470 -0.5709
   97SAPE  H12R 9699   2.009   5.182   5.719 -1.2055 -0.5307  1.2562
   97SAPE  C213 9700   2.233   5.235   5.732 -0.0721 -0.0162 -0.1599
   97SAPE  H13R 9701   2.274   5.308   5.804 -2.7829  0.7483  0.7494
   97SAPE  H13S 9702   2.220   5.295   5.639  1.0113  1.6892  0.7413
   97SAPE  C214 9703   2.323   5.115   5.709  0.0845  0.8367 -0.4651
   97SAPE  H14R 9704   2.304   5.025   5.769 -1.6737  0.2847 -1.7566
   97SAPE  C215 9705   2.432   5.119   5.637 -0.2043 -0.6053  0.6459
   97SAPE  H15R 9706   2.484   5.023   5.623 -0.4048 -0.7578  0.9196
   97SAPE  C216 9707   2.490   5.239   5.561 -0.2115  0.3340 -0.1858
   97SAPE  H16R 9708   2.584   5.269   5.613 -0.6787  0.4924  0.5832
   97SAPE  H16S 9709   2.438   5.337   5.563  0.0465  0.4684  1.2433
   97SAPE  C217 9710   2.521   5.184   5.416  0.2376  0.2690 -0.8905
   97SAPE  H17R 9711   2.589   5.097   5.423  0.6567  0.7347  1.7257
   97SAPE  H17S 9712   2.576   5.261   5.358 -1.2632  1.3884 -0.8699
   97SAPE  C218 9713   2.390   5.161   5.349 -0.6575  0.0780 -0.2564
   97SAPE  H18R 9714   2.326   5.252   5.358 -1.5534 -0.7306  2.8780
   97SAPE  H18S 9715   2.335   5.080   5.402 -0.9803 -1.2478 -2.4894
   97SAPE  C219 9716   2.397   5.113   5.199 -0.4096 -0.1106  0.2468
   97SAPE  H19R 9717   2.434   5.009   5.208  3.1530  1.0677  0.6636
   97SAPE  H19S 9718   2.475   5.170   5.145 -0.6631 -0.0029 -0.0105
   97SAPE  C220 9719   2.262   5.122   5.125  0.6328  0.6467  0.2056
   97SAPE  H20R 9720   2.279   5.160   5.022  1.8599 -0.5714 -0.0762
   97SAPE  H20S 9721   2.190   5.184   5.183  0.5315 -0.7453  1.6252
   97SAPE  H20T 9722   2.217   5.022   5.107  1.9452 -0.7629  3.8072
   97SAPE   C33 9723   2.262   5.771   6.722 -0.3088 -0.5142  0.9296
   97SAPE   H3X 9724   2.306   5.675   6.688  1.3739 -0.1223  1.9330
   97SAPE   H3Y 9725   2.270   5.763   6.832 -0.1334 -1.7481  0.8459
   97SAPE   C34 9726   2.341   5.891   6.666 -0.2250  0.1783 -0.3284
   97SAPE   H4X 9727   2.449   5.890   6.693  0.2156  0.4172 -1.9503
   97SAPE   H4Y 9728   2.311   5.979   6.727 -0.4552  0.1221 -0.3616
   97SAPE   C35 9729   2.323   5.931   6.518  0.2001 -0.4761 -0.1126
   97SAPE   H5X 9730   2.218   5.964   6.504 -0.4158 -2.0671  0.5373
   97SAPE   H5Y 9731   2.335   5.855   6.438 -1.8790  1.4168 -2.3901
   97SAPE   C36 9732   2.412   6.047   6.484  0.0125 -0.1637 -0.8740
   97SAPE   H6X 9733   2.513   6.003   6.481 -0.1355 -0.7693  1.2137
   97SAPE   H6Y 9734   2.408   6.117   6.570  1.4561  0.7505 -1.5208
   97SAPE   C37 9735   2.371   6.124   6.361 -0.4083 -0.1482  0.3753
   97SAPE   H7X 9736   2.444   6.207   6.343  0.6194 -0.9919  0.5743
   97SAPE   H7Y 9737   2.275   6.174   6.385 -0.8257 -0.6833 -0.1648
   97SAPE   C38 9738   2.362   6.037   6.237  0.2245 -0.3663 -0.0153
   97SAPE   H8X 9739   2.268   5.978   6.247  0.7017 -0.9440  1.2519
   97SAPE   H8Y 9740   2.455   5.976   6.237  1.2050  1.0483  1.4297
   97SAPE   C39 9741   2.344   6.118   6.113  0.0352  0.1666  0.2616
   97SAPE   H9X 9742   2.419   6.200   6.109 -1.5052  2.0541  4.1276
   97SAPE   H9Y 9743   2.248   6.173   6.127  1.2253  2.5264 -0.3453
   97SAPE  C310 9744   2.339   6.039   5.984 -0.3381 -0.0668  0.4250
   97SAPE  H10X 9745   2.248   5.976   5.988 -0.2287 -0.3585 -1.0872
   97SAPE  H10Y 9746   2.423   5.973   5.956 -0.1836  0.1553  0.3581
   97SAPE  C311 9747   2.310   6.125   5.862 -0.3857  1.0518  0.5463
   97SAPE  H11X 9748   2.400   6.126   5.796  1.5486  1.7449  3.0128
   97SAPE  H11Y 9749   2.285   6.232   5.882  0.7147  1.6820 -1.2412
   97SAPE  C312 9750   2.196   6.062   5.777  0.5860 -0.1381 -0.1483
   97SAPE  H12X 9751   2.104   6.057   5.839 -0.3435  0.3614 -1.4503
   97SAPE  H12Y 9752   2.226   5.957   5.758  1.5384  0.4622 -2.3206
   97SAPE  C313 9753   2.161   6.128   5.647 -0.7764 -0.1383  0.0121
   97SAPE  H13X 9754   2.126   6.232   5.666  0.0075  0.2066 -0.3561
   97SAPE  H13Y 9755   2.072   6.083   5.599 -1.1512  1.3260 -0.7280
   97SAPE  C314 9756   2.277   6.125   5.552 -1.0227 -0.1995 -0.5602
   97SAPE  H14X 9757   2.324   6.025   5.564 -0.0921  0.5362  2.8486
   97SAPE  H14Y 9758   2.354   6.196   5.589  0.2987 -2.9279  2.4178
   97SAPE  C315 9759   2.233   6.143   5.404  0.2895  0.0462  0.2263
   97SAPE  H15X 9760   2.188   6.244   5.396  0.8696  0.2039 -1.2948
   97SAPE  H15Y 9761   2.179   6.051   5.374  0.3197 -0.0067  0.3336
   97SAPE  C316 9762   2.347   6.155   5.304 -0.6667 -0.2723  0.8107
   97SAPE  H16X 9763   2.392   6.054   5.300  0.4985  0.1479  2.2687
   97SAPE  H16Y 9764   2.423   6.230   5.336 -0.2516 -0.4028  0.1405
   97SAPE  C317 9765   2.287   6.188   5.161  0.5046  0.0339  0.8082
   97SAPE  H17X 9766   2.365   6.217   5.087 -0.3805 -3.5324 -1.7859
   97SAPE  H17Y 9767   2.209   6.267   5.159  0.3271 -0.1116 -1.7696
   97SAPE  C318 9768   2.231   6.058   5.093 -0.2097  0.4982 -0.1029
   97SAPE  H18X 9769   2.299   5.996   5.031 -2.1342 -1.2406 -0.5856
   97SAPE  H18Y 9770   2.169   6.078   5.003  2.5630  0.5644 -2.1300
   97SAPE  H18Z 9771   2.178   5.989   5.161  0.2961 -1.3196 -1.4711
   98SAPE     N 9772   0.792   6.446   7.505  0.5145  0.1123 -0.1598
   98SAPE   HN1 9773   0.807   6.370   7.436 -2.3711 -0.3905 -0.3183
   98SAPE   HN2 9774   0.872   6.452   7.573  0.0584  0.4158  0.3599
   98SAPE   HN3 9775   0.702   6.424   7.551  0.0663  2.0164 -0.0212
   98SAPE   C12 9776   0.778   6.583   7.433 -0.9853  0.7482 -0.5316
   98SAPE  H12A 9777   0.777   6.654   7.518 -1.3565 -0.4580  0.4869
   98SAPE  H12B 9778   0.679   6.573   7.383 -0.5520  1.3147 -1.5522
   98SAPE   C11 9779   0.908   6.620   7.349  0.4066  0.3801 -0.4688
   98SAPE  H11A 9780   0.993   6.623   7.422 -0.9420 -0.7243  1.2286
   98SAPE  H11B 9781   0.878   6.715   7.300 -3.1640  0.0651  0.7947
   98SAPE     P 9782   0.896   6.538   7.098  0.3246 -0.2371  0.0759
   98SAPE   O13 9783   0.980   6.643   7.038 -0.0614  0.7352  0.1721
   98SAPE   O14 9784   0.896   6.404   7.048  0.0176 -0.4643 -0.3041
   98SAPE   O12 9785   0.935   6.521   7.249  0.0130  0.6688  0.4105
   98SAPE   O11 9786   0.749   6.587   7.110 -0.6409 -0.4357 -0.1588
   98SAPE    C1 9787   0.648   6.536   7.031  0.1546  0.1277 -0.0022
   98SAPE    HA 9788   0.670   6.435   6.988 -2.3640 -0.6037  0.2386
   98SAPE    HB 9789   0.558   6.529   7.095 -0.2077 -2.2411 -0.6500
   98SAPE    C2 9790   0.613   6.641   6.926 -0.3028  0.4766  0.9151
   98SAPE    HS 9791   0.528   6.601   6.867  0.0184 -0.3949  1.0324
   98SAPE   O21 9792   0.723   6.658   6.839 -0.3428  0.1979 -0.1407
   98SAPE   C21 9793   0.735   6.561   6.752  0.8574 -0.8218  0.1710
   98SAPE   O22 9794   0.646   6.477   6.728 -0.0825 -0.3274  0.0425
   98SAPE   C22 9795   0.857   6.591   6.664 -0.2753  0.1521 -0.1590
   98SAPE   H2R 9796   0.865   6.700   6.650  0.2807 -0.1372 -2.4134
   98SAPE   H2S 9797   0.942   6.556   6.727 -0.5475  1.4756  0.9941
   98SAPE    C3 9798   0.567   6.769   6.996  0.0644  0.0327 -0.3786
   98SAPE    HX 9799   0.644   6.822   7.057 -2.3643  3.5725 -0.0746
   98SAPE    HY 9800   0.490   6.736   7.068  0.8102  0.4408  0.6414
   98SAPE   O31 9801   0.508   6.848   6.888 -0.1815 -0.1571  0.8154
   98SAPE   C31 9802   0.581   6.952   6.835 -0.9530 -0.3757 -0.2283
   98SAPE   O32 9803   0.698   6.973   6.853  0.3105 -0.2733  0.2021
   98SAPE   C32 9804   0.503   7.029   6.724  0.4213 -0.1203 -0.5575
   98SAPE   H2X 9805   0.491   7.131   6.767  1.4027 -0.2060 -0.0488
   98SAPE   H2Y 9806   0.399   6.989   6.724 -0.2535  1.5575 -0.4859
   98SAPE   C23 9807   0.870   6.517   6.525  0.9870 -0.9922  0.7372
   98SAPE   H3R 9808   0.812   6.572   6.448  0.9519 -1.2021  0.6135
   98SAPE   H3S 9809   0.832   6.415   6.549  0.8807 -0.7777  1.5181
   98SAPE   C24 9810   1.009   6.483   6.478 -0.7300 -0.3470  0.4015
   98SAPE   H4R 9811   1.009   6.400   6.404 -0.9366  0.0688 -0.0661
   98SAPE   H4S 9812   1.065   6.445   6.566  0.1117  1.0172  0.4820
   98SAPE   C25 9813   1.066   6.607   6.420 -0.5875 -0.3840  0.5384
   98SAPE   H5R 9814   1.101   6.682   6.493 -0.3751 -1.7927  1.9395
   98SAPE   C26 9815   1.065   6.640   6.290 -0.5794  0.1143 -0.6361
   98SAPE   H6R 9816   1.105   6.738   6.260 -0.2616 -0.6254 -2.7863
   98SAPE   C27 9817   1.023   6.547   6.176 -0.4677 -0.4864  0.0101
   98SAPE   H7R 9818   0.913   6.560   6.164 -0.8387 -3.5374 -0.6047
   98SAPE   H7S 9819   1.024   6.438   6.195  1.5651 -0.4982  0.1184
   98SAPE   C28 9820   1.100   6.551   6.043 -0.3346 -0.4006 -0.3791
   98SAPE   H8R 9821   1.207   6.524   6.041  0.2809  1.0254  3.4147
   98SAPE   C29 9822   1.049   6.587   5.921 -0.3621 -0.4118  0.4480
   98SAPE   H9R 9823   1.126   6.600   5.843  0.3803 -2.1586  0.8497
   98SAPE  C210 9824   0.907   6.635   5.877 -0.1803  0.7576 -0.6093
   98SAPE  H10R 9825   0.827   6.601   5.946  0.3203  0.5299 -0.1296
   98SAPE  H10S 9826   0.881   6.590   5.779 -0.7262 -0.7077  0.1666
   98SAPE  C211 9827   0.898   6.781   5.849  0.2941  0.5441 -0.0452
   98SAPE  H11R 9828   0.853   6.840   5.931 -2.6756  0.2432 -1.3065
   98SAPE  C212 9829   0.923   6.846   5.734  0.3166  0.7385 -0.2155
   98SAPE  H12R 9830   0.914   6.956   5.732  0.1407  0.7204 -1.3868
   98SAPE  C213 9831   0.972   6.783   5.607  0.5605 -0.0173 -0.2467
   98SAPE  H13R 9832   1.005   6.678   5.624  0.1247 -0.8248 -3.6483
   98SAPE  H13S 9833   1.063   6.827   5.560  1.1535 -0.6154  0.3072
   98SAPE  C214 9834   0.855   6.790   5.509  0.0646 -0.0175  0.8277
   98SAPE  H14R 9835   0.805   6.888   5.504  0.2777  0.1255  1.4179
   98SAPE  C215 9836   0.810   6.694   5.425 -0.1317  0.0630  0.0081
   98SAPE  H15R 9837   0.716   6.705   5.370 -0.3486 -0.6376  0.2348
   98SAPE  C216 9838   0.878   6.555   5.407  0.9918  0.6718  0.5235
   98SAPE  H16R 9839   0.806   6.477   5.440 -0.9561  2.6781  1.2601
   98SAPE  H16S 9840   0.968   6.537   5.470 -0.4690 -0.9020  2.2895
   98SAPE  C217 9841   0.921   6.536   5.256 -0.2189  0.2015 -0.1785
   98SAPE  H17R 9842   1.001   6.605   5.222 -1.0674  1.2136 -0.1734
   98SAPE  H17S 9843   0.834   6.560   5.190  0.0868 -2.2672 -1.6351
   98SAPE  C218 9844   0.978   6.393   5.229 -0.4672  0.5225  0.7214
   98SAPE  H18R 9845   0.896   6.318   5.237  1.1318 -1.4724 -0.7336
   98SAPE  H18S 9846   1.066   6.365   5.290 -0.6835 -3.4939 -0.5762
   98SAPE  C219 9847   1.025   6.388   5.081  0.3289  1.0807  0.4195
   98SAPE  H19R 9848   1.091   6.475   5.062  1.1141  0.3483 -0.3570
   98SAPE  H19S 9849   0.932   6.409   5.025 -0.4591 -3.9776 -0.7117
   98SAPE  C220 9850   1.075   6.255   5.027 -0.0350  0.0721  0.1346
   98SAPE  H20R 9851   1.180   6.241   5.060  0.0075  0.4195  0.1505
   98SAPE  H20S 9852   1.063   6.253   4.917 -4.3999  1.3919  0.3991
   98SAPE  H20T 9853   1.020   6.174   5.081  0.6553 -0.7627 -0.3894
   98SAPE   C33 9854   0.567   7.018   6.581  0.2038 -0.0272  0.2374
   98SAPE   H3X 9855   0.657   7.085   6.587  0.7064 -0.7054  0.3991
   98SAPE   H3Y 9856   0.508   7.071   6.504  1.3249 -0.0797 -0.6873
   98SAPE   C34 9857   0.615   6.884   6.524 -0.4540  0.7822 -0.6321
   98SAPE   H4X 9858   0.524   6.821   6.530  0.8997 -1.1006  2.0427
   98SAPE   H4Y 9859   0.698   6.846   6.588 -1.0242  1.2257  0.3865
   98SAPE   C35 9860   0.668   6.905   6.379  0.4679 -0.1361  0.3739
   98SAPE   H5X 9861   0.711   6.807   6.348  1.5018  0.6635 -0.8541
   98SAPE   H5Y 9862   0.752   6.978   6.379  1.0480 -0.7138  2.9520
   98SAPE   C36 9863   0.561   6.945   6.274 -0.5365 -0.1101 -0.0557
   98SAPE   H6X 9864   0.528   7.051   6.281 -1.7807 -0.5223  0.8438
   98SAPE   H6Y 9865   0.471   6.879   6.273 -0.5407 -0.0950 -0.8061
   98SAPE   C37 9866   0.611   6.932   6.130  0.6888  0.1520  0.6344
   98SAPE   H7X 9867   0.666   6.837   6.118  0.0837  0.0004 -1.2984
   98SAPE   H7Y 9868   0.693   7.003   6.105  1.6339 -2.0566 -3.3513
   98SAPE   C38 9869   0.504   6.958   6.022  0.2888  0.0167 -0.1670
   98SAPE   H8X 9870   0.469   7.063   6.030  0.1183  0.0509 -1.2342
   98SAPE   H8Y 9871   0.412   6.897   6.039 -1.5965  1.9796 -2.5206
   98SAPE   C39 9872   0.563   6.931   5.883  0.1713 -0.3552 -0.3541
   98SAPE   H9X 9873   0.578   6.821   5.879 -1.2713 -0.6021  0.3425
   98SAPE   H9Y 9874   0.661   6.982   5.881  0.1900 -0.3927 -0.4132
   98SAPE  C310 9875   0.484   6.983   5.767 -0.0561 -0.0746 -0.0778
   98SAPE  H10X 9876   0.465   7.092   5.771 -0.8446 -0.1950 -0.4322
   98SAPE  H10Y 9877   0.391   6.924   5.754 -0.5397  0.7073 -0.1859
   98SAPE  C311 9878   0.568   6.970   5.638  0.6526  0.1361 -0.1028
   98SAPE  H11X 9879   0.634   6.885   5.663  0.2755 -0.0518  0.2608
   98SAPE  H11Y 9880   0.639   7.056   5.630  0.5587  0.0206 -3.0042
   98SAPE  C312 9881   0.479   6.957   5.517  0.0839  0.4213  0.2675
   98SAPE  H12X 9882   0.397   7.032   5.514  2.1590  2.7905 -1.6712
   98SAPE  H12Y 9883   0.434   6.855   5.516  0.7767  0.0913  1.2350
   98SAPE  C313 9884   0.555   6.975   5.382 -0.4653  0.3711 -0.0389
   98SAPE  H13X 9885   0.626   6.894   5.356  0.6854  1.5318 -0.5854
   98SAPE  H13Y 9886   0.624   7.062   5.389  1.6820 -1.0048 -2.4317
   98SAPE  C314 9887   0.465   7.001   5.267 -0.1235 -0.1094  0.3065
   98SAPE  H14X 9888   0.411   7.091   5.305  0.7706  0.3919  0.4339
   98SAPE  H14Y 9889   0.395   6.917   5.251  0.4850 -0.0802 -3.2537
   98SAPE  C315 9890   0.529   7.034   5.137  0.7378  0.2378  0.2740
   98SAPE  H15X 9891   0.604   7.111   5.162 -1.0640  1.2621  2.9691
   98SAPE  H15Y 9892   0.449   7.083   5.077  0.3764 -0.1464  0.4338
   98SAPE  C316 9893   0.574   6.917   5.051  0.7070 -0.8543 -0.3284
   98SAPE  H16X 9894   0.492   6.862   5.001  1.1180  0.4198 -2.5383
   98SAPE  H16Y 9895   0.624   6.855   5.129 -0.1769 -0.5966  0.4620
   98SAPE  C317 9896   0.669   6.965   4.942 -0.3635  0.5737 -0.4800
   98SAPE  H17X 9897   0.756   7.019   4.985 -0.6386 -0.9147  2.1106
   98SAPE  H17Y 9898   0.624   7.035   4.869  0.5357  0.3665 -1.2597
   98SAPE  C318 9899   0.721   6.839   4.866  0.2082  0.1842 -0.1716
   98SAPE  H18X 9900   0.793   6.786   4.931 -2.6764 -0.6059  2.6660
   98SAPE  H18Y 9901   0.766   6.871   4.770 -0.0217  2.6299  0.4708
   98SAPE  H18Z 9902   0.642   6.765   4.840 -2.2155  1.9230  1.6936
   99SAPE     N 9903   0.082   5.171   7.304 -0.3512 -0.6071  0.1199
   99SAPE   HN1 9904   0.076   5.246   7.376 -0.8656 -1.4958  1.0167
   99SAPE   HN2 9905   0.015   5.181   7.225 -0.5731 -1.1066  0.2399
   99SAPE   HN3 9906   0.076   5.085   7.362  2.3354 -1.3105 -0.5001
   99SAPE   C12 9907   0.221   5.194   7.236 -0.5576 -0.3876  0.1352
   99SAPE  H12A 9908   0.297   5.226   7.310 -0.8648  0.8980 -0.0819
   99SAPE  H12B 9909   0.220   5.272   7.157  5.2271  0.1242  0.1323
   99SAPE   C11 9910   0.265   5.068   7.146  0.4896  0.1139 -0.1133
   99SAPE  H11A 9911   0.355   5.095   7.086  0.4556 -2.6181 -1.5515
   99SAPE  H11B 9912   0.191   5.058   7.064  1.6083  0.5762 -1.2295
   99SAPE     P 9913   0.205   4.820   7.211  0.0639  0.0270 -0.0225
   99SAPE   O13 9914   0.240   4.730   7.325 -0.0040  0.0284  0.6400
   99SAPE   O14 9915   0.059   4.849   7.190  0.2640 -0.0680 -0.0880
   99SAPE   O12 9916   0.275   4.959   7.230 -0.0423  0.2179 -0.6797
   99SAPE   O11 9917   0.263   4.762   7.076  0.0548  0.5699  0.3317
   99SAPE    C1 9918   0.401   4.790   7.042 -0.3506  0.9761 -0.0765
   99SAPE    HA 9919   0.435   4.895   7.055  0.6329  0.6067  0.4231
   99SAPE    HB 9920   0.466   4.728   7.106 -1.7610 -1.5545 -0.9585
   99SAPE    C2 9921   0.441   4.759   6.892 -0.3642 -0.5695 -0.2938
   99SAPE    HS 9922   0.410   4.851   6.837  0.7571  0.1211  0.1901
   99SAPE   O21 9923   0.376   4.639   6.853  0.6170 -0.0221 -0.0302
   99SAPE   C21 9924   0.309   4.638   6.743  0.2064  0.0998  0.3470
   99SAPE   O22 9925   0.288   4.732   6.670 -0.1982  0.2521  0.5821
   99SAPE   C22 9926   0.272   4.488   6.707 -0.0466 -0.2508 -0.1741
   99SAPE   H2R 9927   0.354   4.417   6.729  0.2859  0.4790  1.0515
   99SAPE   H2S 9928   0.190   4.476   6.781  1.6159  0.9883  2.0078
   99SAPE    C3 9929   0.593   4.744   6.880 -0.9244  0.5360  0.7541
   99SAPE    HX 9930   0.628   4.664   6.948  1.1706  2.6673  2.3459
   99SAPE    HY 9931   0.636   4.840   6.914 -0.9363  0.4702  0.9566
   99SAPE   O31 9932   0.635   4.713   6.743 -0.0656  0.2585  0.1703
   99SAPE   C31 9933   0.655   4.816   6.663  0.2959  0.1552 -0.2825
   99SAPE   O32 9934   0.654   4.932   6.703 -0.3692  0.3676  0.4841
   99SAPE   C32 9935   0.694   4.764   6.525 -0.5036 -0.3707 -0.3749
   99SAPE   H2X 9936   0.603   4.750   6.462 -0.6786 -2.3988  0.2529
   99SAPE   H2Y 9937   0.732   4.660   6.530 -0.6360 -0.3858  0.3349
   99SAPE   C23 9938   0.203   4.484   6.572  0.6146 -0.3381 -0.1110
   99SAPE   H3R 9939   0.117   4.553   6.579  1.5701  1.1054 -1.8496
   99SAPE   H3S 9940   0.175   4.377   6.560  1.1202 -0.3129 -1.7849
   99SAPE   C24 9941   0.296   4.518   6.448 -0.1673  0.7160 -0.1373
   99SAPE   H4R 9942   0.319   4.627   6.451  0.8605  0.5199 -0.4306
   99SAPE   H4S 9943   0.235   4.490   6.360 -1.5539 -1.1482  1.3433
   99SAPE   C25 9944   0.433   4.459   6.431  0.3329 -0.3964  0.7031
   99SAPE   H5R 9945   0.473   4.393   6.510 -0.4374 -2.0225 -0.2094
   99SAPE   C26 9946   0.521   4.490   6.326  0.3513 -0.3154 -0.8118
   99SAPE   H6R 9947   0.616   4.434   6.325 -0.5743 -2.0354  0.7648
   99SAPE   C27 9948   0.471   4.585   6.220 -0.2280 -0.0769  0.1557
   99SAPE   H7R 9949   0.421   4.672   6.268 -1.2454 -0.7537  0.3580
   99SAPE   H7S 9950   0.392   4.532   6.164  0.6367  0.6912 -1.8877
   99SAPE   C28 9951   0.591   4.628   6.134  0.5699  0.4882 -0.0931
   99SAPE   H8R 9952   0.692   4.596   6.163  0.5771  0.1356 -0.5046
   99SAPE   C29 9953   0.583   4.712   6.032 -0.3240  0.3700 -0.0580
   99SAPE   H9R 9954   0.674   4.747   5.981  0.0802 -0.4928  0.0571
   99SAPE  C210 9955   0.453   4.762   5.975 -0.0189 -0.1934  0.5767
   99SAPE  H10R 9956   0.382   4.786   6.057  1.5921  0.3644  1.8697
   99SAPE  H10S 9957   0.399   4.698   5.902  0.8001  0.7409 -0.8872
   99SAPE  C211 9958   0.486   4.893   5.907  0.3226  0.0350 -0.3138
   99SAPE  H11R 9959   0.529   4.965   5.978  1.9463 -0.1071 -1.1119
   99SAPE  C212 9960   0.462   4.926   5.779  0.1740 -0.4280  0.3691
   99SAPE  H12R 9961   0.484   5.031   5.754 -0.3990  0.2802  2.6431
   99SAPE  C213 9962   0.396   4.841   5.677  0.1405  0.3812  0.0419
   99SAPE  H13R 9963   0.287   4.834   5.698  0.5006 -2.7237  1.3708
   99SAPE  H13S 9964   0.426   4.735   5.691 -1.6789 -0.1710  0.0408
   99SAPE  C214 9965   0.425   4.886   5.537  0.0531 -0.1127  0.3802
   99SAPE  H14R 9966   0.349   4.947   5.486  0.9953 -0.2870 -1.3199
   99SAPE  C215 9967   0.548   4.875   5.476  0.6674 -1.4173 -0.5602
   99SAPE  H15R 9968   0.568   4.933   5.385  0.2379  1.0843  0.8541
   99SAPE  C216 9969   0.666   4.808   5.533 -0.2647  0.5498  0.1481
   99SAPE  H16R 9970   0.702   4.735   5.457  0.1832 -0.3752  1.2171
   99SAPE  H16S 9971   0.656   4.742   5.622  1.4369 -1.8681 -1.3398
   99SAPE  C217 9972   0.777   4.905   5.573 -0.0040  0.3258 -0.4392
   99SAPE  H17R 9973   0.864   4.851   5.615 -0.5395  0.9255  1.5367
   99SAPE  H17S 9974   0.738   4.976   5.649 -2.4299 -0.8226 -0.5233
   99SAPE  C218 9975   0.824   4.999   5.458 -0.0091  0.3442 -0.6491
   99SAPE  H18R 9976   0.925   5.030   5.494 -0.3330 -0.0005  0.6064
   99SAPE  H18S 9977   0.760   5.090   5.452  0.1177  0.3601 -2.2033
   99SAPE  C219 9978   0.846   4.945   5.317  0.2398 -0.3129  0.0761
   99SAPE  H19R 9979   0.764   4.872   5.300  0.7966 -1.1025  0.7419
   99SAPE  H19S 9980   0.935   4.879   5.319  0.4649 -0.1113 -1.8584
   99SAPE  C220 9981   0.852   5.058   5.215  0.2773  0.1193  0.2282
   99SAPE  H20R 9982   0.757   5.114   5.218  0.2218  0.0250  2.5062
   99SAPE  H20S 9983   0.864   5.021   5.111  2.0754  0.7337  0.1686
   99SAPE  H20T 9984   0.935   5.130   5.236 -1.3874  2.8610 -2.0062
   99SAPE   C33 9985   0.795   4.855   6.441  0.9727 -0.7313 -0.0067
   99SAPE   H3X 9986   0.899   4.843   6.478  1.1903 -0.1863 -0.4211
   99SAPE   H3Y 9987   0.760   4.959   6.459 -1.1173 -0.8429 -2.9137
   99SAPE   C34 9988   0.790   4.835   6.293 -0.8120  0.7211 -0.0101
   99SAPE   H4X 9989   0.687   4.845   6.254 -0.2445  0.1162 -1.7606
   99SAPE   H4Y 9990   0.834   4.740   6.255  0.5959  1.4876 -0.4141
   99SAPE   C35 9991   0.874   4.946   6.226  0.2341 -0.4773 -0.0330
   99SAPE   H5X 9992   0.979   4.940   6.262 -0.5835  1.5970  3.0773
   99SAPE   H5Y 9993   0.823   5.041   6.253  0.0393 -0.6971  0.3729
   99SAPE   C36 9994   0.870   4.942   6.074 -0.5445 -0.5677  0.6300
   99SAPE   H6X 9995   0.776   4.980   6.028  0.5216  1.9463  0.3739
   99SAPE   H6Y 9996   0.897   4.842   6.032 -0.5771  0.9891 -3.5906
   99SAPE   C37 9997   0.973   5.040   6.021 -0.8974  0.0996  0.6368
   99SAPE   H7X 9998   1.077   5.033   6.060 -0.7220 -0.7730  0.0277
   99SAPE   H7Y 9999   0.941   5.146   6.036  1.4963  1.1568 -1.0702
   99SAPE   C3810000   0.968   5.024   5.869 -0.2458  0.5530  0.1149
   99SAPE   H8X10001   0.868   5.044   5.825 -0.6515 -0.9510  0.2848
   99SAPE   H8Y10002   0.976   4.914   5.851  2.1732  0.2777  2.2068
   99SAPE   C3910003   1.081   5.091   5.799 -0.0010  0.0042 -0.3269
   99SAPE   H9X10004   1.077   5.053   5.695 -1.0192  0.0422 -0.3105
   99SAPE   H9Y10005   1.180   5.065   5.842  0.5959 -0.0995 -1.7159
   99SAPE  C31010006   1.079   5.245   5.806 -0.8484  0.0748  0.1220
   99SAPE  H10X10007   1.091   5.268   5.914  0.9365 -4.1013  1.0017
   99SAPE  H10Y10008   0.989   5.290   5.759 -1.1604  0.9984  1.5436
   99SAPE  C31110009   1.194   5.301   5.722 -0.0788 -0.7719  0.0626
   99SAPE  H11X10010   1.278   5.227   5.722 -0.2651 -0.9857  0.4142
   99SAPE  H11Y10011   1.230   5.398   5.762  1.2618 -0.8969 -0.7794
   99SAPE  C31210012   1.163   5.331   5.577  0.0782  0.4252 -0.1357
   99SAPE  H12X10013   1.123   5.232   5.547  1.4289 -0.6046  1.2870
   99SAPE  H12Y10014   1.257   5.350   5.520 -1.3742  2.7993 -1.8947
   99SAPE  C31310015   1.061   5.440   5.544 -0.0710 -0.3382  0.0888
   99SAPE  H13X10016   1.086   5.535   5.594  0.7473 -1.8013  2.6588
   99SAPE  H13Y10017   0.967   5.414   5.597  0.5343 -0.0204  1.3497
   99SAPE  C31410018   1.043   5.469   5.392 -0.3633  0.3067 -0.8517
   99SAPE  H14X10019   0.956   5.534   5.366 -0.3708  0.1363 -1.2601
   99SAPE  H14Y10020   1.016   5.371   5.348 -2.1222 -0.1550  1.0864
   99SAPE  C31510021   1.168   5.502   5.306  0.2148 -0.3713  0.2721
   99SAPE  H15X10022   1.252   5.434   5.331  0.7631  0.5565  1.0140
   99SAPE  H15Y10023   1.202   5.607   5.322 -1.7470  0.6605 -1.7485
   99SAPE  C31610024   1.150   5.476   5.156  0.1497 -0.0896  0.4996
   99SAPE  H16X10025   1.247   5.496   5.106  1.4696 -3.0268  1.6181
   99SAPE  H16Y10026   1.077   5.552   5.121  1.7475  0.6988 -1.3044
   99SAPE  C31710027   1.105   5.331   5.115  0.1890 -0.0551  0.9718
   99SAPE  H17X10028   0.997   5.316   5.135 -0.1565  0.3324 -0.4511
   99SAPE  H17Y10029   1.165   5.270   5.185  1.0596  0.0235  0.3187
   99SAPE  C31810030   1.126   5.304   4.961 -0.3233  0.0945 -0.0510
   99SAPE  H18X10031   1.104   5.199   4.935 -1.7737 -0.7006  3.6904
   99SAPE  H18Y10032   1.234   5.322   4.942 -0.2734  0.1118  0.2426
   99SAPE  H18Z10033   1.069   5.375   4.897  0.1640 -0.1845 -0.8162
  100SAPE     N10034   6.207   3.540   6.900 -0.8106 -0.0278  0.0417
  100SAPE   HN110035   6.183   3.484   6.815  1.7467  1.1522 -1.5782
  100SAPE   HN210036   6.116   3.574   6.937 -0.6102  1.9113 -1.0936
  100SAPE   HN310037   6.263   3.619   6.861 -1.4189  0.6581  0.5328
  100SAPE   C1210038   6.274   3.478   7.019  0.4419  0.2827  0.0833
  100SAPE  H12A10039   6.277   3.552   7.101  0.8441  0.6655 -0.2737
  100SAPE  H12B10040   6.371   3.432   6.989  0.3891  0.1124  0.1742
  100SAPE   C1110041   6.184   3.364   7.081 -1.1344 -0.2143 -0.3845
  100SAPE  H11A10042   6.095   3.424   7.109  0.5763  1.3966  2.0050
  100SAPE  H11B10043   6.240   3.320   7.166 -1.0135  3.9418  1.9326
  100SAPE     P10044   6.073   3.143   7.037  0.0442 -0.1757 -0.2883
  100SAPE   O1310045   6.159   3.093   7.151  0.7650  0.0795  0.0382
  100SAPE   O1410046   5.932   3.178   7.074  0.0917  0.1077 -0.4365
  100SAPE   O1210047   6.145   3.270   6.979  0.2231  0.3162 -0.2860
  100SAPE   O1110048   6.070   3.043   6.915  0.1532 -0.3261  0.1421
  100SAPE    C110049   6.183   3.020   6.827 -0.3875  0.4192 -0.3214
  100SAPE    HA10050   6.273   3.055   6.882 -0.6649  3.5004 -1.6220
  100SAPE    HB10051   6.203   2.914   6.800  0.8936  0.9665 -1.6541
  100SAPE    C210052   6.194   3.104   6.693 -0.4998  0.4845  0.4184
  100SAPE    HS10053   6.199   3.209   6.730 -1.4591  0.3755  0.8823
  100SAPE   O2110054   6.076   3.082   6.623 -0.2666 -0.4015 -0.0677
  100SAPE   C2110055   6.026   3.178   6.543  0.0196 -0.1319  0.4812
  100SAPE   O2210056   6.075   3.284   6.529 -0.0887 -0.1389 -0.0409
  100SAPE   C2210057   5.895   3.124   6.478 -0.2360 -0.4486 -0.1959
  100SAPE   H2R10058   5.866   3.025   6.519 -1.7301  0.9554  2.3861
  100SAPE   H2S10059   5.817   3.200   6.503  0.0091  0.1894 -1.3147
  100SAPE    C310060   6.311   3.071   6.604  0.3276  0.7087  1.2155
  100SAPE    HX10061   6.303   2.962   6.585 -0.3786  0.5591  2.2983
  100SAPE    HY10062   6.409   3.078   6.657  2.7932 -0.2626 -2.7669
  100SAPE   O3110063   6.312   3.144   6.477  0.0810  0.1083  0.4462
  100SAPE   C3110064   6.395   3.247   6.479  0.1442  0.3945 -0.6230
  100SAPE   O3210065   6.458   3.291   6.580 -0.1734  0.4381  1.3274
  100SAPE   C3210066   6.410   3.306   6.339  0.5236  0.1003  0.4973
  100SAPE   H2X10067   6.358   3.404   6.340  3.7841  2.0530 -1.3208
  100SAPE   H2Y10068   6.365   3.233   6.268  0.4556 -1.2586  1.8916
  100SAPE   C2310069   5.915   3.127   6.330 -0.1934  0.3978  0.2998
  100SAPE   H3R10070   5.936   3.230   6.293 -1.3412  0.8680  0.8987
  100SAPE   H3S10071   5.816   3.108   6.284  0.3155 -2.3446  0.1603
  100SAPE   C2410072   6.009   3.022   6.282  0.3607  0.6178 -0.0944
  100SAPE   H4R10073   6.109   3.051   6.323 -1.0456 -0.0833  4.3742
  100SAPE   H4S10074   6.021   3.036   6.173 -0.3162  2.7895  0.0690
  100SAPE   C2510075   5.981   2.869   6.306  0.2067  0.0951 -0.2181
  100SAPE   H5R10076   5.873   2.850   6.308 -0.2042  1.9731 -1.4400
  100SAPE   C2610077   6.065   2.771   6.340 -0.0731  0.2106  0.1313
  100SAPE   H6R10078   6.029   2.668   6.356 -1.3253  0.6964  0.5428
  100SAPE   C2710079   6.214   2.788   6.348 -0.2451 -0.1671 -0.4266
  100SAPE   H7R10080   6.234   2.892   6.379  2.4606 -1.0357  1.0633
  100SAPE   H7S10081   6.258   2.788   6.246  1.7200 -3.2868  0.2656
  100SAPE   C2810082   6.272   2.694   6.448 -0.0565 -0.1810  0.6431
  100SAPE   H8R10083   6.272   2.736   6.549  0.3745 -0.1892  0.6465
  100SAPE   C2910084   6.360   2.595   6.415  0.0772  1.1426  0.3426
  100SAPE   H9R10085   6.411   2.541   6.496 -2.3773 -0.7408  0.7989
  100SAPE  C21010086   6.378   2.543   6.269  0.4120 -0.6769 -0.7109
  100SAPE  H10R10087   6.378   2.628   6.198  0.0934 -0.5660 -0.5825
  100SAPE  H10S10088   6.290   2.481   6.240  0.4654 -1.9635  1.6255
  100SAPE  C21110089   6.507   2.464   6.246 -0.4415  0.0245 -0.1952
  100SAPE  H11R10090   6.553   2.445   6.344 -0.7254  2.2756  0.4237
  100SAPE  C21210091   6.573   2.426   6.137  0.3445  0.1228  0.0239
  100SAPE  H12R10092   6.664   2.365   6.144  0.0187 -0.2170  1.7664
  100SAPE  C21310093   6.527   2.438   5.989 -0.7189 -0.2562 -0.6645
  100SAPE  H13R10094   6.424   2.476   5.971 -1.3229 -1.4123  0.2222
  100SAPE  H13S10095   6.530   2.336   5.946  0.4020 -0.4238 -0.2314
  100SAPE  C21410096   6.621   2.525   5.910  0.2484  0.3519 -0.2648
  100SAPE  H14R10097   6.714   2.562   5.956  0.6262  0.8750 -1.4188
  100SAPE  C21510098   6.599   2.581   5.787 -0.8069 -0.4582  0.5535
  100SAPE  H15R10099   6.677   2.638   5.736 -1.2280  0.8013  1.2767
  100SAPE  C21610100   6.485   2.555   5.694  0.0652 -0.1000  0.6192
  100SAPE  H16R10101   6.466   2.631   5.615  0.7502  0.6387  1.1484
  100SAPE  H16S10102   6.398   2.560   5.763  0.6233 -2.4607  1.5801
  100SAPE  C21710103   6.511   2.419   5.623  0.4502 -0.7067  0.1389
  100SAPE  H17R10104   6.437   2.397   5.543  1.0323  0.1366 -0.6502
  100SAPE  H17S10105   6.500   2.346   5.706 -0.6159 -1.5609 -0.7311
  100SAPE  C21810106   6.650   2.395   5.559  0.0562  0.0109  0.3148
  100SAPE  H18R10107   6.649   2.285   5.540 -0.5131  0.4597 -2.8222
  100SAPE  H18S10108   6.725   2.422   5.636 -0.8845  1.5844  0.7153
  100SAPE  C21910109   6.671   2.476   5.430  0.1394 -0.5355  0.4308
  100SAPE  H19R10110   6.637   2.581   5.437 -0.4993 -0.5544 -1.7176
  100SAPE  H19S10111   6.607   2.445   5.345 -0.1791  0.0276  0.4584
  100SAPE  C22010112   6.820   2.471   5.383 -0.3801 -0.2329  0.3122
  100SAPE  H20R10113   6.830   2.513   5.281 -0.9328 -1.9869 -0.4840
  100SAPE  H20S10114   6.841   2.363   5.369 -1.1496 -0.7379  2.5417
  100SAPE  H20T10115   6.875   2.516   5.469  0.4770  0.6270 -0.6559
  100SAPE   C3310116   6.554   3.335   6.298  0.0740  0.2786 -0.2434
  100SAPE   H3X10117   6.626   3.260   6.337 -0.1408 -0.7277 -1.6991
  100SAPE   H3Y10118   6.593   3.428   6.343  1.5205 -0.0901 -0.7011
  100SAPE   C3410119   6.578   3.356   6.147  0.2585 -0.5763 -0.4164
  100SAPE   H4X10120   6.541   3.266   6.095  0.7497 -1.1094  0.1430
  100SAPE   H4Y10121   6.689   3.363   6.145  0.2137  0.1956 -1.0118
  100SAPE   C3510122   6.508   3.481   6.098  0.0266  0.3263 -1.0389
  100SAPE   H5X10123   6.549   3.571   6.148  1.9059  0.7320 -3.1783
  100SAPE   H5Y10124   6.400   3.481   6.125  0.7174 -2.0704  2.4569
  100SAPE   C3610125   6.528   3.528   5.953 -0.1719  0.4010  0.3444
  100SAPE   H6X10126   6.620   3.589   5.942  0.0501  1.1073  4.5310
  100SAPE   H6Y10127   6.436   3.589   5.939 -1.7373 -1.8980 -0.0561
  100SAPE   C3710128   6.532   3.417   5.859 -0.3669  0.5456 -0.3350
  100SAPE   H7X10129   6.437   3.361   5.875  0.1604 -1.0217 -2.2760
  100SAPE   H7Y10130   6.613   3.346   5.887 -0.7110 -0.2541 -1.2963
  100SAPE   C3810131   6.564   3.455   5.715 -0.1570 -0.4255 -0.0954
  100SAPE   H8X10132   6.512   3.547   5.681  2.7587  1.3471 -0.1291
  100SAPE   H8Y10133   6.530   3.371   5.651 -2.1890 -0.0982  0.4980
  100SAPE   C3910134   6.719   3.470   5.685  0.0014 -0.2723  0.3657
  100SAPE   H9X10135   6.774   3.379   5.716  0.3514  0.4195  1.8405
  100SAPE   H9Y10136   6.755   3.553   5.749  1.1262 -0.4980  0.0374
  100SAPE  C31010137   6.741   3.507   5.533  0.5870  0.5100 -0.2509
  100SAPE  H10X10138   6.848   3.532   5.524  0.9867  0.2102  2.6465
  100SAPE  H10Y10139   6.686   3.602   5.518  0.3457  0.4537  0.2387
  100SAPE  C31110140   6.694   3.401   5.434  0.9397 -0.2204 -1.1670
  100SAPE  H11X10141   6.583   3.398   5.437  0.9591 -2.3445 -0.0925
  100SAPE  H11Y10142   6.727   3.309   5.488 -0.0138  1.1054  1.8685
  100SAPE  C31210143   6.749   3.417   5.297  0.4169  0.7835  0.2741
  100SAPE  H12X10144   6.734   3.526   5.279 -2.8615  0.8730  2.5135
  100SAPE  H12Y10145   6.679   3.360   5.232 -0.1690  2.2261 -0.4145
  100SAPE  C31310146   6.891   3.359   5.283  0.2466 -0.0198  0.2868
  100SAPE  H13X10147   6.914   3.278   5.355 -1.8575 -2.5306 -1.6802
  100SAPE  H13Y10148   6.951   3.451   5.301 -2.0734  1.6450  0.0307
  100SAPE  C31410149   6.924   3.296   5.147 -0.0630  0.3409  0.3740
  100SAPE  H14X10150   6.962   3.373   5.077  0.1357 -1.6510 -1.8554
  100SAPE  H14Y10151   6.828   3.252   5.112  0.3105 -1.1599  1.1349
  100SAPE  C31510152   7.023   3.179   5.159 -0.1415  0.4133 -0.3729
  100SAPE  H15X10153   6.978   3.091   5.210  3.5746 -1.8918 -0.7015
  100SAPE  H15Y10154   7.098   3.202   5.238 -0.3104 -1.7221  0.4781
  100SAPE  C31610155   7.083   3.130   5.030  0.3241 -0.4370  0.3580
  100SAPE  H16X10156   7.175   3.070   5.051  0.7199 -0.0449 -0.2288
  100SAPE  H16Y10157   7.120   3.228   4.994 -0.7606 -0.1935 -0.1182
  100SAPE  C31710158   6.977   3.070   4.945  0.2653  0.3968  0.3186
  100SAPE  H17X10159   6.980   3.125   4.849  3.5995  2.5546  1.4958
  100SAPE  H17Y10160   6.874   3.100   4.977  1.0967  2.2028  1.4402
  100SAPE  C31810161   6.987   2.915   4.923  0.7052 -0.0905  0.0147
  100SAPE  H18X10162   6.896   2.864   4.883  1.7345 -1.0201 -1.2058
  100SAPE  H18Y10163   6.990   2.872   5.026 -1.2557 -0.3901 -0.0033
  100SAPE  H18Z10164   7.083   2.890   4.874  0.2762 -1.2543 -0.2723
  101SAPE     N10165   6.038   5.057   7.279 -0.7410  0.0866 -0.2163
  101SAPE   HN110166   6.028   4.976   7.344  2.2431 -0.6850 -0.5400
  101SAPE   HN210167   6.138   5.049   7.249 -0.7483 -0.0623 -0.2040
  101SAPE   HN310168   6.018   5.140   7.338 -3.4124 -1.3616  1.0672
  101SAPE   C1210169   5.935   5.052   7.167  0.2999 -0.3297  0.8594
  101SAPE  H12A10170   5.946   5.140   7.101 -1.1916 -2.5962 -2.6852
  101SAPE  H12B10171   5.835   5.053   7.215  0.5884  1.6498  1.4916
  101SAPE   C1110172   5.959   4.931   7.076  0.5719 -0.0051 -0.1023
  101SAPE  H11A10173   6.050   4.944   7.013  0.7223  1.1599  0.3501
  101SAPE  H11B10174   5.874   4.928   7.005 -2.1572  0.1712  2.9439
  101SAPE     P10175   5.883   4.688   7.162  0.2275  0.1555  0.3776
  101SAPE   O1310176   5.951   4.589   7.248  0.4344  0.0282 -0.6762
  101SAPE   O1410177   5.748   4.734   7.202  0.2405 -0.4506  0.0703
  101SAPE   O1210178   5.975   4.808   7.157  0.0962  0.4092  0.7349
  101SAPE   O1110179   5.874   4.644   7.012 -0.5020 -0.1749  0.1143
  101SAPE    C110180   5.954   4.532   6.973 -0.6879 -0.3486  0.6224
  101SAPE    HA10181   5.973   4.464   7.059  1.3773 -0.1620  0.3692
  101SAPE    HB10182   5.908   4.471   6.892  0.2622 -0.8296  0.4333
  101SAPE    C210183   6.094   4.573   6.924 -0.7517  0.2392 -0.1201
  101SAPE    HS10184   6.147   4.620   7.009  1.5680 -2.9967  0.4443
  101SAPE   O2110185   6.107   4.654   6.805  0.2209  0.2551 -0.5386
  101SAPE   C2110186   6.199   4.743   6.803 -0.0611  0.2874  0.2263
  101SAPE   O2210187   6.273   4.779   6.895 -0.2001 -0.2712  0.4000
  101SAPE   C2210188   6.202   4.802   6.663  0.6784  0.0102  0.4659
  101SAPE   H2R10189   6.104   4.784   6.613  0.9067  0.9442 -0.3339
  101SAPE   H2S10190   6.204   4.911   6.680  1.6370 -0.2257  2.1631
  101SAPE    C310191   6.172   4.442   6.888  0.1753  0.8823  0.2709
  101SAPE    HX10192   6.105   4.400   6.809  0.7476  0.7465 -0.1536
  101SAPE    HY10193   6.163   4.368   6.971 -1.7088 -0.1254 -0.7489
  101SAPE   O3110194   6.309   4.463   6.842  0.1945 -0.2969 -0.1685
  101SAPE   C3110195   6.399   4.454   6.938 -0.6639 -0.1730 -0.7683
  101SAPE   O3210196   6.378   4.430   7.054  0.1706  0.6059  0.3915
  101SAPE   C3210197   6.535   4.463   6.879  0.0259  0.6475 -0.1914
  101SAPE   H2X10198   6.609   4.434   6.957 -0.2675  0.5053  0.0403
  101SAPE   H2Y10199   6.564   4.569   6.865 -0.9101  0.8639 -0.5461
  101SAPE   C2310200   6.315   4.763   6.576 -0.1043 -0.1671 -0.2796
  101SAPE   H3R10201   6.404   4.789   6.638 -0.9991  0.6962  0.6794
  101SAPE   H3S10202   6.338   4.828   6.489  2.3103 -0.7271 -0.1514
  101SAPE   C2410203   6.316   4.612   6.531  0.0940 -0.1014  0.3171
  101SAPE   H4R10204   6.303   4.546   6.620  1.6006 -1.2172 -0.2513
  101SAPE   H4S10205   6.418   4.582   6.499 -0.5700 -1.1569 -0.8815
  101SAPE   C2510206   6.209   4.585   6.428  0.0244  0.3874 -0.5317
  101SAPE   H5R10207   6.124   4.523   6.459 -0.4186 -0.1193 -2.6032
  101SAPE   C2610208   6.223   4.596   6.294 -0.2672  0.3694 -0.2862
  101SAPE   H6R10209   6.139   4.572   6.228 -1.6012  1.5192  0.8944
  101SAPE   C2710210   6.329   4.657   6.216 -0.5340 -0.3544 -0.3613
  101SAPE   H7R10211   6.390   4.718   6.287 -0.3872 -1.3982  0.4331
  101SAPE   H7S10212   6.283   4.733   6.150  1.5440  1.8893  0.6286
  101SAPE   C2810213   6.410   4.550   6.152 -0.1396  0.5851  0.4437
  101SAPE   H8R10214   6.489   4.502   6.211  1.0202  1.3377 -0.4446
  101SAPE   C2910215   6.401   4.513   6.027 -0.4599 -0.6825 -0.3647
  101SAPE   H9R10216   6.472   4.440   5.986  0.2881  0.0874 -0.4748
  101SAPE  C21010217   6.306   4.565   5.922  0.0154  0.4074  0.0278
  101SAPE  H10R10218   6.364   4.636   5.860  1.1703 -0.4357  0.1066
  101SAPE  H10S10219   6.221   4.620   5.968  0.0783  1.4787 -1.0956
  101SAPE  C21110220   6.247   4.448   5.838  0.4144  0.6801  0.3623
  101SAPE  H11R10221   6.172   4.392   5.896  1.5501 -0.0979  1.1409
  101SAPE  C21210222   6.267   4.406   5.714  1.0154  0.8858 -0.0496
  101SAPE  H12R10223   6.208   4.319   5.684  1.6424 -0.2683  1.8922
  101SAPE  C21310224   6.366   4.465   5.613  0.0673 -0.5691  0.1413
  101SAPE  H13R10225   6.408   4.563   5.644  0.0669  0.4876 -2.8574
  101SAPE  H13S10226   6.309   4.496   5.523 -0.3220  1.3798  1.0073
  101SAPE  C21410227   6.481   4.366   5.592 -0.2864 -0.0698 -0.0681
  101SAPE  H14R10228   6.541   4.344   5.682 -0.0932 -0.0190 -0.1866
  101SAPE  C21510229   6.498   4.297   5.480 -0.2540  0.1700  0.1734
  101SAPE  H15R10230   6.584   4.229   5.473  0.9767  1.6453  0.2639
  101SAPE  C21610231   6.426   4.303   5.356 -0.2542  0.7885 -0.2778
  101SAPE  H16R10232   6.327   4.352   5.375 -1.1101 -0.7344 -0.6897
  101SAPE  H16S10233   6.398   4.201   5.324  3.3194  0.0917 -1.5814
  101SAPE  C21710234   6.518   4.381   5.254  0.0373 -0.3509  0.7894
  101SAPE  H17R10235   6.552   4.478   5.296  0.2216 -0.8889  1.9166
  101SAPE  H17S10236   6.441   4.415   5.182 -1.4333 -1.4336  1.8053
  101SAPE  C21810237   6.632   4.309   5.189 -0.1572 -0.1329  0.2166
  101SAPE  H18R10238   6.597   4.218   5.136 -2.4617  1.1548 -0.6319
  101SAPE  H18S10239   6.706   4.287   5.269 -0.1223 -0.4355  0.1008
  101SAPE  C21910240   6.707   4.403   5.096 -0.2474 -0.7622  0.1296
  101SAPE  H19R10241   6.763   4.481   5.151  1.7882 -0.3429 -2.3467
  101SAPE  H19S10242   6.637   4.465   5.037 -2.0118 -1.5966  1.2818
  101SAPE  C22010243   6.808   4.335   5.004 -0.4390  0.4626 -0.0887
  101SAPE  H20R10244   6.756   4.260   4.942  0.8187 -0.1809 -0.3860
  101SAPE  H20S10245   6.876   4.273   5.065 -2.1462  0.4016  1.8772
  101SAPE  H20T10246   6.866   4.406   4.942 -0.6122  2.2583  1.6727
  101SAPE   C3310247   6.565   4.390   6.742  0.2817 -0.2958  0.3159
  101SAPE   H3X10248   6.665   4.435   6.722  0.5301  0.2838  2.6196
  101SAPE   H3Y10249   6.488   4.424   6.670  0.2668  0.5693  0.7292
  101SAPE   C3410250   6.593   4.242   6.761  0.1620  0.4038  0.1985
  101SAPE   H4X10251   6.511   4.197   6.822  0.3930 -4.0427 -2.3383
  101SAPE   H4Y10252   6.693   4.234   6.808  1.3041  0.9462 -2.0037
  101SAPE   C3510253   6.598   4.170   6.620  0.4020  0.2562  0.0522
  101SAPE   H5X10254   6.498   4.165   6.573 -0.0153  0.1242  0.9297
  101SAPE   H5Y10255   6.635   4.066   6.628 -1.8123 -0.5105  1.2040
  101SAPE   C3610256   6.694   4.248   6.528  0.2921 -0.0020  0.0965
  101SAPE   H6X10257   6.798   4.237   6.567  0.6793  0.6496 -0.7217
  101SAPE   H6Y10258   6.680   4.359   6.527 -0.6461 -0.1142 -0.1362
  101SAPE   C3710259   6.692   4.205   6.378  0.4744 -0.2483  0.0830
  101SAPE   H7X10260   6.595   4.229   6.329  0.0788 -0.1126  0.9266
  101SAPE   H7Y10261   6.698   4.094   6.373 -1.9047 -0.5421  1.9169
  101SAPE   C3810262   6.804   4.280   6.301  0.2311  0.2781  0.1161
  101SAPE   H8X10263   6.893   4.241   6.355  0.4249 -0.3064 -0.5990
  101SAPE   H8Y10264   6.801   4.387   6.331  0.9235 -0.0470  1.4316
  101SAPE   C3910265   6.792   4.255   6.150  0.1715 -0.3409 -0.0747
  101SAPE   H9X10266   6.690   4.283   6.115  0.1777 -0.9950 -0.6462
  101SAPE   H9Y10267   6.806   4.145   6.148  2.6160 -0.0822  0.4313
  101SAPE  C31010268   6.889   4.327   6.060 -0.0654 -0.2125  0.0686
  101SAPE  H10X10269   6.886   4.433   6.092 -2.0138 -0.3908  0.5915
  101SAPE  H10Y10270   6.848   4.323   5.957 -1.1720  0.1893  0.4871
  101SAPE  C31110271   7.036   4.275   6.059 -0.0277 -0.5203 -0.5412
  101SAPE  H11X10272   7.029   4.174   6.013 -0.6374  0.0450 -1.7244
  101SAPE  H11Y10273   7.073   4.263   6.164  0.7179  1.7206 -0.5009
  101SAPE  C31210274   7.129   4.367   5.972 -0.1488 -0.0115 -0.4047
  101SAPE  H12X10275   7.237   4.348   5.990  0.3369 -0.5382 -3.3869
  101SAPE  H12Y10276   7.107   4.473   5.995  2.2886  0.2576  1.0131
  101SAPE  C31310277   7.106   4.331   5.827 -0.1506 -0.2789 -0.2648
  101SAPE  H13X10278   7.017   4.385   5.790 -0.7999 -0.1307  1.4294
  101SAPE  H13Y10279   7.076   4.224   5.832  0.2382 -0.3678  0.2288
  101SAPE  C31410280   7.222   4.347   5.737  0.0915 -0.1046  0.4056
  101SAPE  H14X10281   7.320   4.316   5.778  0.7758  1.8852  0.3672
  101SAPE  H14Y10282   7.241   4.457   5.735 -0.6085  0.0087 -1.1677
  101SAPE  C31510283   7.194   4.291   5.590  0.1232  0.2673  0.1777
  101SAPE  H15X10284   7.092   4.324   5.562  0.5431  1.6864  0.2673
  101SAPE  H15Y10285   7.196   4.180   5.583 -0.1064  0.3812 -2.7356
  101SAPE  C31610286   7.289   4.350   5.493  0.0968 -0.5850  0.6053
  101SAPE  H16X10287   7.394   4.316   5.509 -0.2373 -1.2660  1.3963
  101SAPE  H16Y10288   7.304   4.460   5.502  2.6363 -0.7745 -0.4541
  101SAPE  C31710289   7.255   4.319   5.345 -0.2435 -0.4072 -0.4113
  101SAPE  H17X10290   7.344   4.328   5.279 -1.1501 -0.1012 -1.6360
  101SAPE  H17Y10291   7.187   4.392   5.296  2.1444  1.7663 -0.6765
  101SAPE  C31810292   7.214   4.170   5.312  0.3112 -0.5881  0.5557
  101SAPE  H18X10293   7.281   4.106   5.373  1.3497  1.0874  1.2204
  101SAPE  H18Y10294   7.239   4.154   5.205 -0.5330  0.3846  0.1943
  101SAPE  H18Z10295   7.108   4.154   5.341 -0.4167  1.2789 -0.8867
  102SAPE     N10296   5.854   4.192   7.420 -0.7549 -0.0376 -0.1352
  102SAPE   HN110297   5.888   4.100   7.386 -0.9532 -0.6773  1.3249
  102SAPE   HN210298   5.930   4.238   7.475 -1.2014  0.1867  0.3032
  102SAPE   HN310299   5.782   4.173   7.493 -0.7749 -1.4359 -0.4876
  102SAPE   C1210300   5.823   4.293   7.306  0.7435 -0.1212 -0.0878
  102SAPE  H12A10301   5.923   4.339   7.288  0.1227  1.5866  0.6081
  102SAPE  H12B10302   5.756   4.375   7.339  0.5448 -0.8334  1.3785
  102SAPE   C1110303   5.777   4.211   7.183  0.1297  0.0595 -0.4902
  102SAPE  H11A10304   5.754   4.278   7.097  1.6392 -1.1811 -1.9410
  102SAPE  H11B10305   5.684   4.160   7.216 -0.9812  1.6231 -1.0589
  102SAPE     P10306   6.004   4.129   7.058 -0.0738  0.0767 -0.4063
  102SAPE   O1310307   6.095   4.219   7.130 -0.8302  0.3631 -0.1378
  102SAPE   O1410308   6.045   3.989   7.027  0.7583  0.2574 -0.1151
  102SAPE   O1210309   5.874   4.117   7.143 -0.2669  0.5162  0.2123
  102SAPE   O1110310   5.950   4.189   6.921 -0.3609  0.3402 -0.7754
  102SAPE    C110311   5.866   4.110   6.841  1.1056  0.0157  0.3826
  102SAPE    HA10312   5.796   4.042   6.895  2.0215 -1.7732 -0.5810
  102SAPE    HB10313   5.790   4.177   6.796  0.0127 -1.0467  0.6005
  102SAPE    C210314   5.942   4.048   6.721  0.4409 -0.2590 -0.5604
  102SAPE    HS10315   6.011   3.984   6.779 -0.6379  0.1550  1.2377
  102SAPE   O2110316   6.005   4.161   6.653 -0.5268  0.0300 -0.0735
  102SAPE   C2110317   6.132   4.133   6.614  0.2644 -0.4141 -0.5550
  102SAPE   O2210318   6.193   4.031   6.643 -0.4810  0.5837 -0.1152
  102SAPE   C2210319   6.197   4.255   6.558 -0.3911  0.3267  0.2381
  102SAPE   H2R10320   6.126   4.340   6.551  0.3088  1.0871  1.7426
  102SAPE   H2S10321   6.274   4.287   6.631  0.2353 -0.7834  0.0935
  102SAPE    C310322   5.855   3.962   6.619  0.0537  0.5912 -0.1155
  102SAPE    HX10323   5.758   4.016   6.612 -1.2465 -1.4491  1.2565
  102SAPE    HY10324   5.845   3.865   6.671 -0.7435 -0.1093 -1.5025
  102SAPE   O3110325   5.905   3.953   6.495 -0.5025  0.3362 -0.3158
  102SAPE   C3110326   5.964   3.837   6.459  0.1116 -0.1717  0.0100
  102SAPE   O3210327   5.993   3.750   6.538 -0.2262  0.1939  0.2998
  102SAPE   C3210328   5.999   3.832   6.307 -0.3940  0.3182  0.2124
  102SAPE   H2X10329   6.083   3.902   6.287 -0.0689  0.0653  0.6631
  102SAPE   H2Y10330   5.915   3.857   6.240 -1.6183 -1.7298  0.9128
  102SAPE   C2310331   6.278   4.224   6.432 -0.3803  0.4883 -0.0890
  102SAPE   H3R10332   6.336   4.131   6.443 -0.7017  0.4112  1.0639
  102SAPE   H3S10333   6.354   4.302   6.411 -1.4484  1.3449 -0.9340
  102SAPE   C2410334   6.180   4.222   6.303  0.2161 -0.1854  0.1243
  102SAPE   H4R10335   6.140   4.326   6.301  0.2387 -0.1799 -0.1617
  102SAPE   H4S10336   6.097   4.150   6.316 -0.0602 -0.3983 -2.3168
  102SAPE   C2510337   6.245   4.201   6.170 -0.1362  0.7558  0.2988
  102SAPE   H5R10338   6.350   4.233   6.174  0.2555 -0.4913  0.5083
  102SAPE   C2610339   6.185   4.165   6.055 -0.0381  0.2280 -0.2201
  102SAPE   H6R10340   6.242   4.142   5.964 -0.1270 -0.8873 -0.0102
  102SAPE   C2710341   6.038   4.122   6.049 -0.0882 -0.0699  0.4514
  102SAPE   H7R10342   5.986   4.217   6.070  2.5490  1.5360  0.1562
  102SAPE   H7S10343   6.018   4.050   6.132  0.0261 -0.3393  0.2474
  102SAPE   C2810344   5.996   4.049   5.922  0.4902 -0.6023 -0.0981
  102SAPE   H8R10345   6.020   3.942   5.927  1.8549 -0.2875  0.7706
  102SAPE   C2910346   5.954   4.094   5.803  0.7927 -0.1042 -0.6184
  102SAPE   H9R10347   5.933   4.030   5.716 -2.7103 -1.1699  0.8315
  102SAPE  C21010348   5.922   4.238   5.766  0.6585  0.4915  0.0064
  102SAPE  H10R10349   5.987   4.249   5.676  1.4461 -2.0416  0.1771
  102SAPE  H10S10350   5.929   4.315   5.845 -0.5936  1.4888 -0.8191
  102SAPE  C21110351   5.784   4.264   5.717 -0.1735  0.0168 -0.0233
  102SAPE  H11R10352   5.715   4.294   5.797  0.7365  0.7895  0.4917
  102SAPE  C21210353   5.733   4.244   5.591 -0.1090  0.1567 -0.1208
  102SAPE  H12R10354   5.627   4.271   5.580 -0.5925 -1.0476  1.1521
  102SAPE  C21310355   5.807   4.197   5.468 -0.7678 -0.6271  0.3479
  102SAPE  H13R10356   5.906   4.248   5.471 -1.6816  1.2042  2.7139
  102SAPE  H13S10357   5.754   4.236   5.379  1.1317  1.7939  0.1805
  102SAPE  C21410358   5.830   4.048   5.450 -0.3445 -0.2060 -0.3294
  102SAPE  H14R10359   5.736   3.993   5.466 -0.5639  0.7106  1.9422
  102SAPE  C21510360   5.946   3.977   5.415  0.2164 -0.1112  0.1251
  102SAPE  H15R10361   5.955   3.868   5.399  0.9701 -0.5210  2.8637
  102SAPE  C21610362   6.079   4.048   5.405  0.5178  0.1593  0.1198
  102SAPE  H16R10363   6.082   4.139   5.470  1.9832  1.2009 -1.3283
  102SAPE  H16S10364   6.090   4.091   5.303  0.1488 -0.2730 -0.1036
  102SAPE  C21710365   6.197   3.961   5.438  0.8878  0.3025 -0.5666
  102SAPE  H17R10366   6.285   4.027   5.426  0.2089  2.0673  2.9565
  102SAPE  H17S10367   6.194   3.874   5.369  0.8391 -1.5269  1.6002
  102SAPE  C21810368   6.191   3.901   5.583 -0.0528  0.0950 -0.8114
  102SAPE  H18R10369   6.140   3.803   5.574 -0.4873  0.3218 -0.8107
  102SAPE  H18S10370   6.124   3.968   5.641  1.3921  0.1070  0.9433
  102SAPE  C21910371   6.328   3.871   5.653 -0.0670 -0.8312 -0.2653
  102SAPE  H19R10372   6.302   3.797   5.732 -1.1174  0.2912  0.4749
  102SAPE  H19S10373   6.364   3.963   5.704 -0.4102 -1.8132  1.8342
  102SAPE  C22010374   6.437   3.817   5.561  0.2809 -0.2388 -0.0419
  102SAPE  H20R10375   6.410   3.716   5.525 -2.3742 -0.4764  2.2806
  102SAPE  H20S10376   6.530   3.808   5.621  1.0896 -0.3720 -1.2737
  102SAPE  H20T10377   6.468   3.883   5.477 -1.3504  0.5528 -0.0619
  102SAPE   C3310378   6.056   3.689   6.267  0.3608 -0.5485  0.1333
  102SAPE   H3X10379   5.984   3.608   6.290  0.1649  0.2842  2.7619
  102SAPE   H3Y10380   6.145   3.669   6.330  0.8374  0.9051 -0.0301
  102SAPE   C3410381   6.082   3.684   6.112  0.0268 -0.7419 -0.3088
  102SAPE   H4X10382   6.180   3.737   6.107 -1.3396  2.2286  1.5153
  102SAPE   H4Y10383   6.009   3.757   6.071  2.3434  0.8849 -1.8041
  102SAPE   C3510384   6.090   3.545   6.050  0.0489  0.4826 -0.6473
  102SAPE   H5X10385   5.995   3.490   6.067  0.4279  0.5283  2.0421
  102SAPE   H5Y10386   6.175   3.483   6.083 -0.6666 -0.3081 -0.2640
  102SAPE   C3610387   6.126   3.551   5.899 -0.2555  0.1338 -0.1730
  102SAPE   H6X10388   6.167   3.454   5.866  2.9087  1.0397  0.7374
  102SAPE   H6Y10389   6.214   3.618   5.883  1.0836 -1.0980  1.5548
  102SAPE   C3710390   6.013   3.605   5.806  0.1346  0.1060 -1.0197
  102SAPE   H7X10391   6.014   3.716   5.795 -1.4616  0.0124 -2.7915
  102SAPE   H7Y10392   5.918   3.582   5.858  0.6411 -0.5787 -0.3858
  102SAPE   C3810393   6.016   3.543   5.663 -0.2689 -0.1091  1.3082
  102SAPE   H8X10394   6.118   3.554   5.621 -0.8612  0.7171  0.0239
  102SAPE   H8Y10395   5.946   3.593   5.594  0.6348 -1.1258 -0.4093
  102SAPE   C3910396   5.978   3.391   5.653  0.6027  0.1688 -0.4923
  102SAPE   H9X10397   5.884   3.377   5.595  1.4644 -0.9888 -1.6851
  102SAPE   H9Y10398   5.969   3.347   5.755  0.4955  0.8745 -0.1916
  102SAPE  C31010399   6.085   3.308   5.579 -0.1639 -0.6150 -0.4677
  102SAPE  H10X10400   6.069   3.198   5.587 -2.0322 -0.2321  2.1269
  102SAPE  H10Y10401   6.181   3.322   5.635 -1.1618  1.3219  0.8559
  102SAPE  C31110402   6.086   3.336   5.426  0.8350  0.5111 -0.5026
  102SAPE  H11X10403   6.095   3.443   5.398  1.9447  0.5291 -0.1213
  102SAPE  H11Y10404   5.990   3.301   5.383 -0.6151  0.5018  2.4565
  102SAPE  C31210405   6.201   3.275   5.356  0.0795 -0.0876 -0.7653
  102SAPE  H12X10406   6.182   3.166   5.349 -0.2493 -0.2163  1.5258
  102SAPE  H12Y10407   6.297   3.277   5.412 -0.1008 -0.9763 -0.4055
  102SAPE  C31310408   6.227   3.331   5.213 -0.3977 -0.2802  0.3957
  102SAPE  H13X10409   6.282   3.428   5.220  1.1417 -1.1813  1.3644
  102SAPE  H13Y10410   6.128   3.344   5.165 -0.6766 -0.9381  0.7808
  102SAPE  C31410411   6.302   3.231   5.128 -0.1044 -0.8706  0.0945
  102SAPE  H14X10412   6.235   3.145   5.105 -2.0327  0.8475 -1.1367
  102SAPE  H14Y10413   6.392   3.194   5.180  0.4036  0.3585  0.1089
  102SAPE  C31510414   6.342   3.277   4.988 -0.7820  0.1229 -0.7515
  102SAPE  H15X10415   6.431   3.342   4.995 -0.9792  0.3883 -0.6814
  102SAPE  H15Y10416   6.253   3.333   4.951  0.0358  1.3099 -0.9438
  102SAPE  C31610417   6.380   3.160   4.899 -0.3936  0.2467  0.0271
  102SAPE  H16X10418   6.383   3.200   4.795  1.2711 -1.4896 -0.6543
  102SAPE  H16Y10419   6.311   3.074   4.914  0.4909 -1.2919 -3.5850
  102SAPE  C31710420   6.515   3.109   4.937  0.1646  0.1844 -0.1089
  102SAPE  H17X10421   6.509   3.092   5.047 -0.4753  0.1185 -0.1535
  102SAPE  H17Y10422   6.587   3.190   4.912 -0.6319  2.3766  3.8243
  102SAPE  C31810423   6.553   2.984   4.865 -0.7500  0.1394  0.1979
  102SAPE  H18X10424   6.550   3.001   4.755  1.4496  0.1731  0.0947
  102SAPE  H18Y10425   6.486   2.897   4.882 -2.5601  1.2123 -1.1110
  102SAPE  H18Z10426   6.654   2.953   4.898 -1.5499 -2.2814  0.6108
  103SAPE     N10427   3.913   1.652   2.402  0.3655 -0.1779 -0.2328
  103SAPE   HN110428   3.895   1.552   2.383 -0.4424  0.3053 -2.2841
  103SAPE   HN210429   3.827   1.692   2.445 -0.0040  1.1656 -2.1007
  103SAPE   HN310430   3.944   1.702   2.316  0.4153  0.9618  0.4197
  103SAPE   C1210431   4.021   1.685   2.506  0.3062  0.0218 -0.7019
  103SAPE  H12A10432   4.116   1.629   2.495 -0.1827 -1.4144  1.6665
  103SAPE  H12B10433   3.978   1.662   2.606  1.6995 -0.4695 -0.1994
  103SAPE   C1110434   4.042   1.839   2.511 -0.5714  0.0343  0.7988
  103SAPE  H11A10435   4.096   1.874   2.602 -0.1627 -0.7893  0.8847
  103SAPE  H11B10436   3.944   1.890   2.507 -0.0316  1.0405 -0.2534
  103SAPE     P10437   4.231   1.960   2.378 -0.1354 -0.1081 -0.2712
  103SAPE   O1310438   4.350   1.873   2.343 -0.3998 -0.6633 -0.3205
  103SAPE   O1410439   4.203   2.072   2.284  0.0667 -0.1463 -0.3989
  103SAPE   O1210440   4.108   1.868   2.383  0.1234  0.1983  0.1137
  103SAPE   O1110441   4.241   2.028   2.528 -0.4184  0.1768 -0.2971
  103SAPE    C110442   4.217   2.171   2.530  0.3615 -0.1296  0.8272
  103SAPE    HA10443   4.292   2.234   2.477  0.3159  1.0521  2.1046
  103SAPE    HB10444   4.118   2.187   2.484 -0.4485 -2.6949  1.5239
  103SAPE    C210445   4.212   2.221   2.676 -0.1146 -0.1495  0.3088
  103SAPE    HS10446   4.158   2.317   2.689 -1.2816 -0.8576  0.8485
  103SAPE   O2110447   4.350   2.229   2.727  0.7143 -0.0044  0.0035
  103SAPE   C2110448   4.417   2.331   2.688 -0.0563 -0.7314  0.3833
  103SAPE   O2210449   4.381   2.430   2.629  0.0434 -0.6926  0.3454
  103SAPE   C2210450   4.557   2.308   2.740 -0.6643  0.1392 -0.0831
  103SAPE   H2R10451   4.553   2.234   2.823 -0.6629  0.2562  0.0238
  103SAPE   H2S10452   4.632   2.260   2.675  0.5607  0.1453  1.2705
  103SAPE    C310453   4.142   2.120   2.763  0.1240  0.1967 -0.3111
  103SAPE    HX10454   4.195   2.023   2.756  2.1563  1.3358 -1.7588
  103SAPE    HY10455   4.039   2.112   2.721 -0.0386  1.2504 -0.1473
  103SAPE   O3110456   4.113   2.162   2.900 -0.4490 -0.1547  0.2279
  103SAPE   C3110457   4.207   2.144   2.998  0.3814  0.3806  0.0543
  103SAPE   O3210458   4.301   2.065   2.980 -0.3353 -0.6546 -0.4374
  103SAPE   C3210459   4.196   2.239   3.122  0.6678 -0.2425  0.3063
  103SAPE   H2X10460   4.120   2.318   3.104  1.8741  0.9681  0.3662
  103SAPE   H2Y10461   4.295   2.289   3.129 -0.0502  1.6172 -1.5946
  103SAPE   C2310462   4.619   2.447   2.792 -0.2344  0.2309 -0.0608
  103SAPE   H3R10463   4.577   2.534   2.737 -0.7195  1.6775  2.4633
  103SAPE   H3S10464   4.727   2.453   2.767 -0.4200  0.7828 -0.7787
  103SAPE   C2410465   4.609   2.468   2.945  1.0223 -0.2633  0.2262
  103SAPE   H4R10466   4.501   2.459   2.970  0.5133  3.5609 -0.0143
  103SAPE   H4S10467   4.645   2.571   2.964  0.0452  0.4251 -1.4788
  103SAPE   C2510468   4.688   2.365   3.018 -0.5415  0.0585 -0.9028
  103SAPE   H5R10469   4.773   2.314   2.969  1.8748  1.2880  1.6734
  103SAPE   C2610470   4.657   2.317   3.139 -0.2382 -0.2463 -0.2380
  103SAPE   H6R10471   4.726   2.245   3.186 -0.8364 -1.2054 -0.7720
  103SAPE   C2710472   4.561   2.387   3.230 -0.2102 -0.6269  0.7085
  103SAPE   H7R10473   4.469   2.416   3.174 -0.4480 -3.1880 -0.3500
  103SAPE   H7S10474   4.616   2.479   3.257  1.8534 -1.8142  0.7161
  103SAPE   C2810475   4.523   2.302   3.346  0.5673  0.4283 -0.2558
  103SAPE   H8R10476   4.502   2.197   3.321  0.0919  0.4586  0.0137
  103SAPE   C2910477   4.498   2.354   3.465  0.5050 -0.5786  0.1686
  103SAPE   H9R10478   4.475   2.285   3.548  1.5792 -2.0639 -0.7311
  103SAPE  C21010479   4.500   2.503   3.494 -1.1273  0.1197 -0.3346
  103SAPE  H10R10480   4.502   2.574   3.408 -0.1509 -0.1069 -0.5021
  103SAPE  H10S10481   4.595   2.521   3.548 -0.7199 -0.0556 -0.9795
  103SAPE  C21110482   4.374   2.543   3.563 -0.4864 -0.3414 -0.7820
  103SAPE  H11R10483   4.285   2.546   3.499 -0.4545  1.2360 -0.7863
  103SAPE  C21210484   4.358   2.584   3.700  0.1888  0.9395  0.7572
  103SAPE  H12R10485   4.258   2.595   3.744  0.1717 -0.0059  0.9750
  103SAPE  C21310486   4.470   2.570   3.799  0.5088 -0.1964 -0.5542
  103SAPE  H13R10487   4.520   2.665   3.831  0.2203 -0.9801  2.6291
  103SAPE  H13S10488   4.549   2.502   3.764  1.3131  0.9479 -1.0132
  103SAPE  C21410489   4.418   2.504   3.928  0.1832  0.0025 -0.2229
  103SAPE  H14R10490   4.415   2.394   3.923  2.4282 -0.1148  0.0038
  103SAPE  C21510491   4.382   2.578   4.032  0.5213  0.0353  0.1864
  103SAPE  H15R10492   4.350   2.507   4.110 -0.8892 -0.2564 -0.6254
  103SAPE  C21610493   4.380   2.730   4.064  0.0145  0.2739  0.7727
  103SAPE  H16R10494   4.351   2.783   3.970  0.9091 -0.6821 -0.0649
  103SAPE  H16S10495   4.484   2.757   4.091  0.3509 -2.9847  3.3579
  103SAPE  C21710496   4.295   2.775   4.181  0.1950 -0.3235  0.1158
  103SAPE  H17R10497   4.190   2.770   4.145  0.3715 -2.5047 -0.2129
  103SAPE  H17S10498   4.335   2.878   4.192 -0.0661 -0.2961  0.8181
  103SAPE  C21810499   4.314   2.703   4.311 -0.4230 -0.1821  0.2618
  103SAPE  H18R10500   4.423   2.690   4.326 -0.3316 -1.9380 -1.6018
  103SAPE  H18S10501   4.265   2.603   4.318  1.2361 -0.9915  0.7521
  103SAPE  C21910502   4.273   2.798   4.427  0.2367  0.7936 -0.3246
  103SAPE  H19R10503   4.343   2.884   4.415  2.7997 -0.4354  3.7913
  103SAPE  H19S10504   4.314   2.747   4.517  2.6758  0.6730 -1.4050
  103SAPE  C22010505   4.118   2.822   4.455  0.9355  0.1732  0.9528
  103SAPE  H20R10506   4.095   2.869   4.553  1.8699 -0.8135  1.6711
  103SAPE  H20S10507   4.060   2.727   4.447  0.0745  0.8346 -1.2737
  103SAPE  H20T10508   4.066   2.874   4.372 -1.1019 -3.4030 -0.2602
  103SAPE   C3310509   4.163   2.160   3.254 -0.7630  0.1117 -0.5853
  103SAPE   H3X10510   4.255   2.107   3.287  0.4371  2.7984  0.7395
  103SAPE   H3Y10511   4.074   2.094   3.244 -0.3012 -0.4121 -1.3305
  103SAPE   C3410512   4.145   2.257   3.375  0.0736 -0.0920 -0.3775
  103SAPE   H4X10513   4.063   2.331   3.370  1.5986  1.9718  2.2477
  103SAPE   H4Y10514   4.241   2.314   3.376 -0.3860  0.6848  0.1410
  103SAPE   C3510515   4.128   2.167   3.494 -0.2541 -0.2849 -0.2461
  103SAPE   H5X10516   4.224   2.124   3.529 -0.1164  0.1815 -0.0556
  103SAPE   H5Y10517   4.054   2.084   3.481 -1.6544  0.5550  1.9277
  103SAPE   C3610518   4.080   2.249   3.605 -0.1724  0.1975 -0.1099
  103SAPE   H6X10519   3.977   2.284   3.584  0.5429  0.8124 -3.1280
  103SAPE   H6Y10520   4.139   2.340   3.628 -1.5826  1.1591 -0.2340
  103SAPE   C3710521   4.072   2.165   3.738  0.0134 -0.2783 -0.1685
  103SAPE   H7X10522   4.072   2.226   3.831 -0.6917 -1.5771  0.7177
  103SAPE   H7Y10523   4.166   2.106   3.738 -0.2745 -0.7515 -0.6919
  103SAPE   C3810524   3.945   2.075   3.743  0.1837  0.7334  0.0134
  103SAPE   H8X10525   3.956   1.994   3.667  0.1866 -1.0599  1.8564
  103SAPE   H8Y10526   3.849   2.128   3.722 -0.2449 -0.7026 -1.9649
  103SAPE   C3910527   3.934   2.011   3.884  0.6010  0.7816 -0.5679
  103SAPE   H9X10528   4.034   1.974   3.917 -0.6565 -2.6379 -0.1565
  103SAPE   H9Y10529   3.871   1.920   3.873 -1.9712  2.0357  2.3574
  103SAPE  C31010530   3.872   2.097   4.004 -0.9738 -0.4752 -0.9265
  103SAPE  H10X10531   3.763   2.076   4.009 -0.7692 -1.3241  1.0109
  103SAPE  H10Y10532   3.868   2.202   3.971  1.1918 -0.0507  0.0236
  103SAPE  C31110533   3.935   2.080   4.138 -0.3941  0.2366 -0.5332
  103SAPE  H11X10534   4.044   2.066   4.126  0.1168  0.4961  2.8012
  103SAPE  H11Y10535   3.901   1.985   4.184 -1.2459  1.3683  1.2847
  103SAPE  C31210536   3.904   2.189   4.243  0.0391 -0.0488  0.0101
  103SAPE  H12X10537   3.793   2.188   4.252  0.1714  1.5883  2.6491
  103SAPE  H12Y10538   3.923   2.288   4.196 -1.4272 -0.3039 -1.2221
  103SAPE  C31310539   3.975   2.188   4.380  0.6443  0.1768  0.0795
  103SAPE  H13X10540   3.971   2.084   4.420  1.4573 -0.3458 -1.1324
  103SAPE  H13Y10541   3.909   2.254   4.439 -1.5497 -0.4319 -1.5489
  103SAPE  C31410542   4.112   2.242   4.380 -0.1089  0.3123 -0.2572
  103SAPE  H14X10543   4.117   2.331   4.314  3.3699 -1.1521 -2.2285
  103SAPE  H14Y10544   4.178   2.165   4.333 -0.3098 -0.2192  0.3220
  103SAPE  C31510545   4.162   2.278   4.517  0.2282 -0.2947 -0.0672
  103SAPE  H15X10546   4.174   2.184   4.574  1.8226 -1.1579 -1.7042
  103SAPE  H15Y10547   4.082   2.338   4.566  0.6808 -0.0214  0.3464
  103SAPE  C31610548   4.301   2.356   4.520  0.0373  0.0235 -0.1486
  103SAPE  H16X10549   4.273   2.453   4.474 -2.9368 -0.6722 -0.0360
  103SAPE  H16Y10550   4.373   2.299   4.457 -1.9852 -0.7952 -1.8482
  103SAPE  C31710551   4.346   2.400   4.661 -0.9698 -0.1919 -0.2595
  103SAPE  H17X10552   4.266   2.452   4.717  0.4083  1.5361  0.2066
  103SAPE  H17Y10553   4.433   2.469   4.652  0.7208 -2.2711 -0.8169
  103SAPE  C31810554   4.393   2.281   4.744 -0.4303  0.3363 -0.2144
  103SAPE  H18X10555   4.435   2.325   4.837 -1.7026  2.2258 -0.4802
  103SAPE  H18Y10556   4.468   2.228   4.682 -1.4714 -0.9902 -0.3886
  103SAPE  H18Z10557   4.311   2.212   4.775  0.6934 -0.1669  1.8173
  104SAPE     N10558   4.864   2.335   1.671 -0.6499 -0.1970  0.2068
  104SAPE   HN110559   4.810   2.254   1.708  1.1275 -1.2796  0.5129
  104SAPE   HN210560   4.821   2.425   1.702 -1.8215  0.5239 -3.0432
  104SAPE   HN310561   4.879   2.325   1.568  1.5258  0.5786  0.4019
  104SAPE   C1210562   4.991   2.332   1.750 -0.5443  0.3280 -0.4399
  104SAPE  H12A10563   5.038   2.433   1.753 -1.3585  0.6923  1.6920
  104SAPE  H12B10564   5.056   2.255   1.702  0.0489  1.1014 -0.9065
  104SAPE   C1110565   4.962   2.307   1.898 -0.3223  0.6357  0.0051
  104SAPE  H11A10566   4.896   2.383   1.944  0.0177  0.7355  0.3331
  104SAPE  H11B10567   5.055   2.321   1.958  0.1534 -0.4059 -0.4584
  104SAPE     P10568   4.980   2.046   1.959 -0.1071 -0.4088 -0.3006
  104SAPE   O1310569   4.907   1.927   1.921 -0.0858 -0.2465 -0.1544
  104SAPE   O1410570   5.122   2.053   1.911  0.5807  0.3141  0.1171
  104SAPE   O1210571   4.897   2.179   1.921 -0.3103 -0.2924 -0.3832
  104SAPE   O1110572   4.989   2.043   2.112 -0.3419  0.2960  0.0689
  104SAPE    C110573   4.872   2.025   2.192  0.3337 -0.1614  0.2122
  104SAPE    HA10574   4.806   2.111   2.168 -0.1321  0.1169  2.2916
  104SAPE    HB10575   4.815   1.934   2.167 -1.2639  0.3608  1.7706
  104SAPE    C210576   4.906   2.009   2.340  0.9540 -0.0809  0.5113
  104SAPE    HS10577   4.818   1.993   2.406  0.3729 -0.0671 -0.2446
  104SAPE   O2110578   4.993   2.111   2.389  0.2646 -0.3619 -0.2925
  104SAPE   C2110579   4.928   2.218   2.404 -0.4616  0.1067  0.1056
  104SAPE   O2210580   4.811   2.240   2.382 -0.2164  0.0864  0.2742
  104SAPE   C2210581   5.013   2.329   2.459  0.1204 -0.4824  0.0679
  104SAPE   H2R10582   5.120   2.310   2.480 -0.0676  0.4957  2.1879
  104SAPE   H2S10583   5.001   2.402   2.376 -0.5368 -1.0163 -0.3185
  104SAPE    C310584   4.995   1.874   2.355  0.6396 -0.2671  0.3409
  104SAPE    HX10585   5.089   1.883   2.297  0.6399 -1.5168  0.1205
  104SAPE    HY10586   4.936   1.792   2.308 -1.2948 -0.2974  2.6076
  104SAPE   O3110587   5.014   1.827   2.492  0.1965 -0.4937  0.0328
  104SAPE   C3110588   5.130   1.874   2.543  0.5501 -0.0406  0.3766
  104SAPE   O3210589   5.197   1.947   2.479 -0.4693  0.1743  0.1198
  104SAPE   C3210590   5.166   1.812   2.673  0.2889  0.9594 -0.2599
  104SAPE   H2X10591   5.211   1.711   2.663 -1.4868  0.2353 -1.3555
  104SAPE   H2Y10592   5.079   1.799   2.740 -0.0602  3.2163 -0.1882
  104SAPE   C2310593   4.944   2.388   2.591 -0.6340 -0.1710  0.7826
  104SAPE   H3R10594   4.836   2.405   2.573 -0.1028 -0.9625 -4.5691
  104SAPE   H3S10595   5.005   2.479   2.613  0.3632 -0.8346  0.8076
  104SAPE   C2410596   4.972   2.299   2.712  0.2662 -0.2576 -0.2206
  104SAPE   H4R10597   4.925   2.199   2.697  0.6464 -0.4553 -0.0962
  104SAPE   H4S10598   4.916   2.346   2.795  0.4967  2.0084 -1.2824
  104SAPE   C2510599   5.112   2.284   2.749 -0.7041  0.0913  0.3822
  104SAPE   H5R10600   5.177   2.247   2.668 -2.8029  0.5477 -1.5846
  104SAPE   C2610601   5.166   2.300   2.874 -0.1465  0.3077  0.2041
  104SAPE   H6R10602   5.276   2.308   2.877 -0.1016  0.8012 -1.6258
  104SAPE   C2710603   5.102   2.345   2.999  1.1376 -0.6109 -0.5872
  104SAPE   H7R10604   4.991   2.335   2.996  1.2262 -1.3285 -2.7756
  104SAPE   H7S10605   5.118   2.454   3.019 -1.5533 -0.3448  0.6751
  104SAPE   C2810606   5.147   2.273   3.128  0.0510 -0.2047  0.1206
  104SAPE   H8R10607   5.211   2.188   3.102 -1.3978 -0.7751 -1.8013
  104SAPE   C2910608   5.113   2.298   3.259  0.3808 -0.2859  0.0105
  104SAPE   H9R10609   5.167   2.248   3.341 -1.0398 -1.3101  0.3447
  104SAPE  C21010610   5.024   2.412   3.302  0.1077  0.4935 -0.0166
  104SAPE  H10R10611   4.973   2.473   3.224  3.1458  1.8143 -1.1283
  104SAPE  H10S10612   5.091   2.489   3.346 -1.8181  1.6457  1.0365
  104SAPE  C21110613   4.929   2.356   3.403 -0.4103  0.3246  0.6710
  104SAPE  H11R10614   4.838   2.313   3.357  0.8999 -2.4063  0.4701
  104SAPE  C21210615   4.931   2.368   3.538  0.2306  0.5106 -0.3928
  104SAPE  H12R10616   4.842   2.329   3.590  0.6425  1.0756  0.7620
  104SAPE  C21310617   5.043   2.433   3.619  0.4797  0.3046  0.1042
  104SAPE  H13R10618   5.023   2.542   3.624 -0.1201  0.1548  1.0427
  104SAPE  H13S10619   5.138   2.417   3.564  0.1339  0.7468 -0.6444
  104SAPE  C21410620   5.058   2.378   3.759  0.0912  0.5652  0.0833
  104SAPE  H14R10621   5.153   2.323   3.770  0.5573  1.6341  1.8179
  104SAPE  C21510622   4.974   2.383   3.866  0.3785 -0.8626 -0.0818
  104SAPE  H15R10623   5.017   2.347   3.960  0.2313 -1.6655 -0.3110
  104SAPE  C21610624   4.844   2.465   3.865  0.3149 -0.1934 -0.1297
  104SAPE  H16R10625   4.760   2.392   3.869  0.2213 -0.1822 -1.4197
  104SAPE  H16S10626   4.834   2.534   3.778 -1.2665  1.8543  1.5817
  104SAPE  C21710627   4.834   2.542   3.998 -0.5173 -0.5404  0.2136
  104SAPE  H17R10628   4.747   2.610   3.995 -0.2921 -0.2502 -2.4005
  104SAPE  H17S10629   4.927   2.600   4.015 -0.5097 -0.4650 -0.0819
  104SAPE  C21810630   4.807   2.445   4.108 -0.6279  0.5926  1.2899
  104SAPE  H18R10631   4.900   2.390   4.132  0.1118  1.0734 -0.3330
  104SAPE  H18S10632   4.739   2.361   4.083  0.2947 -0.2039  1.4335
  104SAPE  C21910633   4.756   2.512   4.236  0.0461 -0.4035  0.8377
  104SAPE  H19R10634   4.705   2.607   4.210 -2.4585 -1.9483 -0.3382
  104SAPE  H19S10635   4.839   2.550   4.299 -0.2533  0.8012  0.5279
  104SAPE  C22010636   4.656   2.424   4.316 -0.2417 -0.3342 -0.5968
  104SAPE  H20R10637   4.713   2.338   4.357  0.5951  0.5675  0.1691
  104SAPE  H20S10638   4.566   2.407   4.253 -0.5578  0.0579 -0.2588
  104SAPE  H20T10639   4.622   2.481   4.405 -1.3371  0.6143 -1.5971
  104SAPE   C3310640   5.267   1.895   2.746  0.6664 -0.4219  0.4256
  104SAPE   H3X10641   5.238   2.002   2.763  1.1585 -0.2353  0.1120
  104SAPE   H3Y10642   5.357   1.904   2.682 -0.2388  1.3890 -0.7023
  104SAPE   C3410643   5.303   1.855   2.890 -0.6368  0.2685  0.6629
  104SAPE   H4X10644   5.398   1.904   2.920 -0.4254  0.5590 -0.4435
  104SAPE   H4Y10645   5.312   1.745   2.883 -1.2223  0.3304 -2.2468
  104SAPE   C3510646   5.205   1.900   2.998 -0.1225 -0.0745  0.3229
  104SAPE   H5X10647   5.102   1.858   2.989 -0.3736  0.9852 -3.1505
  104SAPE   H5Y10648   5.198   2.011   2.994  0.7800 -0.0468 -1.4506
  104SAPE   C3610649   5.257   1.870   3.134 -0.2134  0.4031  0.0572
  104SAPE   H6X10650   5.357   1.912   3.155  0.6550 -1.7393  0.4955
  104SAPE   H6Y10651   5.280   1.761   3.140  0.7642  0.6331  0.8923
  104SAPE   C3710652   5.160   1.903   3.248  0.1045  0.2371 -0.1640
  104SAPE   H7X10653   5.060   1.863   3.222 -0.3020  0.4046  1.0608
  104SAPE   H7Y10654   5.137   2.010   3.269  0.3003 -0.1775  2.5208
  104SAPE   C3810655   5.205   1.844   3.388  0.0185 -0.3637 -0.6061
  104SAPE   H8X10656   5.305   1.888   3.407  1.1933 -3.3697  0.9199
  104SAPE   H8Y10657   5.219   1.734   3.384 -2.3631 -0.6931 -2.2774
  104SAPE   C3910658   5.113   1.882   3.507 -0.1092  0.0088 -0.1392
  104SAPE   H9X10659   5.015   1.831   3.515 -0.8248  1.2439 -0.8139
  104SAPE   H9Y10660   5.095   1.991   3.493 -4.0385 -0.3582  0.9697
  104SAPE  C31010661   5.183   1.862   3.643  0.6949  0.2371 -0.0678
  104SAPE  H10X10662   5.284   1.906   3.634  1.8536 -2.0284  1.1679
  104SAPE  H10Y10663   5.194   1.754   3.668  0.2240  0.3663  0.7240
  104SAPE  C31110664   5.110   1.929   3.762  0.5746 -0.1596  0.5045
  104SAPE  H11X10665   5.026   1.861   3.786 -0.8532  1.0860 -0.7410
  104SAPE  H11Y10666   5.063   2.026   3.733 -0.5178 -0.5887  0.7737
  104SAPE  C31210667   5.188   1.954   3.897  0.3480 -0.4160  0.1866
  104SAPE  H12X10668   5.273   2.022   3.872  0.1038  0.2513  1.0965
  104SAPE  H12Y10669   5.213   1.849   3.923 -0.3274 -0.3717  1.0643
  104SAPE  C31310670   5.102   2.011   4.000 -0.2774  0.2070 -0.0420
  104SAPE  H13X10671   5.045   1.932   4.055 -1.1646  1.1048  0.3701
  104SAPE  H13Y10672   5.028   2.080   3.954 -0.5172  0.3347  0.5150
  104SAPE  C31410673   5.185   2.097   4.103 -0.4739 -0.6444 -0.1901
  104SAPE  H14X10674   5.221   2.188   4.051 -0.8764  1.0403  2.2758
  104SAPE  H14Y10675   5.275   2.041   4.132  0.5227  1.3430  0.7890
  104SAPE  C31510676   5.100   2.137   4.221  0.1079 -0.3424 -0.5240
  104SAPE  H15X10677   5.068   2.049   4.281 -0.1178 -0.2866 -0.5607
  104SAPE  H15Y10678   5.014   2.190   4.175  0.5452  0.7776 -0.0877
  104SAPE  C31610679   5.175   2.234   4.317  0.4493  0.5951  0.0211
  104SAPE  H16X10680   5.248   2.307   4.275 -1.2682  1.6214 -1.3142
  104SAPE  H16Y10681   5.238   2.161   4.371  0.5205 -0.2082 -1.1078
  104SAPE  C31710682   5.092   2.316   4.417  0.0358 -0.9516 -0.4419
  104SAPE  H17X10683   4.999   2.261   4.444 -0.0876 -0.7075 -0.3666
  104SAPE  H17Y10684   5.059   2.406   4.361  2.6385  1.4387  1.5584
  104SAPE  C31810685   5.160   2.372   4.543 -0.0664 -0.0573 -0.7258
  104SAPE  H18X10686   5.199   2.294   4.612  0.5635  1.2854  0.4906
  104SAPE  H18Y10687   5.093   2.435   4.605  1.4609  0.3004  0.6204
  104SAPE  H18Z10688   5.253   2.422   4.508 -0.8312  0.2334 -2.4700
  105SAPE     N10689   1.911   0.462   2.187 -0.8373 -0.4533 -0.1410
  105SAPE   HN110690   2.006   0.443   2.224  0.7920  3.7167 -1.5248
  105SAPE   HN210691   1.884   0.390   2.117 -2.2290 -0.1629  0.0548
  105SAPE   HN310692   1.926   0.553   2.137  0.6261  0.5425  1.9794
  105SAPE   C1210693   1.801   0.477   2.286  0.1516 -0.1211 -0.1698
  105SAPE  H12A10694   1.846   0.526   2.375 -0.1912  0.1886 -0.1631
  105SAPE  H12B10695   1.760   0.375   2.304  0.4159 -0.2634 -0.3714
  105SAPE   C1110696   1.688   0.562   2.226 -0.0358 -0.7404 -0.4658
  105SAPE  H11A10697   1.605   0.551   2.299 -1.8563 -0.0535 -2.3248
  105SAPE  H11B10698   1.654   0.515   2.131  0.4882 -1.9092 -0.0934
  105SAPE     P10699   1.653   0.819   2.256 -0.3416 -0.0054 -0.1971
  105SAPE   O1310700   1.726   0.939   2.224 -0.2441  0.0259  0.0404
  105SAPE   O1410701   1.521   0.817   2.193  0.7370 -0.0014  0.2704
  105SAPE   O1210702   1.736   0.697   2.217  0.8859 -0.2783 -0.4362
  105SAPE   O1110703   1.635   0.813   2.413  0.4459 -0.5584  0.5428
  105SAPE    C110704   1.540   0.739   2.487 -0.0345 -0.7966  0.6845
  105SAPE    HA10705   1.439   0.753   2.443  0.6729 -1.1310 -1.1175
  105SAPE    HB10706   1.560   0.631   2.465  2.0930 -0.2148 -0.5123
  105SAPE    C210707   1.538   0.776   2.634  0.5750  0.7715  0.4603
  105SAPE    HS10708   1.525   0.886   2.642 -0.5021  0.6890  0.0385
  105SAPE   O2110709   1.651   0.723   2.704  0.3346 -0.3417 -0.3796
  105SAPE   C2110710   1.690   0.801   2.815  0.2302 -0.6927  0.5178
  105SAPE   O2210711   1.640   0.911   2.843 -0.9479  0.0821 -0.2567
  105SAPE   C2210712   1.808   0.747   2.884  0.3034  0.1631 -1.0565
  105SAPE   H2R10713   1.811   0.776   2.991 -2.6912 -0.8936 -0.5979
  105SAPE   H2S10714   1.797   0.637   2.899 -0.8547  0.4985  0.8047
  105SAPE    C310715   1.411   0.711   2.706  0.5710 -0.2873  0.3494
  105SAPE    HX10716   1.428   0.602   2.700  0.4580 -0.3473  1.1463
  105SAPE    HY10717   1.325   0.736   2.640  1.0893 -0.3002 -0.3570
  105SAPE   O3110718   1.398   0.745   2.845 -0.0827 -0.8851 -0.3516
  105SAPE   C3110719   1.329   0.857   2.862  0.0398 -0.7363 -0.2891
  105SAPE   O3210720   1.306   0.938   2.772  0.2790 -0.0124 -0.0768
  105SAPE   C3210721   1.287   0.877   3.005  0.2035  1.2186 -0.1452
  105SAPE   H2X10722   1.313   0.777   3.044 -0.5190  0.6808 -1.0171
  105SAPE   H2Y10723   1.176   0.885   3.011  0.2216  1.2456  0.2034
  105SAPE   C2310724   1.946   0.774   2.820  0.4202  0.4977 -0.3923
  105SAPE   H3R10725   1.961   0.883   2.835  1.4353  0.0580  2.5996
  105SAPE   H3S10726   1.945   0.759   2.710  0.5661 -1.1487 -0.1954
  105SAPE   C2410727   2.062   0.703   2.895  0.3698 -0.2293 -0.2169
  105SAPE   H4R10728   2.051   0.592   2.899  0.2258 -0.1888  0.9959
  105SAPE   H4S10729   2.050   0.738   3.000 -0.6227 -0.2943 -0.3047
  105SAPE   C2510730   2.201   0.737   2.839  0.3389 -1.1143 -0.4436
  105SAPE   H5R10731   2.205   0.745   2.729  2.4289  1.1421 -0.2847
  105SAPE   C2610732   2.315   0.766   2.901 -0.7581 -0.6648  0.5447
  105SAPE   H6R10733   2.398   0.805   2.840 -0.7875 -0.9797  0.2997
  105SAPE   C2710734   2.354   0.758   3.048 -0.0969 -0.5204  0.4447
  105SAPE   H7R10735   2.303   0.673   3.097  2.0481 -1.5778  0.9581
  105SAPE   H7S10736   2.313   0.850   3.094 -0.5578  0.4576 -1.8060
  105SAPE   C2810737   2.501   0.746   3.072 -0.8670  0.2462  0.1979
  105SAPE   H8R10738   2.544   0.653   3.032  3.0070  1.8435  0.2244
  105SAPE   C2910739   2.582   0.835   3.141  0.1424  0.4475 -0.8351
  105SAPE   H9R10740   2.688   0.814   3.160 -0.8286 -0.4968  5.8155
  105SAPE  C21010741   2.542   0.970   3.204 -0.2137  0.4657  0.2510
  105SAPE  H10R10742   2.431   0.980   3.209 -0.5496 -2.7199  1.3406
  105SAPE  H10S10743   2.579   1.036   3.123  1.1318 -0.4109  0.1270
  105SAPE  C21110744   2.606   1.004   3.337  0.1656  0.0753 -0.8347
  105SAPE  H11R10745   2.715   0.991   3.344  0.4125  1.5841 -1.3307
  105SAPE  C21210746   2.549   1.040   3.454  0.3542 -0.0791  0.2420
  105SAPE  H12R10747   2.613   1.040   3.544  0.0684 -1.6235  0.4752
  105SAPE  C21310748   2.398   1.060   3.489  0.8375 -0.0860 -0.1812
  105SAPE  H13R10749   2.364   0.968   3.541 -0.6622 -0.2798 -1.4439
  105SAPE  H13S10750   2.330   1.070   3.402  0.0577 -1.7705  0.2041
  105SAPE  C21410751   2.383   1.190   3.563  0.0834 -0.3412 -0.5165
  105SAPE  H14R10752   2.367   1.279   3.500  2.3331 -0.3044 -1.1250
  105SAPE  C21510753   2.369   1.193   3.697  0.3874 -0.4285  0.7350
  105SAPE  H15R10754   2.362   1.291   3.746 -0.0759  0.0792 -0.2974
  105SAPE  C21610755   2.383   1.073   3.794  0.0837 -0.3870  0.2826
  105SAPE  H16R10756   2.352   0.979   3.744  1.3416 -1.7213  1.8768
  105SAPE  H16S10757   2.321   1.085   3.886  0.3111  0.0804  0.3759
  105SAPE  C21710758   2.529   1.051   3.839  0.1134  0.4882  0.3212
  105SAPE  H17R10759   2.600   1.036   3.755 -0.1845 -0.5815  0.2476
  105SAPE  H17S10760   2.535   0.954   3.894  0.7632  0.9747  1.1310
  105SAPE  C21810761   2.580   1.160   3.928  0.4181 -0.1721  0.0575
  105SAPE  H18R10762   2.593   1.252   3.868 -0.2763  0.1853  0.4403
  105SAPE  H18S10763   2.679   1.132   3.969  0.4198 -2.8861 -1.5647
  105SAPE  C21910764   2.486   1.206   4.040 -0.0349 -0.1913 -0.2731
  105SAPE  H19R10765   2.449   1.116   4.093 -1.8962  0.8870  0.3692
  105SAPE  H19S10766   2.403   1.262   3.990 -0.8464 -0.5552  0.6516
  105SAPE  C22010767   2.564   1.299   4.126  0.0310 -0.9468  1.2211
  105SAPE  H20R10768   2.652   1.250   4.170  2.2619  1.6577 -0.0278
  105SAPE  H20S10769   2.485   1.323   4.200 -1.2334 -2.1907  0.3283
  105SAPE  H20T10770   2.604   1.384   4.066 -0.4416 -2.8570 -2.0329
  105SAPE   C3310771   1.335   0.991   3.093 -0.9211 -0.1085 -0.3073
  105SAPE   H3X10772   1.273   0.995   3.185  1.0787  0.5942  1.0615
  105SAPE   H3Y10773   1.310   1.085   3.040  0.7856 -0.0714 -1.1206
  105SAPE   C3410774   1.484   0.988   3.125  0.5520 -0.9254 -0.0288
  105SAPE   H4X10775   1.540   1.032   3.040 -2.3652  0.9074 -1.1564
  105SAPE   H4Y10776   1.520   0.884   3.138  2.8671  0.1192  3.3233
  105SAPE   C3510777   1.527   1.078   3.247 -0.9651 -0.1441  0.4412
  105SAPE   H5X10778   1.444   1.153   3.249  1.2582  2.7430 -2.8316
  105SAPE   H5Y10779   1.625   1.124   3.222  0.6141 -0.8849  4.4856
  105SAPE   C3610780   1.534   1.002   3.381 -0.2185  0.7521  0.6335
  105SAPE   H6X10781   1.622   0.934   3.386 -0.4513  0.5365  2.5413
  105SAPE   H6Y10782   1.451   0.928   3.388  0.6001 -0.1303  1.3223
  105SAPE   C3710783   1.530   1.099   3.507  0.9209  0.6258 -0.4070
  105SAPE   H7X10784   1.436   1.157   3.505 -0.0588 -0.8889 -1.9364
  105SAPE   H7Y10785   1.619   1.165   3.506  0.0287  1.8667  0.3223
  105SAPE   C3810786   1.525   1.021   3.638 -0.1216  0.0846 -0.3428
  105SAPE   H8X10787   1.627   0.979   3.657  1.0679  1.9821 -2.0829
  105SAPE   H8Y10788   1.451   0.938   3.641 -1.8363  1.5608  2.0585
  105SAPE   C3910789   1.491   1.111   3.758 -0.5779  0.4182  0.1035
  105SAPE   H9X10790   1.403   1.165   3.717 -1.5387 -1.0251  0.1821
  105SAPE   H9Y10791   1.573   1.185   3.766 -0.5366  0.3756  0.0756
  105SAPE  C31010792   1.473   1.046   3.900  0.1008  0.2277 -0.5943
  105SAPE  H10X10793   1.573   1.009   3.930  0.5133  1.7459 -0.0443
  105SAPE  H10Y10794   1.409   0.957   3.878  0.8547 -0.2264 -1.0137
  105SAPE  C31110795   1.417   1.144   4.006 -0.3810  0.4414  0.0268
  105SAPE  H11X10796   1.313   1.166   3.973 -1.0354  0.7588  2.1486
  105SAPE  H11Y10797   1.461   1.246   3.998 -0.1943  0.3557 -0.0336
  105SAPE  C31210798   1.422   1.094   4.155 -0.0463  0.4316 -0.7636
  105SAPE  H12X10799   1.525   1.115   4.191  0.9653 -1.0291 -2.6228
  105SAPE  H12Y10800   1.424   0.983   4.162 -1.1691  0.4584  0.2846
  105SAPE  C31310801   1.310   1.148   4.245  0.2354 -0.7409  0.1483
  105SAPE  H13X10802   1.212   1.096   4.232 -0.2872 -0.3284  2.0509
  105SAPE  H13Y10803   1.291   1.255   4.225 -4.7313 -0.7401  3.2450
  105SAPE  C31410804   1.351   1.139   4.392  0.4028  0.1759 -0.2004
  105SAPE  H14X10805   1.453   1.181   4.406  0.5895 -0.6250  0.9591
  105SAPE  H14Y10806   1.366   1.031   4.409 -1.6009 -0.3035 -1.1318
  105SAPE  C31510807   1.253   1.195   4.494 -0.2096  0.7125 -0.6508
  105SAPE  H15X10808   1.159   1.141   4.468  0.6431 -1.5893  0.7324
  105SAPE  H15Y10809   1.238   1.303   4.476 -2.0608  0.2695 -2.1999
  105SAPE  C31610810   1.287   1.168   4.641  0.8603  0.0240 -0.3653
  105SAPE  H16X10811   1.226   1.233   4.707  0.6883 -1.3467  0.8936
  105SAPE  H16Y10812   1.395   1.192   4.653  0.6708  1.1480 -0.8205
  105SAPE  C31710813   1.256   1.024   4.689 -0.5224  0.4554 -0.4334
  105SAPE  H17X10814   1.325   0.966   4.623 -0.6334 -0.8030  0.5209
  105SAPE  H17Y10815   1.156   0.984   4.660 -0.7662 -0.5072  1.5188
  105SAPE  C31810816   1.283   1.005   4.840 -1.1892 -0.8652 -0.2384
  105SAPE  H18X10817   1.277   0.895   4.857 -0.0582 -0.6171  2.2196
  105SAPE  H18Y10818   1.199   1.043   4.902 -0.2348 -1.5265  1.5533
  105SAPE  H18Z10819   1.377   1.060   4.863 -0.8315 -0.5160 -2.3484
  106SAPE     N10820   1.138   2.666   2.604 -0.3632  0.2531  0.0796
  106SAPE   HN110821   1.230   2.618   2.607  0.5374  1.8162 -0.8617
  106SAPE   HN210822   1.141   2.743   2.673 -0.0160  0.1854  0.1425
  106SAPE   HN310823   1.077   2.601   2.657 -0.7970 -1.3805 -2.2456
  106SAPE   C1210824   1.080   2.687   2.468  0.2216  0.0637 -0.1448
  106SAPE  H12A10825   1.102   2.600   2.403  0.0749  1.2541 -1.8285
  106SAPE  H12B10826   1.124   2.781   2.430  2.2194 -0.7062  0.1325
  106SAPE   C1110827   0.936   2.714   2.472 -0.3769 -0.6186 -0.3687
  106SAPE  H11A10828   0.890   2.718   2.371  1.7428 -2.2672 -1.4783
  106SAPE  H11B10829   0.924   2.816   2.513  0.4244  0.0785 -1.8078
  106SAPE     P10830   0.723   2.666   2.619 -0.2106 -0.1143  0.1024
  106SAPE   O1310831   0.653   2.713   2.497  0.0461  0.2289  0.7744
  106SAPE   O1410832   0.662   2.553   2.695 -0.5160  0.3821 -0.2193
  106SAPE   O1210833   0.865   2.616   2.559 -0.2990 -0.0829 -0.1830
  106SAPE   O1110834   0.752   2.787   2.707 -0.0550  0.0997  0.2892
  106SAPE    C110835   0.841   2.790   2.819 -0.9896  0.4561 -0.0438
  106SAPE    HA10836   0.942   2.752   2.793 -1.4241  0.2641 -1.5763
  106SAPE    HB10837   0.852   2.899   2.836  3.4361  0.6588 -2.7334
  106SAPE    C210838   0.795   2.728   2.951  0.0838  0.3371 -0.6152
  106SAPE    HS10839   0.807   2.618   2.953 -0.9259  0.2212  0.6651
  106SAPE   O2110840   0.662   2.781   2.977 -0.2589 -0.5073 -0.2920
  106SAPE   C2110841   0.580   2.694   3.027  0.5600 -0.5693 -0.2793
  106SAPE   O2210842   0.610   2.584   3.069 -0.1344 -0.0124 -0.6232
  106SAPE   C2210843   0.433   2.741   3.003 -0.1233 -0.1857  0.0762
  106SAPE   H2R10844   0.413   2.842   3.045 -1.1208  0.8390 -2.6213
  106SAPE   H2S10845   0.419   2.744   2.893  1.1539 -1.2941 -0.1388
  106SAPE    C310846   0.885   2.785   3.064 -0.4318 -0.0254  0.1744
  106SAPE    HX10847   0.885   2.892   3.035  0.7698 -0.6608 -2.5275
  106SAPE    HY10848   0.992   2.753   3.058  0.6029  2.5596  2.3885
  106SAPE   O3110849   0.826   2.761   3.194 -0.1191 -0.4420 -0.2747
  106SAPE   C3110850   0.849   2.642   3.242  0.6588  0.1486  0.3209
  106SAPE   O3210851   0.933   2.564   3.203  0.3319 -0.1280  0.0678
  106SAPE   C3210852   0.738   2.611   3.347  0.1236 -0.4813  0.2740
  106SAPE   H2X10853   0.701   2.509   3.321 -0.2347 -0.0543 -0.9630
  106SAPE   H2Y10854   0.649   2.673   3.325 -0.0019 -1.0192 -0.8301
  106SAPE   C2310855   0.335   2.631   3.047  0.0059  0.0930 -0.3248
  106SAPE   H3R10856   0.369   2.526   3.033  0.1921  0.1473 -0.2767
  106SAPE   H3S10857   0.241   2.657   2.994 -0.5765 -0.1610  0.5645
  106SAPE   C2410858   0.320   2.649   3.201  0.5080 -0.1201 -0.2371
  106SAPE   H4R10859   0.299   2.752   3.236  2.9912 -0.3258  2.2041
  106SAPE   H4S10860   0.415   2.627   3.255  1.1915 -1.9538 -2.0543
  106SAPE   C2510861   0.199   2.574   3.251 -0.0722  0.0442 -0.1130
  106SAPE   H5R10862   0.113   2.576   3.182 -1.6947  0.2394  1.8149
  106SAPE   C2610863   0.187   2.501   3.364  0.3664 -0.5961 -0.2851
  106SAPE   H6R10864   0.088   2.456   3.383  0.0596 -0.5435 -1.6450
  106SAPE   C2710865   0.280   2.483   3.477  0.0840 -0.4260 -0.6555
  106SAPE   H7R10866   0.371   2.536   3.441 -0.2821  0.0532 -0.8815
  106SAPE   H7S10867   0.306   2.375   3.480 -0.3159 -0.5535 -1.4170
  106SAPE   C2810868   0.219   2.538   3.604 -0.0813  0.3040 -0.5516
  106SAPE   H8R10869   0.110   2.542   3.614  0.0662  0.9542  1.1835
  106SAPE   C2910870   0.284   2.565   3.715  0.2083  0.4356  0.6376
  106SAPE   H9R10871   0.225   2.615   3.793 -2.0482  1.0471 -1.3512
  106SAPE  C21010872   0.432   2.558   3.732  0.1753 -0.0600 -0.1512
  106SAPE  H10R10873   0.448   2.647   3.796 -0.0357  0.9608 -1.5052
  106SAPE  H10S10874   0.484   2.581   3.637 -0.9746  0.6966 -0.6107
  106SAPE  C21110875   0.483   2.436   3.813  0.3970  0.4025 -0.4372
  106SAPE  H11R10876   0.490   2.340   3.760  3.3385  0.4377 -0.2845
  106SAPE  C21210877   0.510   2.429   3.954  0.4173  0.3294  0.3634
  106SAPE  H12R10878   0.549   2.331   3.984 -0.3317 -0.2450 -0.4895
  106SAPE  C21310879   0.485   2.537   4.058 -0.4357  0.8607  0.3905
  106SAPE  H13R10880   0.388   2.512   4.107  0.2786 -2.4153  0.4088
  106SAPE  H13S10881   0.471   2.641   4.023 -1.7798  0.4201 -0.4602
  106SAPE  C21410882   0.599   2.531   4.153 -0.2474 -0.3434  0.1150
  106SAPE  H14R10883   0.695   2.538   4.099 -1.7296  1.4445 -2.4680
  106SAPE  C21510884   0.596   2.494   4.283 -0.2499  0.7894 -0.1703
  106SAPE  H15R10885   0.689   2.482   4.340  1.3005  0.7380 -2.5635
  106SAPE  C21610886   0.470   2.449   4.363 -0.1499 -0.0914 -0.9248
  106SAPE  H16R10887   0.378   2.509   4.347 -0.5129 -0.1433  0.7474
  106SAPE  H16S10888   0.490   2.450   4.473 -0.4652  2.0940 -0.8343
  106SAPE  C21710889   0.434   2.297   4.334  0.0661 -0.7350  0.5539
  106SAPE  H17R10890   0.530   2.240   4.335  1.0167  0.8037  0.7961
  106SAPE  H17S10891   0.383   2.289   4.236  0.6970 -0.1767  0.1707
  106SAPE  C21810892   0.340   2.236   4.441  0.7981  0.4500  0.4818
  106SAPE  H18R10893   0.250   2.299   4.431 -0.8979 -2.1245 -2.5199
  106SAPE  H18S10894   0.377   2.241   4.545  2.1991 -2.5271  0.2492
  106SAPE  C21910895   0.304   2.089   4.414  0.2468  0.1242 -0.0227
  106SAPE  H19R10896   0.402   2.040   4.398 -0.0431  0.0535 -1.7863
  106SAPE  H19S10897   0.243   2.080   4.321  0.7030  3.2069 -0.7494
  106SAPE  C22010898   0.219   2.033   4.531 -0.5766 -0.0951 -0.0944
  106SAPE  H20R10899   0.283   2.016   4.620 -1.4188 -0.7814  0.4014
  106SAPE  H20S10900   0.172   1.936   4.505 -0.0628 -0.6171  0.8979
  106SAPE  H20T10901   0.140   2.107   4.556 -0.1738  0.6164 -0.8847
  106SAPE   C3310902   0.772   2.627   3.497 -0.6416 -0.0096  0.3965
  106SAPE   H3X10903   0.671   2.610   3.538 -1.0285 -3.1525 -1.5645
  106SAPE   H3Y10904   0.808   2.728   3.530 -3.4717  0.4329  2.4719
  106SAPE   C3410905   0.868   2.524   3.543  0.3485 -0.7230  0.2222
  106SAPE   H4X10906   0.968   2.533   3.495  0.4011 -1.2810  0.2237
  106SAPE   H4Y10907   0.825   2.426   3.511 -1.4191 -0.6664  2.1941
  106SAPE   C3510908   0.891   2.520   3.695 -0.4428  0.0836  0.9707
  106SAPE   H5X10909   0.796   2.478   3.735 -0.0903 -2.2090 -0.4296
  106SAPE   H5Y10910   0.907   2.623   3.734  0.4042  0.8776 -1.3041
  106SAPE   C3610911   1.013   2.423   3.734  0.1329  0.1944  0.4254
  106SAPE   H6X10912   1.097   2.448   3.665 -0.8214  2.3902 -0.0335
  106SAPE   H6Y10913   0.988   2.318   3.709  1.5306 -0.0820  0.1098
  106SAPE   C3710914   1.058   2.442   3.883  0.0232 -0.0611  0.3326
  106SAPE   H7X10915   1.072   2.550   3.908  1.9623  0.0722 -1.0891
  106SAPE   H7Y10916   1.152   2.385   3.900 -0.8922 -1.8925 -0.4731
  106SAPE   C3810917   0.950   2.387   3.981 -0.1669  0.0294 -0.3595
  106SAPE   H8X10918   0.942   2.277   3.977  2.6030 -0.3306  1.1893
  106SAPE   H8Y10919   0.846   2.424   3.969  0.6364  1.7481 -2.8059
  106SAPE   C3910920   0.987   2.404   4.131 -0.7547  0.6191 -0.0098
  106SAPE   H9X10921   1.068   2.338   4.167  1.0399  2.7872  0.1539
  106SAPE   H9Y10922   0.895   2.372   4.185 -1.1616 -0.7260 -1.4201
  106SAPE  C31010923   1.006   2.549   4.168 -0.3513 -0.0713 -0.1409
  106SAPE  H10X10924   0.910   2.603   4.153 -0.7979 -0.3769  1.4464
  106SAPE  H10Y10925   1.091   2.599   4.117  2.2014 -1.6207  2.3236
  106SAPE  C31110926   1.052   2.564   4.317  0.1607 -0.2942 -0.0437
  106SAPE  H11X10927   1.103   2.657   4.348 -0.9182  0.1138  0.5612
  106SAPE  H11Y10928   1.129   2.486   4.336 -0.6711 -1.7541 -2.1492
  106SAPE  C31210929   0.934   2.553   4.425 -0.4045 -0.1085  0.2214
  106SAPE  H12X10930   0.883   2.458   4.400 -0.7410 -0.0277  0.6044
  106SAPE  H12Y10931   0.879   2.650   4.428  0.8398  0.5997  2.0498
  106SAPE  C31310932   0.991   2.523   4.561 -0.2994  0.0597 -0.1839
  106SAPE  H13X10933   1.073   2.594   4.585  0.0874 -0.0045 -1.2545
  106SAPE  H13Y10934   1.038   2.423   4.566  0.2480  0.3030 -0.3120
  106SAPE  C31410935   0.895   2.535   4.672 -0.1380  0.1122  0.1443
  106SAPE  H14X10936   0.874   2.641   4.698 -1.2592 -0.1535  0.3572
  106SAPE  H14Y10937   0.949   2.494   4.759  2.2279  0.7847 -0.9016
  106SAPE  C31510938   0.763   2.457   4.659  0.6690 -0.1355  0.2469
  106SAPE  H15X10939   0.781   2.363   4.604 -2.6589 -0.2246 -0.8677
  106SAPE  H15Y10940   0.686   2.512   4.601  0.9499  0.8612  0.7764
  106SAPE  C31610941   0.698   2.429   4.796  0.7199 -0.1830  0.9320
  106SAPE  H16X10942   0.661   2.525   4.839 -4.1674 -1.9215  1.3193
  106SAPE  H16Y10943   0.775   2.383   4.862  2.0484 -0.9988 -1.0949
  106SAPE  C31710944   0.575   2.336   4.777  0.1733 -0.0614 -0.0597
  106SAPE  H17X10945   0.604   2.232   4.749 -0.0843  0.2369 -1.4888
  106SAPE  H17Y10946   0.503   2.369   4.700 -1.5731  0.4496  1.7124
  106SAPE  C31810947   0.500   2.330   4.912 -0.0858 -0.6077  0.3771
  106SAPE  H18X10948   0.579   2.323   4.990  1.3226  0.9529 -0.8313
  106SAPE  H18Y10949   0.435   2.240   4.909  0.7562 -1.1863 -0.9305
  106SAPE  H18Z10950   0.434   2.420   4.913  0.5597 -0.1034 -0.7348
  107SAPE     N10951   5.130   5.317   2.800  0.4815  0.4041 -0.6288
  107SAPE   HN110952   5.157   5.237   2.738 -1.3749 -0.0303 -0.9312
  107SAPE   HN210953   5.102   5.270   2.888 -0.2510 -1.7479 -1.9244
  107SAPE   HN310954   5.048   5.374   2.771  0.0321 -0.4598 -1.1034
  107SAPE   C1210955   5.244   5.411   2.817 -0.5126  0.4483  0.2849
  107SAPE  H12A10956   5.205   5.514   2.830 -0.1531  1.0812 -2.7992
  107SAPE  H12B10957   5.307   5.406   2.725  0.5216 -0.3335  1.0164
  107SAPE   C1110958   5.331   5.364   2.929 -0.4349  0.2907 -0.7230
  107SAPE  H11A10959   5.275   5.360   3.026  1.0405 -1.3256  0.1133
  107SAPE  H11B10960   5.417   5.432   2.945  0.3812 -0.6290 -1.1053
  107SAPE     P10961   5.506   5.170   2.871  0.1584 -0.2274  0.2590
  107SAPE   O1310962   5.513   5.034   2.818  0.6491  0.2101 -0.2200
  107SAPE   O1410963   5.576   5.271   2.788  0.0305  0.5036  0.3100
  107SAPE   O1210964   5.360   5.222   2.898  0.4264  0.1770 -1.0085
  107SAPE   O1110965   5.569   5.177   3.018  0.1059  0.1540 -0.3111
  107SAPE    C110966   5.499   5.094   3.125 -0.4006 -0.1671  0.3415
  107SAPE    HA10967   5.401   5.049   3.098 -0.3534 -0.4013  0.5653
  107SAPE    HB10968   5.561   5.003   3.139  1.0142  0.1434 -2.8453
  107SAPE    C210969   5.492   5.162   3.262  0.1064 -0.3037 -0.1623
  107SAPE    HS10970   5.467   5.084   3.336  0.4424 -0.8515 -0.6239
  107SAPE   O2110971   5.386   5.263   3.262 -0.3740 -0.0122 -0.9391
  107SAPE   C2110972   5.269   5.214   3.279  0.2731  0.3008  0.3615
  107SAPE   O2210973   5.239   5.095   3.298 -0.1623 -0.1589  0.6245
  107SAPE   C2210974   5.165   5.324   3.277 -0.0349  0.1710 -0.0453
  107SAPE   H2R10975   5.198   5.412   3.337  3.3825 -0.9142 -0.1635
  107SAPE   H2S10976   5.137   5.360   3.175 -0.7869  0.3265  0.2070
  107SAPE    C310977   5.628   5.218   3.301 -0.0650 -0.2919  0.3444
  107SAPE    HX10978   5.678   5.293   3.235 -2.6156  0.6745 -0.5961
  107SAPE    HY10979   5.689   5.125   3.308 -2.1884 -1.9579 -1.7196
  107SAPE   O3110980   5.615   5.266   3.440 -0.1420  0.0674  0.2793
  107SAPE   C3110981   5.609   5.394   3.457 -1.2466  0.1248  0.1317
  107SAPE   O3210982   5.641   5.480   3.377 -0.2813 -0.2661  0.7937
  107SAPE   C3210983   5.534   5.414   3.597 -0.0907 -0.0265  0.4686
  107SAPE   H2X10984   5.427   5.414   3.567  0.2319  1.4792 -0.8316
  107SAPE   H2Y10985   5.565   5.514   3.635  0.1837 -1.0188  3.0017
  107SAPE   C2310986   5.022   5.287   3.335  0.5638 -0.0629 -0.1346
  107SAPE   H3R10987   4.981   5.202   3.276  1.7265  0.1348 -1.2858
  107SAPE   H3S10988   4.956   5.372   3.308 -0.9334 -1.0144  0.4472
  107SAPE   C2410989   5.006   5.260   3.483 -0.8600 -0.0647 -0.5618
  107SAPE   H4R10990   5.056   5.352   3.520 -0.7812 -0.2119 -0.2993
  107SAPE   H4S10991   5.063   5.169   3.512  0.0289  0.7273  0.2422
  107SAPE   C2510992   4.861   5.256   3.516  0.6099 -0.2363 -0.1054
  107SAPE   H5R10993   4.791   5.214   3.442  0.4969  0.8224 -0.6164
  107SAPE   C2610994   4.801   5.312   3.619 -0.3265  0.0589 -0.4121
  107SAPE   H6R10995   4.692   5.295   3.624 -0.3922 -0.1640 -2.0696
  107SAPE   C2710996   4.861   5.393   3.729  0.3256 -0.6351 -0.1431
  107SAPE   H7R10997   4.970   5.371   3.728  0.5089 -0.0758 -3.0482
  107SAPE   H7S10998   4.816   5.352   3.821  1.2996 -2.3381 -0.3771
  107SAPE   C2810999   4.845   5.544   3.708 -0.2714 -0.2146  0.0308
  107SAPE   H8R11000   4.910   5.584   3.629  1.3903 -0.1898  1.3563
  107SAPE   C2911001   4.764   5.625   3.774  0.2698 -0.3434  0.0311
  107SAPE   H9R11002   4.775   5.730   3.743  1.2107 -0.1913  0.8505
  107SAPE  C21011003   4.666   5.595   3.887 -0.1651  0.0495  0.2905
  107SAPE  H10R11004   4.699   5.631   3.987 -0.9438  0.8876  0.2602
  107SAPE  H10S11005   4.655   5.485   3.891  0.9258 -0.0928 -0.1754
  107SAPE  C21111006   4.533   5.667   3.858  0.1532 -0.5577  0.3587
  107SAPE  H11R11007   4.518   5.695   3.753  1.3192  0.3058  0.4011
  107SAPE  C21211008   4.446   5.722   3.942  0.5024  0.6950  0.0051
  107SAPE  H12R11009   4.345   5.757   3.914 -0.7154 -1.8903  0.8155
  107SAPE  C21311010   4.470   5.725   4.087 -0.7587  0.3072 -0.0725
  107SAPE  H13R11011   4.546   5.806   4.098  0.4130 -0.5604 -1.3425
  107SAPE  H13S11012   4.521   5.632   4.121  0.3351  0.8606 -0.1572
  107SAPE  C21411013   4.350   5.751   4.171 -0.0947 -0.7731 -0.3566
  107SAPE  H14R11014   4.334   5.855   4.202 -0.3072 -0.7873 -0.4182
  107SAPE  C21511015   4.254   5.670   4.211 -0.1148  0.3836  0.8408
  107SAPE  H15R11016   4.174   5.709   4.277 -0.4770 -0.0751  0.6827
  107SAPE  C21611017   4.250   5.524   4.174  0.1704  0.1731  0.0169
  107SAPE  H16R11018   4.344   5.494   4.125 -0.3726  0.1492 -1.0283
  107SAPE  H16S11019   4.161   5.498   4.112  0.5966  0.7254 -0.8416
  107SAPE  C21711020   4.227   5.429   4.294 -0.1339  0.6706 -0.0845
  107SAPE  H17R11021   4.209   5.328   4.252 -0.1719 -0.2703  2.0800
  107SAPE  H17S11022   4.139   5.469   4.350  0.6232  1.4445  0.5694
  107SAPE  C21811023   4.357   5.418   4.380 -0.4034 -0.4605 -0.1396
  107SAPE  H18R11024   4.366   5.512   4.439 -0.2648 -0.7740  0.3462
  107SAPE  H18S11025   4.454   5.420   4.325 -0.8646  0.2999 -0.9321
  107SAPE  C21911026   4.351   5.305   4.480 -0.3076  0.0428 -0.0091
  107SAPE  H19R11027   4.360   5.217   4.413  3.0094 -0.8541  1.4446
  107SAPE  H19S11028   4.251   5.292   4.527 -0.7468 -0.5150 -1.0600
  107SAPE  C22011029   4.459   5.308   4.590  0.2668  0.5655 -0.4381
  107SAPE  H20R11030   4.427   5.353   4.687 -3.6191 -1.9738 -0.3201
  107SAPE  H20S11031   4.561   5.328   4.550  0.1805 -3.1875 -2.9739
  107SAPE  H20T11032   4.482   5.205   4.624  1.3926  0.8731 -0.1956
  107SAPE   C3311033   5.548   5.306   3.703 -0.4560  0.4702  0.0735
  107SAPE   H3X11034   5.623   5.352   3.770 -0.4772  0.6486 -0.0257
  107SAPE   H3Y11035   5.586   5.211   3.658 -2.3546 -0.1267 -0.3748
  107SAPE   C3411036   5.422   5.273   3.783 -0.3153  0.0000 -0.0745
  107SAPE   H4X11037   5.452   5.217   3.875 -1.2981  2.3303  1.7623
  107SAPE   H4Y11038   5.361   5.199   3.728 -1.8707 -0.8585  2.6179
  107SAPE   C3511039   5.344   5.391   3.836 -0.4261  0.3870 -0.0840
  107SAPE   H5X11040   5.320   5.453   3.747 -0.2701 -0.4409 -0.7226
  107SAPE   H5Y11041   5.416   5.454   3.892  2.3733 -1.6400 -1.1075
  107SAPE   C3611042   5.229   5.363   3.929 -0.1861  0.2613  0.8753
  107SAPE   H6X11043   5.271   5.315   4.020  3.5147  1.1518 -0.1879
  107SAPE   H6Y11044   5.166   5.289   3.876 -1.6350  1.7056  0.4836
  107SAPE   C3711045   5.165   5.500   3.967  0.2598 -0.2542  0.1210
  107SAPE   H7X11046   5.128   5.545   3.873 -1.1355 -1.6561 -0.0523
  107SAPE   H7Y11047   5.239   5.567   4.015 -0.2327  0.3038  0.1171
  107SAPE   C3811048   5.041   5.486   4.064  0.1804  0.0542 -0.0195
  107SAPE   H8X11049   5.078   5.427   4.150 -0.5011 -0.7096 -0.2456
  107SAPE   H8Y11050   4.964   5.420   4.019  0.5665 -0.9500  0.7549
  107SAPE   C3911051   4.974   5.618   4.105  0.7397  0.3688 -0.0386
  107SAPE   H9X11052   4.868   5.593   4.123  0.8928 -1.6803 -1.6295
  107SAPE   H9Y11053   4.965   5.683   4.015 -2.8496 -1.3678 -1.1002
  107SAPE  C31011054   5.042   5.702   4.214  0.2610 -0.5004 -0.5364
  107SAPE  H10X11055   5.127   5.757   4.170  1.4191 -0.5065  1.5881
  107SAPE  H10Y11056   5.065   5.635   4.300 -4.2108 -1.7491 -0.0391
  107SAPE  C31111057   4.949   5.810   4.272 -0.3379  0.6397  0.1663
  107SAPE  H11X11058   4.955   5.894   4.199 -1.1297 -0.1984 -0.9102
  107SAPE  H11Y11059   4.990   5.839   4.371 -0.8539  0.5448  0.4089
  107SAPE  C31211060   4.804   5.770   4.288  0.7088 -0.1672 -0.6939
  107SAPE  H12X11061   4.818   5.672   4.338  0.0819  0.3425  0.5381
  107SAPE  H12Y11062   4.752   5.750   4.192  0.0749 -0.5068 -0.2899
  107SAPE  C31311063   4.720   5.868   4.376  0.0211 -0.6374  0.2548
  107SAPE  H13X11064   4.641   5.908   4.308 -0.0031 -0.0789  0.6029
  107SAPE  H13Y11065   4.775   5.956   4.415  0.0109 -0.4806 -0.0736
  107SAPE  C31411066   4.654   5.814   4.505 -0.2790  0.1605  0.3131
  107SAPE  H14X11067   4.595   5.725   4.473  2.3657 -1.9134  0.8703
  107SAPE  H14Y11068   4.589   5.896   4.543 -1.3435 -1.2468  1.6423
  107SAPE  C31511069   4.747   5.773   4.615 -0.7196 -0.0314 -0.3835
  107SAPE  H15X11070   4.827   5.850   4.621  0.8394 -1.6551  0.9852
  107SAPE  H15Y11071   4.796   5.676   4.590 -0.6202  0.2430 -1.2884
  107SAPE  C31611072   4.672   5.764   4.746  0.0899  0.0630  0.4166
  107SAPE  H16X11073   4.619   5.861   4.758 -0.2877 -0.0203 -0.4661
  107SAPE  H16Y11074   4.731   5.752   4.839  1.3218  0.9331 -0.2349
  107SAPE  C31711075   4.570   5.644   4.749  0.2094 -0.1266  0.1522
  107SAPE  H17X11076   4.628   5.550   4.759  0.7845 -0.2535 -3.2081
  107SAPE  H17Y11077   4.525   5.633   4.648 -1.3975  2.3552  0.5107
  107SAPE  C31811078   4.468   5.669   4.857 -0.4869 -0.1299 -0.5608
  107SAPE  H18X11079   4.404   5.757   4.836 -0.4606  0.1502  0.4519
  107SAPE  H18Y11080   4.527   5.695   4.948  0.5299 -2.4895 -0.4741
  107SAPE  H18Z11081   4.407   5.579   4.879 -1.3230  0.0997 -1.8687
  108SAPE     N11082   2.984   0.855   2.029  0.1985  0.0619  0.0164
  108SAPE   HN111083   3.050   0.890   2.101  1.7041  1.2952 -1.8445
  108SAPE   HN211084   3.043   0.815   1.953  0.3974 -1.4207  0.9140
  108SAPE   HN311085   2.924   0.926   1.982  1.3248 -1.6086 -4.4535
  108SAPE   C1211086   2.903   0.748   2.083  0.0765  0.1894  0.8286
  108SAPE  H12A11087   2.976   0.669   2.110 -0.2584 -1.0112 -1.5234
  108SAPE  H12B11088   2.842   0.702   2.002  0.6977  0.0119  0.4545
  108SAPE   C1111089   2.805   0.785   2.198  0.6334 -0.4200 -0.4378
  108SAPE  H11A11090   2.855   0.816   2.292 -1.5155  1.8206  0.0889
  108SAPE  H11B11091   2.732   0.706   2.225 -0.3670  0.2830 -0.9930
  108SAPE     P11092   2.584   0.917   2.179 -0.1801 -0.1715 -0.1065
  108SAPE   O1311093   2.538   1.026   2.083  0.1198  0.4265  0.3059
  108SAPE   O1411094   2.515   0.782   2.174 -0.0392  0.0193 -0.3202
  108SAPE   O1211095   2.740   0.901   2.149 -0.6789  0.0333 -0.0753
  108SAPE   O1111096   2.570   0.966   2.324 -0.3202  0.1327 -0.3462
  108SAPE    C111097   2.604   1.096   2.373 -0.2670 -0.5703  0.1117
  108SAPE    HA11098   2.646   1.163   2.295 -0.7091  0.0326  0.3754
  108SAPE    HB11099   2.510   1.154   2.390  0.4679  0.7501 -0.1877
  108SAPE    C211100   2.700   1.079   2.497 -0.4919 -0.5790  0.2675
  108SAPE    HS11101   2.716   0.971   2.517  1.7149 -0.0296  1.7902
  108SAPE   O2111102   2.640   1.147   2.605  0.6295  0.4730  0.1850
  108SAPE   C2111103   2.534   1.081   2.653 -0.4341 -0.6195 -0.0503
  108SAPE   O2211104   2.488   0.978   2.616 -0.0464 -0.1689 -0.5725
  108SAPE   C2211105   2.469   1.168   2.761  0.5968 -0.5215  0.0913
  108SAPE   H2R11106   2.513   1.140   2.859  0.5161 -2.0659 -0.2984
  108SAPE   H2S11107   2.494   1.274   2.739  1.2759 -0.6182  0.3666
  108SAPE    C311108   2.845   1.138   2.483  0.0223  0.5117 -0.4092
  108SAPE    HX11109   2.850   1.247   2.465 -0.2343  0.7598  0.9427
  108SAPE    HY11110   2.878   1.090   2.387 -2.6585 -2.3470 -0.0642
  108SAPE   O3111111   2.929   1.111   2.598 -0.5049  0.8349 -0.5000
  108SAPE   C3111112   2.935   1.210   2.685 -0.0154 -0.8363 -0.4513
  108SAPE   O3211113   2.871   1.315   2.681  0.2304 -0.4294 -0.5001
  108SAPE   C3211114   3.016   1.165   2.801 -0.3304 -0.3074 -0.1517
  108SAPE   H2X11115   3.110   1.225   2.799 -0.5313  0.0795  1.2945
  108SAPE   H2Y11116   3.051   1.061   2.784  2.2387 -0.3515  3.9160
  108SAPE   C2311117   2.314   1.162   2.768 -0.4247  0.3681  0.0783
  108SAPE   H3R11118   2.286   1.055   2.780  0.7245  0.1707  1.2073
  108SAPE   H3S11119   2.260   1.200   2.679 -2.7866 -2.0545  0.3565
  108SAPE   C2411120   2.274   1.250   2.887 -0.3757  0.4948 -0.5167
  108SAPE   H4R11121   2.309   1.353   2.868 -0.9226  0.4363 -2.0254
  108SAPE   H4S11122   2.325   1.218   2.981  0.2644  2.6248 -0.1010
  108SAPE   C2511123   2.124   1.261   2.895  0.6518  0.8040  0.3347
  108SAPE   H5R11124   2.070   1.284   2.803  0.2073  1.8379  0.8383
  108SAPE   C2611125   2.050   1.233   3.005 -0.3234  0.6943  0.4013
  108SAPE   H6R11126   1.942   1.214   2.990 -0.6594  2.0883  0.9123
  108SAPE   C2711127   2.090   1.211   3.148  0.7285  0.9397 -0.7711
  108SAPE   H7R11128   2.035   1.289   3.204  0.0786 -0.2547  0.2939
  108SAPE   H7S11129   2.197   1.231   3.170 -0.0544  0.5260  4.5751
  108SAPE   C2811130   2.048   1.074   3.187 -0.0489 -0.6556 -0.0860
  108SAPE   H8R11131   2.055   1.000   3.105  0.1562  0.1606 -0.8163
  108SAPE   C2911132   2.011   1.033   3.312 -1.1497  0.0634  0.1012
  108SAPE   H9R11133   1.989   0.927   3.331  0.1750 -0.3808 -0.6858
  108SAPE  C21011134   2.029   1.123   3.433 -0.0089  0.4596  0.0491
  108SAPE  H10R11135   2.072   1.215   3.389  0.7820 -0.3352 -0.8947
  108SAPE  H10S11136   2.106   1.090   3.506  0.4871  0.7754 -0.3187
  108SAPE  C21111137   1.898   1.146   3.509  0.1029 -0.6153  0.0275
  108SAPE  H11R11138   1.810   1.111   3.453 -0.3880  0.5068  0.0514
  108SAPE  C21211139   1.880   1.191   3.630  0.4790  0.3284 -0.2629
  108SAPE  H12R11140   1.776   1.189   3.667  0.9717 -0.7210  1.1464
  108SAPE  C21311141   1.977   1.247   3.730  0.0934  0.7445  0.8003
  108SAPE  H13R11142   1.937   1.336   3.785 -0.6264  0.7648  0.2536
  108SAPE  H13S11143   2.056   1.301   3.674 -2.4301  1.8422 -1.9963
  108SAPE  C21411144   2.035   1.145   3.821 -0.8779 -1.4568  0.0017
  108SAPE  H14R11145   2.099   1.078   3.761 -0.1047  0.6335 -1.6224
  108SAPE  C21511146   2.056   1.157   3.956  0.4929 -0.3447  0.2489
  108SAPE  H15R11147   2.088   1.069   4.015 -0.9030  0.1601  1.8226
  108SAPE  C21611148   1.990   1.253   4.048  0.1436  0.0896  0.6057
  108SAPE  H16R11149   1.947   1.344   4.001  1.1954 -0.1135 -0.8127
  108SAPE  H16S11150   2.068   1.292   4.116 -0.3946 -0.1848  1.3965
  108SAPE  C21711151   1.865   1.196   4.130  0.1822 -0.3822 -0.1457
  108SAPE  H17R11152   1.902   1.095   4.159  2.1871  0.1807 -0.5778
  108SAPE  H17S11153   1.771   1.182   4.072  0.4450 -3.6688  0.0211
  108SAPE  C21811154   1.842   1.289   4.249 -0.2259  0.3185  0.4513
  108SAPE  H18R11155   1.927   1.279   4.319 -1.9592 -0.6498  2.5611
  108SAPE  H18S11156   1.757   1.249   4.308  0.7313 -3.0612 -0.2556
  108SAPE  C21911157   1.793   1.432   4.219 -0.2309 -0.9690  0.4673
  108SAPE  H19R11158   1.698   1.455   4.166  0.9804  2.3091 -0.5622
  108SAPE  H19S11159   1.870   1.489   4.161 -1.5719  2.2390  1.6024
  108SAPE  C22011160   1.792   1.516   4.350 -0.2238  0.3201  0.3714
  108SAPE  H20R11161   1.883   1.490   4.409  0.0928  1.9313  0.6408
  108SAPE  H20S11162   1.694   1.491   4.397  0.3628 -0.6159  1.1248
  108SAPE  H20T11163   1.806   1.624   4.327 -0.6069 -0.2638 -3.2186
  108SAPE   C3311164   2.938   1.168   2.937  0.2659 -0.3369 -0.0279
  108SAPE   H3X11165   2.841   1.116   2.917 -0.3917  1.1438 -0.8318
  108SAPE   H3Y11166   2.918   1.266   2.986  1.9403 -1.0455  2.2296
  108SAPE   C3411167   3.013   1.093   3.051  0.2407 -0.4796 -0.0591
  108SAPE   H4X11168   3.110   1.147   3.053  0.1268 -0.2871  0.5679
  108SAPE   H4Y11169   3.030   0.987   3.024 -2.1425 -0.6501 -1.1638
  108SAPE   C3511170   2.947   1.098   3.189 -0.7355 -0.5330 -0.4658
  108SAPE   H5X11171   3.000   1.176   3.249  0.0928 -0.9696 -0.6229
  108SAPE   H5Y11172   2.837   1.113   3.185 -0.4993  2.4733  1.0841
  108SAPE   C3611173   2.980   0.970   3.274 -0.2727  0.0479  0.0610
  108SAPE   H6X11174   3.082   0.933   3.251 -0.5416 -0.4078 -0.4167
  108SAPE   H6Y11175   2.926   0.876   3.251  1.6923 -0.6829 -1.8847
  108SAPE   C3711176   2.976   0.999   3.422  0.2438  0.2077 -0.2633
  108SAPE   H7X11177   2.874   1.035   3.448  0.6480  0.7531  0.6501
  108SAPE   H7Y11178   3.042   1.085   3.445  1.0679 -0.2210 -0.9551
  108SAPE   C3811179   3.019   0.885   3.519  0.0795 -0.0796  0.4287
  108SAPE   H8X11180   3.127   0.860   3.517  0.3259  0.9800 -0.6641
  108SAPE   H8Y11181   2.971   0.787   3.499 -0.3856 -0.1579  1.8024
  108SAPE   C3911182   2.980   0.929   3.662  0.0979  0.6795  0.5441
  108SAPE   H9X11183   2.883   0.983   3.663  0.8557  2.1028  0.1154
  108SAPE   H9Y11184   3.051   1.002   3.705  1.5087  0.7111 -1.6632
  108SAPE  C31011185   2.969   0.813   3.757  0.1754  0.5953  0.1710
  108SAPE  H10X11186   3.066   0.775   3.796  1.4728  2.3890 -1.1280
  108SAPE  H10Y11187   2.917   0.737   3.695 -1.9792  1.0327  1.3455
  108SAPE  C31111188   2.893   0.852   3.885  0.9124 -0.4215  0.0553
  108SAPE  H11X11189   2.870   0.751   3.927 -1.5901  0.5367  1.1919
  108SAPE  H11Y11190   2.791   0.894   3.872  0.9494 -0.2770  0.2308
  108SAPE  C31211191   2.971   0.942   3.984  0.4698  0.2362  0.6330
  108SAPE  H12X11192   2.911   1.033   4.009  2.2660  2.5619 -2.7305
  108SAPE  H12Y11193   3.057   0.979   3.925 -1.6754  1.4247 -1.9874
  108SAPE  C31311194   3.011   0.859   4.110 -0.0787  0.1223  0.1074
  108SAPE  H13X11195   3.094   0.920   4.153  0.8993  0.6275 -2.3499
  108SAPE  H13Y11196   3.048   0.758   4.081  0.6569 -0.1888  1.9943
  108SAPE  C31411197   2.892   0.843   4.207 -0.2895 -0.7336  0.2058
  108SAPE  H14X11198   2.816   0.782   4.155  1.0877 -0.4284 -2.2965
  108SAPE  H14Y11199   2.850   0.943   4.230 -1.1332 -1.4987  2.1852
  108SAPE  C31511200   2.939   0.781   4.337  0.3086  0.0061  0.4388
  108SAPE  H15X11201   3.014   0.852   4.377 -0.6765  0.1187  2.1627
  108SAPE  H15Y11202   2.984   0.681   4.319  0.3528 -0.5327  3.1860
  108SAPE  C31611203   2.831   0.755   4.443 -0.0639 -0.5962 -0.3477
  108SAPE  H16X11204   2.792   0.651   4.432  0.1909 -0.5199 -2.6275
  108SAPE  H16Y11205   2.743   0.821   4.430  0.7834  0.4533 -0.8915
  108SAPE  C31711206   2.896   0.778   4.580  0.8618  0.7103 -0.3751
  108SAPE  H17X11207   2.922   0.886   4.589  0.9680  0.8264 -1.8560
  108SAPE  H17Y11208   2.993   0.725   4.588  0.0679 -1.1750 -2.1849
  108SAPE  C31811209   2.807   0.752   4.701  0.2637 -0.0384 -0.3632
  108SAPE  H18X11210   2.707   0.802   4.696  0.5408  0.4365 -1.5331
  108SAPE  H18Y11211   2.859   0.782   4.795 -0.2954  0.1360 -0.1034
  108SAPE  H18Z11212   2.780   0.646   4.718 -1.8432  0.7330  1.7949
  109SAPE     N11213   2.436   6.166   2.691  0.0351 -0.2740 -0.9117
  109SAPE   HN111214   2.399   6.149   2.786 -1.1480 -0.8967 -1.4526
  109SAPE   HN211215   2.415   6.266   2.673  1.9753  0.9265  2.5544
  109SAPE   HN311216   2.386   6.100   2.627 -2.0059  0.5889 -0.2714
  109SAPE   C1211217   2.583   6.138   2.689 -0.3241 -0.7644  0.6186
  109SAPE  H12A11218   2.618   6.157   2.585  0.8503 -2.5601  0.6336
  109SAPE  H12B11219   2.593   6.029   2.709 -0.0877 -1.9187 -4.4488
  109SAPE   C1111220   2.665   6.228   2.795  0.1161 -0.0088 -0.0517
  109SAPE  H11A11221   2.771   6.197   2.795  1.7917  4.7487  1.8960
  109SAPE  H11B11222   2.637   6.200   2.899  0.3006  0.8842  0.2492
  109SAPE     P11223   2.759   6.439   2.664  0.2997  0.0151 -0.3888
  109SAPE   O1311224   2.738   6.362   2.544 -0.1488  0.0313  0.2651
  109SAPE   O1411225   2.737   6.583   2.645  0.0178 -0.1656  0.7353
  109SAPE   O1211226   2.664   6.373   2.778 -0.1017 -0.1135 -0.1850
  109SAPE   O1111227   2.899   6.407   2.733  0.3529  0.1925 -0.1672
  109SAPE    C111228   2.923   6.443   2.869 -0.1322 -0.1711 -0.1851
  109SAPE    HA11229   2.830   6.437   2.930 -0.0594  1.8139  0.1673
  109SAPE    HB11230   3.002   6.378   2.914 -0.9580 -0.8260  0.3572
  109SAPE    C211231   2.992   6.576   2.898  0.7544  0.8933 -0.0425
  109SAPE    HS11232   3.022   6.579   3.005  0.5687  2.1310  0.0009
  109SAPE   O2111233   2.901   6.688   2.868 -0.6931  0.5339 -0.5042
  109SAPE   C2111234   2.814   6.712   2.953  1.0739  0.3010 -0.6773
  109SAPE   O2211235   2.788   6.656   3.060  0.1667  0.2072 -0.0830
  109SAPE   C2211236   2.726   6.828   2.905 -0.0505 -0.2537  0.4845
  109SAPE   H2R11237   2.747   6.858   2.800  1.2355 -0.6495  0.6161
  109SAPE   H2S11238   2.620   6.796   2.916 -0.8027  1.9734  0.3582
  109SAPE    C311239   3.125   6.587   2.816  0.4347 -0.0861 -0.3160
  109SAPE    HX11240   3.177   6.683   2.833  0.2821 -0.0941  0.2206
  109SAPE    HY11241   3.097   6.567   2.710 -1.1761 -1.9858  0.3880
  109SAPE   O3111242   3.206   6.476   2.866  0.2371  0.2590  0.4569
  109SAPE   C3111243   3.332   6.486   2.862 -0.3182 -0.6139  0.1689
  109SAPE   O3211244   3.398   6.585   2.822  0.3361  0.4306  0.1620
  109SAPE   C3211245   3.404   6.356   2.897  0.3712 -0.1549  0.4215
  109SAPE   H2X11246   3.427   6.361   3.006  0.9006  2.3322  0.2582
  109SAPE   H2Y11247   3.506   6.354   2.852  1.2048 -1.0547  2.2419
  109SAPE   C2311248   2.758   6.950   2.994 -0.2589 -0.6438  0.0681
  109SAPE   H3R11249   2.864   6.980   3.000 -0.5311  0.1251  2.0060
  109SAPE   H3S11250   2.740   6.922   3.101  0.4954  0.8241  0.5976
  109SAPE   C2411251   2.694   7.077   2.955  0.2697 -0.3866  0.3685
  109SAPE   H4R11252   2.719   7.104   2.850  0.9491 -1.4861  0.2182
  109SAPE   H4S11253   2.735   7.152   3.026  1.8992  0.3625 -1.2655
  109SAPE   C2511254   2.544   7.068   2.953 -0.0654  0.3554  0.2926
  109SAPE   H5R11255   2.497   7.033   2.860  1.3276  1.0405 -0.7042
  109SAPE   C2611256   2.472   7.089   3.062  0.0651  0.1522  0.9799
  109SAPE   H6R11257   2.364   7.069   3.055  0.3317 -0.8128 -1.7264
  109SAPE   C2711258   2.516   7.130   3.204 -0.4178  0.1372  0.0623
  109SAPE   H7R11259   2.624   7.155   3.211 -0.0422 -1.6363  1.1064
  109SAPE   H7S11260   2.496   7.040   3.266  0.0059  0.7104  1.0497
  109SAPE   C2811261   2.425   7.235   3.255  0.2148  0.0587 -0.1209
  109SAPE   H8R11262   2.321   7.235   3.218  1.0067 -2.4309 -2.7136
  109SAPE   C2911263   2.451   7.327   3.347  0.5635  0.9770 -0.8434
  109SAPE   H9R11264   2.361   7.382   3.378 -1.6087 -2.7548  0.0683
  109SAPE  C21011265   2.576   7.357   3.418 -0.1551  0.6696  0.4958
  109SAPE  H10R11266   2.642   7.384   3.333 -0.8805 -0.4574 -0.4593
  109SAPE  H10S11267   2.614   7.267   3.472  1.8446  0.1552 -1.6317
  109SAPE  C21111268   2.569   7.479   3.501  0.2547 -0.3630 -0.6089
  109SAPE  H11R11269   2.540   7.568   3.444  3.6335  1.4665  0.1960
  109SAPE  C21211270   2.598   7.487   3.630  0.4290 -0.3897  0.2701
  109SAPE  H12R11271   2.593   7.588   3.674  0.5482  0.2342 -1.1123
  109SAPE  C21311272   2.648   7.377   3.721 -0.1829 -0.3096  0.1421
  109SAPE  H13R11273   2.714   7.420   3.799 -0.2270  0.1570 -0.0704
  109SAPE  H13S11274   2.712   7.311   3.658 -0.5080 -0.3028 -0.1958
  109SAPE  C21411275   2.526   7.301   3.786  0.3768  0.3886  0.1761
  109SAPE  H14R11276   2.499   7.200   3.753  0.4727  0.5839 -0.5142
  109SAPE  C21511277   2.451   7.359   3.887  0.0686  0.7659 -0.1850
  109SAPE  H15R11278   2.370   7.295   3.926  1.4864 -1.6237 -0.9167
  109SAPE  C21611279   2.475   7.495   3.942 -0.0503 -0.3648  0.5857
  109SAPE  H16R11280   2.380   7.547   3.916  1.0467  1.0918 -0.7300
  109SAPE  H16S11281   2.564   7.543   3.897  1.1916 -3.8124 -1.0143
  109SAPE  C21711282   2.496   7.486   4.091 -0.1856 -0.5317  0.2100
  109SAPE  H17R11283   2.596   7.442   4.111 -0.7978 -1.8479  0.4313
  109SAPE  H17S11284   2.423   7.412   4.128  0.6802 -0.8550  1.3011
  109SAPE  C21811285   2.477   7.629   4.142  0.4492 -0.0014 -0.0685
  109SAPE  H18R11286   2.387   7.677   4.099 -0.7464 -0.1469  2.1050
  109SAPE  H18S11287   2.554   7.704   4.113 -0.1729  1.8133  2.5734
  109SAPE  C21911288   2.470   7.639   4.295  0.2184  0.1348 -0.0863
  109SAPE  H19R11289   2.554   7.586   4.346 -0.4417  0.8076  1.7687
  109SAPE  H19S11290   2.379   7.582   4.324 -0.2080  0.4326 -0.8022
  109SAPE  C22011291   2.434   7.775   4.354  0.2135 -0.2043  0.1117
  109SAPE  H20R11292   2.398   7.767   4.458 -0.8517  0.9258 -0.1441
  109SAPE  H20S11293   2.345   7.818   4.302  0.4449  0.8345  0.5476
  109SAPE  H20T11294   2.518   7.848   4.354 -0.6686  0.8406  0.2407
  109SAPE   C3311295   3.333   6.228   2.864  0.0547  0.5951 -0.1960
  109SAPE   H3X11296   3.287   6.228   2.763  0.1622 -0.2335 -0.2485
  109SAPE   H3Y11297   3.246   6.214   2.931  1.2829 -1.1452  1.1089
  109SAPE   C3411298   3.422   6.110   2.881 -0.8293 -0.3322 -0.3365
  109SAPE   H4X11299   3.500   6.111   2.802 -0.5041  0.0416 -0.0170
  109SAPE   H4Y11300   3.358   6.020   2.877 -0.0938 -0.8894  0.1352
  109SAPE   C3511301   3.487   6.113   3.024  0.7419  1.0366  0.0776
  109SAPE   H5X11302   3.570   6.187   3.031 -0.9782  2.9626  1.7882
  109SAPE   H5Y11303   3.542   6.019   3.042 -3.5935 -1.6433  0.9276
  109SAPE   C3611304   3.399   6.105   3.150  0.3165  0.5664 -0.0621
  109SAPE   H6X11305   3.330   6.018   3.150 -1.0928  1.5839 -2.5014
  109SAPE   H6Y11306   3.324   6.187   3.145 -0.0482  0.1878 -1.3948
  109SAPE   C3711307   3.479   6.111   3.280 -0.0673 -0.3864  0.6338
  109SAPE   H7X11308   3.516   6.214   3.299 -1.0942  0.3459 -1.0524
  109SAPE   H7Y11309   3.569   6.046   3.281  0.7748  0.7125 -0.4044
  109SAPE   C3811310   3.386   6.076   3.398 -0.0931  0.2568 -0.6076
  109SAPE   H8X11311   3.349   5.972   3.386 -0.5223  0.3800 -0.3859
  109SAPE   H8Y11312   3.295   6.141   3.397  0.9593  1.9857  2.2075
  109SAPE   C3911313   3.454   6.114   3.533 -0.0183 -0.3801 -0.0615
  109SAPE   H9X11314   3.427   6.215   3.569 -0.3371 -1.2358  2.3167
  109SAPE   H9Y11315   3.565   6.108   3.528 -0.0185  0.3509 -1.6146
  109SAPE  C31011316   3.412   6.015   3.640 -0.0820  0.3461 -0.0609
  109SAPE  H10X11317   3.463   5.923   3.603  0.9509  0.9857 -0.2786
  109SAPE  H10Y11318   3.302   6.001   3.637  0.0700 -0.8617 -0.7760
  109SAPE  C31111319   3.464   6.051   3.780 -0.0882 -0.8269 -0.8247
  109SAPE  H11X11320   3.407   6.141   3.811  1.2140  0.9878 -3.2574
  109SAPE  H11Y11321   3.566   6.090   3.759 -1.3433  2.0691 -2.0490
  109SAPE  C31211322   3.457   5.937   3.877  0.3246  0.0602  0.3373
  109SAPE  H12X11323   3.552   5.881   3.864 -0.9594 -1.8578 -1.3522
  109SAPE  H12Y11324   3.378   5.872   3.833  1.5944 -0.4917 -1.2378
  109SAPE  C31311325   3.437   5.984   4.022 -0.1222 -0.4763  0.6910
  109SAPE  H13X11326   3.348   6.051   4.026  1.3560  1.5904  0.3896
  109SAPE  H13Y11327   3.522   6.052   4.043 -0.8240  0.3644  0.8492
  109SAPE  C31411328   3.455   5.880   4.123 -0.5764 -0.8263 -0.2554
  109SAPE  H14X11329   3.554   5.832   4.110 -1.2015 -2.0916 -0.5178
  109SAPE  H14Y11330   3.386   5.795   4.102 -1.4625 -0.5461  1.3937
  109SAPE  C31511331   3.414   5.909   4.271  0.0378  0.0231 -0.3294
  109SAPE  H15X11332   3.406   6.019   4.285 -2.3346 -0.3067  1.3967
  109SAPE  H15Y11333   3.501   5.875   4.331 -1.3489 -2.0894  0.5828
  109SAPE  C31611334   3.297   5.815   4.315 -0.0625  0.2801 -0.0917
  109SAPE  H16X11335   3.328   5.709   4.305  0.2909  0.2689  0.9745
  109SAPE  H16Y11336   3.211   5.827   4.246  0.6775 -2.4602 -1.5990
  109SAPE  C31711337   3.259   5.860   4.457 -0.0408  1.3967 -0.3071
  109SAPE  H17X11338   3.262   5.970   4.448 -0.1534  1.4652  0.4035
  109SAPE  H17Y11339   3.337   5.840   4.534 -0.4265 -0.4056 -0.3309
  109SAPE  C31811340   3.120   5.811   4.502 -0.8635 -0.0506  0.5798
  109SAPE  H18X11341   3.098   5.703   4.487  0.2890 -0.2002 -0.1746
  109SAPE  H18Y11342   3.058   5.873   4.433  1.2151 -0.7793 -2.0890
  109SAPE  H18Z11343   3.108   5.838   4.609  0.9891  1.0224  0.5622
  110SAPE     N11344   5.133   3.514   2.473  0.3852 -0.0132 -0.5448
  110SAPE   HN111345   5.143   3.617   2.477  0.9263 -0.0651 -0.4662
  110SAPE   HN211346   5.222   3.463   2.491 -0.7726 -2.2249 -0.7287
  110SAPE   HN311347   5.103   3.499   2.374 -0.7198  1.5288 -0.4776
  110SAPE   C1211348   5.028   3.461   2.570 -0.1521 -0.1928  0.2101
  110SAPE  H12A11349   4.993   3.361   2.535 -1.0884 -0.0261  0.6387
  110SAPE  H12B11350   4.942   3.531   2.579 -0.7242 -1.0593  1.8884
  110SAPE   C1111351   5.092   3.429   2.707  0.6091 -0.4655  0.4562
  110SAPE  H11A11352   5.174   3.354   2.702  0.4894 -0.5407 -0.4713
  110SAPE  H11B11353   5.016   3.384   2.774  0.2898 -0.6618 -0.0355
  110SAPE     P11354   5.285   3.588   2.799  0.0074  0.1983 -0.1292
  110SAPE   O1311355   5.333   3.630   2.669  0.0470 -0.0582 -0.3743
  110SAPE   O1411356   5.292   3.695   2.899 -0.4751  0.0517 -0.0608
  110SAPE   O1211357   5.136   3.553   2.767  0.1569 -0.0454 -0.4183
  110SAPE   O1111358   5.349   3.455   2.833 -0.0173 -0.1354 -0.3340
  110SAPE    C111359   5.378   3.399   2.963  0.3032 -0.1870 -0.4196
  110SAPE    HA11360   5.472   3.340   2.955  0.9825  0.8843 -0.4822
  110SAPE    HB11361   5.408   3.475   3.038 -0.7018 -1.9734  1.9384
  110SAPE    C211362   5.270   3.302   3.017  0.1062  0.6220  0.1096
  110SAPE    HS11363   5.230   3.241   2.934 -0.1428 -0.0734  0.7259
  110SAPE   O2111364   5.164   3.388   3.073 -0.0149 -0.0514  0.7679
  110SAPE   C2111365   5.051   3.317   3.083 -0.3466 -0.2195 -0.6880
  110SAPE   O2211366   5.029   3.212   3.031 -0.1794 -0.3714  0.4792
  110SAPE   C2211367   4.941   3.407   3.154  0.3858 -0.7608  0.6718
  110SAPE   H2R11368   4.983   3.437   3.252  2.8481  1.8550 -1.0197
  110SAPE   H2S11369   4.935   3.498   3.091  0.3438 -0.4774  1.0837
  110SAPE    C311370   5.321   3.210   3.126 -0.3701  0.0708 -0.3218
  110SAPE    HX11371   5.249   3.130   3.154 -1.3531  2.1507  3.8139
  110SAPE    HY11372   5.406   3.156   3.078  0.9037  0.4668  1.4046
  110SAPE   O3111373   5.370   3.281   3.239 -0.4658  0.7604  0.1962
  110SAPE   C3111374   5.503   3.299   3.246 -0.6395 -0.0345 -0.1394
  110SAPE   O3211375   5.590   3.244   3.180  0.0106  0.0160  0.2819
  110SAPE   C3211376   5.533   3.389   3.369  0.4464 -0.8463 -0.7037
  110SAPE   H2X11377   5.555   3.491   3.332 -0.7985 -0.2175  0.2027
  110SAPE   H2Y11378   5.632   3.368   3.414 -0.0079  1.3113  1.4682
  110SAPE   C2311379   4.802   3.335   3.176  0.3492 -0.0599  0.1692
  110SAPE   H3R11380   4.814   3.235   3.223 -1.1844  0.0738  0.9352
  110SAPE   H3S11381   4.749   3.311   3.081  1.0661  0.9073 -0.4904
  110SAPE   C2411382   4.706   3.425   3.258  0.4489  0.4923 -0.4175
  110SAPE   H4R11383   4.660   3.493   3.184 -0.8041 -0.4836 -0.5750
  110SAPE   H4S11384   4.772   3.483   3.326 -0.2535  1.3529 -0.4515
  110SAPE   C2511385   4.606   3.344   3.335  0.6100 -0.7579 -0.3172
  110SAPE   H5R11386   4.532   3.284   3.280  1.1489 -1.4952 -0.2450
  110SAPE   C2611387   4.615   3.320   3.469 -0.3299  0.6122 -0.0876
  110SAPE   H6R11388   4.537   3.254   3.509 -0.9988  0.1234 -2.0961
  110SAPE   C2711389   4.709   3.377   3.573 -0.2735 -0.4088  0.2425
  110SAPE   H7R11390   4.649   3.383   3.667  0.5996 -2.1065  0.9320
  110SAPE   H7S11391   4.735   3.484   3.555  3.7470 -1.0659  1.2257
  110SAPE   C2811392   4.839   3.306   3.602 -0.8515  0.1248 -0.2013
  110SAPE   H8R11393   4.894   3.269   3.514  2.0426  0.9763  1.1325
  110SAPE   C2911394   4.891   3.270   3.725  0.5923  0.4967  0.0436
  110SAPE   H9R11395   4.982   3.209   3.716  0.5097  0.6167 -2.5447
  110SAPE  C21011396   4.830   3.320   3.857 -0.4285 -0.1344 -0.5139
  110SAPE  H10R11397   4.871   3.260   3.942  0.0798 -0.0815 -0.7162
  110SAPE  H10S11398   4.721   3.309   3.874 -0.2856 -0.8781 -0.0189
  110SAPE  C21111399   4.875   3.462   3.879 -0.3606 -0.0310 -0.5125
  110SAPE  H11R11400   4.918   3.516   3.794 -1.3155 -2.0294 -2.3580
  110SAPE  C21211401   4.851   3.534   3.989 -0.0276 -1.2579  0.0560
  110SAPE  H12R11402   4.900   3.632   3.991 -1.0200 -0.7375 -0.5448
  110SAPE  C21311403   4.800   3.473   4.115  0.1179 -0.3964  0.4340
  110SAPE  H13R11404   4.826   3.544   4.197  0.7225 -0.4346  0.2832
  110SAPE  H13S11405   4.857   3.378   4.125  0.7405 -0.7162 -4.0074
  110SAPE  C21411406   4.651   3.454   4.113 -0.4735  0.1633 -0.0357
  110SAPE  H14R11407   4.623   3.380   4.037  0.3984 -0.1898 -0.0243
  110SAPE  C21511408   4.553   3.506   4.189 -0.1958 -0.2263  0.0813
  110SAPE  H15R11409   4.448   3.483   4.166 -0.1954 -1.3796  1.1551
  110SAPE  C21611410   4.587   3.608   4.294 -0.4489 -0.0287 -0.2244
  110SAPE  H16R11411   4.495   3.670   4.303  0.3530  1.4126 -1.3754
  110SAPE  H16S11412   4.667   3.678   4.258 -1.5740  0.4875 -1.8391
  110SAPE  C21711413   4.622   3.546   4.425 -0.1232  0.7916 -0.3681
  110SAPE  H17R11414   4.716   3.487   4.413 -1.4954 -1.6224  0.1083
  110SAPE  H17S11415   4.538   3.479   4.451  1.1046  0.1335  2.2308
  110SAPE  C21811416   4.633   3.642   4.546 -0.1040  0.0288 -0.6467
  110SAPE  H18R11417   4.633   3.582   4.641 -2.4329  0.6349 -0.2047
  110SAPE  H18S11418   4.549   3.714   4.551 -0.9462 -0.9379 -0.5889
  110SAPE  C21911419   4.756   3.725   4.542  0.2749  0.2256  0.2108
  110SAPE  H19R11420   4.760   3.785   4.449  1.9755  1.7566  1.2004
  110SAPE  H19S11421   4.849   3.666   4.554 -0.4374 -0.4848  3.0236
  110SAPE  C22011422   4.763   3.833   4.651  0.4169  0.9189 -0.0654
  110SAPE  H20R11423   4.759   3.788   4.753  0.8452  1.0027 -0.0125
  110SAPE  H20S11424   4.679   3.904   4.635  0.3996  0.7711 -0.6622
  110SAPE  H20T11425   4.857   3.890   4.641  1.1167  0.1523  1.6083
  110SAPE   C3311426   5.415   3.386   3.472  0.2774 -0.3783 -0.2601
  110SAPE   H3X11427   5.313   3.383   3.429 -0.3218 -4.3880  1.0271
  110SAPE   H3Y11428   5.423   3.476   3.538 -1.6971 -0.1460 -0.2985
  110SAPE   C3411429   5.418   3.259   3.569 -0.0605  0.1330  0.3339
  110SAPE   H4X11430   5.526   3.245   3.593  0.1855  1.8565  0.3591
  110SAPE   H4Y11431   5.389   3.173   3.506 -1.0333  1.6432 -1.3804
  110SAPE   C3511432   5.323   3.267   3.683  0.7312 -0.3279 -0.5296
  110SAPE   H5X11433   5.308   3.165   3.725 -1.2214  0.2013  0.1481
  110SAPE   H5Y11434   5.221   3.286   3.642 -0.5378 -3.2393  0.9963
  110SAPE   C3611435   5.363   3.360   3.795  0.3003 -0.5807 -0.1177
  110SAPE   H6X11436   5.402   3.460   3.767 -2.2191 -0.3042 -3.3154
  110SAPE   H6Y11437   5.441   3.310   3.856 -1.9153 -0.6399  2.9030
  110SAPE   C3711438   5.252   3.376   3.896 -0.6332 -0.0547 -0.3204
  110SAPE   H7X11439   5.156   3.338   3.855 -0.8721 -0.4109  0.5496
  110SAPE   H7Y11440   5.239   3.484   3.919 -0.8595 -0.5153  1.8702
  110SAPE   C3811441   5.280   3.298   4.027 -0.2488 -0.0355 -0.9577
  110SAPE   H8X11442   5.380   3.334   4.062 -0.9228  1.6279 -0.6357
  110SAPE   H8Y11443   5.284   3.188   4.015 -1.6136 -0.1209 -0.7501
  110SAPE   C3911444   5.168   3.336   4.127 -0.6193  0.1818  0.0365
  110SAPE   H9X11445   5.084   3.269   4.101 -0.6396 -1.1600  3.1849
  110SAPE   H9Y11446   5.135   3.442   4.119 -1.5087 -0.0803  0.1069
  110SAPE  C31011447   5.214   3.304   4.267 -0.3651 -0.5681  0.4672
  110SAPE  H10X11448   5.294   3.369   4.309  0.3544 -2.4649  2.2359
  110SAPE  H10Y11449   5.252   3.200   4.277  1.3953  0.0150  0.1668
  110SAPE  C31111450   5.097   3.312   4.367  0.2557  0.4268 -0.8012
  110SAPE  H11X11451   5.011   3.266   4.314  0.7990 -0.1155 -1.2290
  110SAPE  H11Y11452   5.076   3.415   4.403 -0.5189  0.0878 -0.2618
  110SAPE  C31211453   5.116   3.231   4.500  0.4010 -0.1995 -0.0597
  110SAPE  H12X11454   5.208   3.270   4.548  1.0752  0.4023 -1.7535
  110SAPE  H12Y11455   5.134   3.125   4.473 -2.5302 -0.4512 -1.4143
  110SAPE  C31311456   4.990   3.226   4.593 -0.5103 -0.5491 -0.8896
  110SAPE  H13X11457   5.018   3.155   4.674  2.1536 -0.6304 -1.7833
  110SAPE  H13Y11458   4.898   3.188   4.545 -1.4130  2.6905 -2.0210
  110SAPE  C31411459   4.954   3.365   4.665 -0.3302 -0.1231 -0.4892
  110SAPE  H14X11460   4.908   3.434   4.591 -1.1555  0.1692  0.2732
  110SAPE  H14Y11461   5.049   3.402   4.709 -0.6767 -1.7315  1.8240
  110SAPE  C31511462   4.851   3.349   4.785 -0.1549  0.4422 -0.2617
  110SAPE  H15X11463   4.888   3.275   4.859  0.0317  1.6460  0.8805
  110SAPE  H15Y11464   4.759   3.314   4.734  0.5466 -1.2278 -0.4539
  110SAPE  C31611465   4.827   3.491   4.851 -0.0297  0.1045 -0.6524
  110SAPE  H16X11466   4.789   3.547   4.762 -2.5335 -1.4946 -0.6968
  110SAPE  H16Y11467   4.918   3.526   4.904 -0.1305 -4.0588  2.7524
  110SAPE  C31711468   4.710   3.495   4.950 -0.2073  0.3850  0.4297
  110SAPE  H17X11469   4.707   3.415   5.028 -0.7706 -1.1498 -1.0988
  110SAPE  H17Y11470   4.616   3.470   4.896 -2.5685  0.3433  4.1972
  110SAPE  C31811471   4.703   3.619   5.026  0.2243 -0.0759  0.0345
  110SAPE  H18X11472   4.745   3.704   4.967 -2.5394 -0.3671 -2.5655
  110SAPE  H18Y11473   4.775   3.620   5.112 -1.4355  1.9049  1.5035
  110SAPE  H18Z11474   4.603   3.637   5.069  0.4912  0.7658  0.3396
  111SAPE     N11475   5.425   4.180   2.703 -0.0896  0.8278 -0.1766
  111SAPE   HN111476   5.524   4.167   2.735 -0.4347  1.4084  1.1800
  111SAPE   HN211477   5.395   4.094   2.653 -1.3061  0.2373  1.4713
  111SAPE   HN311478   5.420   4.265   2.644 -1.3283  0.0092 -1.2965
  111SAPE   C1211479   5.358   4.182   2.837  0.4096  0.0046 -0.5743
  111SAPE  H12A11480   5.358   4.079   2.877 -1.3088  0.1596 -0.1010
  111SAPE  H12B11481   5.258   4.227   2.819  0.2659  0.0792  0.3447
  111SAPE   C1111482   5.423   4.288   2.931  0.2176  0.0917 -0.1392
  111SAPE  H11A11483   5.523   4.240   2.938  0.3536  0.4118  0.1165
  111SAPE  H11B11484   5.371   4.270   3.027 -0.2104  0.7539 -0.2395
  111SAPE     P11485   5.534   4.511   2.932  0.0071  0.1027 -0.2786
  111SAPE   O1311486   5.665   4.460   2.881 -0.7674  0.0218  1.0281
  111SAPE   O1411487   5.498   4.644   2.887 -0.5165 -0.1589 -0.1923
  111SAPE   O1211488   5.416   4.416   2.888 -0.0149 -0.2639 -0.3222
  111SAPE   O1111489   5.530   4.499   3.097  0.1858 -0.5536 -0.4072
  111SAPE    C111490   5.406   4.552   3.149  0.3538  0.3222 -0.1152
  111SAPE    HA11491   5.402   4.663   3.140  0.5903  0.6119  2.4633
  111SAPE    HB11492   5.311   4.500   3.124 -1.4320  0.4539  5.1435
  111SAPE    C211493   5.401   4.519   3.302  0.1918  0.0442  0.8276
  111SAPE    HS11494   5.364   4.416   3.320 -0.5440 -0.3728 -2.3827
  111SAPE   O2111495   5.315   4.621   3.362 -0.2647 -0.0239 -0.0083
  111SAPE   C2111496   5.251   4.593   3.472  0.5977  0.2593 -0.5401
  111SAPE   O2211497   5.241   4.485   3.531 -0.4206 -0.5097  0.6004
  111SAPE   C2211498   5.177   4.716   3.513  0.2524  0.1544 -0.5179
  111SAPE   H2R11499   5.245   4.803   3.515 -0.0418  0.3847  0.0766
  111SAPE   H2S11500   5.113   4.739   3.426 -0.8154 -2.4905 -0.5214
  111SAPE    C311501   5.542   4.538   3.358 -0.3702 -0.5077  0.0977
  111SAPE    HX11502   5.575   4.642   3.336 -2.0639  0.6137  2.4328
  111SAPE    HY11503   5.623   4.484   3.304 -1.2844  1.3448 -3.4210
  111SAPE   O3111504   5.548   4.532   3.500 -0.1681  0.1414  0.1933
  111SAPE   C3111505   5.569   4.406   3.543  0.6727 -0.3627 -0.0400
  111SAPE   O3211506   5.572   4.310   3.470 -0.3602 -0.1148  0.1070
  111SAPE   C3211507   5.598   4.405   3.690  0.3385 -0.1063 -0.4598
  111SAPE   H2X11508   5.676   4.485   3.690 -0.0327  0.3937 -3.4243
  111SAPE   H2Y11509   5.638   4.308   3.724 -1.1595 -1.3104 -1.9597
  111SAPE   C2311510   5.086   4.718   3.644 -0.2733 -0.2334 -0.2348
  111SAPE   H3R11511   5.009   4.641   3.620 -0.2662 -0.0262 -0.9511
  111SAPE   H3S11512   5.032   4.815   3.643  1.3492  0.6948  0.1645
  111SAPE   C2411513   5.154   4.701   3.783  0.2155 -0.5803  0.0551
  111SAPE   H4R11514   5.207   4.604   3.772  1.5499  0.0665  0.5384
  111SAPE   H4S11515   5.063   4.692   3.845 -0.4791  0.2788 -0.8139
  111SAPE   C2511516   5.231   4.819   3.836  0.0703 -0.8623  0.5003
  111SAPE   H5R11517   5.335   4.815   3.800 -0.2458 -0.5415 -0.4595
  111SAPE   C2611518   5.189   4.922   3.913 -0.9030  1.1076  0.2102
  111SAPE   H6R11519   5.259   4.999   3.949  0.6641  1.7025 -3.6045
  111SAPE   C2711520   5.047   4.935   3.961  0.1393  0.5762 -0.1643
  111SAPE   H7R11521   5.056   5.000   4.051  0.5259  0.5188 -0.1586
  111SAPE   H7S11522   5.013   4.836   3.998  1.3305 -0.9431 -2.8046
  111SAPE   C2811523   4.959   4.999   3.858 -0.2915 -0.2934  0.1352
  111SAPE   H8R11524   4.996   5.099   3.830 -2.3710  1.4822  3.2371
  111SAPE   C2911525   4.837   4.971   3.816  0.2595 -0.4573 -0.4282
  111SAPE   H9R11526   4.780   5.030   3.743  0.4310 -0.4072 -0.5197
  111SAPE  C21011527   4.764   4.852   3.860  1.3688  0.2776 -0.2416
  111SAPE  H10R11528   4.660   4.874   3.892 -0.2014 -2.3674 -2.9984
  111SAPE  H10S11529   4.805   4.809   3.954 -2.6719  0.2466  1.7053
  111SAPE  C21111530   4.770   4.741   3.753  0.3524  0.0322 -0.4840
  111SAPE  H11R11531   4.806   4.645   3.793  0.9173 -0.6561 -2.5497
  111SAPE  C21211532   4.717   4.742   3.626 -0.4343 -0.0894 -0.0381
  111SAPE  H12R11533   4.721   4.650   3.565 -1.9432  0.6243 -1.3141
  111SAPE  C21311534   4.654   4.850   3.548  0.2925  0.0101  0.6647
  111SAPE  H13R11535   4.646   4.834   3.439  0.3459  1.5759  0.4031
  111SAPE  H13S11536   4.726   4.934   3.555  0.8040 -0.3281 -0.3893
  111SAPE  C21411537   4.522   4.907   3.603  0.3022 -0.4917  0.5276
  111SAPE  H14R11538   4.480   4.848   3.686 -0.4124  2.4898  2.4424
  111SAPE  C21511539   4.452   5.016   3.557  0.5171  0.0627 -0.5470
  111SAPE  H15R11540   4.367   5.058   3.613  0.2634 -1.3355  0.1584
  111SAPE  C21611541   4.498   5.110   3.450 -0.1733 -0.0865  0.4265
  111SAPE  H16R11542   4.463   5.079   3.349 -0.3630  1.8851 -0.1503
  111SAPE  H16S11543   4.609   5.116   3.446 -0.1862 -0.2065 -0.3825
  111SAPE  C21711544   4.446   5.253   3.473  0.6289 -0.5935 -0.5666
  111SAPE  H17R11545   4.460   5.293   3.575 -2.6561  0.2242 -0.3325
  111SAPE  H17S11546   4.337   5.253   3.452  0.4031  0.5762  0.5167
  111SAPE  C21811547   4.511   5.353   3.382 -0.4042  0.0980 -0.4378
  111SAPE  H18R11548   4.447   5.355   3.291  1.1647  1.1035 -1.5741
  111SAPE  H18S11549   4.604   5.302   3.350 -0.7853 -2.1653  1.7832
  111SAPE  C21911550   4.530   5.496   3.429 -0.0634  0.0104  0.2585
  111SAPE  H19R11551   4.572   5.566   3.353  0.6792 -1.1273 -0.4053
  111SAPE  H19S11552   4.596   5.497   3.518 -1.7398  0.8128  1.5495
  111SAPE  C22011553   4.397   5.562   3.478  0.4834  0.4400  0.0397
  111SAPE  H20R11554   4.324   5.573   3.394  0.0687 -0.6690  0.2457
  111SAPE  H20S11555   4.423   5.666   3.508 -0.3586  0.4339  0.8434
  111SAPE  H20T11556   4.366   5.502   3.566  3.8391 -0.3715  0.7903
  111SAPE   C3311557   5.484   4.444   3.790  0.4647 -0.7651 -0.0501
  111SAPE   H3X11558   5.392   4.387   3.767 -0.3236  0.2995  0.4026
  111SAPE   H3Y11559   5.464   4.551   3.767  0.9012 -0.2042  1.9768
  111SAPE   C3411560   5.522   4.439   3.941  0.1591 -0.2637  0.3396
  111SAPE   H4X11561   5.602   4.507   3.978 -2.1816  1.6738  2.1986
  111SAPE   H4Y11562   5.555   4.334   3.956 -2.1907 -1.6211 -2.8586
  111SAPE   C3511563   5.399   4.469   4.034 -0.5855  0.1125 -0.2768
  111SAPE   H5X11564   5.320   4.393   4.014 -0.6052  0.5868 -2.1938
  111SAPE   H5Y11565   5.359   4.570   4.012  2.2096  1.2006 -0.8384
  111SAPE   C3611566   5.436   4.450   4.187 -0.2754 -0.8108 -0.1503
  111SAPE   H6X11567   5.515   4.522   4.214  0.6982 -1.8188 -0.2199
  111SAPE   H6Y11568   5.462   4.344   4.210 -0.2405 -0.7649  0.0231
  111SAPE   C3711569   5.307   4.470   4.275 -0.1037 -0.3955  0.0341
  111SAPE   H7X11570   5.321   4.437   4.380 -0.4098 -0.7595 -0.0371
  111SAPE   H7Y11571   5.232   4.406   4.223 -0.2963 -0.1333 -0.0106
  111SAPE   C3811572   5.255   4.612   4.276  0.4617  0.3258  0.5573
  111SAPE   H8X11573   5.170   4.614   4.348  0.4795 -1.1167  0.6453
  111SAPE   H8Y11574   5.210   4.641   4.179 -0.6798 -0.4298  0.8425
  111SAPE   C3911575   5.362   4.716   4.319 -0.5113 -0.2895  0.1235
  111SAPE   H9X11576   5.440   4.731   4.241  0.5950  0.0457  1.2733
  111SAPE   H9Y11577   5.411   4.672   4.408  0.7463  0.6083 -0.1089
  111SAPE  C31011578   5.310   4.853   4.365  0.7357  0.5259  0.0031
  111SAPE  H10X11579   5.388   4.887   4.437  0.4542 -0.5009  0.8251
  111SAPE  H10Y11580   5.221   4.830   4.428  1.7139 -2.8931  0.3555
  111SAPE  C31111581   5.290   4.954   4.250  0.1740  0.0136 -0.4996
  111SAPE  H11X11582   5.182   4.944   4.223  0.1922 -0.4990 -0.3893
  111SAPE  H11Y11583   5.348   4.922   4.161  0.3116 -0.8432 -0.1096
  111SAPE  C31211584   5.322   5.096   4.290  0.0686 -0.6049 -0.7165
  111SAPE  H12X11585   5.265   5.133   4.378  0.1833  4.0393 -2.3054
  111SAPE  H12Y11586   5.283   5.162   4.209  0.7403 -0.0102 -0.5675
  111SAPE  C31311587   5.470   5.130   4.290  0.2691  0.5349  0.7441
  111SAPE  H13X11588   5.531   5.038   4.284 -0.5221  0.0495 -0.0907
  111SAPE  H13Y11589   5.502   5.159   4.393  0.1474 -0.6754  1.1429
  111SAPE  C31411590   5.512   5.238   4.183  0.3767  0.2737 -0.2103
  111SAPE  H14X11591   5.450   5.329   4.200  0.2341 -0.0277  1.0116
  111SAPE  H14Y11592   5.489   5.198   4.083  1.2844 -2.0575  0.4558
  111SAPE  C31511593   5.659   5.266   4.192 -1.0085 -0.8302  0.1018
  111SAPE  H15X11594   5.711   5.216   4.108 -0.1735 -0.3080  0.2972
  111SAPE  H15Y11595   5.706   5.233   4.288 -0.0872  1.1036  0.3533
  111SAPE  C31611596   5.709   5.399   4.176  0.6985  0.3941  0.3222
  111SAPE  H16X11597   5.814   5.405   4.212  0.6925  0.2716  0.3607
  111SAPE  H16Y11598   5.650   5.461   4.247  0.5489  1.6136 -0.8242
  111SAPE  C31711599   5.687   5.464   4.049  0.6528  0.2933  0.6711
  111SAPE  H17X11600   5.589   5.429   4.010  0.5587  0.9852  0.2692
  111SAPE  H17Y11601   5.776   5.434   3.989 -0.0151 -0.2106 -0.0937
  111SAPE  C31811602   5.677   5.617   4.062  0.2755 -0.2876  0.1037
  111SAPE  H18X11603   5.606   5.640   4.145 -1.4510  1.2967 -1.7148
  111SAPE  H18Y11604   5.629   5.653   3.969 -1.7340 -2.3108  0.2865
  111SAPE  H18Z11605   5.774   5.668   4.079 -1.0194  2.4563 -0.2747
  112SAPE     N11606   0.911   3.878   2.372  0.2092  0.4316 -0.2542
  112SAPE   HN111607   0.972   3.800   2.405 -0.6228  0.5172  1.5763
  112SAPE   HN211608   0.851   3.853   2.291 -0.0997 -1.4848  0.5023
  112SAPE   HN311609   0.961   3.962   2.336 -0.5414  1.1003  0.2390
  112SAPE   C1211610   0.822   3.928   2.479 -0.0523  0.1718 -0.0905
  112SAPE  H12A11611   0.765   3.838   2.509  0.7015 -0.1066  0.5512
  112SAPE  H12B11612   0.745   3.991   2.430 -1.0912 -1.4888 -0.6606
  112SAPE   C1111613   0.895   4.005   2.593 -0.8945  0.1533  0.2328
  112SAPE  H11A11614   0.975   3.941   2.636  0.2349  0.3294 -1.5001
  112SAPE  H11B11615   0.824   4.030   2.675 -1.9981  0.8069 -0.8840
  112SAPE     P11616   0.918   4.267   2.568  0.0030  0.2350 -0.1518
  112SAPE   O1311617   1.023   4.356   2.510  0.4492  0.6516  0.0616
  112SAPE   O1411618   0.778   4.296   2.551  0.0258  0.6238 -0.1943
  112SAPE   O1211619   0.948   4.114   2.527 -0.2491  0.2542  0.3253
  112SAPE   O1111620   0.939   4.269   2.724 -0.9191  0.2019  0.3164
  112SAPE    C111621   1.068   4.283   2.777  0.1853 -0.0344 -0.8683
  112SAPE    HA11622   1.128   4.191   2.766 -0.0098 -0.1895 -0.6609
  112SAPE    HB11623   1.129   4.369   2.742  0.7377  0.8050  1.8616
  112SAPE    C211624   1.068   4.310   2.936 -0.0791 -0.9359  1.4244
  112SAPE    HS11625   1.172   4.325   2.972 -0.8218 -0.5252  3.4941
  112SAPE   O2111626   0.993   4.213   3.005  0.3164  0.0456  0.0759
  112SAPE   C2111627   1.069   4.103   3.037  0.1526 -0.1238  0.0293
  112SAPE   O2211628   1.185   4.085   2.999 -0.0598 -0.4513  0.0938
  112SAPE   C2211629   0.995   4.010   3.134 -0.1822  0.2964  0.5255
  112SAPE   H2R11630   0.997   4.050   3.237 -0.4774  0.0581  0.6248
  112SAPE   H2S11631   0.890   4.000   3.097  0.3291 -0.5342 -0.8194
  112SAPE    C311632   0.991   4.445   2.953  0.2895  0.3759 -0.3214
  112SAPE    HX11633   0.886   4.437   2.919  0.1766  0.3935  0.0111
  112SAPE    HY11634   1.038   4.521   2.888  0.0588  1.4291  0.7061
  112SAPE   O3111635   1.010   4.510   3.078 -0.0660  0.6175 -0.0335
  112SAPE   C3111636   0.913   4.495   3.164 -0.0344  0.2133  0.5498
  112SAPE   O3211637   0.809   4.435   3.143  0.1040 -0.3005  0.0266
  112SAPE   C3211638   0.943   4.580   3.296  0.3840 -0.2462 -0.3845
  112SAPE   H2X11639   0.923   4.687   3.278  3.1616  0.6693  1.2526
  112SAPE   H2Y11640   1.053   4.581   3.311  0.5047  1.2325 -1.1810
  112SAPE   C2311641   1.062   3.868   3.141 -0.7323  0.1066  0.4946
  112SAPE   H3R11642   1.167   3.865   3.106 -0.9824  1.0599 -0.4075
  112SAPE   H3S11643   1.008   3.814   3.060  0.2577  2.8310 -2.1569
  112SAPE   C2411644   1.047   3.802   3.283 -0.6627  0.0276 -0.6355
  112SAPE   H4R11645   1.096   3.703   3.272 -0.6058 -0.1335  0.8418
  112SAPE   H4S11646   0.939   3.778   3.289 -0.4844 -0.6785 -0.1490
  112SAPE   C2511647   1.104   3.880   3.395  0.4786  0.4382  0.1582
  112SAPE   H5R11648   1.208   3.913   3.383  0.0010  2.2697  0.6709
  112SAPE   C2611649   1.043   3.930   3.503  0.2920 -0.2937  0.1195
  112SAPE   H6R11650   1.104   3.985   3.576 -1.3168  2.1339 -0.2419
  112SAPE   C2711651   0.896   3.912   3.541 -0.2946  0.0161 -0.2853
  112SAPE   H7R11652   0.841   3.883   3.449 -0.4705  0.1060 -0.2086
  112SAPE   H7S11653   0.849   4.009   3.570 -0.9352 -0.3054 -0.2370
  112SAPE   C2811654   0.869   3.798   3.638  0.9857 -0.2606  0.0824
  112SAPE   H8R11655   0.806   3.719   3.594 -1.3969  2.0501 -0.9580
  112SAPE   C2911656   0.909   3.780   3.766 -0.2092  0.2795  0.3263
  112SAPE   H9R11657   0.857   3.698   3.817  0.3603 -0.6636 -0.5683
  112SAPE  C21011658   0.995   3.870   3.853  0.0173  0.6027 -0.7856
  112SAPE  H10R11659   0.970   3.840   3.957 -0.5585 -0.1510 -1.1315
  112SAPE  H10S11660   0.978   3.978   3.834 -1.5806  0.6829  0.8786
  112SAPE  C21111661   1.141   3.842   3.836 -0.2249  0.2103 -0.0659
  112SAPE  H11R11662   1.166   3.793   3.740 -0.7178 -0.7521  0.2864
  112SAPE  C21211663   1.237   3.889   3.909  0.2600  0.1059 -0.1409
  112SAPE  H12R11664   1.340   3.868   3.876  0.1081  0.2163 -0.7040
  112SAPE  C21311665   1.226   3.971   4.030  0.4217  0.1049 -0.1086
  112SAPE  H13R11666   1.291   3.926   4.107 -0.1568 -0.4388  0.0681
  112SAPE  H13S11667   1.124   3.959   4.072 -0.6308 -1.7246 -2.8967
  112SAPE  C21411668   1.251   4.122   4.028  0.4120  0.2890 -0.1500
  112SAPE  H14R11669   1.275   4.161   3.928  0.6434 -1.9744 -1.0369
  112SAPE  C21511670   1.220   4.211   4.126 -0.2565  0.2387 -0.1420
  112SAPE  H15R11671   1.238   4.318   4.106  1.0293  0.0229 -0.2080
  112SAPE  C21611672   1.163   4.185   4.266 -0.3793  0.2874  0.1097
  112SAPE  H16R11673   1.144   4.077   4.281  1.4384  0.1250  1.7011
  112SAPE  H16S11674   1.069   4.238   4.290 -1.1455 -0.3950 -1.2812
  112SAPE  C21711675   1.264   4.220   4.377  0.5374 -0.9107  0.2849
  112SAPE  H17R11676   1.307   4.322   4.366 -1.7681 -0.0796 -2.0861
  112SAPE  H17S11677   1.344   4.144   4.373  2.4953  1.0794 -0.5275
  112SAPE  C21811678   1.196   4.209   4.514 -0.3419 -0.1533  0.5748
  112SAPE  H18R11679   1.152   4.107   4.520 -1.0425  0.1149  0.1174
  112SAPE  H18S11680   1.119   4.286   4.536  0.5303  0.3783  1.9144
  112SAPE  C21911681   1.297   4.212   4.627  0.1590 -0.9919  0.5785
  112SAPE  H19R11682   1.381   4.139   4.614  0.8247 -0.0617 -0.4934
  112SAPE  H19S11683   1.242   4.183   4.719 -2.5807  2.0971  0.0845
  112SAPE  C22011684   1.354   4.354   4.642  0.3905  0.2117 -0.5129
  112SAPE  H20R11685   1.278   4.432   4.667  0.3374 -0.0208  0.0540
  112SAPE  H20S11686   1.402   4.384   4.546  3.4190 -1.2706  0.4325
  112SAPE  H20T11687   1.432   4.353   4.720  1.2637  1.3032 -1.3377
  112SAPE   C3311688   0.874   4.521   3.421 -0.0216  0.1885  0.1885
  112SAPE   H3X11689   0.912   4.419   3.444  4.8069  1.3000 -1.6489
  112SAPE   H3Y11690   0.766   4.520   3.398 -0.0414  1.2336  0.1863
  112SAPE   C3411691   0.895   4.605   3.547 -0.8601 -0.1196 -0.3598
  112SAPE   H4X11692   0.866   4.711   3.530  0.1536  0.1832 -0.2846
  112SAPE   H4Y11693   1.002   4.599   3.574 -0.9904 -0.1929  0.1499
  112SAPE   C3511694   0.816   4.561   3.671  0.5051 -0.0805 -0.2194
  112SAPE   H5X11695   0.839   4.456   3.699 -1.6048  0.4714  4.6421
  112SAPE   H5Y11696   0.707   4.558   3.648  0.8064 -0.3743 -1.7116
  112SAPE   C3611697   0.828   4.644   3.800  0.0143 -0.4299  1.3954
  112SAPE   H6X11698   0.787   4.748   3.800 -0.6614 -0.6473  3.5671
  112SAPE   H6Y11699   0.937   4.641   3.821  0.4172  1.0136 -0.2411
  112SAPE   C3711700   0.750   4.569   3.914  0.3040 -0.2648 -0.6832
  112SAPE   H7X11701   0.769   4.460   3.907  1.6932 -0.0550 -0.4159
  112SAPE   H7Y11702   0.643   4.592   3.893  0.6933  0.1439 -2.3446
  112SAPE   C3811703   0.811   4.609   4.046 -0.1014  0.3955 -0.4063
  112SAPE   H8X11704   0.732   4.609   4.125  0.8678 -0.8031  0.6049
  112SAPE   H8Y11705   0.853   4.712   4.037  1.6512 -0.2466  0.0010
  112SAPE   C3911706   0.931   4.530   4.111 -0.2826  0.5627  0.4362
  112SAPE   H9X11707   1.008   4.501   4.036  0.6353 -0.4989  1.7401
  112SAPE   H9Y11708   0.879   4.435   4.137  0.8309  0.3485  1.9776
  112SAPE  C31011709   0.990   4.609   4.222 -0.2236  0.1569  0.1041
  112SAPE  H10X11710   0.998   4.715   4.189  0.7621 -0.0726 -0.4261
  112SAPE  H10Y11711   1.095   4.578   4.240 -0.6487 -0.1108  2.4682
  112SAPE  C31111712   0.918   4.591   4.363 -0.1690 -0.2613  0.4762
  112SAPE  H11X11713   0.930   4.488   4.402  0.1711  0.3542  2.0575
  112SAPE  H11Y11714   0.810   4.612   4.350 -0.0892  0.4398  0.8628
  112SAPE  C31211715   0.979   4.679   4.476 -0.9883  0.5918 -0.0260
  112SAPE  H12X11716   0.928   4.645   4.569 -0.6810 -0.7903 -0.3485
  112SAPE  H12Y11717   0.952   4.785   4.456 -0.6895  0.6915  0.0807
  112SAPE  C31311718   1.131   4.655   4.505 -0.5520 -0.6578 -0.2391
  112SAPE  H13X11719   1.190   4.707   4.426  0.3196  2.4200  2.2272
  112SAPE  H13Y11720   1.166   4.550   4.496  2.0189  0.0711  0.4204
  112SAPE  C31411721   1.185   4.710   4.642  0.6486  0.3735  0.3833
  112SAPE  H14X11722   1.138   4.652   4.725 -1.3445 -1.0783 -1.6062
  112SAPE  H14Y11723   1.136   4.810   4.646  0.5599  0.3768 -0.6306
  112SAPE  C31511724   1.334   4.727   4.663  0.5675 -0.3103  0.2549
  112SAPE  H15X11725   1.368   4.802   4.588 -0.5701 -0.3629 -0.3421
  112SAPE  H15Y11726   1.385   4.628   4.660 -3.3756 -2.5330  0.3743
  112SAPE  C31611727   1.365   4.801   4.795  0.5554  0.5677 -0.1249
  112SAPE  H16X11728   1.332   4.907   4.784  1.3377  1.0621  1.8871
  112SAPE  H16Y11729   1.474   4.808   4.813  0.6950 -0.2550 -0.6176
  112SAPE  C31711730   1.309   4.724   4.915 -0.1382  0.3472 -0.5920
  112SAPE  H17X11731   1.199   4.732   4.903 -0.1034  1.4846 -0.2898
  112SAPE  H17Y11732   1.331   4.780   5.008  2.4706  0.7217 -1.3423
  112SAPE  C31811733   1.356   4.575   4.934 -0.4248 -0.2892  0.6645
  112SAPE  H18X11734   1.303   4.502   4.869  1.6791 -1.7033  0.4215
  112SAPE  H18Y11735   1.331   4.546   5.039 -1.8962 -1.4206  0.0376
  112SAPE  H18Z11736   1.466   4.573   4.914 -0.8310 -0.0613 -1.9254
  113SAPE     N11737   3.413   2.352   2.327 -0.6233  0.8080 -0.3948
  113SAPE   HN111738   3.496   2.306   2.286 -0.9003 -0.1948  0.1395
  113SAPE   HN211739   3.435   2.450   2.353  1.0714  0.3736 -0.0866
  113SAPE   HN311740   3.396   2.306   2.419  0.6753 -0.8336 -0.9388
  113SAPE   C1211741   3.294   2.333   2.234 -0.3394  0.1371 -0.3326
  113SAPE  H12A11742   3.326   2.358   2.130 -0.2872  1.5320  0.0041
  113SAPE  H12B11743   3.230   2.413   2.276  0.3943  1.4114 -1.5429
  113SAPE   C1111744   3.245   2.192   2.239  0.0471 -0.4595  0.0105
  113SAPE  H11A11745   3.300   2.120   2.175 -0.6293 -1.7162  0.8056
  113SAPE  H11B11746   3.146   2.194   2.187 -0.5590 -0.9359  1.1284
  113SAPE     P11747   3.097   2.124   2.437 -0.0102 -0.0873  0.0758
  113SAPE   O1311748   3.014   2.244   2.417 -0.4284 -0.3694 -0.1198
  113SAPE   O1411749   3.020   2.003   2.389 -0.0107 -0.4259  0.2049
  113SAPE   O1211750   3.237   2.136   2.371  0.3872 -0.7747  0.3168
  113SAPE   O1111751   3.137   2.113   2.590 -0.2482  0.2463  0.1260
  113SAPE    C111752   3.174   1.991   2.646 -0.0165  1.0737 -0.3941
  113SAPE    HA11753   3.226   1.922   2.576 -0.1141  0.1535  0.4262
  113SAPE    HB11754   3.236   2.011   2.736 -1.1372  0.3280  0.5650
  113SAPE    C211755   3.052   1.902   2.692 -0.2205  0.3788 -0.1424
  113SAPE    HS11756   2.989   1.883   2.602 -2.2695  2.7126  0.6736
  113SAPE   O2111757   2.985   1.963   2.802  0.4504 -0.3383  0.2911
  113SAPE   C2111758   2.856   1.931   2.806 -0.0442 -0.0638  0.6145
  113SAPE   O2211759   2.798   1.864   2.725 -0.1915 -0.1996 -0.2582
  113SAPE   C2211760   2.792   2.010   2.921  0.6196 -0.6692 -0.5168
  113SAPE   H2R11761   2.817   1.968   3.021 -1.1459  0.2513  0.3594
  113SAPE   H2S11762   2.820   2.118   2.917  0.1813 -0.5302  0.1142
  113SAPE    C311763   3.114   1.764   2.731  0.0846 -0.1116 -0.0137
  113SAPE    HX11764   3.172   1.720   2.647 -2.5990 -0.9712 -1.5273
  113SAPE    HY11765   3.039   1.683   2.739  0.1952 -0.3431 -1.1168
  113SAPE   O3111766   3.191   1.789   2.847  0.3020 -0.1881 -0.3400
  113SAPE   C3111767   3.324   1.794   2.845  0.3196 -0.0401  0.4323
  113SAPE   O3211768   3.392   1.792   2.741 -0.1939 -0.0732 -0.4189
  113SAPE   C3211769   3.375   1.839   2.988  0.5199 -0.3932  0.6893
  113SAPE   H2X11770   3.294   1.815   3.060  0.0192  0.2067  0.3324
  113SAPE   H2Y11771   3.378   1.950   2.987 -1.4508 -0.3025 -0.7865
  113SAPE   C2311772   2.635   2.003   2.919 -0.1869 -0.1685 -0.1800
  113SAPE   H3R11773   2.597   1.898   2.918  0.5395 -0.4499  0.5633
  113SAPE   H3S11774   2.593   2.071   2.842  0.2064  2.5432  1.8392
  113SAPE   C2411775   2.572   2.057   3.054 -0.2852 -0.0995 -0.2472
  113SAPE   H4R11776   2.606   1.970   3.114  0.1124  0.6459  0.6469
  113SAPE   H4S11777   2.462   2.060   3.038 -0.2747 -0.2179 -0.3421
  113SAPE   C2511778   2.633   2.188   3.111 -0.2794 -0.2032  0.0524
  113SAPE   H5R11779   2.636   2.268   3.035 -2.8189 -0.8404 -0.8039
  113SAPE   C2611780   2.686   2.206   3.231  0.0426 -0.3118 -0.9855
  113SAPE   H6R11781   2.738   2.302   3.240 -1.6137  0.4141  1.7350
  113SAPE   C2711782   2.688   2.112   3.355  0.1939  0.4003  0.5909
  113SAPE   H7R11783   2.779   2.140   3.412  0.0081  1.9627  0.1566
  113SAPE   H7S11784   2.695   2.007   3.318 -0.5874  0.9383 -1.1866
  113SAPE   C2811785   2.569   2.119   3.446  0.4542 -0.0226 -0.0262
  113SAPE   H8R11786   2.481   2.176   3.412  0.0457  0.3233  1.5286
  113SAPE   C2911787   2.569   2.081   3.575 -0.3455  0.5368  0.0390
  113SAPE   H9R11788   2.488   2.111   3.643  0.4105  0.6726  0.8882
  113SAPE  C21011789   2.689   2.012   3.638 -0.7992  0.0960  0.5680
  113SAPE  H10R11790   2.776   1.997   3.569 -0.9116 -1.8275  0.7904
  113SAPE  H10S11791   2.673   1.917   3.693 -0.1683  0.5364  1.5307
  113SAPE  C21111792   2.740   2.104   3.747 -0.1175  0.6625  1.1590
  113SAPE  H11R11793   2.810   2.183   3.715 -0.9359  0.7196 -0.6039
  113SAPE  C21211794   2.696   2.116   3.871 -0.2837  0.0629 -0.2946
  113SAPE  H12R11795   2.748   2.184   3.939  1.4361 -0.3022 -1.1847
  113SAPE  C21311796   2.600   2.018   3.942 -0.2480 -0.3921 -0.3423
  113SAPE  H13R11797   2.667   1.953   4.002  1.7873  1.4883 -0.4415
  113SAPE  H13S11798   2.548   1.954   3.868 -1.1985  1.2248 -1.1235
  113SAPE  C21411799   2.494   2.082   4.029 -0.2464  0.2080  0.2166
  113SAPE  H14R11800   2.408   2.119   3.972  0.3979  1.2789 -0.0939
  113SAPE  C21511801   2.499   2.102   4.166  0.0544  1.0383  0.1179
  113SAPE  H15R11802   2.410   2.146   4.214 -0.4559  0.0113  0.1231
  113SAPE  C21611803   2.610   2.076   4.260  0.3695  1.0167 -0.5897
  113SAPE  H16R11804   2.626   2.164   4.326 -0.7191 -0.1873  1.3853
  113SAPE  H16S11805   2.703   2.051   4.206 -0.4841 -0.1862 -1.5311
  113SAPE  C21711806   2.574   1.959   4.347  0.5733  0.6812  0.2261
  113SAPE  H17R11807   2.650   1.956   4.427 -0.4206 -1.3983  1.1682
  113SAPE  H17S11808   2.577   1.866   4.285 -0.6274  0.9095 -0.2000
  113SAPE  C21811809   2.432   1.985   4.418 -0.6837 -0.8349  0.2477
  113SAPE  H18R11810   2.368   1.973   4.329  0.2247 -1.1568 -0.3798
  113SAPE  H18S11811   2.431   2.088   4.460 -0.3618 -1.2698  1.3527
  113SAPE  C21911812   2.394   1.885   4.521 -0.1858  0.1103  0.2209
  113SAPE  H19R11813   2.465   1.904   4.605  0.2594  1.0974 -0.3709
  113SAPE  H19S11814   2.421   1.780   4.497 -0.8975 -0.3372  1.2824
  113SAPE  C22011815   2.247   1.899   4.570  0.5363 -0.0821 -0.4750
  113SAPE  H20R11816   2.180   1.875   4.485 -1.5870  2.9794  0.1697
  113SAPE  H20S11817   2.227   2.007   4.587 -0.4168 -0.0468 -1.7163
  113SAPE  H20T11818   2.215   1.849   4.664  1.7471 -0.0882 -0.0425
  113SAPE   C3311819   3.512   1.771   3.023 -0.2423  0.6331  0.5302
  113SAPE   H3X11820   3.585   1.784   2.940  0.6363 -0.0405  1.1791
  113SAPE   H3Y11821   3.490   1.663   3.019  0.8977  0.4194 -0.3320
  113SAPE   C3411822   3.583   1.817   3.148 -0.5540 -0.1298  0.4278
  113SAPE   H4X11823   3.614   1.923   3.146 -1.7689  0.2543  0.7082
  113SAPE   H4Y11824   3.678   1.761   3.164  0.1336  1.3680  1.8332
  113SAPE   C3511825   3.491   1.802   3.273  0.9205  0.1491 -0.0542
  113SAPE   H5X11826   3.434   1.708   3.260  0.4984  0.7563 -3.8472
  113SAPE   H5Y11827   3.417   1.884   3.278  1.7318  0.8187  1.5201
  113SAPE   C3611828   3.567   1.805   3.403 -0.7217 -0.0166 -0.5369
  113SAPE   H6X11829   3.638   1.890   3.414  2.6800 -2.3171 -2.8514
  113SAPE   H6Y11830   3.637   1.719   3.406  0.7144  1.1363  1.2467
  113SAPE   C3711831   3.475   1.805   3.524  0.4241  0.4272  0.1347
  113SAPE   H7X11832   3.400   1.725   3.537  0.9038 -0.4251 -2.0096
  113SAPE   H7Y11833   3.407   1.893   3.518 -0.2070 -0.1204 -1.1206
  113SAPE   C3811834   3.542   1.814   3.661 -0.3221  0.7757 -0.2914
  113SAPE   H8X11835   3.607   1.726   3.679  1.4353  1.7810 -1.4257
  113SAPE   H8Y11836   3.617   1.895   3.649  1.0446 -0.6233 -1.5788
  113SAPE   C3911837   3.446   1.824   3.782  0.5374  0.1206 -0.1815
  113SAPE   H9X11838   3.392   1.727   3.789  1.5292 -0.5636 -1.6334
  113SAPE   H9Y11839   3.366   1.899   3.761 -0.1330  0.0011  1.7667
  113SAPE  C31011840   3.519   1.845   3.908 -0.0382 -0.1712 -0.6089
  113SAPE  H10X11841   3.579   1.939   3.904  0.8848 -0.7796 -3.8163
  113SAPE  H10Y11842   3.602   1.773   3.926  0.8296  1.2286  1.3933
  113SAPE  C31111843   3.442   1.856   4.043 -0.1519  0.0292 -0.2963
  113SAPE  H11X11844   3.382   1.764   4.058  0.5670 -0.8815 -2.5453
  113SAPE  H11Y11845   3.363   1.934   4.050 -2.0066 -1.8673  1.1982
  113SAPE  C31211846   3.541   1.892   4.153 -0.5664 -0.3651  0.2557
  113SAPE  H12X11847   3.604   1.980   4.130 -1.4650  0.4189  0.7268
  113SAPE  H12Y11848   3.605   1.803   4.171  0.9763  0.6645  0.0704
  113SAPE  C31311849   3.477   1.934   4.290 -0.3755  0.8304 -0.0925
  113SAPE  H13X11850   3.418   2.025   4.263 -0.6075  0.8591  0.4991
  113SAPE  H13Y11851   3.559   1.957   4.361  0.3221  0.1454 -0.6626
  113SAPE  C31411852   3.393   1.826   4.354  0.3925  0.5173  0.2966
  113SAPE  H14X11853   3.310   1.809   4.282  0.8483  0.2407 -0.1639
  113SAPE  H14Y11854   3.353   1.878   4.444 -2.7870 -0.7587 -0.2449
  113SAPE  C31511855   3.471   1.695   4.374 -0.6458  0.3388 -0.4111
  113SAPE  H15X11856   3.576   1.724   4.398 -0.3025 -1.2586  0.1240
  113SAPE  H15Y11857   3.479   1.650   4.272  0.7990  0.9501 -0.5922
  113SAPE  C31611858   3.402   1.591   4.469 -0.0318 -0.5249  0.3211
  113SAPE  H16X11859   3.465   1.501   4.454  1.9532  0.7108  0.7730
  113SAPE  H16Y11860   3.296   1.565   4.448  0.0059 -0.1483 -0.3719
  113SAPE  C31711861   3.417   1.621   4.622 -0.4157 -0.4158 -0.1975
  113SAPE  H17X11862   3.385   1.725   4.644 -3.2151 -0.6762 -2.3889
  113SAPE  H17Y11863   3.524   1.606   4.646 -0.5381 -2.3145 -0.6906
  113SAPE  C31811864   3.317   1.537   4.708  0.7293 -0.2936  0.0749
  113SAPE  H18X11865   3.358   1.433   4.708 -3.5226 -2.1946 -1.1002
  113SAPE  H18Y11866   3.213   1.533   4.668  0.7089  2.2974 -0.2701
  113SAPE  H18Z11867   3.310   1.567   4.814 -1.7685 -3.6307  1.0179
  114SAPE     N11868   3.560   4.194   2.464  0.0053 -0.3614 -0.3503
  114SAPE   HN111869   3.612   4.251   2.395  1.6244 -0.0715  1.0489
  114SAPE   HN211870   3.549   4.103   2.415  1.1586 -0.8482  0.2651
  114SAPE   HN311871   3.467   4.239   2.480  0.6669  1.1179 -0.4711
  114SAPE   C1211872   3.639   4.178   2.591 -0.4084  0.6024 -0.2371
  114SAPE  H12A11873   3.698   4.270   2.610 -0.4675  0.1294  2.7157
  114SAPE  H12B11874   3.706   4.090   2.583 -0.5652  0.4608  0.0080
  114SAPE   C1111875   3.550   4.148   2.713  0.2457 -0.1098 -0.1285
  114SAPE  H11A11876   3.619   4.127   2.797  0.6412  0.6323 -0.2582
  114SAPE  H11B11877   3.502   4.049   2.699 -1.2666  0.7182 -1.0571
  114SAPE     P11878   3.311   4.248   2.713 -0.2039  0.3495  0.2064
  114SAPE   O1311879   3.247   4.377   2.703  0.1842  0.0728  1.0438
  114SAPE   O1411880   3.285   4.149   2.603 -0.2171 -0.2096 -0.3140
  114SAPE   O1211881   3.461   4.259   2.739 -0.1055 -0.3551 -0.1225
  114SAPE   O1111882   3.275   4.177   2.848  0.0412  0.4111  0.0578
  114SAPE    C111883   3.305   4.222   2.985 -0.0712 -0.1333  0.3930
  114SAPE    HA11884   3.395   4.286   2.981  0.0716 -0.3714 -0.9071
  114SAPE    HB11885   3.222   4.277   3.034 -0.3228 -1.2987  1.3164
  114SAPE    C211886   3.350   4.109   3.074 -0.0670 -0.1445 -0.5815
  114SAPE    HS11887   3.344   4.139   3.181  1.8796  0.8705 -0.7173
  114SAPE   O2111888   3.489   4.074   3.043 -0.1826  0.2818  0.2996
  114SAPE   C2111889   3.557   4.027   3.146 -0.5770  0.0122  0.6301
  114SAPE   O2211890   3.524   4.026   3.264  0.5697 -0.1784  0.2343
  114SAPE   C2211891   3.683   3.956   3.097 -0.4772 -0.2511 -0.3228
  114SAPE   H2R11892   3.644   3.876   3.029 -1.3200  2.6125 -3.5095
  114SAPE   H2S11893   3.740   4.024   3.030  0.2454 -0.5797 -0.0543
  114SAPE    C311894   3.258   3.992   3.068  0.5283  0.3356 -0.1581
  114SAPE    HX11895   3.269   3.940   2.970 -2.4222 -1.3905  0.2980
  114SAPE    HY11896   3.153   4.024   3.058  1.4351  4.3284  1.4244
  114SAPE   O3111897   3.278   3.899   3.175  0.2269  0.3948  0.2869
  114SAPE   C3111898   3.212   3.929   3.286 -0.1677 -1.1815  0.4423
  114SAPE   O3211899   3.140   4.029   3.302  0.4873  0.5506  0.1148
  114SAPE   C3211900   3.267   3.835   3.397  1.3021 -0.2968 -0.1580
  114SAPE   H2X11901   3.376   3.819   3.381  1.3654  0.2183 -0.2678
  114SAPE   H2Y11902   3.215   3.740   3.374 -0.2072  1.1075 -2.9912
  114SAPE   C2311903   3.775   3.902   3.202 -0.5608  0.4755  0.0557
  114SAPE   H3R11904   3.718   3.831   3.265  2.5655 -1.9612  0.3572
  114SAPE   H3S11905   3.825   3.981   3.263  1.3638 -1.6089  1.3370
  114SAPE   C2411906   3.880   3.797   3.150 -0.0192 -0.5790 -0.4694
  114SAPE   H4R11907   3.826   3.717   3.095 -1.2862  0.2624 -0.4975
  114SAPE   H4S11908   3.920   3.747   3.241  0.4282  0.6546  0.0347
  114SAPE   C2511909   3.994   3.855   3.071  0.2506  0.5489 -0.3411
  114SAPE   H5R11910   3.966   3.894   2.972  0.7979  0.9427 -0.3406
  114SAPE   C2611911   4.120   3.871   3.108 -0.1976 -0.0190 -0.6043
  114SAPE   H6R11912   4.188   3.916   3.035 -0.1442  1.1265  0.1250
  114SAPE   C2711913   4.191   3.850   3.239 -0.4858 -0.4679 -0.0470
  114SAPE   H7R11914   4.287   3.795   3.230 -0.5237 -0.2991 -1.8860
  114SAPE   H7S11915   4.128   3.786   3.304  1.6418 -1.6952  0.9162
  114SAPE   C2811916   4.220   3.976   3.318  0.1136  0.7895  0.3344
  114SAPE   H8R11917   4.260   4.055   3.253  0.9864 -0.8638 -1.2104
  114SAPE   C2911918   4.194   3.997   3.454  0.1623  0.4516 -0.0649
  114SAPE   H9R11919   4.235   4.087   3.503 -0.6610  1.6217 -1.4614
  114SAPE  C21011920   4.144   3.900   3.553  0.5648  0.5260 -0.2515
  114SAPE  H10R11921   4.138   3.801   3.504 -0.4795  1.8594 -3.0529
  114SAPE  H10S11922   4.037   3.929   3.562  0.7107  0.9520  0.1394
  114SAPE  C21111923   4.208   3.908   3.685  0.2139 -0.0640  1.2296
  114SAPE  H11R11924   4.305   3.857   3.693  0.4779  0.3074  0.4888
  114SAPE  C21211925   4.150   3.965   3.789  0.2879  0.8391 -0.7396
  114SAPE  H12R11926   4.203   3.969   3.886 -1.6441  1.1755  0.3604
  114SAPE  C21311927   4.019   4.039   3.789  0.8278  0.2627  0.2277
  114SAPE  H13R11928   4.009   4.102   3.699  1.6209  1.8815  1.2271
  114SAPE  H13S11929   4.028   4.116   3.868 -0.3994  0.9358 -0.2603
  114SAPE  C21411930   3.886   3.966   3.805 -0.3974 -0.3702  0.6693
  114SAPE  H14R11931   3.861   3.884   3.736 -0.8076  1.3040 -1.2662
  114SAPE  C21511932   3.798   3.999   3.896  0.1053  0.3492  0.1480
  114SAPE  H15R11933   3.708   3.936   3.893  0.6688 -0.4982 -3.0877
  114SAPE  C21611934   3.822   4.101   4.006 -0.0769 -0.9596  0.1890
  114SAPE  H16R11935   3.724   4.150   4.023 -0.1833 -1.5141  1.2470
  114SAPE  H16S11936   3.892   4.181   3.972 -1.3542  0.4107  0.6772
  114SAPE  C21711937   3.886   4.038   4.130  0.3132 -0.2502  0.0990
  114SAPE  H17R11938   3.980   3.981   4.112  0.8043  0.8800 -1.0440
  114SAPE  H17S11939   3.812   3.968   4.175 -0.0523 -1.6177 -2.4126
  114SAPE  C21811940   3.923   4.138   4.239 -0.4131 -0.5725 -0.4207
  114SAPE  H18R11941   3.984   4.084   4.315  0.6373  0.3655 -0.5811
  114SAPE  H18S11942   3.832   4.182   4.286  0.9282  1.5183  0.3634
  114SAPE  C21911943   4.014   4.252   4.192 -0.3480 -0.0624 -0.7604
  114SAPE  H19R11944   3.954   4.318   4.126  0.4033  2.7400  1.1839
  114SAPE  H19S11945   4.097   4.219   4.126  1.1804 -1.2325  1.5964
  114SAPE  C22011946   4.085   4.329   4.295 -0.8771  1.1634 -0.4869
  114SAPE  H20R11947   4.106   4.258   4.378 -1.5905  2.0010  0.4386
  114SAPE  H20S11948   4.045   4.416   4.352 -0.2909  0.1046  1.6500
  114SAPE  H20T11949   4.184   4.369   4.262 -0.1134  0.4550  0.8668
  114SAPE   C3311950   3.240   3.885   3.538 -0.0360 -0.6945 -0.1914
  114SAPE   H3X11951   3.137   3.863   3.574 -0.3885 -0.5117 -1.0545
  114SAPE   H3Y11952   3.257   3.994   3.533  1.4676 -0.9631 -2.3860
  114SAPE   C3411953   3.328   3.814   3.639  0.6670 -0.4087 -0.4008
  114SAPE   H4X11954   3.435   3.828   3.614  1.7706  1.3216  4.2591
  114SAPE   H4Y11955   3.287   3.711   3.645 -0.4919  0.0882  0.6042
  114SAPE   C3511956   3.304   3.876   3.778 -0.7033  0.1865 -0.2304
  114SAPE   H5X11957   3.200   3.845   3.798 -1.0463  1.8243  0.6551
  114SAPE   H5Y11958   3.318   3.986   3.766  2.8616 -0.1784 -0.7654
  114SAPE   C3611959   3.403   3.827   3.886 -0.4652  0.3702  0.4477
  114SAPE   H6X11960   3.510   3.825   3.856 -0.6519  0.4044 -0.2438
  114SAPE   H6Y11961   3.373   3.723   3.910  0.1166 -0.1611 -1.0383
  114SAPE   C3711962   3.393   3.924   3.999 -0.1859 -0.3933 -0.7401
  114SAPE   H7X11963   3.295   3.901   4.046 -0.7524  1.4789 -0.9125
  114SAPE   H7Y11964   3.390   4.028   3.959  0.0667  0.1254  0.5198
  114SAPE   C3811965   3.493   3.910   4.120 -1.0130  0.7455  0.1070
  114SAPE   H8X11966   3.462   3.988   4.193  0.9022  0.1190  1.6745
  114SAPE   H8Y11967   3.594   3.940   4.085 -2.0310  2.5638 -1.4660
  114SAPE   C3911968   3.496   3.774   4.185  1.0027 -0.1542 -0.2849
  114SAPE   H9X11969   3.512   3.704   4.100  0.2603  0.9378 -1.3591
  114SAPE   H9Y11970   3.397   3.749   4.227  0.3255 -1.1229 -2.3492
  114SAPE  C31011971   3.609   3.740   4.284  0.0660 -0.9358  0.1452
  114SAPE  H10X11972   3.701   3.741   4.221 -0.1640  0.8496 -0.2287
  114SAPE  H10Y11973   3.589   3.637   4.319  0.2922 -0.8841  0.4323
  114SAPE  C31111974   3.622   3.844   4.402  0.2605 -0.4554 -0.2404
  114SAPE  H11X11975   3.634   3.943   4.353 -1.2339  0.0508  0.3582
  114SAPE  H11Y11976   3.710   3.811   4.462 -0.0294 -1.1195 -0.1704
  114SAPE  C31211977   3.495   3.846   4.492 -1.0768 -0.1911 -0.5346
  114SAPE  H12X11978   3.495   3.749   4.546  0.5902  1.5226  2.8193
  114SAPE  H12Y11979   3.412   3.864   4.421 -3.3574 -0.1357  2.0060
  114SAPE  C31311980   3.491   3.947   4.609 -0.2118  0.2310 -0.5994
  114SAPE  H13X11981   3.401   3.936   4.673  0.9237 -1.1056  0.8439
  114SAPE  H13Y11982   3.494   4.044   4.555 -0.3793  0.6533  0.1379
  114SAPE  C31411983   3.613   3.942   4.708  0.4349  0.2565  0.0675
  114SAPE  H14X11984   3.695   4.004   4.666 -0.2120  0.8790 -0.2911
  114SAPE  H14Y11985   3.652   3.838   4.708  0.9117  0.4307 -0.2732
  114SAPE  C31511986   3.567   3.967   4.853  0.0653 -1.0225 -0.4984
  114SAPE  H15X11987   3.502   3.881   4.878 -1.6619  0.5266  0.5127
  114SAPE  H15Y11988   3.495   4.051   4.855  1.3318  0.1178 -1.0498
  114SAPE  C31611989   3.682   3.974   4.954  0.7308 -0.4099  0.2090
  114SAPE  H16X11990   3.720   4.076   4.932 -1.3110  0.4915  0.6525
  114SAPE  H16Y11991   3.758   3.896   4.935 -1.0486 -2.0186 -0.5616
  114SAPE  C31711992   3.654   3.957   5.105  0.4563 -0.2118 -0.0683
  114SAPE  H17X11993   3.563   4.017   5.124 -1.8500 -3.4666 -0.0607
  114SAPE  H17Y11994   3.744   3.990   5.161  0.1103 -0.6069  0.7263
  114SAPE  C31811995   3.609   3.818   5.145 -0.1415 -0.0943 -0.4274
  114SAPE  H18X11996   3.618   3.807   5.256  0.6891  2.6177 -0.1511
  114SAPE  H18Y11997   3.673   3.744   5.093  1.3141  0.0140  1.1226
  114SAPE  H18Z11998   3.502   3.803   5.119 -0.9043  0.5207  2.0603
  115SAPE     N11999   1.569   3.370   2.742 -0.2735 -0.4284  0.0236
  115SAPE   HN112000   1.471   3.376   2.777 -0.8290  0.4240 -1.6001
  115SAPE   HN212001   1.596   3.470   2.731  0.5674 -0.3112  2.5307
  115SAPE   HN312002   1.555   3.331   2.647  0.3723  1.1949 -0.7714
  115SAPE   C1212003   1.655   3.285   2.833 -0.3493  0.1665 -0.5535
  115SAPE  H12A12004   1.618   3.180   2.829  0.2457 -0.2290  2.2810
  115SAPE  H12B12005   1.636   3.323   2.936 -3.3853  1.7019 -1.5493
  115SAPE   C1112006   1.803   3.293   2.795  0.2991 -0.4268 -0.0133
  115SAPE  H11A12007   1.846   3.198   2.830 -0.5055 -0.7586  0.1029
  115SAPE  H11B12008   1.852   3.378   2.848 -1.4588  1.5734 -1.4296
  115SAPE     P12009   1.972   3.318   2.603  0.1248 -0.2299 -0.6516
  115SAPE   O1312010   2.045   3.196   2.636 -0.0456 -0.1285  0.7219
  115SAPE   O1412011   1.988   3.369   2.467 -0.3608  0.1180  0.0635
  115SAPE   O1212012   1.822   3.312   2.649 -0.0007  0.4974  0.0067
  115SAPE   O1112013   2.035   3.428   2.700  0.4986 -0.4968  0.1218
  115SAPE    C112014   1.990   3.558   2.676 -0.0563 -0.6481  0.1297
  115SAPE    HA12015   2.051   3.605   2.595  0.4083  0.2411  0.9735
  115SAPE    HB12016   1.880   3.571   2.665  0.3536  1.5598 -2.2437
  115SAPE    C212017   2.031   3.648   2.797 -0.2446 -0.5349 -0.7200
  115SAPE    HS12018   2.141   3.660   2.799 -0.0346 -1.6699 -2.5959
  115SAPE   O2112019   1.977   3.590   2.920 -0.6317  0.9624  0.1304
  115SAPE   C2112020   2.063   3.556   3.008 -0.2420  0.3916  0.4073
  115SAPE   O2212021   2.179   3.590   3.012  0.0146  0.3120 -0.1659
  115SAPE   C2212022   1.992   3.472   3.118  0.3054 -0.4059 -0.0548
  115SAPE   H2R12023   2.015   3.363   3.112 -3.2679 -1.4445  2.0481
  115SAPE   H2S12024   2.045   3.503   3.211  0.4806 -0.7360 -0.0442
  115SAPE    C312025   1.967   3.791   2.782  0.1292  0.1103 -0.6412
  115SAPE    HX12026   1.858   3.778   2.770  0.0775 -1.3303  0.9433
  115SAPE    HY12027   2.008   3.829   2.686 -1.7895  1.7041 -0.8943
  115SAPE   O3112028   1.991   3.879   2.895  0.3807  0.1518  0.6288
  115SAPE   C3112029   2.112   3.937   2.903 -0.1292 -0.7391 -0.6242
  115SAPE   O3212030   2.206   3.918   2.829  0.5159  0.6398  0.1799
  115SAPE   C3212031   2.125   4.005   3.034  0.0270  0.3081 -0.4571
  115SAPE   H2X12032   2.068   4.100   3.035  1.0730  0.9837  1.9316
  115SAPE   H2Y12033   2.230   4.036   3.055 -0.3686  0.7972  0.9164
  115SAPE   C2312034   1.838   3.504   3.146 -0.2123 -0.6603 -0.1827
  115SAPE   H3R12035   1.783   3.447   3.068  2.8219  0.0482 -3.0728
  115SAPE   H3S12036   1.808   3.611   3.141 -1.2302 -0.6695  3.2559
  115SAPE   C2412037   1.797   3.457   3.285  0.6453 -0.1716  0.5231
  115SAPE   H4R12038   1.696   3.488   3.320  0.5111 -1.7400  1.6552
  115SAPE   H4S12039   1.865   3.500   3.361 -1.2780  1.0394  1.6614
  115SAPE   C2512040   1.807   3.314   3.290 -0.3504  0.2329 -0.7158
  115SAPE   H5R12041   1.817   3.248   3.203  2.5704  1.5252 -1.4627
  115SAPE   C2612042   1.783   3.241   3.408 -0.8106 -0.8549  0.2301
  115SAPE   H6R12043   1.776   3.131   3.402  0.7161 -0.9701  0.1855
  115SAPE   C2712044   1.766   3.299   3.548  0.6152  0.1649 -0.0384
  115SAPE   H7R12045   1.737   3.211   3.611 -0.8383 -0.6281 -1.7333
  115SAPE   H7S12046   1.674   3.361   3.556  0.7939  0.5876 -1.1400
  115SAPE   C2812047   1.884   3.380   3.592 -0.8145  0.0249 -0.5827
  115SAPE   H8R12048   1.974   3.363   3.531  1.0205  2.0526  1.3889
  115SAPE   C2912049   1.894   3.463   3.696  0.2483 -0.1407 -0.7860
  115SAPE   H9R12050   1.994   3.504   3.719  0.1146 -0.8633  1.3634
  115SAPE  C21012051   1.795   3.500   3.806  0.3444  0.2518  0.7122
  115SAPE  H10R12052   1.701   3.537   3.761 -1.2969 -1.8092  2.2371
  115SAPE  H10S12053   1.832   3.585   3.866  0.9442  0.5025  0.0072
  115SAPE  C21112054   1.761   3.382   3.892 -0.3774 -0.2786 -0.7768
  115SAPE  H11R12055   1.721   3.302   3.829 -2.0778  0.3128 -0.5131
  115SAPE  C21212056   1.782   3.372   4.024  0.4974 -0.2685 -0.4840
  115SAPE  H12R12057   1.754   3.277   4.071 -0.9402  0.0075 -0.7188
  115SAPE  C21312058   1.834   3.477   4.120 -0.2709 -0.7104  0.2243
  115SAPE  H13R12059   1.817   3.453   4.227  1.0318  0.7376  0.7885
  115SAPE  H13S12060   1.774   3.570   4.111 -1.5030 -1.6088 -1.3540
  115SAPE  C21412061   1.981   3.505   4.087  0.0741 -0.1094 -0.3771
  115SAPE  H14R12062   2.021   3.471   3.990  0.6027 -0.4074 -0.0546
  115SAPE  C21512063   2.059   3.555   4.172 -1.1676  0.4756  0.1824
  115SAPE  H15R12064   2.165   3.555   4.143 -1.0462 -2.0548  0.3626
  115SAPE  C21612065   2.045   3.591   4.317  0.1697  0.3259  0.2471
  115SAPE  H16R12066   1.937   3.595   4.342 -0.0011  0.6329 -0.5154
  115SAPE  H16S12067   2.086   3.694   4.329 -0.8095  0.9585 -1.5314
  115SAPE  C21712068   2.118   3.500   4.412  0.3742 -1.0889 -0.5606
  115SAPE  H17R12069   2.222   3.484   4.376 -0.0609 -1.5233 -1.6545
  115SAPE  H17S12070   2.063   3.404   4.410 -0.7802 -0.4722  0.0760
  115SAPE  C21812071   2.123   3.567   4.553  0.1773 -0.2669  0.6463
  115SAPE  H18R12072   2.018   3.600   4.563 -0.1782 -0.1126 -2.4994
  115SAPE  H18S12073   2.183   3.661   4.547 -0.9301  0.4548  0.6281
  115SAPE  C21912074   2.167   3.470   4.660  0.1375  0.0189 -0.3900
  115SAPE  H19R12075   2.273   3.438   4.646  0.8417  1.8251  0.4483
  115SAPE  H19S12076   2.094   3.387   4.650  0.1149  0.2690 -2.9021
  115SAPE  C22012077   2.152   3.523   4.798 -0.0536  0.0357  0.4822
  115SAPE  H20R12078   2.049   3.562   4.811  0.1298  0.5369  0.4694
  115SAPE  H20S12079   2.225   3.607   4.804  0.3513 -0.1163 -1.6493
  115SAPE  H20T12080   2.168   3.448   4.878  0.5779 -1.6054 -1.1025
  115SAPE   C3312081   2.077   3.919   3.154 -0.4163  1.1457 -0.1661
  115SAPE   H3X12082   2.120   3.818   3.174 -0.5050  0.9181 -1.0911
  115SAPE   H3Y12083   1.967   3.911   3.138 -0.8217 -0.0162  2.4986
  115SAPE   C3412084   2.100   3.990   3.289  0.3189  0.0766  1.2983
  115SAPE   H4X12085   2.086   4.100   3.276  1.6252  0.1137 -0.1079
  115SAPE   H4Y12086   2.210   3.984   3.300  0.3984 -1.4157  0.0099
  115SAPE   C3512087   2.013   3.930   3.410 -0.5731  0.3084  0.1625
  115SAPE   H5X12088   2.006   3.820   3.418 -1.2405  0.3569  0.2861
  115SAPE   H5Y12089   1.913   3.973   3.391  0.4161  1.9563 -1.6914
  115SAPE   C3612090   2.079   3.972   3.544  0.2824 -0.1457 -0.5188
  115SAPE   H6X12091   2.062   4.080   3.564 -0.9161 -0.6776  1.6182
  115SAPE   H6Y12092   2.184   3.938   3.555 -0.2946 -1.2952  2.3723
  115SAPE   C3712093   2.009   3.904   3.664 -0.0500 -0.7177  0.2706
  115SAPE   H7X12094   2.022   3.795   3.648  1.5757 -0.3984 -0.8303
  115SAPE   H7Y12095   1.901   3.926   3.651 -0.1378 -1.8253 -1.1351
  115SAPE   C3812096   2.067   3.936   3.803 -0.2186 -0.3397  0.3419
  115SAPE   H8X12097   2.062   4.046   3.822  0.4408 -0.1349 -0.6032
  115SAPE   H8Y12098   2.167   3.888   3.798 -1.5487 -3.2343 -1.5296
  115SAPE   C3912099   1.978   3.873   3.914  0.0915  0.4708  0.3553
  115SAPE   H9X12100   1.958   3.765   3.895  0.7190  0.6662 -1.5812
  115SAPE   H9Y12101   1.877   3.921   3.914 -0.2112 -0.0479 -2.0358
  115SAPE  C31012102   2.034   3.893   4.055  0.1668  0.2837 -0.1066
  115SAPE  H10X12103   2.136   3.851   4.065 -0.2757 -0.2512  4.0296
  115SAPE  H10Y12104   1.969   3.837   4.126  0.3333  1.2901  0.8637
  115SAPE  C31112105   2.050   4.041   4.091 -0.8169 -0.2060  0.0962
  115SAPE  H11X12106   1.949   4.087   4.095  0.1811  2.2070 -0.6587
  115SAPE  H11Y12107   2.111   4.093   4.015 -1.1694  1.4130  0.8786
  115SAPE  C31212108   2.118   4.049   4.234 -0.4465  0.0737 -0.3496
  115SAPE  H12X12109   2.137   4.158   4.228  0.1820 -0.1114 -2.8001
  115SAPE  H12Y12110   2.216   3.996   4.237 -0.8094 -0.6202 -0.3985
  115SAPE  C31312111   2.036   4.005   4.358 -0.1025 -0.2099 -0.6676
  115SAPE  H13X12112   1.999   3.901   4.340 -1.6921 -0.0340  1.2518
  115SAPE  H13Y12113   1.941   4.063   4.365 -0.8645 -1.1088 -2.5240
  115SAPE  C31412114   2.108   4.020   4.495  0.0745  0.9587 -0.0831
  115SAPE  H14X12115   2.213   4.049   4.472  0.9712 -0.9769  1.2541
  115SAPE  H14Y12116   2.102   3.915   4.533 -3.8260  0.4817 -1.5698
  115SAPE  C31512117   2.029   4.107   4.583 -0.3249  0.6900  0.0575
  115SAPE  H15X12118   1.926   4.067   4.584  0.5648 -1.7662  1.2129
  115SAPE  H15Y12119   2.037   4.215   4.557  3.5032  0.2925 -1.0638
  115SAPE  C31612120   2.067   4.103   4.732 -1.0781  0.5562 -0.2302
  115SAPE  H16X12121   1.994   4.160   4.794 -0.3261 -0.2807  1.4643
  115SAPE  H16Y12122   2.166   4.151   4.746 -0.3841 -0.1547 -2.3951
  115SAPE  C31712123   2.083   3.957   4.782  0.1000 -0.5517 -0.2342
  115SAPE  H17X12124   2.168   3.904   4.734  1.3053  1.3390 -0.2629
  115SAPE  H17Y12125   1.990   3.904   4.750 -0.5658  2.0392 -3.0779
  115SAPE  C31812126   2.091   3.934   4.935  0.2413 -0.2035  0.2114
  115SAPE  H18X12127   2.183   3.985   4.970  0.7028  0.9088 -2.3473
  115SAPE  H18Y12128   2.110   3.825   4.951  2.6510  0.3694  1.6798
  115SAPE  H18Z12129   1.998   3.969   4.984 -0.7883 -1.5035 -0.7162
  116SAPE     N12130   4.180   5.733   2.728  0.0303  0.6244 -0.0474
  116SAPE   HN112131   4.090   5.753   2.681  0.7880  1.9399 -1.0394
  116SAPE   HN212132   4.177   5.802   2.806 -1.6928  0.5781 -0.0430
  116SAPE   HN312133   4.260   5.751   2.664 -0.5591 -0.1928 -1.0484
  116SAPE   C1212134   4.186   5.590   2.764  0.3230 -0.2975  0.1833
  116SAPE  H12A12135   4.208   5.535   2.670  0.2786 -0.3280  0.1904
  116SAPE  H12B12136   4.088   5.561   2.808  0.6401 -0.9539  0.4559
  116SAPE   C1112137   4.304   5.558   2.856 -0.1326  0.1305 -0.2958
  116SAPE  H11A12138   4.288   5.456   2.898  0.9833  0.2443  0.4299
  116SAPE  H11B12139   4.298   5.619   2.948  3.1300 -1.3415  1.0576
  116SAPE     P12140   4.570   5.531   2.869 -0.0553  0.2411 -0.5046
  116SAPE   O1312141   4.581   5.388   2.898 -0.6986 -0.5231 -0.0652
  116SAPE   O1412142   4.684   5.591   2.801 -0.1637 -0.3596 -0.4952
  116SAPE   O1212143   4.431   5.567   2.796  0.5201 -0.4162 -0.4166
  116SAPE   O1112144   4.547   5.590   3.009 -0.2360 -0.3292 -0.7532
  116SAPE    C112145   4.530   5.732   3.031 -0.4222 -0.4198 -0.5729
  116SAPE    HA12146   4.473   5.782   2.950  1.1883  1.5250 -0.5848
  116SAPE    HB12147   4.476   5.743   3.127  0.6167  2.6488 -0.2325
  116SAPE    C212148   4.661   5.810   3.062 -0.5071 -0.5861  0.1617
  116SAPE    HS12149   4.727   5.817   2.973  0.9398 -0.0469  1.2328
  116SAPE   O2112150   4.723   5.746   3.181 -0.4242 -1.0235  0.1725
  116SAPE   C2112151   4.849   5.732   3.176 -0.7082 -0.0748  0.8099
  116SAPE   O2212152   4.920   5.741   3.076 -0.0157 -0.9507  0.2733
  116SAPE   C2212153   4.906   5.696   3.312 -0.0260  0.1695  0.7309
  116SAPE   H2R12154   4.861   5.762   3.389 -1.1672 -0.7233  0.8624
  116SAPE   H2S12155   4.862   5.600   3.346  0.9875 -0.2084  1.0359
  116SAPE    C312156   4.615   5.959   3.085 -0.0217 -0.5342 -0.4093
  116SAPE    HX12157   4.573   6.006   2.993  1.5742  3.9576  0.8793
  116SAPE    HY12158   4.699   6.029   3.102 -2.1074  1.8231  0.7704
  116SAPE   O3112159   4.516   5.983   3.191 -0.1252  0.0767 -0.2722
  116SAPE   C3112160   4.561   5.982   3.324 -0.7557  0.1102  0.1448
  116SAPE   O3212161   4.679   5.983   3.354  0.6072  0.3464 -0.2310
  116SAPE   C3212162   4.447   6.005   3.416 -0.0492  0.1508  0.1206
  116SAPE   H2X12163   4.375   5.922   3.397  0.5082 -0.3249  0.0591
  116SAPE   H2Y12164   4.405   6.106   3.396 -2.2944 -0.6166  0.5983
  116SAPE   C2312165   5.069   5.689   3.306  0.6031  0.1318 -0.1871
  116SAPE   H3R12166   5.103   5.785   3.260 -1.5252  0.8334 -0.4201
  116SAPE   H3S12167   5.094   5.613   3.229  0.4350  1.4950 -1.6502
  116SAPE   C2412168   5.137   5.661   3.441  0.2782  0.4887 -0.5056
  116SAPE   H4R12169   5.088   5.573   3.487  0.6654  0.4844 -0.0968
  116SAPE   H4S12170   5.116   5.754   3.499 -0.0594  1.1592 -1.6563
  116SAPE   C2512171   5.292   5.654   3.447  0.1241 -0.6969  0.2614
  116SAPE   H5R12172   5.342   5.615   3.357 -1.2738 -1.7777 -0.0845
  116SAPE   C2612173   5.368   5.706   3.543  0.8333  0.1320  0.6947
  116SAPE   H6R12174   5.477   5.694   3.538  0.8748 -0.2507  2.0213
  116SAPE   C2712175   5.324   5.756   3.671 -0.1963 -0.1100  0.0426
  116SAPE   H7R12176   5.344   5.681   3.750  0.3983  1.5209  1.5028
  116SAPE   H7S12177   5.213   5.756   3.678 -0.2038 -1.8022  0.3593
  116SAPE   C2812178   5.387   5.889   3.717  0.3207  0.8360  0.2010
  116SAPE   H8R12179   5.432   5.948   3.637 -0.0559 -0.2169 -0.8294
  116SAPE   C2912180   5.389   5.934   3.845 -0.1681 -0.0290  0.3699
  116SAPE   H9R12181   5.452   6.023   3.859 -0.9068  0.4438  0.7430
  116SAPE  C21012182   5.308   5.880   3.960 -0.1064  0.7311 -0.0158
  116SAPE  H10R12183   5.375   5.811   4.016  0.6348  1.5634  0.1553
  116SAPE  H10S12184   5.218   5.824   3.927  0.5106  0.0105 -0.5132
  116SAPE  C21112185   5.257   5.984   4.060 -1.0088  0.5240  0.0852
  116SAPE  H11R12186   5.193   6.062   4.017 -0.4263  0.0078 -1.8213
  116SAPE  C21212187   5.312   6.004   4.182 -0.1068 -0.4236  0.2434
  116SAPE  H12R12188   5.269   6.081   4.247  0.1571  1.4418 -1.6865
  116SAPE  C21312189   5.409   5.912   4.254 -0.3738  0.3788  0.5195
  116SAPE  H13R12190   5.512   5.941   4.225 -0.6252  1.6884  0.8857
  116SAPE  H13S12191   5.393   5.808   4.218  1.3436  1.3297 -3.5390
  116SAPE  C21412192   5.392   5.930   4.410 -0.0336 -0.3855  0.0136
  116SAPE  H14R12193   5.300   5.891   4.456 -2.3535 -0.5465 -4.3129
  116SAPE  C21512194   5.486   5.983   4.496  0.0838  0.1561  0.4876
  116SAPE  H15R12195   5.466   5.983   4.604  0.7798 -0.3709  0.6187
  116SAPE  C21612196   5.627   6.034   4.481 -0.2024 -0.6085 -0.0810
  116SAPE  H16R12197   5.615   6.143   4.500 -2.7514 -0.9333  0.4924
  116SAPE  H16S12198   5.657   6.031   4.374  1.8170  1.1156  0.3626
  116SAPE  C21712199   5.741   5.983   4.573 -1.0963 -0.4574  0.0484
  116SAPE  H17R12200   5.712   5.979   4.680  1.4125 -1.7069  0.7806
  116SAPE  H17S12201   5.829   6.051   4.568 -0.1398 -1.6264  0.2305
  116SAPE  C21812202   5.793   5.843   4.531 -0.3621 -0.0372  0.2575
  116SAPE  H18R12203   5.888   5.819   4.584  1.0359  1.8960 -1.1911
  116SAPE  H18S12204   5.831   5.854   4.427 -1.0224 -0.0702  0.0074
  116SAPE  C21912205   5.694   5.725   4.531  0.1311 -1.0719  0.0352
  116SAPE  H19R12206   5.606   5.757   4.470  1.3309  1.4644 -0.4834
  116SAPE  H19S12207   5.670   5.693   4.634  1.9049  2.6192  1.7599
  116SAPE  C22012208   5.751   5.600   4.453 -0.0397 -0.2360  0.4285
  116SAPE  H20R12209   5.683   5.513   4.461 -1.0402  0.4083 -0.7367
  116SAPE  H20S12210   5.846   5.571   4.502 -0.3609 -3.0541 -0.4438
  116SAPE  H20T12211   5.782   5.632   4.351  2.7391  2.0807  1.8584
  116SAPE   C3312212   4.500   5.998   3.565  0.0261  0.0337 -0.5133
  116SAPE   H3X12213   4.567   6.084   3.586 -0.0192  0.7495 -3.0402
  116SAPE   H3Y12214   4.562   5.906   3.580 -1.1070 -0.4085  2.0958
  116SAPE   C3412215   4.388   5.981   3.664 -0.2364  0.2868 -0.3179
  116SAPE   H4X12216   4.348   5.877   3.666  1.7916 -0.5619 -1.1189
  116SAPE   H4Y12217   4.316   6.054   3.621 -2.1296 -0.7146  1.0380
  116SAPE   C3512218   4.421   6.037   3.800  0.3108  0.0201 -0.2930
  116SAPE   H5X12219   4.481   6.130   3.790  0.6621  0.1164  2.1729
  116SAPE   H5Y12220   4.482   5.965   3.859  0.5518  1.4395  1.2664
  116SAPE   C3612221   4.287   6.065   3.880 -1.4196  0.5285  1.2583
  116SAPE   H6X12222   4.248   5.961   3.885  1.9725 -0.7930  2.6816
  116SAPE   H6Y12223   4.227   6.132   3.815  1.6426 -0.5475 -3.0918
  116SAPE   C3712224   4.309   6.119   4.025  0.0695  0.6882 -0.7827
  116SAPE   H7X12225   4.377   6.206   4.014 -0.0650  0.8214 -0.5485
  116SAPE   H7Y12226   4.364   6.044   4.086  0.4763  0.8895 -0.8977
  116SAPE   C3812227   4.183   6.164   4.087  0.0930 -0.3368 -0.0644
  116SAPE   H8X12228   4.119   6.077   4.111 -0.4537  0.3571  1.0739
  116SAPE   H8Y12229   4.134   6.242   4.024 -0.5441 -0.8129 -0.1755
  116SAPE   C3912230   4.192   6.246   4.216  0.0480  0.2255  0.7656
  116SAPE   H9X12231   4.085   6.245   4.248 -0.1029  1.2861  0.3262
  116SAPE   H9Y12232   4.233   6.343   4.183 -0.9912  1.0887  1.9030
  116SAPE  C31012233   4.272   6.176   4.330  0.4051  0.5509  0.2943
  116SAPE  H10X12234   4.378   6.210   4.332  0.9782 -1.1481  0.4466
  116SAPE  H10Y12235   4.273   6.069   4.302  0.0432  0.7526 -0.5450
  116SAPE  C31112236   4.211   6.188   4.457 -0.4098  0.0447  0.1818
  116SAPE  H11X12237   4.121   6.125   4.475  0.3216 -0.9802  0.2919
  116SAPE  H11Y12238   4.194   6.293   4.489 -0.7892  0.3745 -1.0802
  116SAPE  C31212239   4.320   6.133   4.556 -0.8061  0.6724  0.4468
  116SAPE  H12X12240   4.414   6.189   4.536 -1.0661  1.3758  1.1355
  116SAPE  H12Y12241   4.332   6.025   4.533 -1.0887  0.4183  1.4469
  116SAPE  C31312242   4.274   6.139   4.703  0.1238  0.4429  0.1521
  116SAPE  H13X12243   4.173   6.094   4.707 -0.0514  0.7824 -0.3771
  116SAPE  H13Y12244   4.254   6.242   4.740 -3.2958  0.9269 -2.5222
  116SAPE  C31412245   4.361   6.069   4.810 -0.1697  0.1335 -0.3536
  116SAPE  H14X12246   4.468   6.098   4.799  0.2624 -2.0301 -2.7932
  116SAPE  H14Y12247   4.349   5.960   4.794 -1.1295  0.3042 -0.8246
  116SAPE  C31512248   4.311   6.106   4.956  0.0017  0.3079  0.4602
  116SAPE  H15X12249   4.201   6.096   4.945  0.0914 -0.0728 -0.1329
  116SAPE  H15Y12250   4.330   6.214   4.975  0.5717  1.1760 -3.8942
  116SAPE  C31612251   4.355   6.007   5.063 -0.4611  0.8813  0.4212
  116SAPE  H16X12252   4.460   6.035   5.087  0.5616 -1.6467 -0.7880
  116SAPE  H16Y12253   4.355   5.904   5.021  3.3898  1.4977 -1.5541
  116SAPE  C31712254   4.273   6.027   5.187  0.5003  0.5409 -0.6687
  116SAPE  H17X12255   4.167   5.997   5.167  0.0183  0.8911  1.1802
  116SAPE  H17Y12256   4.264   6.136   5.207  0.7732 -0.0386  3.4037
  116SAPE  C31812257   4.329   5.964   5.313 -0.2562 -0.2476  0.4338
  116SAPE  H18X12258   4.345   5.854   5.308 -1.7466 -0.4397 -1.2287
  116SAPE  H18Y12259   4.275   5.992   5.406 -0.3195 -2.7513  1.2231
  116SAPE  H18Z12260   4.424   6.015   5.337  0.2206 -0.8931 -0.0705
  117SOPE     N12261   1.282   1.889   7.092 -0.5028  0.5418 -1.0371
  117SOPE   HN112262   1.182   1.904   7.116 -0.3569  0.6748 -0.4873
  117SOPE   HN212263   1.322   1.824   7.163 -1.3934  2.4501  1.3532
  117SOPE   HN312264   1.345   1.970   7.109  2.0110 -1.2720 -1.2280
  117SOPE   C1212265   1.292   1.834   6.949 -0.0323 -0.3832  0.2953
  117SOPE  H12A12266   1.399   1.825   6.922  0.0388 -0.1929  0.5106
  117SOPE  H12B12267   1.236   1.909   6.888 -0.4786 -0.1245  1.0053
  117SOPE   C1112268   1.213   1.699   6.950  0.2945  0.0529  0.2309
  117SOPE  H11A12269   1.209   1.679   6.841  1.9386 -0.6311  0.2596
  117SOPE  H11B12270   1.108   1.697   6.984 -0.1114 -1.6586 -1.0012
  117SOPE     P12271   1.385   1.509   6.954 -0.2954  0.3478  0.0746
  117SOPE   O1312272   1.455   1.435   7.058 -0.2487  0.3431  0.0276
  117SOPE   O1412273   1.464   1.585   6.855  0.0143 -0.2913 -0.4695
  117SOPE   O1212274   1.282   1.603   7.030  0.0986  0.3364  0.5714
  117SOPE   O1112275   1.290   1.415   6.873 -1.0589 -0.2542  1.0519
  117SOPE    C112276   1.322   1.379   6.740 -0.4228  0.8074 -0.4782
  117SOPE    HA12277   1.301   1.271   6.724 -2.0721  1.0302 -0.0178
  117SOPE    HB12278   1.427   1.392   6.706  0.4069  0.5869  1.8724
  117SOPE    C212279   1.234   1.444   6.632 -0.1058  0.0613 -0.0749
  117SOPE    HS12280   1.242   1.381   6.541 -2.2807 -1.7610  0.9105
  117SOPE   O2112281   1.281   1.583   6.610 -0.1901  0.1797 -0.0792
  117SOPE   C2112282   1.400   1.591   6.547 -0.2506 -0.2715  0.1604
  117SOPE   O2212283   1.452   1.502   6.485  0.3708  0.7477 -0.4243
  117SOPE   C2212284   1.449   1.740   6.564 -0.6980 -0.1186  0.7314
  117SOPE   H2R12285   1.484   1.742   6.669 -1.9842 -0.5645  1.1884
  117SOPE   H2S12286   1.359   1.804   6.552 -1.3171 -1.2477 -1.0543
  117SOPE    C312287   1.085   1.440   6.672 -0.0407 -0.0835 -0.3825
  117SOPE    HX12288   1.070   1.504   6.761 -0.4673 -0.5220 -0.1325
  117SOPE    HY12289   1.060   1.334   6.695 -0.6104 -0.2729 -1.7687
  117SOPE   O3112290   1.014   1.486   6.553 -1.1674 -0.5895 -0.4871
  117SOPE   C3112291   0.998   1.616   6.529 -0.4856 -0.2871  0.3676
  117SOPE   O3212292   1.044   1.709   6.592 -0.9080 -0.1191  0.1522
  117SOPE   C3212293   0.949   1.638   6.387 -0.5514  0.0531  0.9119
  117SOPE   H2X12294   0.921   1.745   6.372  0.2301  0.1243 -0.1597
  117SOPE   H2Y12295   0.862   1.571   6.368 -1.2432  1.1704 -0.0116
  117SOPE   C2312296   1.563   1.770   6.456  0.2531  0.5711 -0.1067
  117SOPE   H3R12297   1.643   1.694   6.463 -1.7218 -1.6667 -0.3254
  117SOPE   H3S12298   1.610   1.860   6.501 -0.4793  0.5833  0.6677
  117SOPE   C2412299   1.498   1.793   6.318 -0.5499  0.5766  0.4123
  117SOPE   H4R12300   1.449   1.700   6.281 -1.7100  0.8860  1.1048
  117SOPE   H4S12301   1.410   1.862   6.317 -1.1457 -0.1332  1.6070
  117SOPE   C2512302   1.595   1.843   6.214 -0.7249  0.8286  0.0106
  117SOPE   H5R12303   1.635   1.941   6.250  0.4764 -0.1453  1.4195
  117SOPE   H5S12304   1.676   1.767   6.217 -1.5839 -0.0666  2.3720
  117SOPE   C2612305   1.545   1.855   6.062  0.1081  0.3860 -0.5815
  117SOPE   H6R12306   1.501   1.758   6.032  2.2035 -0.1901 -1.9730
  117SOPE   H6S12307   1.462   1.929   6.059  0.1668  0.4573 -0.4648
  117SOPE   C2712308   1.653   1.894   5.965 -1.2496  0.4196 -0.3013
  117SOPE   H7R12309   1.692   1.990   6.007 -1.3333  1.1596 -1.8273
  117SOPE   H7S12310   1.737   1.822   5.964 -0.8385  0.8875 -0.0607
  117SOPE   C2812311   1.592   1.927   5.825 -0.4724 -0.0398 -0.6799
  117SOPE   H8R12312   1.556   1.835   5.775 -1.3075  0.3181 -0.7590
  117SOPE   H8S12313   1.498   1.980   5.851 -1.5893 -0.7407 -3.0306
  117SOPE   C2912314   1.670   2.028   5.750 -0.2636 -0.0881  0.0496
  117SOPE   H9112315   1.702   2.106   5.821 -0.3403 -0.2035  0.2129
  117SOPE  C21012316   1.681   2.034   5.616  0.0728 -0.4162  0.0274
  117SOPE  H10112317   1.737   2.121   5.577 -0.5467 -0.8383 -1.9418
  117SOPE  C21112318   1.636   1.938   5.513  1.0923  0.8189  0.3857
  117SOPE  H11R12319   1.576   1.981   5.430 -0.4783 -1.5950  0.1928
  117SOPE  H11S12320   1.561   1.865   5.550  0.8952  0.2877 -1.0000
  117SOPE  C21212321   1.751   1.864   5.450  0.0967  0.1451 -0.3392
  117SOPE  H12R12322   1.785   1.781   5.516 -0.0759  0.6780  0.4311
  117SOPE  H12S12323   1.840   1.930   5.438  0.3718  0.3584  2.3646
  117SOPE  C21312324   1.709   1.800   5.312  0.5513  0.3431  0.6406
  117SOPE  H13R12325   1.659   1.881   5.256 -3.2503 -1.0250  1.7262
  117SOPE  H13S12326   1.632   1.722   5.332  2.3486 -1.7112 -0.1171
  117SOPE  C21412327   1.823   1.742   5.237  0.0428 -0.0375 -0.0910
  117SOPE  H14R12328   1.860   1.651   5.289  1.4461 -0.1918 -1.3145
  117SOPE  H14S12329   1.903   1.819   5.229 -0.2462  0.2963  0.1680
  117SOPE  C21512330   1.766   1.697   5.096  0.1082  0.1574 -0.8328
  117SOPE  H15R12331   1.719   1.793   5.063  1.3719  1.8990  2.0570
  117SOPE  H15S12332   1.706   1.604   5.096 -1.0558  0.8893 -0.2430
  117SOPE  C21612333   1.883   1.658   4.991  0.7822  0.0507 -0.0025
  117SOPE  H16R12334   1.869   1.553   4.957  1.6337 -0.0417 -0.0896
  117SOPE  H16S12335   1.982   1.663   5.040  2.5612  0.4613 -3.3396
  117SOPE  C21712336   1.885   1.764   4.877  0.9403  0.5206  0.2647
  117SOPE  H17R12337   1.912   1.861   4.924  0.0937  0.2611  1.3133
  117SOPE  H17S12338   1.784   1.760   4.831  0.1685  0.1337  1.9299
  117SOPE  C21812339   1.986   1.719   4.767 -0.1980 -0.8866  0.0194
  117SOPE  H18R12340   2.089   1.727   4.808 -1.3477 -0.5146  3.0913
  117SOPE  H18S12341   1.982   1.775   4.671 -3.1458 -0.1576  0.4749
  117SOPE  H18T12342   1.964   1.613   4.741 -1.2493 -1.1279  1.7397
  117SOPE   C3312343   1.053   1.593   6.279 -0.4872 -0.2382  0.0843
  117SOPE   H3X12344   1.096   1.501   6.325  0.2454  1.0809  2.2270
  117SOPE   H3Y12345   1.138   1.665   6.279 -1.5165  1.0059  0.2093
  117SOPE   C3412346   0.997   1.597   6.147  0.1787 -0.3440  0.3647
  117SOPE   H4X12347   0.947   1.696   6.135 -0.8256 -0.6545  1.6672
  117SOPE   H4Y12348   0.922   1.517   6.132  0.9444 -1.1882  0.9461
  117SOPE   C3512349   1.101   1.577   6.035  0.6837 -0.3016 -0.5610
  117SOPE   H5X12350   1.141   1.474   6.036  0.0116 -0.5628  0.5136
  117SOPE   H5Y12351   1.185   1.648   6.054 -1.5366  2.6697 -1.0387
  117SOPE   C3612352   1.055   1.620   5.901 -0.4695 -0.9890  0.0597
  117SOPE   H6X12353   1.060   1.730   5.890  0.3830 -1.1896 -2.0185
  117SOPE   H6Y12354   0.954   1.578   5.883 -0.1220 -1.4679 -0.8218
  117SOPE   C3712355   1.148   1.570   5.785  0.3952 -0.2386  0.5781
  117SOPE   H7X12356   1.142   1.459   5.785 -1.4404 -0.1980 -0.9924
  117SOPE   H7Y12357   1.250   1.612   5.798 -0.1987  1.5679 -0.2953
  117SOPE   C3812358   1.101   1.618   5.644 -0.1576 -0.5887  0.1205
  117SOPE   H8X12359   1.093   1.728   5.653 -2.6286 -0.8052  1.3735
  117SOPE   H8Y12360   1.001   1.573   5.627  0.3594 -1.5666 -0.4577
  117SOPE   C3912361   1.192   1.578   5.530 -0.9157 -0.1519  0.3130
  117SOPE   H9X12362   1.186   1.468   5.516  1.0908 -0.2545 -0.0955
  117SOPE   H9Y12363   1.297   1.608   5.551 -1.7243  2.6834  0.7300
  117SOPE  C31012364   1.169   1.630   5.398 -0.0414 -0.4502  0.4652
  117SOPE  H10X12365   1.158   1.740   5.383 -0.6103 -0.7054 -1.1191
  117SOPE  H10Y12366   1.069   1.588   5.373 -1.7571  2.4553  1.8872
  117SOPE  C31112367   1.286   1.597   5.304 -0.1294  0.5528 -0.0458
  117SOPE  H11X12368   1.302   1.489   5.323 -0.4482  0.8035  1.8155
  117SOPE  H11Y12369   1.380   1.644   5.340  0.5095 -0.7986  0.0758
  117SOPE  C31212370   1.247   1.613   5.166  0.9185 -0.4749  0.6805
  117SOPE  H12X12371   1.233   1.723   5.159  1.2450 -0.5145 -0.8382
  117SOPE  H12Y12372   1.153   1.564   5.133  2.1434 -1.2687 -1.8255
  117SOPE  C31312373   1.356   1.570   5.066 -0.1525  0.3877  0.1106
  117SOPE  H13X12374   1.379   1.464   5.089  3.0468  0.9527 -0.1369
  117SOPE  H13Y12375   1.452   1.623   5.082 -0.0738  0.4510 -0.5215
  117SOPE  C31412376   1.311   1.577   4.920  0.2116  0.0468 -0.0017
  117SOPE  H14X12377   1.271   1.676   4.890  0.3977  0.9284  2.4132
  117SOPE  H14Y12378   1.221   1.512   4.913 -0.0065  0.4773 -1.4361
  117SOPE  C31512379   1.415   1.539   4.813 -0.2396  0.6627 -1.1717
  117SOPE  H15X12380   1.460   1.442   4.844 -0.6559  1.1051  0.9487
  117SOPE  H15Y12381   1.489   1.622   4.816 -1.2442  1.5394  0.2257
  117SOPE  C31612382   1.364   1.548   4.668 -0.4630 -0.1621 -0.5925
  117SOPE  H16X12383   1.319   1.649   4.659 -2.9008 -0.9355  1.6454
  117SOPE  H16Y12384   1.280   1.474   4.666 -0.3542 -0.5567  3.0055
  117SOPE  C31712385   1.473   1.537   4.563  0.5523  0.2226  0.1396
  117SOPE  H17X12386   1.508   1.433   4.542 -1.2583 -0.3974  0.0751
  117SOPE  H17Y12387   1.558   1.602   4.595 -1.1116  1.3638  2.4855
  117SOPE  C31812388   1.424   1.586   4.427  0.1129  0.5349 -0.0966
  117SOPE  H18X12389   1.492   1.546   4.350  2.3236  0.4042  1.8115
  117SOPE  H18Y12390   1.432   1.697   4.424 -0.1542  0.5443 -0.4554
  117SOPE  H18Z12391   1.316   1.567   4.409 -0.2326  0.6845  1.5884
  118SOPE     N12392   3.596   4.685   7.123 -0.1978  0.2265  0.1573
  118SOPE   HN112393   3.568   4.750   7.200 -0.2026  0.2241  0.1574
  118SOPE   HN212394   3.650   4.744   7.057  2.4819 -1.9114  0.2668
  118SOPE   HN312395   3.524   4.641   7.063  1.3407  0.9960 -2.3893
  118SOPE   C1212396   3.684   4.577   7.178 -0.3377  0.0218  0.3293
  118SOPE  H12A12397   3.745   4.620   7.260 -1.5715  0.9741  0.7813
  118SOPE  H12B12398   3.757   4.552   7.098  0.1154  1.4618  0.2679
  118SOPE   C1112399   3.603   4.453   7.223  0.4029  0.4632  0.1931
  118SOPE  H11A12400   3.531   4.479   7.304  2.1307 -1.1553  2.3533
  118SOPE  H11B12401   3.666   4.374   7.269 -0.8868  1.0751  3.2588
  118SOPE     P12402   3.418   4.288   7.138  0.0026 -0.3650 -0.2371
  118SOPE   O1312403   3.294   4.362   7.163  0.1713 -0.3811  0.4528
  118SOPE   O1412404   3.463   4.196   7.242 -0.0051  0.1272 -0.1648
  118SOPE   O1212405   3.527   4.402   7.115  0.5587  0.3020 -0.2580
  118SOPE   O1112406   3.406   4.217   6.992 -0.2791  0.1294 -0.0869
  118SOPE    C112407   3.520   4.198   6.910  0.6164  0.8053  0.3127
  118SOPE    HA12408   3.505   4.101   6.859 -1.7899  1.7907 -0.9912
  118SOPE    HB12409   3.616   4.189   6.966  0.8900 -0.8617 -0.3712
  118SOPE    C212410   3.535   4.310   6.800  0.3716  0.5656  0.0012
  118SOPE    HS12411   3.540   4.402   6.862  0.5747  0.0496  0.7748
  118SOPE   O2112412   3.424   4.305   6.710 -0.7241  0.1114  0.0825
  118SOPE   C2112413   3.418   4.409   6.632  0.1641  0.3766  0.1937
  118SOPE   O2212414   3.489   4.510   6.630 -0.0601  0.3257 -0.2518
  118SOPE   C2212415   3.296   4.376   6.546 -0.1683 -0.4344  0.1622
  118SOPE   H2R12416   3.218   4.334   6.614  1.7792 -4.7640  0.0645
  118SOPE   H2S12417   3.322   4.307   6.463 -2.3678  1.6845 -2.4918
  118SOPE    C312418   3.676   4.320   6.737  0.1292 -0.5185  0.3391
  118SOPE    HX12419   3.735   4.358   6.823 -0.6389  0.2143  0.5626
  118SOPE    HY12420   3.687   4.401   6.662 -1.2392 -0.0511  0.6203
  118SOPE   O3112421   3.730   4.193   6.687  0.2765 -0.2584 -0.6613
  118SOPE   C3112422   3.700   4.148   6.569 -0.7504  0.0354 -0.7570
  118SOPE   O3212423   3.652   4.211   6.480  0.7824 -0.3177  0.1240
  118SOPE   C3212424   3.727   4.001   6.563 -0.0380  0.4250  0.5045
  118SOPE   H2X12425   3.663   3.953   6.640  1.6447 -3.4464 -0.2525
  118SOPE   H2Y12426   3.833   3.981   6.587 -0.4237 -0.8631  1.2432
  118SOPE   C2312427   3.240   4.508   6.480 -0.3273  0.6104  0.4005
  118SOPE   H3R12428   3.224   4.597   6.546 -1.0977 -0.1942  1.3358
  118SOPE   H3S12429   3.137   4.475   6.452  0.2197 -0.3872 -0.4869
  118SOPE   C2412430   3.318   4.542   6.351  0.2070  0.9879 -0.3704
  118SOPE   H4R12431   3.398   4.468   6.328 -0.8512 -0.9208  1.6316
  118SOPE   H4S12432   3.241   4.550   6.271  1.8024  0.9999 -1.9690
  118SOPE   C2512433   3.368   4.687   6.354 -0.0202  0.2204  0.3290
  118SOPE   H5R12434   3.274   4.738   6.385 -0.3521 -1.5251  2.4723
  118SOPE   H5S12435   3.446   4.696   6.433  0.4384 -2.2289  0.2324
  118SOPE   C2612436   3.422   4.733   6.215 -0.1293 -0.1695 -0.3695
  118SOPE   H6R12437   3.503   4.669   6.176 -0.6624  0.1182 -2.0268
  118SOPE   H6S12438   3.348   4.704   6.137  0.3193 -2.3332 -0.0603
  118SOPE   C2712439   3.468   4.882   6.203  0.1707  0.6106 -0.5712
  118SOPE   H7R12440   3.378   4.938   6.237  1.6843  2.0681  1.2873
  118SOPE   H7S12441   3.550   4.902   6.275  0.0172 -3.3156  0.8969
  118SOPE   C2812442   3.500   4.925   6.061 -0.3302  0.1045 -0.6643
  118SOPE   H8R12443   3.408   4.909   6.000 -0.8317  2.0741 -0.4851
  118SOPE   H8S12444   3.524   5.033   6.059 -1.8220  0.4511 -2.1589
  118SOPE   C2912445   3.620   4.853   6.007  0.1733  0.4151  0.0033
  118SOPE   H9112446   3.692   4.821   6.083 -1.8492 -3.7579  0.4258
  118SOPE  C21012447   3.650   4.857   5.871  0.4458 -0.1292  0.1070
  118SOPE  H10112448   3.747   4.819   5.836 -0.4955 -2.2819 -0.3246
  118SOPE  C21112449   3.559   4.912   5.764 -0.9050 -0.6815  0.3229
  118SOPE  H11R12450   3.551   5.023   5.771 -1.3822 -0.8041  2.8258
  118SOPE  H11S12451   3.455   4.872   5.761 -0.8785 -0.6785 -1.7045
  118SOPE  C21212452   3.628   4.880   5.635  0.5613  0.0619  1.1413
  118SOPE  H12R12453   3.639   4.771   5.619 -2.3732 -0.1159 -0.3434
  118SOPE  H12S12454   3.723   4.938   5.628  0.9360 -0.7048 -0.9248
  118SOPE  C21312455   3.543   4.914   5.514  0.1590 -0.2691 -0.1577
  118SOPE  H13R12456   3.525   5.023   5.515  1.2030 -0.0422 -1.7395
  118SOPE  H13S12457   3.446   4.860   5.507 -0.2423 -0.0280  2.5188
  118SOPE  C21412458   3.613   4.883   5.376 -0.5657  0.3437  0.1843
  118SOPE  H14R12459   3.624   4.773   5.384 -2.3701  0.0178 -1.3407
  118SOPE  H14S12460   3.715   4.928   5.379 -0.0807 -0.7875  1.5555
  118SOPE  C21512461   3.533   4.912   5.252  0.4687  0.3722 -0.3976
  118SOPE  H15R12462   3.492   5.015   5.259  0.1044  0.1663  0.6399
  118SOPE  H15S12463   3.446   4.844   5.266  0.8483  0.1479  1.0236
  118SOPE  C21612464   3.609   4.887   5.118  0.1967  0.0774  0.5164
  118SOPE  H16R12465   3.531   4.893   5.039 -0.8210 -1.0255  1.4130
  118SOPE  H16S12466   3.645   4.782   5.124  0.5538  0.0241 -1.5960
  118SOPE  C21712467   3.712   4.995   5.092 -0.8479 -0.6008  0.6016
  118SOPE  H17R12468   3.775   4.972   5.004  0.1132  0.8927  0.8712
  118SOPE  H17S12469   3.786   5.000   5.175 -1.4208  4.5085  1.1501
  118SOPE  C21812470   3.653   5.144   5.079 -0.2696  0.6800  0.0200
  118SOPE  H18R12471   3.605   5.171   5.175 -1.6085  0.5285 -0.5869
  118SOPE  H18S12472   3.568   5.139   5.008  0.2807  0.3556 -0.6266
  118SOPE  H18T12473   3.730   5.219   5.050  0.8996  0.6595  2.7900
  118SOPE   C3312474   3.705   3.932   6.425  0.7876  0.1728 -0.4953
  118SOPE   H3X12475   3.601   3.949   6.390 -0.3008  0.2616  2.5601
  118SOPE   H3Y12476   3.728   3.824   6.432 -2.8461 -0.6628  0.5722
  118SOPE   C3412477   3.791   3.987   6.316  0.4788  0.1300  0.2971
  118SOPE   H4X12478   3.896   3.960   6.338  0.1375 -1.1862  0.4213
  118SOPE   H4Y12479   3.795   4.098   6.308  1.0608  0.1556  0.8841
  118SOPE   C3512480   3.776   3.921   6.172  0.2193  0.1524 -0.2943
  118SOPE   H5X12481   3.668   3.919   6.149  0.2275  1.0522 -0.4130
  118SOPE   H5Y12482   3.821   3.819   6.168  0.6904  0.4011 -2.6144
  118SOPE   C3612483   3.854   4.004   6.065  1.0654  0.7207  0.6435
  118SOPE   H6X12484   3.956   4.034   6.098  1.7846 -2.6996  1.9139
  118SOPE   H6Y12485   3.794   4.097   6.054 -0.2258 -0.1603  0.0432
  118SOPE   C3712486   3.842   3.937   5.924 -0.2745 -0.4018 -0.2327
  118SOPE   H7X12487   3.732   3.924   5.908 -0.0033 -1.8093 -1.0614
  118SOPE   H7Y12488   3.894   3.841   5.941  0.1433  0.1087  1.4871
  118SOPE   C3812489   3.907   4.028   5.824 -0.5135  0.1359 -0.1888
  118SOPE   H8X12490   4.013   4.040   5.854 -1.2266  1.3331  2.1431
  118SOPE   H8Y12491   3.854   4.124   5.842 -0.8831 -0.5216  2.7174
  118SOPE   C3912492   3.903   3.976   5.681  0.0572  0.0433  0.5370
  118SOPE   H9X12493   3.804   4.003   5.638  0.3487  2.8083  1.4045
  118SOPE   H9Y12494   3.914   3.865   5.674 -0.0553  0.0412  0.4030
  118SOPE  C31012495   3.992   4.057   5.583  0.1351  0.0818 -0.1904
  118SOPE  H10X12496   4.097   4.079   5.610 -0.0027  0.1496  0.3117
  118SOPE  H10Y12497   3.954   4.161   5.593 -2.5351 -0.9140  1.1377
  118SOPE  C31112498   3.979   4.011   5.435  0.3897  0.2627  0.0031
  118SOPE  H11X12499   3.873   4.012   5.399  0.1229 -2.8872  0.3483
  118SOPE  H11Y12500   4.011   3.904   5.432 -0.8080 -0.3654  3.8125
  118SOPE  C31212501   4.071   4.089   5.347 -0.1619 -0.0900  0.0625
  118SOPE  H12X12502   4.172   4.072   5.388 -0.1680  0.8049  0.4713
  118SOPE  H12Y12503   4.035   4.194   5.353  0.7390  0.1362  3.2451
  118SOPE  C31312504   4.064   4.050   5.199  0.2667  0.4796 -0.2270
  118SOPE  H13X12505   3.959   4.022   5.177  0.9142 -0.1077 -2.9764
  118SOPE  H13Y12506   4.105   3.949   5.179 -1.6236 -0.4807  0.5488
  118SOPE  C31412507   4.118   4.152   5.100 -0.0970  0.2716 -0.1856
  118SOPE  H14X12508   4.228   4.147   5.118 -0.2122  0.1367  0.4832
  118SOPE  H14Y12509   4.079   4.256   5.102  0.4564  0.4871 -0.4634
  118SOPE  C31512510   4.094   4.097   4.960 -0.3418  0.8128  0.2737
  118SOPE  H15X12511   4.000   4.037   4.961 -0.1096  0.3612 -1.7164
  118SOPE  H15Y12512   4.171   4.027   4.923  1.5504  3.0870 -0.2967
  118SOPE  C31612513   4.063   4.201   4.850  0.5406 -0.2413  0.2401
  118SOPE  H16X12514   4.155   4.257   4.825 -0.1791  1.5050  1.3032
  118SOPE  H16Y12515   3.994   4.276   4.895  0.8794 -0.3907  1.0258
  118SOPE  C31712516   4.005   4.149   4.722  0.1418 -0.4964 -0.2673
  118SOPE  H17X12517   3.915   4.093   4.756 -1.5202  2.3974  0.4394
  118SOPE  H17Y12518   4.077   4.075   4.683  0.1223 -1.0487  0.7026
  118SOPE  C31812519   3.959   4.251   4.625  0.1430 -0.0255  0.4561
  118SOPE  H18X12520   3.938   4.199   4.529  0.8602  1.2492 -0.4312
  118SOPE  H18Y12521   4.032   4.330   4.596  1.0080 -0.8621  0.3001
  118SOPE  H18Z12522   3.862   4.302   4.645 -0.8597 -0.0052 -3.5925
  119SOPE     N12523   4.059   3.390   7.438  0.0041 -0.1814  0.5103
  119SOPE   HN112524   4.135   3.434   7.495 -2.6191  2.8546  1.9957
  119SOPE   HN212525   4.079   3.290   7.416  2.7364  0.5029 -0.5305
  119SOPE   HN312526   4.053   3.430   7.342  0.6944 -0.0163  0.5329
  119SOPE   C1212527   3.934   3.407   7.520 -0.4370 -0.2278  0.1505
  119SOPE  H12A12528   3.936   3.500   7.582 -0.3702 -1.6306  2.3701
  119SOPE  H12B12529   3.927   3.317   7.585 -2.4732  0.6197  1.2344
  119SOPE   C1112530   3.804   3.414   7.431  0.6865 -0.4997  0.1599
  119SOPE  H11A12531   3.805   3.508   7.373  2.5524  0.0241  0.9722
  119SOPE  H11B12532   3.711   3.414   7.492 -0.1148 -3.3909 -0.8490
  119SOPE     P12533   3.692   3.193   7.338  0.4430 -0.2143  0.0537
  119SOPE   O1312534   3.565   3.271   7.329 -0.4724  0.4460 -0.2040
  119SOPE   O1412535   3.706   3.113   7.463 -0.5868 -0.1241  0.3069
  119SOPE   O1212536   3.799   3.304   7.335  0.1898  0.2011  0.3749
  119SOPE   O1112537   3.718   3.115   7.205  0.3629  0.3546 -0.9943
  119SOPE    C112538   3.851   3.065   7.193 -0.0785 -0.2062  0.3678
  119SOPE    HA12539   3.873   2.987   7.269  1.2608 -1.1559 -0.9220
  119SOPE    HB12540   3.922   3.151   7.188  0.7875 -0.9190  0.0836
  119SOPE    C212541   3.874   2.990   7.058 -0.2586  0.5745  0.5665
  119SOPE    HS12542   3.977   2.952   7.077 -0.3755 -1.2037 -1.8672
  119SOPE   O2112543   3.865   3.069   6.943  0.3178  0.1525  0.2472
  119SOPE   C2112544   3.969   3.139   6.916  0.5658 -0.1866  0.5873
  119SOPE   O2212545   4.073   3.141   6.979  0.0056  0.1575 -0.0495
  119SOPE   C2212546   3.954   3.227   6.794 -0.2085 -0.0883 -0.0242
  119SOPE   H2R12547   4.009   3.323   6.803 -0.2824 -0.0255 -0.2485
  119SOPE   H2S12548   3.848   3.247   6.767 -0.0166 -1.3494 -1.9574
  119SOPE    C312549   3.774   2.870   7.042  0.9230 -0.0386 -0.4643
  119SOPE    HX12550   3.679   2.924   7.064  0.1372 -1.1819 -0.9108
  119SOPE    HY12551   3.787   2.791   7.120  0.9071  0.5720  0.1627
  119SOPE   O3112552   3.763   2.805   6.913  0.0126 -0.1131 -0.0744
  119SOPE   C3112553   3.873   2.736   6.872 -0.0558 -0.2832  0.5023
  119SOPE   O3212554   3.975   2.727   6.937  0.2532 -0.0928  0.1473
  119SOPE   C3212555   3.858   2.658   6.740 -0.2663  0.1763 -0.2809
  119SOPE   H2X12556   3.759   2.694   6.703 -0.3531  0.1218 -0.1055
  119SOPE   H2Y12557   3.860   2.553   6.777 -1.5655 -0.0302 -0.7133
  119SOPE   C2312558   4.012   3.162   6.669 -0.7536 -0.7348  0.0678
  119SOPE   H3R12559   3.983   3.055   6.672  0.3974 -1.0397  0.9335
  119SOPE   H3S12560   4.123   3.168   6.669 -0.7558 -0.6794 -0.1832
  119SOPE   C2412561   3.968   3.235   6.534 -1.3944  0.2977 -0.2668
  119SOPE   H4R12562   3.870   3.286   6.544 -1.8076 -0.6575  0.7191
  119SOPE   H4S12563   4.032   3.325   6.519 -3.7733  1.7387 -2.3772
  119SOPE   C2512564   3.981   3.137   6.417 -0.3960 -0.2629 -0.1583
  119SOPE   H5R12565   3.980   3.196   6.323  1.2259  2.0641  1.1746
  119SOPE   H5S12566   4.081   3.089   6.415 -0.8394 -1.2563 -2.8990
  119SOPE   C2612567   3.874   3.031   6.409  0.8294  0.0356  0.0735
  119SOPE   H6R12568   3.852   2.981   6.506  0.1526  1.3672  0.6261
  119SOPE   H6S12569   3.782   3.086   6.380  1.7709 -0.4463 -4.8353
  119SOPE   C2712570   3.902   2.927   6.304 -0.5679  0.6758 -0.5853
  119SOPE   H7R12571   4.000   2.878   6.324 -0.8075  0.2702 -0.3903
  119SOPE   H7S12572   3.825   2.847   6.301  0.0574  0.0708 -0.8391
  119SOPE   C2812573   3.917   2.985   6.165 -0.1901  0.4681  0.1005
  119SOPE   H8R12574   3.814   3.020   6.141 -1.0255 -1.5010  0.6324
  119SOPE   H8S12575   3.996   3.062   6.153 -0.9583  1.2442 -0.0354
  119SOPE   C2912576   3.946   2.870   6.068 -0.8427 -0.0685 -0.3199
  119SOPE   H9112577   3.998   2.783   6.112  0.8836  1.3902  0.6715
  119SOPE  C21012578   3.921   2.875   5.939 -0.5820  0.2651 -0.3209
  119SOPE  H10112579   3.933   2.774   5.896  0.8665 -0.0360  0.7283
  119SOPE  C21112580   3.859   2.971   5.850  0.0992  0.4821  0.0675
  119SOPE  H11R12581   3.820   3.054   5.913 -0.2892 -0.7796  1.5576
  119SOPE  H11S12582   3.766   2.930   5.804  0.0564  1.1800 -0.4876
  119SOPE  C21212583   3.950   3.043   5.746  0.0431  0.2266 -0.7171
  119SOPE  H12R12584   4.026   2.977   5.699  1.0703 -0.1251  1.3289
  119SOPE  H12S12585   4.018   3.111   5.800  0.4051 -1.3712  0.9393
  119SOPE  C21312586   3.870   3.110   5.637 -0.2983  0.0774 -0.1144
  119SOPE  H13R12587   3.932   3.191   5.594 -1.1718  0.2474 -1.0905
  119SOPE  H13S12588   3.782   3.164   5.678  0.4122  0.0677  1.4920
  119SOPE  C21412589   3.830   3.018   5.522  0.6784 -0.3379  0.6383
  119SOPE  H14R12590   3.767   2.941   5.571  1.2940  0.2375  2.4548
  119SOPE  H14S12591   3.922   2.968   5.483 -1.4137 -0.4969 -4.9210
  119SOPE  C21512592   3.759   3.095   5.405  0.0114 -0.2068 -0.5792
  119SOPE  H15R12593   3.702   3.178   5.454  0.9497 -0.1517  0.4482
  119SOPE  H15S12594   3.691   3.029   5.347  0.6163  0.6585 -2.3363
  119SOPE  C21612595   3.858   3.151   5.310  0.2888 -0.2785 -0.4583
  119SOPE  H16R12596   3.932   3.068   5.302  0.9682  0.3714 -0.9819
  119SOPE  H16S12597   3.915   3.238   5.349  1.1206 -0.4727 -1.2066
  119SOPE  C21712598   3.790   3.193   5.180  0.8233  0.6997  0.8863
  119SOPE  H17R12599   3.752   3.100   5.132  1.3683  0.8988  0.0330
  119SOPE  H17S12600   3.873   3.233   5.118  0.1628 -2.6725 -2.5608
  119SOPE  C21812601   3.679   3.298   5.189 -0.2897  0.1826 -0.3399
  119SOPE  H18R12602   3.733   3.387   5.228  0.5201 -0.1162 -0.7362
  119SOPE  H18S12603   3.601   3.251   5.253  0.1890 -0.2695 -0.0701
  119SOPE  H18T12604   3.632   3.319   5.092 -1.8464  0.4744  0.4514
  119SOPE   C3312605   3.955   2.677   6.624 -0.3908 -0.0540 -0.3581
  119SOPE   H3X12606   4.058   2.655   6.659  0.3274  1.3747 -1.4544
  119SOPE   H3Y12607   3.951   2.781   6.585 -0.6570  0.0105 -0.1638
  119SOPE   C3412608   3.939   2.572   6.517  0.8698 -0.0475 -0.0065
  119SOPE   H4X12609   3.925   2.476   6.571  2.4562 -0.3701 -0.1103
  119SOPE   H4Y12610   4.031   2.550   6.459  0.3081  3.0985 -2.3740
  119SOPE   C3512611   3.813   2.596   6.432  0.4289 -0.2959  0.3055
  119SOPE   H5X12612   3.838   2.678   6.362 -3.6801  0.4043 -0.5599
  119SOPE   H5Y12613   3.737   2.634   6.504  1.3564  0.6083  0.8366
  119SOPE   C3612614   3.776   2.476   6.337  0.2957 -0.5771 -0.7059
  119SOPE   H6X12615   3.741   2.394   6.403  0.5565  0.9474  1.4244
  119SOPE   H6Y12616   3.861   2.435   6.279  1.7856  1.9521 -0.4457
  119SOPE   C3712617   3.669   2.506   6.234 -0.5407  0.3018 -0.0480
  119SOPE   H7X12618   3.606   2.594   6.261 -2.1014 -0.3346 -1.3744
  119SOPE   H7Y12619   3.601   2.420   6.218 -2.2923  1.3137  1.4938
  119SOPE   C3812620   3.718   2.523   6.086 -0.2879 -0.4205  0.3928
  119SOPE   H8X12621   3.777   2.437   6.049  0.5968 -0.6894  2.3108
  119SOPE   H8Y12622   3.776   2.618   6.097 -0.8852 -0.0835  0.7167
  119SOPE   C3912623   3.599   2.551   5.984 -0.3935 -0.2370  1.3255
  119SOPE   H9X12624   3.539   2.632   6.031 -0.5072  0.4001  0.0976
  119SOPE   H9Y12625   3.537   2.460   5.968  1.4035 -1.0448 -1.5969
  119SOPE  C31012626   3.655   2.596   5.848 -0.2289 -0.1875  0.7137
  119SOPE  H10X12627   3.711   2.523   5.786 -0.5904  0.0721  0.0768
  119SOPE  H10Y12628   3.717   2.688   5.853  1.1281 -0.8936 -1.7916
  119SOPE  C31112629   3.536   2.649   5.769 -0.1156 -0.4331  0.8526
  119SOPE  H11X12630   3.511   2.743   5.823  1.8499 -0.5764  2.1016
  119SOPE  H11Y12631   3.458   2.570   5.770 -1.3773  0.6822 -1.8196
  119SOPE  C31212632   3.564   2.682   5.624  0.3358 -0.1238 -0.2344
  119SOPE  H12X12633   3.616   2.593   5.584  1.1639 -0.4507  1.4514
  119SOPE  H12Y12634   3.629   2.770   5.610 -1.7754  1.4752 -0.4902
  119SOPE  C31312635   3.430   2.680   5.543  0.6145 -0.0739  0.5220
  119SOPE  H13X12636   3.378   2.768   5.585 -1.1249 -0.9182  0.2459
  119SOPE  H13Y12637   3.377   2.586   5.567 -1.0284  0.9550  1.0692
  119SOPE  C31412638   3.460   2.704   5.395  0.1681 -0.2220  0.3615
  119SOPE  H14X12639   3.482   2.607   5.344 -1.5560  0.0813 -1.0629
  119SOPE  H14Y12640   3.546   2.772   5.378 -0.1122 -0.2155 -1.1816
  119SOPE  C31512641   3.339   2.760   5.321 -0.1543  0.1206 -0.2294
  119SOPE  H15X12642   3.296   2.827   5.398 -0.1550 -0.4143  0.2462
  119SOPE  H15Y12643   3.254   2.690   5.305 -0.5657  0.3442  0.9040
  119SOPE  C31612644   3.372   2.836   5.192 -0.6102 -0.2231  0.2776
  119SOPE  H16X12645   3.430   2.927   5.220 -1.4029  0.3479  0.0926
  119SOPE  H16Y12646   3.278   2.867   5.143 -1.1254 -0.7254  0.9340
  119SOPE  C31712647   3.460   2.764   5.088  0.3054  0.8227  0.6498
  119SOPE  H17X12648   3.552   2.732   5.140  0.7021  2.6235  1.1203
  119SOPE  H17Y12649   3.479   2.832   5.003 -0.2488  0.3502  0.1393
  119SOPE  C31812650   3.401   2.640   5.024  0.6306  0.4607  0.0693
  119SOPE  H18X12651   3.446   2.607   4.928  1.1288 -1.8159  1.0139
  119SOPE  H18Y12652   3.291   2.650   5.008  0.0732 -2.0076  1.7737
  119SOPE  H18Z12653   3.406   2.555   5.095  2.1791  0.6104  0.1757
  120SOPE     N12654   6.164   6.208   6.738  0.2925 -0.3520  0.2586
  120SOPE   HN112655   6.225   6.165   6.810 -1.0874 -1.2451  0.9490
  120SOPE   HN212656   6.093   6.137   6.711  0.5594 -0.5794  0.1645
  120SOPE   HN312657   6.222   6.232   6.655 -0.4860  1.9640  0.2868
  120SOPE   C1212658   6.094   6.332   6.785  0.5910 -0.2949  0.0360
  120SOPE  H12A12659   6.040   6.374   6.697  0.5720 -0.0295  0.1728
  120SOPE  H12B12660   6.175   6.403   6.812 -0.1928  0.3012  0.9093
  120SOPE   C1112661   6.004   6.319   6.914  0.2317  0.2781  0.0097
  120SOPE  H11A12662   5.983   6.421   6.952 -1.1570  0.0491 -0.0723
  120SOPE  H11B12663   6.062   6.272   6.996  0.0426 -0.4443 -0.2635
  120SOPE     P12664   5.741   6.280   6.938 -0.0379 -0.2052 -0.2923
  120SOPE   O1312665   5.726   6.428   6.942 -0.6489 -0.1306  0.0903
  120SOPE   O1412666   5.711   6.202   7.060 -0.4015 -0.1775  0.2063
  120SOPE   O1212667   5.881   6.246   6.889  0.0267 -0.5778 -0.0599
  120SOPE   O1112668   5.655   6.224   6.820  0.5645 -0.0209  0.0936
  120SOPE    C112669   5.583   6.314   6.733 -0.6536  0.1166 -0.1913
  120SOPE    HA12670   5.587   6.424   6.750 -0.3631 -0.1212  1.4159
  120SOPE    HB12671   5.477   6.281   6.738 -0.1421 -1.4975  1.2394
  120SOPE    C212672   5.637   6.305   6.586  0.3811 -0.5278 -0.5247
  120SOPE    HS12673   5.554   6.342   6.522 -1.4053 -2.4514  0.5475
  120SOPE   O2112674   5.678   6.173   6.548  0.5712 -0.3112 -0.4395
  120SOPE   C2112675   5.579   6.098   6.501  0.1800  0.1932  0.1081
  120SOPE   O2212676   5.471   6.145   6.463 -0.5603 -0.4414 -0.4005
  120SOPE   C2212677   5.609   5.949   6.498 -0.3905 -0.4965 -0.5443
  120SOPE   H2R12678   5.541   5.906   6.574 -1.3271  1.0011 -0.5022
  120SOPE   H2S12679   5.713   5.921   6.528  0.1056  0.5878 -1.1692
  120SOPE    C312680   5.759   6.400   6.570  0.8034 -0.6205 -0.1477
  120SOPE    HX12681   5.838   6.357   6.636  2.6441  2.0538 -0.4625
  120SOPE    HY12682   5.744   6.505   6.604  2.1706 -0.7716  1.0450
  120SOPE   O3112683   5.803   6.409   6.438  0.1233 -0.5153  0.3584
  120SOPE   C3112684   5.905   6.349   6.396 -0.3642  0.0807  0.3182
  120SOPE   O3212685   5.971   6.264   6.454  0.2511  0.1220  0.4408
  120SOPE   C3212686   5.919   6.385   6.252 -0.3451  0.1052 -0.0662
  120SOPE   H2X12687   5.821   6.418   6.212 -0.1422  0.6703 -0.1054
  120SOPE   H2Y12688   5.946   6.292   6.198 -0.0176  0.8190 -1.1674
  120SOPE   C2312689   5.580   5.892   6.356 -0.4145  0.0080  0.4247
  120SOPE   H3R12690   5.504   5.944   6.294  0.5392 -1.1744 -1.8348
  120SOPE   H3S12691   5.525   5.797   6.373 -1.1499 -0.0216 -1.8187
  120SOPE   C2412692   5.695   5.880   6.258 -0.1220  0.3147 -0.6622
  120SOPE   H4R12693   5.739   5.976   6.223 -0.7030  0.6235 -0.5582
  120SOPE   H4S12694   5.779   5.812   6.284 -1.9334 -2.6196 -1.8496
  120SOPE   C2512695   5.648   5.821   6.116  0.1880 -0.4728 -0.4295
  120SOPE   H5R12696   5.593   5.726   6.134 -0.5741 -0.3049 -1.6803
  120SOPE   H5S12697   5.577   5.886   6.060  0.7527 -0.6531 -1.3908
  120SOPE   C2612698   5.755   5.801   6.009 -0.2531 -0.4897 -0.3855
  120SOPE   H6R12699   5.787   5.899   5.968  1.7451 -1.2347 -0.7315
  120SOPE   H6S12700   5.848   5.749   6.041 -0.4914  0.1192  1.4103
  120SOPE   C2712701   5.715   5.704   5.895 -0.1409 -0.2357 -0.8271
  120SOPE   H7R12702   5.813   5.700   5.843  2.0928  1.9584  2.7785
  120SOPE   H7S12703   5.687   5.606   5.941 -0.9001  0.2542 -0.2177
  120SOPE   C2812704   5.594   5.748   5.805 -0.1752 -0.4324  0.1659
  120SOPE   H8R12705   5.510   5.758   5.877  1.2441 -0.1835  1.8481
  120SOPE   H8S12706   5.603   5.842   5.746  0.7970 -2.5007 -3.2408
  120SOPE   C2912707   5.565   5.636   5.705  0.4118 -0.0101  0.0694
  120SOPE   H9112708   5.555   5.536   5.750  0.5429 -0.5310 -1.0160
  120SOPE  C21012709   5.533   5.657   5.574 -0.3342  0.3267  0.0856
  120SOPE  H10112710   5.509   5.571   5.509 -0.9300  1.6088 -1.4644
  120SOPE  C21112711   5.524   5.793   5.504 -0.2661 -0.1953  0.5835
  120SOPE  H11R12712   5.520   5.878   5.575  2.8314 -0.4288  1.1700
  120SOPE  H11S12713   5.436   5.795   5.436  1.6433  0.5505 -2.0437
  120SOPE  C21212714   5.652   5.836   5.408  0.0781  0.1645 -0.2697
  120SOPE  H12R12715   5.750   5.832   5.460  0.5419 -2.7237 -1.1622
  120SOPE  H12S12716   5.632   5.942   5.382  2.1584  1.2600  2.1967
  120SOPE  C21312717   5.650   5.749   5.282 -0.3814 -0.5811  0.9635
  120SOPE  H13R12718   5.545   5.743   5.248  0.3921  0.9011 -2.1016
  120SOPE  H13S12719   5.688   5.647   5.304 -0.2319 -0.6586  0.3521
  120SOPE  C21412720   5.733   5.810   5.167  0.0780 -0.3259 -0.0159
  120SOPE  H14R12721   5.834   5.839   5.201  0.7779 -0.8811 -1.5513
  120SOPE  H14S12722   5.688   5.910   5.147  0.3436 -0.0630  0.6766
  120SOPE  C21512723   5.748   5.736   5.029  0.7438  0.0067  0.3317
  120SOPE  H15R12724   5.774   5.816   4.956 -3.1630  1.2592  0.1140
  120SOPE  H15S12725   5.644   5.704   5.007  1.1189 -2.8612  2.1284
  120SOPE  C21612726   5.828   5.604   5.027 -0.1423  0.3985  0.1577
  120SOPE  H16R12727   5.770   5.548   5.103 -1.6806  2.1478  0.3501
  120SOPE  H16S12728   5.927   5.631   5.070 -0.9638  0.9797  1.7622
  120SOPE  C21712729   5.839   5.541   4.887 -0.1310  0.3145 -0.4056
  120SOPE  H17R12730   5.903   5.600   4.818 -1.3376  0.8052 -1.1485
  120SOPE  H17S12731   5.734   5.542   4.849  0.2308 -1.8024 -1.6471
  120SOPE  C21812732   5.874   5.389   4.891  0.4753 -0.0938  0.4406
  120SOPE  H18R12733   5.830   5.338   4.980 -2.3327  1.4412  0.0583
  120SOPE  H18S12734   5.982   5.368   4.903  0.7809  0.4919 -1.0916
  120SOPE  H18T12735   5.864   5.340   4.792  2.9295  0.8940 -0.3756
  120SOPE   C3312736   6.029   6.484   6.210 -0.4512 -0.1479 -0.6263
  120SOPE   H3X12737   6.114   6.456   6.276  0.5948  1.2731 -1.3132
  120SOPE   H3Y12738   5.995   6.585   6.240 -1.0036 -0.7929  1.0268
  120SOPE   C3412739   6.068   6.475   6.065 -0.7666  0.1795  0.4693
  120SOPE   H4X12740   5.975   6.501   6.011 -1.0751 -0.8894  0.4764
  120SOPE   H4Y12741   6.097   6.369   6.049 -0.1855 -0.2718  3.8593
  120SOPE   C3512742   6.172   6.573   6.020 -0.4454 -0.3366 -0.1384
  120SOPE   H5X12743   6.269   6.570   6.075  0.6154  2.3874 -1.6362
  120SOPE   H5Y12744   6.144   6.679   6.035  0.7348  0.2052 -1.5030
  120SOPE   C3612745   6.215   6.540   5.878  0.4977  0.6426 -0.1037
  120SOPE   H6X12746   6.264   6.440   5.872 -1.5560 -0.3700 -1.2082
  120SOPE   H6Y12747   6.299   6.603   5.842  1.6086 -1.4795 -1.4328
  120SOPE   C3712748   6.110   6.539   5.768 -0.4519  0.5591  0.2713
  120SOPE   H7X12749   6.086   6.647   5.762  0.7662  0.8298  0.0365
  120SOPE   H7Y12750   6.018   6.478   5.785 -1.3137  1.4104 -1.1789
  120SOPE   C3812751   6.183   6.494   5.640 -0.2839  0.0936  0.3760
  120SOPE   H8X12752   6.210   6.388   5.656  3.1565  1.0907  2.0491
  120SOPE   H8Y12753   6.265   6.568   5.633 -0.6710  0.6592  1.5079
  120SOPE   C3912754   6.108   6.507   5.507 -0.2191  0.1791  0.4167
  120SOPE   H9X12755   6.027   6.432   5.494 -0.2201 -0.0819  1.7353
  120SOPE   H9Y12756   6.185   6.484   5.431  0.5834  1.1504  0.9078
  120SOPE  C31012757   6.050   6.639   5.475 -0.3933  0.5626  0.2662
  120SOPE  H10X12758   6.132   6.714   5.474  0.0719  0.0618  0.6782
  120SOPE  H10Y12759   5.984   6.670   5.559  0.9732  2.2366  0.7794
  120SOPE  C31112760   5.976   6.642   5.340  0.4311 -0.0361 -0.2426
  120SOPE  H11X12761   5.936   6.744   5.324 -1.1116 -0.4284  0.8264
  120SOPE  H11Y12762   5.887   6.575   5.348  0.0288  0.7385  5.3494
  120SOPE  C31212763   6.063   6.598   5.223  0.7186 -0.2551  0.3334
  120SOPE  H12X12764   6.101   6.493   5.230  0.5729 -0.4284 -1.1464
  120SOPE  H12Y12765   6.162   6.648   5.231  1.1560 -1.1447  0.7152
  120SOPE  C31312766   6.006   6.624   5.084  0.2576 -0.5321  0.0741
  120SOPE  H13X12767   5.965   6.726   5.097 -1.4069 -1.4092  2.5954
  120SOPE  H13Y12768   5.914   6.565   5.065 -0.2991  0.0072  1.0261
  120SOPE  C31412769   6.101   6.621   4.967 -0.2197  0.4454 -0.0618
  120SOPE  H14X12770   6.144   6.519   4.960 -0.3624  0.4980 -2.5585
  120SOPE  H14Y12771   6.188   6.686   4.991 -1.5505  2.7708 -1.1417
  120SOPE  C31512772   6.037   6.664   4.832 -0.0964  0.1822 -0.3181
  120SOPE  H15X12773   5.987   6.762   4.844  0.0416  0.2872 -0.5973
  120SOPE  H15Y12774   5.965   6.585   4.801  0.4489 -0.7344  0.6727
  120SOPE  C31612775   6.139   6.685   4.715 -0.4999  0.4374 -0.2141
  120SOPE  H16X12776   6.204   6.595   4.713 -0.5475  0.3577  0.9917
  120SOPE  H16Y12777   6.211   6.768   4.732  1.1274 -1.0663  0.6191
  120SOPE  C31712778   6.066   6.718   4.582 -0.3123  0.1198  0.1829
  120SOPE  H17X12779   5.981   6.647   4.578 -0.6161  0.4743  0.2491
  120SOPE  H17Y12780   6.134   6.701   4.497  1.3718  0.1355  1.4683
  120SOPE  C31812781   6.018   6.866   4.575  0.0137 -0.2050 -0.3367
  120SOPE  H18X12782   6.001   6.912   4.675  1.2599 -0.2309 -0.0941
  120SOPE  H18Y12783   5.936   6.889   4.504 -0.6720  1.5980  0.9305
  120SOPE  H18Z12784   6.108   6.917   4.533  0.5937 -2.1349 -1.5324
  121SOPE     N12785   5.545   3.331   6.794  0.0999 -0.1238 -0.0682
  121SOPE   HN112786   5.521   3.419   6.744 -1.2194 -1.2219 -1.4628
  121SOPE   HN212787   5.462   3.271   6.776 -0.1858  0.4512 -0.6859
  121SOPE   HN312788   5.562   3.350   6.895 -1.2388 -3.7241  0.9804
  121SOPE   C1212789   5.688   3.275   6.756 -0.5296  0.0427  0.1444
  121SOPE  H12A12790   5.677   3.271   6.645 -0.3256  1.3834  0.0574
  121SOPE  H12B12791   5.694   3.173   6.799  0.6317  0.1818  0.3427
  121SOPE   C1112792   5.800   3.374   6.796 -1.0955  0.7423 -0.2374
  121SOPE  H11A12793   5.872   3.370   6.712 -0.5921  1.6954  0.1222
  121SOPE  H11B12794   5.855   3.330   6.883  0.4654 -2.8896 -2.8113
  121SOPE     P12795   5.802   3.592   6.946 -0.6564 -0.1515 -0.2673
  121SOPE   O1312796   5.949   3.609   6.934 -0.2157  0.7383  0.0342
  121SOPE   O1412797   5.761   3.521   7.072 -0.0117 -0.1502 -0.3058
  121SOPE   O1212798   5.752   3.506   6.829  0.5532  0.7125 -0.1290
  121SOPE   O1112799   5.718   3.733   6.937  0.2143 -0.2127 -0.1709
  121SOPE    C112800   5.579   3.718   6.923 -0.3727  0.3716  0.3669
  121SOPE    HA12801   5.524   3.759   7.010  1.2632  2.2053  0.5971
  121SOPE    HB12802   5.539   3.614   6.916 -2.9706  1.3738 -0.9585
  121SOPE    C212803   5.518   3.792   6.795 -0.0796  0.0936 -0.2674
  121SOPE    HS12804   5.416   3.755   6.771 -0.3798  1.2754 -0.9125
  121SOPE   O2112805   5.601   3.770   6.676 -0.4431  0.5546  0.0987
  121SOPE   C2112806   5.584   3.646   6.618 -0.2604 -0.1433 -0.7183
  121SOPE   O2212807   5.516   3.557   6.666 -0.1877  0.6594 -0.1113
  121SOPE   C2212808   5.651   3.639   6.482  0.3792  0.2947  0.1131
  121SOPE   H2R12809   5.758   3.610   6.489 -0.0001 -0.9959  1.0001
  121SOPE   H2S12810   5.646   3.739   6.436  1.0601 -0.0655 -0.7697
  121SOPE    C312811   5.505   3.949   6.807  0.1917  0.2987 -0.2510
  121SOPE    HX12812   5.606   3.991   6.825 -0.6065  1.1915  2.8125
  121SOPE    HY12813   5.442   3.972   6.895  0.4826  1.6189 -0.3648
  121SOPE   O3112814   5.447   4.008   6.684  0.3845  0.2097 -0.3695
  121SOPE   C3112815   5.314   3.995   6.678 -0.4131 -0.0651 -0.8808
  121SOPE   O3212816   5.237   3.964   6.768 -0.6266 -0.3925  0.7048
  121SOPE   C3212817   5.266   4.051   6.545 -1.2673 -0.0320  0.2512
  121SOPE   H2X12818   5.346   4.032   6.470 -0.5393  1.3531  0.6402
  121SOPE   H2Y12819   5.249   4.157   6.572  1.4219  0.4540  0.3069
  121SOPE   C2312820   5.595   3.529   6.384  0.2870 -0.3060  0.2904
  121SOPE   H3R12821   5.490   3.555   6.358  0.5178 -0.1432 -0.5118
  121SOPE   H3S12822   5.589   3.438   6.447 -0.8484 -0.1417  0.4467
  121SOPE   C2412823   5.676   3.512   6.260 -0.0521 -0.1370  0.8687
  121SOPE   H4R12824   5.674   3.596   6.188 -0.4431 -0.3371  0.6436
  121SOPE   H4S12825   5.785   3.506   6.281 -0.0380  0.4446  0.9561
  121SOPE   C2512826   5.631   3.380   6.190 -0.1295 -0.5906 -0.3479
  121SOPE   H5R12827   5.666   3.292   6.248  2.1702  1.2017  1.1842
  121SOPE   H5S12828   5.520   3.379   6.190 -0.1467 -2.0108 -1.8691
  121SOPE   C2612829   5.687   3.368   6.050 -0.2470  0.4342 -1.1525
  121SOPE   H6R12830   5.657   3.467   6.010 -1.8602  0.2093 -0.5490
  121SOPE   H6S12831   5.798   3.375   6.058 -0.3203  0.7121 -0.2829
  121SOPE   C2712832   5.635   3.243   5.987 -0.3075  0.2630 -0.4928
  121SOPE   H7R12833   5.613   3.162   6.059 -1.1723 -0.0886 -1.1232
  121SOPE   H7S12834   5.530   3.275   5.966 -0.8042  0.6848  2.2517
  121SOPE   C2812835   5.716   3.185   5.871  0.2155 -0.3156  0.2761
  121SOPE   H8R12836   5.716   3.261   5.790  0.4560 -0.8932 -0.2800
  121SOPE   H8S12837   5.819   3.173   5.910  0.3887 -1.5074 -0.4954
  121SOPE   C2912838   5.666   3.050   5.820 -1.0878 -0.1704  0.2172
  121SOPE   H9112839   5.637   2.980   5.900 -1.6817  1.0990  1.1387
  121SOPE  C21012840   5.648   3.022   5.691  0.3277  0.5138  0.0118
  121SOPE  H10112841   5.600   2.927   5.662  0.0413  1.0912 -1.4984
  121SOPE  C21112842   5.665   3.115   5.572 -0.1306  0.2095  0.7641
  121SOPE  H11R12843   5.660   3.224   5.595  1.3756  0.1982  1.2774
  121SOPE  H11S12844   5.588   3.097   5.494  2.0382 -1.0318 -1.2149
  121SOPE  C21212845   5.796   3.079   5.504 -0.2156 -0.1180 -0.4892
  121SOPE  H12R12846   5.880   3.110   5.569 -0.6891  0.7566 -0.2766
  121SOPE  H12S12847   5.800   3.146   5.415  1.2661 -0.0550 -0.3866
  121SOPE  C21312848   5.814   2.934   5.465 -0.0524  0.9398  0.2556
  121SOPE  H13R12849   5.722   2.899   5.415 -0.8244 -0.3236  2.4090
  121SOPE  H13S12850   5.834   2.872   5.556  1.4107 -0.5017 -0.9732
  121SOPE  C21412851   5.941   2.908   5.393 -0.1515  0.1522 -0.0319
  121SOPE  H14R12852   5.971   2.804   5.368  2.4512  0.9794 -0.6872
  121SOPE  H14S12853   6.018   2.936   5.468  0.0003 -0.9712  0.2539
  121SOPE  C21512854   5.958   2.992   5.262 -0.0683 -0.4858 -0.3291
  121SOPE  H15R12855   6.068   2.988   5.247  0.0573  1.0180  0.0165
  121SOPE  H15S12856   5.940   3.098   5.291  0.0787 -1.0676  2.1386
  121SOPE  C21612857   5.880   2.936   5.148  0.2015  0.0297  0.4536
  121SOPE  H16R12858   5.889   3.011   5.067  2.0429  1.5380  1.9357
  121SOPE  H16S12859   5.772   2.925   5.171  0.2636 -1.3193  0.2178
  121SOPE  C21712860   5.932   2.807   5.086 -0.0374  0.0112 -0.1740
  121SOPE  H17R12861   5.947   2.732   5.166  1.5127  1.4009  0.9098
  121SOPE  H17S12862   6.029   2.821   5.034  0.6947  0.3539  1.2346
  121SOPE  C21812863   5.849   2.760   4.966  0.5508  0.0149 -0.3747
  121SOPE  H18R12864   5.745   2.730   4.990  0.8796 -1.7836 -1.0500
  121SOPE  H18S12865   5.897   2.664   4.941  0.2964 -0.8293  2.1261
  121SOPE  H18T12866   5.861   2.831   4.881  1.4616  1.1498  0.6536
  121SOPE   C3312867   5.144   3.974   6.489  0.0310 -0.6651 -0.2600
  121SOPE   H3X12868   5.052   4.012   6.538  0.2743 -2.7021  1.9668
  121SOPE   H3Y12869   5.144   3.869   6.525  0.0909  0.2692  2.7104
  121SOPE   C3412870   5.131   3.976   6.333  0.5624  0.1021  0.1234
  121SOPE   H4X12871   5.211   3.908   6.298  3.2293  2.1675  1.7869
  121SOPE   H4Y12872   5.160   4.070   6.282  0.6575 -0.0328 -0.0680
  121SOPE   C3512873   4.991   3.931   6.281 -0.0815  0.2858  0.7307
  121SOPE   H5X12874   4.906   3.995   6.315 -0.2981  0.9422 -0.9432
  121SOPE   H5Y12875   4.981   3.832   6.331  3.5040  0.8177  2.9122
  121SOPE   C3612876   4.995   3.914   6.129 -0.6621 -0.6576  0.0227
  121SOPE   H6X12877   4.906   3.857   6.096  1.0276 -3.0597 -0.6028
  121SOPE   H6Y12878   5.074   3.846   6.093  0.1532  1.2166 -1.9998
  121SOPE   C3712879   5.003   4.048   6.058  0.0502  0.3853 -0.5443
  121SOPE   H7X12880   5.092   4.109   6.084  0.9087 -1.2669  0.5602
  121SOPE   H7Y12881   4.924   4.111   6.104  0.4527 -0.0194  0.7156
  121SOPE   C3812882   4.987   4.052   5.904  0.0987  0.1935  0.2536
  121SOPE   H8X12883   4.984   4.162   5.884  0.4367  0.4285  1.4284
  121SOPE   H8Y12884   4.891   4.007   5.870  0.0972  0.1064  0.3725
  121SOPE   C3912885   5.104   3.989   5.818 -0.5986 -0.7185 -0.6990
  121SOPE   H9X12886   5.113   3.897   5.880 -1.5574 -0.0435  0.4824
  121SOPE   H9Y12887   5.197   4.049   5.831 -1.9004  1.0567  1.1141
  121SOPE  C31012888   5.067   3.963   5.673  0.4493 -0.1192 -0.6217
  121SOPE  H10X12889   5.037   4.061   5.631  0.6185  0.2364  0.0819
  121SOPE  H10Y12890   4.968   3.913   5.674  1.4214 -2.2149 -2.2496
  121SOPE  C31112891   5.175   3.891   5.600 -0.0378  0.7929  0.6211
  121SOPE  H11X12892   5.242   3.826   5.660  2.2142  1.0870 -1.4169
  121SOPE  H11Y12893   5.243   3.971   5.565 -0.7552  0.6233 -1.3055
  121SOPE  C31212894   5.131   3.817   5.467 -0.5375  0.9071 -0.9717
  121SOPE  H12X12895   5.076   3.726   5.497  0.0603  0.8518  0.0360
  121SOPE  H12Y12896   5.220   3.785   5.409  0.1540 -1.6607  1.2682
  121SOPE  C31312897   5.017   3.893   5.384 -0.2419 -0.5386 -0.8066
  121SOPE  H13X12898   5.071   3.987   5.359  0.1487 -0.5459 -0.0422
  121SOPE  H13Y12899   4.929   3.923   5.444  1.6882  1.5244  1.2275
  121SOPE  C31412900   4.988   3.828   5.253  0.0626 -0.1145 -0.4021
  121SOPE  H14X12901   4.901   3.882   5.209 -2.3635  0.1070  4.0587
  121SOPE  H14Y12902   4.946   3.727   5.274 -0.1918  0.1573  0.4233
  121SOPE  C31512903   5.114   3.825   5.156  0.2514 -0.0479  0.0602
  121SOPE  H15X12904   5.189   3.756   5.202 -0.9136 -1.2541  0.1966
  121SOPE  H15Y12905   5.158   3.927   5.162 -2.9301  1.4260 -0.0448
  121SOPE  C31612906   5.090   3.784   5.009  0.1291  0.5565 -0.4761
  121SOPE  H16X12907   4.984   3.750   5.010  0.0224  0.4731  3.8416
  121SOPE  H16Y12908   5.158   3.704   4.974 -1.0630 -1.0691  0.7571
  121SOPE  C31712909   5.086   3.895   4.902 -0.2998  0.1599  0.3682
  121SOPE  H17X12910   5.008   3.972   4.923 -0.8801  0.5776 -2.8748
  121SOPE  H17Y12911   5.038   3.847   4.814 -0.8888  0.8876  0.2735
  121SOPE  C31812912   5.224   3.948   4.859  0.3337 -0.2865  0.3328
  121SOPE  H18X12913   5.211   4.033   4.788  1.1513 -1.1838 -0.9445
  121SOPE  H18Y12914   5.288   3.872   4.808  0.1913  1.4165 -2.6252
  121SOPE  H18Z12915   5.275   4.003   4.940 -1.7498  0.3968  1.2460
  122SOPE     N12916   4.114   5.257   6.896  0.3857  0.2767  0.3021
  122SOPE   HN112917   4.167   5.171   6.919 -0.8909 -0.6156  0.0130
  122SOPE   HN212918   4.172   5.305   6.824  0.3326  0.8793  0.6495
  122SOPE   HN312919   4.114   5.330   6.970  2.5743  1.3456 -0.6440
  122SOPE   C1212920   3.973   5.241   6.852  0.3292  0.2086 -0.6283
  122SOPE  H12A12921   3.925   5.341   6.858  1.1015  0.5082  1.3816
  122SOPE  H12B12922   3.930   5.177   6.931  2.5636  0.2821  0.7268
  122SOPE   C1112923   3.982   5.182   6.712 -0.8302  0.2896  0.3756
  122SOPE  H11A12924   4.020   5.265   6.648 -0.3449 -1.4827 -1.7807
  122SOPE  H11B12925   3.881   5.154   6.677 -0.7612 -0.1100  0.4914
  122SOPE     P12926   4.028   4.915   6.734 -0.3889 -0.2267  0.1190
  122SOPE   O1312927   3.992   4.900   6.875  0.5476  0.4563  0.1406
  122SOPE   O1412928   4.124   4.826   6.679 -0.7069  0.3093 -0.0957
  122SOPE   O1212929   4.073   5.066   6.707 -0.4983 -0.1895  0.3373
  122SOPE   O1112930   3.900   4.899   6.656 -0.6074 -0.2332 -0.3065
  122SOPE    C112931   3.907   4.929   6.514  0.3222  0.5087  0.3544
  122SOPE    HA12932   3.987   4.989   6.464  1.4188 -1.0995  0.1026
  122SOPE    HB12933   3.813   4.983   6.489  0.1941 -0.4238 -1.3403
  122SOPE    C212934   3.906   4.799   6.432 -0.2827  0.4566  0.6155
  122SOPE    HS12935   4.001   4.745   6.453  0.7404  0.7907 -2.5967
  122SOPE   O2112936   3.896   4.832   6.293 -0.1839  0.5751  0.4398
  122SOPE   C2112937   4.006   4.823   6.215  0.7151  0.2329  0.1366
  122SOPE   O2212938   4.119   4.802   6.255 -0.0956 -0.4992 -0.5764
  122SOPE   C2212939   3.968   4.867   6.075  0.0296  0.4669  0.0360
  122SOPE   H2R12940   3.887   4.943   6.080  0.3858  0.9763 -1.5375
  122SOPE   H2S12941   3.931   4.781   6.016  3.6245 -0.0818 -1.6677
  122SOPE    C312942   3.775   4.703   6.467 -0.2563 -0.6985  0.1986
  122SOPE    HX12943   3.689   4.771   6.453  0.3096  0.0844  0.4630
  122SOPE    HY12944   3.770   4.667   6.573  0.7877 -3.0779 -0.4810
  122SOPE   O3112945   3.759   4.592   6.378  0.1950  0.2375  0.4832
  122SOPE   C3112946   3.856   4.503   6.394 -0.4010  0.1123  0.1969
  122SOPE   O3212947   3.952   4.511   6.470  0.2892 -0.3298  0.3182
  122SOPE   C3212948   3.845   4.404   6.274 -0.9289  0.0995  0.3480
  122SOPE   H2X12949   3.737   4.386   6.252 -0.5777 -0.0727 -1.3514
  122SOPE   H2Y12950   3.898   4.312   6.307  1.2325  1.3110  0.4534
  122SOPE   C2312951   4.082   4.917   5.985  0.3118  0.4115 -0.6499
  122SOPE   H3R12952   4.158   4.838   5.967  1.1002  0.8830  0.4771
  122SOPE   H3S12953   4.137   5.004   6.028  1.0384  1.1672 -2.9921
  122SOPE   C2412954   4.031   4.958   5.852 -0.4990 -0.2711 -0.3015
  122SOPE   H4R12955   3.936   4.908   5.823  0.8164 -1.9219 -2.0630
  122SOPE   H4S12956   4.005   5.064   5.873  0.7507  0.0117 -0.0966
  122SOPE   C2512957   4.131   4.948   5.736 -0.0383  0.2336 -0.3336
  122SOPE   H5R12958   4.226   4.998   5.764 -1.2353  1.0093  2.8191
  122SOPE   H5S12959   4.154   4.841   5.717 -0.2491  0.2632 -0.7681
  122SOPE   C2612960   4.068   4.989   5.602 -0.2258  0.5477 -0.5494
  122SOPE   H6R12961   3.974   4.931   5.590 -0.3986  0.8398 -0.6142
  122SOPE   H6S12962   4.031   5.093   5.609 -1.3615  0.0825  1.0261
  122SOPE   C2712963   4.154   4.982   5.477  0.8125  0.3397  0.0022
  122SOPE   H7R12964   4.195   4.882   5.455 -0.3729 -0.3039  0.5971
  122SOPE   H7S12965   4.076   5.014   5.404 -0.2297  1.5919  1.5683
  122SOPE   C2812966   4.265   5.080   5.472 -0.7546 -0.2275 -0.8437
  122SOPE   H8R12967   4.233   5.183   5.499  0.5141  0.0435 -0.3273
  122SOPE   H8S12968   4.328   5.052   5.559 -0.2900 -0.0263 -1.1112
  122SOPE   C2912969   4.350   5.094   5.350 -0.1069  0.3859 -0.1616
  122SOPE   H9112970   4.307   5.152   5.267  2.0385  1.3071 -0.6922
  122SOPE  C21012971   4.466   5.028   5.330 -0.5878 -0.1022  0.1472
  122SOPE  H10112972   4.525   5.045   5.239 -0.3222  2.3605  0.7031
  122SOPE  C21112973   4.527   4.950   5.438 -0.5815  0.0205  0.3001
  122SOPE  H11R12974   4.617   4.900   5.397  2.8461  5.3102  0.5136
  122SOPE  H11S12975   4.456   4.871   5.471 -2.3295  1.1912 -0.5321
  122SOPE  C21212976   4.594   5.031   5.562  0.0688 -0.0098 -0.2720
  122SOPE  H12R12977   4.535   5.123   5.585 -3.0362 -2.1066  0.8579
  122SOPE  H12S12978   4.698   5.057   5.534 -0.1157 -0.5165 -1.4703
  122SOPE  C21312979   4.593   4.935   5.686  0.0506 -0.1165  0.7100
  122SOPE  H13R12980   4.649   4.841   5.669 -0.5106 -0.7068  2.0026
  122SOPE  H13S12981   4.492   4.892   5.698 -0.2207 -0.6064 -2.3668
  122SOPE  C21412982   4.656   4.993   5.813  0.6559  0.0004  0.1269
  122SOPE  H14R12983   4.612   5.093   5.831 -2.6324 -0.9586 -1.9030
  122SOPE  H14S12984   4.766   5.011   5.807  1.0008 -2.1379 -0.6920
  122SOPE  C21512985   4.622   4.893   5.927 -0.6261 -0.4752 -0.0663
  122SOPE  H15R12986   4.702   4.907   6.003 -0.5585  0.5877 -0.3266
  122SOPE  H15S12987   4.632   4.789   5.890 -0.0420  0.1975 -1.8843
  122SOPE  C21612988   4.495   4.928   6.003  0.4488  0.7038  0.2370
  122SOPE  H16R12989   4.418   4.930   5.923  1.7082 -3.1908 -1.3246
  122SOPE  H16S12990   4.499   5.026   6.054  0.0453  0.3761  0.9166
  122SOPE  C21712991   4.458   4.815   6.106  0.3572  0.5902 -0.4376
  122SOPE  H17R12992   4.425   4.714   6.074 -3.3425  0.7286  2.2513
  122SOPE  H17S12993   4.374   4.855   6.168  1.0129  2.9718 -0.9782
  122SOPE  C21812994   4.570   4.801   6.204 -0.2665 -0.7987  0.3035
  122SOPE  H18R12995   4.588   4.898   6.256 -0.3352 -0.7774  0.2879
  122SOPE  H18S12996   4.672   4.772   6.171  0.5066 -0.9620  2.6761
  122SOPE  H18T12997   4.538   4.734   6.286  0.6160 -1.3582  0.2001
  122SOPE   C3312998   3.901   4.466   6.149  0.0555  0.3431 -0.0969
  122SOPE   H3X12999   3.878   4.575   6.157  0.9372  0.6278 -1.1587
  122SOPE   H3Y13000   3.860   4.444   6.048  1.4302 -0.7892 -0.4317
  122SOPE   C3413001   4.051   4.428   6.129 -0.5606 -0.5262 -0.1530
  122SOPE   H4X13002   4.067   4.322   6.100  0.9711 -0.7418  1.3590
  122SOPE   H4Y13003   4.107   4.454   6.221  0.9616  1.1511 -1.4784
  122SOPE   C3513004   4.120   4.505   6.014  0.4273 -0.2614  0.2444
  122SOPE   H5X13005   4.228   4.513   6.040  1.1505  1.0848 -2.7669
  122SOPE   H5Y13006   4.080   4.609   6.008 -0.0745 -0.4753 -0.1355
  122SOPE   C3613007   4.090   4.442   5.880 -0.3250  0.2145 -0.2723
  122SOPE   H6X13008   3.985   4.427   5.847 -0.4987  0.0765  0.3338
  122SOPE   H6Y13009   4.145   4.346   5.869  0.4870  0.4903  1.1874
  122SOPE   C3713010   4.148   4.528   5.759 -0.5413 -0.1401 -0.5854
  122SOPE   H7X13011   4.113   4.633   5.764 -1.2414 -0.3925  0.1193
  122SOPE   H7Y13012   4.104   4.482   5.668  0.7061 -0.9125 -0.8218
  122SOPE   C3813013   4.300   4.530   5.755  0.1597  0.1117  0.1021
  122SOPE   H8X13014   4.345   4.429   5.759  1.5854  0.7504  1.1674
  122SOPE   H8Y13015   4.329   4.596   5.840  0.9757  0.8852 -0.7624
  122SOPE   C3913016   4.364   4.580   5.624 -0.6498 -0.1145 -0.0446
  122SOPE   H9X13017   4.472   4.597   5.647 -0.9481 -0.7523  2.0500
  122SOPE   H9Y13018   4.324   4.681   5.603  0.8008  0.3230 -0.8662
  122SOPE  C31013019   4.353   4.478   5.510  0.1257 -0.3937  0.1273
  122SOPE  H10X13020   4.245   4.455   5.499  0.4078 -1.3901 -0.6711
  122SOPE  H10Y13021   4.390   4.376   5.534  0.7125 -0.7068 -1.9595
  122SOPE  C31113022   4.411   4.531   5.379 -0.1465 -0.0820  0.4242
  122SOPE  H11X13023   4.520   4.541   5.401  0.4119 -3.1965 -0.4514
  122SOPE  H11Y13024   4.370   4.633   5.362 -0.6704 -0.1979  0.9560
  122SOPE  C31213025   4.385   4.450   5.254  0.1333 -0.0803  1.3135
  122SOPE  H12X13026   4.278   4.423   5.255  0.1218 -0.0616  2.5175
  122SOPE  H12Y13027   4.450   4.360   5.244  2.2471  1.4841  0.1010
  122SOPE  C31313028   4.406   4.536   5.127 -0.0952  0.0272  0.5763
  122SOPE  H13X13029   4.338   4.624   5.128  0.2162  0.3267 -1.2374
  122SOPE  H13Y13030   4.388   4.464   5.044 -1.0176  0.9375 -0.0415
  122SOPE  C31413031   4.548   4.597   5.098  0.5231  1.5367  0.2729
  122SOPE  H14X13032   4.632   4.525   5.102 -0.2825  0.5098 -0.5545
  122SOPE  H14Y13033   4.558   4.675   5.177 -1.3670  1.3419  0.7494
  122SOPE  C31513034   4.540   4.656   4.950  0.6412  0.7331 -0.6762
  122SOPE  H15X13035   4.478   4.748   4.945  0.4639  0.7765  1.4280
  122SOPE  H15Y13036   4.498   4.592   4.869 -2.7685  2.5361 -0.4989
  122SOPE  C31613037   4.683   4.692   4.897 -0.1311  0.4230  0.0992
  122SOPE  H16X13038   4.754   4.607   4.900  0.5135  0.7712 -2.6935
  122SOPE  H16Y13039   4.725   4.773   4.960 -1.2848 -0.1971  1.7360
  122SOPE  C31713040   4.683   4.750   4.755  0.4809 -0.7800  0.7604
  122SOPE  H17X13041   4.586   4.801   4.733 -0.1341 -2.0431  0.4882
  122SOPE  H17Y13042   4.686   4.661   4.689 -0.7038 -0.5065  0.3084
  122SOPE  C31813043   4.803   4.836   4.720  0.1470 -0.0003 -0.1387
  122SOPE  H18X13044   4.801   4.867   4.613 -1.4730  1.4989  0.2662
  122SOPE  H18Y13045   4.896   4.775   4.725  0.3959  0.3725 -0.1475
  122SOPE  H18Z13046   4.816   4.925   4.786 -2.8420  0.0524  0.5204
  123SOPE     N13047   6.277   6.168   2.376  0.0756  0.2270  0.4118
  123SOPE   HN113048   6.184   6.129   2.350  0.4791 -0.2095 -0.4107
  123SOPE   HN213049   6.267   6.269   2.354  1.4848  0.2067 -0.3992
  123SOPE   HN313050   6.343   6.140   2.301 -0.1755 -1.5143  0.7824
  123SOPE   C1213051   6.327   6.122   2.507  0.1215  0.1028  0.5115
  123SOPE  H12A13052   6.262   6.163   2.587 -1.3361 -1.2590  0.0700
  123SOPE  H12B13053   6.431   6.161   2.501  0.3576 -0.5232  0.4707
  123SOPE   C1113054   6.299   5.964   2.514 -0.5903 -0.3114  0.3041
  123SOPE  H11A13055   6.189   5.948   2.516 -0.2707 -2.8903  0.7539
  123SOPE  H11B13056   6.327   5.934   2.617  0.2708 -2.3857 -0.4880
  123SOPE     P13057   6.527   5.856   2.431  0.2690  0.1599  0.0227
  123SOPE   O1313058   6.608   5.967   2.385 -0.3064 -0.3452  0.2213
  123SOPE   O1413059   6.548   5.720   2.367 -0.1050 -0.0889  0.0193
  123SOPE   O1213060   6.370   5.889   2.409  0.9073 -0.3360 -0.4125
  123SOPE   O1113061   6.544   5.842   2.584  0.0134 -0.6932 -0.9870
  123SOPE    C113062   6.496   5.732   2.662  0.2929 -0.1263 -0.0602
  123SOPE    HA13063   6.563   5.645   2.648  1.4579  0.8538 -0.8069
  123SOPE    HB13064   6.393   5.696   2.645 -0.2652  0.4470  1.8455
  123SOPE    C213065   6.500   5.778   2.811 -0.3847 -0.5995  0.3880
  123SOPE    HS13066   6.433   5.867   2.812 -0.5987 -0.7073 -1.2737
  123SOPE   O2113067   6.643   5.799   2.831 -0.4544 -0.6964  0.0665
  123SOPE   C2113068   6.667   5.893   2.919  0.5477 -0.1438  0.2177
  123SOPE   O2213069   6.582   5.980   2.956  0.0981  0.8829 -0.6801
  123SOPE   C2213070   6.814   5.884   2.970  0.2367  0.0573 -0.4375
  123SOPE   H2R13071   6.865   5.800   2.920 -1.4997 -1.1004 -0.3557
  123SOPE   H2S13072   6.802   5.860   3.078 -0.3015  3.7739  0.5003
  123SOPE    C313073   6.453   5.666   2.905 -0.4032  0.5407  0.0294
  123SOPE    HX13074   6.501   5.569   2.880  0.5186  1.3319 -1.4840
  123SOPE    HY13075   6.345   5.649   2.889 -0.2411 -1.3789  0.7542
  123SOPE   O3113076   6.474   5.707   3.042 -0.2786  0.1940  0.4616
  123SOPE   C3113077   6.387   5.781   3.114 -0.6028  0.4691  0.4766
  123SOPE   O3213078   6.295   5.842   3.067 -0.0556 -0.7242 -0.0425
  123SOPE   C3213079   6.449   5.808   3.255 -0.0947  0.4603 -0.0376
  123SOPE   H2X13080   6.556   5.777   3.252  0.0918  1.0878 -0.0025
  123SOPE   H2Y13081   6.389   5.756   3.333  0.3280 -0.4461 -0.3058
  123SOPE   C2313082   6.901   6.013   2.967  0.1651  0.4192  0.3783
  123SOPE   H3R13083   6.890   6.070   2.873  2.2133  1.0338  0.4650
  123SOPE   H3S13084   7.005   5.976   2.975  0.1877  0.0353 -1.3476
  123SOPE   C2413085   6.877   6.115   3.079 -0.0060  0.5052 -0.0532
  123SOPE   H4R13086   6.770   6.145   3.088 -1.2993 -3.2011 -0.9456
  123SOPE   H4S13087   6.919   6.066   3.170  1.0166 -0.0399 -0.7983
  123SOPE   C2513088   6.962   6.247   3.072 -0.3445 -0.3612 -0.5175
  123SOPE   H5R13089   7.063   6.212   3.042  0.2601  1.7267 -1.0546
  123SOPE   H5S13090   6.935   6.296   2.976 -0.6609  0.4285 -0.0292
  123SOPE   C2613091   6.960   6.345   3.193  0.5141  0.1412 -0.2993
  123SOPE   H6R13092   7.053   6.406   3.180  1.2340 -0.6863  0.7875
  123SOPE   H6S13093   6.868   6.404   3.178  1.8701  2.3750 -0.3203
  123SOPE   C2713094   6.979   6.285   3.332 -0.2122 -0.4137 -0.6163
  123SOPE   H7R13095   6.900   6.212   3.359 -1.4086  1.9408  3.0376
  123SOPE   H7S13096   7.076   6.232   3.340 -0.6371 -0.9849  1.1573
  123SOPE   C2813097   6.979   6.398   3.440  0.1924  0.3785  1.4631
  123SOPE   H8R13098   6.873   6.412   3.471  0.1183  0.3885  1.2154
  123SOPE   H8S13099   7.020   6.356   3.534 -1.2007 -2.1964  1.0413
  123SOPE   C2913100   7.039   6.534   3.421  0.2430 -0.2112 -0.8678
  123SOPE   H9113101   6.984   6.584   3.341 -0.5315  0.4695  0.0698
  123SOPE  C21013102   7.159   6.579   3.469 -0.2198 -0.1773 -0.6412
  123SOPE  H10113103   7.192   6.679   3.436 -0.9756  0.5243  0.6361
  123SOPE  C21113104   7.248   6.521   3.572 -0.2651  0.0669  0.3355
  123SOPE  H11R13105   7.350   6.564   3.574 -0.3560  0.2813  2.3940
  123SOPE  H11S13106   7.273   6.414   3.559 -0.4652 -0.0929  1.1795
  123SOPE  C21213107   7.201   6.545   3.716  0.0985  0.2139 -0.8137
  123SOPE  H12R13108   7.094   6.544   3.744  0.3210 -2.4211  0.3187
  123SOPE  H12S13109   7.240   6.645   3.745 -0.4133 -0.8448  4.6351
  123SOPE  C21313110   7.277   6.447   3.815 -0.5281  0.3691  0.7932
  123SOPE  H13R13111   7.387   6.457   3.803 -0.8974  3.0639 -1.2027
  123SOPE  H13S13112   7.239   6.347   3.785  0.3794 -0.6105  2.7219
  123SOPE  C21413113   7.239   6.460   3.963  0.2686 -0.2881 -0.1533
  123SOPE  H14R13114   7.132   6.457   3.993  0.4170 -1.2831  0.2997
  123SOPE  H14S13115   7.278   6.560   3.992 -1.7127  0.6119 -0.4282
  123SOPE  C21513116   7.310   6.343   4.033  0.1574  0.6197 -0.6778
  123SOPE  H15R13117   7.416   6.355   4.000  0.5229  2.0319  0.9104
  123SOPE  H15S13118   7.267   6.242   4.013  0.7513  0.7272 -2.8097
  123SOPE  C21613119   7.319   6.361   4.189  0.4500  0.1929 -0.3420
  123SOPE  H16R13120   7.377   6.274   4.227 -0.0940  0.3799  0.9673
  123SOPE  H16S13121   7.215   6.353   4.228  0.3104 -0.2446 -0.8018
  123SOPE  C21713122   7.368   6.501   4.227 -0.2185  0.5681  0.1080
  123SOPE  H17R13123   7.309   6.583   4.182  1.6786  0.9763 -1.8313
  123SOPE  H17S13124   7.473   6.516   4.192 -0.2307 -1.1991 -0.8402
  123SOPE  C21813125   7.379   6.522   4.376  0.2932  0.5340  1.0079
  123SOPE  H18R13126   7.408   6.627   4.401 -0.4329  1.0395 -0.1505
  123SOPE  H18S13127   7.443   6.447   4.426  0.3003  0.3566  0.7358
  123SOPE  H18T13128   7.274   6.520   4.413 -1.2888  0.6080 -2.9255
  123SOPE   C3313129   6.454   5.956   3.275  0.0423 -0.4680  0.2027
  123SOPE   H3X13130   6.348   5.990   3.272  0.1192 -0.2394 -0.0045
  123SOPE   H3Y13131   6.520   6.003   3.199  0.7578 -1.4712  0.1770
  123SOPE   C3413132   6.507   5.996   3.411  0.6070 -0.1200 -0.9100
  123SOPE   H4X13133   6.531   6.104   3.408  1.0446 -0.1886 -0.2759
  123SOPE   H4Y13134   6.607   5.950   3.432  0.8452  0.7261 -0.1112
  123SOPE   C3513135   6.415   5.972   3.534 -0.1852  0.5710  0.0825
  123SOPE   H5X13136   6.424   5.867   3.570 -0.1920  0.2288 -0.8756
  123SOPE   H5Y13137   6.310   6.004   3.516  0.5383  3.2386  0.2829
  123SOPE   C3613138   6.460   6.056   3.651 -0.4468  0.1048 -0.2655
  123SOPE   H6X13139   6.453   6.165   3.630  0.0213 -0.2633 -2.5941
  123SOPE   H6Y13140   6.561   6.023   3.682 -0.8967 -0.6643  0.4270
  123SOPE   C3713141   6.379   6.035   3.781  0.6765 -0.6718  0.5632
  123SOPE   H7X13142   6.384   5.927   3.805  1.2803 -0.5285  1.1062
  123SOPE   H7Y13143   6.276   6.076   3.770  0.8063 -0.4030  0.3391
  123SOPE   C3813144   6.435   6.112   3.897 -0.0313  0.0028 -0.9274
  123SOPE   H8X13145   6.433   6.221   3.873  0.2169  1.1840  3.5462
  123SOPE   H8Y13146   6.542   6.094   3.921 -1.0437 -0.5200  4.3616
  123SOPE   C3913147   6.364   6.090   4.033 -0.3737  0.8569 -0.0100
  123SOPE   H9X13148   6.255   6.110   4.026 -0.5506  0.0269  0.2253
  123SOPE   H9Y13149   6.413   6.170   4.092  0.8983  1.3101 -1.5902
  123SOPE  C31013150   6.386   5.963   4.105 -0.3653 -0.4264  0.1870
  123SOPE  H10X13151   6.487   5.928   4.076  1.1605  3.2304  0.4795
  123SOPE  H10Y13152   6.305   5.890   4.084 -0.2540 -0.4266 -0.2382
  123SOPE  C31113153   6.383   5.975   4.261  0.0322 -0.8881  0.7533
  123SOPE  H11X13154   6.281   5.959   4.303  0.9103 -0.9538  2.9854
  123SOPE  H11Y13155   6.427   6.075   4.279  0.8488 -1.3771  1.5583
  123SOPE  C31213156   6.477   5.873   4.325  0.1632 -0.3676 -0.1010
  123SOPE  H12X13157   6.573   5.901   4.275 -0.6083  1.3091 -0.7263
  123SOPE  H12Y13158   6.438   5.774   4.294 -1.1505 -0.5669  1.9781
  123SOPE  C31313159   6.484   5.890   4.478  0.3510 -0.9652  0.3215
  123SOPE  H13X13160   6.382   5.881   4.520 -0.6081  1.4542 -1.2697
  123SOPE  H13Y13161   6.527   5.989   4.506  0.8522 -0.8657 -0.7455
  123SOPE  C31413162   6.587   5.790   4.536 -0.3718  0.2116 -0.1182
  123SOPE  H14X13163   6.684   5.829   4.497 -1.9201  1.5440 -2.9405
  123SOPE  H14Y13164   6.569   5.689   4.494 -1.3711 -0.4069  1.6894
  123SOPE  C31513165   6.590   5.793   4.692 -0.0619  0.3567  0.5943
  123SOPE  H15X13166   6.497   5.738   4.718 -0.0889  0.6170  1.0565
  123SOPE  H15Y13167   6.580   5.900   4.720  2.5163  0.7882  0.1720
  123SOPE  C31613168   6.717   5.739   4.749  0.2489  0.0955  0.3051
  123SOPE  H16X13169   6.795   5.819   4.744  2.3112 -1.8517 -0.1270
  123SOPE  H16Y13170   6.744   5.649   4.691  0.4548 -1.1539  2.2662
  123SOPE  C31713171   6.707   5.695   4.894 -0.9278  0.0611  0.6845
  123SOPE  H17X13172   6.627   5.618   4.883  1.5996 -2.6924  0.4877
  123SOPE  H17Y13173   6.677   5.788   4.947 -1.8538 -0.1312  0.5199
  123SOPE  C31813174   6.828   5.633   4.962 -0.3371 -0.0148 -0.5896
  123SOPE  H18X13175   6.812   5.597   5.065 -0.5832  0.1043 -0.5849
  123SOPE  H18Y13176   6.911   5.707   4.954  1.0015 -1.3779  0.3391
  123SOPE  H18Z13177   6.852   5.540   4.906 -2.8529 -0.6255 -0.7656
  124SOPE     N13178   0.164   3.481   2.401 -0.8027 -0.0660 -0.1024
  124SOPE   HN113179   0.129   3.580   2.404  1.5441  0.8655 -1.3595
  124SOPE   HN213180   0.262   3.470   2.371 -1.2916 -2.8040 -0.9206
  124SOPE   HN313181   0.099   3.436   2.333 -0.9653  0.8359 -0.5692
  124SOPE   C1213182   0.127   3.413   2.527 -0.6398 -0.1834  0.7590
  124SOPE  H12A13183   0.177   3.314   2.520  3.7454  1.8369  0.0677
  124SOPE  H12B13184   0.017   3.401   2.536 -0.5772 -1.0938  0.4881
  124SOPE   C1113185   0.200   3.469   2.650  0.2042  0.0560  0.3125
  124SOPE  H11A13186   0.183   3.404   2.738 -1.1366  0.0825  0.1011
  124SOPE  H11B13187   0.160   3.572   2.663  2.5320  1.4579 -2.4685
  124SOPE     P13188   0.422   3.602   2.596 -0.1480 -0.1120 -0.4192
  124SOPE   O1313189   0.374   3.661   2.470 -0.3369  0.3040 -0.4490
  124SOPE   O1413190   0.568   3.565   2.599  0.1529 -0.1932 -0.0081
  124SOPE   O1213191   0.340   3.469   2.620  0.1488  0.0265 -0.5460
  124SOPE   O1113192   0.370   3.700   2.711  0.5084 -0.0324  0.5649
  124SOPE    C113193   0.447   3.708   2.835 -0.3176  0.4205  0.1439
  124SOPE    HA13194   0.421   3.799   2.893  0.3893 -0.1232  1.3420
  124SOPE    HB13195   0.555   3.727   2.820  0.1188 -1.5373  0.6171
  124SOPE    C213196   0.421   3.588   2.932  0.5970  0.0165  0.5865
  124SOPE    HS13197   0.449   3.506   2.862  1.9566  1.2346 -0.3430
  124SOPE   O2113198   0.282   3.579   2.960  0.7757  0.0254 -0.1995
  124SOPE   C2113199   0.243   3.461   3.014 -0.7280 -0.5529 -0.5979
  124SOPE   O2213200   0.322   3.374   3.034  0.0873  0.6534 -0.0915
  124SOPE   C2213201   0.093   3.456   3.020 -0.1259  0.8073  0.2597
  124SOPE   H2R13202   0.062   3.395   2.933  0.3245  2.6713 -1.2867
  124SOPE   H2S13203   0.057   3.562   3.018  0.5193  1.0471  0.8577
  124SOPE    C313204   0.516   3.578   3.055 -0.3915 -0.3788  0.1041
  124SOPE    HX13205   0.621   3.583   3.019 -0.5405  0.3147 -0.2556
  124SOPE    HY13206   0.498   3.483   3.109 -1.1827 -0.3513 -0.0939
  124SOPE   O3113207   0.488   3.684   3.155  0.5915 -0.0507 -0.1641
  124SOPE   C3113208   0.576   3.784   3.167 -0.4993 -0.2903  0.0352
  124SOPE   O3213209   0.685   3.778   3.112 -0.5248 -0.2480  0.0378
  124SOPE   C3213210   0.531   3.891   3.266  0.9747 -0.5016  0.1722
  124SOPE   H2X13211   0.431   3.927   3.233  0.8314 -1.2210 -0.2114
  124SOPE   H2Y13212   0.608   3.971   3.272 -0.6231  1.2050 -0.6352
  124SOPE   C2313213   0.033   3.391   3.151  1.4260  0.1716  0.2886
  124SOPE   H3R13214   0.035   3.280   3.152 -1.1688  0.0180 -1.1299
  124SOPE   H3S13215  -0.076   3.417   3.150  1.3462  0.2556 -3.1041
  124SOPE   C2413216   0.094   3.457   3.279  0.1587  0.1123  0.1458
  124SOPE   H4R13217   0.203   3.435   3.276  0.0865 -0.2652  0.2476
  124SOPE   H4S13218   0.078   3.565   3.262 -0.0949 -0.1923 -1.8032
  124SOPE   C2513219   0.036   3.387   3.400  0.2039  0.2829 -0.3894
  124SOPE   H5R13220  -0.070   3.413   3.422  0.3982  0.3140  0.5489
  124SOPE   H5S13221   0.040   3.278   3.377  2.3652  0.4252 -0.9574
  124SOPE   C2613222   0.118   3.425   3.525  0.1870  0.3077 -0.0236
  124SOPE   H6R13223   0.226   3.442   3.505  0.2810  0.2585  0.4445
  124SOPE   H6S13224   0.084   3.525   3.560 -1.6868  0.4870 -2.1032
  124SOPE   C2713225   0.117   3.319   3.632  0.3901  0.1626  0.0140
  124SOPE   H7R13226   0.009   3.314   3.658  0.8638  0.0735  2.1251
  124SOPE   H7S13227   0.158   3.226   3.586  1.5514 -0.4364  2.1413
  124SOPE   C2813228   0.199   3.353   3.756  0.3632 -0.2148  0.6394
  124SOPE   H8R13229   0.225   3.257   3.807 -0.0438  0.0727  1.4143
  124SOPE   H8S13230   0.294   3.373   3.702 -0.4959 -1.7964 -1.6001
  124SOPE   C2913231   0.160   3.471   3.834 -0.2156  0.0458 -0.9791
  124SOPE   H9113232   0.206   3.568   3.810  3.7069 -1.5430 -0.4986
  124SOPE  C21013233   0.068   3.463   3.936  0.1441  0.1180 -0.4172
  124SOPE  H10113234   0.032   3.551   3.990 -0.2682  0.4551 -1.2214
  124SOPE  C21113235   0.008   3.337   4.000 -0.3149 -0.7759 -0.1537
  124SOPE  H11R13236   0.037   3.247   3.942  1.9297 -0.8426  0.9892
  124SOPE  H11S13237  -0.103   3.346   3.992 -0.3562 -1.1994 -0.1016
  124SOPE  C21213238   0.050   3.324   4.144 -0.2499 -0.0489 -0.5333
  124SOPE  H12R13239  -0.008   3.235   4.178  0.3332  0.0168  0.6918
  124SOPE  H12S13240   0.018   3.408   4.209 -1.5871  1.1422 -2.5986
  124SOPE  C21313241   0.202   3.296   4.174 -0.3101  0.5249 -0.7705
  124SOPE  H13R13242   0.248   3.383   4.123 -1.4524  0.2823 -2.3219
  124SOPE  H13S13243   0.237   3.202   4.125 -2.5584  0.0665 -1.6667
  124SOPE  C21413244   0.248   3.300   4.317  0.2959 -0.4595 -0.1300
  124SOPE  H14R13245   0.208   3.217   4.379 -1.3348  0.9132  0.7381
  124SOPE  H14S13246   0.222   3.391   4.375  3.7973 -0.0986  1.0742
  124SOPE  C21513247   0.399   3.290   4.349  0.0323  0.2943 -0.1983
  124SOPE  H15R13248   0.436   3.386   4.306  0.0184  1.0601  1.4443
  124SOPE  H15S13249   0.429   3.197   4.295  1.9845  0.8697 -0.2034
  124SOPE  C21613250   0.424   3.284   4.498 -0.2741  0.0117 -0.9729
  124SOPE  H16R13251   0.384   3.185   4.528 -0.4400  0.0291 -1.1365
  124SOPE  H16S13252   0.373   3.371   4.545 -0.6249 -0.2384 -0.8879
  124SOPE  C21713253   0.571   3.293   4.551 -0.3650 -0.0801  0.5239
  124SOPE  H17R13254   0.617   3.383   4.505 -0.2445 -0.5394 -0.2778
  124SOPE  H17S13255   0.633   3.205   4.525  0.9759  1.1995 -0.8234
  124SOPE  C21813256   0.569   3.303   4.701 -0.0192  0.1425 -1.1033
  124SOPE  H18R13257   0.526   3.396   4.745 -0.7220  0.0192 -1.5193
  124SOPE  H18S13258   0.670   3.291   4.747 -0.4228  1.2109  0.1187
  124SOPE  H18T13259   0.508   3.218   4.737 -1.2188  1.0468 -0.9346
  124SOPE   C3313260   0.505   3.838   3.406  0.0566  0.5917  0.6219
  124SOPE   H3X13261   0.595   3.774   3.420 -1.1951 -1.3758  0.2133
  124SOPE   H3Y13262   0.414   3.775   3.424 -0.3254  1.1908  0.8095
  124SOPE   C3413263   0.493   3.944   3.514  0.2249  0.9207  1.0921
  124SOPE   H4X13264   0.411   4.013   3.485  0.8167  1.6269  1.0686
  124SOPE   H4Y13265   0.589   3.999   3.505 -1.6454  4.0218 -3.3971
  124SOPE   C3513266   0.469   3.895   3.658  0.1763 -0.4805  0.2542
  124SOPE   H5X13267   0.546   3.815   3.669 -0.4527 -1.2252 -0.6067
  124SOPE   H5Y13268   0.366   3.854   3.657  0.2589 -0.6971 -0.7637
  124SOPE   C3613269   0.492   4.005   3.767 -0.4151 -0.8533 -0.1171
  124SOPE   H6X13270   0.428   4.096   3.758  2.1808  1.1539  0.4999
  124SOPE   H6Y13271   0.597   4.035   3.749 -0.3324  0.0499  1.6163
  124SOPE   C3713272   0.462   3.954   3.909 -0.4148 -0.0427 -0.1655
  124SOPE   H7X13273   0.490   3.847   3.919 -0.0889  0.1301  0.9115
  124SOPE   H7Y13274   0.351   3.956   3.920 -0.6235 -2.5701 -1.0889
  124SOPE   C3813275   0.525   4.036   4.027  0.2993  0.0942  0.3079
  124SOPE   H8X13276   0.498   3.984   4.122  2.9786 -0.8574  0.6480
  124SOPE   H8Y13277   0.489   4.141   4.028 -1.7983 -0.5555 -0.7002
  124SOPE   C3913278   0.680   4.034   4.027 -0.6981 -0.0465  0.1804
  124SOPE   H9X13279   0.712   4.053   3.923 -0.3570  0.1060  0.3117
  124SOPE   H9Y13280   0.715   3.930   4.044  1.0868  0.6783  1.2292
  124SOPE  C31013281   0.740   4.133   4.131  0.8020  0.0098  0.3476
  124SOPE  H10X13282   0.719   4.240   4.109  0.4956 -0.0711  0.2342
  124SOPE  H10Y13283   0.850   4.118   4.127  0.8216  0.2907 -2.3712
  124SOPE  C31113284   0.710   4.092   4.277  0.3357  0.5440 -0.0982
  124SOPE  H11X13285   0.745   3.987   4.282  1.0776  0.7735 -0.2674
  124SOPE  H11Y13286   0.600   4.099   4.291 -0.0700 -0.6385 -2.2827
  124SOPE  C31213287   0.794   4.173   4.380  0.5898 -0.0239  1.1565
  124SOPE  H12X13288   0.816   4.280   4.357 -0.8119 -0.0869 -0.7225
  124SOPE  H12Y13289   0.880   4.104   4.392 -0.9778 -1.8618  2.5361
  124SOPE  C31313290   0.726   4.166   4.516  0.2022  0.1943 -0.0669
  124SOPE  H13X13291   0.685   4.065   4.541  2.4783 -0.5720  0.9321
  124SOPE  H13Y13292   0.635   4.229   4.519 -2.2251 -3.0060 -0.7496
  124SOPE  C31413293   0.817   4.221   4.632  0.3919  0.5798 -0.2419
  124SOPE  H14X13294   0.821   4.330   4.610  1.9307  0.4665 -0.6198
  124SOPE  H14Y13295   0.920   4.179   4.626 -0.1645 -1.1162  1.1839
  124SOPE  C31513296   0.768   4.198   4.771  0.7600 -0.3806  0.2615
  124SOPE  H15X13297   0.733   4.093   4.781  2.8135 -1.0822  0.5066
  124SOPE  H15Y13298   0.681   4.265   4.789  0.1079 -1.0291 -0.3963
  124SOPE  C31613299   0.866   4.224   4.881 -0.6266  0.0239 -0.2475
  124SOPE  H16X13300   0.908   4.323   4.854  2.2502 -0.8931  0.4900
  124SOPE  H16Y13301   0.942   4.144   4.866 -1.0386 -0.0243 -2.3865
  124SOPE  C31713302   0.816   4.220   5.023  0.1864 -0.0556 -0.0141
  124SOPE  H17X13303   0.719   4.271   5.037 -1.6075 -3.5216  1.1985
  124SOPE  H17Y13304   0.899   4.268   5.080  2.7610 -2.0864 -1.7862
  124SOPE  C31813305   0.795   4.073   5.057 -0.3684 -0.1138 -0.8353
  124SOPE  H18X13306   0.879   4.004   5.035 -1.3415 -2.2579  1.5616
  124SOPE  H18Y13307   0.709   4.027   5.003 -0.3294 -1.6998  0.3624
  124SOPE  H18Z13308   0.758   4.058   5.161  0.2482  0.4138 -0.5396
  125SOPE     N13309   3.687   3.090   2.396  0.2931 -0.0174 -0.8048
  125SOPE   HN113310   3.670   3.026   2.476  0.3751  1.7048  0.6570
  125SOPE   HN213311   3.778   3.081   2.346  0.2001  0.0104 -0.9806
  125SOPE   HN313312   3.681   3.178   2.450 -0.9560 -0.0754 -0.8166
  125SOPE   C1213313   3.573   3.071   2.292  0.2446 -0.1419 -0.8082
  125SOPE  H12A13314   3.582   3.152   2.216  0.3539  0.0829 -0.5568
  125SOPE  H12B13315   3.482   3.095   2.351  1.5452 -3.3722  2.9445
  125SOPE   C1113316   3.570   2.928   2.231  0.4557 -0.5110  0.0441
  125SOPE  H11A13317   3.645   2.933   2.148 -0.1641 -4.6287 -0.9802
  125SOPE  H11B13318   3.467   2.920   2.191  0.0503  1.3846  0.5870
  125SOPE     P13319   3.602   2.671   2.241  0.5078  0.0773 -0.4524
  125SOPE   O1313320   3.732   2.601   2.256  0.2095  0.5843 -0.4514
  125SOPE   O1413321   3.532   2.672   2.107  0.1157 -0.5756 -0.2364
  125SOPE   O1213322   3.608   2.814   2.307  0.4753  0.6790  0.3881
  125SOPE   O1113323   3.502   2.597   2.342  0.2784  0.3500  0.2087
  125SOPE    C113324   3.390   2.665   2.397  0.0431  0.2013  0.0319
  125SOPE    HA13325   3.298   2.604   2.406 -0.1886  0.7210  1.3853
  125SOPE    HB13326   3.362   2.753   2.334 -1.4647  0.1252  0.5454
  125SOPE    C213327   3.427   2.720   2.537 -0.6447  0.2192 -0.8216
  125SOPE    HS13328   3.516   2.785   2.527 -0.0552 -0.7898 -2.4520
  125SOPE   O2113329   3.444   2.605   2.622 -0.0620  0.1346  0.0461
  125SOPE   C2113330   3.508   2.638   2.736 -0.0289  0.6771 -0.2103
  125SOPE   O2213331   3.583   2.735   2.746  0.5649 -0.4962  0.2777
  125SOPE   C2213332   3.464   2.546   2.849  0.1440 -0.2397  0.0254
  125SOPE   H2R13333   3.516   2.450   2.832  0.0379 -0.0397 -1.6122
  125SOPE   H2S13334   3.360   2.518   2.825  0.6010 -1.6132 -0.4130
  125SOPE    C313335   3.319   2.819   2.597  0.8348  0.3260  0.2989
  125SOPE    HX13336   3.234   2.751   2.618  1.0921 -0.3194 -0.6869
  125SOPE    HY13337   3.299   2.889   2.514  2.6363 -1.9731 -2.2888
  125SOPE   O3113338   3.358   2.900   2.711  0.5235  0.2390 -0.4390
  125SOPE   C3113339   3.451   2.998   2.688  0.1117  0.3527 -0.1061
  125SOPE   O3213340   3.514   3.011   2.589 -0.5794  0.0904  0.3614
  125SOPE   C3213341   3.473   3.086   2.808 -0.2591 -0.0646  0.0695
  125SOPE   H2X13342   3.393   3.162   2.820 -0.6560 -0.5709  0.6931
  125SOPE   H2Y13343   3.577   3.124   2.792 -0.9432  1.4632 -0.9508
  125SOPE   C2313344   3.488   2.606   2.991  0.3706  0.0573  0.2538
  125SOPE   H3R13345   3.424   2.557   3.067 -0.3142 -0.1970 -0.4627
  125SOPE   H3S13346   3.451   2.711   2.983  0.7460  0.0896 -1.7113
  125SOPE   C2413347   3.635   2.611   3.042 -0.0685  0.0116 -0.0509
  125SOPE   H4R13348   3.674   2.507   3.039  1.2842  0.5086 -0.7102
  125SOPE   H4S13349   3.708   2.666   2.979  0.1549 -0.8818 -0.5845
  125SOPE   C2513350   3.659   2.659   3.184 -0.3401  0.0753  0.1300
  125SOPE   H5R13351   3.602   2.755   3.186  0.2419  0.4132  0.6423
  125SOPE   H5S13352   3.608   2.591   3.256 -0.6193  0.2661  0.1163
  125SOPE   C2613353   3.801   2.683   3.231 -0.3228 -0.3303  0.0528
  125SOPE   H6R13354   3.854   2.586   3.240 -0.1239 -0.5125 -2.5545
  125SOPE   H6S13355   3.849   2.744   3.153  0.7612 -1.2873 -0.0525
  125SOPE   C2713356   3.794   2.762   3.361 -0.6389 -0.1236  0.3337
  125SOPE   H7R13357   3.752   2.862   3.338  1.2191  0.8855  1.1319
  125SOPE   H7S13358   3.725   2.721   3.438 -0.9702  0.7085  0.4904
  125SOPE   C2813359   3.933   2.782   3.423  0.4574  0.2106 -0.1449
  125SOPE   H8R13360   4.010   2.825   3.355  0.2634 -1.8204 -1.7421
  125SOPE   H8S13361   3.899   2.854   3.501 -0.3442  1.7450 -1.8368
  125SOPE   C2913362   3.982   2.658   3.491 -0.4678  0.5591  0.5365
  125SOPE   H9113363   4.015   2.581   3.420  1.2537  2.1032 -0.4175
  125SOPE  C21013364   3.992   2.626   3.617 -0.6140 -0.4356  0.2247
  125SOPE  H10113365   4.029   2.529   3.652 -0.3085  0.3463  2.2201
  125SOPE  C21113366   3.953   2.701   3.735 -0.2933 -0.0390 -0.3280
  125SOPE  H11R13367   3.879   2.779   3.707  0.5223  0.5351 -0.9243
  125SOPE  H11S13368   4.042   2.749   3.781  0.2145 -2.1588  1.0272
  125SOPE  C21213369   3.897   2.617   3.861  0.3953  0.5178 -0.7101
  125SOPE  H12R13370   3.987   2.573   3.909  0.5047  3.1046  1.7596
  125SOPE  H12S13371   3.820   2.540   3.841 -0.4534  0.6680  1.6698
  125SOPE  C21313372   3.840   2.714   3.964  0.1897 -0.7073 -0.4770
  125SOPE  H13R13373   3.748   2.764   3.927 -0.8757 -2.7835 -0.8032
  125SOPE  H13S13374   3.903   2.802   3.985  0.1020 -0.8504  0.4035
  125SOPE  C21413375   3.806   2.641   4.098  0.4014 -0.2792 -0.0375
  125SOPE  H14R13376   3.898   2.610   4.151 -0.7977 -1.0180  1.7033
  125SOPE  H14S13377   3.735   2.566   4.058 -1.8596  2.2728 -1.1924
  125SOPE  C21513378   3.720   2.728   4.197 -0.3609  0.5739  0.3501
  125SOPE  H15R13379   3.616   2.742   4.161 -0.6134  1.1529  1.2722
  125SOPE  H15S13380   3.774   2.826   4.190  1.8713 -0.5780  0.4441
  125SOPE  C21613381   3.727   2.673   4.342 -0.3519  0.5819 -0.5820
  125SOPE  H16R13382   3.828   2.669   4.388 -0.9143 -1.0823  0.6034
  125SOPE  H16S13383   3.680   2.573   4.339 -0.8867  0.7574  1.0307
  125SOPE  C21713384   3.634   2.756   4.428 -0.4665 -0.9637 -0.4755
  125SOPE  H17R13385   3.533   2.764   4.383 -0.8154 -0.1769  0.4228
  125SOPE  H17S13386   3.681   2.856   4.434 -0.6612 -0.9268  0.6697
  125SOPE  C21813387   3.622   2.706   4.574  0.5095 -0.0233 -0.0493
  125SOPE  H18R13388   3.574   2.605   4.569  1.1171 -0.4695  2.1575
  125SOPE  H18S13389   3.567   2.768   4.647  1.0803  0.0375  0.3321
  125SOPE  H18T13390   3.721   2.681   4.617  0.1343  0.6412  1.2350
  125SOPE   C3313391   3.486   3.015   2.947  0.9746  0.2162 -0.1007
  125SOPE   H3X13392   3.590   2.984   2.968  1.3324 -0.7298 -2.8507
  125SOPE   H3Y13393   3.416   2.929   2.951 -0.5549  1.3695 -0.9317
  125SOPE   C3413394   3.456   3.108   3.069  0.3082 -0.3063 -0.1182
  125SOPE   H4X13395   3.349   3.134   3.053  0.5338 -0.8003 -2.9027
  125SOPE   H4Y13396   3.509   3.206   3.072 -0.2143 -0.0391  2.1461
  125SOPE   C3513397   3.483   3.033   3.201  0.7116 -0.1286  0.1039
  125SOPE   H5X13398   3.590   3.010   3.220  0.1057 -0.9602  3.0031
  125SOPE   H5Y13399   3.427   2.937   3.205 -0.4246  0.4436 -1.0884
  125SOPE   C3613400   3.426   3.103   3.331 -0.8484  0.2354  0.9945
  125SOPE   H6X13401   3.317   3.086   3.343 -0.6750 -2.1012 -0.3111
  125SOPE   H6Y13402   3.436   3.211   3.304  0.9317 -0.6396 -2.3738
  125SOPE   C3713403   3.514   3.074   3.451 -0.0743 -0.1674 -0.7107
  125SOPE   H7X13404   3.570   2.978   3.447  3.7417  1.8480  0.0331
  125SOPE   H7Y13405   3.453   3.062   3.543  0.0407 -3.8490 -0.9764
  125SOPE   C3813406   3.613   3.189   3.491  0.5495  0.1896 -0.3959
  125SOPE   H8X13407   3.557   3.277   3.529  0.6046  0.4820 -0.9740
  125SOPE   H8Y13408   3.683   3.210   3.407  2.0704  2.8930  1.4070
  125SOPE   C3913409   3.707   3.149   3.612 -0.0328  0.3512  0.6944
  125SOPE   H9X13410   3.779   3.234   3.618  0.8717 -0.2353 -1.1566
  125SOPE   H9Y13411   3.754   3.057   3.572  0.5806  1.0275 -0.1973
  125SOPE  C31013412   3.638   3.130   3.750  0.2471  0.2363  0.0871
  125SOPE  H10X13413   3.557   3.055   3.756 -0.4460  0.9554 -0.0805
  125SOPE  H10Y13414   3.574   3.219   3.769  1.2826  1.7231 -2.7141
  125SOPE  C31113415   3.747   3.127   3.871  0.8087  0.2003 -0.5753
  125SOPE  H11X13416   3.832   3.194   3.846  1.1193 -0.0295 -0.1654
  125SOPE  H11Y13417   3.786   3.023   3.879 -3.5226 -1.4685  1.9334
  125SOPE  C31213418   3.683   3.161   4.012 -0.6931 -0.0216 -0.3252
  125SOPE  H12X13419   3.627   3.078   4.059 -0.8617  0.0309 -0.4315
  125SOPE  H12Y13420   3.614   3.248   4.001 -0.1060  0.8464  2.1561
  125SOPE  C31313421   3.799   3.200   4.113 -0.1026 -0.0948 -0.8639
  125SOPE  H13X13422   3.833   3.300   4.079  3.6168 -0.6373  0.8243
  125SOPE  H13Y13423   3.885   3.134   4.090 -0.1502  0.5388 -3.0611
  125SOPE  C31413424   3.762   3.193   4.264  0.1723  1.1824  0.0981
  125SOPE  H14X13425   3.820   3.113   4.314 -0.1093  1.2893  0.6021
  125SOPE  H14Y13426   3.658   3.155   4.254  0.0318  1.8975 -1.6087
  125SOPE  C31513427   3.772   3.331   4.333  0.3653  0.5438 -0.1720
  125SOPE  H15X13428   3.714   3.398   4.267  1.2883  0.8627 -0.6722
  125SOPE  H15Y13429   3.880   3.357   4.336  0.6926 -0.7654  0.1907
  125SOPE  C31613430   3.716   3.334   4.474  0.3851 -0.3703  0.0599
  125SOPE  H16X13431   3.744   3.236   4.519 -0.0424 -0.1279  0.8754
  125SOPE  H16Y13432   3.606   3.348   4.476  0.4024  0.7330 -2.5761
  125SOPE  C31713433   3.760   3.453   4.555  0.0980 -0.4014  0.5153
  125SOPE  H17X13434   3.761   3.536   4.482 -1.3092 -0.9810 -0.2195
  125SOPE  H17Y13435   3.863   3.441   4.595  0.2526  1.4625  0.7344
  125SOPE  C31813436   3.672   3.489   4.669  0.1204 -0.1468  0.0330
  125SOPE  H18X13437   3.728   3.547   4.746  0.0996  0.1857 -0.1998
  125SOPE  H18Y13438   3.635   3.397   4.719 -1.3802  1.5274  2.2424
  125SOPE  H18Z13439   3.578   3.536   4.632 -0.9736 -0.6819  1.9465
  126SOPE     N13440   5.920   1.400   2.419 -0.1849  0.5581 -0.0643
  126SOPE   HN113441   5.852   1.478   2.409 -0.6470  0.1400 -0.2181
  126SOPE   HN213442   5.998   1.412   2.352 -0.6431  0.3362 -0.6393
  126SOPE   HN313443   5.874   1.307   2.408 -0.1326  0.2578  1.8723
  126SOPE   C1213444   5.966   1.388   2.561  0.0563  0.1090  0.2092
  126SOPE  H12A13445   5.885   1.351   2.627  0.7897 -2.4972 -0.2314
  126SOPE  H12B13446   5.991   1.493   2.589 -0.7556  0.3524  0.0301
  126SOPE   C1113447   6.095   1.300   2.590  0.2521  0.3335  0.3195
  126SOPE  H11A13448   6.138   1.327   2.689 -0.8058  0.1769  0.8330
  126SOPE  H11B13449   6.168   1.313   2.506 -0.7798  3.3795 -0.2424
  126SOPE     P13450   6.017   1.082   2.721 -0.0130  0.2052 -0.2712
  126SOPE   O1313451   5.985   0.946   2.672 -0.0661  0.5104  0.1165
  126SOPE   O1413452   5.915   1.162   2.793  0.5047  0.5180 -0.5066
  126SOPE   O1213453   6.058   1.162   2.588  0.0436 -0.7027 -0.0684
  126SOPE   O1113454   6.141   1.084   2.818  0.1884  0.1079 -0.2619
  126SOPE    C113455   6.274   1.048   2.777 -0.3949  0.0610  0.6522
  126SOPE    HA13456   6.307   1.123   2.702 -0.3289 -0.6078 -0.0089
  126SOPE    HB13457   6.264   0.951   2.724  0.7511 -0.3585  1.1691
  126SOPE    C213458   6.370   1.043   2.896  0.5800  0.3913 -0.0972
  126SOPE    HS13459   6.470   1.012   2.857  0.8209 -3.6725  3.1914
  126SOPE   O2113460   6.330   0.951   3.001 -0.1512 -0.2823  0.0235
  126SOPE   C2113461   6.326   0.817   2.977  1.5361 -0.3316  0.2200
  126SOPE   O2213462   6.343   0.759   2.873  0.1751 -0.2015 -0.0959
  126SOPE   C2213463   6.283   0.756   3.105 -0.1207  0.0292  0.5290
  126SOPE   H2R13464   6.208   0.676   3.084 -0.0428 -0.3179  1.5249
  126SOPE   H2S13465   6.222   0.827   3.165 -2.0107 -0.0682 -1.1623
  126SOPE    C313466   6.399   1.191   2.942 -0.8461 -0.2816 -0.0900
  126SOPE    HX13467   6.309   1.255   2.952 -1.1943 -0.5621 -1.2489
  126SOPE    HY13468   6.463   1.244   2.868 -0.3208  2.0101  1.8947
  126SOPE   O3113469   6.484   1.192   3.055 -0.5637 -0.0587 -0.1738
  126SOPE   C3113470   6.421   1.172   3.173 -0.0747  0.7135 -0.2609
  126SOPE   O3213471   6.301   1.178   3.191  0.9738 -0.4660  0.1417
  126SOPE   C3213472   6.520   1.148   3.287 -0.0421 -0.2645 -0.2184
  126SOPE   H2X13473   6.545   1.246   3.332 -1.4877 -0.4602  1.0858
  126SOPE   H2Y13474   6.617   1.113   3.245  0.0322  0.8241 -1.0377
  126SOPE   C2313475   6.395   0.694   3.194 -0.2523  0.1728  0.3020
  126SOPE   H3R13476   6.469   0.774   3.215  2.6265 -2.0414 -0.7285
  126SOPE   H3S13477   6.454   0.618   3.139  0.5410 -0.0011  1.3630
  126SOPE   C2413478   6.339   0.639   3.321 -1.0642 -0.4254  0.6604
  126SOPE   H4R13479   6.278   0.716   3.374  0.1635  0.6129  0.6269
  126SOPE   H4S13480   6.292   0.542   3.295  0.0799 -1.5395  2.5417
  126SOPE   C2513481   6.465   0.618   3.425  0.3757  0.0396  0.2059
  126SOPE   H5R13482   6.537   0.560   3.363 -1.3340 -1.1050 -0.7982
  126SOPE   H5S13483   6.510   0.717   3.444 -0.1374  0.3656 -0.2475
  126SOPE   C2613484   6.424   0.535   3.550 -0.2772  0.1420 -0.3125
  126SOPE   H6R13485   6.371   0.445   3.512  1.1774 -0.9954  0.2780
  126SOPE   H6S13486   6.514   0.511   3.609 -0.2419 -0.5550 -0.6419
  126SOPE   C2713487   6.324   0.618   3.636 -0.1405  0.4889 -0.4667
  126SOPE   H7R13488   6.351   0.725   3.651 -0.0046  0.8933 -3.0665
  126SOPE   H7S13489   6.230   0.637   3.581 -0.7510  0.0916  0.4204
  126SOPE   C2813490   6.274   0.556   3.769 -0.0814  0.0093 -0.0592
  126SOPE   H8R13491   6.365   0.563   3.831  0.1944 -1.5835 -0.2457
  126SOPE   H8S13492   6.192   0.614   3.817 -1.7959  1.4426 -4.1740
  126SOPE   C2913493   6.227   0.415   3.757 -0.4286  0.3700  0.1424
  126SOPE   H9113494   6.312   0.350   3.729 -0.6512  0.7761 -1.5497
  126SOPE  C21013495   6.110   0.350   3.773 -0.2102  0.3462  0.0418
  126SOPE  H10113496   6.101   0.242   3.755  0.1639  0.2088  0.6653
  126SOPE  C21113497   5.978   0.414   3.811 -0.5062 -0.3644  0.6929
  126SOPE  H11R13498   5.982   0.521   3.784  1.8739  0.1608  2.8134
  126SOPE  H11S13499   5.959   0.405   3.920  1.9202 -0.7852  1.1265
  126SOPE  C21213500   5.849   0.363   3.741  0.0041 -0.2193  0.3575
  126SOPE  H12R13501   5.765   0.434   3.759 -0.6819 -1.6099  3.3401
  126SOPE  H12S13502   5.800   0.276   3.790 -1.9578  0.5075 -0.2375
  126SOPE  C21313503   5.861   0.322   3.598  0.8833 -0.1102 -0.0506
  126SOPE  H13R13504   5.924   0.232   3.587  0.9013 -0.5070  2.6481
  126SOPE  H13S13505   5.908   0.401   3.536  0.9879 -1.1352 -1.3265
  126SOPE  C21413506   5.717   0.295   3.545 -0.0559  0.3376 -0.5035
  126SOPE  H14R13507   5.663   0.391   3.558  0.1147  0.3238  0.4168
  126SOPE  H14S13508   5.651   0.232   3.609 -2.2812  2.1860 -0.8584
  126SOPE  C21513509   5.712   0.234   3.398 -0.2568  0.7537 -0.1320
  126SOPE  H15R13510   5.604   0.235   3.372 -0.5260 -1.3859  0.6940
  126SOPE  H15S13511   5.760   0.134   3.399 -1.2354  0.2804  0.4164
  126SOPE  C21613512   5.782   0.302   3.291  1.2047  0.7485 -0.0267
  126SOPE  H16R13513   5.760   0.251   3.194 -0.1743  1.1938  0.0240
  126SOPE  H16S13514   5.889   0.291   3.316  1.1597  1.2945  0.4198
  126SOPE  C21713515   5.744   0.452   3.272  0.3844  0.1858  0.2490
  126SOPE  H17R13516   5.758   0.504   3.369  0.5110 -0.0170  0.3397
  126SOPE  H17S13517   5.638   0.446   3.241  0.0507  2.0640  0.9098
  126SOPE  C21813518   5.833   0.513   3.163 -0.0337  0.2904 -0.8038
  126SOPE  H18R13519   5.941   0.498   3.184  0.0098  2.5254  1.0006
  126SOPE  H18S13520   5.817   0.623   3.163  2.6108  0.7318 -0.2423
  126SOPE  H18T13521   5.793   0.466   3.070 -1.9172  1.3802 -0.6098
  126SOPE   C3313522   6.445   1.076   3.396  1.0115  0.1589  0.0922
  126SOPE   H3X13523   6.401   0.979   3.364  0.0690  0.3207  0.8671
  126SOPE   H3Y13524   6.360   1.137   3.432 -0.8476 -2.9834  1.4523
  126SOPE   C3413525   6.539   1.060   3.519 -0.6498  1.1806  0.0625
  126SOPE   H4X13526   6.569   1.159   3.559  1.2560  1.7225 -2.4539
  126SOPE   H4Y13527   6.630   1.008   3.481 -1.8458  0.2877 -1.7233
  126SOPE   C3513528   6.472   0.980   3.637 -0.1403 -0.0237  0.2952
  126SOPE   H5X13529   6.440   0.881   3.597 -1.0440 -0.5444  2.1989
  126SOPE   H5Y13530   6.383   1.040   3.667 -1.3707 -1.6075 -0.0017
  126SOPE   C3613531   6.569   0.945   3.752  0.4386  0.3780  0.1818
  126SOPE   H6X13532   6.623   1.036   3.787  0.1692  0.4312  0.4671
  126SOPE   H6Y13533   6.659   0.896   3.710  1.9715  2.8776  0.3137
  126SOPE   C3713534   6.481   0.884   3.861  0.5436 -0.0576 -0.3530
  126SOPE   H7X13535   6.467   0.774   3.855 -1.7156  0.0772  1.1147
  126SOPE   H7Y13536   6.377   0.923   3.861 -0.3407 -2.2453 -0.3800
  126SOPE   C3813537   6.539   0.920   4.004 -0.2664  0.0392 -0.0668
  126SOPE   H8X13538   6.544   1.031   4.011 -1.3957  0.0204  1.8279
  126SOPE   H8Y13539   6.643   0.883   4.012 -0.4223 -0.4147 -0.1153
  126SOPE   C3913540   6.469   0.856   4.127  0.3471  0.3779 -0.5597
  126SOPE   H9X13541   6.359   0.871   4.121  0.0374 -1.6166 -0.4556
  126SOPE   H9Y13542   6.500   0.918   4.214 -0.6692  0.4997 -0.2659
  126SOPE  C31013543   6.518   0.711   4.150 -0.0611 -0.1258  0.3881
  126SOPE  H10X13544   6.629   0.716   4.153  0.1016 -1.3769 -1.5504
  126SOPE  H10Y13545   6.489   0.654   4.059 -1.2723 -1.3995  1.5353
  126SOPE  C31113546   6.450   0.651   4.270  0.2894 -0.1927  0.2191
  126SOPE  H11X13547   6.348   0.616   4.245  0.6481 -0.2371 -1.2420
  126SOPE  H11Y13548   6.450   0.722   4.356  3.2914 -1.4368  1.3997
  126SOPE  C31213549   6.533   0.522   4.327 -0.0180 -0.7158 -0.0807
  126SOPE  H12X13550   6.638   0.554   4.312 -0.2715 -0.1237 -0.6740
  126SOPE  H12Y13551   6.524   0.438   4.255  0.2292 -1.1198  0.3585
  126SOPE  C31313552   6.497   0.487   4.473 -0.9649 -0.3018  0.4218
  126SOPE  H13X13553   6.504   0.377   4.486  0.8351 -0.2144  0.5381
  126SOPE  H13Y13554   6.388   0.499   4.492 -1.3496 -2.9893  0.3309
  126SOPE  C31413555   6.576   0.562   4.587  0.0076  0.4024  0.4635
  126SOPE  H14X13556   6.574   0.668   4.556  1.4869 -0.6237 -3.9107
  126SOPE  H14Y13557   6.682   0.539   4.564 -0.6858 -1.3428 -1.3068
  126SOPE  C31513558   6.533   0.551   4.732  1.0981 -0.1909 -0.3678
  126SOPE  H15X13559   6.600   0.484   4.790  2.0865 -1.1395 -2.4846
  126SOPE  H15Y13560   6.432   0.505   4.731  0.6373  0.7722  0.0347
  126SOPE  C31613561   6.533   0.689   4.799 -0.3482 -0.0956  0.4478
  126SOPE  H16X13562   6.474   0.692   4.893  2.4867 -0.8384  2.4006
  126SOPE  H16Y13563   6.498   0.764   4.725  3.4955  0.4954 -1.0424
  126SOPE  C31713564   6.673   0.722   4.848 -0.4249 -0.1053 -0.4738
  126SOPE  H17X13565   6.745   0.705   4.765  0.4911  1.8230 -0.1316
  126SOPE  H17Y13566   6.701   0.648   4.927 -4.4821 -2.3393 -0.8752
  126SOPE  C31813567   6.694   0.863   4.897  0.1242 -0.3061 -0.2386
  126SOPE  H18X13568   6.802   0.870   4.924 -0.1838  3.2584  0.5194
  126SOPE  H18Y13569   6.640   0.874   4.993 -1.2362  1.0245 -1.1196
  126SOPE  H18Z13570   6.671   0.939   4.820 -0.3800 -0.0489  0.1569
  127SOPE     N13571   0.619   0.094   2.405  0.0038  0.5273 -0.1077
  127SOPE   HN113572   0.720   0.111   2.385  0.6435 -1.1209  1.3846
  127SOPE   HN213573   0.570   0.113   2.316 -0.7315  2.1200  0.5949
  127SOPE   HN313574   0.583   0.171   2.466  0.4577 -0.6487  1.7191
  127SOPE   C1213575   0.586  -0.043   2.460  0.4248 -0.2320 -0.6418
  127SOPE  H12A13576   0.615  -0.049   2.567 -1.1613 -2.0175 -0.2459
  127SOPE  H12B13577   0.651  -0.117   2.407  1.6140  1.0170 -0.9755
  127SOPE   C1113578   0.440  -0.085   2.429 -0.3568  0.4902 -0.5827
  127SOPE  H11A13579   0.429  -0.186   2.474 -0.5512  0.0011 -1.6879
  127SOPE  H11B13580   0.427  -0.105   2.320  0.0804 -0.9155 -0.3936
  127SOPE     P13581   0.193   0.004   2.450  0.0463 -0.0232  0.6427
  127SOPE   O1313582   0.149  -0.134   2.466  0.0924 -0.4103  1.0401
  127SOPE   O1413583   0.167   0.081   2.323 -0.3376  0.2924  0.1219
  127SOPE   O1213584   0.348   0.010   2.484  0.8221 -0.3704 -0.0991
  127SOPE   O1113585   0.130   0.082   2.569 -0.3271 -0.4253 -0.0297
  127SOPE    C113586   0.165   0.047   2.704 -0.1428 -0.1952 -1.6150
  127SOPE    HA13587   0.158  -0.062   2.725 -2.6258  0.4164  1.5845
  127SOPE    HB13588   0.088   0.081   2.776  1.8410 -2.2893  1.7938
  127SOPE    C213589   0.304   0.110   2.754 -0.0454 -0.5731  0.3691
  127SOPE    HS13590   0.394   0.061   2.711  0.7312  1.1031 -0.0270
  127SOPE   O2113591   0.307   0.109   2.902  0.1830 -0.2423 -0.7377
  127SOPE   C2113592   0.427   0.087   2.955 -0.2627  0.1330  0.4977
  127SOPE   O2213593   0.521   0.042   2.893 -0.3481 -0.5263 -0.6572
  127SOPE   C2213594   0.429   0.107   3.108 -0.4318 -0.4863  0.3144
  127SOPE   H2R13595   0.490   0.026   3.154  4.4947  1.7796 -1.4515
  127SOPE   H2S13596   0.325   0.090   3.141 -0.8825 -1.5142 -1.4693
  127SOPE    C313597   0.321   0.257   2.707 -0.1364 -0.5093  0.6033
  127SOPE    HX13598   0.228   0.316   2.710 -0.7417 -1.1992 -1.9793
  127SOPE    HY13599   0.341   0.258   2.598  0.8039 -2.6949  0.7032
  127SOPE   O3113600   0.429   0.327   2.781 -0.2998 -0.0380 -0.1627
  127SOPE   C3113601   0.558   0.314   2.731  0.0127 -0.3416 -0.5698
  127SOPE   O3213602   0.579   0.270   2.618 -0.0706  0.2618  0.4684
  127SOPE   C3213603   0.666   0.341   2.835  0.2030  0.0293  0.1332
  127SOPE   H2X13604   0.687   0.251   2.896  1.8974 -0.0017 -0.4385
  127SOPE   H2Y13605   0.615   0.417   2.899 -2.6481 -0.9188 -0.8491
  127SOPE   C2313606   0.485   0.237   3.171 -0.3684 -0.4342  0.1569
  127SOPE   H3R13607   0.594   0.248   3.152  0.2325  0.3271  3.4800
  127SOPE   H3S13608   0.490   0.227   3.281  0.7285 -1.1544  0.0508
  127SOPE   C2413609   0.410   0.364   3.139 -0.4703  0.0397 -0.1992
  127SOPE   H4R13610   0.376   0.370   3.034 -0.3087 -2.7350 -0.4897
  127SOPE   H4S13611   0.313   0.375   3.191 -0.8463 -0.5161 -0.7724
  127SOPE   C2513612   0.491   0.485   3.178 -0.0716  0.3334 -0.2870
  127SOPE   H5R13613   0.522   0.468   3.284 -0.4119 -1.2681 -0.4223
  127SOPE   H5S13614   0.582   0.500   3.117 -0.2284  2.1502 -0.1485
  127SOPE   C2613615   0.418   0.619   3.149 -0.2114  0.7035 -0.3106
  127SOPE   H6R13616   0.384   0.637   3.045  0.2032  2.2323 -0.2078
  127SOPE   H6S13617   0.328   0.623   3.214  0.6249  2.9846  0.8197
  127SOPE   C2713618   0.509   0.735   3.194  0.2526  0.2008 -0.3548
  127SOPE   H7R13619   0.561   0.712   3.290 -0.2677  0.0629 -0.0968
  127SOPE   H7S13620   0.589   0.727   3.118 -0.9280  0.8576 -1.6926
  127SOPE   C2813621   0.434   0.862   3.208  0.5905  0.3952  0.9801
  127SOPE   H8R13622   0.395   0.893   3.109  1.3596  0.7877  0.7875
  127SOPE   H8S13623   0.344   0.834   3.265 -2.6703  1.1328 -3.3133
  127SOPE   C2913624   0.521   0.969   3.269  0.7567 -1.2281  0.3913
  127SOPE   H9113625   0.594   1.017   3.202 -0.9103  1.9167  0.6942
  127SOPE  C21013626   0.504   1.001   3.402  0.5141  0.9335  0.2445
  127SOPE  H10113627   0.568   1.078   3.447  0.8657  1.2543 -0.7723
  127SOPE  C21113628   0.411   0.934   3.502  0.0656  0.4163 -0.4084
  127SOPE  H11R13629   0.402   0.826   3.477  1.6505 -0.1067  1.0797
  127SOPE  H11S13630   0.307   0.972   3.492 -0.4086 -0.6184  0.5185
  127SOPE  C21213631   0.451   0.942   3.649  0.6376  0.5996 -0.6683
  127SOPE  H12R13632   0.455   1.046   3.690 -0.9416  2.0198 -3.7320
  127SOPE  H12S13633   0.550   0.895   3.661 -0.7349 -2.6090 -0.9858
  127SOPE  C21313634   0.355   0.857   3.741  0.0395 -0.0464 -0.0805
  127SOPE  H13R13635   0.352   0.747   3.721 -0.6892  0.1169 -0.9354
  127SOPE  H13S13636   0.251   0.894   3.732  0.8620  2.1764 -1.1455
  127SOPE  C21413637   0.378   0.884   3.891 -0.0337  1.2938  0.0872
  127SOPE  H14R13638   0.296   0.840   3.952  1.8486  0.7381  2.3737
  127SOPE  H14S13639   0.376   0.994   3.900  1.8520  1.4055 -0.3619
  127SOPE  C21513640   0.507   0.830   3.955 -0.1005  0.1863 -0.3899
  127SOPE  H15R13641   0.506   0.849   4.064  2.1841  2.8216 -0.7029
  127SOPE  H15S13642   0.589   0.894   3.916  0.2750 -1.2908 -2.1345
  127SOPE  C21613643   0.523   0.689   3.910 -0.4014 -0.0127 -0.3548
  127SOPE  H16R13644   0.561   0.696   3.805  0.3497 -0.9968 -0.1649
  127SOPE  H16S13645   0.429   0.630   3.908 -0.5731  0.2635 -1.6309
  127SOPE  C21713646   0.649   0.611   3.963 -0.3657 -0.7441 -0.1631
  127SOPE  H17R13647   0.739   0.650   3.911 -0.6679  1.8061  1.0695
  127SOPE  H17S13648   0.630   0.503   3.945 -0.2445 -0.9846  1.1091
  127SOPE  C21813649   0.678   0.619   4.116 -0.2245 -0.2176  0.5640
  127SOPE  H18R13650   0.588   0.584   4.172 -1.9039  3.3530  0.4014
  127SOPE  H18S13651   0.694   0.724   4.148  1.5199 -0.2399 -0.1706
  127SOPE  H18T13652   0.769   0.562   4.143 -0.1063  0.1990  1.0646
  127SOPE   C3313653   0.795   0.406   2.772  0.5473  0.9201 -0.2435
  127SOPE   H3X13654   0.776   0.511   2.739  1.6859  1.5995  1.1677
  127SOPE   H3Y13655   0.822   0.345   2.683  0.8540  0.2176  0.3195
  127SOPE   C3413656   0.906   0.396   2.877  0.1596  0.2483  0.1027
  127SOPE   H4X13657   0.993   0.451   2.835  0.5586 -1.4286 -1.3955
  127SOPE   H4Y13658   0.938   0.290   2.891  1.2836  0.4209 -1.0144
  127SOPE   C3513659   0.855   0.454   3.015 -0.3209 -0.0642 -0.2464
  127SOPE   H5X13660   0.826   0.369   3.080  1.7156 -1.5900 -1.1943
  127SOPE   H5Y13661   0.773   0.527   3.002  1.4607  2.5085  1.8021
  127SOPE   C3613662   0.961   0.539   3.093  0.2118  0.6200 -0.0952
  127SOPE   H6X13663   0.903   0.582   3.178 -0.8890  0.9014 -0.9702
  127SOPE   H6Y13664   0.991   0.626   3.031 -0.0028  0.1209 -0.9047
  127SOPE   C3713665   1.081   0.460   3.145 -0.4429  0.0682  0.8824
  127SOPE   H7X13666   1.161   0.537   3.157  0.6639 -1.1712  1.5980
  127SOPE   H7Y13667   1.120   0.402   3.059  2.1518  2.0558  0.5534
  127SOPE   C3813668   1.059   0.367   3.259  0.0536  0.1699  0.2770
  127SOPE   H8X13669   0.993   0.283   3.231  0.4832  0.2032 -0.8942
  127SOPE   H8Y13670   1.021   0.411   3.354 -1.1496 -1.0835  0.4013
  127SOPE   C3913671   1.189   0.293   3.299  0.7763 -0.4606 -0.0181
  127SOPE   H9X13672   1.263   0.355   3.353  1.6702 -2.0475  0.6349
  127SOPE   H9Y13673   1.235   0.264   3.202  1.0221  0.3903 -0.1574
  127SOPE  C31013674   1.162   0.180   3.393 -0.0279  0.5564  0.2171
  127SOPE  H10X13675   1.239   0.100   3.385 -2.4087 -1.8014 -0.6045
  127SOPE  H10Y13676   1.075   0.125   3.353  0.3634  0.5527 -0.6479
  127SOPE  C31113677   1.141   0.215   3.532 -0.0981 -0.2530  0.5965
  127SOPE  H11X13678   1.094   0.122   3.571  2.1831 -2.3751 -1.3742
  127SOPE  H11Y13679   1.065   0.295   3.546  1.8171  1.6300  0.8154
  127SOPE  C31213680   1.273   0.245   3.616 -0.1391 -0.0267  0.4461
  127SOPE  H12X13681   1.310   0.345   3.585  1.2789 -0.0865  1.8471
  127SOPE  H12Y13682   1.342   0.165   3.583 -0.9778  0.4125 -2.7496
  127SOPE  C31313683   1.241   0.237   3.770 -1.0124 -0.1240  0.4546
  127SOPE  H13X13684   1.341   0.245   3.819  0.2071 -0.4956 -1.8156
  127SOPE  H13Y13685   1.199   0.138   3.798 -0.5003 -0.4204  0.1964
  127SOPE  C31413686   1.141   0.349   3.813 -0.0876  0.1670 -0.3736
  127SOPE  H14X13687   1.043   0.325   3.767 -0.4401  1.4860 -0.3698
  127SOPE  H14Y13688   1.170   0.452   3.781 -1.3330  0.5454 -0.3600
  127SOPE  C31513689   1.122   0.348   3.967 -0.1588 -0.2393 -1.0161
  127SOPE  H15X13690   1.074   0.439   4.008 -0.9180 -1.4252  0.8485
  127SOPE  H15Y13691   1.225   0.334   4.008  0.3689  0.8144 -1.9102
  127SOPE  C31613692   1.019   0.243   4.000  0.4551  0.3837  0.2531
  127SOPE  H16X13693   1.038   0.154   3.935 -1.0097 -1.9894  2.8602
  127SOPE  H16Y13694   0.922   0.284   3.963  1.4028  4.2287  1.5791
  127SOPE  C31713695   1.011   0.205   4.147 -0.4411  0.6194  0.8983
  127SOPE  H17X13696   0.905   0.182   4.170 -0.5192  1.9202  1.9940
  127SOPE  H17Y13697   1.023   0.301   4.202  0.0069  1.2780 -0.3260
  127SOPE  C31813698   1.125   0.102   4.191 -0.2121  0.2013 -0.2804
  127SOPE  H18X13699   1.155   0.106   4.298 -3.9686  2.3770  0.8954
  127SOPE  H18Y13700   1.212   0.109   4.123  0.8246 -4.2357  0.2815
  127SOPE  H18Z13701   1.085  -0.000   4.174 -0.2126  0.4603 -1.9797
  128SOPE     N13702   2.818   5.240   2.685 -0.1727  0.3608  0.0539
  128SOPE   HN113703   2.754   5.173   2.734  0.5420  1.1917  2.2647
  128SOPE   HN213704   2.779   5.336   2.673  0.2602  0.7567  1.6023
  128SOPE   HN313705   2.828   5.207   2.587  1.3118 -0.9805  0.6210
  128SOPE   C1213706   2.956   5.242   2.746 -0.4183 -0.5619  0.0662
  128SOPE  H12A13707   2.944   5.307   2.835 -0.0585  2.0973 -1.7323
  128SOPE  H12B13708   3.018   5.299   2.673 -2.7634  0.9924 -0.8359
  128SOPE   C1113709   3.000   5.103   2.780 -0.2754 -0.0326 -0.1361
  128SOPE  H11A13710   2.919   5.049   2.834  1.8237 -0.0792  3.2305
  128SOPE  H11B13711   3.083   5.113   2.853 -0.7453 -0.9712  0.5500
  128SOPE     P13712   3.105   4.889   2.687 -0.3281  0.2630 -0.1542
  128SOPE   O1313713   3.236   4.871   2.616  0.1445  0.2528  0.2683
  128SOPE   O1413714   3.004   4.793   2.649 -0.0664  0.3163 -0.8280
  128SOPE   O1213715   3.059   5.038   2.666 -0.3224  0.5118 -0.5213
  128SOPE   O1113716   3.134   4.877   2.842  1.1767 -0.2747 -0.7766
  128SOPE    C113717   3.252   4.826   2.904  0.2735  0.2659  0.2535
  128SOPE    HA13718   3.320   4.913   2.916  1.1237  0.1377 -2.8241
  128SOPE    HB13719   3.300   4.763   2.825 -1.8694 -1.3562  0.1569
  128SOPE    C213720   3.230   4.726   3.017 -0.6137  0.2298 -0.2989
  128SOPE    HS13721   3.162   4.646   2.983 -0.4675  0.2282 -0.5862
  128SOPE   O2113722   3.166   4.792   3.125 -0.4711  0.1777  0.0366
  128SOPE   C2113723   3.033   4.775   3.131 -0.2521 -0.4372 -0.6465
  128SOPE   O2213724   2.965   4.704   3.062 -0.3010  0.0707 -0.2094
  128SOPE   C2213725   2.970   4.862   3.238 -0.3016 -0.0218 -0.4581
  128SOPE   H2R13726   2.869   4.885   3.199 -0.3267  1.0651  0.2082
  128SOPE   H2S13727   3.017   4.962   3.232 -0.8116  0.1346 -2.4477
  128SOPE    C313728   3.368   4.663   3.062 -0.0603 -0.2182  0.1849
  128SOPE    HX13729   3.423   4.746   3.112 -0.1856  1.1809 -1.8674
  128SOPE    HY13730   3.416   4.634   2.966  0.6333  1.2407  0.0509
  128SOPE   O3113731   3.337   4.551   3.149 -0.1889  0.2051 -0.1844
  128SOPE   C3113732   3.431   4.531   3.244 -0.0516 -1.1098 -0.2720
  128SOPE   O3213733   3.539   4.591   3.249 -0.3456 -0.0627  0.2547
  128SOPE   C3213734   3.374   4.439   3.348 -0.7434  0.5138  0.1701
  128SOPE   H2X13735   3.290   4.380   3.305 -1.1664  0.3961  1.1535
  128SOPE   H2Y13736   3.334   4.500   3.431  1.8905  0.2825  1.7268
  128SOPE   C2313737   2.962   4.801   3.382 -0.4468  0.1368  1.5181
  128SOPE   H3R13738   3.070   4.780   3.392 -0.4811 -1.0532 -0.2698
  128SOPE   H3S13739   2.908   4.704   3.375 -1.8290  1.0000 -2.2446
  128SOPE   C2413740   2.903   4.879   3.494  0.2260 -0.1910  0.8784
  128SOPE   H4R13741   2.970   4.967   3.498  3.0450 -2.0388 -1.5741
  128SOPE   H4S13742   2.803   4.909   3.456  0.8657 -2.2155 -2.8610
  128SOPE   C2513743   2.900   4.814   3.628 -0.5437 -0.3799  0.1168
  128SOPE   H5R13744   2.851   4.715   3.611  0.4464 -0.8499 -0.0566
  128SOPE   H5S13745   3.004   4.795   3.660  0.4983 -0.9954 -3.2551
  128SOPE   C2613746   2.835   4.881   3.743 -0.2221  0.3293  0.4634
  128SOPE   H6R13747   2.867   4.987   3.750  0.0451  0.2005  1.2538
  128SOPE   H6S13748   2.725   4.871   3.737 -0.2878  1.3886 -0.4861
  128SOPE   C2713749   2.877   4.818   3.881  0.2567 -0.4788  0.6048
  128SOPE   H7R13750   2.842   4.712   3.880 -2.4300  0.3250 -0.0244
  128SOPE   H7S13751   2.985   4.831   3.904  0.3176 -0.1784  0.1617
  128SOPE   C2813752   2.804   4.890   4.001  0.0664 -0.0193 -0.5206
  128SOPE   H8R13753   2.847   4.992   4.000  1.3382 -0.5253 -1.6142
  128SOPE   H8S13754   2.695   4.904   3.987  0.1693  0.6862 -0.6522
  128SOPE   C2913755   2.842   4.833   4.132  0.3942  0.1447  0.0221
  128SOPE   H9113756   2.794   4.735   4.146  1.4726 -0.3566  0.3517
  128SOPE  C21013757   2.920   4.891   4.228  0.7942 -0.5696 -0.2497
  128SOPE  H10113758   2.940   4.822   4.311  0.9067 -2.2972 -1.6634
  128SOPE  C21113759   2.991   5.026   4.232 -0.5406  0.3939  0.5005
  128SOPE  H11R13760   2.942   5.099   4.165 -0.2396 -0.3539 -0.5637
  128SOPE  H11S13761   3.088   5.015   4.179 -1.6927  0.9335 -1.8315
  128SOPE  C21213762   3.010   5.080   4.371  0.1387 -0.0988  0.7427
  128SOPE  H12R13763   3.032   4.996   4.441 -1.0107  0.5325  1.9023
  128SOPE  H12S13764   2.910   5.111   4.408  0.4166  1.1276  0.4880
  128SOPE  C21313765   3.096   5.205   4.377 -0.0241  0.1963  0.1222
  128SOPE  H13R13766   3.189   5.170   4.328  0.9970 -0.3592  2.3309
  128SOPE  H13S13767   3.115   5.232   4.483  0.0386  0.6835 -0.0073
  128SOPE  C21413768   3.055   5.332   4.303  0.8088  0.1141 -0.0658
  128SOPE  H14R13769   2.959   5.376   4.338 -0.6533 -1.7613 -1.4612
  128SOPE  H14S13770   3.033   5.315   4.195 -1.4740  3.1287 -0.2078
  128SOPE  C21513771   3.161   5.444   4.314 -0.3172  0.5402 -0.2556
  128SOPE  H15R13772   3.164   5.454   4.425 -0.8714  4.4007 -0.4469
  128SOPE  H15S13773   3.124   5.537   4.265 -1.4744  0.5732  0.6318
  128SOPE  C21613774   3.297   5.414   4.246 -0.0583  0.2891  0.9220
  128SOPE  H16R13775   3.344   5.318   4.278 -0.6400 -0.0066  0.8991
  128SOPE  H16S13776   3.363   5.501   4.268 -0.8348  1.5105 -1.3487
  128SOPE  C21713777   3.287   5.392   4.092 -0.2161  0.3567  0.2905
  128SOPE  H17R13778   3.192   5.340   4.068  0.0551  0.6563 -1.5411
  128SOPE  H17S13779   3.374   5.332   4.057 -0.4365  0.7316 -0.9285
  128SOPE  C21813780   3.299   5.528   4.016 -0.1994 -0.5464 -0.3773
  128SOPE  H18R13781   3.406   5.559   4.027  0.3691 -2.5391  0.1827
  128SOPE  H18S13782   3.222   5.604   4.040  1.0111  0.9251 -0.9604
  128SOPE  H18T13783   3.284   5.508   3.908  0.4258 -0.4243 -0.4962
  128SOPE   C3313784   3.487   4.336   3.392  0.5947 -0.0672 -0.2622
  128SOPE   H3X13785   3.560   4.401   3.444 -3.9906  3.8640  1.9936
  128SOPE   H3Y13786   3.530   4.292   3.299  0.2650  0.0581 -0.4732
  128SOPE   C3413787   3.439   4.231   3.482  0.4938 -0.4498 -0.5163
  128SOPE   H4X13788   3.529   4.168   3.501  0.7332 -0.2048 -0.8250
  128SOPE   H4Y13789   3.354   4.180   3.433  1.0887 -1.4539 -0.5343
  128SOPE   C3513790   3.380   4.277   3.614 -0.0713 -0.8551 -0.1788
  128SOPE   H5X13791   3.334   4.182   3.647 -1.0626 -1.1195 -2.1889
  128SOPE   H5Y13792   3.300   4.353   3.601  0.4455 -0.3051 -0.1783
  128SOPE   C3613793   3.484   4.338   3.715  0.3784  0.5694 -0.2342
  128SOPE   H6X13794   3.548   4.407   3.655 -0.3974  0.4680 -1.2143
  128SOPE   H6Y13795   3.542   4.253   3.755 -1.8355 -1.1234 -0.4390
  128SOPE   C3713796   3.424   4.412   3.834 -0.3596 -0.0503  0.1985
  128SOPE   H7X13797   3.352   4.488   3.796  0.8701  1.2961  0.4416
  128SOPE   H7Y13798   3.497   4.458   3.903 -0.4134 -0.8658  0.8073
  128SOPE   C3813799   3.334   4.320   3.924  0.3481 -0.2141 -0.0099
  128SOPE   H8X13800   3.385   4.223   3.941 -2.1081 -1.6609 -0.4700
  128SOPE   H8Y13801   3.243   4.315   3.861 -0.0765 -1.7444  0.6701
  128SOPE   C3913802   3.295   4.400   4.055 -0.6904  0.0212  0.6436
  128SOPE   H9X13803   3.204   4.355   4.101 -0.9551 -0.6970 -0.5423
  128SOPE   H9Y13804   3.269   4.501   4.017 -2.0565 -0.6827 -0.4048
  128SOPE  C31013805   3.398   4.404   4.162  0.3641  0.6735 -0.2958
  128SOPE  H10X13806   3.475   4.482   4.143  0.6426  0.0314 -1.8949
  128SOPE  H10Y13807   3.446   4.304   4.153 -3.1969 -1.1017 -1.7207
  128SOPE  C31113808   3.353   4.422   4.306  0.3692  0.2322 -0.7523
  128SOPE  H11X13809   3.306   4.519   4.333 -0.2427 -0.6320  1.6076
  128SOPE  H11Y13810   3.447   4.398   4.360 -1.1903 -2.1625  1.1197
  128SOPE  C31213811   3.250   4.320   4.355 -0.3851 -0.0310  0.5202
  128SOPE  H12X13812   3.276   4.222   4.309  1.1917 -0.1164  1.5059
  128SOPE  H12Y13813   3.145   4.337   4.321  0.5055  0.0275 -2.4591
  128SOPE  C31313814   3.254   4.316   4.506 -0.1000 -0.1039 -0.3946
  128SOPE  H13X13815   3.212   4.411   4.547 -2.0073 -1.1292  0.1236
  128SOPE  H13Y13816   3.354   4.283   4.543  0.7226  2.5557 -0.0075
  128SOPE  C31413817   3.161   4.206   4.557 -0.2006  0.2785 -0.1246
  128SOPE  H14X13818   3.192   4.113   4.506  1.5387  0.2268  0.9769
  128SOPE  H14Y13819   3.053   4.215   4.531  0.0177  0.9670 -0.8521
  128SOPE  C31513820   3.174   4.190   4.707  0.4539  0.3850 -0.0306
  128SOPE  H15X13821   3.170   4.290   4.755  0.0244  0.9926 -1.2839
  128SOPE  H15Y13822   3.270   4.143   4.736 -1.2226 -1.7000  2.5884
  128SOPE  C31613823   3.072   4.093   4.766 -0.2515  0.7321  0.2845
  128SOPE  H16X13824   3.091   3.989   4.731  0.1977 -0.2628  3.2232
  128SOPE  H16Y13825   2.975   4.132   4.729 -1.4962 -1.5576  0.8767
  128SOPE  C31713826   3.074   4.094   4.918  0.3927 -0.1027 -0.1321
  128SOPE  H17X13827   3.067   4.201   4.949  0.0155  0.8101 -3.0878
  128SOPE  H17Y13828   3.169   4.048   4.954 -0.3607 -1.6949 -0.0895
  128SOPE  C31813829   2.968   4.005   4.988  0.3163 -0.0308  0.6021
  128SOPE  H18X13830   2.977   3.897   4.967 -0.4438  0.0073  0.0097
  128SOPE  H18Y13831   2.868   4.046   4.958  1.2527  1.3566 -0.7829
  128SOPE  H18Z13832   2.976   4.010   5.098 -0.4872 -0.5258  0.6939
  129OSM      N13833   2.129   1.988   7.620 -0.2596  0.4414  0.5440
  129OSM    C1513834   2.034   2.101   7.618  0.1235 -0.1358  0.2008
  129OSM   H15A13835   1.940   2.076   7.570 -0.9859  0.7619  1.8163
  129OSM   H15B13836   2.078   2.185   7.567 -1.1585  0.5208  0.1519
  129OSM   H15C13837   2.019   2.135   7.719  3.1665  0.0056  0.7064
  129OSM    C1413838   2.249   2.038   7.688 -0.1937  0.4423  0.1901
  129OSM   H14A13839   2.278   2.137   7.656 -2.9466  2.1824  2.5799
  129OSM   H14B13840   2.329   1.969   7.667 -0.1970  0.9935 -1.8165
  129OSM   H14C13841   2.235   2.042   7.795 -1.5310  2.6631 -0.0017
  129OSM    C1313842   2.073   1.870   7.693  0.0716 -0.4413 -0.0890
  129OSM   H13A13843   2.145   1.791   7.707 -0.3240 -0.8324 -0.2181
  129OSM   H13B13844   1.996   1.823   7.633  0.8253 -1.0367 -0.6075
  129OSM   H13C13845   2.030   1.898   7.788  0.0357 -0.2711 -0.1543
  129OSM    C1213846   2.177   1.954   7.485  0.3627  0.6914  0.8100
  129OSM   H12A13847   2.265   1.894   7.504  1.3420  0.7820 -2.7468
  129OSM   H12B13848   2.216   2.040   7.433 -0.8276  0.3396 -0.7661
  129OSM    C1113849   2.084   1.890   7.390 -1.2072  0.3791  0.2138
  129OSM   H11A13850   2.041   1.795   7.430  1.5824 -2.2041 -2.4414
  129OSM   H11B13851   2.145   1.858   7.303 -0.2252  0.5312  0.8355
  129OSM      P13852   2.012   2.089   7.240  0.0498 -0.1695  0.1942
  129OSM    O1313853   1.920   2.199   7.276  0.1017  0.2514 -0.6210
  129OSM    O1413854   2.159   2.116   7.236  0.8901  0.1632 -0.2588
  129OSM    O1113855   1.965   2.014   7.110  0.4670  0.1384  0.3094
  129OSM    O1213856   1.983   1.980   7.347 -0.5186 -0.3995 -0.2135
  129OSM    C1S13857   1.981   2.074   6.978  0.5329  0.2033  0.0565
  129OSM    H1S13858   1.968   2.184   6.977 -1.5308  0.0023  0.2768
  129OSM    H1T13859   1.888   2.050   6.923  1.1236 -0.7119 -0.5621
  129OSM     NF13860   2.119   2.115   6.771 -0.3932 -0.4894  0.3449
  129OSM    HNF13861   2.092   2.071   6.686  0.3757  2.3639 -1.5091
  129OSM    C2S13862   2.113   2.042   6.897 -0.6793  0.4552 -0.1802
  129OSM    H2S13863   2.194   2.085   6.961 -0.5680  0.3327 -0.2383
  129OSM    C3S13864   2.147   1.887   6.893  0.3766  0.4407 -0.1131
  129OSM    H3S13865   2.072   1.835   6.829 -0.6418 -0.9303  2.0897
  129OSM     O313866   2.129   1.831   7.022  0.2721  0.4873  0.0027
  129OSM    HO313867   2.079   1.892   7.076  0.2580 -1.2081  1.9885
  129OSM    C4S13868   2.282   1.869   6.848 -0.2665  0.7891  0.0134
  129OSM    H4S13869   2.353   1.898   6.926  0.0979  1.1551 -0.4472
  129OSM    C5S13870   2.328   1.817   6.729  0.7854  0.1841  0.7510
  129OSM    H5S13871   2.251   1.780   6.660  0.8683 -0.0999  0.8075
  129OSM    C6S13872   2.457   1.778   6.675  0.3602 -0.2529  0.0328
  129OSM    H6S13873   2.439   1.690   6.610  2.5654 -0.4416 -0.4138
  129OSM    H6T13874   2.528   1.730   6.745  0.1698 -1.8327 -0.8088
  129OSM    C7S13875   2.518   1.890   6.590  0.0912  0.0403  0.6287
  129OSM    H7S13876   2.548   1.972   6.659 -0.8457  0.1232  0.9467
  129OSM    H7T13877   2.442   1.937   6.525  0.4714 -1.8599 -1.2810
  129OSM    C8S13878   2.644   1.852   6.507  0.2141 -0.3768 -0.2079
  129OSM    H8S13879   2.720   1.802   6.572  0.9991  1.9910  0.7833
  129OSM    H8T13880   2.687   1.946   6.467 -0.4054 -0.3191 -0.7479
  129OSM    C9S13881   2.612   1.760   6.399 -0.2939 -0.3093  0.7021
  129OSM    H9S13882   2.563   1.809   6.311  2.0527 -0.0819 -0.5530
  129OSM    H9T13883   2.547   1.677   6.435 -0.4974 -0.2659  0.4397
  129OSM   C10S13884   2.735   1.688   6.330 -0.8469  0.2912  0.0032
  129OSM   H10S13885   2.728   1.584   6.293 -1.0596 -0.6570  2.5270
  129OSM   H10T13886   2.808   1.681   6.414  0.1116 -0.9261 -0.8863
  129OSM   C11S13887   2.780   1.765   6.207 -0.4460 -0.6034  0.0480
  129OSM   H11S13888   2.880   1.731   6.173  1.2786  3.6787  0.2222
  129OSM   H11T13889   2.802   1.868   6.243 -1.1558 -0.6014  0.5217
  129OSM   C12S13890   2.672   1.768   6.097  0.6295 -0.6225  1.4527
  129OSM   H12S13891   2.591   1.842   6.110  0.5963 -0.4179  0.2116
  129OSM   H12T13892   2.610   1.677   6.105 -3.4327  1.5820 -1.4378
  129OSM   C13S13893   2.719   1.768   5.944  0.3189  0.1233  0.4360
  129OSM   H13S13894   2.642   1.719   5.881 -0.7873  3.2920 -0.8925
  129OSM   H13T13895   2.813   1.708   5.942 -0.2624 -0.8930  1.8880
  129OSM   C14S13896   2.742   1.908   5.896 -0.6645 -0.4923 -1.2593
  129OSM   H14S13897   2.837   1.948   5.939  0.0268  0.2165 -3.3069
  129OSM   H14T13898   2.658   1.972   5.930 -0.6560 -0.9826 -0.2870
  129OSM   C15S13899   2.751   1.937   5.744  0.0494 -0.3983  0.3482
  129OSM   H15S13900   2.666   1.875   5.707 -0.0526  0.2794 -0.5821
  129OSM   H15T13901   2.847   1.890   5.714  0.2764 -0.6330  1.3865
  129OSM   C16S13902   2.741   2.078   5.699 -0.9103 -0.0684  0.5500
  129OSM   H16S13903   2.822   2.139   5.746 -0.8218  0.0205  0.2802
  129OSM   H16T13904   2.646   2.120   5.739 -1.1363 -1.1661  1.1992
  129OSM   C17S13905   2.747   2.089   5.549 -0.3835 -0.9948  0.1868
  129OSM   H17S13906   2.690   2.002   5.511  0.6383 -0.0288 -4.1607
  129OSM   H17T13907   2.851   2.060   5.523 -0.5119 -2.1718  0.8971
  129OSM   C18S13908   2.691   2.224   5.495  0.2665 -0.0970  0.6061
  129OSM   H18S13909   2.587   2.242   5.527 -0.8756  0.1093 -2.8037
  129OSM   H18T13910   2.687   2.206   5.386 -0.5111  0.4186  0.5421
  129OSM   H18U13911   2.771   2.296   5.524  1.4664 -1.3914  0.5953
  129OSM    C1F13912   2.114   2.249   6.766  0.3805  0.1809  0.8009
  129OSM     OF13913   2.152   2.310   6.863 -0.2539 -0.2193 -0.2185
  129OSM    C2F13914   2.059   2.305   6.637 -0.2123 -0.8612 -0.3826
  129OSM    H2F13915   1.963   2.255   6.613 -1.4444  2.2199 -2.4589
  129OSM    H2G13916   2.131   2.291   6.555  0.7656 -1.1102  0.4942
  129OSM    C3F13917   2.022   2.450   6.662  0.0680 -0.2969  0.2928
  129OSM    H3F13918   2.093   2.505   6.728  1.6140 -1.4275 -0.3770
  129OSM    H3G13919   1.923   2.446   6.714  0.0577 -0.1746  0.2819
  129OSM    C4F13920   2.005   2.529   6.531  0.4362  0.8508  0.0021
  129OSM    H4F13921   1.954   2.456   6.465 -0.2388 -0.6442  2.0920
  129OSM    H4G13922   2.107   2.556   6.496  0.5918 -1.2702 -1.3542
  129OSM    C5F13923   1.930   2.659   6.544  0.1014  0.2893  0.7582
  129OSM    H5F13924   1.967   2.722   6.628  1.3265  1.1309 -0.3787
  129OSM    H5G13925   1.823   2.643   6.571  0.5005  0.0422  2.2845
  129OSM    C6F13926   1.935   2.749   6.410  0.1738  0.0391 -0.6426
  129OSM    H6F13927   2.041   2.761   6.379  0.3995 -0.3774 -0.0453
  129OSM    H6G13928   1.887   2.846   6.437  1.3964  1.2310 -2.5103
  129OSM    C7F13929   1.867   2.679   6.294  0.2345  0.2205  0.7444
  129OSM    H7F13930   1.764   2.656   6.330  0.5894 -3.1619 -0.0946
  129OSM    H7G13931   1.919   2.582   6.298 -1.3348 -0.6231  1.7432
  129OSM    C8F13932   1.880   2.747   6.159 -0.4790  0.2532  0.2952
  129OSM    H8F13933   1.855   2.692   6.066  1.7852  0.0733 -0.2708
  129OSM    H8G13934   1.989   2.770   6.154 -0.2750 -0.7679  0.0194
  129OSM    C9F13935   1.803   2.877   6.170  0.4253 -0.0265 -0.5720
  129OSM    H9F13936   1.815   2.931   6.265  0.0995 -0.5115 -0.2498
  129OSM   C10F13937   1.717   2.929   6.085  1.0718 -0.2777 -0.2109
  129OSM   H10F13938   1.683   3.033   6.096  1.5757  0.0585 -1.5740
  129OSM   C11F13939   1.682   2.873   5.950  0.6449 -0.0032  0.1756
  129OSM   H11F13940   1.591   2.929   5.920  1.4603  1.1339 -0.2205
  129OSM   H11G13941   1.645   2.768   5.960  1.5192 -0.6618 -2.5766
  129OSM   C12F13942   1.790   2.889   5.844  0.1055 -0.2502 -0.1163
  129OSM   H12F13943   1.871   2.818   5.871 -0.4933 -1.1591 -0.6489
  129OSM   H12G13944   1.824   2.994   5.831  1.7476 -0.7240  0.0962
  129OSM   C13F13945   1.728   2.854   5.708 -0.4838 -0.3960 -0.3352
  129OSM   H13F13946   1.648   2.924   5.676 -0.7269 -0.0818  0.9369
  129OSM   H13G13947   1.675   2.756   5.706 -2.1316  0.4255  0.7440
  129OSM   C14F13948   1.818   2.869   5.580  0.0547 -0.3214 -0.6363
  129OSM   H14F13949   1.869   2.966   5.599 -0.6817  0.0860 -0.6683
  129OSM   H14G13950   1.759   2.892   5.488  1.0178 -0.2568 -1.2563
  129OSM   C15F13951   1.904   2.744   5.559  0.0586  0.2557  0.7129
  129OSM   H15F13952   1.844   2.658   5.524  0.3082  0.6011 -0.5883
  129OSM   H15G13953   1.959   2.713   5.651 -0.6720 -1.3642  0.6339
  129OSM   C16F13954   2.004   2.753   5.447 -0.2098  0.4950 -0.0759
  129OSM   H16F13955   2.057   2.656   5.435  0.0599  0.7134 -0.6574
  129OSM   H16G13956   2.087   2.823   5.470  1.0747 -1.4325  1.5406
  129OSM   C17F13957   1.941   2.782   5.310 -0.3123 -0.2917  0.0483
  129OSM   H17F13958   1.908   2.888   5.311  3.1014  0.9172 -0.9375
  129OSM   H17G13959   1.843   2.731   5.313  0.3216 -1.5123  0.7166
  129OSM   C18F13960   2.017   2.737   5.185 -0.3426 -0.5469 -0.2830
  129OSM   H18F13961   2.043   2.630   5.175  0.5907 -0.3945  0.3316
  129OSM   H18G13962   2.116   2.785   5.169 -0.9057  1.2423  1.1822
  129OSM   H18H13963   1.947   2.758   5.102 -2.5344  3.9994  2.3260
  130OSM      N13964   2.844   4.299   7.160 -0.6956  0.7442  0.7842
  130OSM    C1513965   2.989   4.320   7.199  0.0849  0.3163 -0.3258
  130OSM   H15A13966   3.029   4.226   7.234  2.9414  0.7793 -1.9961
  130OSM   H15B13967   3.011   4.398   7.271  3.0428  1.1514 -1.9625
  130OSM   H15C13968   3.045   4.336   7.108 -0.6706 -0.4810 -0.9445
  130OSM    C1413969   2.840   4.182   7.063 -0.1107  0.6773 -0.3242
  130OSM   H14A13970   2.890   4.200   6.969  0.3677  0.7057 -0.0651
  130OSM   H14B13971   2.736   4.167   7.038  0.1326 -2.3198  0.1600
  130OSM   H14C13972   2.876   4.092   7.110  1.7279  2.0180  0.9752
  130OSM    C1313973   2.767   4.257   7.281 -0.3027  0.1123 -0.1187
  130OSM   H13A13974   2.804   4.160   7.311  2.1499  1.3201  1.1178
  130OSM   H13B13975   2.661   4.259   7.263 -0.0968 -0.7767 -1.6075
  130OSM   H13C13976   2.773   4.319   7.369 -3.0008 -0.9487  0.9097
  130OSM    C1213977   2.795   4.426   7.104  0.6908  0.1100 -0.3888
  130OSM   H12A13978   2.801   4.500   7.183  2.5697  0.1024 -0.4691
  130OSM   H12B13979   2.693   4.408   7.077 -0.5082  3.1856  1.5612
  130OSM    C1113980   2.868   4.488   6.984 -0.4039  0.7727  0.2459
  130OSM   H11A13981   2.802   4.559   6.930 -1.2873 -0.9311 -0.9744
  130OSM   H11B13982   2.882   4.416   6.901  0.9230  2.2293 -0.8528
  130OSM      P13983   2.996   4.673   7.117  0.2826  0.3792  0.0056
  130OSM    O1313984   2.957   4.626   7.253  0.0963 -0.0202  0.5974
  130OSM    O1413985   3.121   4.751   7.102  0.6492  0.1425 -0.4226
  130OSM    O1113986   2.878   4.757   7.065 -0.1734 -0.1330  0.2964
  130OSM    O1213987   2.993   4.552   7.015 -0.0482 -0.1910 -0.7400
  130OSM    C1S13988   2.918   4.839   6.948  0.3079  0.5015 -0.4543
  130OSM    H1S13989   2.990   4.793   6.877 -0.4347  0.7118 -1.3617
  130OSM    H1T13990   2.962   4.935   6.983 -1.2920  0.9247  0.4777
  130OSM     NF13991   2.850   4.922   6.732 -0.3182 -0.0084  0.4919
  130OSM    HNF13992   2.870   5.019   6.719  1.1240 -0.3150  0.1846
  130OSM    C2S13993   2.795   4.875   6.860 -0.3701 -0.1541  0.2552
  130OSM    H2S13994   2.736   4.783   6.844 -0.9784 -0.2371  2.5981
  130OSM    C3S13995   2.710   4.987   6.935  0.6180  1.1105 -0.5754
  130OSM    H3S13996   2.770   5.080   6.934  1.6944  0.6956 -5.7645
  130OSM     O313997   2.675   4.958   7.067 -0.2254  0.8880  0.3984
  130OSM    HO313998   2.732   4.883   7.082 -0.3247  1.2578  3.2308
  130OSM    C4S13999   2.586   5.005   6.848 -0.7916  0.0904  0.0935
  130OSM    H4S14000   2.617   5.060   6.758 -1.4466 -0.0567 -0.2340
  130OSM    C5S14001   2.464   4.960   6.867  0.1445  1.1534 -0.3649
  130OSM    H5S14002   2.441   4.898   6.955 -1.3696 -0.2414 -1.6582
  130OSM    C6S14003   2.339   4.987   6.781 -0.0109 -0.1853  0.2385
  130OSM    H6S14004   2.272   5.054   6.839  0.0656 -0.9643  1.2653
  130OSM    H6T14005   2.287   4.894   6.749 -1.6003  0.6466  0.3122
  130OSM    C7S14006   2.379   5.068   6.650 -0.5973 -0.5272  0.1934
  130OSM    H7S14007   2.447   5.155   6.664 -0.7838 -0.0337 -1.6896
  130OSM    H7T14008   2.292   5.119   6.602 -1.3731 -1.1427  0.9086
  130OSM    C8S14009   2.447   4.970   6.551 -0.0962 -0.5763  0.2564
  130OSM    H8S14010   2.379   4.883   6.536 -0.1839 -0.8464  2.0158
  130OSM    H8T14011   2.534   4.921   6.601  1.2174  0.2083 -1.1514
  130OSM    C9S14012   2.493   5.029   6.410 -0.0407 -0.0004  0.1078
  130OSM    H9S14013   2.411   5.027   6.335 -0.2217  1.6482  0.2359
  130OSM    H9T14014   2.567   4.954   6.371  1.7534  0.8849  1.6655
  130OSM   C10S14015   2.584   5.158   6.409 -0.0535 -0.2882 -0.1903
  130OSM   H10S14016   2.665   5.149   6.485  0.7358  0.3897 -0.9169
  130OSM   H10T14017   2.522   5.240   6.451  1.4189 -0.2128  2.0732
  130OSM   C11S14018   2.655   5.190   6.274 -0.1786  0.3637 -0.0093
  130OSM   H11S14019   2.730   5.111   6.255 -1.4529 -0.4674 -1.9116
  130OSM   H11T14020   2.698   5.292   6.261  0.4336  0.3144  1.4508
  130OSM   C12S14021   2.551   5.183   6.157  0.9151  0.0987  0.0322
  130OSM   H12S14022   2.467   5.251   6.184 -0.6380 -1.8538  0.3901
  130OSM   H12T14023   2.497   5.086   6.155 -0.8634  1.0322  0.4213
  130OSM   C13S14024   2.613   5.202   6.019  0.5135 -0.2482  0.3650
  130OSM   H13S14025   2.634   5.309   6.000  0.0050 -0.4214 -1.4119
  130OSM   H13T14026   2.548   5.166   5.935 -0.3973  0.1465  0.8850
  130OSM   C14S14027   2.737   5.112   5.980 -0.2623 -0.0176 -0.0748
  130OSM   H14S14028   2.734   5.003   5.999 -1.1060  0.4288  3.0826
  130OSM   H14T14029   2.820   5.159   6.037 -0.6549  0.1277  0.3877
  130OSM   C15S14030   2.780   5.124   5.830  0.0859  0.5727  0.1347
  130OSM   H15S14031   2.698   5.082   5.768  0.9078 -5.0953  2.2868
  130OSM   H15T14032   2.868   5.063   5.801  1.7218  3.0507 -0.4445
  130OSM   C16S14033   2.808   5.267   5.784 -0.6585  0.2631  0.7860
  130OSM   H16S14034   2.883   5.321   5.845  2.5541  1.0708 -3.3756
  130OSM   H16T14035   2.708   5.317   5.780 -0.4197  0.8452  1.8085
  130OSM   C17S14036   2.877   5.272   5.645 -0.2341  0.1284 -0.2197
  130OSM   H17S14037   2.805   5.230   5.572 -0.5389 -1.7470  1.0892
  130OSM   H17T14038   2.966   5.205   5.645  0.1272  0.6007 -0.1021
  130OSM   C18S14039   2.917   5.414   5.597 -0.3187  0.4203  0.2400
  130OSM   H18S14040   2.824   5.475   5.591 -0.7708 -0.3250 -0.4339
  130OSM   H18T14041   2.968   5.412   5.498 -1.8125  1.0213 -0.5671
  130OSM   H18U14042   2.994   5.455   5.667  0.3598 -1.6974  0.8007
  130OSM    C1F14043   2.889   4.847   6.634  0.0496  0.0268 -0.1422
  130OSM     OF14044   2.909   4.729   6.644  1.1623  0.5909  0.5174
  130OSM    C2F14045   2.905   4.916   6.503 -0.3046 -0.0122 -0.3491
  130OSM    H2F14046   2.959   5.009   6.529  2.6303 -1.9805  1.1851
  130OSM    H2G14047   2.807   4.963   6.480 -1.0947  1.0492  4.3245
  130OSM    C3F14048   2.973   4.839   6.392 -0.0537  0.1701 -0.4552
  130OSM    H3F14049   2.910   4.751   6.366 -0.1202  0.2267 -0.4858
  130OSM    H3G14050   3.070   4.793   6.423 -0.6506 -1.8015 -1.3670
  130OSM    C4F14051   2.984   4.922   6.265 -0.7392  0.2313 -0.2479
  130OSM    H4F14052   3.067   4.993   6.284  1.9138 -3.0268  1.4816
  130OSM    H4G14053   2.895   4.985   6.247 -2.1949 -1.6527  0.0343
  130OSM    C5F14054   3.027   4.824   6.154  0.2565 -0.5601  1.0374
  130OSM    H5F14055   2.951   4.745   6.135 -1.3232  1.2227 -0.4698
  130OSM    H5G14056   3.112   4.760   6.186 -1.1170 -2.1983  1.5403
  130OSM    C6F14057   3.058   4.889   6.022  0.1663 -0.0867 -0.2407
  130OSM    H6F14058   3.159   4.937   6.028  0.0682  0.1142 -0.1849
  130OSM    H6G14059   2.988   4.970   5.994  1.8894  0.8892 -2.0787
  130OSM    C7F14060   3.048   4.775   5.916 -0.4671 -0.7186  0.3641
  130OSM    H7F14061   2.960   4.707   5.926 -0.5454 -0.9337 -1.4678
  130OSM    H7G14062   3.143   4.719   5.927  1.4250  2.3014  0.4057
  130OSM    C8F14063   3.053   4.834   5.774 -0.3245  0.2732 -0.1299
  130OSM    H8F14064   3.136   4.909   5.768 -0.3239  0.8926  4.3600
  130OSM    H8G14065   2.964   4.900   5.762  0.2650  0.7219 -2.8850
  130OSM    C9F14066   3.046   4.728   5.668 -0.4864 -0.1646  0.8786
  130OSM    H9F14067   3.139   4.673   5.650 -0.3650  0.7953 -1.9942
  130OSM   C10F14068   2.945   4.706   5.583 -0.3800 -0.1779 -0.4657
  130OSM   H10F14069   2.963   4.615   5.524  1.5020 -2.8619  3.7318
  130OSM   C11F14070   2.804   4.764   5.583 -0.0776 -0.8242  0.2944
  130OSM   H11F14071   2.789   4.830   5.671  0.5526  0.3131 -0.4316
  130OSM   H11G14072   2.725   4.687   5.598 -1.0251  0.1162  0.2108
  130OSM   C12F14073   2.780   4.850   5.460  0.7684 -0.1591 -0.0174
  130OSM   H12F14074   2.859   4.928   5.453 -0.2562  0.8127 -1.2011
  130OSM   H12G14075   2.682   4.901   5.476  0.9190  0.3567 -0.6978
  130OSM   C13F14076   2.768   4.778   5.325 -0.3624 -0.0813 -0.8204
  130OSM   H13F14077   2.675   4.717   5.336  1.1025 -2.1750  0.7647
  130OSM   H13G14078   2.858   4.714   5.316  1.9425  2.6438  1.3002
  130OSM   C14F14079   2.747   4.876   5.203 -0.4993  0.4701 -0.0923
  130OSM   H14F14080   2.850   4.917   5.193  0.2780 -0.4895  2.7747
  130OSM   H14G14081   2.669   4.954   5.217  0.4922  1.5897 -0.6401
  130OSM   C15F14082   2.716   4.803   5.069 -0.1611 -0.8052  0.3429
  130OSM   H15F14083   2.614   4.760   5.076 -0.2157 -0.7329  0.0191
  130OSM   H15G14084   2.788   4.721   5.048 -1.3839 -1.0932 -3.4163
  130OSM   C16F14085   2.710   4.889   4.937  0.1763  0.1510  0.1760
  130OSM   H16F14086   2.612   4.941   4.929  0.3351  0.2021 -1.8584
  130OSM   H16G14087   2.697   4.819   4.852  3.7593 -1.2325  0.6120
  130OSM   C17F14088   2.835   4.973   4.909 -0.1770 -0.2641  0.6676
  130OSM   H17F14089   2.918   4.900   4.925  0.7719  0.9368  1.4014
  130OSM   H17G14090   2.842   5.058   4.980 -1.0526 -0.7406  1.3456
  130OSM   C18F14091   2.847   5.019   4.763 -0.0434 -0.2234  0.3317
  130OSM   H18F14092   2.767   5.094   4.742 -1.7761 -1.4521  2.1478
  130OSM   H18G14093   2.836   4.940   4.685 -2.2480  0.9801 -0.6750
  130OSM   H18H14094   2.951   5.057   4.751 -0.6940  1.5266 -0.0966
  131OSM      N14095   1.273   6.449   7.248 -0.3977 -0.4585  0.1148
  131OSM    C1514096   1.271   6.550   7.358  0.2186  0.8435  0.3706
  131OSM   H15A14097   1.342   6.629   7.341  1.5007 -0.4976 -0.8878
  131OSM   H15B14098   1.319   6.503   7.442  2.3826  1.3293 -0.5269
  131OSM   H15C14099   1.172   6.591   7.373 -0.9600 -1.5347 -0.3809
  131OSM    C1414100   1.171   6.343   7.282 -0.4820 -0.6334 -0.2357
  131OSM   H14A14101   1.187   6.326   7.388  0.6157 -0.2078 -0.3163
  131OSM   H14B14102   1.182   6.262   7.212  1.9530 -1.2157  0.7048
  131OSM   H14C14103   1.070   6.381   7.280 -0.3754 -0.2383  0.8532
  131OSM    C1314104   1.244   6.515   7.117 -0.2641 -0.2800  0.2257
  131OSM   H13A14105   1.333   6.556   7.070 -0.2814 -1.1163 -0.5593
  131OSM   H13B14106   1.170   6.594   7.109 -0.0015 -0.0531 -0.0093
  131OSM   H13C14107   1.212   6.440   7.047  1.5587 -0.9969  0.1126
  131OSM    C1214108   1.412   6.385   7.247 -0.3298  0.4666  0.9761
  131OSM   H12A14109   1.424   6.345   7.346 -4.7022 -1.9006  0.8092
  131OSM   H12B14110   1.482   6.468   7.245 -1.1440  1.2145  2.3077
  131OSM    C1114111   1.439   6.271   7.138 -0.0478 -0.8429  0.2672
  131OSM   H11A14112   1.548   6.250   7.146  0.1483 -0.1463 -0.3808
  131OSM   H11B14113   1.434   6.307   7.033  0.4194 -3.2276 -0.6251
  131OSM      P14114   1.411   6.041   7.238 -0.0235 -0.2838  0.2605
  131OSM    O1314115   1.532   6.086   7.318  0.5113  0.6500 -0.3464
  131OSM    O1414116   1.306   5.968   7.302  0.7497  0.1182 -0.1964
  131OSM    O1114117   1.468   5.952   7.121  0.1764 -0.1493 -0.0941
  131OSM    O1214118   1.352   6.158   7.148  0.0807  0.3586 -0.2137
  131OSM    C1S14119   1.401   5.864   7.036 -0.4053 -0.5144 -0.1857
  131OSM    H1S14120   1.301   5.844   7.081  1.1062 -0.5801  3.4529
  131OSM    H1T14121   1.459   5.773   7.011 -1.1385 -0.9206 -0.4623
  131OSM     NF14122   1.302   5.823   6.814  0.4833  0.2625 -0.2076
  131OSM    HNF14123   1.355   5.790   6.737 -0.8102 -0.8444 -0.6751
  131OSM    C2S14124   1.361   5.929   6.896  1.3917 -0.3598  0.2121
  131OSM    H2S14125   1.287   6.011   6.908  1.9648  0.7744 -2.9714
  131OSM    C3S14126   1.489   5.993   6.828 -0.7230  0.3985 -0.0014
  131OSM    H3S14127   1.548   5.911   6.783  0.8572  2.9464 -2.9154
  131OSM     O314128   1.576   6.077   6.909 -0.2574  0.1166 -0.0436
  131OSM    HO314129   1.538   6.063   6.996 -0.4963 -0.9420 -0.3038
  131OSM    C4S14130   1.442   6.060   6.705 -0.0252  0.5485  0.5714
  131OSM    H4S14131   1.464   6.000   6.614  1.0312  0.9497  0.5414
  131OSM    C5S14132   1.392   6.182   6.681  0.4433 -0.3027  0.6084
  131OSM    H5S14133   1.361   6.253   6.760 -3.0950  0.4734 -1.2633
  131OSM    C6S14134   1.353   6.246   6.547  0.2813 -0.1178  0.0753
  131OSM    H6S14135   1.393   6.348   6.533 -0.5280  0.2866  0.5764
  131OSM    H6T14136   1.243   6.263   6.542  0.2222 -0.7243 -1.0773
  131OSM    C7S14137   1.392   6.167   6.416  0.4586 -0.3264 -0.3516
  131OSM    H7S14138   1.337   6.070   6.414 -0.0020 -0.0948 -3.0636
  131OSM    H7T14139   1.500   6.148   6.435  0.3367  1.7156  3.2840
  131OSM    C8S14140   1.361   6.245   6.281  0.5235 -0.1747  0.3762
  131OSM    H8S14141   1.411   6.343   6.290  3.6572 -1.3934 -1.8375
  131OSM    H8T14142   1.251   6.260   6.281  0.6127  0.4735  0.5724
  131OSM    C9S14143   1.409   6.153   6.167 -0.2557 -0.8622  0.6220
  131OSM    H9S14144   1.364   6.052   6.176  0.5088 -1.4342 -1.3567
  131OSM    H9T14145   1.517   6.136   6.185  0.3360  0.3837 -1.3614
  131OSM   C10S14146   1.403   6.209   6.025  0.8241 -0.2731  0.3133
  131OSM   H10S14147   1.462   6.150   5.953 -1.9651  0.4242 -2.7994
  131OSM   H10T14148   1.460   6.304   6.035  0.1767  0.1904 -0.2748
  131OSM   C11S14149   1.255   6.226   5.970  0.0209 -0.0865  0.3041
  131OSM   H11S14150   1.197   6.309   6.015  0.7388  1.4071 -1.4402
  131OSM   H11T14151   1.193   6.136   5.993  2.1315 -1.9801 -0.9546
  131OSM   C12S14152   1.246   6.249   5.821 -0.5647  0.1588 -1.0690
  131OSM   H12S14153   1.137   6.253   5.800 -0.8000  0.1487  0.1242
  131OSM   H12T14154   1.291   6.160   5.771 -0.9983 -0.6129 -0.1284
  131OSM   C13S14155   1.316   6.377   5.768  0.7177  0.6283 -0.3744
  131OSM   H13S14156   1.425   6.372   5.790  0.4101 -0.4627  1.0482
  131OSM   H13T14157   1.267   6.464   5.816  0.5717 -1.0266  2.7097
  131OSM   C14S14158   1.289   6.402   5.614 -0.0993 -0.9455  0.0311
  131OSM   H14S14159   1.179   6.405   5.600 -0.1726 -1.9996  0.3540
  131OSM   H14T14160   1.329   6.312   5.564  0.9968 -0.1233 -0.6301
  131OSM   C15S14161   1.360   6.519   5.545 -1.4675  0.7213 -0.3459
  131OSM   H15S14162   1.468   6.493   5.546 -0.8541  3.0454  0.5918
  131OSM   H15T14163   1.346   6.601   5.619  1.5131 -0.6861  2.0127
  131OSM   C16S14164   1.324   6.563   5.405  0.0523  0.1434  0.2076
  131OSM   H16S14165   1.226   6.615   5.417 -0.7692 -1.0014 -1.1971
  131OSM   H16T14166   1.307   6.479   5.334 -0.7203  1.3101 -1.0305
  131OSM   C17S14167   1.432   6.656   5.337 -0.1945 -0.0947 -0.7992
  131OSM   H17S14168   1.518   6.588   5.315 -0.5826 -0.5652 -0.8887
  131OSM   H17T14169   1.458   6.737   5.407  3.0205 -1.6203 -0.0177
  131OSM   C18S14170   1.367   6.705   5.203  0.1605 -0.1554  0.2957
  131OSM   H18S14171   1.433   6.770   5.142 -0.5768  0.6745  0.3565
  131OSM   H18T14172   1.279   6.767   5.229 -0.1673 -0.5450  0.1308
  131OSM   H18U14173   1.337   6.618   5.142 -2.9075  1.0470 -0.0990
  131OSM    C1F14174   1.178   5.770   6.835  0.3507 -0.0661 -0.1114
  131OSM     OF14175   1.106   5.798   6.934  0.1856  0.2594  0.6628
  131OSM    C2F14176   1.137   5.680   6.727  0.0072 -0.6455  0.1743
  131OSM    H2F14177   1.078   5.597   6.771 -1.1489 -0.1542 -0.4139
  131OSM    H2G14178   1.226   5.639   6.674 -0.5778  1.4481 -2.6520
  131OSM    C3F14179   1.045   5.753   6.620 -0.0704  0.3411 -0.0307
  131OSM    H3F14180   0.951   5.778   6.673 -0.4514 -0.0000 -0.5432
  131OSM    H3G14181   1.029   5.684   6.534 -0.0145  0.9696 -0.5610
  131OSM    C4F14182   1.090   5.890   6.555  1.1135  0.3689 -0.3963
  131OSM    H4F14183   1.175   5.866   6.487  0.0672  0.3062 -1.7242
  131OSM    H4G14184   1.118   5.955   6.641  0.6556 -1.5743  1.2927
  131OSM    C5F14185   0.986   5.959   6.470  0.0736  0.0562 -0.3545
  131OSM    H5F14186   0.936   6.034   6.536 -0.3575  2.1334 -2.8574
  131OSM    H5G14187   0.913   5.892   6.420  3.1979 -2.1210 -2.3189
  131OSM    C6F14188   1.045   6.046   6.361  0.2254 -0.1628 -0.2627
  131OSM    H6F14189   1.092   5.977   6.287  0.7649  0.2308 -0.2984
  131OSM    H6G14190   1.123   6.114   6.402 -0.1867 -1.3985  2.8152
  131OSM    C7F14191   0.944   6.128   6.285 -0.1521 -0.7722 -0.6914
  131OSM    H7F14192   0.992   6.217   6.239  0.4887  0.0402  1.4378
  131OSM    H7G14193   0.868   6.156   6.360  0.7441 -1.9520  0.6973
  131OSM    C8F14194   0.876   6.049   6.168 -0.6858  0.9178 -0.0287
  131OSM    H8F14195   0.841   5.949   6.200  1.4614 -0.2878 -1.2424
  131OSM    H8G14196   0.948   6.023   6.088 -1.0599 -0.0132 -0.0666
  131OSM    C9F14197   0.756   6.113   6.104  0.0402 -0.7357  0.4233
  131OSM    H9F14198   0.657   6.071   6.129  0.0454 -1.5656 -0.8251
  131OSM   C10F14199   0.754   6.192   5.997 -0.8927  0.6282 -0.2911
  131OSM   H10F14200   0.657   6.225   5.956 -0.7161  0.4991 -0.8252
  131OSM   C11F14201   0.884   6.241   5.930  0.4698 -0.5215  0.3121
  131OSM   H11F14202   0.967   6.168   5.936  0.7912 -0.2167 -0.3789
  131OSM   H11G14203   0.915   6.339   5.971 -0.3071 -0.4095  0.6636
  131OSM   C12F14204   0.859   6.259   5.782 -0.8226 -0.6966 -0.2706
  131OSM   H12F14205   0.948   6.304   5.733  0.2666 -0.6187  1.6859
  131OSM   H12G14206   0.784   6.340   5.772 -1.4548 -0.8995  2.1646
  131OSM   C13F14207   0.816   6.136   5.704  0.0246  0.0525 -0.1930
  131OSM   H13F14208   0.715   6.107   5.740  0.7545 -2.0470  0.3790
  131OSM   H13G14209   0.880   6.051   5.737  2.1684  0.7425 -2.2499
  131OSM   C14F14210   0.839   6.141   5.549  0.0831 -0.3363 -0.5712
  131OSM   H14F14211   0.941   6.183   5.537 -0.8999  2.7141  0.5398
  131OSM   H14G14212   0.775   6.220   5.502  1.0239 -0.8804 -2.8918
  131OSM   C15F14213   0.817   6.004   5.495 -0.2207  0.0928 -0.0147
  131OSM   H15F14214   0.721   5.962   5.532  0.4590 -0.4421  1.2074
  131OSM   H15G14215   0.896   5.942   5.541 -0.4785 -0.5893 -0.4751
  131OSM   C16F14216   0.828   6.002   5.343 -0.4752 -0.6376  0.1249
  131OSM   H16F14217   0.926   6.041   5.309 -0.0605 -1.2707  0.5872
  131OSM   H16G14218   0.743   6.069   5.319  0.7791  1.2070  0.6223
  131OSM   C17F14219   0.794   5.863   5.288 -0.0199  0.3500 -0.6739
  131OSM   H17F14220   0.695   5.826   5.321  0.3075 -0.5011 -0.6152
  131OSM   H17G14221   0.867   5.794   5.337  1.0888  1.7500 -0.2754
  131OSM   C18F14222   0.790   5.840   5.133 -0.1571  0.3933 -0.8397
  131OSM   H18F14223   0.809   5.740   5.089  2.0338  0.4536 -0.1362
  131OSM   H18G14224   0.875   5.901   5.096  0.8597 -0.4775  0.0231
  131OSM   H18H14225   0.698   5.892   5.097 -0.6567  0.4381  0.4416
  132OSM      N14226   3.165   1.799   6.982 -0.7635 -0.4900 -0.2511
  132OSM    C1514227   3.156   1.886   6.859  0.8031 -0.0441 -0.7522
  132OSM   H15A14228   3.129   1.986   6.890  1.3386 -0.2461  0.4273
  132OSM   H15B14229   3.069   1.851   6.805  1.5639 -2.2317 -0.6488
  132OSM   H15C14230   3.244   1.877   6.797  0.2707 -1.3572 -1.3424
  132OSM    C1414231   3.274   1.863   7.064 -0.4737  0.1979 -0.6775
  132OSM   H14A14232   3.234   1.955   7.102 -1.2322 -0.7165  0.8612
  132OSM   H14B14233   3.370   1.880   7.018 -0.1262  2.0434  0.6026
  132OSM   H14C14234   3.297   1.791   7.142  2.1899  0.9076 -0.7053
  132OSM    C1314235   3.043   1.798   7.065 -0.2223  0.6801 -0.1284
  132OSM   H13A14236   2.962   1.745   7.015 -0.1303 -0.2164  0.6399
  132OSM   H13B14237   3.007   1.896   7.092 -0.4281  0.5316  0.1397
  132OSM   H13C14238   3.049   1.746   7.159 -1.8732 -0.9149 -0.8204
  132OSM    C1214239   3.207   1.649   6.951 -0.4208 -0.6231  0.2591
  132OSM   H12A14240   3.301   1.654   6.898 -1.2089 -1.2521 -1.2401
  132OSM   H12B14241   3.127   1.613   6.889 -2.7306  1.4773  1.8349
  132OSM    C1114242   3.235   1.550   7.068  0.2857  0.3711  0.3020
  132OSM   H11A14243   3.229   1.447   7.028  3.3787  0.6770 -1.2328
  132OSM   H11B14244   3.149   1.553   7.138  0.5589 -0.8926  0.7163
  132OSM      P14245   3.504   1.556   7.085  0.8244 -0.1045  0.0323
  132OSM    O1314246   3.594   1.648   7.146 -0.1689 -0.1260  0.1798
  132OSM    O1414247   3.530   1.410   7.106 -0.6582  0.1426 -0.0934
  132OSM    O1114248   3.479   1.577   6.937  0.2543 -0.0184 -0.1666
  132OSM    O1214249   3.354   1.578   7.143  0.1778 -0.6201  0.7494
  132OSM    C1S14250   3.561   1.658   6.850 -0.5543  0.1382 -0.0871
  132OSM    H1S14251   3.658   1.681   6.898 -1.0034 -2.3901  2.3233
  132OSM    H1T14252   3.502   1.746   6.817  1.1099  1.2463 -0.2476
  132OSM     NF14253   3.673   1.686   6.625 -0.2427  1.2262  0.7093
  132OSM    HNF14254   3.637   1.731   6.545 -0.5803  0.6902  0.5535
  132OSM    C2S14255   3.587   1.589   6.707 -0.1131 -0.4014  0.5755
  132OSM    H2S14256   3.642   1.495   6.725 -0.9784 -1.3905 -1.6524
  132OSM    C3S14257   3.457   1.553   6.637  1.2681 -0.8451 -0.2258
  132OSM    H3S14258   3.421   1.651   6.599  1.5446 -1.0090 -0.9278
  132OSM     O314259   3.345   1.497   6.714  0.5610  0.2838  0.2799
  132OSM    HO314260   3.369   1.493   6.807  0.0271 -1.4230  0.3726
  132OSM    C4S14261   3.475   1.463   6.518 -0.0139  0.1059 -0.0329
  132OSM    H4S14262   3.518   1.364   6.540 -3.6955 -1.9236 -1.1050
  132OSM    C5S14263   3.457   1.494   6.389 -0.8430 -0.1995  0.0404
  132OSM    H5S14264   3.436   1.600   6.371  0.4677  0.1023  0.2026
  132OSM    C6S14265   3.497   1.404   6.270  0.2675 -0.7961  0.0400
  132OSM    H6S14266   3.511   1.302   6.310 -1.1830 -0.7577  0.6863
  132OSM    H6T14267   3.596   1.434   6.229 -0.5965  0.2826 -1.3785
  132OSM    C7S14268   3.400   1.397   6.146 -0.7345  0.1654 -0.4066
  132OSM    H7S14269   3.376   1.503   6.123  1.4636  0.9937  0.8490
  132OSM    H7T14270   3.304   1.346   6.169  0.0941 -1.0570  0.4469
  132OSM    C8S14271   3.462   1.331   6.014 -0.4666  0.6645  0.0395
  132OSM    H8S14272   3.482   1.223   6.031 -1.4216  0.6653  1.3298
  132OSM    H8T14273   3.562   1.379   6.006 -0.2468  0.3265  0.6417
  132OSM    C9S14274   3.369   1.331   5.894  0.4134 -0.4104  0.5287
  132OSM    H9S14275   3.279   1.395   5.904  1.1201  0.9619 -1.3453
  132OSM    H9T14276   3.331   1.227   5.893 -0.9328  0.0134 -2.0801
  132OSM   C10S14277   3.446   1.375   5.771 -0.9968  0.6244  0.4180
  132OSM   H10S14278   3.533   1.306   5.760 -1.3351  0.3386 -0.6665
  132OSM   H10T14279   3.491   1.473   5.799  1.2575 -0.0847 -0.5290
  132OSM   C11S14280   3.363   1.409   5.652 -0.0148 -0.0064  0.4207
  132OSM   H11S14281   3.298   1.497   5.670 -1.6963 -0.4626 -2.7003
  132OSM   H11T14282   3.303   1.317   5.629 -1.0633  0.7597 -0.0083
  132OSM   C12S14283   3.446   1.436   5.524 -0.3893  0.5688  0.6507
  132OSM   H12S14284   3.485   1.338   5.489  2.4144  2.4106 -1.7963
  132OSM   H12T14285   3.535   1.498   5.549 -0.1447 -0.4208  2.4284
  132OSM   C13S14286   3.358   1.499   5.414 -0.3432  0.2307 -0.5336
  132OSM   H13S14287   3.339   1.604   5.445 -0.6338  0.0131  0.0396
  132OSM   H13T14288   3.264   1.440   5.411  0.3327 -0.8734 -0.7478
  132OSM   C14S14289   3.443   1.492   5.283 -0.2526 -0.1018 -0.7165
  132OSM   H14S14290   3.482   1.389   5.272 -1.3167 -0.3845 -2.0998
  132OSM   H14T14291   3.527   1.561   5.309 -0.7783 -0.0828  1.1006
  132OSM   C15S14292   3.360   1.532   5.161  0.4442  0.2731  0.0247
  132OSM   H15S14293   3.418   1.574   5.076 -2.0991  1.2950 -1.3130
  132OSM   H15T14294   3.295   1.616   5.192 -0.0892 -0.7730  1.8648
  132OSM   C16S14295   3.275   1.417   5.122 -0.4226  0.0739  0.2480
  132OSM   H16S14296   3.180   1.447   5.074 -0.4704 -1.4572 -0.6882
  132OSM   H16T14297   3.252   1.351   5.208  2.6917 -1.2548  0.2058
  132OSM   C17S14298   3.336   1.324   5.018  0.0646 -0.1345  0.0391
  132OSM   H17S14299   3.423   1.267   5.057 -1.0320 -0.7223  1.7254
  132OSM   H17T14300   3.378   1.389   4.939  1.3694 -0.7727  0.1888
  132OSM   C18S14301   3.234   1.233   4.950  0.2630  0.6207  0.3725
  132OSM   H18S14302   3.145   1.292   4.917 -0.4966 -2.2429 -3.4350
  132OSM   H18T14303   3.191   1.172   5.032  1.7486 -1.8298 -0.5807
  132OSM   H18U14304   3.274   1.177   4.863 -2.2061 -0.1083 -0.3959
  132OSM    C1F14305   3.807   1.691   6.654 -0.7794 -0.9276  0.7425
  132OSM     OF14306   3.854   1.644   6.753  0.5088 -0.1671  0.0441
  132OSM    C2F14307   3.903   1.762   6.561 -0.5610  0.3895  0.1042
  132OSM    H2F14308   3.915   1.868   6.591 -3.1382  1.6722 -2.8193
  132OSM    H2G14309   3.854   1.758   6.461  0.2970 -1.6122 -0.2947
  132OSM    C3F14310   4.036   1.688   6.545  0.0467  0.4889 -0.8917
  132OSM    H3F14311   4.028   1.604   6.472  1.6110 -0.8334  0.3831
  132OSM    H3G14312   4.091   1.639   6.628 -0.1372  0.1939 -0.9445
  132OSM    C4F14313   4.154   1.772   6.482  0.5146  1.2790 -0.2237
  132OSM    H4F14314   4.242   1.707   6.466 -0.9734 -0.3281 -2.3059
  132OSM    H4G14315   4.177   1.849   6.559 -2.2298 -0.0555  2.1218
  132OSM    C5F14316   4.134   1.835   6.348 -0.3052 -0.3343  0.1219
  132OSM    H5F14317   4.028   1.865   6.334 -0.2020  0.2795  0.6314
  132OSM    H5G14318   4.149   1.759   6.268 -1.2617 -0.1976 -0.2015
  132OSM    C6F14319   4.217   1.966   6.328  0.0596  0.3083  0.2289
  132OSM    H6F14320   4.326   1.949   6.322  0.2967  0.5752  2.7733
  132OSM    H6G14321   4.199   2.035   6.413 -1.0522  0.1965  0.0977
  132OSM    C7F14322   4.194   2.042   6.195  0.0275  0.3210  0.1525
  132OSM    H7F14323   4.238   2.143   6.208 -2.1776  1.5838 -1.4729
  132OSM    H7G14324   4.085   2.065   6.187 -0.2571 -0.5656  1.2170
  132OSM    C8F14325   4.264   1.969   6.074  0.0126  0.0556  0.4103
  132OSM    H8F14326   4.205   1.878   6.048  1.6007 -1.0335  0.4388
  132OSM    H8G14327   4.360   1.930   6.114  0.5274  0.2872 -0.5617
  132OSM    C9F14328   4.292   2.046   5.947 -0.8479  0.4593 -0.2631
  132OSM    H9F14329   4.372   2.122   5.956 -1.4817  1.2353 -1.0560
  132OSM   C10F14330   4.215   2.057   5.834  0.0370 -0.0395  0.1317
  132OSM   H10F14331   4.249   2.130   5.759  0.7332 -0.8836 -0.3929
  132OSM   C11F14332   4.076   1.985   5.815 -0.4819  0.1267  0.0323
  132OSM   H11F14333   3.994   2.058   5.796 -1.3941 -0.9961 -0.4601
  132OSM   H11G14334   4.042   1.925   5.901 -1.9891 -1.4842 -1.5994
  132OSM   C12F14335   4.093   1.896   5.683  0.1352 -0.0213 -0.1886
  132OSM   H12F14336   3.992   1.849   5.679 -0.0322  0.2356  0.8438
  132OSM   H12G14337   4.162   1.813   5.709 -1.9721 -1.9677 -0.4753
  132OSM   C13F14338   4.109   1.969   5.559  0.2371  0.0199 -0.4552
  132OSM   H13F14339   4.212   2.008   5.546  0.4175 -0.5970 -0.9517
  132OSM   H13G14340   4.032   2.049   5.548  1.9257  1.8835  0.6098
  132OSM   C14F14341   4.087   1.873   5.441 -0.0440  0.3187  0.0875
  132OSM   H14F14342   3.981   1.838   5.436 -0.6063  2.1228 -3.5337
  132OSM   H14G14343   4.153   1.784   5.450 -0.6837 -0.2409 -0.4967
  132OSM   C15F14344   4.110   1.932   5.307  0.0509  0.7549 -0.2512
  132OSM   H15F14345   4.110   1.846   5.237  1.1284  1.3928 -1.0714
  132OSM   H15G14346   4.209   1.982   5.304  0.0081  0.8850  0.3872
  132OSM   C16F14347   4.002   2.021   5.242  0.3818  0.5887 -0.5877
  132OSM   H16F14348   3.976   2.113   5.299  2.9075  0.7549  0.3936
  132OSM   H16G14349   3.906   1.967   5.228 -0.1816  1.6970 -1.1977
  132OSM   C17F14350   4.041   2.069   5.103  0.7921  0.3903 -0.3466
  132OSM   H17F14351   3.959   2.116   5.044  1.6936 -1.3333 -3.1518
  132OSM   H17G14352   4.070   1.977   5.049 -1.3408  0.5190 -1.8568
  132OSM   C18F14353   4.155   2.163   5.089 -0.0465  0.4274  0.0728
  132OSM   H18F14354   4.140   2.265   5.132 -0.5649  1.3367 -2.1326
  132OSM   H18G14355   4.162   2.183   4.980 -0.9524  3.8299  0.5347
  132OSM   H18H14356   4.247   2.120   5.135 -0.6305 -1.3058 -0.3187
  133OSM      N14357   1.905   3.871   7.599 -0.1501 -0.3484 -0.3277
  133OSM    C1514358   1.952   3.901   7.741  0.0968  0.9721  0.6389
  133OSM   H15A14359   2.051   3.861   7.759 -0.4296 -1.3066 -1.1080
  133OSM   H15B14360   1.881   3.856   7.809 -1.7035  0.7056 -1.3313
  133OSM   H15C14361   1.948   4.004   7.776  1.3648  1.4657 -0.5548
  133OSM    C1414362   1.760   3.909   7.611 -0.2283  0.0427  0.3362
  133OSM   H14A14363   1.706   3.861   7.691 -3.0974  0.7165 -1.0542
  133OSM   H14B14364   1.709   3.895   7.516  0.2323 -1.3545  0.2807
  133OSM   H14C14365   1.764   4.016   7.625 -0.1196 -0.1624  2.0032
  133OSM    C1314366   1.979   3.958   7.500  0.3258 -0.2445 -0.0102
  133OSM   H13A14367   1.973   4.064   7.520 -0.6249 -0.3625  0.4228
  133OSM   H13B14368   1.920   3.948   7.410 -0.1341 -0.8169  0.3419
  133OSM   H13C14369   2.078   3.922   7.480  0.4063 -1.1600  1.8230
  133OSM    C1214370   1.930   3.727   7.563  0.1514 -0.3305  0.1594
  133OSM   H12A14371   1.873   3.677   7.640  0.5702 -3.1722 -1.2348
  133OSM   H12B14372   2.037   3.714   7.579  0.3719  2.3890  1.4201
  133OSM    C1114373   1.900   3.666   7.419 -0.5554 -0.6767 -0.4173
  133OSM   H11A14374   1.793   3.677   7.391 -0.1754  1.4852 -1.1699
  133OSM   H11B14375   1.898   3.555   7.432 -1.8001 -0.5235  1.1357
  133OSM      P14376   2.142   3.665   7.329  0.1697  0.1888 -0.1189
  133OSM    O1314377   2.219   3.784   7.371  0.1616 -0.0615 -0.3635
  133OSM    O1414378   2.150   3.549   7.414  0.1552 -0.3266 -0.1065
  133OSM    O1114379   2.185   3.613   7.182 -0.3511 -0.1669  0.3496
  133OSM    O1214380   1.993   3.709   7.313  0.0166 -0.0791 -0.2270
  133OSM    C1S14381   2.131   3.677   7.066 -0.1254  0.2324  0.0540
  133OSM    H1S14382   2.088   3.777   7.088  0.2366  1.2951 -3.4859
  133OSM    H1T14383   2.048   3.615   7.026 -0.8364  0.7457  0.7002
  133OSM     NF14384   2.190   3.799   6.863  0.0083  0.3398  0.1247
  133OSM    HNF14385   2.161   3.778   6.770  1.2526  0.8742 -0.4065
  133OSM    C2S14386   2.234   3.698   6.951  0.3013 -0.7536 -0.2708
  133OSM    H2S14387   2.325   3.742   6.998  1.8008 -2.1136 -1.7509
  133OSM    C3S14388   2.273   3.554   6.887 -0.2044  0.6147 -0.8737
  133OSM    H3S14389   2.182   3.505   6.847 -0.0874 -1.9973  1.6920
  133OSM     O314390   2.299   3.459   6.991 -0.1135 -0.2312 -0.0365
  133OSM    HO314391   2.261   3.507   7.066  1.2969  1.3127 -0.2428
  133OSM    C4S14392   2.384   3.551   6.787  0.3667 -0.0468  1.2620
  133OSM    H4S14393   2.344   3.566   6.686  0.9186 -2.0344  0.6998
  133OSM    C5S14394   2.518   3.547   6.797  0.5898  0.4026  0.1756
  133OSM    H5S14395   2.564   3.536   6.896  1.7550  0.9791 -0.2913
  133OSM    C6S14396   2.618   3.567   6.684  0.7218  0.0573 -0.4783
  133OSM    H6S14397   2.724   3.582   6.713  0.7694 -0.0918 -0.5720
  133OSM    H6T14398   2.584   3.663   6.640 -1.2540  0.5477  1.8786
  133OSM    C7S14399   2.606   3.455   6.585 -0.1269 -0.2353  0.0165
  133OSM    H7S14400   2.505   3.468   6.538  0.4056 -0.0799 -1.1246
  133OSM    H7T14401   2.623   3.362   6.642 -2.3590 -0.3576  0.5929
  133OSM    C8S14402   2.714   3.476   6.481 -0.1019  0.2114 -0.4376
  133OSM    H8S14403   2.718   3.387   6.415 -2.6428 -0.3409  0.0369
  133OSM    H8T14404   2.815   3.483   6.528  0.2881 -2.2277 -0.8148
  133OSM    C9S14405   2.702   3.602   6.394 -0.0889 -0.0826 -0.1608
  133OSM    H9S14406   2.682   3.692   6.456 -2.5217  0.2608 -1.3148
  133OSM    H9T14407   2.608   3.573   6.342  0.0393  0.0611 -0.4745
  133OSM   C10S14408   2.810   3.619   6.285  0.2542 -0.2341 -0.5628
  133OSM   H10S14409   2.798   3.526   6.226 -3.7402  0.4643 -1.1148
  133OSM   H10T14410   2.910   3.625   6.333 -0.3630  0.2242  0.7308
  133OSM   C11S14411   2.776   3.742   6.200  0.3124  0.0527 -0.5324
  133OSM   H11S14412   2.818   3.837   6.238  0.0949  0.8317 -2.1677
  133OSM   H11T14413   2.665   3.749   6.197  0.3625  1.5549  0.4208
  133OSM   C12S14414   2.819   3.724   6.054  0.0659 -0.3610 -0.7760
  133OSM   H12S14415   2.796   3.627   6.004 -1.6297  0.8171 -2.3786
  133OSM   H12T14416   2.927   3.697   6.060 -0.0830 -0.6020  2.3717
  133OSM   C13S14417   2.803   3.849   5.969 -0.4603 -0.5570 -0.2224
  133OSM   H13S14418   2.847   3.935   6.023 -1.7533 -0.8963  1.4666
  133OSM   H13T14419   2.695   3.875   5.957 -0.0565  0.2696 -2.5743
  133OSM   C14S14420   2.870   3.847   5.829 -0.4335 -0.7371  0.0588
  133OSM   H14S14421   2.851   3.748   5.783  1.6411 -0.4604 -1.5582
  133OSM   H14T14422   2.979   3.862   5.842 -0.1633 -2.9286  0.6962
  133OSM   C15S14423   2.809   3.949   5.726  0.0770 -0.0983 -0.9277
  133OSM   H15S14424   2.825   4.052   5.766 -1.1933  0.1384 -0.9742
  133OSM   H15T14425   2.698   3.937   5.721  0.0383 -0.4549  0.3737
  133OSM   C16S14426   2.864   3.932   5.577 -0.0387  0.0983  0.1719
  133OSM   H16S14427   2.975   3.939   5.586 -0.0970  0.6449  0.5345
  133OSM   H16T14428   2.847   4.025   5.518 -0.9867  2.3560  3.6841
  133OSM   C17S14429   2.806   3.817   5.496 -0.2422 -0.1060  0.9165
  133OSM   H17S14430   2.696   3.830   5.495 -0.5263 -2.1916 -0.7305
  133OSM   H17T14431   2.827   3.724   5.553 -1.7530 -1.4738 -0.6709
  133OSM   C18S14432   2.855   3.811   5.350  0.0534 -0.0594 -0.0920
  133OSM   H18S14433   2.825   3.906   5.303  0.0009 -1.0560 -2.2044
  133OSM   H18T14434   2.799   3.737   5.288  1.3862 -0.4609 -0.8761
  133OSM   H18U14435   2.964   3.789   5.337  0.0081 -0.5076  0.2837
  133OSM    C1F14436   2.173   3.926   6.895  0.2452  1.1399 -0.7705
  133OSM     OF14437   2.219   3.960   7.003  0.0488 -0.3306 -0.0981
  133OSM    C2F14438   2.104   4.019   6.810 -0.7217  0.1732  0.3432
  133OSM    H2F14439   2.143   4.008   6.706  0.0296  0.2158  0.6120
  133OSM    H2G14440   2.131   4.123   6.840  0.0265  0.3417 -0.8338
  133OSM    C3F14441   1.949   4.009   6.810  0.1364 -0.3222  0.5228
  133OSM    H3F14442   1.914   4.034   6.913 -0.5410 -2.6853  0.9306
  133OSM    H3G14443   1.905   3.911   6.781 -4.6803  1.5360  0.7633
  133OSM    C4F14444   1.877   4.111   6.719  0.5959 -0.5657  0.3158
  133OSM    H4F14445   1.940   4.202   6.723 -1.8127  1.2920 -0.9722
  133OSM    H4G14446   1.785   4.152   6.766  0.7192  0.9257 -0.6834
  133OSM    C5F14447   1.864   4.067   6.579 -0.1221  0.2219  0.6955
  133OSM    H5F14448   1.795   3.980   6.576  2.3342 -1.8334  0.3226
  133OSM    H5G14449   1.949   4.012   6.532 -2.1567 -0.5303 -2.4583
  133OSM    C6F14450   1.804   4.179   6.481  0.3445 -0.2964  0.3405
  133OSM    H6F14451   1.710   4.214   6.529 -1.4316 -0.9570 -2.4219
  133OSM    H6G14452   1.780   4.122   6.389  1.4063  0.4282 -0.4171
  133OSM    C7F14453   1.904   4.288   6.436 -0.5328  0.4877  0.1469
  133OSM    H7F14454   1.940   4.329   6.532  2.2874 -2.2929  0.4417
  133OSM    H7G14455   1.843   4.364   6.382  0.9023  1.9664  0.5336
  133OSM    C8F14456   2.020   4.234   6.358 -0.1020 -0.2835  0.8474
  133OSM    H8F14457   1.988   4.178   6.268 -0.5173  0.6613  0.3892
  133OSM    H8G14458   2.079   4.164   6.422 -2.9996 -2.0611  1.7421
  133OSM    C9F14459   2.107   4.351   6.318  0.5298  0.4435  0.2180
  133OSM    H9F14460   2.127   4.430   6.392  1.4246  0.7074 -0.2903
  133OSM   C10F14461   2.150   4.375   6.191 -0.2420 -0.2231 -0.1037
  133OSM   H10F14462   2.208   4.466   6.173  1.1772 -0.6937  1.7224
  133OSM   C11F14463   2.124   4.288   6.066 -0.1212  0.0152  0.6747
  133OSM   H11F14464   2.071   4.191   6.073 -0.2970 -0.0667 -1.3383
  133OSM   H11G14465   2.222   4.258   6.023  0.0250  0.3918  0.7405
  133OSM   C12F14466   2.049   4.369   5.964  0.5152 -0.5161  0.4103
  133OSM   H12F14467   2.049   4.479   5.982  1.0967 -0.3161 -0.6802
  133OSM   H12G14468   1.942   4.344   5.977 -0.2701  1.2973 -1.8112
  133OSM   C13F14469   2.075   4.323   5.816  0.4368  0.3167 -0.3387
  133OSM   H13F14470   2.071   4.213   5.799  0.8213  0.2682 -0.1231
  133OSM   H13G14471   2.180   4.346   5.789  1.3456 -0.4393  2.2797
  133OSM   C14F14472   1.987   4.409   5.718  0.7562 -0.9904 -0.4726
  133OSM   H14F14473   1.987   4.517   5.743  1.5720 -1.0181 -0.3060
  133OSM   H14G14474   1.881   4.383   5.736  0.4685 -0.1317 -0.8703
  133OSM   C15F14475   2.023   4.407   5.575  0.4997  0.0748 -0.5255
  133OSM   H15F14476   2.129   4.431   5.554  0.5378  1.1470  0.7854
  133OSM   H15G14477   1.954   4.472   5.516 -0.8296 -1.6631 -0.9708
  133OSM   C16F14478   2.004   4.269   5.514 -0.0763  0.3737  0.3263
  133OSM   H16F14479   1.916   4.214   5.554  0.4832 -0.7282  0.0539
  133OSM   H16G14480   2.090   4.209   5.550 -0.9702 -0.8565  0.4547
  133OSM   C17F14481   1.989   4.270   5.359 -0.0254  0.6132 -0.2418
  133OSM   H17F14482   2.075   4.333   5.329  1.3982 -0.3201  1.6638
  133OSM   H17G14483   1.896   4.324   5.330 -1.2776 -0.9606  0.6853
  133OSM   C18F14484   1.990   4.135   5.291  0.3837  0.2039 -0.5664
  133OSM   H18F14485   1.895   4.081   5.308  1.1080 -0.6092  1.1725
  133OSM   H18G14486   2.074   4.072   5.328  0.3167 -0.3583 -1.3364
  133OSM   H18H14487   2.010   4.153   5.183 -1.0127 -0.0022 -0.8786
  134OSM      N14488   5.928   2.889   7.353  1.1053 -0.2170 -0.1876
  134OSM    C1514489   6.015   2.917   7.467  0.5747 -0.4326 -0.4486
  134OSM   H15A14490   6.092   2.990   7.446 -0.7077  0.6949 -1.3191
  134OSM   H15B14491   6.075   2.829   7.490  0.3106 -0.3817  0.4679
  134OSM   H15C14492   5.961   2.940   7.558  2.7883 -0.7646  1.0471
  134OSM    C1414493   5.829   2.789   7.409 -0.2485 -0.0724  0.8724
  134OSM   H14A14494   5.781   2.729   7.333 -0.2441  1.7217 -0.6021
  134OSM   H14B14495   5.749   2.826   7.472 -0.1701  0.8157  0.4658
  134OSM   H14C14496   5.886   2.730   7.479  0.7620  1.1065  1.0821
  134OSM    C1314497   5.852   3.024   7.325 -0.3378  0.3834 -0.2391
  134OSM   H13A14498   5.789   3.045   7.409  0.1899  1.1974 -0.0380
  134OSM   H13B14499   5.791   3.020   7.236  0.9598  1.4719 -1.2390
  134OSM   H13C14500   5.922   3.105   7.309 -0.1617  0.2859  0.0333
  134OSM    C1214501   6.007   2.841   7.236 -1.1323 -0.0352  0.2410
  134OSM   H12A14502   6.058   2.751   7.266  0.2722  0.7340  0.2580
  134OSM   H12B14503   6.078   2.917   7.207 -1.8620 -0.1040 -1.9061
  134OSM    C1114504   5.938   2.806   7.100  0.2169 -0.5183  0.1587
  134OSM   H11A14505   6.013   2.817   7.019  3.0141  0.0346  2.6392
  134OSM   H11B14506   5.853   2.875   7.086  0.3896 -0.6610 -2.0028
  134OSM      P14507   5.988   2.557   7.097 -0.1359 -0.2867  0.1818
  134OSM    O1314508   6.108   2.585   7.184 -0.5669 -0.0081  0.2278
  134OSM    O1414509   5.909   2.434   7.124 -0.2470 -0.2877 -0.2019
  134OSM    O1114510   6.019   2.566   6.946 -0.2229 -0.0417  0.4362
  134OSM    O1214511   5.887   2.672   7.110  0.4353 -0.1919 -0.4570
  134OSM    C1S14512   5.911   2.579   6.855 -0.2576  0.4289 -0.6682
  134OSM    H1S14513   5.866   2.680   6.861 -2.9064 -0.7428  0.6870
  134OSM    H1T14514   5.837   2.499   6.877  1.8074 -1.2703  0.4719
  134OSM     NF14515   5.860   2.557   6.607  0.0498  0.0357  0.8499
  134OSM    HNF14516   5.805   2.477   6.583 -0.6279  0.8607 -0.4692
  134OSM    C2S14517   5.964   2.553   6.707  0.3924  0.6742 -0.3579
  134OSM    H2S14518   6.047   2.622   6.681  2.3471 -1.2151  0.5526
  134OSM    C3S14519   6.030   2.410   6.712 -0.6625  0.3017 -0.4458
  134OSM    H3S14520   5.969   2.347   6.779 -1.5056  2.6125  1.0800
  134OSM     O314521   6.159   2.417   6.769  0.1784 -0.2703  0.2331
  134OSM    HO314522   6.162   2.504   6.810 -1.5848 -0.8769  1.8456
  134OSM    C4S14523   6.046   2.341   6.576  0.5044  0.1010  0.6729
  134OSM    H4S14524   6.086   2.408   6.499 -1.3929  0.8054  0.2536
  134OSM    C5S14525   6.008   2.218   6.545 -0.7139  0.6948 -0.5588
  134OSM    H5S14526   5.947   2.170   6.623 -0.8771  1.8070  0.0129
  134OSM    C6S14527   6.014   2.156   6.411 -0.2816  0.6814  0.0841
  134OSM    H6S14528   6.006   2.046   6.428 -1.0287  0.6663 -0.3069
  134OSM    H6T14529   6.103   2.184   6.351  1.0489 -0.6858  1.3194
  134OSM    C7S14530   5.890   2.205   6.327  0.1889  0.3556  0.3520
  134OSM    H7S14531   5.892   2.315   6.317 -0.3401  0.6446  2.7478
  134OSM    H7T14532   5.798   2.172   6.381  0.0928  0.4407  0.2393
  134OSM    C8S14533   5.892   2.134   6.184 -0.5357  0.0315  0.0423
  134OSM    H8S14534   5.786   2.143   6.149 -0.3768  0.3249 -0.3798
  134OSM    H8T14535   5.914   2.030   6.214 -1.7703  0.5279  2.9652
  134OSM    C9S14536   5.992   2.185   6.079 -0.4784  0.2567  0.1155
  134OSM    H9S14537   6.009   2.119   5.991 -0.1803 -1.2678  1.2626
  134OSM    H9T14538   6.092   2.195   6.127 -1.1434  0.6741  1.4498
  134OSM   C10S14539   5.963   2.321   6.022 -0.2927 -0.5316 -0.2940
  134OSM   H10S14540   5.907   2.374   6.101  0.5256  0.1780 -0.1715
  134OSM   H10T14541   5.890   2.306   5.940 -0.6723  1.0549 -0.2713
  134OSM   C11S14542   6.078   2.406   5.973 -0.4886 -0.8232  0.4783
  134OSM   H11S14543   6.100   2.364   5.873 -1.1987 -0.0137 -0.0378
  134OSM   H11T14544   6.166   2.384   6.036 -0.0425  0.3669  0.2999
  134OSM   C12S14545   6.043   2.552   5.971 -0.4093  0.1613  0.6501
  134OSM   H12S14546   6.022   2.591   6.074  0.0771  0.6264  0.5768
  134OSM   H12T14547   5.961   2.584   5.903  1.5828  1.7801 -1.1168
  134OSM   C13S14548   6.161   2.637   5.919 -0.4616  0.6269  0.1872
  134OSM   H13S14549   6.206   2.579   5.835  0.3285 -0.5054  1.3478
  134OSM   H13T14550   6.237   2.641   6.000 -1.2210 -0.7122  0.9913
  134OSM   C14S14551   6.127   2.784   5.893  0.1293  0.0349  0.0163
  134OSM   H14S14552   6.092   2.827   5.990 -0.7145 -0.1751 -0.1832
  134OSM   H14T14553   6.056   2.790   5.808  2.2926 -1.8251 -2.0525
  134OSM   C15S14554   6.249   2.848   5.834 -0.7895 -0.1127 -0.0264
  134OSM   H15S14555   6.280   2.792   5.743 -0.8985  0.2582 -0.2963
  134OSM   H15T14556   6.333   2.851   5.906  1.1648 -1.1204 -2.1431
  134OSM   C16S14557   6.223   2.985   5.777  0.8727 -0.4111 -0.5835
  134OSM   H16S14558   6.157   2.985   5.688  1.2696  0.3620 -0.8857
  134OSM   H16T14559   6.316   3.037   5.746  0.7595 -0.3685 -0.8522
  134OSM   C17S14560   6.161   3.089   5.880  0.0356 -0.4016 -0.5698
  134OSM   H17S14561   6.058   3.056   5.907  0.9772 -2.3228  0.9567
  134OSM   H17T14562   6.147   3.184   5.824  0.2512 -1.0560 -1.7898
  134OSM   C18S14563   6.244   3.110   6.001 -0.5793  0.6379 -0.0487
  134OSM   H18S14564   6.192   3.173   6.077  0.0395  2.5882 -1.1650
  134OSM   H18T14565   6.344   3.155   5.987 -1.2166  2.2127  0.2437
  134OSM   H18U14566   6.265   3.010   6.046  2.2725  1.3403  0.3780
  134OSM    C1F14567   5.809   2.675   6.578 -0.4062 -0.6943  0.3431
  134OSM     OF14568   5.861   2.779   6.613  0.1902 -0.4197 -0.0156
  134OSM    C2F14569   5.683   2.668   6.490  0.4096  0.7510 -0.2344
  134OSM    H2F14570   5.655   2.772   6.465 -0.5611  1.1506  2.2047
  134OSM    H2G14571   5.607   2.616   6.553  0.5253  1.1566  0.2445
  134OSM    C3F14572   5.697   2.587   6.365  0.4322  0.1713 -0.3328
  134OSM    H3F14573   5.722   2.482   6.390  0.1144 -0.1525 -1.3258
  134OSM    H3G14574   5.778   2.622   6.297  0.2949  0.1395 -0.5125
  134OSM    C4F14575   5.578   2.594   6.272 -0.2178 -0.8773 -0.8813
  134OSM    H4F14576   5.545   2.700   6.264  0.1450 -0.6540  0.3192
  134OSM    H4G14577   5.499   2.530   6.318 -0.0032  0.5004  1.6071
  134OSM    C5F14578   5.631   2.545   6.132  0.2235  0.2406  0.2676
  134OSM    H5F14579   5.660   2.438   6.141 -0.1652 -0.1813 -2.5060
  134OSM    H5G14580   5.719   2.602   6.093  0.6642 -0.0303  0.8461
  134OSM    C6F14581   5.513   2.540   6.031  0.7417  0.5028 -0.2586
  134OSM    H6F14582   5.474   2.642   6.008  1.3858  1.0268  0.8629
  134OSM    H6G14583   5.427   2.489   6.079 -1.3838  4.5303  0.7357
  134OSM    C7F14584   5.554   2.461   5.902  0.3726  0.4673 -0.3809
  134OSM    H7F14585   5.566   2.353   5.928 -0.2133 -0.4332 -3.4599
  134OSM    H7G14586   5.656   2.497   5.878  0.0571  1.2147 -0.6374
  134OSM    C8F14587   5.456   2.468   5.787  0.1694 -0.1018 -0.6855
  134OSM    H8F14588   5.411   2.569   5.771 -2.5458 -0.6682  2.2737
  134OSM    H8G14589   5.377   2.397   5.821  1.9449 -1.7228  0.2323
  134OSM    C9F14590   5.509   2.408   5.659 -0.1886 -0.2498 -0.3379
  134OSM    H9F14591   5.526   2.299   5.659 -1.4519 -0.5556  2.5173
  134OSM   C10F14592   5.507   2.478   5.541 -0.0381  0.0039 -0.5216
  134OSM   H10F14593   5.542   2.428   5.449 -1.1784  2.0832 -2.1571
  134OSM   C11F14594   5.468   2.628   5.528 -0.5191  0.1834 -1.2682
  134OSM   H11F14595   5.545   2.683   5.585 -1.8976 -0.0558  0.9596
  134OSM   H11G14596   5.370   2.660   5.568  0.3648 -0.3767  1.5639
  134OSM   C12F14597   5.469   2.688   5.390  0.1564  0.6692 -0.7589
  134OSM   H12F14598   5.405   2.626   5.324 -0.5960  0.5830  0.0271
  134OSM   H12G14599   5.563   2.698   5.332 -0.9396 -0.7962 -2.9217
  134OSM   C13F14600   5.420   2.828   5.403 -0.2234 -1.0219  0.9318
  134OSM   H13F14601   5.489   2.880   5.473  1.1540 -1.6588  0.1009
  134OSM   H13G14602   5.320   2.830   5.451 -0.3653  2.2796  0.7292
  134OSM   C14F14603   5.411   2.907   5.272 -0.8295  0.1574  0.0843
  134OSM   H14F14604   5.511   2.897   5.224 -0.9230  2.9045 -0.8349
  134OSM   H14G14605   5.398   3.015   5.295 -1.1219  0.0477  0.4457
  134OSM   C15F14606   5.301   2.849   5.181 -0.5896 -0.0189  0.6095
  134OSM   H15F14607   5.207   2.849   5.240 -1.8420  1.5101 -1.2916
  134OSM   H15G14608   5.320   2.744   5.152 -2.9947 -0.1266 -0.8047
  134OSM   C16F14609   5.274   2.937   5.062 -0.3940 -0.9347  0.2668
  134OSM   H16F14610   5.368   2.980   5.022 -0.4717  0.4715  1.5173
  134OSM   H16G14611   5.217   3.024   5.100  1.6501  0.3455  0.5578
  134OSM   C17F14612   5.194   2.861   4.952  0.0949  0.3462  0.1113
  134OSM   H17F14613   5.111   2.816   5.010 -0.8556  2.4905  0.4717
  134OSM   H17G14614   5.252   2.774   4.914 -1.3686 -0.5982 -0.0462
  134OSM   C18F14615   5.153   2.958   4.843  0.0372 -0.1781 -0.0434
  134OSM   H18F14616   5.108   2.906   4.755 -1.9949 -0.1179  0.8959
  134OSM   H18G14617   5.243   3.009   4.803  0.1462 -0.7170 -0.5064
  134OSM   H18H14618   5.088   3.040   4.879  1.6655  1.4952 -0.7231
  135OSM      N14619   6.307   1.474   7.122 -0.1246  0.5363  0.2630
  135OSM    C1514620   6.388   1.375   7.195  0.7994  0.1277 -0.0323
  135OSM   H15A14621   6.493   1.359   7.172  0.8402  0.8020 -0.3570
  135OSM   H15B14622   6.342   1.279   7.175 -2.5135  1.5014  0.3261
  135OSM   H15C14623   6.376   1.387   7.302 -0.1405 -0.0908 -0.1014
  135OSM    C1414624   6.363   1.608   7.150  0.4121  0.7118  0.4049
  135OSM   H14A14625   6.294   1.679   7.109 -1.4131 -0.3972  1.4033
  135OSM   H14B14626   6.458   1.601   7.099  0.7806 -1.9875  1.2829
  135OSM   H14C14627   6.376   1.622   7.256 -1.6724 -1.2539  0.9989
  135OSM    C1314628   6.321   1.451   6.978 -0.4088 -0.1094  0.4750
  135OSM   H13A14629   6.428   1.445   6.963 -0.4829 -0.4772  0.1054
  135OSM   H13B14630   6.284   1.523   6.906 -0.8752 -1.2279 -0.4260
  135OSM   H13C14631   6.279   1.358   6.945  1.0443  0.3426 -3.0420
  135OSM    C1214632   6.158   1.466   7.159 -0.0825  0.4245 -0.3539
  135OSM   H12A14633   6.106   1.526   7.086  1.2249  0.7606 -1.0499
  135OSM   H12B14634   6.139   1.514   7.254  0.8049 -0.5743  0.3467
  135OSM    C1114635   6.082   1.326   7.163 -0.1181  0.2638 -0.4712
  135OSM   H11A14636   5.975   1.350   7.177  0.1523  1.7032 -0.7227
  135OSM   H11B14637   6.128   1.273   7.249  0.8901  0.6349 -0.7673
  135OSM      P14638   6.037   1.123   7.009  0.0210  0.5498 -0.2423
  135OSM    O1314639   6.092   1.016   7.097 -0.1465 -0.5705  0.1587
  135OSM    O1414640   5.890   1.144   7.039 -0.2397 -0.4975 -0.0883
  135OSM    O1114641   6.061   1.095   6.860  0.5111  0.7519  0.1853
  135OSM    O1214642   6.114   1.258   7.040 -0.2019 -0.0538 -0.7315
  135OSM    C1S14643   6.007   1.199   6.772 -0.4533 -0.0524 -0.3082
  135OSM    H1S14644   6.052   1.298   6.794  0.3977  0.1209 -2.5854
  135OSM    H1T14645   5.898   1.210   6.755 -0.0588  1.8709 -2.0362
  135OSM     NF14646   5.995   1.275   6.547 -0.7651 -0.8814 -0.1850
  135OSM    HNF14647   5.904   1.281   6.506 -1.1072  1.4960  0.7517
  135OSM    C2S14648   6.048   1.169   6.625  0.1839  0.0409  0.6618
  135OSM    H2S14649   6.159   1.160   6.628  0.6378  3.4398 -1.0376
  135OSM    C3S14650   5.985   1.022   6.582  0.3739  0.7546  0.3083
  135OSM    H3S14651   5.875   1.026   6.597  0.2251 -2.4012  0.7861
  135OSM     O314652   6.028   0.907   6.649  0.3829 -0.2742  0.0269
  135OSM    HO314653   6.055   0.939   6.736 -0.8510 -0.4265  0.4851
  135OSM    C4S14654   6.030   1.005   6.438  0.3513  0.2287  0.0382
  135OSM    H4S14655   6.139   1.002   6.433  0.4559 -1.1991  1.8115
  135OSM    C5S14656   5.960   1.010   6.320 -0.8155 -0.0257 -0.6476
  135OSM    H5S14657   5.853   1.038   6.321 -1.5442 -2.4918  0.8875
  135OSM    C6S14658   6.034   1.008   6.192 -0.4678 -0.2475  0.2330
  135OSM    H6S14659   6.002   0.926   6.124 -0.7581 -0.5020  0.6807
  135OSM    H6T14660   6.144   0.990   6.196 -0.0041  2.0838 -0.0743
  135OSM    C7S14661   5.995   1.126   6.107 -0.5319 -1.0936 -0.0408
  135OSM    H7S14662   6.006   1.215   6.173 -3.4974 -0.2309 -0.5299
  135OSM    H7T14663   5.886   1.127   6.082 -0.3857 -1.3074 -0.7237
  135OSM    C8S14664   6.062   1.134   5.968 -0.1092 -0.4161 -0.9210
  135OSM    H8S14665   6.039   1.034   5.925 -2.3000  0.1624 -1.2520
  135OSM    H8T14666   6.170   1.155   5.978  0.5238 -3.4401 -0.6235
  135OSM    C9S14667   6.006   1.249   5.890  0.1199 -0.8053  0.2327
  135OSM    H9S14668   6.020   1.342   5.949  0.4346  0.6266 -1.9697
  135OSM    H9T14669   5.899   1.227   5.869  0.7725 -0.9218 -3.7236
  135OSM   C10S14670   6.070   1.272   5.754  0.3966 -0.0050 -0.4871
  135OSM   H10S14671   6.165   1.328   5.768 -0.0189  0.8878 -1.1333
  135OSM   H10T14672   5.999   1.331   5.691  0.3847 -0.0703 -0.5353
  135OSM   C11S14673   6.112   1.141   5.685  0.1307  0.0708  0.1929
  135OSM   H11S14674   6.187   1.087   5.747  0.2922 -0.7530 -0.6958
  135OSM   H11T14675   6.153   1.170   5.586 -0.0681 -0.8296 -0.1637
  135OSM   C12S14676   5.987   1.061   5.638 -0.4175  0.2036 -0.3408
  135OSM   H12S14677   5.948   1.125   5.556  1.5928  0.3516 -1.2325
  135OSM   H12T14678   5.919   1.070   5.725  1.6340  1.2635  1.2449
  135OSM   C13S14679   6.002   0.914   5.611 -0.2088  0.6129 -0.5548
  135OSM   H13S14680   5.908   0.855   5.603  2.6910 -4.5050 -1.7847
  135OSM   H13T14681   6.061   0.871   5.694  0.7188 -0.6633 -1.8140
  135OSM   C14S14682   6.096   0.874   5.491 -0.3538 -0.4572  0.1382
  135OSM   H14S14683   6.130   0.771   5.513  0.5376 -0.0664  0.6373
  135OSM   H14T14684   6.183   0.942   5.487 -1.6217  1.3180  1.0117
  135OSM   C15S14685   6.018   0.884   5.367 -0.3805  0.0731  0.1750
  135OSM   H15S14686   6.026   0.991   5.339  1.6056  0.1386  0.8651
  135OSM   H15T14687   5.910   0.862   5.381 -0.6375  0.3323 -1.2073
  135OSM   C16S14688   6.069   0.779   5.261  0.9920 -0.8756 -0.1452
  135OSM   H16S14689   6.093   0.680   5.304 -0.5020 -1.8859 -1.5508
  135OSM   H16T14690   6.168   0.809   5.219  1.0354 -0.0703  0.5005
  135OSM   C17S14691   5.970   0.752   5.146 -0.3289 -0.5275  0.2861
  135OSM   H17S14692   6.028   0.711   5.061 -1.7509  0.0914 -1.0239
  135OSM   H17T14693   5.927   0.849   5.113  1.8581  0.7641  1.0380
  135OSM   C18S14694   5.856   0.657   5.172 -0.7420  0.2637 -0.3818
  135OSM   H18S14695   5.810   0.634   5.074  3.0133 -0.6309 -2.1192
  135OSM   H18T14696   5.781   0.702   5.241 -0.5664  1.0626 -0.7056
  135OSM   H18U14697   5.894   0.558   5.206 -1.4787  0.3874  0.8569
  135OSM    C1F14698   6.070   1.391   6.546  0.0179  0.0397 -0.3937
  135OSM     OF14699   6.177   1.403   6.607  0.1574  0.9990 -0.3747
  135OSM    C2F14700   6.011   1.497   6.452 -0.0957  0.1299  0.3599
  135OSM    H2F14701   5.922   1.533   6.507  0.0039 -1.0617  1.3520
  135OSM    H2G14702   5.976   1.446   6.360 -0.3842 -0.7929  0.9733
  135OSM    C3F14703   6.100   1.624   6.448 -0.2197  0.0998 -0.5129
  135OSM    H3F14704   6.202   1.610   6.405  0.8695  0.2726  1.8473
  135OSM    H3G14705   6.127   1.659   6.550  1.4297 -0.2102 -0.8030
  135OSM    C4F14706   6.020   1.737   6.385 -0.4761  0.2947 -0.2939
  135OSM    H4F14707   5.943   1.766   6.459  0.0498 -0.8586  0.7298
  135OSM    H4G14708   6.084   1.825   6.361  0.0470 -0.0579 -0.2020
  135OSM    C5F14709   5.939   1.693   6.261  0.2209  0.2157 -0.0280
  135OSM    H5F14710   5.876   1.776   6.225  0.2075 -0.0711 -0.6762
  135OSM    H5G14711   5.871   1.607   6.281  0.9100 -0.3997 -0.2549
  135OSM    C6F14712   6.022   1.661   6.134 -0.1955 -0.3644  0.3312
  135OSM    H6F14713   5.952   1.654   6.048 -0.1997  0.6975  0.2374
  135OSM    H6G14714   6.073   1.564   6.146  2.6968  1.1025  0.7472
  135OSM    C7F14715   6.136   1.764   6.087  0.4293  0.9606  0.0141
  135OSM    H7F14716   6.236   1.727   6.118  0.5231 -0.2617 -1.6112
  135OSM    H7G14717   6.106   1.857   6.139 -1.0515  0.7573 -0.4527
  135OSM    C8F14718   6.126   1.799   5.937  0.0932 -0.6513 -0.0679
  135OSM    H8F14719   6.208   1.871   5.918 -0.2052 -0.7504 -1.8992
  135OSM    H8G14720   6.039   1.866   5.920  2.1879  2.1474 -0.5655
  135OSM    C9F14721   6.132   1.674   5.855 -1.1020 -0.5826  0.0556
  135OSM    H9F14722   6.199   1.590   5.881  0.2965 -1.1926 -4.5535
  135OSM   C10F14723   6.055   1.649   5.752  0.3786 -0.7844  0.9780
  135OSM   H10F14724   6.070   1.561   5.686  0.8888  0.3037 -0.4260
  135OSM   C11F14725   5.952   1.730   5.683  0.1245  0.0115  0.2803
  135OSM   H11F14726   5.912   1.816   5.741 -0.2232  1.5799 -2.1239
  135OSM   H11G14727   5.870   1.664   5.647 -0.9392  1.9096 -0.9440
  135OSM   C12F14728   6.005   1.810   5.558 -0.6376  0.2077  0.5120
  135OSM   H12F14729   5.927   1.816   5.479  0.4666 -1.5174 -0.7807
  135OSM   H12G14730   6.081   1.747   5.507  1.9922  4.2026 -0.9479
  135OSM   C13F14731   6.085   1.941   5.581  0.7614  0.6635 -0.7003
  135OSM   H13F14732   6.186   1.942   5.534  0.6070  1.1287 -1.0205
  135OSM   H13G14733   6.104   1.954   5.690  1.5726  0.4003 -0.7974
  135OSM   C14F14734   5.988   2.056   5.535  0.1615  0.4893 -0.5499
  135OSM   H14F14735   5.892   2.032   5.585  0.9281 -0.4952  0.4951
  135OSM   H14G14736   5.981   2.058   5.424  2.9907 -1.3338 -0.8526
  135OSM   C15F14737   6.034   2.196   5.582  0.4764 -0.3550 -0.1273
  135OSM   H15F14738   6.116   2.228   5.514 -0.2902  1.4717 -0.2674
  135OSM   H15G14739   6.075   2.188   5.685  0.2862 -0.8724 -0.0910
  135OSM   C16F14740   5.919   2.298   5.571 -0.4714 -0.5145  0.2009
  135OSM   H16F14741   5.846   2.288   5.654 -2.7282 -0.4138 -1.6671
  135OSM   H16G14742   5.867   2.276   5.475  1.5573  2.0445 -1.6282
  135OSM   C17F14743   5.974   2.442   5.569 -0.2889  0.2607 -0.4505
  135OSM   H17F14744   6.045   2.458   5.486 -0.2953 -0.7626 -0.6573
  135OSM   H17G14745   6.033   2.464   5.661 -1.0672  0.7611 -0.0489
  135OSM   C18F14746   5.865   2.551   5.560 -0.4442  0.1398 -0.2608
  135OSM   H18F14747   5.911   2.652   5.552 -0.7222  0.1813 -1.5196
  135OSM   H18G14748   5.803   2.542   5.651 -0.1983  0.8375 -0.0202
  135OSM   H18H14749   5.810   2.535   5.464 -0.4745  1.5545 -0.4930
  136OSM      N14750   1.803   1.117   7.001  0.0584  0.6487 -0.0582
  136OSM    C1514751   1.883   1.173   6.897 -0.2934 -0.3891  0.2445
  136OSM   H15A14752   1.988   1.166   6.921 -0.1475  0.2687 -0.1784
  136OSM   H15B14753   1.852   1.276   6.889 -0.6367 -0.3761  1.5364
  136OSM   H15C14754   1.872   1.120   6.803 -2.2264 -2.5621  1.5834
  136OSM    C1414755   1.817   1.193   7.130 -0.2519 -0.8853  0.0125
  136OSM   H14A14756   1.791   1.136   7.218  0.0675  0.0811  0.7547
  136OSM   H14B14757   1.757   1.283   7.130 -0.7059 -1.1518 -1.7418
  136OSM   H14C14758   1.918   1.223   7.155 -0.1419  0.8232 -2.2434
  136OSM    C1314759   1.658   1.106   6.956  0.1055 -0.0106  0.3545
  136OSM   H13A14760   1.650   1.058   6.860  2.2124 -0.5060  0.3677
  136OSM   H13B14761   1.620   1.205   6.937 -0.9988 -0.9817 -3.2510
  136OSM   H13C14762   1.590   1.071   7.033  0.2324  1.0456  0.9645
  136OSM    C1214763   1.860   0.977   7.023 -0.7399  0.0451 -0.8224
  136OSM   H12A14764   1.873   0.931   6.926 -3.6240  0.2482 -1.3808
  136OSM   H12B14765   1.797   0.905   7.074  2.2811 -2.2979 -0.1088
  136OSM    C1114766   1.986   0.961   7.105 -0.2260  0.0657  0.5068
  136OSM   H11A14767   2.005   0.851   7.109 -1.4990 -0.2187 -0.3655
  136OSM   H11B14768   1.978   1.002   7.208 -2.0214  1.3360 -0.1068
  136OSM      P14769   2.186   0.960   6.933  0.5680  0.2381 -0.3157
  136OSM    O1314770   2.211   1.068   6.835 -0.0463 -0.4381 -0.2927
  136OSM    O1414771   2.303   0.894   6.992  0.2559 -0.1598  0.2342
  136OSM    O1114772   2.082   0.856   6.868 -0.1387 -0.2706 -0.0166
  136OSM    O1214773   2.094   1.031   7.044  0.3707 -0.5416  0.6284
  136OSM    C1S14774   2.051   0.853   6.727  0.0656 -0.9187 -0.0024
  136OSM    H1S14775   2.032   0.956   6.687  0.9138  0.5738  3.1308
  136OSM    H1T14776   1.960   0.792   6.710 -0.6820  0.2143 -0.1785
  136OSM     NF14777   2.120   0.777   6.501  0.5548 -0.4693 -1.2123
  136OSM    HNF14778   2.096   0.689   6.460 -0.4292 -1.2181  0.8739
  136OSM    C2S14779   2.163   0.788   6.641  0.5240  0.5500  0.1441
  136OSM    H2S14780   2.254   0.851   6.638  1.0921 -0.2632 -2.6241
  136OSM    C3S14781   2.210   0.644   6.703 -0.3717 -0.0638 -0.6411
  136OSM    H3S14782   2.125   0.583   6.740  0.4483 -1.3468 -0.8042
  136OSM     O314783   2.285   0.651   6.827  0.2329  0.1329  0.2919
  136OSM    HO314784   2.314   0.742   6.839 -1.7422  0.8983 -0.2486
  136OSM    C4S14785   2.301   0.575   6.604  0.2543 -0.7415  0.4219
  136OSM    H4S14786   2.388   0.627   6.560  0.9535  0.3919  2.9463
  136OSM    C5S14787   2.274   0.453   6.556  0.6311 -0.3246 -0.4669
  136OSM    H5S14788   2.194   0.392   6.603  0.3240  0.2965 -0.1763
  136OSM    C6S14789   2.351   0.377   6.449  0.2726 -0.1120  0.3606
  136OSM    H6S14790   2.285   0.334   6.370  1.1436 -1.1199  0.1463
  136OSM    H6T14791   2.400   0.285   6.489  0.3760 -1.0109 -1.6903
  136OSM    C7S14792   2.462   0.450   6.379  1.0731 -0.3321  0.1958
  136OSM    H7S14793   2.537   0.469   6.459  0.1694  0.1229  0.9404
  136OSM    H7T14794   2.417   0.544   6.340  0.9576 -0.6019 -0.3293
  136OSM    C8S14795   2.540   0.365   6.274  0.7121  0.4178 -0.0534
  136OSM    H8S14796   2.463   0.290   6.247 -0.2266  0.7982  1.4358
  136OSM    H8T14797   2.623   0.308   6.321  0.3168 -1.7282 -1.8162
  136OSM    C9S14798   2.599   0.441   6.163 -0.7286 -0.4022  0.8454
  136OSM    H9S14799   2.705   0.466   6.184 -0.3853  2.2732 -2.9612
  136OSM    H9T14800   2.535   0.531   6.149  0.1334  0.1787  0.5834
  136OSM   C10S14801   2.592   0.362   6.032 -0.7389 -0.0335  0.0152
  136OSM   H10S14802   2.485   0.332   6.024 -1.1223  0.5874  2.1567
  136OSM   H10T14803   2.658   0.276   6.057  0.0669  0.7357  0.5896
  136OSM   C11S14804   2.649   0.433   5.910 -0.5493  0.2954  0.4904
  136OSM   H11S14805   2.757   0.442   5.935 -1.0136  1.9146  2.1262
  136OSM   H11T14806   2.606   0.534   5.892 -0.5360 -0.0268 -1.6981
  136OSM   C12S14807   2.633   0.359   5.780  0.1788  0.5967 -0.3141
  136OSM   H12S14808   2.526   0.337   5.758  1.1011 -2.2020 -2.6214
  136OSM   H12T14809   2.680   0.259   5.782  0.3600  0.6891  0.7751
  136OSM   C13S14810   2.687   0.441   5.653 -1.1821 -0.2028 -0.1481
  136OSM   H13S14811   2.795   0.457   5.673 -1.6774  0.3753  2.4431
  136OSM   H13T14812   2.629   0.535   5.652 -2.6343 -1.0292  1.2214
  136OSM   C14S14813   2.659   0.369   5.524 -0.0735 -0.3010 -0.3750
  136OSM   H14S14814   2.550   0.347   5.522 -0.2027  0.3291 -0.7997
  136OSM   H14T14815   2.701   0.266   5.526  2.2620  0.4893 -2.5450
  136OSM   C15S14816   2.702   0.443   5.396  0.3729 -0.3543 -0.3632
  136OSM   H15S14817   2.705   0.551   5.425 -0.9781 -0.2912 -0.3869
  136OSM   H15T14818   2.622   0.430   5.320 -0.1322  2.7793 -0.5253
  136OSM   C16S14819   2.825   0.396   5.334 -0.1423 -0.5696 -0.1472
  136OSM   H16S14820   2.818   0.287   5.317  1.9448 -0.4491 -2.3003
  136OSM   H16T14821   2.918   0.414   5.394 -1.9905  3.3700  1.9125
  136OSM   C17S14822   2.864   0.467   5.197 -0.3451  0.2345 -0.6345
  136OSM   H17S14823   2.892   0.570   5.227 -0.7621 -0.5452  2.9256
  136OSM   H17T14824   2.769   0.475   5.140 -0.1917 -2.2508 -1.3700
  136OSM   C18S14825   2.969   0.392   5.118  0.4643 -0.4559 -0.7623
  136OSM   H18S14826   3.070   0.421   5.153 -0.2297  0.1533  0.8664
  136OSM   H18T14827   2.961   0.415   5.010  2.1567  0.7374 -0.6600
  136OSM   H18U14828   2.964   0.283   5.138  1.0932 -0.5303 -0.9905
  136OSM    C1F14829   2.101   0.883   6.424 -0.7428  0.2502  0.0427
  136OSM     OF14830   2.146   0.995   6.450  0.2951  0.0355 -0.7039
  136OSM    C2F14831   2.020   0.868   6.297  0.3589  0.4049  0.7979
  136OSM    H2F14832   1.913   0.864   6.328 -0.3142  1.1361 -1.3107
  136OSM    H2G14833   2.034   0.769   6.247  0.3819  0.9653 -0.3335
  136OSM    C3F14834   2.045   0.975   6.189  0.0511  0.1223  0.0422
  136OSM    H3F14835   2.071   1.074   6.233  1.8429 -0.6510  0.8435
  136OSM    H3G14836   1.956   0.974   6.123 -0.5509  0.6062  0.8346
  136OSM    C4F14837   2.164   0.931   6.101  0.5526  0.2160 -0.3103
  136OSM    H4F14838   2.144   0.833   6.053 -3.3411  0.1156  1.1625
  136OSM    H4G14839   2.257   0.909   6.158 -0.1730  0.5789  1.0490
  136OSM    C5F14840   2.191   1.027   5.977 -0.1362 -0.0441 -0.2647
  136OSM    H5F14841   2.222   1.128   6.013  0.8123  0.7413 -3.0111
  136OSM    H5G14842   2.097   1.048   5.921  1.0469  0.1989 -2.2459
  136OSM    C6F14843   2.290   0.969   5.892 -0.0192 -0.0481  0.1125
  136OSM    H6F14844   2.244   0.879   5.847 -0.6107  0.4765 -0.3413
  136OSM    H6G14845   2.377   0.933   5.951  0.7031  0.0628 -0.8533
  136OSM    C7F14846   2.350   1.040   5.772 -0.0175 -0.7666 -0.3943
  136OSM    H7F14847   2.448   1.008   5.732  2.2847  1.2360  3.1262
  136OSM    H7G14848   2.377   1.139   5.814  1.8839 -1.6440  0.5607
  136OSM    C8F14849   2.250   1.066   5.648  0.1892  0.6499  0.1043
  136OSM    H8F14850   2.297   1.141   5.581  1.7967  1.2282  1.7776
  136OSM    H8G14851   2.162   1.118   5.692  1.4396  1.1365  2.1831
  136OSM    C9F14852   2.217   0.937   5.566  0.2802 -0.4643 -0.2587
  136OSM    H9F14853   2.137   0.876   5.611 -1.0568  0.6572 -1.0448
  136OSM   C10F14854   2.279   0.896   5.453 -0.0023 -0.0428 -0.4694
  136OSM   H10F14855   2.255   0.799   5.409 -0.9680 -0.1122  0.1732
  136OSM   C11F14856   2.382   0.970   5.375  0.3654 -0.6047  0.3540
  136OSM   H11F14857   2.486   0.938   5.398  1.0187  0.2482 -1.2755
  136OSM   H11G14858   2.389   1.078   5.400  0.5754 -0.5158 -0.0929
  136OSM   C12F14859   2.377   0.937   5.223 -0.7621  0.0352  0.3620
  136OSM   H12F14860   2.432   1.014   5.165  0.1802 -0.1492  0.9923
  136OSM   H12G14861   2.274   0.934   5.182 -0.6556 -0.8947  0.1498
  136OSM   C13F14862   2.436   0.796   5.203  0.1536  0.1978 -0.5790
  136OSM   H13F14863   2.373   0.713   5.244 -0.6528  1.9594  2.0048
  136OSM   H13G14864   2.537   0.788   5.249  0.0378 -0.9481 -0.4958
  136OSM   C14F14865   2.468   0.759   5.058 -0.1797 -0.1211 -0.2724
  136OSM   H14F14866   2.560   0.807   5.019 -1.0388  0.4608 -1.6905
  136OSM   H14G14867   2.384   0.802   4.999 -2.1647 -0.4241  2.1552
  136OSM   C15F14868   2.485   0.606   5.042 -0.0711 -0.5776 -0.0064
  136OSM   H15F14869   2.382   0.573   5.066 -0.2999  1.0450  1.4209
  136OSM   H15G14870   2.565   0.570   5.110  1.3358 -0.8286 -1.7176
  136OSM   C16F14871   2.521   0.554   4.899  0.8312  0.3107 -0.1591
  136OSM   H16F14872   2.555   0.451   4.923  0.9358  0.6397  1.2333
  136OSM   H16G14873   2.604   0.615   4.858  1.5883 -1.3184 -1.1361
  136OSM   C17F14874   2.404   0.553   4.796 -0.2374 -0.5147  0.5051
  136OSM   H17F14875   2.353   0.650   4.776 -0.4080 -0.3583  1.6182
  136OSM   H17G14876   2.321   0.496   4.844 -0.6309 -0.0352  0.4011
  136OSM   C18F14877   2.429   0.479   4.669 -0.0365 -0.1650  0.1070
  136OSM   H18F14878   2.339   0.488   4.605  0.3014  3.6034 -0.0123
  136OSM   H18G14879   2.467   0.375   4.685  0.5308 -0.0159 -0.2192
  136OSM   H18H14880   2.510   0.528   4.611 -1.2542  0.5343 -1.0479
  137OSM      N14881   5.362   0.846   7.525 -0.0105 -1.0075 -0.3572
  137OSM    C1514882   5.501   0.877   7.576 -0.6114 -0.2710 -0.5509
  137OSM   H15A14883   5.536   0.971   7.535 -0.3333 -0.0430  0.1970
  137OSM   H15B14884   5.571   0.806   7.534  0.5524  1.5102 -1.7663
  137OSM   H15C14885   5.502   0.878   7.684 -0.6839  1.2002 -0.5469
  137OSM    C1414886   5.321   0.712   7.593 -0.9531 -0.2625  0.1098
  137OSM   H14A14887   5.228   0.674   7.552 -0.0232 -0.4650 -1.9695
  137OSM   H14B14888   5.334   0.705   7.700 -0.5482 -0.8791  0.0218
  137OSM   H14C14889   5.401   0.646   7.564 -1.8994 -1.7317  0.7613
  137OSM    C1314890   5.268   0.951   7.581 -0.2248  0.0369  0.0788
  137OSM   H13A14891   5.291   1.048   7.539  2.6758 -1.3083 -1.6899
  137OSM   H13B14892   5.283   0.973   7.686 -0.2738  0.6922 -0.0440
  137OSM   H13C14893   5.166   0.926   7.556  0.2414 -0.0448 -1.8242
  137OSM    C1214894   5.357   0.843   7.370 -0.1647 -0.3379 -0.2016
  137OSM   H12A14895   5.370   0.944   7.334 -2.2579 -0.0781 -0.3607
  137OSM   H12B14896   5.253   0.824   7.347  0.0800 -1.7516 -0.2549
  137OSM    C1114897   5.454   0.748   7.292 -0.3472  0.1695 -0.4995
  137OSM   H11A14898   5.412   0.734   7.190 -2.0299 -0.4944  0.2446
  137OSM   H11B14899   5.441   0.651   7.344 -0.5766  0.4986  0.0628
  137OSM      P14900   5.702   0.684   7.250  0.2749  0.2092  0.3660
  137OSM    O1314901   5.835   0.739   7.256 -0.5726 -0.4198  0.4146
  137OSM    O1414902   5.673   0.550   7.310 -0.2907 -0.1141 -0.1331
  137OSM    O1114903   5.667   0.665   7.100  0.1072 -0.0646  0.7585
  137OSM    O1214904   5.591   0.788   7.299 -0.0251 -0.0158 -0.4244
  137OSM    C1S14905   5.778   0.626   7.011 -0.2031  0.6827  0.5380
  137OSM    H1S14906   5.834   0.532   7.026  0.6219  0.8584 -1.1492
  137OSM    H1T14907   5.858   0.703   7.024  0.3777  0.3093 -0.6942
  137OSM     NF14908   5.858   0.594   6.772 -0.2112  0.2402  0.0919
  137OSM    HNF14909   5.908   0.652   6.707 -1.6526 -1.1016 -2.3915
  137OSM    C2S14910   5.742   0.638   6.853 -0.3418  0.2149  0.7943
  137OSM    H2S14911   5.656   0.570   6.833 -1.1606  1.5162 -0.2446
  137OSM    C3S14912   5.693   0.779   6.816 -0.4223  0.3261 -0.1998
  137OSM    H3S14913   5.778   0.849   6.831  1.3386 -2.2138  3.2638
  137OSM     O314914   5.589   0.838   6.889 -0.3262  0.7695 -0.0723
  137OSM    HO314915   5.590   0.774   6.960  1.1129 -1.7198 -2.1263
  137OSM    C4S14916   5.648   0.782   6.671  0.0383  0.6138 -0.1367
  137OSM    H4S14917   5.737   0.821   6.620  0.8551  0.2160  0.9393
  137OSM    C5S14918   5.531   0.769   6.609  0.0384  0.4508 -0.5738
  137OSM    H5S14919   5.441   0.757   6.671  1.2129 -0.2564  1.0565
  137OSM    C6S14920   5.500   0.801   6.468  0.3525 -0.1728 -0.7805
  137OSM    H6S14921   5.420   0.877   6.465  0.7164  0.3257  1.0852
  137OSM    H6T14922   5.453   0.710   6.425 -1.8284 -0.9269  2.8138
  137OSM    C7S14923   5.615   0.849   6.378 -0.1593 -0.4355  0.0793
  137OSM    H7S14924   5.692   0.771   6.364 -0.1888 -0.5618  0.5870
  137OSM    H7T14925   5.661   0.938   6.425  0.8672 -1.1534  0.4571
  137OSM    C8S14926   5.568   0.873   6.230  0.1958  0.1294  0.5217
  137OSM    H8S14927   5.643   0.943   6.187 -0.3097  0.5431  0.3065
  137OSM    H8T14928   5.471   0.926   6.224 -0.0595 -0.2616  1.1650
  137OSM    C9S14929   5.571   0.747   6.138  0.1270 -0.2882 -0.0045
  137OSM    H9S14930   5.496   0.679   6.183 -1.3827  0.7705 -0.8445
  137OSM    H9T14931   5.667   0.691   6.128 -0.8809 -1.9204 -1.1325
  137OSM   C10S14932   5.514   0.781   5.996 -0.0782 -0.4804 -0.1922
  137OSM   H10S14933   5.418   0.834   6.012  0.6092  1.1271 -1.1547
  137OSM   H10T14934   5.493   0.683   5.947 -0.3197 -0.1620 -0.7405
  137OSM   C11S14935   5.595   0.871   5.915 -0.4890 -0.9742 -0.1979
  137OSM   H11S14936   5.687   0.818   5.882  1.8525  1.9599  1.0664
  137OSM   H11T14937   5.616   0.959   5.980  0.4975 -0.6506 -0.9241
  137OSM   C12S14938   5.524   0.931   5.792  0.7678  0.2667  0.0945
  137OSM   H12S14939   5.528   1.041   5.807  1.2229  0.2400  0.1807
  137OSM   H12T14940   5.417   0.899   5.793  1.4424 -2.2417 -0.9324
  137OSM   C13S14941   5.578   0.890   5.661 -0.1275  0.1969 -0.7141
  137OSM   H13S14942   5.551   0.787   5.629  1.2984 -0.3773 -0.1358
  137OSM   H13T14943   5.687   0.907   5.665 -0.3079  1.2917  0.0901
  137OSM   C14S14944   5.521   0.967   5.542 -0.0919 -0.2514 -0.5972
  137OSM   H14S14945   5.522   1.077   5.557  4.2644 -0.3541  1.5863
  137OSM   H14T14946   5.416   0.939   5.523 -1.4663  2.1785  2.6139
  137OSM   C15S14947   5.605   0.948   5.421  0.0710  0.0746  0.0879
  137OSM   H15S14948   5.585   0.845   5.384 -2.7814 -0.2213  2.1175
  137OSM   H15T14949   5.714   0.957   5.439  0.3123  3.5107 -2.1077
  137OSM   C16S14950   5.564   1.045   5.308 -0.3111 -0.3421 -0.6476
  137OSM   H16S14951   5.564   1.151   5.339 -0.0934 -1.0154  1.9324
  137OSM   H16T14952   5.456   1.035   5.283 -0.2264  0.9755 -1.5884
  137OSM   C17S14953   5.660   1.023   5.184  0.7594 -0.1400  0.2013
  137OSM   H17S14954   5.636   0.921   5.146  1.4068 -0.6841  1.2086
  137OSM   H17T14955   5.763   1.033   5.224  0.2460  0.0311  1.5645
  137OSM   C18S14956   5.641   1.136   5.082  0.7535  0.6953  0.1218
  137OSM   H18S14957   5.664   1.225   5.145  2.4465 -0.7841  1.7465
  137OSM   H18T14958   5.536   1.128   5.049  1.0537 -1.5048 -0.4165
  137OSM   H18U14959   5.708   1.128   4.994 -0.3733  0.1016 -0.7092
  137OSM    C1F14960   5.900   0.475   6.779 -0.0847  0.0302  0.4804
  137OSM     OF14961   5.831   0.390   6.833 -0.0627  0.5178 -0.6764
  137OSM    C2F14962   6.026   0.430   6.721 -0.3427 -0.3762  0.5755
  137OSM    H2F14963   6.094   0.396   6.802 -3.1417 -0.2875  3.1766
  137OSM    H2G14964   6.080   0.520   6.686  0.3513 -1.2699 -0.7394
  137OSM    C3F14965   6.020   0.325   6.603  0.6446  0.8726 -0.2510
  137OSM    H3F14966   5.985   0.224   6.633 -0.2475  0.7641 -1.6017
  137OSM    H3G14967   6.118   0.304   6.555  0.1246  0.2987 -1.0822
  137OSM    C4F14968   5.925   0.364   6.484  0.1410  0.2566  0.3086
  137OSM    H4F14969   5.822   0.395   6.510 -1.2242 -1.5576 -2.4471
  137OSM    H4G14970   5.919   0.270   6.424  1.4965 -0.8614  1.8278
  137OSM    C5F14971   5.983   0.476   6.402 -0.1108  0.6971 -0.3273
  137OSM    H5F14972   6.072   0.517   6.453  0.9499 -0.0947 -1.4796
  137OSM    H5G14973   5.916   0.565   6.402  1.3835  1.8716  1.4507
  137OSM    C6F14974   6.015   0.441   6.259 -0.3135  0.4525 -0.4616
  137OSM    H6F14975   5.945   0.363   6.222 -0.5225  0.8718 -0.9685
  137OSM    H6G14976   6.116   0.396   6.249 -0.6046 -0.1828 -0.5720
  137OSM    C7F14977   6.005   0.566   6.181  0.0888 -0.0529 -0.0415
  137OSM    H7F14978   6.060   0.647   6.235  2.4533 -0.7218 -1.2752
  137OSM    H7G14979   5.898   0.594   6.190  0.2070  0.0634  1.2911
  137OSM    C8F14980   6.055   0.557   6.034 -0.6806 -0.1106  0.6962
  137OSM    H8F14981   6.166   0.568   6.032 -0.7592  0.7952 -1.9072
  137OSM    H8G14982   6.027   0.646   5.974 -0.8565 -1.3661 -1.1959
  137OSM    C9F14983   6.011   0.435   5.962  0.0607  0.1544  0.0740
  137OSM    H9F14984   6.044   0.335   5.993 -1.9400 -1.5687 -2.8462
  137OSM   C10F14985   5.920   0.430   5.865  0.1511 -0.4027  0.6907
  137OSM   H10F14986   5.891   0.326   5.846  0.1352 -0.2692 -0.0344
  137OSM   C11F14987   5.840   0.537   5.785  0.3962  0.4357 -0.3338
  137OSM   H11F14988   5.868   0.641   5.815 -0.3752  1.0903 -1.7960
  137OSM   H11G14989   5.738   0.520   5.825  0.6944 -1.2582 -0.2377
  137OSM   C12F14990   5.837   0.534   5.635 -0.1938  0.2931  0.3249
  137OSM   H12F14991   5.934   0.561   5.586 -0.2016 -0.7132 -0.2796
  137OSM   H12G14992   5.769   0.614   5.600  0.9068  0.9291 -0.4425
  137OSM   C13F14993   5.776   0.408   5.579 -0.3186 -0.2705  0.2827
  137OSM   H13F14994   5.676   0.396   5.627  0.1265  1.8372  1.8571
  137OSM   H13G14995   5.852   0.333   5.607  0.1951  0.1156 -0.0604
  137OSM   C14F14996   5.760   0.425   5.431  0.0083 -0.1841  0.3321
  137OSM   H14F14997   5.859   0.442   5.383  0.5464 -1.4530  0.9592
  137OSM   H14G14998   5.700   0.516   5.409 -1.6592 -1.3657 -0.2227
  137OSM   C15F14999   5.696   0.300   5.360  0.0801 -0.0315  0.2001
  137OSM   H15F15000   5.596   0.289   5.406  0.1686 -0.7799  0.2216
  137OSM   H15G15001   5.746   0.207   5.394  2.1068  0.4005 -1.3410
  137OSM   C16F15002   5.704   0.306   5.206 -0.5889 -0.1630 -0.5059
  137OSM   H16F15003   5.812   0.310   5.177 -0.6867  0.5794 -0.7877
  137OSM   H16G15004   5.649   0.394   5.168  0.7575  0.8511 -0.1562
  137OSM   C17F15005   5.636   0.187   5.143  0.3420  0.5388  0.3985
  137OSM   H17F15006   5.531   0.207   5.175  0.4626 -0.1041  1.2081
  137OSM   H17G15007   5.664   0.092   5.192 -1.5290 -0.1563  0.2008
  137OSM   C18F15008   5.642   0.181   4.987  0.1791 -0.1587 -0.1287
  137OSM   H18F15009   5.735   0.130   4.955 -0.3081 -1.8561  0.9686
  137OSM   H18G15010   5.624   0.282   4.944  0.0178 -0.6686 -1.2961
  137OSM   H18H15011   5.570   0.114   4.935  1.0279 -0.8434 -0.4267
  138OSM      N15012   1.125   4.863   7.472 -0.0269 -0.1321 -0.4047
  138OSM    C1515013   1.159   4.767   7.585 -0.0782 -0.0371  0.2149
  138OSM   H15A15014   1.083   4.691   7.580 -1.0109  0.8618  0.2223
  138OSM   H15B15015   1.193   4.810   7.679  0.8961 -1.1770  0.4007
  138OSM   H15C15016   1.255   4.725   7.559 -0.1189  0.8369 -1.4516
  138OSM    C1415017   1.031   4.962   7.532 -0.3440 -0.1963  0.7470
  138OSM   H14A15018   1.087   5.013   7.608  1.3173  1.2353 -1.3025
  138OSM   H14B15019   0.939   4.921   7.571 -1.1242 -0.5739 -1.3124
  138OSM   H14C15020   1.010   5.043   7.463 -0.7217 -0.7068  0.2422
  138OSM    C1315021   1.250   4.939   7.432 -0.7812  0.4854  0.6387
  138OSM   H13A15022   1.286   4.986   7.522  2.9892  0.7737 -0.8610
  138OSM   H13B15023   1.238   5.013   7.354  1.0525  1.1423  0.9318
  138OSM   H13C15024   1.326   4.866   7.410 -0.8465  0.2915  1.0423
  138OSM    C1215025   1.066   4.799   7.353  0.0428  0.6358 -0.1766
  138OSM   H12A15026   0.969   4.758   7.378  1.4629 -0.9706  3.3254
  138OSM   H12B15027   1.122   4.712   7.322 -1.3549 -0.8973  1.3944
  138OSM    C1115028   1.040   4.886   7.230  0.5753  0.5224  0.6574
  138OSM   H11A15029   1.050   4.991   7.266 -0.3350  0.9821 -0.3821
  138OSM   H11B15030   0.946   4.871   7.173  1.1845 -0.2505 -0.1665
  138OSM      P15031   1.200   4.763   7.061 -0.0393 -0.3497  0.1322
  138OSM    O1315032   1.289   4.823   6.966  0.1351 -0.2876  0.5353
  138OSM    O1415033   1.252   4.658   7.150  0.4882 -0.0224 -0.3186
  138OSM    O1115034   1.071   4.705   6.989  0.5680 -0.1155 -0.1770
  138OSM    O1215035   1.152   4.887   7.143  0.1138  0.2024  0.5480
  138OSM    C1S15036   0.986   4.790   6.906  0.1924  0.0227 -0.4235
  138OSM    H1S15037   0.969   4.887   6.958  0.6591 -1.1324  2.0047
  138OSM    H1T15038   0.884   4.746   6.911 -0.7136  2.0416  0.0659
  138OSM     NF15039   1.007   4.919   6.698  0.1317 -0.3101 -0.1346
  138OSM    HNF15040   0.934   4.899   6.633  1.2683 -0.7830 -1.3325
  138OSM    C2S15041   1.054   4.804   6.766 -0.2771  0.5226 -0.1511
  138OSM    H2S15042   1.162   4.829   6.776 -0.0135 -0.5719 -0.1440
  138OSM    C3S15043   1.058   4.674   6.679  0.1635  0.5710  0.1023
  138OSM    H3S15044   0.953   4.645   6.657  0.5154 -0.2597 -0.5586
  138OSM     O315045   1.114   4.567   6.754  0.5688  0.7326  0.1091
  138OSM    HO315046   1.115   4.583   6.849 -1.6425 -2.5994  0.8854
  138OSM    C4S15047   1.138   4.696   6.564 -0.8925  0.4618  0.6548
  138OSM    H4S15048   1.082   4.703   6.469 -1.3540 -1.8256  0.6847
  138OSM    C5S15049   1.275   4.698   6.559 -0.0297  0.3643  0.3648
  138OSM    H5S15050   1.321   4.670   6.656  1.0851 -0.1547 -0.2882
  138OSM    C6S15051   1.357   4.730   6.436  0.2264 -0.7586  0.2788
  138OSM    H6S15052   1.436   4.654   6.421  0.4131 -0.2912 -1.2034
  138OSM    H6T15053   1.410   4.825   6.458  0.3638 -0.6457 -0.5252
  138OSM    C7S15054   1.280   4.736   6.300  0.9412  0.0323  0.3755
  138OSM    H7S15055   1.217   4.827   6.307  0.9005  0.0840 -0.6077
  138OSM    H7T15056   1.218   4.645   6.288 -3.4999  2.7289  0.6600
  138OSM    C8S15057   1.389   4.742   6.188  0.0995 -0.7528 -0.2580
  138OSM    H8S15058   1.453   4.652   6.201  3.9523  1.8197  0.1946
  138OSM    H8T15059   1.447   4.833   6.215 -0.3756 -1.0507  1.9040
  138OSM    C9S15060   1.333   4.747   6.051 -0.8692 -0.0968 -0.6892
  138OSM    H9S15061   1.249   4.819   6.043 -0.7476  0.1478  0.1432
  138OSM    H9T15062   1.303   4.644   6.023  0.3693 -0.7156  0.1424
  138OSM   C10S15063   1.443   4.793   5.953  0.8101 -0.3479 -0.3150
  138OSM   H10S15064   1.533   4.750   6.002  1.8612  1.4975 -0.5082
  138OSM   H10T15065   1.466   4.901   5.968  0.1978 -0.2249 -0.2319
  138OSM   C11S15066   1.424   4.769   5.806  0.6725 -0.3560  1.0875
  138OSM   H11S15067   1.426   4.658   5.799  0.4398 -0.3038  0.0803
  138OSM   H11T15068   1.503   4.816   5.744 -0.6091  1.6975  0.9385
  138OSM   C12S15069   1.281   4.817   5.748 -1.1554  0.2944 -0.2479
  138OSM   H12S15070   1.287   4.927   5.740 -1.8242  0.1850 -3.7832
  138OSM   H12T15071   1.200   4.796   5.820  0.6643  0.4620  1.9790
  138OSM   C13S15072   1.255   4.755   5.609 -0.4355 -0.7168 -0.1175
  138OSM   H13S15073   1.145   4.757   5.596 -1.1356 -0.3617  4.3016
  138OSM   H13T15074   1.270   4.645   5.619 -2.3911 -1.2460 -2.2276
  138OSM   C14S15075   1.323   4.825   5.484 -0.5208 -0.2151  0.1858
  138OSM   H14S15076   1.289   4.757   5.403 -0.7569 -1.1281  1.0162
  138OSM   H14T15077   1.433   4.822   5.471 -0.4285  3.1976 -0.6637
  138OSM   C15S15078   1.279   4.971   5.455 -0.2534 -0.5748  0.6316
  138OSM   H15S15079   1.263   5.023   5.552 -1.1750 -0.4428  0.4134
  138OSM   H15T15080   1.183   4.966   5.400  0.2122 -0.7992 -0.1724
  138OSM   C16S15081   1.373   5.048   5.360 -0.3239  0.1231 -0.4266
  138OSM   H16S15082   1.478   5.045   5.395 -0.7133  1.0977  0.9288
  138OSM   H16T15083   1.338   5.153   5.365  1.1523  0.6066  0.2744
  138OSM   C17S15084   1.360   4.999   5.215  0.3966  0.0943  0.2826
  138OSM   H17S15085   1.261   5.038   5.180  0.6552  0.1608 -0.3832
  138OSM   H17T15086   1.357   4.888   5.215 -1.0389  0.0798 -1.7934
  138OSM   C18S15087   1.477   5.046   5.126  0.2058  0.2647 -0.4950
  138OSM   H18S15088   1.465   5.010   5.021  1.8828  1.2397 -1.0637
  138OSM   H18T15089   1.570   5.002   5.168  0.6003  0.3006 -1.3081
  138OSM   H18U15090   1.491   5.156   5.117  0.1767  0.1707 -2.1562
  138OSM    C1F15091   1.037   5.042   6.736  0.5205  0.5978  0.5716
  138OSM     OF15092   1.117   5.065   6.823 -0.2272  0.0851  0.2750
  138OSM    C2F15093   0.981   5.147   6.649 -0.3000 -0.0232  0.1503
  138OSM    H2F15094   0.936   5.221   6.719 -0.4346 -1.1777  1.3136
  138OSM    H2G15095   0.906   5.097   6.584 -0.4488  1.9157 -1.2498
  138OSM    C3F15096   1.084   5.232   6.571  0.1807 -0.4078 -0.3316
  138OSM    H3F15097   1.156   5.271   6.646 -1.7162  1.1919  0.7595
  138OSM    H3G15098   1.027   5.319   6.532  1.1952  0.2310 -0.4293
  138OSM    C4F15099   1.148   5.166   6.453  0.1373  0.3674  0.0122
  138OSM    H4F15100   1.071   5.112   6.393 -1.0176  0.8054  1.0615
  138OSM    H4G15101   1.209   5.081   6.490 -0.0779 -0.7673 -2.0937
  138OSM    C5F15102   1.244   5.253   6.365  0.3254  0.1210 -0.4687
  138OSM    H5F15103   1.316   5.303   6.434  1.0701 -1.0792 -0.3389
  138OSM    H5G15104   1.186   5.333   6.315 -1.0798  0.0119  0.9225
  138OSM    C6F15105   1.324   5.174   6.261  0.3560 -0.1245 -0.3094
  138OSM    H6F15106   1.252   5.100   6.221 -1.8730  1.2044  0.9719
  138OSM    H6G15107   1.401   5.118   6.317 -1.3867 -2.4337 -0.1026
  138OSM    C7F15108   1.383   5.265   6.157 -0.7752  0.4403 -0.0035
  138OSM    H7F15109   1.459   5.321   6.215  0.2317 -2.8264  2.1529
  138OSM    H7G15110   1.304   5.332   6.117 -0.0679 -0.4056 -3.0240
  138OSM    C8F15111   1.458   5.199   6.034  0.7615 -0.1407 -0.2100
  138OSM    H8F15112   1.462   5.281   5.959 -3.2451 -1.4565 -2.1557
  138OSM    H8G15113   1.390   5.123   5.990  1.0834 -0.3292 -0.3928
  138OSM    C9F15114   1.588   5.140   6.074  0.3455 -0.0971  0.6461
  138OSM    H9F15115   1.572   5.062   6.149 -2.1359 -0.8515 -0.5621
  138OSM   C10F15116   1.708   5.181   6.035  0.9515 -0.4313 -0.8160
  138OSM   H10F15117   1.797   5.133   6.079  0.7415 -0.2483 -0.1795
  138OSM   C11F15118   1.750   5.301   5.947 -0.0241  0.5739 -0.4384
  138OSM   H11F15119   1.859   5.323   5.945 -0.2162  1.7260  0.2769
  138OSM   H11G15120   1.699   5.394   5.981 -1.3047  0.8901 -3.0120
  138OSM   C12F15121   1.716   5.280   5.799  0.3839  0.2333  0.2166
  138OSM   H12F15122   1.617   5.229   5.799 -0.3100  1.4364 -2.1365
  138OSM   H12G15123   1.786   5.209   5.752 -1.2212 -2.3594  1.4838
  138OSM   C13F15124   1.706   5.416   5.721 -0.0291  0.7619 -0.6755
  138OSM   H13F15125   1.814   5.437   5.710  0.4067 -1.3675 -0.8430
  138OSM   H13G15126   1.653   5.486   5.790 -0.7733  0.2344 -0.6923
  138OSM   C14F15127   1.629   5.402   5.587  0.5196  0.0186 -0.0207
  138OSM   H14F15128   1.618   5.502   5.540  4.1005 -0.0497 -1.3577
  138OSM   H14G15129   1.536   5.342   5.600 -0.0909  1.4050  2.7076
  138OSM   C15F15130   1.729   5.332   5.486  0.4313  0.4442 -0.9008
  138OSM   H15F15131   1.746   5.234   5.535  1.5827  1.2360  0.3450
  138OSM   H15G15132   1.834   5.367   5.482 -0.1306  2.1949 -1.6097
  138OSM   C16F15133   1.672   5.325   5.347  0.2536 -0.5834 -0.3069
  138OSM   H16F15134   1.594   5.245   5.354 -0.0431 -0.1769  1.6871
  138OSM   H16G15135   1.739   5.274   5.276 -0.4937 -0.8470 -0.8403
  138OSM   C17F15136   1.613   5.451   5.287  0.0347 -0.1271  0.3246
  138OSM   H17F15137   1.685   5.532   5.311  1.4489 -1.6810  1.5804
  138OSM   H17G15138   1.519   5.475   5.342  0.2388  1.7931 -0.0951
  138OSM   C18F15139   1.569   5.457   5.137  0.4159  0.1561  0.0584
  138OSM   H18F15140   1.486   5.391   5.105  0.4375 -0.3045  0.9218
  138OSM   H18G15141   1.661   5.455   5.073 -0.0377  2.1748 -0.7401
  138OSM   H18H15142   1.538   5.558   5.102  0.3744 -0.6301 -2.3577
  139OSM      N15143   4.021   1.657   7.080  0.2976 -0.5841 -0.5188
  139OSM    C1515144   4.005   1.808   7.067  0.9954 -0.6910  0.6538
  139OSM   H15A15145   3.949   1.849   7.150 -0.1383 -0.5187 -0.1768
  139OSM   H15B15146   3.964   1.827   6.969  1.5154 -3.2054 -0.1333
  139OSM   H15C15147   4.102   1.854   7.070  0.5038  0.4667 -0.4178
  139OSM    C1415148   4.103   1.623   7.201 -0.1292 -0.2766 -0.1236
  139OSM   H14A15149   4.207   1.646   7.182  0.1871 -2.9809 -2.2956
  139OSM   H14B15150   4.093   1.518   7.223 -2.4072  0.0974  0.7996
  139OSM   H14C15151   4.062   1.673   7.287  0.0374  0.8640 -0.6833
  139OSM    C1315152   3.884   1.603   7.110  0.7638  0.4229 -0.0781
  139OSM   H13A15153   3.820   1.634   7.029  0.6428 -0.2429 -0.2409
  139OSM   H13B15154   3.850   1.634   7.208  0.2734  0.9829 -0.4177
  139OSM   H13C15155   3.880   1.495   7.119  0.5297  0.5470  1.6932
  139OSM    C1215156   4.068   1.587   6.954 -0.1173  0.5454  0.2699
  139OSM   H12A15157   3.997   1.622   6.880  0.1351 -1.2280 -0.8624
  139OSM   H12B15158   4.062   1.480   6.972 -1.1512  0.9954  3.1897
  139OSM    C1115159   4.210   1.625   6.901 -0.1076 -0.2797  0.8307
  139OSM   H11A15160   4.228   1.732   6.925 -2.0969 -0.2978  2.8070
  139OSM   H11B15161   4.234   1.610   6.794 -0.4190  1.4984  0.4715
  139OSM      P15162   4.322   1.392   6.963 -0.2390  0.7190  0.0195
  139OSM    O1315163   4.431   1.371   7.058  0.5818 -0.6633 -0.2982
  139OSM    O1415164   4.194   1.315   6.980 -0.4182  0.2556  0.1873
  139OSM    O1115165   4.375   1.363   6.814 -0.5529 -0.5570 -0.6886
  139OSM    O1215166   4.303   1.549   6.976  0.8821  0.3944  0.3641
  139OSM    C1S15167   4.301   1.296   6.713  0.0506  0.1339 -0.6866
  139OSM    H1S15168   4.195   1.300   6.744  0.1174 -0.6223 -0.3280
  139OSM    H1T15169   4.351   1.201   6.684  1.2567  1.2926 -2.6409
  139OSM     NF15170   4.219   1.290   6.489  0.2960  0.5266 -0.4393
  139OSM    HNF15171   4.261   1.220   6.431  1.2418 -0.9897  1.9335
  139OSM    C2S15172   4.312   1.359   6.571 -0.1207 -0.3892  0.2305
  139OSM    H2S15173   4.280   1.466   6.578  1.6852  0.1481  0.9127
  139OSM    C3S15174   4.455   1.355   6.512  0.2520 -0.6288 -0.8031
  139OSM    H3S15175   4.482   1.258   6.466  0.5098 -0.8826 -0.1276
  139OSM     O315176   4.565   1.371   6.607  0.0779  0.2626 -0.4193
  139OSM    HO315177   4.526   1.355   6.693 -0.6430  0.5153 -0.6967
  139OSM    C4S15178   4.465   1.449   6.396  0.3412 -0.7890 -0.2678
  139OSM    H4S15179   4.430   1.407   6.301  1.3096  0.8324 -1.3750
  139OSM    C5S15180   4.495   1.583   6.395  0.3296  0.0622 -0.1500
  139OSM    H5S15181   4.501   1.632   6.493  0.9637 -0.9143  0.3131
  139OSM    C6S15182   4.505   1.682   6.282  0.2963  0.5249 -0.5458
  139OSM    H6S15183   4.589   1.754   6.288 -0.9872  2.0581 -0.4247
  139OSM    H6T15184   4.416   1.748   6.283  1.1862  1.8283 -2.0496
  139OSM    C7S15185   4.519   1.606   6.146 -0.1825 -0.1043 -0.5453
  139OSM    H7S15186   4.455   1.516   6.131  1.6517 -1.9892  2.1470
  139OSM    H7T15187   4.618   1.556   6.141 -0.4639 -0.8684  0.9452
  139OSM    C8S15188   4.516   1.696   6.024  0.5929 -0.8851  0.6335
  139OSM    H8S15189   4.602   1.766   6.033 -1.1948  1.6776 -0.7218
  139OSM    H8T15190   4.420   1.753   6.023  1.2260  0.2042  0.5369
  139OSM    C9S15191   4.519   1.616   5.897  0.5484  0.2142  0.1623
  139OSM    H9S15192   4.420   1.571   5.874  0.4732  0.5774 -0.2375
  139OSM    H9T15193   4.602   1.542   5.899  0.8325  0.5039 -0.4702
  139OSM   C10S15194   4.535   1.709   5.769 -0.3471 -0.0108 -0.5644
  139OSM   H10S15195   4.619   1.776   5.799 -0.2152 -0.9058  1.1604
  139OSM   H10T15196   4.441   1.767   5.756 -0.6398 -0.3753 -0.0880
  139OSM   C11S15197   4.535   1.619   5.644 -0.1901 -0.0985  0.0803
  139OSM   H11S15198   4.623   1.551   5.656 -1.0549 -1.0023  1.6176
  139OSM   H11T15199   4.558   1.693   5.565 -2.0598 -0.2075 -0.6047
  139OSM   C12S15200   4.406   1.551   5.604  0.1980 -0.0538 -0.1241
  139OSM   H12S15201   4.328   1.629   5.620  0.7692  0.4607  0.1788
  139OSM   H12T15202   4.391   1.459   5.665  1.4723 -0.2506 -0.0722
  139OSM   C13S15203   4.402   1.517   5.457 -0.2419 -0.3565  0.8099
  139OSM   H13S15204   4.486   1.445   5.449 -0.4426 -0.4630 -0.6841
  139OSM   H13T15205   4.439   1.611   5.412 -1.5312  0.5550  1.5931
  139OSM   C14S15206   4.270   1.469   5.396  0.1839  0.3259  0.2783
  139OSM   H14S15207   4.203   1.558   5.401 -1.4264 -0.8589  0.3590
  139OSM   H14T15208   4.221   1.399   5.466 -0.3466 -1.1102 -1.4475
  139OSM   C15S15209   4.281   1.409   5.248  0.7963  0.0465 -0.3216
  139OSM   H15S15210   4.176   1.394   5.213  0.5833  2.1245 -0.7322
  139OSM   H15T15211   4.338   1.314   5.243  0.4019 -0.3362  1.6286
  139OSM   C16S15212   4.352   1.512   5.147  0.1585 -0.0741 -0.7820
  139OSM   H16S15213   4.354   1.456   5.051 -1.4003 -1.3703 -0.1027
  139OSM   H16T15214   4.452   1.527   5.194 -1.4442  1.9562  2.3040
  139OSM   C17S15215   4.268   1.640   5.122 -0.0122  0.6315  0.3003
  139OSM   H17S15216   4.252   1.680   5.224 -3.0310  0.0054  0.1631
  139OSM   H17T15217   4.168   1.618   5.080 -0.1709 -1.1420  1.4928
  139OSM   C18S15218   4.345   1.742   5.034  0.1775  0.4055 -0.5018
  139OSM   H18S15219   4.427   1.793   5.087 -0.7509  2.8102 -1.2423
  139OSM   H18T15220   4.273   1.815   4.990 -1.0375  0.1905  1.0441
  139OSM   H18U15221   4.386   1.689   4.945 -0.2364 -1.8032  0.5280
  139OSM    C1F15222   4.088   1.305   6.510 -0.5162 -0.2691  0.1446
  139OSM     OF15223   4.044   1.376   6.600  0.6762  0.7807 -0.1454
  139OSM    C2F15224   3.996   1.244   6.411 -0.7597  0.4118  0.5826
  139OSM    H2F15225   3.905   1.218   6.470  1.6780 -1.8931  3.6892
  139OSM    H2G15226   4.041   1.153   6.365  1.8473  2.0801 -0.3755
  139OSM    C3F15227   3.955   1.345   6.300 -0.3603  1.6010 -0.0307
  139OSM    H3F15228   3.902   1.431   6.346 -2.2224 -0.1187  1.2291
  139OSM    H3G15229   3.878   1.293   6.240  0.2925 -0.9357  1.1945
  139OSM    C4F15230   4.072   1.369   6.201  1.0474 -0.5382  0.0987
  139OSM    H4F15231   4.123   1.276   6.167 -1.5036 -1.7765 -0.5578
  139OSM    H4G15232   4.159   1.425   6.243  1.4559 -0.6705 -0.5558
  139OSM    C5F15233   4.017   1.453   6.083  0.4972 -0.0279 -0.1679
  139OSM    H5F15234   4.034   1.561   6.102 -0.3143 -0.1721  1.5666
  139OSM    H5G15235   3.906   1.444   6.084  0.3190  1.7893 -0.1783
  139OSM    C6F15236   4.099   1.424   5.958 -0.2997 -0.2591  0.0525
  139OSM    H6F15237   4.065   1.323   5.926  0.2272 -0.4804  0.1816
  139OSM    H6G15238   4.207   1.425   5.982 -0.4202 -2.4808  0.9232
  139OSM    C7F15239   4.083   1.522   5.844 -0.6662  1.1023 -0.1162
  139OSM    H7F15240   4.144   1.495   5.755 -1.1489 -0.4366 -0.0145
  139OSM    H7G15241   4.133   1.618   5.872 -0.3909  1.4382 -1.6847
  139OSM    C8F15242   3.942   1.541   5.809 -0.2689 -0.2487 -0.1874
  139OSM    H8F15243   3.941   1.635   5.750  1.9830  0.9314  1.5068
  139OSM    H8G15244   3.893   1.558   5.908 -0.4466 -2.7881  0.2132
  139OSM    C9F15245   3.876   1.427   5.735  0.9691  1.0398 -0.0575
  139OSM    H9F15246   3.864   1.336   5.796  3.8196 -0.9009 -2.1293
  139OSM   C10F15247   3.828   1.430   5.609  0.2573 -0.7796  0.1124
  139OSM   H10F15248   3.783   1.336   5.573 -0.9169 -0.1934 -0.0174
  139OSM   C11F15249   3.850   1.534   5.503  0.5541 -0.3186 -0.6285
  139OSM   H11F15250   3.933   1.601   5.532  1.8339 -1.9378 -0.3692
  139OSM   H11G15251   3.763   1.600   5.488  1.4152  0.9804 -0.0652
  139OSM   C12F15252   3.889   1.458   5.378 -0.1280 -0.7131  0.9733
  139OSM   H12F15253   3.800   1.400   5.344  1.5967 -1.9711 -1.7725
  139OSM   H12G15254   3.966   1.381   5.396 -0.1097 -0.6164  1.3172
  139OSM   C13F15255   3.922   1.551   5.252 -0.6881  0.3501 -0.3787
  139OSM   H13F15256   3.966   1.499   5.164 -0.1310  0.2422 -0.0438
  139OSM   H13G15257   4.000   1.622   5.286  0.9588 -0.4715 -2.2181
  139OSM   C14F15258   3.797   1.629   5.204 -0.5389  0.0901  0.3995
  139OSM   H14F15259   3.751   1.687   5.286  0.8297  0.2322  1.1015
  139OSM   H14G15260   3.721   1.551   5.181  0.9872 -1.5047  0.4731
  139OSM   C15F15261   3.814   1.705   5.076  0.2629 -0.8815  0.2421
  139OSM   H15F15262   3.828   1.626   5.000  1.1124 -1.3950  0.9066
  139OSM   H15G15263   3.891   1.785   5.081 -0.7563  0.0700  2.7512
  139OSM   C16F15264   3.684   1.776   5.021  0.2180 -0.0828  0.2040
  139OSM   H16F15265   3.648   1.845   5.101  1.3052 -1.6388  2.1342
  139OSM   H16G15266   3.607   1.697   5.004 -0.4270  0.7109 -0.6893
  139OSM   C17F15267   3.697   1.835   4.878  0.3171 -1.0794  0.2828
  139OSM   H17F15268   3.714   1.741   4.822  2.1907 -1.7898  1.9254
  139OSM   H17G15269   3.792   1.893   4.883  0.5274 -1.4733  1.0975
  139OSM   C18F15270   3.576   1.905   4.825 -0.5739  0.2324  0.2658
  139OSM   H18F15271   3.604   1.965   4.736 -1.9494  0.8225  0.2010
  139OSM   H18G15272   3.539   1.976   4.901 -0.6182 -0.2793  0.7282
  139OSM   H18H15273   3.499   1.832   4.793  0.2449 -0.0576 -1.1617
  140OSM      N15274   5.433   0.353   7.008 -0.0504 -0.0314 -0.4301
  140OSM    C1515275   5.457   0.394   7.154  0.2083 -0.0549 -0.1736
  140OSM   H15A15276   5.541   0.461   7.151  1.4623 -1.4902  1.2810
  140OSM   H15B15277   5.468   0.310   7.220  0.6231  1.2853  1.5437
  140OSM   H15C15278   5.366   0.438   7.193 -0.1421 -0.2199 -0.7903
  140OSM    C1415279   5.396   0.477   6.927 -0.4979  0.1500  0.0533
  140OSM   H14A15280   5.297   0.504   6.960 -0.6149 -2.0443  1.7075
  140OSM   H14B15281   5.385   0.460   6.821 -1.0618  0.7648  0.0075
  140OSM   H14C15282   5.457   0.563   6.949 -2.3017  1.3931  0.3890
  140OSM    C1315283   5.566   0.308   6.956  0.6994  0.6375  0.1164
  140OSM   H13A15284   5.628   0.393   6.978 -0.2439  1.0863  1.1113
  140OSM   H13B15285   5.562   0.303   6.848 -0.0625  1.3112  0.1022
  140OSM   H13C15286   5.602   0.212   6.989  0.5731 -0.8418 -3.5415
  140OSM    C1215287   5.331   0.241   6.992  0.1395  0.8107  0.4024
  140OSM   H12A15288   5.235   0.275   7.028 -0.9964  1.3185 -2.8242
  140OSM   H12B15289   5.363   0.154   7.048  2.9315  0.6859 -1.2098
  140OSM    C1115290   5.308   0.191   6.848  0.0586 -0.8743  0.1440
  140OSM   H11A15291   5.241   0.103   6.856 -0.1782 -0.6439  0.7820
  140OSM   H11B15292   5.399   0.157   6.794 -0.3135 -1.1329 -0.3264
  140OSM      P15293   5.089   0.321   6.797 -0.0849 -0.4180 -0.4113
  140OSM    O1315294   5.053   0.294   6.941 -0.2073 -0.1334  0.5268
  140OSM    O1415295   5.065   0.458   6.754 -0.7040 -0.8389 -0.1321
  140OSM    O1115296   5.009   0.212   6.713  0.3408 -0.0056 -0.2902
  140OSM    O1215297   5.243   0.290   6.766 -0.5152 -0.0785 -0.2565
  140OSM    C1S15298   5.032   0.199   6.571  0.3915  0.1990  0.0942
  140OSM    H1S15299   5.068   0.098   6.543 -0.1930 -0.3429  1.2192
  140OSM    H1T15300   5.115   0.266   6.538  0.0815  1.9202  2.5213
  140OSM     NF15301   4.934   0.243   6.342 -0.2416  0.3017 -0.2948
  140OSM    HNF15302   4.937   0.336   6.307 -0.8262  0.7358  0.7606
  140OSM    C2S15303   4.905   0.237   6.488  0.1341  0.1824 -0.1478
  140OSM    H2S15304   4.844   0.145   6.499 -1.2055  1.1846  1.0730
  140OSM    C3S15305   4.832   0.360   6.539  0.3106  0.5122  0.0947
  140OSM    H3S15306   4.904   0.444   6.553  1.5660 -0.5490  0.1581
  140OSM     O315307   4.758   0.339   6.660 -0.3502 -0.5917 -0.4266
  140OSM    HO315308   4.809   0.265   6.696 -1.8531 -1.3206  0.3098
  140OSM    C4S15309   4.733   0.408   6.431 -0.6734  0.2169  0.2759
  140OSM    H4S15310   4.693   0.339   6.355 -1.4000  1.2666 -0.3243
  140OSM    C5S15311   4.709   0.530   6.390 -0.1405 -0.1505 -0.1227
  140OSM    H5S15312   4.767   0.613   6.432  0.9708  0.0201 -1.8912
  140OSM    C6S15313   4.622   0.549   6.268  0.5680  0.1377  0.7046
  140OSM    H6S15314   4.573   0.649   6.269 -0.8837 -0.5466  1.8390
  140OSM    H6T15315   4.537   0.478   6.265  0.3113  0.3486  2.1731
  140OSM    C7S15316   4.699   0.515   6.141  0.3813 -0.2285  0.4402
  140OSM    H7S15317   4.748   0.416   6.150  0.9540  0.0140 -0.0080
  140OSM    H7T15318   4.779   0.586   6.112 -0.2383  0.6785  0.8962
  140OSM    C8S15319   4.611   0.499   6.015 -0.7397  0.0757  0.0845
  140OSM    H8S15320   4.538   0.581   6.006  0.3925  1.1293  0.2380
  140OSM    H8T15321   4.555   0.403   6.016  0.3877 -0.6460  2.8439
  140OSM    C9S15322   4.688   0.512   5.883 -0.5619 -0.7187  0.0831
  140OSM    H9S15323   4.756   0.424   5.892  0.4769  0.2269  1.9495
  140OSM    H9T15324   4.760   0.596   5.873 -2.6891  0.9529 -3.0818
  140OSM   C10S15325   4.598   0.509   5.760 -0.5316  0.8327  0.3949
  140OSM   H10S15326   4.544   0.606   5.752 -1.3775  0.2206 -2.0740
  140OSM   H10T15327   4.524   0.427   5.755 -1.1258  1.4207 -1.1011
  140OSM   C11S15328   4.679   0.504   5.634 -0.4648 -0.5491 -0.4144
  140OSM   H11S15329   4.752   0.421   5.618 -3.1979 -2.7615 -2.4075
  140OSM   H11T15330   4.737   0.598   5.618  0.2530 -0.9777 -0.4073
  140OSM   C12S15331   4.590   0.498   5.505 -0.1830 -0.1837  0.0134
  140OSM   H12S15332   4.544   0.599   5.506  0.4874  0.2716 -3.2433
  140OSM   H12T15333   4.519   0.415   5.529  0.2849 -0.5945 -0.0068
  140OSM   C13S15334   4.676   0.480   5.383 -0.0109 -1.0052  0.5040
  140OSM   H13S15335   4.700   0.375   5.357 -0.9563 -0.8181 -1.2637
  140OSM   H13T15336   4.771   0.534   5.405 -1.7116  2.1881  0.5638
  140OSM   C14S15337   4.611   0.540   5.251 -0.1990  0.1312 -0.3511
  140OSM   H14S15338   4.645   0.645   5.248 -1.3666  0.5034 -1.9431
  140OSM   H14T15339   4.500   0.533   5.247 -0.1583 -1.4481  0.3409
  140OSM   C15S15340   4.676   0.480   5.132 -0.6043 -0.0225 -0.2244
  140OSM   H15S15341   4.785   0.463   5.141 -0.8149 -1.4327 -0.0582
  140OSM   H15T15342   4.674   0.555   5.050 -0.1396 -0.9461 -1.0981
  140OSM   C16S15343   4.602   0.353   5.083 -0.7280 -0.0444  0.6752
  140OSM   H16S15344   4.494   0.378   5.078 -0.6273  0.1828 -0.8224
  140OSM   H16T15345   4.613   0.273   5.160 -0.6804 -0.1796  0.5266
  140OSM   C17S15346   4.664   0.297   4.949 -0.0745  0.3651 -0.0041
  140OSM   H17S15347   4.762   0.248   4.971  0.0975  0.8333  0.2926
  140OSM   H17T15348   4.676   0.388   4.886 -2.5972  1.2984  0.7541
  140OSM   C18S15349   4.582   0.195   4.876 -0.8105  0.2370  0.1680
  140OSM   H18S15350   4.631   0.156   4.784  0.2656  0.5502  0.5886
  140OSM   H18T15351   4.493   0.253   4.843  0.5364  3.0040  1.0348
  140OSM   H18U15352   4.548   0.108   4.935  2.0218 -2.7949 -2.2494
  140OSM    C1F15353   4.970   0.138   6.265 -0.9156  0.4172 -0.0905
  140OSM     OF15354   5.001   0.033   6.321 -0.4791 -0.3945 -0.0676
  140OSM    C2F15355   4.996   0.157   6.117  0.0798  0.2170 -0.1901
  140OSM    H2F15356   5.105   0.174   6.106  0.0747 -0.9325 -2.6034
  140OSM    H2G15357   4.938   0.244   6.078  0.9045  1.4051  1.1491
  140OSM    C3F15358   4.960   0.028   6.038  0.4156 -0.5235 -0.9805
  140OSM    H3F15359   4.851   0.017   6.055  0.3029  2.3570  0.8829
  140OSM    H3G15360   5.010  -0.057   6.090  1.1892 -0.0879 -1.0115
  140OSM    C4F15361   5.004   0.036   5.892  0.9382 -0.1127 -0.4449
  140OSM    H4F15362   5.112   0.060   5.882  0.9022  1.3310  1.9334
  140OSM    H4G15363   4.956   0.130   5.858  3.4949  1.3060 -0.3621
  140OSM    C5F15364   4.945  -0.085   5.809 -0.0935 -0.1821  0.3545
  140OSM    H5F15365   4.844  -0.104   5.851  0.3806 -0.7475  1.2611
  140OSM    H5G15366   5.009  -0.174   5.828 -0.9648 -1.1166 -0.9345
  140OSM    C6F15367   4.935  -0.056   5.661 -0.5454 -0.0202  0.5712
  140OSM    H6F15368   5.037  -0.026   5.629 -1.2489 -0.0705 -1.8436
  140OSM    H6G15369   4.864   0.025   5.635 -1.6995 -0.1916  2.8307
  140OSM    C7F15370   4.893  -0.181   5.579 -0.1302 -0.3541 -0.7178
  140OSM    H7F15371   4.782  -0.173   5.581 -0.1651  0.0823  2.9618
  140OSM    H7G15372   4.917  -0.280   5.624 -0.0931 -0.2876 -0.5897
  140OSM    C8F15373   4.961  -0.191   5.444  0.2639  0.0147  0.2604
  140OSM    H8F15374   4.922  -0.284   5.395 -2.9220  1.3247  0.0636
  140OSM    H8G15375   5.070  -0.178   5.463 -0.3662  2.7073  2.5833
  140OSM    C9F15376   4.898  -0.081   5.360  0.5127  0.6305  0.2066
  140OSM    H9F15377   4.792  -0.102   5.342 -0.2047 -0.4150  4.5929
  140OSM   C10F15378   4.948   0.031   5.313 -0.2398 -0.5828  0.0068
  140OSM   H10F15379   4.892   0.097   5.245 -0.6257  1.6376  2.3162
  140OSM   C11F15380   5.093   0.084   5.324 -0.0742 -0.1853  0.2390
  140OSM   H11F15381   5.135   0.087   5.221 -0.0917  0.3464  0.2448
  140OSM   H11G15382   5.155   0.018   5.388 -0.6004 -1.2821 -0.3582
  140OSM   C12F15383   5.099   0.233   5.371  0.3616  0.0037  0.5120
  140OSM   H12F15384   5.205   0.258   5.349  0.2706  0.5804  0.7177
  140OSM   H12G15385   5.080   0.227   5.480  2.2262  2.4786  1.0538
  140OSM   C13F15386   5.028   0.343   5.289  0.0410  0.4314 -0.0631
  140OSM   H13F15387   5.064   0.438   5.334 -0.4799  0.3288  0.5835
  140OSM   H13G15388   4.918   0.346   5.306 -0.1364  2.6286 -1.2382
  140OSM   C14F15389   5.042   0.359   5.134  0.0895  0.5801  0.1115
  140OSM   H14F15390   5.013   0.461   5.102  0.4125  0.2402 -1.3644
  140OSM   H14G15391   4.985   0.280   5.081  0.1011 -0.0469  1.0081
  140OSM   C15F15392   5.182   0.341   5.071  0.0350  0.5647  0.2703
  140OSM   H15F15393   5.225   0.240   5.088 -0.2891  0.4561  0.4395
  140OSM   H15G15394   5.261   0.411   5.108  1.1928 -1.2298  1.3975
  140OSM   C16F15395   5.177   0.356   4.921  0.1615  0.5770  0.1614
  140OSM   H16F15396   5.097   0.287   4.886 -0.0029  0.1397  1.3376
  140OSM   H16G15397   5.273   0.312   4.888 -0.0355 -0.1297  0.5007
  140OSM   C17F15398   5.169   0.504   4.866  0.6154 -0.1124  0.3280
  140OSM   H17F15399   5.255   0.558   4.913 -0.3417  1.1436  0.6794
  140OSM   H17G15400   5.076   0.553   4.902  1.1356 -1.3538  3.7425
  140OSM   C18F15401   5.179   0.508   4.718  0.8569  0.3123  0.0486
  140OSM   H18F15402   5.092   0.460   4.668  1.0811  0.2080 -0.2453
  140OSM   H18G15403   5.268   0.450   4.686 -0.3116 -2.0086  0.8068
  140OSM   H18H15404   5.180   0.611   4.677 -0.5982  0.0376 -0.7500
  141OSM      N15405   4.549   0.126   7.034  0.2320  0.1730 -0.3997
  141OSM    C1515406   4.401   0.145   7.058  0.2404 -0.6488 -0.2426
  141OSM   H15A15407   4.346   0.052   7.056  0.0837 -0.9056  4.5326
  141OSM   H15B15408   4.367   0.223   6.992 -0.2929 -0.1396  0.6081
  141OSM   H15C15409   4.390   0.188   7.156  3.7881 -1.6478  0.7598
  141OSM    C1415410   4.611   0.262   7.063 -0.4165  0.6883  0.9982
  141OSM   H14A15411   4.716   0.256   7.089 -0.0687 -1.3632 -0.6054
  141OSM   H14B15412   4.569   0.323   7.141 -0.3381  2.3242 -0.1880
  141OSM   H14C15413   4.617   0.311   6.967  3.4970  0.3999  0.9368
  141OSM    C1315414   4.595   0.036   7.147 -0.3751  1.0802  0.1426
  141OSM   H13A15415   4.695   0.002   7.123 -0.5718  0.1859  0.5443
  141OSM   H13B15416   4.530  -0.049   7.164  2.3329 -1.2693 -0.3178
  141OSM   H13C15417   4.601   0.085   7.243  4.0066  1.9822 -0.3635
  141OSM    C1215418   4.579   0.073   6.899 -0.0823  0.3952 -0.4596
  141OSM   H12A15419   4.531   0.130   6.821  0.2003  0.8963 -0.2675
  141OSM   H12B15420   4.524  -0.019   6.885 -0.3852  0.7254 -1.5244
  141OSM    C1115421   4.724   0.040   6.860  0.3355  0.0198 -0.4819
  141OSM   H11A15422   4.781   0.135   6.870  0.2839 -0.1404  1.8602
  141OSM   H11B15423   4.716   0.018   6.752  2.0617  1.6730 -1.0012
  141OSM      P15424   4.767  -0.214   6.924  0.2944  0.1270  0.0487
  141OSM    O1315425   4.881  -0.284   6.981 -0.1825  0.2169  0.0644
  141OSM    O1415426   4.635  -0.249   6.981  0.5066  0.3613  0.3775
  141OSM    O1115427   4.765  -0.244   6.766 -0.5012  0.4429 -0.0623
  141OSM    O1215428   4.788  -0.055   6.939 -0.2352  0.2628  0.0566
  141OSM    C1S15429   4.882  -0.206   6.687  0.6826 -0.5775 -0.0917
  141OSM    H1S15430   4.974  -0.260   6.719  0.7676 -1.1796 -1.2728
  141OSM    H1T15431   4.901  -0.096   6.686  0.5418 -0.5199 -2.4198
  141OSM     NF15432   4.967  -0.227   6.443 -0.1818  0.4231  0.8545
  141OSM    HNF15433   4.968  -0.143   6.389  0.4495  1.1395  1.9474
  141OSM    C2S15434   4.855  -0.240   6.531 -0.2371  0.2604  0.9544
  141OSM    H2S15435   4.825  -0.346   6.525 -2.1890  0.8445 -2.1651
  141OSM    C3S15436   4.725  -0.171   6.472  0.0948  0.9025  0.0105
  141OSM    H3S15437   4.744  -0.062   6.479  1.0692  0.7974 -0.7631
  141OSM     O315438   4.607  -0.198   6.546 -0.3749 -0.2272  0.3985
  141OSM    HO315439   4.637  -0.223   6.634 -1.3055 -3.5770 -0.1323
  141OSM    C4S15440   4.707  -0.215   6.325  0.2430  0.8458  0.2956
  141OSM    H4S15441   4.791  -0.196   6.257  1.3415  0.3383  1.4680
  141OSM    C5S15442   4.609  -0.293   6.280  0.4269  0.3481  0.2404
  141OSM    H5S15443   4.523  -0.334   6.336  0.7108 -1.1682 -0.3865
  141OSM    C6S15444   4.602  -0.351   6.142 -0.1029 -0.1858 -1.2498
  141OSM    H6S15445   4.605  -0.462   6.147  1.7197 -0.1764 -1.1484
  141OSM    H6T15446   4.695  -0.327   6.086  0.3658 -1.5699 -1.1169
  141OSM    C7S15447   4.489  -0.298   6.055 -0.0232  0.1337 -0.5433
  141OSM    H7S15448   4.492  -0.188   6.042 -0.0217  0.1277 -0.5972
  141OSM    H7T15449   4.399  -0.301   6.120  1.7959 -2.4870  2.1170
  141OSM    C8S15450   4.463  -0.371   5.924  0.0409  0.8193  0.2606
  141OSM    H8S15451   4.375  -0.321   5.877  0.7662  0.3317 -1.7196
  141OSM    H8T15452   4.440  -0.478   5.939  1.6256  0.2448 -1.0773
  141OSM    C9S15453   4.587  -0.373   5.828  0.7227 -0.0529  0.0811
  141OSM    H9S15454   4.658  -0.454   5.855 -1.9527 -2.8058 -0.7092
  141OSM    H9T15455   4.631  -0.271   5.828  1.3967 -0.2841  2.1601
  141OSM   C10S15456   4.544  -0.396   5.684 -0.2483 -0.1890  0.2238
  141OSM   H10S15457   4.491  -0.308   5.642  0.8187  0.8200  0.9183
  141OSM   H10T15458   4.470  -0.477   5.701  2.4668 -2.9851 -0.4649
  141OSM   C11S15459   4.652  -0.465   5.591 -0.3897 -0.8952 -0.1672
  141OSM   H11S15460   4.690  -0.553   5.647 -1.0581  0.6515  2.9598
  141OSM   H11T15461   4.733  -0.389   5.580  0.0618 -1.1017  1.4195
  141OSM   C12S15462   4.586  -0.492   5.458  0.2064  0.2987  0.5272
  141OSM   H12S15463   4.526  -0.399   5.449 -0.3735  0.0959  1.9837
  141OSM   H12T15464   4.515  -0.578   5.465  0.5872 -0.6077 -3.8792
  141OSM   C13S15465   4.687  -0.507   5.349 -0.3329  0.4964  0.5776
  141OSM   H13S15466   4.752  -0.596   5.361  0.6781  1.0115 -0.7700
  141OSM   H13T15467   4.759  -0.423   5.366  2.3682 -1.6208  0.2166
  141OSM   C14S15468   4.625  -0.515   5.210  0.8710  0.3801  0.0167
  141OSM   H14S15469   4.559  -0.426   5.203  2.6698  1.7498 -0.1868
  141OSM   H14T15470   4.570  -0.611   5.200  1.0448  0.4745 -2.8497
  141OSM   C15S15471   4.719  -0.504   5.089 -0.2692  0.1164  0.5441
  141OSM   H15S15472   4.790  -0.589   5.087  2.4431  2.2201 -2.0646
  141OSM   H15T15473   4.781  -0.413   5.102 -1.7115  1.2762 -0.4005
  141OSM   C16S15474   4.655  -0.494   4.953  0.5265 -0.0971 -0.7543
  141OSM   H16S15475   4.563  -0.435   4.973 -0.6714 -1.9107 -0.7614
  141OSM   H16T15476   4.605  -0.589   4.926  0.7200  0.0542 -1.6901
  141OSM   C17S15477   4.755  -0.441   4.850  0.0818 -0.3337  0.1137
  141OSM   H17S15478   4.843  -0.508   4.860  0.6781  0.5746  1.1128
  141OSM   H17T15479   4.799  -0.344   4.880 -0.1522  0.1778 -1.1223
  141OSM   C18S15480   4.712  -0.457   4.705 -0.5203 -0.2697 -0.2267
  141OSM   H18S15481   4.649  -0.548   4.695 -2.0833  0.9921 -3.2467
  141OSM   H18T15482   4.797  -0.454   4.634 -2.6313  1.6957 -2.8984
  141OSM   H18U15483   4.640  -0.376   4.680 -3.0299 -1.7057  1.8374
  141OSM    C1F15484   5.078  -0.296   6.452 -0.2506  0.4250 -0.6628
  141OSM     OF15485   5.088  -0.382   6.540 -0.1094  0.2487  0.2532
  141OSM    C2F15486   5.190  -0.256   6.366 -0.1428  0.1064 -0.2801
  141OSM    H2F15487   5.257  -0.186   6.420 -0.3550 -0.5131  0.8167
  141OSM    H2G15488   5.149  -0.187   6.289 -0.1668  0.9936  0.5167
  141OSM    C3F15489   5.262  -0.379   6.305  0.3223 -0.2195 -0.3561
  141OSM    H3F15490   5.198  -0.432   6.230 -0.5878  0.4769 -0.0951
  141OSM    H3G15491   5.285  -0.445   6.391  0.3384  0.5720  0.2627
  141OSM    C4F15492   5.387  -0.342   6.226  0.1854 -0.1296  0.2729
  141OSM    H4F15493   5.464  -0.316   6.301 -3.1552  4.2543  2.6232
  141OSM    H4G15494   5.363  -0.265   6.149 -1.3953 -1.2610 -0.4361
  141OSM    C5F15495   5.448  -0.463   6.146  0.7592  0.5077  0.0522
  141OSM    H5F15496   5.366  -0.510   6.086  0.1484  0.3381  1.0063
  141OSM    H5G15497   5.470  -0.541   6.221  0.2133 -0.3862 -0.6939
  141OSM    C6F15498   5.573  -0.432   6.060  0.2740 -0.5144  0.7931
  141OSM    H6F15499   5.651  -0.380   6.119  2.3661 -1.6754 -0.8294
  141OSM    H6G15500   5.552  -0.367   5.972  0.5967  0.2636  1.2800
  141OSM    C7F15501   5.638  -0.552   5.996 -0.7544 -0.4559 -0.1092
  141OSM    H7F15502   5.565  -0.632   5.974  0.6351 -1.7396 -0.1752
  141OSM    H7G15503   5.712  -0.599   6.064 -1.1441 -1.1143 -0.1334
  141OSM    C8F15504   5.703  -0.510   5.857 -0.3749  0.3187 -0.2944
  141OSM    H8F15505   5.774  -0.593   5.838  3.3178  3.1698 -0.0782
  141OSM    H8G15506   5.775  -0.426   5.869  0.9554 -0.7478 -0.5628
  141OSM    C9F15507   5.608  -0.495   5.734 -0.4585  0.0684  0.1046
  141OSM    H9F15508   5.500  -0.496   5.757 -0.4214  1.0801  0.3752
  141OSM   C10F15509   5.640  -0.491   5.604 -0.4861 -0.3114 -0.2895
  141OSM   H10F15510   5.559  -0.481   5.530 -0.7385 -0.3015 -0.0119
  141OSM   C11F15511   5.776  -0.495   5.541 -0.1734  0.3967 -0.1222
  141OSM   H11F15512   5.858  -0.482   5.615  0.3376  2.4830 -0.9959
  141OSM   H11G15513   5.781  -0.420   5.460  0.9317  0.0209 -0.4119
  141OSM   C12F15514   5.798  -0.635   5.476  0.2865  0.5193  0.1446
  141OSM   H12F15515   5.722  -0.654   5.398 -0.0350  0.6245  0.4289
  141OSM   H12G15516   5.787  -0.718   5.548 -1.5874 -0.3949 -1.1277
  141OSM   C13F15517   5.934  -0.659   5.410  0.6017  1.0340 -0.6165
  141OSM   H13F15518   5.943  -0.767   5.390  2.8381  0.8337  1.0387
  141OSM   H13G15519   6.010  -0.652   5.491 -0.0147  0.3540  0.0454
  141OSM   C14F15520   5.967  -0.584   5.289 -1.0504 -1.0346  0.4107
  141OSM   H14F15521   6.062  -0.615   5.239 -1.3813 -1.6574  0.1669
  141OSM   H14G15522   5.980  -0.475   5.310  0.5313 -1.0838 -0.1102
  141OSM   C15F15523   5.858  -0.582   5.171  0.0876  0.1915  0.4589
  141OSM   H15F15524   5.796  -0.491   5.186  0.5983  1.0997 -2.4310
  141OSM   H15G15525   5.793  -0.672   5.178 -1.5687  1.1796 -1.1937
  141OSM   C16F15526   5.925  -0.570   5.034  0.0469  0.0008  0.4497
  141OSM   H16F15527   5.994  -0.657   5.028  0.3186  0.0375  2.3626
  141OSM   H16G15528   5.997  -0.485   5.032  1.7113 -1.3403 -2.2043
  141OSM   C17F15529   5.825  -0.556   4.923  0.1695 -0.0668  0.0284
  141OSM   H17F15530   5.777  -0.458   4.946  0.3264  0.0237 -0.0283
  141OSM   H17G15531   5.744  -0.631   4.935 -1.6908  2.1783  3.0921
  141OSM   C18F15532   5.878  -0.547   4.781 -0.4267 -0.2691  0.4274
  141OSM   H18F15533   5.956  -0.469   4.771  0.8799 -1.4876  0.7813
  141OSM   H18G15534   5.800  -0.526   4.705  0.0199 -0.6939 -0.1592
  141OSM   H18H15535   5.927  -0.643   4.755 -2.0752 -1.0448  0.0500
  142OSM      N15536   5.963   5.993   7.228  0.1812  0.5536  0.3976
  142OSM    C1515537   6.033   5.872   7.276 -0.0108  0.0627 -0.3907
  142OSM   H15A15538   6.073   5.884   7.375  1.4450  2.7440 -1.1773
  142OSM   H15B15539   6.114   5.846   7.209  0.7826 -2.6953  1.5219
  142OSM   H15C15540   5.964   5.789   7.281  0.5908 -0.3928  0.4553
  142OSM    C1415541   5.849   6.016   7.321  0.6399 -0.2575  1.5412
  142OSM   H14A15542   5.876   6.035   7.423  0.3270  1.3351  1.3552
  142OSM   H14B15543   5.781   5.933   7.317  1.1196 -0.6016 -0.7317
  142OSM   H14C15544   5.803   6.111   7.295  0.8008 -0.4144  0.6404
  142OSM    C1315545   6.056   6.103   7.232 -0.1301 -0.1079 -0.6523
  142OSM   H13A15546   6.130   6.103   7.153  0.4498  1.6776 -0.1620
  142OSM   H13B15547   6.104   6.132   7.325 -2.0132  1.9797 -0.2546
  142OSM   H13C15548   5.995   6.191   7.217 -1.8799 -0.7678  1.8945
  142OSM    C1215549   5.920   5.971   7.082 -0.2324  0.6269  0.3686
  142OSM   H12A15550   5.874   6.060   7.043  0.8483  0.3900 -1.6150
  142OSM   H12B15551   5.849   5.889   7.081  0.4182  0.0472 -0.4760
  142OSM    C1115552   6.028   5.952   6.969  0.0134 -0.4635  0.0144
  142OSM   H11A15553   6.095   6.041   6.966  1.6937 -1.6893 -0.0046
  142OSM   H11B15554   5.969   5.952   6.874  0.9811  1.4521 -0.6404
  142OSM      P15555   6.082   5.693   6.923  0.2038 -0.3373 -0.3715
  142OSM    O1315556   6.133   5.581   7.007  0.4716  0.1151 -0.3160
  142OSM    O1415557   5.939   5.673   6.893 -0.1339  0.0257  0.4905
  142OSM    O1115558   6.167   5.705   6.793 -0.4423  1.1311 -0.6384
  142OSM    O1215559   6.104   5.835   6.992  0.3244  0.2971 -0.1192
  142OSM    C1S15560   6.109   5.641   6.677 -0.4207  0.3139 -0.8597
  142OSM    H1S15561   6.041   5.555   6.692 -0.0863 -0.1239 -1.7969
  142OSM    H1T15562   6.186   5.577   6.628 -2.2371 -1.7286 -1.1969
  142OSM     NF15563   6.050   5.659   6.443  0.1774 -0.0668  0.5175
  142OSM    HNF15564   6.120   5.638   6.375 -2.1876 -0.1333 -2.0830
  142OSM    C2S15565   6.076   5.740   6.559  0.5095  0.0629  0.8344
  142OSM    H2S15566   5.984   5.790   6.596 -0.5676 -3.3352  3.1948
  142OSM    C3S15567   6.190   5.849   6.542  1.2694  0.0564 -0.3170
  142OSM    H3S15568   6.289   5.800   6.535  0.6173 -1.2459 -0.8103
  142OSM     O315569   6.195   5.931   6.659  0.5330  0.1593 -0.3499
  142OSM    HO315570   6.162   5.871   6.727 -0.1337  1.8934  0.9155
  142OSM    C4S15571   6.166   5.936   6.424 -0.8619 -0.5126  0.0459
  142OSM    H4S15572   6.076   5.999   6.427 -0.9812 -0.6719 -0.1691
  142OSM    C5S15573   6.250   5.929   6.317  0.3420  0.7224  0.1018
  142OSM    H5S15574   6.336   5.861   6.316 -0.5698 -0.4510 -0.1199
  142OSM    C6S15575   6.219   5.998   6.189 -0.1348  0.1649 -0.7414
  142OSM    H6S15576   6.260   5.936   6.107 -1.5412 -0.5285 -0.9466
  142OSM    H6T15577   6.274   6.095   6.189  1.2518 -0.5653  0.7088
  142OSM    C7S15578   6.069   6.024   6.155  0.4595  0.1177  0.1149
  142OSM    H7S15579   6.025   6.094   6.228 -0.5954 -0.2378 -0.1674
  142OSM    H7T15580   6.017   5.928   6.178  2.2868 -1.0151 -0.2388
  142OSM    C8S15581   6.053   6.083   6.022 -0.3868 -0.1688  0.0502
  142OSM    H8S15582   6.121   6.170   6.019  1.2597 -1.4231 -1.5518
  142OSM    H8T15583   5.950   6.124   6.011 -1.1055 -1.6172  1.1366
  142OSM    C9S15584   6.085   5.994   5.897  0.4920 -0.0626  0.6356
  142OSM    H9S15585   6.064   5.888   5.922 -1.2059  0.2381  0.5466
  142OSM    H9T15586   6.193   5.993   5.868  0.2862  0.1395 -0.1522
  142OSM   C10S15587   6.003   6.017   5.771 -0.6840 -1.0695 -0.0188
  142OSM   H10S15588   6.042   6.096   5.703 -1.4910 -2.9278 -2.8431
  142OSM   H10T15589   5.897   6.027   5.802 -0.3696 -1.7601  1.3282
  142OSM   C11S15590   5.998   5.900   5.679 -1.0706  0.3635 -0.8984
  142OSM   H11S15591   5.908   5.911   5.614 -0.6366  1.5933 -1.3142
  142OSM   H11T15592   5.974   5.806   5.734 -0.3020 -0.3218 -1.6852
  142OSM   C12S15593   6.112   5.878   5.589  0.2434 -0.4170 -0.0981
  142OSM   H12S15594   6.197   5.848   5.653  1.5999  0.2791 -1.5202
  142OSM   H12T15595   6.147   5.968   5.534 -0.8631  0.8734  1.2121
  142OSM   C13S15596   6.085   5.765   5.492 -0.6497  0.5620  0.1618
  142OSM   H13S15597   6.171   5.746   5.425  0.8938  1.5231  1.7943
  142OSM   H13T15598   5.995   5.779   5.428 -1.0145 -0.6905  0.3600
  142OSM   C14S15599   6.049   5.632   5.560 -0.6495  0.5209  0.0420
  142OSM   H14S15600   6.044   5.551   5.484  2.7087 -0.0067  0.2200
  142OSM   H14T15601   5.957   5.623   5.621  0.0601  0.9181  1.2088
  142OSM   C15S15602   6.158   5.569   5.654 -0.0612 -0.1677  0.4435
  142OSM   H15S15603   6.262   5.597   5.626  1.0380 -2.6800  1.6879
  142OSM   H15T15604   6.153   5.459   5.635  0.9410 -0.1504  0.0313
  142OSM   C16S15605   6.142   5.597   5.805  0.6409 -0.3302 -0.0430
  142OSM   H16S15606   6.034   5.585   5.825  0.5036  1.5737  0.5523
  142OSM   H16T15607   6.164   5.705   5.821  0.7437 -0.4954  1.0497
  142OSM   C17S15608   6.234   5.513   5.891 -0.2416  0.1749 -0.1998
  142OSM   H17S15609   6.339   5.534   5.860  0.2909  0.5224  1.7435
  142OSM   H17T15610   6.235   5.402   5.885  0.4170 -0.0211  2.3804
  142OSM   C18S15611   6.220   5.557   6.035 -0.4990 -0.2917 -0.4587
  142OSM   H18S15612   6.312   5.529   6.091 -1.3261 -1.3042  0.4525
  142OSM   H18T15613   6.137   5.499   6.082 -0.9206  1.2586  0.7778
  142OSM   H18U15614   6.189   5.662   6.050  0.0666  0.0908 -1.8012
  142OSM    C1F15615   5.934   5.587   6.445 -0.6148  0.3221 -0.6704
  142OSM     OF15616   5.850   5.599   6.535  0.3331  0.7474  0.3348
  142OSM    C2F15617   5.908   5.504   6.323 -0.1048 -0.5596 -0.0915
  142OSM    H2F15618   6.000   5.474   6.269  0.9528  3.9107 -1.2326
  142OSM    H2G15619   5.851   5.578   6.262  1.7534  0.2577 -0.9268
  142OSM    C3F15620   5.806   5.390   6.350  0.2387  0.0293  0.1522
  142OSM    H3F15621   5.719   5.441   6.396 -1.4418 -3.0269  0.6211
  142OSM    H3G15622   5.850   5.318   6.423 -0.5667 -1.5000 -0.8178
  142OSM    C4F15623   5.747   5.333   6.223 -0.2374  0.0327 -0.3322
  142OSM    H4F15624   5.693   5.415   6.171  0.0328 -0.7129 -1.8462
  142OSM    H4G15625   5.664   5.264   6.247 -0.8427  0.5580 -0.8892
  142OSM    C5F15626   5.841   5.263   6.131 -0.0035 -0.1512 -0.9056
  142OSM    H5F15627   5.871   5.174   6.191 -1.3841 -0.4976 -0.6964
  142OSM    H5G15628   5.932   5.323   6.109  0.6711 -0.7867  0.0410
  142OSM    C6F15629   5.780   5.220   5.995  0.1816 -0.6063 -0.3475
  142OSM    H6F15630   5.727   5.309   5.954  3.8030  2.6388  1.3393
  142OSM    H6G15631   5.711   5.135   6.011 -0.1803  0.0373  1.7547
  142OSM    C7F15632   5.873   5.156   5.884 -0.2009  0.0877 -0.3295
  142OSM    H7F15633   5.828   5.075   5.823 -0.9167  1.3337 -1.5076
  142OSM    H7G15634   5.956   5.106   5.939  0.7120  1.7629 -0.1322
  142OSM    C8F15635   5.949   5.262   5.796 -0.2269  0.0806 -0.0562
  142OSM    H8F15636   6.037   5.221   5.742 -0.6556 -0.6007 -0.2550
  142OSM    H8G15637   5.985   5.336   5.871 -0.4820  0.0251  0.1236
  142OSM    C9F15638   5.853   5.326   5.703 -0.6785 -0.1580 -0.1378
  142OSM    H9F15639   5.795   5.411   5.741 -0.3754 -0.3409  0.7580
  142OSM   C10F15640   5.842   5.296   5.574  0.5294  0.2599 -0.0086
  142OSM   H10F15641   5.763   5.350   5.520 -1.6640 -1.1641  1.6020
  142OSM   C11F15642   5.910   5.182   5.499  0.1370 -0.1116 -0.5747
  142OSM   H11F15643   5.843   5.107   5.451  2.1704 -2.4468  0.0366
  142OSM   H11G15644   5.975   5.114   5.558  1.3695  2.1611  0.8042
  142OSM   C12F15645   6.000   5.230   5.386 -0.7626  0.2028  0.2448
  142OSM   H12F15646   6.103   5.261   5.415  0.1738 -2.1236 -0.3440
  142OSM   H12G15647   5.948   5.323   5.355 -0.6026  0.3568  0.4347
  142OSM   C13F15648   6.027   5.136   5.270  0.1903 -0.2741  0.3058
  142OSM   H13F15649   5.932   5.121   5.213  0.1970  1.0907 -0.1010
  142OSM   H13G15650   6.072   5.045   5.314  0.9122 -0.2234 -0.3178
  142OSM   C14F15651   6.133   5.182   5.173  0.6213 -0.2368 -0.1895
  142OSM   H14F15652   6.227   5.196   5.230 -0.9342 -0.9324  2.7714
  142OSM   H14G15653   6.094   5.278   5.132 -0.1925 -0.5968 -0.2926
  142OSM   C15F15654   6.140   5.077   5.061 -0.3621 -0.1870 -0.3183
  142OSM   H15F15655   6.041   5.080   5.011  0.1729  1.6109 -1.3685
  142OSM   H15G15656   6.166   4.974   5.094 -0.9692  0.1232  1.1790
  142OSM   C16F15657   6.241   5.120   4.948 -0.3039 -0.1455 -0.8436
  142OSM   H16F15658   6.342   5.108   4.993 -0.3641  1.1838 -0.3163
  142OSM   H16G15659   6.226   5.225   4.916  2.1588  0.2623 -0.9183
  142OSM   C17F15660   6.236   5.040   4.815  0.1911  0.1067 -0.3550
  142OSM   H17F15661   6.326   5.054   4.752 -0.0824 -2.0338 -1.3302
  142OSM   H17G15662   6.146   5.068   4.755 -0.6472 -0.6075  0.5299
  142OSM   C18F15663   6.228   4.883   4.849  0.9461  0.0864  0.1807
  142OSM   H18F15664   6.132   4.858   4.899  1.8339 -0.1551  1.8213
  142OSM   H18G15665   6.319   4.847   4.901  0.0058 -0.5938  1.4124
  142OSM   H18H15666   6.211   4.829   4.753 -3.1059  0.3853  0.5480
  143OSM      N15667   0.111   3.144   7.076  0.3347  0.0626  0.5503
  143OSM    C1515668   0.038   3.240   7.160 -0.4094  0.3363  0.1533
  143OSM   H15A15669  -0.066   3.244   7.132  0.1281  0.7055 -1.8949
  143OSM   H15B15670   0.086   3.336   7.147 -0.5803  0.5187  0.8227
  143OSM   H15C15671   0.055   3.216   7.264  0.4268  2.1459  0.4828
  143OSM    C1415672   0.035   3.020   7.077  0.2738 -0.0883 -0.3728
  143OSM   H14A15673   0.111   2.945   7.093 -1.3212 -1.6625  0.0014
  143OSM   H14B15674  -0.030   3.002   6.993 -1.2549  1.6371  0.3705
  143OSM   H14C15675  -0.032   3.007   7.160  0.5640  1.8665  0.2228
  143OSM    C1315676   0.114   3.191   6.934  0.5192  0.3699  0.0777
  143OSM   H13A15677   0.010   3.193   6.905  0.8120  0.0365 -1.0365
  143OSM   H13B15678   0.166   3.126   6.866  3.5073  3.1018 -0.4657
  143OSM   H13C15679   0.159   3.288   6.924  0.0468  0.4246 -2.2049
  143OSM    C1215680   0.254   3.121   7.126  0.2642 -0.6850 -0.0663
  143OSM   H12A15681   0.252   3.090   7.230  2.1360 -3.0342 -0.6382
  143OSM   H12B15682   0.307   3.215   7.120 -0.9899 -0.0216 -1.3463
  143OSM    C1115683   0.337   3.012   7.043 -0.0036  0.1487  0.0765
  143OSM   H11A15684   0.438   3.038   7.081 -0.9163  1.6790  1.5781
  143OSM   H11B15685   0.329   3.035   6.935  0.0213  2.3781  0.4924
  143OSM      P15686   0.375   2.759   7.047  0.2516  0.0702 -0.4253
  143OSM    O1315687   0.517   2.788   7.066 -0.1949 -0.4295  0.3594
  143OSM    O1415688   0.324   2.648   7.128  0.0389 -0.9616  0.5222
  143OSM    O1115689   0.337   2.732   6.894 -0.0084 -0.0190 -0.5249
  143OSM    O1215690   0.292   2.886   7.080 -0.2489  0.4509  0.3018
  143OSM    C1S15691   0.202   2.757   6.849 -0.1484 -0.1079 -0.6418
  143OSM    H1S15692   0.173   2.862   6.869  1.8435  0.0986  1.5649
  143OSM    H1T15693   0.129   2.691   6.902  0.6643  0.6958  1.6028
  143OSM     NF15694   0.071   2.799   6.647  0.2828 -0.0704  0.2805
  143OSM    HNF15695  -0.014   2.747   6.640 -0.0175  0.1926  1.6397
  143OSM    C2S15696   0.189   2.733   6.688 -0.3374  0.9056 -0.0708
  143OSM    H2S15697   0.272   2.783   6.635 -0.3913  0.5666 -0.4819
  143OSM    C3S15698   0.192   2.580   6.657  0.2796  0.0548  0.3048
  143OSM    H3S15699   0.097   2.532   6.688 -0.3580  0.4047 -1.0484
  143OSM     O315700   0.296   2.513   6.726  0.8339  0.1470  0.1971
  143OSM    HO315701   0.337   2.583   6.777  0.3516 -0.7320  1.8599
  143OSM    C4S15702   0.198   2.557   6.504 -0.0290  0.6271 -0.4382
  143OSM    H4S15703   0.283   2.615   6.464  0.3700 -1.2702 -2.5883
  143OSM    C5S15704   0.114   2.512   6.414 -0.5738  0.4694  0.2590
  143OSM    H5S15705   0.018   2.476   6.453 -0.1729  1.1700  1.9692
  143OSM    C6S15706   0.138   2.528   6.266  0.1675  0.1441  0.1259
  143OSM    H6S15707   0.050   2.580   6.223  1.2851  1.4256 -0.6910
  143OSM    H6T15708   0.153   2.429   6.216  0.5832  1.7086 -3.1072
  143OSM    C7S15709   0.263   2.611   6.214  0.6637 -0.4312  0.5145
  143OSM    H7S15710   0.353   2.558   6.252  0.0597  1.1473  4.7211
  143OSM    H7T15711   0.248   2.704   6.274  0.0269  0.3653 -0.8290
  143OSM    C8S15712   0.264   2.650   6.063  0.7423 -0.6805 -0.7254
  143OSM    H8S15713   0.354   2.712   6.041  0.7663  0.4663  2.2163
  143OSM    H8T15714   0.169   2.703   6.040  1.0041 -0.7852 -2.1338
  143OSM    C9S15715   0.253   2.530   5.968  0.4485 -0.2607  0.0147
  143OSM    H9S15716   0.167   2.462   5.986  0.1324  0.2272  0.3416
  143OSM    H9T15717   0.342   2.464   5.980  0.1932 -0.9801 -1.7961
  143OSM   C10S15718   0.262   2.581   5.817 -0.3058 -0.3879 -0.1270
  143OSM   H10S15719   0.360   2.630   5.800  0.1313 -1.4150 -0.6202
  143OSM   H10T15720   0.183   2.656   5.793  1.6949  1.8882  0.0200
  143OSM   C11S15721   0.226   2.468   5.719 -0.4996  0.4098  0.0894
  143OSM   H11S15722   0.241   2.509   5.617  1.7050 -1.5178 -0.4462
  143OSM   H11T15723   0.119   2.441   5.711 -0.3394  0.2747 -2.5971
  143OSM   C12S15724   0.310   2.340   5.739  0.1009 -0.0925 -0.1705
  143OSM   H12S15725   0.290   2.308   5.844 -0.2662  0.6100 -0.0155
  143OSM   H12T15726   0.420   2.360   5.736  0.3861 -1.3107  1.0828
  143OSM   C13S15727   0.284   2.217   5.650 -0.6628  0.2635 -0.3266
  143OSM   H13S15728   0.178   2.184   5.656 -0.1448 -1.4719  0.0010
  143OSM   H13T15729   0.338   2.133   5.699 -2.8122 -0.6188  0.6614
  143OSM   C14S15730   0.328   2.241   5.506 -0.0782 -0.2977 -0.1658
  143OSM   H14S15731   0.433   2.277   5.510 -0.2501  0.1062  1.6617
  143OSM   H14T15732   0.264   2.318   5.458  1.2304  1.1889  0.3735
  143OSM   C15S15733   0.316   2.107   5.427  0.8279 -0.5049  0.2365
  143OSM   H15S15734   0.213   2.066   5.426  1.0148 -1.0523  1.8011
  143OSM   H15T15735   0.391   2.038   5.471  0.7299  0.0109  1.2225
  143OSM   C16S15736   0.355   2.139   5.276 -0.3015 -0.0091 -0.0020
  143OSM   H16S15737   0.455   2.186   5.282  0.0793 -0.8516  0.3787
  143OSM   H16T15738   0.284   2.214   5.235  0.2749  0.2512 -0.5299
  143OSM   C17S15739   0.361   2.002   5.200 -0.4535  0.5207 -0.7445
  143OSM   H17S15740   0.377   1.930   5.284  0.1154  1.1271 -0.3189
  143OSM   H17T15741   0.442   2.000   5.124  0.9317 -0.4192  0.6649
  143OSM   C18S15742   0.239   1.962   5.126 -0.0408  0.4126  0.5119
  143OSM   H18S15743   0.231   2.033   5.040  0.0628  1.5390  1.4047
  143OSM   H18T15744   0.143   1.968   5.182 -0.7058 -1.1994 -0.3764
  143OSM   H18U15745   0.248   1.861   5.081 -0.8080 -0.3351  1.9827
  143OSM    C1F15746   0.051   2.927   6.639  0.1250 -0.2014 -0.1508
  143OSM     OF15747   0.145   3.011   6.659 -0.7016 -0.4990  0.1202
  143OSM    C2F15748  -0.089   2.978   6.614  0.5735 -0.1814  0.6888
  143OSM    H2F15749  -0.090   3.086   6.589  2.7777 -0.0911  0.8036
  143OSM    H2G15750  -0.145   2.961   6.708  1.5230 -0.8465  1.1553
  143OSM    C3F15751  -0.155   2.898   6.502  0.3575 -0.5468 -0.4084
  143OSM    H3F15752  -0.262   2.929   6.506  1.3523  3.4072 -1.0642
  143OSM    H3G15753  -0.158   2.788   6.523  0.6363 -1.0404 -2.6936
  143OSM    C4F15754  -0.097   2.926   6.365  0.4469 -0.1298  0.7134
  143OSM    H4F15755   0.011   2.899   6.363  0.0922 -1.6305  0.1841
  143OSM    H4G15756  -0.108   3.031   6.330  0.0790  0.0432  1.3431
  143OSM    C5F15757  -0.156   2.840   6.252  0.4056  0.4624  0.0436
  143OSM    H5F15758  -0.267   2.842   6.254  0.4081  1.5926  2.1252
  143OSM    H5G15759  -0.128   2.737   6.281 -1.4091  0.0311  0.4140
  143OSM    C6F15760  -0.094   2.859   6.109 -0.2107 -0.2420  0.4124
  143OSM    H6F15761  -0.127   2.767   6.056 -1.6784  1.0125 -0.9408
  143OSM    H6G15762   0.017   2.863   6.118 -0.2661  0.0482  1.0399
  143OSM    C7F15763  -0.148   2.975   6.033  0.3508  0.4968 -0.0990
  143OSM    H7F15764  -0.115   3.066   6.088  0.9832 -1.0336  2.2324
  143OSM    H7G15765  -0.259   2.975   6.039  0.3183  2.3631  0.0756
  143OSM    C8F15766  -0.114   2.975   5.883 -0.1332  0.1271 -0.3011
  143OSM    H8F15767  -0.115   2.873   5.840 -0.0833 -0.4154  0.9447
  143OSM    H8G15768  -0.010   3.012   5.867 -0.5609  0.9327 -1.3616
  143OSM    C9F15769  -0.207   3.066   5.807  0.6455  0.9995  0.8445
  143OSM    H9F15770  -0.266   3.141   5.862 -2.2559 -0.8996  0.5140
  143OSM   C10F15771  -0.219   3.070   5.668  0.2460 -0.6019 -0.7420
  143OSM   H10F15772  -0.282   3.145   5.618 -0.4134 -0.4065  0.3492
  143OSM   C11F15773  -0.161   2.979   5.568 -0.2836  0.2448  0.1084
  143OSM   H11F15774  -0.091   2.909   5.618  3.9428  3.2239 -1.1092
  143OSM   H11G15775  -0.087   3.030   5.503  1.0423 -1.5357  0.1415
  143OSM   C12F15776  -0.265   2.904   5.477  0.2904  0.1630  0.4156
  143OSM   H12F15777  -0.344   2.850   5.533  1.1777 -1.3248  0.2943
  143OSM   H12G15778  -0.214   2.819   5.426 -1.5587 -1.5531  1.2911
  143OSM   C13F15779  -0.347   2.992   5.383 -0.5861  0.4570  0.1167
  143OSM   H13F15780  -0.276   3.041   5.314  2.0287  0.1741  2.4401
  143OSM   H13G15781  -0.399   3.066   5.448 -0.4155 -0.5904  1.5083
  143OSM   C14F15782  -0.459   2.920   5.300  0.0950 -0.4492  0.0883
  143OSM   H14F15783  -0.476   2.970   5.202 -1.9789 -3.2388 -1.1313
  143OSM   H14G15784  -0.546   2.921   5.368  1.4931  0.0141  1.9460
  143OSM   C15F15785  -0.434   2.776   5.260 -0.4089 -0.1209 -1.0199
  143OSM   H15F15786  -0.407   2.726   5.355  2.2314 -1.3532 -2.3317
  143OSM   H15G15787  -0.347   2.771   5.192  1.6848  1.7181  1.3473
  143OSM   C16F15788  -0.556   2.706   5.208 -0.1978 -0.4927  0.3146
  143OSM   H16F15789  -0.556   2.736   5.101  0.7312 -0.4314  0.3309
  143OSM   H16G15790  -0.646   2.752   5.254  0.9248  2.0395  0.1130
  143OSM   C17F15791  -0.559   2.558   5.228 -0.0170 -0.5685 -0.0237
  143OSM   H17F15792  -0.542   2.540   5.336  1.1400 -2.9965 -0.5470
  143OSM   H17G15793  -0.474   2.504   5.181 -1.1140 -2.5811  0.2162
  143OSM   C18F15794  -0.691   2.485   5.199  0.4755 -0.3302 -0.0567
  143OSM   H18F15795  -0.779   2.541   5.237  0.2218 -0.5463 -0.3163
  143OSM   H18G15796  -0.710   2.389   5.252 -1.2607 -0.1187 -0.2438
  143OSM   H18H15797  -0.698   2.452   5.093 -1.8901  0.5338 -0.2275
  144OSM      N15798   4.023   0.959   6.802 -0.1775 -0.4360 -0.3489
  144OSM    C1515799   3.987   1.100   6.827  0.3701 -0.8148 -0.6680
  144OSM   H15A15800   3.922   1.113   6.912  0.3628 -0.6838 -0.6939
  144OSM   H15B15801   3.934   1.139   6.741  0.6111  1.0355 -0.0178
  144OSM   H15C15802   4.078   1.157   6.840 -0.9639  1.7778 -1.8855
  144OSM    C1415803   3.898   0.874   6.783 -0.5188 -0.6618 -0.9742
  144OSM   H14A15804   3.849   0.866   6.879 -0.6554 -0.2668 -1.0059
  144OSM   H14B15805   3.921   0.773   6.754 -1.6368 -1.6715  1.4040
  144OSM   H14C15806   3.838   0.911   6.701  1.3373  0.7133 -1.7849
  144OSM    C1315807   4.102   0.943   6.675  0.7058  0.1031 -0.4164
  144OSM   H13A15808   4.205   0.965   6.700  0.3925  1.5650 -0.3157
  144OSM   H13B15809   4.064   1.020   6.609 -0.5601  0.4101  0.6212
  144OSM   H13C15810   4.104   0.844   6.634  1.2690 -0.7133  1.4532
  144OSM    C1215811   4.108   0.911   6.923 -0.4473  0.3450 -0.4221
  144OSM   H12A15812   4.133   0.807   6.907 -1.7875 -0.0773  0.1060
  144OSM   H12B15813   4.043   0.917   7.009 -1.4462  0.1599 -1.1492
  144OSM    C1115814   4.249   0.973   6.941  0.9664 -0.5368  0.1791
  144OSM   H11A15815   4.273   0.972   7.049 -0.8999  1.5556  0.6854
  144OSM   H11B15816   4.249   1.080   6.910 -0.0324 -0.8296 -0.9088
  144OSM      P15817   4.410   0.767   6.920 -0.3675 -0.0922 -0.0057
  144OSM    O1315818   4.513   0.713   6.828  0.2777 -0.2917 -0.0284
  144OSM    O1415819   4.447   0.795   7.059  0.1351  0.1869 -0.3131
  144OSM    O1115820   4.292   0.660   6.926 -0.0342  0.2346  0.2581
  144OSM    O1215821   4.344   0.903   6.860 -0.3134  0.3649  0.0954
  144OSM    C1S15822   4.218   0.626   6.808 -0.2125 -0.7055  0.1003
  144OSM    H1S15823   4.191   0.718   6.753 -1.1883 -1.4461 -0.7176
  144OSM    H1T15824   4.130   0.566   6.841  0.2384 -1.2748  0.2851
  144OSM     NF15825   4.206   0.516   6.581  0.2204 -0.0268  0.3156
  144OSM    HNF15826   4.158   0.428   6.578 -1.4518  0.7987  1.3090
  144OSM    C2S15827   4.281   0.531   6.700 -0.3250  0.4290  0.7330
  144OSM    H2S15828   4.375   0.579   6.666  0.9356 -3.5537 -2.1056
  144OSM    C3S15829   4.331   0.395   6.762  0.2355 -0.3919  0.3703
  144OSM    H3S15830   4.233   0.344   6.770 -0.2763  0.8756  3.9286
  144OSM     O315831   4.380   0.411   6.893  0.1560  0.0608  0.1768
  144OSM    HO315832   4.353   0.502   6.909 -0.9524  0.0260 -1.2935
  144OSM    C4S15833   4.422   0.309   6.686  0.2527 -0.5405  0.2761
  144OSM    H4S15834   4.506   0.363   6.641  0.4617 -2.0325 -1.2451
  144OSM    C5S15835   4.387   0.191   6.634  0.1080  0.2977  0.2344
  144OSM    H5S15836   4.290   0.141   6.642  1.1881 -1.7884  0.9623
  144OSM    C6S15837   4.491   0.131   6.545 -0.4718  0.0363  0.3836
  144OSM    H6S15838   4.484   0.020   6.543 -2.0513  0.1167 -0.0479
  144OSM    H6T15839   4.594   0.163   6.570 -1.8181  2.2578  3.7237
  144OSM    C7S15840   4.445   0.172   6.397  0.0440 -0.3016 -1.2196
  144OSM    H7S15841   4.432   0.281   6.379 -4.8591 -0.1328  1.5381
  144OSM    H7T15842   4.340   0.136   6.383  0.0236 -0.2996 -1.0683
  144OSM    C8S15843   4.534   0.115   6.291 -0.5869 -0.0593  0.0986
  144OSM    H8S15844   4.557   0.008   6.308 -1.3684 -0.2096  0.2308
  144OSM    H8T15845   4.632   0.167   6.285 -0.2098 -0.3585  2.7029
  144OSM    C9S15846   4.463   0.112   6.155  0.5946  0.7116 -0.1620
  144OSM    H9S15847   4.403   0.205   6.142  1.2366  1.1514 -0.0189
  144OSM    H9T15848   4.390   0.029   6.165 -0.1989  1.4836  0.6304
  144OSM   C10S15849   4.557   0.098   6.038  0.0517  0.1999  0.1160
  144OSM   H10S15850   4.601  -0.004   6.045 -2.0409 -0.7656  0.0136
  144OSM   H10T15851   4.639   0.171   6.055  0.3967  0.3101 -1.8322
  144OSM   C11S15852   4.481   0.103   5.907  0.0397  0.1460 -0.4793
  144OSM   H11S15853   4.390   0.167   5.906 -0.9825 -1.2360  0.5372
  144OSM   H11T15854   4.427   0.008   5.889 -1.4693  0.6129  1.2645
  144OSM   C12S15855   4.577   0.131   5.792  0.8995  0.1206 -0.0737
  144OSM   H12S15856   4.655   0.054   5.805  0.3708 -0.2594  0.9689
  144OSM   H12T15857   4.618   0.233   5.808 -3.2862  2.3203 -1.9206
  144OSM   C13S15858   4.505   0.121   5.658 -0.0034  0.5304  0.7082
  144OSM   H13S15859   4.451   0.218   5.649 -1.6190 -0.4426 -0.7589
  144OSM   H13T15860   4.437   0.034   5.665  1.4711 -0.9841 -2.0889
  144OSM   C14S15861   4.592   0.107   5.532 -0.0356 -0.3623 -0.5399
  144OSM   H14S15862   4.656   0.023   5.569 -3.0455 -2.7256 -0.3289
  144OSM   H14T15863   4.642   0.204   5.513 -0.7019 -0.1664 -1.3273
  144OSM   C15S15864   4.526   0.071   5.402  0.2280 -0.5400 -0.5204
  144OSM   H15S15865   4.596   0.051   5.318  0.9625  1.0038 -0.3090
  144OSM   H15T15866   4.452   0.146   5.365  0.7606  1.6994  2.5532
  144OSM   C16S15867   4.448  -0.065   5.421  0.2830  0.1087 -0.5123
  144OSM   H16S15868   4.364  -0.058   5.494  0.6999  0.1502 -0.0356
  144OSM   H16T15869   4.512  -0.147   5.460 -1.2784 -0.8781  0.0625
  144OSM   C17S15870   4.385  -0.108   5.287 -0.1914  0.6687  0.2251
  144OSM   H17S15871   4.474  -0.135   5.226 -0.8238  0.2684 -0.5443
  144OSM   H17T15872   4.338  -0.018   5.243 -1.6181  0.5670  1.4480
  144OSM   C18S15873   4.297  -0.236   5.278 -0.2010  0.5412  0.1375
  144OSM   H18S15874   4.255  -0.239   5.175 -0.2684  0.6605  0.1614
  144OSM   H18T15875   4.211  -0.233   5.348  0.2688 -3.0844  1.0525
  144OSM   H18U15876   4.365  -0.322   5.292  1.4473  1.5494 -1.3165
  144OSM    C1F15877   4.181   0.613   6.494  0.5082 -0.1321 -0.5683
  144OSM     OF15878   4.231   0.722   6.512  0.4689 -0.1515 -0.1983
  144OSM    C2F15879   4.103   0.581   6.363  0.0573 -0.3790  0.5099
  144OSM    H2F15880   3.996   0.609   6.369  0.5021  1.5751  0.1660
  144OSM    H2G15881   4.100   0.475   6.330 -0.0604  0.0376 -0.8969
  144OSM    C3F15882   4.166   0.643   6.240 -0.7890 -0.7580  0.3606
  144OSM    H3F15883   4.262   0.594   6.214  0.8006  0.5114  3.2646
  144OSM    H3G15884   4.183   0.753   6.246 -4.6366  0.0533 -0.5888
  144OSM    C4F15885   4.083   0.607   6.109  0.4613  0.0341  0.3303
  144OSM    H4F15886   3.987   0.662   6.121 -0.9963 -2.5477  1.1347
  144OSM    H4G15887   4.064   0.498   6.104  0.3020  0.0131  1.2042
  144OSM    C5F15888   4.170   0.653   5.987 -0.2553 -0.2986  0.2217
  144OSM    H5F15889   4.276   0.624   6.007 -0.1969 -0.6903 -0.6377
  144OSM    H5G15890   4.167   0.764   5.980 -0.2702 -0.3169 -0.0625
  144OSM    C6F15891   4.124   0.603   5.847  0.2357 -0.5163 -0.5620
  144OSM    H6F15892   4.197   0.652   5.779 -0.0581  1.0553  0.2139
  144OSM    H6G15893   4.027   0.654   5.831  0.2536  0.1748  1.2652
  144OSM    C7F15894   4.138   0.453   5.816 -0.2531 -0.5537 -0.3264
  144OSM    H7F15895   4.064   0.405   5.883 -1.0944  0.1918 -0.7122
  144OSM    H7G15896   4.240   0.419   5.847 -1.0992 -3.2199 -0.1663
  144OSM    C8F15897   4.120   0.416   5.667 -0.0361 -0.5268  1.0538
  144OSM    H8F15898   4.026   0.464   5.632  1.0368  0.4860 -0.5444
  144OSM    H8G15899   4.086   0.310   5.668 -3.3233  0.4166  0.1390
  144OSM    C9F15900   4.225   0.455   5.568 -0.3778 -0.1193  0.8076
  144OSM    H9F15901   4.312   0.387   5.574 -1.2049 -1.4118 -0.8450
  144OSM   C10F15902   4.222   0.541   5.466 -0.5276  0.3384  0.2382
  144OSM   H10F15903   4.316   0.558   5.413 -1.5170 -0.3602 -1.8861
  144OSM   C11F15904   4.112   0.637   5.437 -0.5554  0.1584 -0.4835
  144OSM   H11F15905   4.123   0.723   5.507 -0.8732  0.1120 -0.3753
  144OSM   H11G15906   4.014   0.587   5.454  0.1456 -0.7425  1.1382
  144OSM   C12F15907   4.102   0.702   5.296  0.8638  0.2257 -0.0315
  144OSM   H12F15908   4.011   0.766   5.294 -1.2215 -2.5524 -0.7609
  144OSM   H12G15909   4.078   0.615   5.232 -0.7192  0.2388  0.4948
  144OSM   C13F15910   4.227   0.765   5.252  0.6855 -0.3146  0.4102
  144OSM   H13F15911   4.312   0.695   5.246 -1.2806 -2.9099  0.9553
  144OSM   H13G15912   4.239   0.847   5.326 -4.0524  1.2882 -0.1915
  144OSM   C14F15913   4.211   0.821   5.112  0.6676  0.4729  0.7158
  144OSM   H14F15914   4.117   0.880   5.107 -0.5644 -1.3970  0.5218
  144OSM   H14G15915   4.196   0.736   5.042 -0.1153  1.2458 -0.0752
  144OSM   C15F15916   4.323   0.916   5.069  0.2296  0.3786 -0.7727
  144OSM   H15F15917   4.422   0.876   5.098  1.6938  2.7392 -2.2604
  144OSM   H15G15918   4.300   1.010   5.123 -2.8923  2.0873 -4.5818
  144OSM   C16F15919   4.316   0.941   4.914  0.3292 -0.3242  0.0622
  144OSM   H16F15920   4.312   0.845   4.858 -0.3029  1.3161 -2.9432
  144OSM   H16G15921   4.399   1.001   4.870 -1.3138  0.7090 -1.8059
  144OSM   C17F15922   4.179   1.004   4.878  0.4917 -0.5036  0.7212
  144OSM   H17F15923   4.163   1.095   4.941 -0.8468 -0.4084  0.2643
  144OSM   H17G15924   4.091   0.938   4.888  0.2425 -0.4674 -0.9378
  144OSM   C18F15925   4.175   1.047   4.728  1.0261 -0.0760 -0.2593
  144OSM   H18F15926   4.251   1.124   4.707 -1.3040  2.5071  0.1802
  144OSM   H18G15927   4.077   1.095   4.704  1.6842  2.2785  1.3830
  144OSM   H18H15928   4.186   0.963   4.656 -1.2408  0.2213 -1.0601
  145OSM      N15929   6.496   5.657   6.922  0.7891  0.0890 -0.3974
  145OSM    C1515930   6.452   5.596   6.798  0.7543 -0.3544 -0.0891
  145OSM   H15A15931   6.500   5.500   6.810  1.9498  0.3763  1.3775
  145OSM   H15B15932   6.489   5.647   6.710 -0.4502  2.6194  0.9894
  145OSM   H15C15933   6.344   5.597   6.802  0.7736  1.5163  1.2164
  145OSM    C1415934   6.443   5.799   6.927 -0.0647  0.2411 -0.0992
  145OSM   H14A15935   6.508   5.862   6.868  0.1265  0.6006  0.4971
  145OSM   H14B15936   6.461   5.834   7.027 -3.6239  2.8234 -0.1701
  145OSM   H14C15937   6.343   5.815   6.887  0.8480  1.6845 -1.9995
  145OSM    C1315938   6.440   5.583   7.047  0.5496 -0.3305  0.0014
  145OSM   H13A15939   6.490   5.489   7.062  2.0275  0.6881  1.9930
  145OSM   H13B15940   6.334   5.564   7.043  0.4710 -0.4360  1.7861
  145OSM   H13C15941   6.460   5.638   7.138 -0.5374 -1.5512  1.0103
  145OSM    C1215942   6.644   5.678   6.923 -0.9772  0.0851 -0.5385
  145OSM   H12A15943   6.661   5.712   7.024 -2.1233 -1.5088  0.2325
  145OSM   H12B15944   6.665   5.753   6.848  2.6066  0.7250  0.8942
  145OSM    C1115945   6.741   5.549   6.912  0.5549 -0.4379 -0.0862
  145OSM   H11A15946   6.850   5.571   6.913  0.7016 -0.9660  2.4712
  145OSM   H11B15947   6.735   5.506   6.809  2.9811 -2.0600  0.3626
  145OSM      P15948   6.675   5.315   6.997 -0.6856 -0.1007 -0.6955
  145OSM    O1315949   6.706   5.231   7.112  0.2113  0.2433  0.6057
  145OSM    O1415950   6.535   5.320   6.952 -0.0953  0.7746  0.1465
  145OSM    O1115951   6.773   5.264   6.881 -0.1878 -0.3520 -0.2732
  145OSM    O1215952   6.729   5.459   7.022 -0.8057 -0.0998  0.1011
  145OSM    C1S15953   6.769   5.131   6.840 -0.3341 -0.3361 -0.9145
  145OSM    H1S15954   6.663   5.106   6.815  0.2864 -2.5944 -1.4757
  145OSM    H1T15955   6.800   5.064   6.924 -0.4659  0.3212 -0.3326
  145OSM     NF15956   6.837   4.974   6.662 -0.0083 -0.5001  0.9596
  145OSM    HNF15957   6.908   4.906   6.677  0.7290  0.1196  0.3958
  145OSM    C2S15958   6.857   5.111   6.717 -0.4549 -0.3720  0.2920
  145OSM    H2S15959   6.833   5.184   6.636  1.1121  1.8989  1.7298
  145OSM    C3S15960   7.005   5.139   6.749  0.1505  0.1843  0.1453
  145OSM    H3S15961   7.045   5.057   6.813  0.5666 -0.0478 -0.3982
  145OSM     O315962   7.029   5.258   6.830 -0.1329  0.6413  0.8167
  145OSM    HO315963   6.941   5.284   6.857 -1.2797  0.2068 -2.1572
  145OSM    C4S15964   7.088   5.157   6.630 -0.3202  0.6984  0.1238
  145OSM    H4S15965   7.045   5.222   6.552  3.6994  2.8062 -0.5777
  145OSM    C5S15966   7.199   5.089   6.599  0.2368  0.1336  0.0955
  145OSM    H5S15967   7.233   5.006   6.662 -0.8776 -0.2955  0.1512
  145OSM    C6S15968   7.292   5.116   6.479  0.5254  0.5330 -0.0362
  145OSM    H6S15969   7.350   5.022   6.461 -0.4821 -0.3941  1.3301
  145OSM    H6T15970   7.371   5.183   6.520  0.2718  0.5207  0.4864
  145OSM    C7S15971   7.231   5.166   6.347 -0.5159  0.2363  0.7890
  145OSM    H7S15972   7.313   5.180   6.273 -0.0682  0.9806  1.4217
  145OSM    H7T15973   7.194   5.266   6.376 -1.5123  0.1801 -0.2046
  145OSM    C8S15974   7.135   5.067   6.280 -0.0193  0.2353  0.2122
  145OSM    H8S15975   7.035   5.061   6.329 -0.5842  1.0811 -0.8005
  145OSM    H8T15976   7.177   4.966   6.296  2.7186  1.0805 -0.9845
  145OSM    C9S15977   7.110   5.096   6.127 -0.1299  0.4390  0.0888
  145OSM    H9S15978   7.103   4.998   6.075  0.1605  1.6782 -2.4484
  145OSM    H9T15979   7.194   5.158   6.088 -1.2241  1.6926 -0.3420
  145OSM   C10S15980   6.973   5.167   6.102  0.4455  0.0685  0.8168
  145OSM   H10S15981   6.998   5.274   6.122  0.6886  0.5219 -1.5955
  145OSM   H10T15982   6.903   5.135   6.182 -0.0548 -0.4899  0.1712
  145OSM   C11S15983   6.906   5.148   5.963  0.5271  0.3347  0.0615
  145OSM   H11S15984   6.818   5.215   5.975 -0.6790 -1.2462  0.3317
  145OSM   H11T15985   6.862   5.046   5.957 -4.7948  2.3224 -0.3449
  145OSM   C12S15986   6.992   5.167   5.844 -0.4764 -0.0603  0.2690
  145OSM   H12S15987   7.064   5.083   5.836 -0.7856 -0.3309  0.3259
  145OSM   H12T15988   7.041   5.267   5.835  0.0810 -0.2717  0.8792
  145OSM   C13S15989   6.915   5.145   5.718  0.2252  0.2839  0.1234
  145OSM   H13S15990   6.827   5.213   5.716  1.1663  1.5543 -2.1821
  145OSM   H13T15991   6.872   5.043   5.720  0.1331  0.3313  0.9008
  145OSM   C14S15992   6.980   5.189   5.587 -0.1373  0.6158 -0.6292
  145OSM   H14S15993   7.081   5.144   5.582 -0.0957  0.5188  0.6758
  145OSM   H14T15994   6.994   5.299   5.591  0.2835  0.5376  0.2561
  145OSM   C15S15995   6.898   5.146   5.466  0.3230 -0.2408  0.2622
  145OSM   H15S15996   6.793   5.179   5.481  0.0033 -1.2010  0.1816
  145OSM   H15T15997   6.885   5.039   5.442 -2.9993 -0.2186  1.4484
  145OSM   C16S15998   6.937   5.219   5.334 -0.5548 -0.3962 -0.4116
  145OSM   H16S15999   7.023   5.160   5.295 -0.4390  0.7578 -2.0318
  145OSM   H16T16000   6.972   5.324   5.343 -0.5252 -0.1152 -3.0419
  145OSM   C17S16001   6.825   5.220   5.228  0.2271 -0.3357 -0.3357
  145OSM   H17S16002   6.744   5.285   5.266  0.8690  1.4949 -1.9469
  145OSM   H17T16003   6.785   5.118   5.215 -0.9731 -0.4030  2.9496
  145OSM   C18S16004   6.858   5.275   5.085  0.7091 -0.2770 -0.0083
  145OSM   H18S16005   6.762   5.273   5.028 -0.8125  0.4206  2.3880
  145OSM   H18T16006   6.926   5.207   5.030 -1.1407 -1.4649 -0.9369
  145OSM   H18U16007   6.910   5.373   5.082 -1.0828  0.7704  1.1270
  145OSM    C1F16008   6.717   4.930   6.610  0.2137 -0.3311 -0.5496
  145OSM     OF16009   6.634   5.009   6.574  0.1744  0.1957 -0.0831
  145OSM    C2F16010   6.693   4.787   6.599  1.0289 -0.4436  0.2000
  145OSM    H2F16011   6.609   4.769   6.668 -1.9175  3.9631 -1.8040
  145OSM    H2G16012   6.776   4.720   6.630 -2.2648 -4.6627  0.7596
  145OSM    C3F16013   6.661   4.748   6.458 -0.2700  0.2341  0.0540
  145OSM    H3F16014   6.565   4.790   6.420  0.0341  0.7615 -0.1386
  145OSM    H3G16015   6.644   4.639   6.469 -1.9679  0.2216 -2.1181
  145OSM    C4F16016   6.781   4.777   6.367  0.0369  0.4455 -0.7352
  145OSM    H4F16017   6.867   4.730   6.419 -1.4904  1.5440  3.1458
  145OSM    H4G16018   6.792   4.886   6.349 -0.5629  0.3234 -1.9832
  145OSM    C5F16019   6.754   4.724   6.223 -0.5349 -0.0279  1.0788
  145OSM    H5F16020   6.644   4.744   6.217 -0.2903  1.0974 -0.2258
  145OSM    H5G16021   6.778   4.616   6.214  1.2166  0.3458  1.0149
  145OSM    C6F16022   6.809   4.808   6.102  0.8686 -0.0392  0.3085
  145OSM    H6F16023   6.919   4.794   6.093  0.5406 -3.1146 -0.0372
  145OSM    H6G16024   6.795   4.911   6.142 -1.1958 -0.9732  2.2299
  145OSM    C7F16025   6.731   4.786   5.975  0.2760  0.3701 -0.3414
  145OSM    H7F16026   6.753   4.870   5.907 -2.1711  0.6273 -0.9231
  145OSM    H7G16027   6.623   4.793   6.001 -1.0387 -0.2292 -4.8978
  145OSM    C8F16028   6.752   4.651   5.901  0.2815 -0.7488 -0.3835
  145OSM    H8F16029   6.672   4.641   5.824  0.0388  0.1545 -0.2673
  145OSM    H8G16030   6.737   4.577   5.983  1.1232 -1.3985 -0.8005
  145OSM    C9F16031   6.889   4.649   5.845  0.5423 -0.8115 -0.5001
  145OSM    H9F16032   6.961   4.676   5.923 -0.1546 -1.6389  0.4584
  145OSM   C10F16033   6.916   4.644   5.717 -0.7232 -0.3262 -0.2067
  145OSM   H10F16034   7.021   4.648   5.686 -0.6731 -1.4421 -0.2200
  145OSM   C11F16035   6.817   4.621   5.613  0.6487  0.3933  0.1518
  145OSM   H11F16036   6.773   4.723   5.606 -0.3392 -0.1214 -1.8072
  145OSM   H11G16037   6.740   4.543   5.633  2.5950 -1.6812 -0.0329
  145OSM   C12F16038   6.880   4.580   5.480 -0.4520  0.3863  0.2564
  145OSM   H12F16039   6.795   4.531   5.428 -3.0798  2.7956  1.9523
  145OSM   H12G16040   6.963   4.507   5.492  0.6156  1.5783  0.3467
  145OSM   C13F16041   6.942   4.692   5.402 -0.3124  0.5201  0.9040
  145OSM   H13F16042   7.009   4.754   5.465  0.7026 -0.3501  0.7197
  145OSM   H13G16043   6.859   4.761   5.379 -0.9617  0.0594  1.7953
  145OSM   C14F16044   7.020   4.636   5.274  0.1010  0.6672 -0.5737
  145OSM   H14F16045   6.950   4.557   5.239 -0.3586  1.2318 -0.9382
  145OSM   H14G16046   7.121   4.592   5.293  0.0373  0.9021  0.3878
  145OSM   C15F16047   7.035   4.739   5.157 -0.5966 -0.2002 -0.3023
  145OSM   H15F16048   6.946   4.805   5.173  0.2450  0.5613  1.4875
  145OSM   H15G16049   7.021   4.687   5.060 -0.3809 -0.8616  0.0111
  145OSM   C16F16050   7.167   4.817   5.159  0.7127 -0.8415  0.7507
  145OSM   H16F16051   7.243   4.762   5.099  2.7783  0.5739  1.9398
  145OSM   H16G16052   7.213   4.834   5.259  0.9838  1.4342  0.3093
  145OSM   C17F16053   7.155   4.955   5.084 -0.3167 -0.8426 -0.2850
  145OSM   H17F16054   7.109   5.039   5.141 -0.6664 -0.6064 -0.9018
  145OSM   H17G16055   7.095   4.927   4.995  0.8904 -5.6874  0.1848
  145OSM   C18F16056   7.291   4.998   5.035  0.1753  0.8213  0.2018
  145OSM   H18F16057   7.304   5.108   5.024  0.7369  0.6024 -1.6063
  145OSM   H18G16058   7.315   4.964   4.932 -0.1353  0.3656  0.2805
  145OSM   H18H16059   7.371   4.958   5.101 -1.4016 -1.3686  0.9105
  146OSM      N16060   4.494   4.635   7.204 -0.0500  0.3695  0.8663
  146OSM    C1516061   4.398   4.585   7.315 -0.0840  0.4183  0.5638
  146OSM   H15A16062   4.454   4.552   7.402 -1.8422 -2.8834  0.5909
  146OSM   H15B16063   4.344   4.500   7.278 -1.1012  0.1192  2.5610
  146OSM   H15C16064   4.330   4.659   7.357 -0.0945  0.8254 -0.1484
  146OSM    C1416065   4.573   4.747   7.258  0.3257 -0.0526 -0.2763
  146OSM   H14A16066   4.665   4.763   7.205  0.1536 -0.7287 -0.7999
  146OSM   H14B16067   4.600   4.731   7.362 -0.4491 -1.4031 -0.2594
  146OSM   H14C16068   4.526   4.844   7.257  2.5375  1.0828 -0.0741
  146OSM    C1316069   4.576   4.513   7.172 -0.4921  0.0988 -0.0585
  146OSM   H13A16070   4.511   4.440   7.127  0.2398 -0.8426  0.3768
  146OSM   H13B16071   4.634   4.484   7.259 -2.3954 -0.1219  1.1950
  146OSM   H13C16072   4.644   4.538   7.091 -1.7478  1.0067 -0.8709
  146OSM    C1216073   4.412   4.676   7.079  0.8195  0.3975 -0.6731
  146OSM   H12A16074   4.364   4.589   7.038  0.8679  1.4152 -3.0566
  146OSM   H12B16075   4.482   4.712   7.005  1.3551  2.1474  0.6253
  146OSM    C1116076   4.309   4.793   7.097  0.5778  0.8457  1.0240
  146OSM   H11A16077   4.241   4.762   7.179  0.2237 -1.2362 -0.0036
  146OSM   H11B16078   4.257   4.799   7.000  2.6727 -0.2819 -0.2414
  146OSM      P16079   4.420   5.024   7.033  0.1356 -0.1672  0.7006
  146OSM    O1316080   4.290   5.082   6.987 -0.2260 -0.2129  0.1190
  146OSM    O1416081   4.519   5.119   7.084 -0.2669 -0.1906  0.4641
  146OSM    O1116082   4.483   4.925   6.924 -0.1032 -0.6673  0.2804
  146OSM    O1216083   4.380   4.915   7.137 -0.2831 -0.5561  0.5160
  146OSM    C1S16084   4.419   4.918   6.795 -0.2476  0.1070 -0.0565
  146OSM    H1S16085   4.358   5.005   6.765  0.4594  0.2463 -1.1214
  146OSM    H1T16086   4.354   4.828   6.791 -3.0992  1.9881  1.1636
  146OSM     NF16087   4.489   4.919   6.557  0.0193 -0.4961 -0.3182
  146OSM    HNF16088   4.440   4.842   6.517  0.0696  0.1744 -1.7216
  146OSM    C2S16089   4.536   4.902   6.694 -0.0977 -0.1264 -0.7924
  146OSM    H2S16090   4.597   4.993   6.716 -0.3319 -0.0629 -0.4016
  146OSM    C3S16091   4.617   4.773   6.724  0.1828 -0.2973 -0.7572
  146OSM    H3S16092   4.553   4.685   6.704  1.1519 -1.6506  1.6667
  146OSM     O316093   4.657   4.759   6.860 -0.1233 -0.0999 -0.4044
  146OSM    HO316094   4.607   4.824   6.910  0.5509 -1.3519  2.0263
  146OSM    C4S16095   4.724   4.769   6.620 -0.3537  0.2873  0.3283
  146OSM    H4S16096   4.787   4.858   6.609  1.2490 -0.4583  2.5918
  146OSM    C5S16097   4.745   4.669   6.526 -0.7858  0.2457  0.3058
  146OSM    H5S16098   4.684   4.577   6.522  0.8492 -0.8489 -2.2817
  146OSM    C6S16099   4.860   4.688   6.420  0.0285 -0.6234  0.8689
  146OSM    H6S16100   4.832   4.650   6.319 -0.2863 -2.2561  1.5569
  146OSM    H6T16101   4.946   4.629   6.458  0.2801 -0.0188  1.2623
  146OSM    C7S16102   4.898   4.834   6.381 -0.2687  0.2889 -0.6256
  146OSM    H7S16103   4.924   4.892   6.472 -0.8392  0.8734 -0.8348
  146OSM    H7T16104   4.802   4.874   6.344 -0.8743 -1.5555 -1.1801
  146OSM    C8S16105   5.007   4.840   6.273  0.8780 -0.0127  0.0765
  146OSM    H8S16106   5.004   4.747   6.211  3.0095 -0.3820  0.4433
  146OSM    H8T16107   5.110   4.834   6.316  1.4759  0.4113 -1.2354
  146OSM    C9S16108   5.003   4.963   6.193 -0.1585 -0.2443  0.0239
  146OSM    H9S16109   5.019   5.050   6.260  0.6887 -0.6437  0.3417
  146OSM    H9T16110   4.904   4.979   6.145 -0.6584 -0.1265  1.0517
  146OSM   C10S16111   5.120   4.959   6.084  0.1571  0.5077 -0.7424
  146OSM   H10S16112   5.215   4.950   6.141 -0.3572 -2.7252 -0.2399
  146OSM   H10T16113   5.120   5.055   6.027 -0.0705 -0.1973 -1.9584
  146OSM   C11S16114   5.104   4.842   5.992 -0.3428  0.5597  0.2878
  146OSM   H11S16115   4.996   4.817   5.998 -0.1816  0.1788  2.5780
  146OSM   H11T16116   5.168   4.763   6.038  1.2374  1.2099 -0.6823
  146OSM   C12S16117   5.159   4.873   5.852 -0.1394 -0.5891  0.5931
  146OSM   H12S16118   5.270   4.879   5.855  0.0070 -2.5394  0.5787
  146OSM   H12T16119   5.129   4.977   5.830  1.1349 -0.0385  1.3297
  146OSM   C13S16120   5.102   4.790   5.744  0.0496  0.3655 -0.0070
  146OSM   H13S16121   4.991   4.783   5.752  0.1035 -0.1329  0.3711
  146OSM   H13T16122   5.137   4.686   5.759 -0.4762 -0.1140 -1.8280
  146OSM   C14S16123   5.155   4.833   5.603  0.6040  0.3465 -0.2131
  146OSM   H14S16124   5.265   4.821   5.612  0.7421  1.2317 -0.5988
  146OSM   H14T16125   5.120   4.938   5.598 -2.2105 -0.5192 -0.1414
  146OSM   C15S16126   5.092   4.740   5.498  0.1269 -0.3026  0.0001
  146OSM   H15S16127   4.982   4.743   5.512  0.2079  1.4482  0.5235
  146OSM   H15T16128   5.125   4.635   5.508  3.5191  0.5674 -0.7779
  146OSM   C16S16129   5.116   4.802   5.350 -0.2679  0.6029  0.3014
  146OSM   H16S16130   5.226   4.822   5.348 -0.4831  1.9634  0.7142
  146OSM   H16T16131   5.060   4.894   5.322 -1.4535 -0.4166 -0.7788
  146OSM   C17S16132   5.086   4.707   5.237  0.4660 -0.5707  0.7490
  146OSM   H17S16133   5.112   4.603   5.266 -1.7396 -1.5296 -0.3832
  146OSM   H17T16134   5.137   4.752   5.149 -1.7051 -0.3017 -0.4459
  146OSM   C18S16135   4.935   4.696   5.207 -0.1177  0.4072  0.4985
  146OSM   H18S16136   4.898   4.795   5.173  2.1900  0.9843 -0.4936
  146OSM   H18T16137   4.886   4.667   5.303  0.1872 -2.3551 -0.0781
  146OSM   H18U16138   4.890   4.615   5.145 -2.1221  1.3315  0.6523
  146OSM    C1F16139   4.460   5.045   6.511 -0.0249 -0.6080 -0.3841
  146OSM     OF16140   4.502   5.145   6.571 -0.2255  0.0877  0.3068
  146OSM    C2F16141   4.372   5.058   6.389  0.3460 -0.1902 -0.3795
  146OSM    H2F16142   4.317   4.962   6.385  0.3039 -0.1351 -1.1912
  146OSM    H2G16143   4.440   5.069   6.302 -1.7152  1.5154 -1.8748
  146OSM    C3F16144   4.268   5.168   6.408  0.0309 -0.9838 -0.6155
  146OSM    H3F16145   4.309   5.264   6.446  1.2377 -0.8563 -2.1150
  146OSM    H3G16146   4.192   5.135   6.482  0.7588  3.1058  2.3184
  146OSM    C4F16147   4.203   5.209   6.272  0.5325  0.4211  0.6378
  146OSM    H4F16148   4.116   5.273   6.300  0.8430  0.6879  1.0245
  146OSM    H4G16149   4.151   5.121   6.229  1.0257 -0.3718  1.6096
  146OSM    C5F16150   4.298   5.295   6.183  0.1649 -0.1465 -0.5136
  146OSM    H5F16151   4.375   5.218   6.162 -1.1714 -1.3917 -1.0232
  146OSM    H5G16152   4.335   5.383   6.239 -3.0780  0.5764  0.7055
  146OSM    C6F16153   4.231   5.352   6.055  0.4150  0.1600  0.8594
  146OSM    H6F16154   4.165   5.280   6.002  1.0560 -0.2480  0.6048
  146OSM    H6G16155   4.306   5.376   5.977 -0.7836  0.2475 -0.3108
  146OSM    C7F16156   4.144   5.472   6.085  0.1861  0.4068  0.2552
  146OSM    H7F16157   4.194   5.537   6.160  0.9266  0.7713 -0.5265
  146OSM    H7G16158   4.045   5.441   6.126  0.2367 -0.8057 -0.4925
  146OSM    C8F16159   4.092   5.545   5.952 -0.6331  0.1846 -0.0021
  146OSM    H8F16160   4.015   5.618   5.986  0.4346  0.0826  2.8890
  146OSM    H8G16161   4.039   5.479   5.880  1.1656 -0.0634 -1.1793
  146OSM    C9F16162   4.208   5.619   5.887 -0.5215  0.1056  0.1119
  146OSM    H9F16163   4.251   5.696   5.953 -0.6213  0.6552 -0.4579
  146OSM   C10F16164   4.260   5.604   5.759  0.0840  0.7781 -0.5064
  146OSM   H10F16165   4.343   5.670   5.729  0.1937 -0.1160 -2.2878
  146OSM   C11F16166   4.216   5.515   5.645 -0.5489 -0.2774  0.5574
  146OSM   H11F16167   4.152   5.568   5.571 -0.2829 -2.0619 -1.0276
  146OSM   H11G16168   4.151   5.442   5.699  2.6416 -2.2112  2.0921
  146OSM   C12F16169   4.344   5.443   5.590  0.6150  0.1483  0.4325
  146OSM   H12F16170   4.302   5.358   5.533  0.3966  0.0217  0.7833
  146OSM   H12G16171   4.408   5.395   5.667  0.1164 -0.7711  0.2890
  146OSM   C13F16172   4.425   5.508   5.473  0.1956  0.0726 -0.4032
  146OSM   H13F16173   4.505   5.570   5.518 -1.0762  1.3516  0.1669
  146OSM   H13G16174   4.360   5.579   5.417  1.4816  1.7544  0.1568
  146OSM   C14F16175   4.488   5.399   5.374  0.7281  0.5727 -0.4595
  146OSM   H14F16176   4.542   5.328   5.439  1.5438  1.5537 -0.0434
  146OSM   H14G16177   4.406   5.341   5.327  0.5581  0.1408  0.3516
  146OSM   C15F16178   4.574   5.458   5.266 -0.1257 -0.1877 -0.1217
  146OSM   H15F16179   4.657   5.518   5.308  0.3770 -1.6680  1.0536
  146OSM   H15G16180   4.505   5.527   5.212  1.3740  1.2796 -0.2339
  146OSM   C16F16181   4.625   5.356   5.158 -0.5269  0.4283 -0.1118
  146OSM   H16F16182   4.549   5.321   5.086 -1.3361  4.0745 -1.2733
  146OSM   H16G16183   4.672   5.264   5.198 -2.7854 -0.7667 -0.0480
  146OSM   C17F16184   4.738   5.416   5.072  0.2838 -0.2291 -0.2156
  146OSM   H17F16185   4.806   5.451   5.152 -1.1735 -0.2120  1.0491
  146OSM   H17G16186   4.680   5.494   5.018 -0.0884 -1.8451 -2.3122
  146OSM   C18F16187   4.792   5.314   4.970 -0.1006  0.1585  0.2195
  146OSM   H18F16188   4.866   5.363   4.903 -0.4488  2.8628  1.6386
  146OSM   H18G16189   4.715   5.291   4.893  0.3977  0.7873 -0.4838
  146OSM   H18H16190   4.830   5.222   5.018 -0.4986 -0.3778 -0.4818
  147OSM      N16191   5.938   2.411   2.377  0.3340 -0.0660 -0.2858
  147OSM    C1516192   5.840   2.299   2.400 -0.6237 -0.9870  0.3994
  147OSM   H15A16193   5.895   2.211   2.370  2.9100  0.5425  1.8309
  147OSM   H15B16194   5.741   2.300   2.356 -0.9897 -4.1290  0.8844
  147OSM   H15C16195   5.820   2.286   2.506 -0.6783 -0.6561  0.4314
  147OSM    C1416196   6.002   2.408   2.239 -0.3982 -0.0119  0.2495
  147OSM   H14A16197   6.061   2.319   2.222  0.9306  0.8841  0.0059
  147OSM   H14B16198   6.075   2.488   2.237  1.9352 -1.9645  1.8393
  147OSM   H14C16199   5.925   2.416   2.164 -0.6885  0.7604  0.6138
  147OSM    C1316200   5.867   2.545   2.392  0.4996  0.0096 -0.3837
  147OSM   H13A16201   5.802   2.562   2.307 -1.0813  0.1939  0.8098
  147OSM   H13B16202   5.945   2.619   2.399 -2.0080  2.6988  1.6949
  147OSM   H13C16203   5.804   2.549   2.480 -1.6053  1.3233 -1.8560
  147OSM    C1216204   6.042   2.411   2.486 -0.4361  0.1734  0.2720
  147OSM   H12A16205   6.123   2.475   2.455 -0.9209  0.6504 -0.0163
  147OSM   H12B16206   6.091   2.314   2.488 -1.3287 -0.3002 -0.3379
  147OSM    C1116207   6.005   2.466   2.627 -0.1612 -0.7306 -1.0320
  147OSM   H11A16208   5.959   2.567   2.632  0.1243 -0.6709  1.2557
  147OSM   H11B16209   6.095   2.466   2.693 -2.0441 -0.7579  1.6940
  147OSM      P16210   5.940   2.256   2.777  0.0347 -0.4335  0.1092
  147OSM    O1316211   5.815   2.186   2.811 -0.2427  1.1100 -0.0940
  147OSM    O1416212   6.046   2.175   2.706  0.7239  0.3609 -0.3443
  147OSM    O1116213   5.994   2.329   2.898 -0.0678  0.4608 -0.5659
  147OSM    O1216214   5.904   2.381   2.681  0.4698  0.3081 -0.2236
  147OSM    C1S16215   5.950   2.298   3.031 -0.1332  0.3423  0.9432
  147OSM    H1S16216   5.985   2.199   3.066 -1.1678  0.7050  3.2501
  147OSM    H1T16217   5.840   2.294   3.047 -0.5302  1.8307 -1.0158
  147OSM     NF16218   5.994   2.337   3.277  0.4454 -0.1266 -0.5100
  147OSM    HNF16219   5.918   2.381   3.323  0.9007  0.3290 -0.1824
  147OSM    C2S16220   6.005   2.390   3.138 -0.6238 -1.0216 -0.1494
  147OSM    H2S16221   6.115   2.391   3.129 -0.5252 -1.3550  0.8601
  147OSM    C3S16222   5.962   2.536   3.119  0.2943 -0.7529 -0.1003
  147OSM    H3S16223   5.851   2.543   3.124  0.2051 -0.8352 -1.4927
  147OSM     O316224   6.002   2.593   2.993  0.0325 -0.0974  0.9603
  147OSM    HO316225   6.023   2.513   2.945 -1.1838 -0.0757  0.3311
  147OSM    C4S16226   6.028   2.622   3.219  0.1682 -0.3971 -0.0833
  147OSM    H4S16227   6.138   2.626   3.221  0.2007 -1.2508  0.1110
  147OSM    C5S16228   5.960   2.692   3.317  0.2114  0.1059 -0.0331
  147OSM    H5S16229   5.852   2.673   3.322 -0.0944  1.6764 -0.1751
  147OSM    C6S16230   6.025   2.774   3.421 -0.2215  0.3284 -0.5091
  147OSM    H6S16231   5.998   2.882   3.421 -1.7142  0.0204  1.5870
  147OSM    H6T16232   6.136   2.770   3.418 -0.1096  1.5001  0.9343
  147OSM    C7S16233   5.992   2.712   3.563  0.2035 -0.8843  0.2133
  147OSM    H7S16234   6.002   2.602   3.547  1.2158 -0.9028  0.8564
  147OSM    H7T16235   5.885   2.734   3.580 -0.4945 -2.3105 -1.9804
  147OSM    C8S16236   6.079   2.763   3.680  0.1163  0.5318  0.0465
  147OSM    H8S16237   6.053   2.871   3.677  1.6844  0.9431  0.0736
  147OSM    H8T16238   6.188   2.745   3.666  0.1219 -1.4238  2.1052
  147OSM    C9S16239   6.034   2.694   3.813  0.6017  0.0284 -0.1993
  147OSM    H9S16240   6.026   2.584   3.801 -0.5484 -0.5211  3.8869
  147OSM    H9T16241   5.932   2.724   3.846 -0.0875  1.3937 -3.2901
  147OSM   C10S16242   6.139   2.725   3.920 -0.3552 -0.1544 -0.2308
  147OSM   H10S16243   6.113   2.827   3.955  2.6127  0.6201 -0.0217
  147OSM   H10T16244   6.243   2.733   3.881  0.0674 -0.0735  0.8813
  147OSM   C11S16245   6.154   2.636   4.045  0.6766 -0.0759 -0.0859
  147OSM   H11S16246   6.183   2.536   4.007 -3.1853 -0.6724 -1.9502
  147OSM   H11T16247   6.057   2.620   4.096  0.3496  0.3439 -0.5663
  147OSM   C12S16248   6.249   2.694   4.148  0.1224 -0.2424  1.0792
  147OSM   H12S16249   6.213   2.795   4.176  0.1403 -0.7003  2.8770
  147OSM   H12T16250   6.348   2.696   4.096 -0.0097  0.9452  0.8616
  147OSM   C13S16251   6.267   2.609   4.281 -0.4090 -0.2207 -0.2267
  147OSM   H13S16252   6.297   2.505   4.255  1.7715 -0.1978  1.8250
  147OSM   H13T16253   6.170   2.598   4.333 -0.8552  2.0876 -0.4976
  147OSM   C14S16254   6.375   2.672   4.380 -0.0970 -0.1682 -0.2126
  147OSM   H14S16255   6.350   2.778   4.401  1.8393  0.0298  1.3383
  147OSM   H14T16256   6.474   2.675   4.330  0.5761 -1.6767  0.9565
  147OSM   C15S16257   6.392   2.609   4.520 -0.1439  0.0551  0.9322
  147OSM   H15S16258   6.444   2.512   4.506 -0.6946 -0.0989 -0.0984
  147OSM   H15T16259   6.290   2.578   4.551 -0.3413  0.7490  0.9952
  147OSM   C16S16260   6.457   2.700   4.623 -0.5302 -0.1364  0.6553
  147OSM   H16S16261   6.390   2.789   4.619  2.4614  2.3533  1.0864
  147OSM   H16T16262   6.560   2.732   4.595 -1.1638 -2.0255 -5.0130
  147OSM   C17S16263   6.461   2.643   4.766  0.2064 -0.0447  0.1535
  147OSM   H17S16264   6.525   2.689   4.846  1.8402 -2.2355  0.1922
  147OSM   H17T16265   6.507   2.543   4.752 -1.2433 -0.4357 -2.5574
  147OSM   C18S16266   6.326   2.616   4.833 -0.4647  0.3715  0.4959
  147OSM   H18S16267   6.358   2.558   4.922  0.0182  1.0554  0.7737
  147OSM   H18T16268   6.269   2.549   4.765 -0.6610 -0.0520  1.0715
  147OSM   H18U16269   6.272   2.710   4.859  0.6076  0.8089  1.2036
  147OSM    C1F16270   6.051   2.225   3.323 -0.2684  0.1102 -0.1792
  147OSM     OF16271   6.135   2.165   3.254  0.2463  0.0941  0.0689
  147OSM    C2F16272   5.999   2.166   3.452  0.4918  0.2715  0.4459
  147OSM    H2F16273   6.045   2.065   3.457 -2.7517 -1.5171 -1.9561
  147OSM    H2G16274   5.890   2.150   3.461  0.5662 -1.5155 -1.2535
  147OSM    C3F16275   6.046   2.249   3.571 -0.2562  0.0645  0.0662
  147OSM    H3F16276   5.975   2.334   3.578 -1.0379 -0.3484 -1.9484
  147OSM    H3G16277   6.148   2.284   3.545 -0.0766 -1.4706 -1.5535
  147OSM    C4F16278   6.047   2.181   3.707  0.1030  0.1028  0.3260
  147OSM    H4F16279   6.122   2.101   3.687  1.9374  1.6288  0.8129
  147OSM    H4G16280   5.945   2.147   3.734 -0.6078  0.2058 -2.0950
  147OSM    C5F16281   6.083   2.269   3.832  0.2542  0.3410  0.3154
  147OSM    H5F16282   6.012   2.354   3.824 -0.9978 -0.7512 -0.6960
  147OSM    H5G16283   6.187   2.303   3.816 -0.0037  2.0482  1.8821
  147OSM    C6F16284   6.074   2.198   3.970  0.4403 -0.6475 -0.4051
  147OSM    H6F16285   6.159   2.128   3.980  0.9612  0.1011  0.6575
  147OSM    H6G16286   5.975   2.148   3.983  0.3110 -0.1198  0.7887
  147OSM    C7F16287   6.089   2.292   4.089  0.4159  0.1200 -0.4241
  147OSM    H7F16288   6.005   2.364   4.093  0.2620  0.0217 -1.5836
  147OSM    H7G16289   6.181   2.349   4.066 -0.8581  2.5665  0.2491
  147OSM    C8F16290   6.106   2.237   4.229  0.7334  0.1739 -0.0550
  147OSM    H8F16291   6.011   2.192   4.266  0.5564 -0.0081 -0.7186
  147OSM    H8G16292   6.111   2.324   4.298 -1.1786 -0.2172  0.6405
  147OSM    C9F16293   6.223   2.144   4.252 -0.6347 -0.4930  0.1316
  147OSM    H9F16294   6.252   2.087   4.162  2.4333  1.1950 -0.0883
  147OSM   C10F16295   6.292   2.123   4.363 -0.7169 -0.2659  0.3190
  147OSM   H10F16296   6.379   2.056   4.362 -0.1137  0.4941 -0.8297
  147OSM   C11F16297   6.271   2.194   4.490  0.0969  0.2264 -0.3925
  147OSM   H11F16298   6.178   2.255   4.483 -0.1590 -0.1319 -0.1539
  147OSM   H11G16299   6.357   2.264   4.501  1.4792 -0.6672 -3.9519
  147OSM   C12F16300   6.265   2.098   4.617 -1.8183 -0.3624  0.5861
  147OSM   H12F16301   6.352   2.029   4.628  0.3016  1.5881 -2.5920
  147OSM   H12G16302   6.180   2.028   4.602 -2.2328  0.1594  0.4776
  147OSM   C13F16303   6.254   2.175   4.750 -0.8087 -0.3146  0.0278
  147OSM   H13F16304   6.161   2.236   4.749  0.3584  1.5538  0.5247
  147OSM   H13G16305   6.337   2.245   4.773  1.1614 -2.8836  1.2721
  147OSM   C14F16306   6.228   2.081   4.874  0.5442 -0.3330 -0.2414
  147OSM   H14F16307   6.304   2.004   4.894  0.6144 -0.1419  0.2400
  147OSM   H14G16308   6.130   2.033   4.853  0.7461 -0.1345 -1.7261
  147OSM   C15F16309   6.226   2.158   5.006  1.2284  0.1628  1.0892
  147OSM   H15F16310   6.137   2.225   4.998  1.4184  0.5196  1.8793
  147OSM   H15G16311   6.320   2.217   5.006  0.9303  0.6471  1.0513
  147OSM   C16F16312   6.244   2.061   5.121 -0.0467 -0.8475 -0.5524
  147OSM   H16F16313   6.330   1.991   5.118 -1.4589 -2.8439  2.0567
  147OSM   H16G16314   6.156   1.994   5.122  1.3000 -2.6898  0.9436
  147OSM   C17F16315   6.247   2.126   5.258 -0.1344 -0.1763  0.4416
  147OSM   H17F16316   6.239   2.048   5.337 -0.2841 -0.2828  0.3199
  147OSM   H17G16317   6.155   2.187   5.273 -1.3547 -1.9634  0.5641
  147OSM   C18F16318   6.373   2.196   5.298  0.0004  0.1188  0.0623
  147OSM   H18F16319   6.461   2.135   5.270  0.2948  1.1337 -1.3367
  147OSM   H18G16320   6.385   2.222   5.405 -0.1406  2.1559 -0.3650
  147OSM   H18H16321   6.381   2.296   5.249  1.4075  0.9820  1.9331
  148OSM      N16322   6.347   2.676   2.751 -1.1859 -0.0773  0.1990
  148OSM    C1516323   6.344   2.578   2.639  0.1833 -0.0041 -0.7184
  148OSM   H15A16324   6.285   2.492   2.668  1.1392 -0.5065 -0.2361
  148OSM   H15B16325   6.442   2.557   2.599 -0.0621 -0.2816 -1.1916
  148OSM   H15C16326   6.293   2.622   2.554 -2.7897 -1.4962  0.1674
  148OSM    C1416327   6.440   2.782   2.712 -0.1909 -0.2315  1.1324
  148OSM   H14A16328   6.447   2.859   2.788  0.8588  0.5217  0.3063
  148OSM   H14B16329   6.412   2.836   2.622  2.8128 -0.3529  0.0273
  148OSM   H14C16330   6.538   2.739   2.707 -0.4417 -0.7912  0.9161
  148OSM    C1316331   6.213   2.744   2.777  0.3149 -0.2488  0.0285
  148OSM   H13A16332   6.219   2.820   2.853  0.8226  1.5659 -1.7333
  148OSM   H13B16333   6.138   2.670   2.803  1.0090  0.1642  3.7600
  148OSM   H13C16334   6.169   2.800   2.695 -1.8210 -0.9652  0.6029
  148OSM    C1216335   6.400   2.604   2.875  0.2247 -0.0097  0.4094
  148OSM   H12A16336   6.390   2.670   2.960  2.1519 -0.5147  1.0917
  148OSM   H12B16337   6.506   2.584   2.870  0.1137 -0.3980 -0.5362
  148OSM    C1116338   6.334   2.462   2.901  0.0832 -0.2880  0.0280
  148OSM   H11A16339   6.223   2.471   2.896 -0.0948 -2.5306 -1.2703
  148OSM   H11B16340   6.362   2.431   3.004 -1.8608  3.6850  2.0074
  148OSM      P16341   6.511   2.298   2.798 -0.2142 -0.5559 -0.1138
  148OSM    O1316342   6.514   2.222   2.672 -0.6474 -0.3770  0.1735
  148OSM    O1416343   6.614   2.402   2.831 -0.3370 -0.3676  0.1600
  148OSM    O1116344   6.513   2.199   2.918  0.4460  0.3144 -0.3210
  148OSM    O1216345   6.367   2.362   2.807 -0.1382 -0.7370 -0.2929
  148OSM    C1S16346   6.389   2.141   2.954 -0.3996 -0.6315  0.2499
  148OSM    H1S16347   6.340   2.086   2.871  0.3920 -2.5167  0.9683
  148OSM    H1T16348   6.317   2.219   2.986  0.2984  0.2416 -0.2454
  148OSM     NF16349   6.282   1.984   3.105  0.1561 -0.7032 -0.1229
  148OSM    HNF16350   6.228   2.039   3.169 -0.9624 -2.2459  0.3249
  148OSM    C2S16351   6.407   2.047   3.073  0.0875 -0.2171 -0.3426
  148OSM    H2S16352   6.472   1.963   3.039  2.6662  1.2368  0.7492
  148OSM    C3S16353   6.479   2.126   3.190 -0.1005  0.4658  0.8964
  148OSM    H3S16354   6.420   2.217   3.214 -1.4920 -0.1415 -0.1020
  148OSM     O316355   6.617   2.167   3.160 -0.2678 -0.2735 -0.1996
  148OSM    HO316356   6.613   2.187   3.066 -1.7182 -2.2260 -0.6122
  148OSM    C4S16357   6.485   2.037   3.310  0.0417  0.2700 -0.7053
  148OSM    H4S16358   6.531   1.940   3.285  1.4975  0.3112  1.5334
  148OSM    C5S16359   6.442   2.072   3.436  0.0580 -0.2549  0.1720
  148OSM    H5S16360   6.398   2.170   3.459  0.4846  0.6311 -2.4555
  148OSM    C6S16361   6.431   1.969   3.546 -0.4125  0.0418 -0.9188
  148OSM    H6S16362   6.505   1.888   3.526  0.4605  0.5446  0.1391
  148OSM    H6T16363   6.330   1.923   3.546 -0.6743  0.6143 -0.8207
  148OSM    C7S16364   6.449   2.015   3.688  0.2592  0.2712  0.1956
  148OSM    H7S16365   6.381   2.098   3.720  2.4190  1.3698  2.2251
  148OSM    H7T16366   6.547   2.068   3.689  0.7656 -0.5356 -1.8861
  148OSM    C8S16367   6.436   1.901   3.787  0.0649 -0.9418 -0.1018
  148OSM    H8S16368   6.511   1.823   3.763 -0.8668 -2.9597  2.9256
  148OSM    H8T16369   6.336   1.856   3.768 -0.9699  0.3079  1.9896
  148OSM    C9S16370   6.447   1.928   3.936  0.5090 -0.0352 -0.5657
  148OSM    H9S16371   6.357   1.977   3.980  1.3961 -0.9949  2.5836
  148OSM    H9T16372   6.531   1.999   3.951 -0.1279  0.9413 -1.5115
  148OSM   C10S16373   6.477   1.805   4.024  0.3029 -0.2762  0.0735
  148OSM   H10S16374   6.561   1.743   3.987  0.2204  0.0085 -0.6136
  148OSM   H10T16375   6.401   1.724   4.020  0.7561 -1.3222  5.5695
  148OSM   C11S16376   6.504   1.849   4.164  0.0818  0.2525 -0.2311
  148OSM   H11S16377   6.411   1.895   4.205 -0.3329 -0.8136  0.0417
  148OSM   H11T16378   6.575   1.935   4.160 -1.2742  1.3976 -0.4568
  148OSM   C12S16379   6.554   1.742   4.260  0.5969  0.4211 -0.2671
  148OSM   H12S16380   6.655   1.706   4.229  0.6118  1.0808 -1.0189
  148OSM   H12T16381   6.481   1.659   4.259 -0.1205  1.0177 -1.9211
  148OSM   C13S16382   6.563   1.795   4.400  0.2156 -0.3901 -0.7504
  148OSM   H13S16383   6.468   1.843   4.434  0.8258 -0.3169  0.9892
  148OSM   H13T16384   6.643   1.871   4.413 -0.6567  0.4335 -0.1081
  148OSM   C14S16385   6.583   1.688   4.515 -1.3756  0.6553  0.6332
  148OSM   H14S16386   6.668   1.617   4.508 -1.1078  0.4110  4.4064
  148OSM   H14T16387   6.503   1.612   4.524 -0.5064 -0.1722  1.6562
  148OSM   C15S16388   6.589   1.765   4.655  0.4594 -0.3103 -0.2850
  148OSM   H15S16389   6.587   1.694   4.740  0.6620  2.8072  2.5228
  148OSM   H15T16390   6.495   1.822   4.664  0.5950 -0.2897  1.2715
  148OSM   C16S16391   6.695   1.868   4.671 -0.8207 -0.3924  0.9050
  148OSM   H16S16392   6.689   1.959   4.608  3.0528  0.3542  1.3571
  148OSM   H16T16393   6.793   1.836   4.630 -0.3246  0.3616  1.4714
  148OSM   C17S16394   6.726   1.918   4.809 -0.3113  0.2336 -0.4801
  148OSM   H17S16395   6.794   2.006   4.813  0.1430 -0.1561  0.7171
  148OSM   H17T16396   6.764   1.830   4.865 -2.8402 -0.6257  0.0118
  148OSM   C18S16397   6.597   1.966   4.883 -0.4677  0.1892 -0.2257
  148OSM   H18S16398   6.559   2.066   4.853  0.0481 -0.1004 -1.9341
  148OSM   H18T16399   6.627   1.973   4.990  0.4468  1.0477 -0.5223
  148OSM   H18U16400   6.517   1.888   4.883 -0.0456 -0.2542  0.0273
  148OSM    C1F16401   6.228   1.882   3.043  0.2339  0.0161  0.0133
  148OSM     OF16402   6.290   1.831   2.952  0.4839 -0.1292  0.2862
  148OSM    C2F16403   6.084   1.839   3.080  0.1732 -0.0613  0.2230
  148OSM    H2F16404   6.072   1.749   3.017 -2.1478  1.6259 -1.9489
  148OSM    H2G16405   6.011   1.918   3.052 -0.4787 -1.4171 -2.1876
  148OSM    C3F16406   6.061   1.796   3.227  0.2182  0.0650 -0.2414
  148OSM    H3F16407   5.955   1.762   3.226  0.2748 -0.1836 -2.0672
  148OSM    H3G16408   6.088   1.872   3.303 -2.2279  0.8021 -0.0102
  148OSM    C4F16409   6.129   1.653   3.261  0.1135 -0.8539 -0.5819
  148OSM    H4F16410   6.235   1.686   3.264 -0.0067 -0.5570  0.9669
  148OSM    H4G16411   6.110   1.571   3.188  1.5781  0.1771 -2.2234
  148OSM    C5F16412   6.089   1.602   3.400  0.7226 -0.2555 -0.8118
  148OSM    H5F16413   6.120   1.495   3.402 -0.2607 -0.5447  0.3026
  148OSM    H5G16414   5.978   1.600   3.412  0.8983 -0.7994  1.1982
  148OSM    C6F16415   6.146   1.691   3.513  0.5655  0.5671  0.2959
  148OSM    H6F16416   6.086   1.784   3.502  0.9759  0.6722 -1.4244
  148OSM    H6G16417   6.248   1.723   3.484  0.8843 -0.9313 -0.3223
  148OSM    C7F16418   6.151   1.617   3.644 -0.6448 -0.5860  0.6856
  148OSM    H7F16419   6.221   1.665   3.716  2.2503 -0.3681 -2.0883
  148OSM    H7G16420   6.193   1.518   3.615  1.4659  0.3558  0.3932
  148OSM    C8F16421   6.017   1.577   3.701  0.7225 -0.3667 -0.4704
  148OSM    H8F16422   6.037   1.511   3.788  2.7225 -1.2992 -1.5755
  148OSM    H8G16423   5.970   1.516   3.621 -0.5842  0.7222 -0.5697
  148OSM    C9F16424   5.934   1.702   3.733  0.6202 -0.0810  0.3822
  148OSM    H9F16425   5.854   1.730   3.663  1.8231  0.8416 -0.6723
  148OSM   C10F16426   5.938   1.775   3.848  0.5022 -0.2679 -0.4177
  148OSM   H10F16427   5.865   1.854   3.869  0.4792 -0.1764 -0.8342
  148OSM   C11F16428   6.031   1.764   3.969 -1.0337 -0.2090 -0.4136
  148OSM   H11F16429   6.092   1.857   3.972 -2.1582  0.6402 -2.1920
  148OSM   H11G16430   6.101   1.680   3.947 -1.7116 -0.3958 -2.0333
  148OSM   C12F16431   5.971   1.736   4.107  0.4691 -0.1996 -0.1151
  148OSM   H12F16432   5.926   1.635   4.114  0.2718 -0.0932  0.1671
  148OSM   H12G16433   5.897   1.815   4.130  1.4874  1.9856 -3.6502
  148OSM   C13F16434   6.082   1.755   4.219 -0.0404  0.5587  0.4055
  148OSM   H13F16435   6.098   1.865   4.220 -1.2018  0.7404  1.3898
  148OSM   H13G16436   6.169   1.693   4.187  1.0447  2.8796 -1.4898
  148OSM   C14F16437   6.027   1.716   4.361 -0.4167  0.6860  0.2404
  148OSM   H14F16438   6.013   1.606   4.363 -1.1596  0.7894  2.1819
  148OSM   H14G16439   5.937   1.777   4.381 -2.1120 -1.6974  0.3297
  148OSM   C15F16440   6.124   1.750   4.480  0.5868  0.2938 -0.1734
  148OSM   H15F16441   6.128   1.860   4.493 -0.1990  0.7070 -2.8953
  148OSM   H15G16442   6.228   1.714   4.466  0.0405 -0.5127 -2.4590
  148OSM   C16F16443   6.065   1.689   4.609 -0.6639  0.0549 -0.2807
  148OSM   H16F16444   6.039   1.581   4.608  0.4846 -0.3067  1.9373
  148OSM   H16G16445   5.976   1.753   4.624  0.3044  1.4372 -0.2641
  148OSM   C17F16446   6.146   1.714   4.734 -0.5988  0.2951  0.2268
  148OSM   H17F16447   6.180   1.820   4.737  3.8154 -0.9224  0.9003
  148OSM   H17G16448   6.238   1.652   4.733 -2.2905 -2.4034 -1.7662
  148OSM   C18F16449   6.077   1.674   4.863  0.5069 -0.8262 -0.1230
  148OSM   H18F16450   6.073   1.566   4.890 -0.0308 -1.5246 -2.7059
  148OSM   H18G16451   5.972   1.710   4.868 -0.0083 -2.3103  0.3230
  148OSM   H18H16452   6.129   1.728   4.945  0.1999 -0.4446 -0.1754
  149OSM      N16453   0.532   1.543   2.272 -0.2109  0.0721 -0.2141
  149OSM    C1516454   0.465   1.676   2.250  0.6099  1.2457  0.1598
  149OSM   H15A16455   0.440   1.705   2.351  0.7998  1.6393  0.0941
  149OSM   H15B16456   0.371   1.661   2.199  0.0385  1.6379  1.0606
  149OSM   H15C16457   0.524   1.746   2.193  0.8156  1.1293  0.2294
  149OSM    C1416458   0.556   1.474   2.135 -0.1183 -0.0261  0.1116
  149OSM   H14A16459   0.464   1.421   2.115  1.4466 -2.5053 -0.9800
  149OSM   H14B16460   0.629   1.395   2.147  1.2945  1.4222  1.6047
  149OSM   H14C16461   0.575   1.544   2.056 -0.3578  0.4108  0.4381
  149OSM    C1316462   0.664   1.569   2.332 -0.6297  0.2159  0.3943
  149OSM   H13A16463   0.715   1.653   2.288  0.4637 -0.4512  0.3545
  149OSM   H13B16464   0.732   1.485   2.322 -2.0558 -0.9189 -0.2686
  149OSM   H13C16465   0.648   1.582   2.438  0.0632  1.0045  0.4036
  149OSM    C1216466   0.447   1.448   2.363  0.6573  0.7142 -0.0366
  149OSM   H12A16467   0.434   1.494   2.459  0.1009  0.6379 -0.0733
  149OSM   H12B16468   0.495   1.354   2.388 -2.6463 -1.1863 -0.3002
  149OSM    C1116469   0.304   1.420   2.312  0.2675  0.4268  0.3921
  149OSM   H11A16470   0.265   1.514   2.267  1.9640  2.6725  3.2843
  149OSM   H11B16471   0.237   1.400   2.398 -1.2448  0.9173 -0.6235
  149OSM      P16472   0.270   1.165   2.258  0.2262  0.2861 -0.0216
  149OSM    O1316473   0.156   1.113   2.177 -0.0975 -0.0989  0.3711
  149OSM    O1416474   0.404   1.098   2.240  0.2025  0.2711  0.0734
  149OSM    O1116475   0.239   1.159   2.414 -0.0064  0.1558  0.4844
  149OSM    O1216476   0.306   1.313   2.217  0.0564 -0.6463 -0.3632
  149OSM    C1S16477   0.323   1.098   2.509  0.0629  0.2301  0.7777
  149OSM    H1S16478   0.422   1.147   2.495 -0.0105 -0.1815 -1.5395
  149OSM    H1T16479   0.340   0.994   2.474  1.5269  0.9655 -0.8704
  149OSM     NF16480   0.365   1.039   2.750  0.9595  0.2798 -0.3969
  149OSM    HNF16481   0.353   0.951   2.794  2.0221 -0.2848 -1.1948
  149OSM    C2S16482   0.262   1.087   2.652  0.3168 -0.0463  0.5131
  149OSM    H2S16483   0.237   1.190   2.685  0.6431  0.2627 -0.1926
  149OSM    C3S16484   0.132   1.009   2.647  0.5534  0.5527  0.4033
  149OSM    H3S16485   0.149   0.906   2.608 -0.1489  0.3299  0.6754
  149OSM     O316486   0.037   1.050   2.546 -0.1171 -0.5122 -1.0643
  149OSM    HO316487   0.088   1.105   2.486 -0.5022  0.0590 -0.8782
  149OSM    C4S16488   0.068   1.008   2.784 -0.5867 -0.5872  0.7718
  149OSM    H4S16489   0.013   1.097   2.818  0.1112 -0.2145  0.9530
  149OSM    C5S16490   0.059   0.901   2.863  0.1018 -0.7990  0.0415
  149OSM    H5S16491   0.103   0.805   2.832  0.4738 -0.9734  1.0387
  149OSM    C6S16492  -0.016   0.890   2.987 -0.0092  0.1970 -0.6579
  149OSM    H6S16493  -0.119   0.852   2.965 -0.0805  0.3227 -0.5379
  149OSM    H6T16494  -0.027   0.985   3.043  0.1939 -0.5848  0.7299
  149OSM    C7S16495   0.045   0.784   3.084  0.0112 -0.1433  0.4843
  149OSM    H7S16496   0.156   0.790   3.091  0.0306 -0.3983  0.4193
  149OSM    H7T16497   0.023   0.679   3.054  1.0204 -0.6296  1.3634
  149OSM    C8S16498  -0.012   0.790   3.224  0.3429  0.8832  0.1245
  149OSM    H8S16499  -0.121   0.768   3.231  0.0223  2.0488 -0.9941
  149OSM    H8T16500  -0.000   0.896   3.257 -0.4257  1.2287 -0.6813
  149OSM    C9S16501   0.066   0.706   3.328 -0.6088  0.2777  0.4012
  149OSM    H9S16502   0.177   0.716   3.322 -0.7230  2.0546  0.9144
  149OSM    H9T16503   0.040   0.601   3.301  1.8871  0.3070 -2.7379
  149OSM   C10S16504   0.032   0.736   3.478  0.2588  0.8377 -0.2432
  149OSM   H10S16505  -0.077   0.717   3.487 -0.0044  2.1977 -0.4404
  149OSM   H10T16506   0.056   0.843   3.495  0.7284  0.8487 -0.9277
  149OSM   C11S16507   0.098   0.645   3.576  0.1919  0.2946  0.1685
  149OSM   H11S16508   0.209   0.653   3.577  0.2309  0.6370 -2.1795
  149OSM   H11T16509   0.063   0.540   3.572  2.6116 -0.5793  0.0042
  149OSM   C12S16510   0.047   0.695   3.718 -0.4006 -0.1544 -0.0219
  149OSM   H12S16511  -0.063   0.681   3.717 -0.4555  0.2406 -1.3108
  149OSM   H12T16512   0.072   0.802   3.726  0.4623 -0.3501  0.0246
  149OSM   C13S16513   0.105   0.609   3.828  0.4764 -0.6369  0.8942
  149OSM   H13S16514   0.215   0.617   3.840  0.2967  1.5553  1.4540
  149OSM   H13T16515   0.077   0.504   3.804 -0.7243 -0.1103 -0.0761
  149OSM   C14S16516   0.064   0.657   3.967  0.1144 -0.0055  0.6486
  149OSM   H14S16517  -0.046   0.669   3.975  0.2355  2.1331 -0.3353
  149OSM   H14T16518   0.098   0.760   3.991  0.4064  0.4627 -1.5990
  149OSM   C15S16519   0.125   0.564   4.066  0.6549  0.0291 -0.0828
  149OSM   H15S16520   0.230   0.544   4.035  0.9153  0.9703  0.1542
  149OSM   H15T16521   0.069   0.469   4.065 -1.5591  1.2602 -2.1035
  149OSM   C16S16522   0.121   0.612   4.214  0.0098 -0.2024  0.1053
  149OSM   H16S16523   0.017   0.620   4.250  0.2680  0.6841  0.6932
  149OSM   H16T16524   0.165   0.714   4.212  0.1357 -0.2622 -0.3146
  149OSM   C17S16525   0.196   0.532   4.312  0.0256 -0.3265  0.1147
  149OSM   H17S16526   0.206   0.422   4.308 -0.5952 -0.5298  2.4447
  149OSM   H17T16527   0.148   0.545   4.412 -1.7257  0.9304 -0.8304
  149OSM   C18S16528   0.343   0.588   4.323 -0.5055 -0.3413  0.1264
  149OSM   H18S16529   0.405   0.552   4.239 -3.3913  1.4817 -3.0691
  149OSM   H18T16530   0.380   0.546   4.419 -1.9455  1.8764  1.7441
  149OSM   H18U16531   0.364   0.696   4.339  0.5624 -0.7483  1.6887
  149OSM    C1F16532   0.468   1.115   2.782 -0.0568 -0.2201  0.2438
  149OSM     OF16533   0.461   1.232   2.757 -1.1046  0.3296 -0.4743
  149OSM    C2F16534   0.567   1.047   2.867 -0.2219  0.1139  0.1385
  149OSM    H2F16535   0.534   0.942   2.884 -0.6959  0.1836 -0.3284
  149OSM    H2G16536   0.578   1.095   2.967  2.1016  0.7097 -0.3325
  149OSM    C3F16537   0.712   1.048   2.811 -0.1259  0.1006  0.3542
  149OSM    H3F16538   0.746   1.154   2.809 -1.6445  0.6171 -2.0955
  149OSM    H3G16539   0.718   1.002   2.710 -2.1601 -1.6718  0.9668
  149OSM    C4F16540   0.813   0.972   2.900 -0.6935  0.3630 -0.3855
  149OSM    H4F16541   0.901   0.948   2.837 -0.3038  0.4940  0.1145
  149OSM    H4G16542   0.764   0.879   2.935 -0.1257  0.5879  1.0717
  149OSM    C5F16543   0.875   1.054   3.014 -0.2490 -0.0631 -0.2920
  149OSM    H5F16544   0.792   1.123   3.042 -0.3179 -0.0206 -0.5980
  149OSM    H5G16545   0.962   1.112   2.975  0.9364 -1.4390  0.2376
  149OSM    C6F16546   0.925   0.970   3.134 -0.2404 -0.0766 -0.2786
  149OSM    H6F16547   0.995   0.889   3.104  1.0426  1.3466 -1.2850
  149OSM    H6G16548   0.837   0.927   3.187  1.0070 -0.8221  1.2565
  149OSM    C7F16549   1.003   1.061   3.233  0.1900 -0.6824 -0.2766
  149OSM    H7F16550   0.936   1.147   3.256 -0.2191 -1.3581  1.1542
  149OSM    H7G16551   1.092   1.105   3.183 -0.0523  0.9856  0.6703
  149OSM    C8F16552   1.038   0.996   3.367 -0.0898 -0.4290 -0.0351
  149OSM    H8F16553   1.120   1.060   3.407  0.2111 -0.6749 -0.2517
  149OSM    H8G16554   1.086   0.896   3.355 -0.4421 -0.4606 -1.2707
  149OSM    C9F16555   0.913   0.988   3.455 -0.2901  0.2523  0.8790
  149OSM    H9F16556   0.827   0.963   3.392 -0.5566  1.6565  0.6387
  149OSM   C10F16557   0.900   1.001   3.583  0.4802 -0.1598  0.4971
  149OSM   H10F16558   0.794   0.989   3.612 -0.3111 -0.0906 -2.1173
  149OSM   C11F16559   1.002   1.046   3.683  0.0599 -0.2777  0.3185
  149OSM   H11F16560   0.980   1.143   3.732 -2.2095  0.3153 -1.6866
  149OSM   H11G16561   1.104   1.048   3.638 -0.6187 -1.1708 -1.3186
  149OSM   C12F16562   1.025   0.954   3.805  0.2273  0.7052  0.7097
  149OSM   H12F16563   1.123   0.981   3.848 -0.8002  0.4488  3.3913
  149OSM   H12G16564   1.026   0.851   3.764 -2.0331  1.3216 -1.1418
  149OSM   C13F16565   0.909   0.964   3.907  0.3518  0.4053 -0.0533
  149OSM   H13F16566   0.814   0.936   3.857  1.8415  1.1837 -3.6631
  149OSM   H13G16567   0.902   1.064   3.954 -0.7426  0.0899  0.4999
  149OSM   C14F16568   0.921   0.860   4.019  0.0820 -0.8255 -0.0693
  149OSM   H14F16569   0.942   0.761   3.976  0.8360 -0.9098  0.4745
  149OSM   H14G16570   0.824   0.852   4.073  0.9594  0.0241  1.7296
  149OSM   C15F16571   1.021   0.897   4.132  0.6026  0.3546 -0.8382
  149OSM   H15F16572   1.009   1.001   4.170  0.3358  0.3302 -0.8538
  149OSM   H15G16573   1.123   0.891   4.090  0.3143  0.5574 -1.5769
  149OSM   C16F16574   1.007   0.795   4.249 -0.2236 -0.1187 -0.1566
  149OSM   H16F16575   1.029   0.693   4.211 -1.4042 -0.6436  0.5009
  149OSM   H16G16576   0.904   0.785   4.290 -0.1220 -0.9037 -0.0788
  149OSM   C17F16577   1.108   0.808   4.360  0.4252 -0.2991  0.8228
  149OSM   H17F16578   1.091   0.893   4.429 -0.3468  1.4145 -1.3434
  149OSM   H17G16579   1.193   0.846   4.299 -1.1399 -1.0407 -1.9747
  149OSM   C18F16580   1.142   0.673   4.433 -0.7735 -0.4752 -0.4289
  149OSM   H18F16581   1.233   0.687   4.495  1.0400 -2.8486 -2.3658
  149OSM   H18G16582   1.145   0.589   4.359 -0.3863  0.3232 -1.3418
  149OSM   H18H16583   1.057   0.651   4.501 -0.8694 -2.2489 -1.0530
  150OSM      N16584   2.578   2.900   2.336  0.0326 -0.1210 -0.6403
  150OSM    C1516585   2.707   2.976   2.328 -1.2255 -0.9061  0.3106
  150OSM   H15A16586   2.686   3.082   2.336  1.4422 -0.2569 -0.2965
  150OSM   H15B16587   2.759   2.963   2.234  2.3353  0.0264  1.9868
  150OSM   H15C16588   2.765   2.939   2.411 -1.6056 -3.3948 -0.4631
  150OSM    C1416589   2.507   2.995   2.422  0.1208  0.3565 -0.0528
  150OSM   H14A16590   2.570   3.035   2.501 -1.6165  1.2830  0.9176
  150OSM   H14B16591   2.416   2.964   2.471 -0.0241 -1.5237 -1.3875
  150OSM   H14C16592   2.496   3.082   2.360  1.9259 -1.5377 -3.2840
  150OSM    C1316593   2.512   2.890   2.199  0.0877  0.6032  0.1981
  150OSM   H13A16594   2.412   2.852   2.189  0.7287 -1.0785 -0.2229
  150OSM   H13B16595   2.561   2.816   2.137  0.8025 -1.0130  2.5716
  150OSM   H13C16596   2.514   2.989   2.156 -1.0784  2.0815  3.2555
  150OSM    C1216597   2.584   2.767   2.404 -0.1582  0.2033  0.2932
  150OSM   H12A16598   2.623   2.689   2.340 -1.0014  0.4964 -0.5992
  150OSM   H12B16599   2.484   2.730   2.422 -0.4773  1.9716  2.5532
  150OSM    C1116600   2.654   2.759   2.548  0.2777 -0.4135  0.6316
  150OSM   H11A16601   2.634   2.652   2.570  0.2134 -1.1173 -2.4659
  150OSM   H11B16602   2.602   2.833   2.613 -0.2861  0.5502 -0.8644
  150OSM      P16603   2.899   2.692   2.496 -0.1023  0.3130  0.5349
  150OSM    O1316604   2.850   2.622   2.373  0.6272 -0.1474  0.0347
  150OSM    O1416605   3.031   2.753   2.471 -0.4486 -0.2201 -0.0254
  150OSM    O1116606   2.908   2.582   2.609  0.4363 -0.1350  0.1413
  150OSM    O1216607   2.790   2.794   2.554 -0.2311  0.2595  0.6863
  150OSM    C1S16608   2.885   2.628   2.744  0.3149 -0.2077  1.0494
  150OSM    H1S16609   2.779   2.647   2.773  0.3873  0.8174  0.6911
  150OSM    H1T16610   2.936   2.726   2.753 -1.6746  0.9545  0.3844
  150OSM     NF16611   2.872   2.560   2.991  0.1830 -0.1312  0.4583
  150OSM    HNF16612   2.932   2.605   3.057 -0.0314 -0.4352  0.8639
  150OSM    C2S16613   2.924   2.524   2.855  0.3051  0.7222  0.1733
  150OSM    H2S16614   2.880   2.429   2.818  2.9025 -0.9994  1.2722
  150OSM    C3S16615   3.077   2.487   2.843 -0.3590  0.6033 -0.5683
  150OSM    H3S16616   3.136   2.576   2.875  0.2581  0.0132 -0.0300
  150OSM     O316617   3.130   2.472   2.712  0.4047 -0.1240  0.1504
  150OSM    HO316618   3.062   2.507   2.653  1.1507 -2.4901 -2.2847
  150OSM    C4S16619   3.114   2.370   2.929  0.3120 -0.3562  0.0337
  150OSM    H4S16620   3.161   2.389   3.027  1.0455 -0.8917 -0.2016
  150OSM    C5S16621   3.096   2.238   2.904 -0.3779 -0.6867  0.2865
  150OSM    H5S16622   3.056   2.212   2.804 -2.6312  2.3028  0.2396
  150OSM    C6S16623   3.160   2.136   2.990  0.8309 -0.1781 -0.0487
  150OSM    H6S16624   3.258   2.109   2.944  0.6219 -1.2730  0.1242
  150OSM    H6T16625   3.103   2.041   2.998 -2.5366  1.7463  0.4943
  150OSM    C7S16626   3.190   2.171   3.135 -0.2072 -1.1743  0.0892
  150OSM    H7S16627   3.253   2.262   3.151 -1.3877 -0.5469  1.3870
  150OSM    H7T16628   3.248   2.087   3.177  1.2136 -0.1073  0.3426
  150OSM    C8S16629   3.072   2.194   3.221 -0.6216  0.5547  0.2771
  150OSM    H8S16630   3.000   2.110   3.211  1.0050 -1.0325  1.1894
  150OSM    H8T16631   3.027   2.288   3.183 -0.0816  0.8224  0.2883
  150OSM    C9S16632   3.101   2.210   3.366  0.5338  0.4175  0.0321
  150OSM    H9S16633   3.007   2.237   3.418  0.1879  0.5837 -0.6740
  150OSM    H9T16634   3.160   2.304   3.375  0.7109  0.6794 -2.9336
  150OSM   C10S16635   3.159   2.087   3.436 -0.5571 -0.0083 -0.2261
  150OSM   H10S16636   3.243   2.054   3.371 -0.2730  0.9349 -0.3470
  150OSM   H10T16637   3.081   2.008   3.440 -1.7758  1.0862 -1.4740
  150OSM   C11S16638   3.213   2.111   3.578 -0.4437  0.9994 -0.5496
  150OSM   H11S16639   3.290   2.190   3.579  0.5836  0.0309 -0.6893
  150OSM   H11T16640   3.265   2.017   3.608 -2.2960  0.6520  1.9511
  150OSM   C12S16641   3.105   2.134   3.694 -0.1361 -0.1257 -0.1853
  150OSM   H12S16642   3.062   2.033   3.707  0.4626 -0.5517 -1.3782
  150OSM   H12T16643   3.039   2.211   3.650 -0.7998 -0.3904  0.3300
  150OSM   C13S16644   3.170   2.180   3.827  0.2581 -0.6873  0.5782
  150OSM   H13S16645   3.204   2.286   3.825  0.9673 -0.9141 -0.1914
  150OSM   H13T16646   3.262   2.122   3.847  0.1541 -0.8947  0.4626
  150OSM   C14S16647   3.066   2.184   3.939 -0.2031 -0.0587 -0.1900
  150OSM   H14S16648   3.023   2.081   3.941  0.8966 -0.5409 -0.7005
  150OSM   H14T16649   2.988   2.257   3.910 -2.4294 -0.8905  3.0709
  150OSM   C15S16650   3.115   2.229   4.077  0.4381 -0.1999 -0.5810
  150OSM   H15S16651   3.156   2.331   4.068 -3.3459  1.3434 -2.4555
  150OSM   H15T16652   3.198   2.167   4.119  1.7981  0.8585 -1.6311
  150OSM   C16S16653   3.002   2.231   4.177  0.4758  0.3610 -0.2961
  150OSM   H16S16654   2.951   2.132   4.176  1.1394  0.0131 -1.3302
  150OSM   H16T16655   2.920   2.303   4.160 -0.4213 -0.1417  1.6669
  150OSM   C17S16656   3.041   2.256   4.322  0.0326  0.3240 -0.3083
  150OSM   H17S16657   3.086   2.358   4.319 -2.0718  1.2925 -1.2229
  150OSM   H17T16658   3.124   2.189   4.352  0.2364  0.3145 -0.8826
  150OSM   C18S16659   2.921   2.251   4.417  0.1971  0.3206  0.1213
  150OSM   H18S16660   2.934   2.286   4.521 -1.0355  1.7225 -0.1617
  150OSM   H18T16661   2.892   2.144   4.421 -0.3154  0.4103 -0.6993
  150OSM   H18U16662   2.833   2.309   4.379  0.8869  0.0534 -2.0427
  150OSM    C1F16663   2.735   2.557   3.026 -0.3661  0.1584  0.5074
  150OSM     OF16664   2.654   2.507   2.945 -0.5064  0.0149  0.7331
  150OSM    C2F16665   2.689   2.598   3.165  0.3200  0.2477  0.1313
  150OSM    H2F16666   2.781   2.621   3.221  1.6826 -1.6483 -1.2019
  150OSM    H2G16667   2.628   2.524   3.221  0.5736  0.0234  0.1131
  150OSM    C3F16668   2.590   2.724   3.175 -1.2563  0.7459  0.0490
  150OSM    H3F16669   2.491   2.683   3.144  0.1578 -1.6941 -1.6430
  150OSM    H3G16670   2.620   2.798   3.097  0.2582  1.1233  0.9634
  150OSM    C4F16671   2.590   2.799   3.306 -0.1036 -0.2224 -0.5932
  150OSM    H4F16672   2.568   2.733   3.392  1.9779  0.0510  0.2171
  150OSM    H4G16673   2.503   2.869   3.304  0.1269  0.0919 -2.8774
  150OSM    C5F16674   2.712   2.894   3.343 -0.6190  0.1912 -0.4877
  150OSM    H5F16675   2.720   2.949   3.247 -0.8240 -1.8137 -1.6831
  150OSM    H5G16676   2.804   2.832   3.350 -0.8008 -0.5018 -3.2148
  150OSM    C6F16677   2.694   2.976   3.466 -0.7257 -0.2823 -1.0571
  150OSM    H6F16678   2.599   3.032   3.455 -0.4211  0.0336 -2.1701
  150OSM    H6G16679   2.771   3.053   3.486 -1.9348  0.8550 -0.5792
  150OSM    C7F16680   2.688   2.893   3.596 -0.4068  0.2562  0.1931
  150OSM    H7F16681   2.765   2.814   3.589 -1.0812 -0.2706 -2.0994
  150OSM    H7G16682   2.591   2.838   3.597 -1.0452  1.3540  0.5975
  150OSM    C8F16683   2.708   2.978   3.719 -0.0341 -0.2126  0.2001
  150OSM    H8F16684   2.631   3.058   3.729  0.3494  0.6243 -2.5454
  150OSM    H8G16685   2.802   3.034   3.701 -0.3690 -0.1773 -1.7038
  150OSM    C9F16686   2.714   2.899   3.840 -0.4833  0.5296 -0.4362
  150OSM    H9F16687   2.715   2.790   3.827  1.8227  0.7306 -2.9006
  150OSM   C10F16688   2.708   2.951   3.966 -0.2005  0.9158 -0.3509
  150OSM   H10F16689   2.712   2.883   4.053 -3.8652  0.3865 -0.4161
  150OSM   C11F16690   2.699   3.100   4.004  0.2332  0.1504 -0.4835
  150OSM   H11F16691   2.593   3.131   4.009 -0.0031 -0.5095 -1.2037
  150OSM   H11G16692   2.741   3.158   3.919  1.7971 -0.1116  0.0734
  150OSM   C12F16693   2.752   3.146   4.145 -0.0318  0.5374 -1.0862
  150OSM   H12F16694   2.760   3.257   4.147 -0.6524  0.5727  0.0455
  150OSM   H12G16695   2.857   3.109   4.150 -1.0187 -2.4799 -0.8268
  150OSM   C13F16696   2.684   3.090   4.269 -0.1209 -0.2362 -0.1926
  150OSM   H13F16697   2.663   2.982   4.253 -2.2932 -0.1796  1.6928
  150OSM   H13G16698   2.588   3.143   4.289  2.1229  3.3280  2.2551
  150OSM   C14F16699   2.768   3.122   4.395  0.1910 -0.2677 -0.3005
  150OSM   H14F16700   2.871   3.083   4.375  0.6073  0.7220 -0.1520
  150OSM   H14G16701   2.729   3.066   4.483  1.5081  0.5435  0.8508
  150OSM   C15F16702   2.770   3.270   4.417  0.1853 -0.0422  0.2379
  150OSM   H15F16703   2.668   3.303   4.448 -0.0123  0.7382 -1.1464
  150OSM   H15G16704   2.810   3.313   4.322  2.6408 -1.5703  0.4834
  150OSM   C16F16705   2.864   3.322   4.526 -0.4792 -0.0665  0.3154
  150OSM   H16F16706   2.857   3.433   4.531  1.1488  0.0308  1.1633
  150OSM   H16G16707   2.969   3.292   4.510 -0.8087 -1.9905  1.4810
  150OSM   C17F16708   2.820   3.254   4.658  0.3680 -0.5388 -0.7919
  150OSM   H17F16709   2.837   3.144   4.649  4.5753 -0.1487  0.3542
  150OSM   H17G16710   2.710   3.272   4.652  0.2612 -0.7710  0.2145
  150OSM   C18F16711   2.891   3.302   4.783  0.6945  0.3070 -0.0694
  150OSM   H18F16712   2.885   3.413   4.794  1.0758  0.1682  1.8180
  150OSM   H18G16713   2.996   3.268   4.784  0.3620 -0.7330  0.5246
  150OSM   H18H16714   2.835   3.261   4.870 -1.6314  2.1466 -0.5861
  151OSM      N16715   3.160   0.443   1.710 -0.3853 -0.2203 -0.3194
  151OSM    C1516716   3.187   0.300   1.663 -0.0564 -0.3637  0.4309
  151OSM   H15A16717   3.097   0.247   1.634 -0.4367  0.9388 -0.8947
  151OSM   H15B16718   3.248   0.243   1.731 -2.5822 -1.2297  2.1285
  151OSM   H15C16719   3.239   0.304   1.569 -2.5703  2.9972 -1.0151
  151OSM    C1416720   3.284   0.519   1.724 -0.6769 -0.2686  0.8117
  151OSM   H14A16721   3.356   0.470   1.788  1.1469 -1.6535 -2.1140
  151OSM   H14B16722   3.262   0.613   1.774 -0.4634  0.0769  0.2590
  151OSM   H14C16723   3.320   0.538   1.625  0.0222 -1.0927  0.8971
  151OSM    C1316724   3.069   0.522   1.614  0.8028  0.5049  0.0160
  151OSM   H13A16725   3.124   0.545   1.524  1.4262  1.6009  0.6560
  151OSM   H13B16726   3.038   0.616   1.658  1.7401  1.1471 -0.6549
  151OSM   H13C16727   2.981   0.464   1.593  0.9139  0.3421 -0.0009
  151OSM    C1216728   3.085   0.428   1.841  0.1398 -0.2072 -0.1832
  151OSM   H12A16729   2.987   0.388   1.817 -0.0851  0.9231 -1.2897
  151OSM   H12B16730   3.055   0.528   1.869 -1.8092 -0.0104 -2.6500
  151OSM    C1116731   3.142   0.347   1.958  0.2764  0.3947  0.5524
  151OSM   H11A16732   3.141   0.239   1.931 -0.5831 -0.1259  2.4664
  151OSM   H11B16733   3.064   0.355   2.036  2.2473  1.5338  2.5284
  151OSM      P16734   3.319   0.316   2.128  0.3578  0.4118 -0.3377
  151OSM    O1316735   3.308   0.169   2.101 -0.3748 -0.5111  0.9164
  151OSM    O1416736   3.453   0.374   2.158  0.0010 -0.5446 -0.1724
  151OSM    O1116737   3.209   0.354   2.238 -0.4007 -0.1529  0.1633
  151OSM    O1216738   3.259   0.393   2.009 -0.8186  0.3682  0.2115
  151OSM    C1S16739   3.212   0.482   2.304 -0.4167  1.0321  0.0331
  151OSM    H1S16740   3.146   0.565   2.273  1.2988  2.1606 -0.7900
  151OSM    H1T16741   3.314   0.526   2.310 -0.0224  0.3324 -1.0548
  151OSM     NF16742   3.160   0.581   2.519  0.8090  0.1072 -0.1958
  151OSM    HNF16743   3.233   0.626   2.569  0.1180  0.6336  0.3566
  151OSM    C2S16744   3.174   0.454   2.450 -0.7419 -0.4453 -0.3456
  151OSM    H2S16745   3.077   0.402   2.461  0.5490 -2.4878  3.9071
  151OSM    C3S16746   3.277   0.356   2.514 -0.0907  0.0867  0.1081
  151OSM    H3S16747   3.381   0.393   2.521  0.4345 -1.3841  0.5944
  151OSM     O316748   3.277   0.222   2.455 -0.4617 -0.7827 -0.5702
  151OSM    HO316749   3.217   0.236   2.381 -1.6265 -0.9727  0.2999
  151OSM    C4S16750   3.237   0.340   2.659 -0.1172  0.2398 -0.4474
  151OSM    H4S16751   3.140   0.291   2.675  0.8274 -0.9608  2.4190
  151OSM    C5S16752   3.311   0.353   2.774 -0.0381  0.1167 -1.0711
  151OSM    H5S16753   3.414   0.385   2.757 -0.3316  1.6253 -0.2536
  151OSM    C6S16754   3.262   0.331   2.918 -0.1463  0.2067  0.4213
  151OSM    H6S16755   3.185   0.409   2.940  0.8866  2.1746 -2.2949
  151OSM    H6T16756   3.350   0.334   2.985  0.7152  0.3589 -0.6913
  151OSM    C7S16757   3.191   0.191   2.930  0.0018 -0.6948 -0.4045
  151OSM    H7S16758   3.261   0.108   2.907  0.5456 -0.2981 -0.1780
  151OSM    H7T16759   3.102   0.185   2.863  0.0463  0.9761 -0.6527
  151OSM    C8S16760   3.141   0.161   3.073 -0.2943  0.3769  0.5272
  151OSM    H8S16761   3.096   0.060   3.083 -1.0343  0.6812  0.3480
  151OSM    H8T16762   3.074   0.238   3.116  1.0992  2.1750 -0.3529
  151OSM    C9S16763   3.265   0.144   3.164 -0.0318  0.2631  0.0305
  151OSM    H9S16764   3.321   0.240   3.170  2.2747 -0.9282 -1.1650
  151OSM    H9T16765   3.342   0.080   3.116 -2.1220  0.4323 -3.9616
  151OSM   C10S16766   3.229   0.102   3.307 -0.6144  0.2453  0.5751
  151OSM   H10S16767   3.199  -0.005   3.303 -1.3104  0.4582 -1.7616
  151OSM   H10T16768   3.141   0.159   3.343  0.1831  0.9788  1.4239
  151OSM   C11S16769   3.338   0.122   3.410 -0.0549 -0.7081  0.2987
  151OSM   H11S16770   3.380   0.224   3.401 -1.5088 -0.1020  0.0776
  151OSM   H11T16771   3.412   0.044   3.382 -2.0574 -2.1405 -1.4047
  151OSM   C12S16772   3.279   0.100   3.548  0.0324  0.1757  0.2855
  151OSM   H12S16773   3.202   0.020   3.560 -0.0160  0.1762  0.0009
  151OSM   H12T16774   3.231   0.193   3.584 -1.0924 -0.6014  0.8819
  151OSM   C13S16775   3.388   0.072   3.653  0.2684  0.4148  0.0960
  151OSM   H13S16776   3.473   0.144   3.641  1.4475 -0.7718  1.0104
  151OSM   H13T16777   3.425  -0.031   3.636 -0.0531  0.0404  1.5571
  151OSM   C14S16778   3.330   0.074   3.797 -0.2207 -0.3591  0.0549
  151OSM   H14S16779   3.248  -0.000   3.803 -0.1333 -0.3418  2.0897
  151OSM   H14T16780   3.303   0.181   3.813  2.6518  0.7775 -1.9132
  151OSM   C15S16781   3.438   0.041   3.900 -0.5008 -0.4325 -0.3255
  151OSM   H15S16782   3.518   0.116   3.885 -1.4354 -0.0376 -4.3036
  151OSM   H15T16783   3.482  -0.057   3.871 -0.6789 -1.1473  1.6382
  151OSM   C16S16784   3.377   0.042   4.041  0.3368  0.4693 -0.1521
  151OSM   H16S16785   3.451   0.016   4.120  0.5677  1.8750  0.1293
  151OSM   H16T16786   3.287  -0.024   4.038  1.2888 -0.8213 -2.5391
  151OSM   C17S16787   3.318   0.178   4.087  0.5819 -0.4393  1.1075
  151OSM   H17S16788   3.223   0.198   4.032  1.9061  0.8520 -0.8450
  151OSM   H17T16789   3.385   0.263   4.065 -0.6353 -0.2048 -2.5039
  151OSM   C18S16790   3.274   0.165   4.230 -0.3406  0.3783  0.0189
  151OSM   H18S16791   3.221   0.256   4.267 -0.4931 -0.3556  1.6833
  151OSM   H18T16792   3.368   0.155   4.287  0.0769  2.3419 -0.2318
  151OSM   H18U16793   3.209   0.075   4.237 -1.1129  0.9424  0.2179
  151OSM    C1F16794   3.051   0.657   2.504  0.4046  0.1960  0.1103
  151OSM     OF16795   2.962   0.620   2.429 -0.5177  0.0525  0.3414
  151OSM    C2F16796   3.028   0.778   2.592 -0.3179  0.3823 -0.4297
  151OSM    H2F16797   2.991   0.859   2.526  0.7190  1.5868  0.4376
  151OSM    H2G16798   3.125   0.821   2.623 -0.7368  0.5743  0.6397
  151OSM    C3F16799   2.924   0.759   2.708  0.7493  0.0038 -0.3335
  151OSM    H3F16800   2.825   0.727   2.669  0.1299  0.5983  0.6914
  151OSM    H3G16801   2.911   0.855   2.763 -0.0711 -1.7146  2.7101
  151OSM    C4F16802   2.970   0.650   2.810  0.0361  0.0506  0.1671
  151OSM    H4F16803   3.079   0.664   2.826  0.9181 -1.1572 -3.6281
  151OSM    H4G16804   2.955   0.550   2.764 -3.4565  0.6371 -0.2423
  151OSM    C5F16805   2.889   0.649   2.939  0.5069  0.5695  0.1197
  151OSM    H5F16806   2.781   0.632   2.915  0.2704 -0.0064  1.4881
  151OSM    H5G16807   2.901   0.751   2.981  0.4795  0.4865  0.3308
  151OSM    C6F16808   2.940   0.551   3.038 -0.2666  0.0504 -0.6498
  151OSM    H6F16809   3.044   0.584   3.056  0.0628 -0.1959 -1.9983
  151OSM    H6G16810   2.931   0.447   2.999 -1.8541 -0.3084  0.5782
  151OSM    C7F16811   2.877   0.558   3.180 -0.4174  0.2463 -0.2216
  151OSM    H7F16812   2.767   0.543   3.174 -0.3399  0.1172 -1.5569
  151OSM    H7G16813   2.913   0.660   3.205 -0.3110  0.3638 -0.8263
  151OSM    C8F16814   2.946   0.463   3.275  0.6640  0.0965 -0.4952
  151OSM    H8F16815   2.935   0.510   3.375 -0.9417  0.8350 -0.9760
  151OSM    H8G16816   3.054   0.465   3.252  0.2802  0.1589 -2.5405
  151OSM    C9F16817   2.876   0.329   3.272  0.4838  0.0128  0.0446
  151OSM    H9F16818   2.877   0.270   3.180 -0.9734  0.3310 -0.2017
  151OSM   C10F16819   2.826   0.262   3.376 -0.0845 -0.4315 -0.2783
  151OSM   H10F16820   2.771   0.171   3.349 -0.4725  0.2600 -1.9866
  151OSM   C11F16821   2.829   0.316   3.521 -0.1285 -0.3647  0.6685
  151OSM   H11F16822   2.735   0.295   3.577  0.1778 -1.5721  0.7657
  151OSM   H11G16823   2.845   0.425   3.537 -2.2787 -0.0821  1.1806
  151OSM   C12F16824   2.952   0.262   3.595 -0.3522 -0.3853 -0.4053
  151OSM   H12F16825   3.030   0.314   3.535 -1.6146  2.9458  0.5691
  151OSM   H12G16826   2.947   0.151   3.592 -2.6163 -0.3255 -0.3714
  151OSM   C13F16827   2.970   0.309   3.745  0.1812  0.4344  0.0425
  151OSM   H13F16828   2.962   0.420   3.749 -0.8327  0.4017 -0.7482
  151OSM   H13G16829   3.066   0.266   3.780 -1.6260 -4.1525  0.0516
  151OSM   C14F16830   2.868   0.265   3.851 -0.2069 -0.1530  0.1314
  151OSM   H14F16831   2.866   0.154   3.864  1.0206 -0.1664  0.3968
  151OSM   H14G16832   2.765   0.299   3.827  0.4614  0.8022 -1.5057
  151OSM   C15F16833   2.908   0.319   3.992  0.0834 -0.7416 -0.1569
  151OSM   H15F16834   2.886   0.428   3.998  1.0011 -0.3678 -2.5471
  151OSM   H15G16835   3.017   0.301   4.004 -0.0486 -1.0118  0.6711
  151OSM   C16F16836   2.836   0.258   4.109  0.1038  0.2398 -0.5278
  151OSM   H16F16837   2.846   0.150   4.086  1.7456  0.3115 -0.2832
  151OSM   H16G16838   2.733   0.299   4.109  0.0255  0.1953 -2.8561
  151OSM   C17F16839   2.911   0.291   4.240  0.7311 -0.1433  0.5022
  151OSM   H17F16840   2.965   0.388   4.231  1.1720 -0.2889  1.4837
  151OSM   H17G16841   2.990   0.220   4.272  0.2760 -0.1353  1.6911
  151OSM   C18F16842   2.816   0.300   4.353 -0.6389  0.2147 -0.0532
  151OSM   H18F16843   2.871   0.352   4.434 -2.3175 -0.2130  1.4314
  151OSM   H18G16844   2.782   0.196   4.374 -1.0929  0.4792  0.5418
  151OSM   H18H16845   2.729   0.361   4.321 -1.8219 -0.3184  1.9372
  152OSM      N16846   2.746   4.465   2.293  0.1246 -0.5439 -0.2213
  152OSM    C1516847   2.606   4.452   2.338  0.6735  0.2532 -0.4050
  152OSM   H15A16848   2.608   4.485   2.441  2.7662  0.9273 -0.6206
  152OSM   H15B16849   2.559   4.355   2.338  0.3864  0.3583  1.2503
  152OSM   H15C16850   2.542   4.522   2.286 -0.9868 -0.0664  1.1184
  152OSM    C1416851   2.790   4.343   2.214 -0.1480  0.2991  0.2203
  152OSM   H14A16852   2.798   4.261   2.284  0.8664 -0.6551 -0.9455
  152OSM   H14B16853   2.879   4.364   2.156 -1.3420 -0.3976 -1.9856
  152OSM   H14C16854   2.708   4.311   2.152 -0.4092  1.7622 -0.2254
  152OSM    C1316855   2.760   4.588   2.209  0.2105  0.1413 -0.0655
  152OSM   H13A16856   2.859   4.632   2.214  1.0390 -1.7548  1.9261
  152OSM   H13B16857   2.683   4.661   2.225 -0.2130 -0.1276 -0.8332
  152OSM   H13C16858   2.739   4.560   2.107 -2.7463 -1.5701  0.8929
  152OSM    C1216859   2.841   4.475   2.411 -0.1367 -0.8262 -0.2824
  152OSM   H12A16860   2.825   4.566   2.468 -1.1741  0.1067 -1.9835
  152OSM   H12B16861   2.941   4.489   2.374 -0.9268  0.7767 -1.9838
  152OSM    C1116862   2.841   4.357   2.514  0.0393  0.6816 -0.1409
  152OSM   H11A16863   2.916   4.375   2.593 -0.1206  0.3636  0.0857
  152OSM   H11B16864   2.869   4.266   2.458 -2.5915 -1.0985  1.2027
  152OSM      P16865   2.677   4.426   2.695  0.3294  0.5474  0.3129
  152OSM    O1316866   2.776   4.536   2.707  0.2803 -0.6081 -0.1618
  152OSM    O1416867   2.535   4.461   2.677  0.3063 -0.5817 -0.0658
  152OSM    O1116868   2.698   4.346   2.826 -0.4673  0.6217  0.2814
  152OSM    O1216869   2.713   4.335   2.577 -0.2556 -0.3865 -0.5225
  152OSM    C1S16870   2.609   4.340   2.939  0.3788 -0.4414 -0.2083
  152OSM    H1S16871   2.521   4.277   2.916  0.0723  0.6437 -2.3649
  152OSM    H1T16872   2.562   4.440   2.949 -0.6880 -1.0804  1.6761
  152OSM     NF16873   2.574   4.312   3.174 -0.3762 -0.3284  0.0304
  152OSM    HNF16874   2.580   4.381   3.246 -1.4638  0.6565 -0.7703
  152OSM    C2S16875   2.674   4.303   3.071 -0.7509 -0.1253 -0.0488
  152OSM    H2S16876   2.699   4.195   3.061 -2.1555 -0.5330  0.5191
  152OSM    C3S16877   2.816   4.383   3.092 -0.5631 -0.3923  0.9080
  152OSM    H3S16878   2.798   4.487   3.057 -1.4754 -0.9316 -0.3391
  152OSM     O316879   2.919   4.341   2.993  0.3607 -0.2377 -0.3263
  152OSM    HO316880   2.880   4.291   2.921  1.1476 -1.7665  0.2652
  152OSM    C4S16881   2.863   4.373   3.241 -0.3314 -0.7170  0.0628
  152OSM    H4S16882   2.819   4.452   3.305 -0.5903  0.2047 -1.2134
  152OSM    C5S16883   2.970   4.304   3.285  0.1040 -0.1223 -0.0966
  152OSM    H5S16884   3.039   4.243   3.225  1.5334 -0.4864  1.8084
  152OSM    C6S16885   3.016   4.311   3.431  0.1946  0.6174  0.2358
  152OSM    H6S16886   3.118   4.355   3.434  1.0250 -1.0604 -1.4612
  152OSM    H6T16887   3.024   4.212   3.480 -0.4073  0.3495 -0.1914
  152OSM    C7S16888   2.926   4.394   3.523 -0.0524  0.7649  0.1375
  152OSM    H7S16889   2.832   4.333   3.529  0.6988 -0.3745  0.7049
  152OSM    H7T16890   2.905   4.500   3.499 -1.1842  0.5635  0.1635
  152OSM    C8S16891   2.995   4.396   3.657  0.0385 -0.0479 -0.0826
  152OSM    H8S16892   3.074   4.474   3.652 -1.0130  1.0884  0.1985
  152OSM    H8T16893   3.033   4.296   3.685 -0.7542  0.0666  1.5167
  152OSM    C9S16894   2.901   4.415   3.778 -0.3380  0.2646 -1.1136
  152OSM    H9S16895   2.837   4.325   3.787 -1.4289  1.2033  2.4509
  152OSM    H9T16896   2.834   4.502   3.761  0.1661  0.7125 -0.8431
  152OSM   C10S16897   2.967   4.411   3.915  0.5042 -1.0479  0.1096
  152OSM   H10S16898   3.046   4.489   3.911  1.2845 -1.7123  1.6502
  152OSM   H10T16899   3.021   4.314   3.923  1.0426 -0.6330  1.6600
  152OSM   C11S16900   2.873   4.426   4.036  0.6336 -0.1953 -1.0362
  152OSM   H11S16901   2.802   4.341   4.023 -0.3126  0.4234 -0.1605
  152OSM   H11T16902   2.810   4.517   4.033  0.9963  0.0390 -1.4787
  152OSM   C12S16903   2.944   4.430   4.178  0.5982  0.6867  0.7628
  152OSM   H12S16904   3.020   4.511   4.179 -0.9088  2.1610  0.5745
  152OSM   H12T16905   2.992   4.330   4.185  1.9035  1.0248 -1.9669
  152OSM   C13S16906   2.852   4.441   4.300 -0.3314 -0.5393  0.5818
  152OSM   H13S16907   2.811   4.341   4.328  0.2886 -1.1530 -0.6179
  152OSM   H13T16908   2.762   4.502   4.275  0.8346  0.9390 -0.1077
  152OSM   C14S16909   2.930   4.506   4.423  0.1730  0.1561  0.1187
  152OSM   H14S16910   2.958   4.612   4.409 -0.4358  0.4875  1.3266
  152OSM   H14T16911   3.020   4.443   4.441 -0.9788 -2.4708 -2.5078
  152OSM   C15S16912   2.855   4.502   4.559 -0.1971  0.0721  0.4391
  152OSM   H15S16913   2.830   4.396   4.582  1.7604 -0.3593  0.7657
  152OSM   H15T16914   2.755   4.549   4.547 -0.6204 -0.6303  1.1065
  152OSM   C16S16915   2.942   4.569   4.664  0.5508 -0.3182  0.0214
  152OSM   H16S16916   2.949   4.674   4.631 -1.4387  0.0110  0.5012
  152OSM   H16T16917   3.035   4.510   4.679  1.6766  1.6246  0.9673
  152OSM   C17S16918   2.860   4.572   4.792  0.2978 -0.2663 -0.3295
  152OSM   H17S16919   2.752   4.587   4.771  0.7046  2.1415 -1.0070
  152OSM   H17T16920   2.892   4.650   4.865 -0.5881 -0.2986  0.1070
  152OSM   C18S16921   2.866   4.440   4.871 -0.0543 -0.0202  0.0991
  152OSM   H18S16922   2.972   4.412   4.892 -0.1367  0.4296  1.1826
  152OSM   H18T16923   2.815   4.372   4.800 -2.3596  2.0363 -0.3551
  152OSM   H18U16924   2.804   4.438   4.962 -1.3997  3.4184 -0.5633
  152OSM    C1F16925   2.470   4.229   3.182 -0.0471 -0.5057  1.4974
  152OSM     OF16926   2.446   4.146   3.092  0.2014 -0.3412  0.3296
  152OSM    C2F16927   2.385   4.253   3.298  0.6823 -0.1768 -0.4754
  152OSM    H2F16928   2.283   4.208   3.295  0.2898  0.6251  0.4487
  152OSM    H2G16929   2.373   4.357   3.334 -2.8204 -1.5318  3.0333
  152OSM    C3F16930   2.445   4.176   3.417 -0.1017 -0.4211  0.3022
  152OSM    H3F16931   2.541   4.231   3.427  0.1090 -0.9256  1.1822
  152OSM    H3G16932   2.459   4.068   3.396  0.1698 -0.2881 -0.2027
  152OSM    C4F16933   2.371   4.177   3.548 -0.0220  0.2356 -0.0528
  152OSM    H4F16934   2.289   4.104   3.559  0.6433 -0.2259  2.4185
  152OSM    H4G16935   2.341   4.283   3.567  1.0978  0.4541  0.5846
  152OSM    C5F16936   2.457   4.147   3.675  0.3803 -0.2556 -0.5593
  152OSM    H5F16937   2.531   4.230   3.686 -0.3201  0.3077 -0.0195
  152OSM    H5G16938   2.515   4.052   3.669  0.1799 -0.3871 -0.4407
  152OSM    C6F16939   2.376   4.157   3.806 -0.6521 -0.3033 -0.4017
  152OSM    H6F16940   2.303   4.076   3.825 -0.6530 -0.1904  0.0911
  152OSM    H6G16941   2.311   4.247   3.813 -0.1174  0.2641 -2.0291
  152OSM    C7F16942   2.479   4.160   3.926 -0.5810  0.1248  0.0937
  152OSM    H7F16943   2.550   4.243   3.903  0.3300 -0.9211 -1.0241
  152OSM    H7G16944   2.521   4.058   3.913  1.0922  0.6031  1.2976
  152OSM    C8F16945   2.425   4.183   4.068 -0.0426  0.6682 -0.3891
  152OSM    H8F16946   2.356   4.100   4.093  1.1020  0.5296  2.9378
  152OSM    H8G16947   2.371   4.280   4.064 -1.6647 -0.2711 -2.7292
  152OSM    C9F16948   2.528   4.183   4.170 -0.2465 -0.8478 -0.1322
  152OSM    H9F16949   2.623   4.142   4.134  0.1450 -0.8026  0.8128
  152OSM   C10F16950   2.523   4.223   4.296  0.4482  0.3224 -1.1421
  152OSM   H10F16951   2.615   4.216   4.356  0.7215  0.0510 -1.5836
  152OSM   C11F16952   2.395   4.283   4.360 -0.5667 -0.1479  1.0012
  152OSM   H11F16953   2.317   4.205   4.351  1.6289 -2.2648 -1.4031
  152OSM   H11G16954   2.361   4.367   4.297 -2.2056 -1.6722 -0.2463
  152OSM   C12F16955   2.409   4.337   4.508 -0.3715 -0.0985  0.1860
  152OSM   H12F16956   2.493   4.409   4.509 -0.2456 -0.1940 -1.5426
  152OSM   H12G16957   2.448   4.251   4.568  3.5799  0.5130 -1.2133
  152OSM   C13F16958   2.274   4.400   4.557  0.0187 -0.8395  0.2883
  152OSM   H13F16959   2.195   4.328   4.527 -1.6713  1.7754 -1.9917
  152OSM   H13G16960   2.241   4.477   4.484 -0.2175 -1.4816 -0.2923
  152OSM   C14F16961   2.254   4.454   4.692 -0.0835 -0.4127  0.0146
  152OSM   H14F16962   2.317   4.544   4.708 -1.9204  1.4734 -2.4842
  152OSM   H14G16963   2.291   4.374   4.760  0.8922  0.3931  0.4554
  152OSM   C15F16964   2.104   4.468   4.715  0.3570 -0.3311 -0.8532
  152OSM   H15F16965   2.047   4.379   4.682 -1.8708  1.0269 -0.9248
  152OSM   H15G16966   2.061   4.554   4.660 -0.6632  0.3783  0.9487
  152OSM   C16F16967   2.084   4.502   4.867 -0.0515  0.0626  0.3228
  152OSM   H16F16968   2.151   4.586   4.893  0.6900 -0.4871  0.2293
  152OSM   H16G16969   2.120   4.414   4.925  1.5963 -0.3382 -1.2034
  152OSM   C17F16970   1.939   4.533   4.901  0.3307 -0.7836  0.1913
  152OSM   H17F16971   1.915   4.616   4.831 -1.4975 -0.3910  1.2331
  152OSM   H17G16972   1.925   4.559   5.008  0.1375 -1.6888  0.3953
  152OSM   C18F16973   1.840   4.425   4.865  0.3548 -0.0877  0.4778
  152OSM   H18F16974   1.734   4.442   4.890 -0.4006 -3.5442  0.1040
  152OSM   H18G16975   1.863   4.329   4.916  1.4959  1.3819  2.9138
  152OSM   H18H16976   1.843   4.412   4.754 -0.7058  1.7033  0.1907
  153OSM      N16977   3.057   3.663   2.377  0.0709 -0.1784 -0.9877
  153OSM    C1516978   3.183   3.602   2.334  0.6655  0.8327  0.6028
  153OSM   H15A16979   3.190   3.504   2.380 -1.4121 -0.2287 -1.1620
  153OSM   H15B16980   3.274   3.656   2.356  0.9373  1.0244 -0.8640
  153OSM   H15C16981   3.179   3.586   2.227 -1.2800 -1.8094  0.9763
  153OSM    C1416982   3.059   3.691   2.528 -0.2552  1.2378  0.3379
  153OSM   H14A16983   3.147   3.743   2.562 -0.4940  2.2791 -0.5815
  153OSM   H14B16984   3.064   3.600   2.587  0.7695  0.5044 -0.8236
  153OSM   H14C16985   2.973   3.752   2.552 -0.6901  0.3843  1.0313
  153OSM    C1316986   3.037   3.793   2.312  0.6916  0.3166  0.0901
  153OSM   H13A16987   3.127   3.852   2.320  0.9781 -0.0752 -0.1760
  153OSM   H13B16988   2.946   3.836   2.350 -0.2461  0.0035 -1.7349
  153OSM   H13C16989   3.019   3.793   2.206  2.2783  1.1689 -0.2247
  153OSM    C1216990   2.940   3.570   2.351  0.0762 -0.0607 -0.4747
  153OSM   H12A16991   2.956   3.541   2.248  3.9675  0.3748 -0.1543
  153OSM   H12B16992   2.845   3.621   2.359 -0.1928 -0.4868 -0.8824
  153OSM    C1116993   2.931   3.441   2.437 -0.0104 -0.2545  0.5792
  153OSM   H11A16994   2.841   3.385   2.402  1.5035 -0.8788 -2.6824
  153OSM   H11B16995   2.897   3.480   2.535 -2.6189  0.4313 -0.5018
  153OSM      P16996   3.094   3.285   2.561  0.2286 -0.5446 -0.0465
  153OSM    O1316997   3.044   3.149   2.584  0.0180 -0.2750 -0.3672
  153OSM    O1416998   3.240   3.299   2.557  0.1301 -0.3235  0.4100
  153OSM    O1116999   3.039   3.373   2.684 -0.3183  0.1953  0.5008
  153OSM    O1217000   3.033   3.348   2.428  0.0626 -0.0917 -0.8789
  153OSM    C1S17001   3.102   3.369   2.815 -0.4300  0.0292  0.2687
  153OSM    H1S17002   3.211   3.355   2.799 -0.7108  0.0239 -1.8997
  153OSM    H1T17003   3.081   3.277   2.874  3.1293  0.4173  2.4740
  153OSM     NF17004   3.176   3.503   3.011 -0.2960 -0.5867  0.4294
  153OSM    HNF17005   3.132   3.475   3.096 -0.5561  1.0594  0.8768
  153OSM    C2S17006   3.084   3.497   2.900 -0.0051 -0.6985 -0.7596
  153OSM    H2S17007   3.111   3.581   2.833  1.9688 -0.5507  0.1334
  153OSM    C3S17008   2.938   3.521   2.937  0.2203  0.0344  0.4436
  153OSM    H3S17009   2.908   3.438   3.006  2.0841 -2.3420 -1.4260
  153OSM     O317010   2.844   3.486   2.829  0.5198 -0.7917  0.3393
  153OSM    HO317011   2.905   3.469   2.758 -1.4082  0.7459 -1.8090
  153OSM    C4S17012   2.911   3.651   3.017 -0.5404  0.6587  0.3672
  153OSM    H4S17013   2.953   3.652   3.119 -1.3764 -0.5420  0.7384
  153OSM    C5S17014   2.846   3.761   2.973 -0.3607 -0.0725 -0.5442
  153OSM    H5S17015   2.804   3.769   2.871  2.7490 -2.3236 -2.1869
  153OSM    C6S17016   2.817   3.878   3.064  1.2769 -0.1830  0.2150
  153OSM    H6S17017   2.707   3.889   3.053  1.3392 -1.2465 -1.9271
  153OSM    H6T17018   2.857   3.977   3.036 -0.2205 -0.0282 -1.5578
  153OSM    C7S17019   2.854   3.869   3.217  0.3916  0.4729  0.8129
  153OSM    H7S17020   2.965   3.874   3.222  0.6016  3.2882 -2.5780
  153OSM    H7T17021   2.808   3.774   3.250  1.4652  0.5234  2.6037
  153OSM    C8S17022   2.798   3.984   3.305 -0.9015  0.7848  0.3580
  153OSM    H8S17023   2.687   3.985   3.292 -0.8323 -0.6356 -0.6062
  153OSM    H8T17024   2.836   4.077   3.258 -1.7775 -0.6581 -3.6307
  153OSM    C9S17025   2.837   3.972   3.453  0.5705  0.5290 -0.1638
  153OSM    H9S17026   2.829   4.073   3.498 -1.0596 -0.3630  1.7538
  153OSM    H9T17027   2.944   3.945   3.459  0.0293 -2.1751 -1.3028
  153OSM   C10S17028   2.762   3.860   3.530  0.0415 -0.1769 -0.2255
  153OSM   H10S17029   2.758   3.763   3.475 -2.9036 -0.0239 -0.4509
  153OSM   H10T17030   2.656   3.890   3.545  0.1315 -0.5486  1.3066
  153OSM   C11S17031   2.826   3.842   3.665 -0.1642 -0.2847  0.0697
  153OSM   H11S17032   2.931   3.808   3.657  0.0597  0.5401 -0.6635
  153OSM   H11T17033   2.777   3.756   3.716 -0.2611  0.8013  1.8741
  153OSM   C12S17034   2.832   3.964   3.751 -0.0695  0.2467  0.7230
  153OSM   H12S17035   2.725   3.991   3.757 -0.0378  0.5149  0.0494
  153OSM   H12T17036   2.893   4.048   3.712  1.4748 -1.6527 -1.1999
  153OSM   C13S17037   2.880   3.928   3.892 -0.4052 -0.7979 -0.0086
  153OSM   H13S17038   2.977   3.877   3.874  0.5109  0.6178  0.7118
  153OSM   H13T17039   2.815   3.850   3.937 -0.2051 -0.5865  0.6516
  153OSM   C14S17040   2.887   4.044   3.990  0.0258  0.9234  0.2075
  153OSM   H14S17041   2.786   4.089   3.998 -0.4809 -0.0525 -0.5618
  153OSM   H14T17042   2.949   4.132   3.958 -1.7121  2.1984  0.2038
  153OSM   C15S17043   2.944   3.999   4.136  0.0255 -0.4101  0.2610
  153OSM   H15S17044   2.959   4.085   4.204  1.2977 -0.4548  0.0617
  153OSM   H15T17045   3.041   3.952   4.109 -0.5467 -1.3932 -0.1414
  153OSM   C16S17046   2.854   3.902   4.217 -0.4665  0.5474  0.0430
  153OSM   H16S17047   2.875   3.800   4.178  4.9022  0.7648  1.6823
  153OSM   H16T17048   2.747   3.923   4.195 -0.9877 -1.5854  0.2860
  153OSM   C17S17049   2.883   3.910   4.365  0.0351 -0.0573 -0.0638
  153OSM   H17S17050   2.986   3.937   4.399  0.6544  0.6414 -2.3276
  153OSM   H17T17051   2.856   3.815   4.416 -0.5171  0.0389 -0.1790
  153OSM   C18S17052   2.797   4.009   4.441  0.7596  0.3420 -0.6015
  153OSM   H18S17053   2.694   4.008   4.399  0.2770  2.3860  0.4088
  153OSM   H18T17054   2.841   4.111   4.435  1.0737  0.2373 -0.0894
  153OSM   H18U17055   2.797   3.984   4.549  0.3259 -0.4137 -0.7640
  153OSM    C1F17056   3.311   3.510   3.000 -0.0366  0.7675 -0.6963
  153OSM     OF17057   3.372   3.511   2.895 -0.2826  0.2556 -0.0752
  153OSM    C2F17058   3.381   3.497   3.132 -0.4070  1.1048  0.3595
  153OSM    H2F17059   3.359   3.397   3.174 -0.8223  1.1745  0.3167
  153OSM    H2G17060   3.327   3.575   3.191 -0.4017  1.0619  0.4205
  153OSM    C3F17061   3.530   3.536   3.121  0.3556 -0.8973 -0.1954
  153OSM    H3F17062   3.533   3.645   3.099  1.0144  0.1809  4.3002
  153OSM    H3G17063   3.572   3.485   3.032  0.6750  0.3737 -0.8087
  153OSM    C4F17064   3.617   3.499   3.244  0.0245 -0.1259  0.5856
  153OSM    H4F17065   3.721   3.519   3.209 -0.3046 -0.7935 -0.8572
  153OSM    H4G17066   3.603   3.389   3.258 -0.0726 -0.4154 -1.4966
  153OSM    C5F17067   3.575   3.577   3.376  0.2945  0.2220 -0.6659
  153OSM    H5F17068   3.476   3.537   3.404  0.3539  0.2117 -0.4726
  153OSM    H5G17069   3.566   3.686   3.353  1.8917  0.3019 -1.0728
  153OSM    C6F17070   3.681   3.554   3.488 -0.0120 -0.0662 -0.4409
  153OSM    H6F17071   3.778   3.596   3.454 -0.6970  1.8440 -0.1512
  153OSM    H6G17072   3.693   3.444   3.497 -1.3424 -0.5149 -3.2192
  153OSM    C7F17073   3.636   3.606   3.628 -0.4696  0.3028  0.0148
  153OSM    H7F17074   3.527   3.583   3.631 -0.4279  0.1706  0.5153
  153OSM    H7G17075   3.636   3.716   3.645 -1.0494 -0.0256  2.5448
  153OSM    C8F17076   3.718   3.546   3.741 -0.6700 -0.1443  0.1441
  153OSM    H8F17077   3.726   3.437   3.724  0.3494 -0.5120  2.5261
  153OSM    H8G17078   3.664   3.570   3.835 -0.9895 -0.2855 -0.0042
  153OSM    C9F17079   3.859   3.600   3.729 -0.0195  1.0649 -0.5115
  153OSM    H9F17080   3.898   3.622   3.628 -0.6058  1.4161 -0.6674
  153OSM   C10F17081   3.954   3.629   3.824  0.1760 -0.1244  0.3160
  153OSM   H10F17082   4.048   3.674   3.788 -0.4709  0.4532 -0.6852
  153OSM   C11F17083   3.937   3.600   3.971 -0.4602  0.2568  0.8945
  153OSM   H11F17084   3.964   3.493   3.984 -0.2854  0.2113  0.1976
  153OSM   H11G17085   3.833   3.630   3.994 -1.5011 -1.1149 -1.6289
  153OSM   C12F17086   4.046   3.686   4.056  0.2557 -0.3164 -0.2084
  153OSM   H12F17087   4.023   3.790   4.024  0.6179 -0.3709 -0.6608
  153OSM   H12G17088   4.143   3.657   4.009  0.9168  1.3035  0.0820
  153OSM   C13F17089   4.025   3.689   4.203 -0.6410 -0.0330 -0.0854
  153OSM   H13F17090   4.027   3.584   4.240  0.5875  0.2955  0.8875
  153OSM   H13G17091   3.930   3.734   4.237  0.0819  1.1184  0.4667
  153OSM   C14F17092   4.140   3.759   4.276  0.3100  0.3638  0.1268
  153OSM   H14F17093   4.154   3.864   4.243  2.4381 -0.1073 -0.5909
  153OSM   H14G17094   4.232   3.701   4.255 -0.5112 -1.6412  1.7472
  153OSM   C15F17095   4.116   3.758   4.426 -0.2033 -0.0086 -0.1038
  153OSM   H15F17096   4.118   3.658   4.473 -0.2060  0.5490  1.1365
  153OSM   H15G17097   4.014   3.801   4.439 -0.9063 -1.3816 -0.9354
  153OSM   C16F17098   4.219   3.845   4.495 -0.3030 -0.5202 -0.4363
  153OSM   H16F17099   4.187   3.952   4.495 -0.9280 -0.5938  3.0628
  153OSM   H16G17100   4.315   3.824   4.444 -0.7301  1.4791 -2.2277
  153OSM   C17F17101   4.225   3.801   4.645  0.3589  0.1388  0.5766
  153OSM   H17F17102   4.259   3.698   4.621  2.1586  1.2870 -2.3853
  153OSM   H17G17103   4.121   3.798   4.685 -0.3186 -1.1221 -1.1541
  153OSM   C18F17104   4.339   3.877   4.713 -0.9512 -0.6049  0.2327
  153OSM   H18F17105   4.432   3.892   4.655 -0.1238 -0.6913  1.5016
  153OSM   H18G17106   4.371   3.819   4.802 -0.9295  0.3701  0.8759
  153OSM   H18H17107   4.294   3.976   4.736 -0.9606 -0.6408  0.3719
  154OSM      N17108   4.125   1.309   2.210  0.1057  0.3036  0.4017
  154OSM    C1517109   4.097   1.394   2.094 -0.1062  0.2441 -0.2498
  154OSM   H15A17110   4.039   1.482   2.121  1.0096  0.2722  2.2885
  154OSM   H15B17111   4.047   1.343   2.013 -1.4111  1.8654 -0.5157
  154OSM   H15C17112   4.195   1.429   2.066  0.5273 -0.5482  0.9077
  154OSM    C1417113   4.224   1.207   2.168 -0.1904  0.2024 -0.3864
  154OSM   H14A17114   4.218   1.119   2.231  0.5342  1.0103  0.8491
  154OSM   H14B17115   4.320   1.257   2.176 -0.5653  0.5858  3.3584
  154OSM   H14C17116   4.205   1.173   2.067 -0.5702 -1.9006  0.3407
  154OSM    C1317117   4.181   1.388   2.327 -0.4304 -0.7184  0.1272
  154OSM   H13A17118   4.203   1.319   2.408 -3.7939 -2.8809 -0.5623
  154OSM   H13B17119   4.120   1.462   2.377 -0.2914 -0.2722 -0.3612
  154OSM   H13C17120   4.272   1.432   2.292 -1.0888  0.2421 -0.4109
  154OSM    C1217121   3.999   1.231   2.256 -0.3610  0.2501 -0.1980
  154OSM   H12A17122   4.030   1.172   2.341  1.6076  1.6902  0.1527
  154OSM   H12B17123   3.963   1.175   2.172  2.4299  0.3611 -1.5661
  154OSM    C1117124   3.870   1.303   2.303 -0.7250 -0.4226  0.0004
  154OSM   H11A17125   3.786   1.232   2.320 -0.1849 -1.4397 -1.3086
  154OSM   H11B17126   3.852   1.362   2.210  1.3723 -1.6303 -1.2761
  154OSM      P17127   3.902   1.327   2.554 -0.2084 -0.1905  0.0823
  154OSM    O1317128   4.040   1.345   2.601 -0.0928 -0.5862  0.5149
  154OSM    O1417129   3.793   1.394   2.627 -0.1603  0.2690 -0.3875
  154OSM    O1117130   3.866   1.174   2.535 -0.4508 -0.1599  0.5159
  154OSM    O1217131   3.892   1.390   2.410 -0.5762  0.3143 -0.1231
  154OSM    C1S17132   3.917   1.060   2.614 -0.2301  0.4046 -0.5168
  154OSM    H1S17133   4.011   1.081   2.669 -0.6761  0.7832  0.1058
  154OSM    H1T17134   3.932   0.979   2.538 -1.6563 -0.5978  0.2277
  154OSM     NF17135   3.866   0.908   2.808 -0.4106 -0.7004  0.1659
  154OSM    HNF17136   3.836   0.813   2.800 -1.7158 -0.3626  0.7588
  154OSM    C2S17137   3.807   1.011   2.723 -0.0503 -0.0445  0.7801
  154OSM    H2S17138   3.793   1.098   2.790  0.5700 -0.0310  0.8986
  154OSM    C3S17139   3.671   0.958   2.666  0.3736 -0.0791 -0.2703
  154OSM    H3S17140   3.688   0.868   2.605 -2.0235 -0.3551 -0.6533
  154OSM     O317141   3.615   1.054   2.576 -0.0781  0.4000 -0.2416
  154OSM    HO317142   3.688   1.111   2.553 -1.3183  2.4376  0.6373
  154OSM    C4S17143   3.575   0.909   2.781  0.5509 -0.3450  0.0285
  154OSM    H4S17144   3.595   0.804   2.809  2.9770  0.2649  0.8683
  154OSM    C5S17145   3.483   0.979   2.852 -0.1203  0.2433  0.2394
  154OSM    H5S17146   3.469   1.086   2.828 -1.6898  0.4669  1.8844
  154OSM    C6S17147   3.395   0.937   2.974 -0.3889 -0.2015  0.9291
  154OSM    H6S17148   3.287   0.941   2.952 -0.5075  0.4374  1.5766
  154OSM    H6T17149   3.407   1.011   3.056 -2.5403  1.4717 -0.1588
  154OSM    C7S17150   3.431   0.801   3.039  0.9038  0.1468  0.3175
  154OSM    H7S17151   3.540   0.801   3.058  0.7962 -0.5444  0.9683
  154OSM    H7T17152   3.403   0.718   2.971  2.8080 -1.6887  1.6601
  154OSM    C8S17153   3.337   0.780   3.167 -0.7883  0.5292  1.0380
  154OSM    H8S17154   3.232   0.775   3.133 -1.0988  0.6710  1.9618
  154OSM    H8T17155   3.343   0.872   3.229  2.3354  0.9945  0.2496
  154OSM    C9S17156   3.378   0.660   3.253 -0.0018 -0.2868  0.5188
  154OSM    H9S17157   3.486   0.667   3.276  0.1383  0.9733 -0.4551
  154OSM    H9T17158   3.356   0.570   3.192 -1.7808  0.3822  0.1145
  154OSM   C10S17159   3.294   0.650   3.374 -0.8395 -0.4872 -0.0307
  154OSM   H10S17160   3.188   0.645   3.339 -0.9294  1.1430 -0.0732
  154OSM   H10T17161   3.305   0.738   3.440  1.8054 -0.9673  0.2628
  154OSM   C11S17162   3.337   0.524   3.451  0.2075 -0.5600 -0.5771
  154OSM   H11S17163   3.448   0.520   3.452  0.3284 -0.0140  3.2228
  154OSM   H11T17164   3.300   0.441   3.388 -2.1086 -0.2532  0.2803
  154OSM   C12S17165   3.272   0.503   3.589 -0.1185 -1.0740  0.1625
  154OSM   H12S17166   3.288   0.399   3.624  2.9170 -0.8391 -0.2580
  154OSM   H12T17167   3.163   0.524   3.592 -0.2018 -1.3267 -0.7704
  154OSM   C13S17168   3.335   0.594   3.690  0.2560 -0.2321  0.1481
  154OSM   H13S17169   3.298   0.695   3.663  0.0260 -0.5702 -0.8454
  154OSM   H13T17170   3.446   0.599   3.683  0.1401  1.9947 -1.0298
  154OSM   C14S17171   3.305   0.564   3.837  0.2415  0.0161  1.0211
  154OSM   H14S17172   3.352   0.466   3.859  3.3324  0.6156 -1.9189
  154OSM   H14T17173   3.196   0.557   3.857 -0.0736  1.3866 -0.0490
  154OSM   C15S17174   3.364   0.674   3.924  0.7350 -0.1131  0.4751
  154OSM   H15S17175   3.318   0.774   3.911 -0.6796 -0.5926  1.5642
  154OSM   H15T17176   3.472   0.690   3.902  0.2678  1.1233 -1.0335
  154OSM   C16S17177   3.361   0.649   4.077 -0.4893  0.4375  0.8312
  154OSM   H16S17178   3.423   0.564   4.112  0.1664  1.1361  1.4315
  154OSM   H16T17179   3.262   0.605   4.102 -0.6269  0.4539  0.3112
  154OSM   C17S17180   3.381   0.775   4.160 -0.3807  0.7171  0.0979
  154OSM   H17S17181   3.330   0.861   4.113  1.0561  2.0512  0.8732
  154OSM   H17T17182   3.490   0.796   4.160 -0.0392 -0.7890  1.5467
  154OSM   C18S17183   3.322   0.765   4.298 -1.0205  0.3135  0.6906
  154OSM   H18S17184   3.225   0.818   4.297 -1.3980 -0.3179 -1.6753
  154OSM   H18T17185   3.393   0.818   4.366 -2.2288  0.1670  2.1341
  154OSM   H18U17186   3.303   0.664   4.341 -1.7680  1.4229  3.1741
  154OSM    C1F17187   3.963   0.939   2.902  0.2934 -0.4069 -0.4609
  154OSM     OF17188   4.004   1.056   2.912  0.2467 -0.0376  0.4421
  154OSM    C2F17189   4.012   0.840   3.009 -0.4079 -0.6790 -0.4285
  154OSM    H2F17190   4.094   0.784   2.959  2.2944  0.8187  2.0674
  154OSM    H2G17191   3.924   0.773   3.025 -0.7925  0.1122  0.9252
  154OSM    C3F17192   4.055   0.913   3.139  0.1099  0.0978  0.5803
  154OSM    H3F17193   4.134   0.991   3.129 -0.7401  0.8256 -0.8663
  154OSM    H3G17194   4.095   0.843   3.215  1.3432  0.2548  0.0999
  154OSM    C4F17195   3.937   0.983   3.208 -0.3261 -0.4302 -0.4547
  154OSM    H4F17196   3.866   0.918   3.264 -1.4291  1.6236  0.6930
  154OSM    H4G17197   3.868   1.032   3.136 -2.4687  0.9452  2.2816
  154OSM    C5F17198   3.963   1.090   3.307  0.3363 -0.1483  0.8345
  154OSM    H5F17199   3.868   1.137   3.342 -0.3300 -0.8059 -0.0235
  154OSM    H5G17200   4.022   1.167   3.252  1.1378 -1.5505 -0.3296
  154OSM    C6F17201   4.037   1.033   3.433 -0.4569  0.3212  0.2299
  154OSM    H6F17202   4.138   1.004   3.399 -0.6063 -0.6671  0.6119
  154OSM    H6G17203   3.983   0.941   3.461  0.6776 -0.7538 -0.9640
  154OSM    C7F17204   4.044   1.137   3.542 -0.0878  0.2068 -0.4064
  154OSM    H7F17205   3.947   1.188   3.561  0.4561  1.3654 -0.6947
  154OSM    H7G17206   4.111   1.223   3.523  0.0845 -0.1140 -1.3062
  154OSM    C8F17207   4.078   1.086   3.679  0.5270 -0.1894 -0.2650
  154OSM    H8F17208   4.079   1.170   3.752 -0.9212 -1.4412  1.2909
  154OSM    H8G17209   4.169   1.022   3.685  1.3258  0.9625  0.1065
  154OSM    C9F17210   3.973   0.993   3.731 -0.1353  0.3138  0.2312
  154OSM    H9F17211   3.975   0.900   3.672  4.7295  0.3453 -0.0410
  154OSM   C10F17212   3.881   1.000   3.823  0.4887 -0.3139 -0.4867
  154OSM   H10F17213   3.811   0.915   3.833 -0.2078  0.3359  0.3025
  154OSM   C11F17214   3.856   1.119   3.913  0.1416 -0.2809  0.4208
  154OSM   H11F17215   3.799   1.200   3.862  0.1718  0.3216  1.3230
  154OSM   H11G17216   3.951   1.166   3.946  0.3871  0.5118 -1.2959
  154OSM   C12F17217   3.763   1.075   4.033 -0.6807  0.0436  0.1976
  154OSM   H12F17218   3.817   0.993   4.085 -0.6356  0.1426  0.3095
  154OSM   H12G17219   3.664   1.030   4.009  0.0913 -1.7937  0.3014
  154OSM   C13F17220   3.746   1.189   4.128 -0.2522  1.2377  0.3940
  154OSM   H13F17221   3.669   1.259   4.090 -1.3229 -0.0898  0.0501
  154OSM   H13G17222   3.840   1.248   4.133  0.2937  0.4235  0.0524
  154OSM   C14F17223   3.714   1.158   4.281  0.3087  0.2388 -0.0344
  154OSM   H14F17224   3.794   1.100   4.332 -0.4205 -0.6057  0.1705
  154OSM   H14G17225   3.619   1.101   4.287 -0.0890  0.8545 -0.3774
  154OSM   C15F17226   3.694   1.291   4.359  0.3219 -0.1608 -0.5612
  154OSM   H15F17227   3.600   1.329   4.315 -0.0803 -0.0218  0.3992
  154OSM   H15G17228   3.779   1.362   4.351  0.8104 -0.6142  0.3066
  154OSM   C16F17229   3.664   1.266   4.508 -0.3301  0.0012 -0.0459
  154OSM   H16F17230   3.608   1.172   4.526 -0.7646  0.5248  1.4630
  154OSM   H16G17231   3.591   1.342   4.542  1.1237  1.2114  0.4852
  154OSM   C17F17232   3.787   1.262   4.600 -0.0466 -0.2741 -0.0466
  154OSM   H17F17233   3.871   1.213   4.546 -0.4771 -1.1429  0.0528
  154OSM   H17G17234   3.758   1.201   4.688 -0.0769  1.2353  1.0137
  154OSM   C18F17235   3.837   1.401   4.650 -0.0815 -0.5032  0.6562
  154OSM   H18F17236   3.762   1.454   4.712 -1.1395 -2.4635  1.1471
  154OSM   H18G17237   3.877   1.465   4.569 -0.0037 -1.3119  0.0366
  154OSM   H18H17238   3.931   1.383   4.707  1.9051  3.0444 -1.1610
  155OSM      N17239   1.680   5.009   2.302  0.9562  0.0818  0.4201
  155OSM    C1517240   1.754   4.906   2.377 -0.1546 -0.4616 -0.1199
  155OSM   H15A17241   1.850   4.882   2.335  0.2038  0.3046  0.2520
  155OSM   H15B17242   1.706   4.809   2.374 -0.1844 -0.5042  1.2800
  155OSM   H15C17243   1.764   4.920   2.484  3.2233  2.0498 -0.5984
  155OSM    C1417244   1.704   4.986   2.149  0.0091  0.3722 -0.8703
  155OSM   H14A17245   1.807   5.003   2.122  0.2551  0.2061 -0.0760
  155OSM   H14B17246   1.658   5.066   2.093  1.1862  2.0348  0.4177
  155OSM   H14C17247   1.676   4.889   2.111  1.4129  0.7041 -2.9106
  155OSM    C1317248   1.534   4.991   2.324  0.4151  0.5423  0.3265
  155OSM   H13A17249   1.516   5.027   2.425  0.1226  1.4360 -0.0346
  155OSM   H13B17250   1.495   4.892   2.306 -0.4200  0.8709  0.2751
  155OSM   H13C17251   1.472   5.055   2.263  1.1192  1.2622  0.3529
  155OSM    C1217252   1.725   5.147   2.335  0.3943 -0.3550  0.1524
  155OSM   H12A17253   1.670   5.213   2.270 -2.7312 -2.4444  0.4362
  155OSM   H12B17254   1.829   5.148   2.305 -0.0579 -0.8715 -1.5005
  155OSM    C1117255   1.706   5.211   2.477  0.3267 -0.3252 -0.3264
  155OSM   H11A17256   1.754   5.311   2.478 -4.0163  2.0020  0.9343
  155OSM   H11B17257   1.765   5.160   2.556 -1.0435  1.3946  1.9437
  155OSM      P17258   1.489   5.342   2.444 -0.2034 -0.0961 -0.0067
  155OSM    O1317259   1.581   5.412   2.356 -0.4526  0.1661  0.3741
  155OSM    O1417260   1.363   5.292   2.385  0.3690 -0.3453 -0.5512
  155OSM    O1117261   1.443   5.444   2.557  0.5001  0.0123 -0.0079
  155OSM    O1217262   1.566   5.227   2.515 -0.2691 -0.2270 -0.6643
  155OSM    C1S17263   1.533   5.541   2.610 -0.4022  0.4697  0.1462
  155OSM    H1S17264   1.537   5.624   2.537  0.1587 -0.3984 -0.8308
  155OSM    H1T17265   1.634   5.499   2.630 -0.3440 -0.5555 -1.9969
  155OSM     NF17266   1.563   5.710   2.788 -0.0139  0.6325  0.6123
  155OSM    HNF17267   1.644   5.693   2.844 -0.2092  0.7423  0.9348
  155OSM    C2S17268   1.482   5.594   2.748  0.8327  0.2029 -1.0517
  155OSM    H2S17269   1.376   5.623   2.738  0.5574  0.9717  2.5570
  155OSM    C3S17270   1.504   5.481   2.856 -0.1433  0.2416  0.6758
  155OSM    H3S17271   1.603   5.430   2.864 -1.7434 -3.3836 -0.4826
  155OSM     O317272   1.424   5.371   2.827 -0.2267  0.2539 -0.3026
  155OSM    HO317273   1.388   5.383   2.738  0.0423 -0.6802 -0.5421
  155OSM    C4S17274   1.462   5.518   2.997  0.2347 -0.1527  0.3427
  155OSM    H4S17275   1.358   5.541   3.022  0.6316  0.0144  1.9006
  155OSM    C5S17276   1.537   5.536   3.107  0.0423  0.7741 -0.2360
  155OSM    H5S17277   1.647   5.537   3.107  0.0543  0.8403  1.3282
  155OSM    C6S17278   1.469   5.584   3.237 -0.0930 -0.2143  0.8688
  155OSM    H6S17279   1.365   5.618   3.219 -0.5639 -2.3619 -0.9848
  155OSM    H6T17280   1.528   5.676   3.258  0.4756 -0.1080 -1.0046
  155OSM    C7S17281   1.468   5.491   3.359 -0.2250 -0.0258 -0.2329
  155OSM    H7S17282   1.572   5.459   3.382 -0.1713 -0.5684 -1.1554
  155OSM    H7T17283   1.404   5.406   3.327 -0.6542  0.2422 -0.0916
  155OSM    C8S17284   1.419   5.568   3.482  1.0909  0.0585 -0.5120
  155OSM    H8S17285   1.314   5.598   3.461  1.1242 -0.6082 -1.7339
  155OSM    H8T17286   1.486   5.656   3.485  0.0581  0.8571 -0.2878
  155OSM    C9S17287   1.423   5.477   3.612 -0.2699  0.8271  0.3736
  155OSM    H9S17288   1.528   5.448   3.634 -0.3690 -1.4200 -1.6118
  155OSM    H9T17289   1.354   5.390   3.607  0.1784  0.5082 -3.6097
  155OSM   C10S17290   1.370   5.539   3.744 -0.2563 -0.3338  0.1964
  155OSM   H10S17291   1.422   5.636   3.759 -0.6237 -0.2353  0.8521
  155OSM   H10T17292   1.388   5.470   3.829 -2.9606 -0.0787  1.0798
  155OSM   C11S17293   1.217   5.570   3.745 -0.6810  0.9992  0.2379
  155OSM   H11S17294   1.164   5.473   3.735 -0.1257  0.5403  1.4227
  155OSM   H11T17295   1.184   5.622   3.653 -1.4992  0.5063  0.2460
  155OSM   C12S17296   1.164   5.625   3.879  0.0791 -1.2636  0.5527
  155OSM   H12S17297   1.055   5.604   3.873  0.3299 -2.5385  0.1943
  155OSM   H12T17298   1.162   5.735   3.889  1.0815 -1.2779  0.9824
  155OSM   C13S17299   1.220   5.557   4.003  0.3848 -0.8186 -0.0187
  155OSM   H13S17300   1.328   5.583   4.017  0.1105 -0.1031  0.8477
  155OSM   H13T17301   1.211   5.447   3.987  3.0203 -0.9591 -1.1555
  155OSM   C14S17302   1.142   5.617   4.126 -0.2202 -0.0348 -0.0658
  155OSM   H14S17303   1.036   5.608   4.096 -0.3181 -1.2875  0.6035
  155OSM   H14T17304   1.164   5.725   4.137  0.9359 -0.2885  0.2440
  155OSM   C15S17305   1.176   5.563   4.265  0.2722  0.1108  0.1866
  155OSM   H15S17306   1.278   5.597   4.293 -0.1331  1.3819  0.1892
  155OSM   H15T17307   1.189   5.452   4.262 -1.0119 -0.0359 -0.6519
  155OSM   C16S17308   1.073   5.611   4.372 -0.0741  0.7796 -0.2637
  155OSM   H16S17309   1.116   5.561   4.462  0.0972 -0.2316 -0.8892
  155OSM   H16T17310   0.970   5.573   4.356  0.7107 -0.8421 -1.8291
  155OSM   C17S17311   1.072   5.757   4.397  0.2665 -0.4590 -0.0780
  155OSM   H17S17312   1.005   5.808   4.324 -0.8091 -0.3669  0.9437
  155OSM   H17T17313   1.172   5.799   4.372  0.2357 -0.9508 -1.0824
  155OSM   C18S17314   1.022   5.797   4.547  0.1160  0.2676  0.2390
  155OSM   H18S17315   1.030   5.907   4.559 -1.9122  0.6721 -1.5255
  155OSM   H18T17316   1.083   5.731   4.612 -0.9810 -0.6519  0.3636
  155OSM   H18U17317   0.918   5.757   4.546 -0.8873  2.6477  1.1927
  155OSM    C1F17318   1.546   5.823   2.727  0.2514  0.5882  0.5528
  155OSM     OF17319   1.451   5.846   2.651  0.6810 -0.0590 -0.4352
  155OSM    C2F17320   1.661   5.925   2.733  1.2102 -0.0781 -0.2188
  155OSM    H2F17321   1.631   5.991   2.648 -0.2069  0.5689  0.7602
  155OSM    H2G17322   1.751   5.868   2.702 -0.2998 -2.0535 -1.2178
  155OSM    C3F17323   1.655   6.025   2.849 -0.4137 -0.7185 -0.9390
  155OSM    H3F17324   1.552   6.067   2.848 -0.5096 -0.8675 -3.2487
  155OSM    H3G17325   1.723   6.108   2.823  0.4304 -1.9686 -2.9925
  155OSM    C4F17326   1.697   5.963   2.991  0.1198  0.4663  0.6761
  155OSM    H4F17327   1.805   5.944   2.978  0.3708  3.1435 -2.8578
  155OSM    H4G17328   1.635   5.871   2.988 -2.8390  2.2717 -2.2668
  155OSM    C5F17329   1.664   6.041   3.116 -0.0002 -0.0765 -0.2685
  155OSM    H5F17330   1.557   6.069   3.111 -0.1030 -0.6934 -2.4182
  155OSM    H5G17331   1.724   6.134   3.124  0.3330 -0.3837  1.2244
  155OSM    C6F17332   1.679   5.954   3.247 -0.4132 -0.1921  0.0809
  155OSM    H6F17333   1.776   5.901   3.253  0.3046  1.1367  0.5798
  155OSM    H6G17334   1.605   5.874   3.230  0.3763 -0.5792 -1.6697
  155OSM    C7F17335   1.645   6.053   3.366 -0.0158 -0.1502 -0.7996
  155OSM    H7F17336   1.543   6.088   3.340 -0.2581 -1.5065 -1.8096
  155OSM    H7G17337   1.714   6.139   3.373 -1.0032  0.5296  1.4072
  155OSM    C8F17338   1.652   5.990   3.514 -0.2293 -0.3954 -0.5259
  155OSM    H8F17339   1.745   5.930   3.522 -1.5645 -2.5562 -0.2907
  155OSM    H8G17340   1.571   5.914   3.521  2.0431 -2.8528  0.7595
  155OSM    C9F17341   1.631   6.103   3.612  0.4777  0.1275 -0.0756
  155OSM    H9F17342   1.702   6.187   3.613  0.4454  0.1579 -0.2477
  155OSM   C10F17343   1.523   6.116   3.687  0.5930 -0.3998 -0.0154
  155OSM   H10F17344   1.513   6.197   3.760 -0.0838 -0.2732 -0.2474
  155OSM   C11F17345   1.417   6.016   3.705  0.7758  0.1969  0.0016
  155OSM   H11F17346   1.469   5.920   3.726  0.7860  0.3209  0.5491
  155OSM   H11G17347   1.340   6.015   3.625 -1.8359 -1.1858  2.3497
  155OSM   C12F17348   1.331   6.053   3.831 -0.3194 -0.1202 -0.7051
  155OSM   H12F17349   1.243   5.988   3.814 -0.0183  0.1831 -4.0632
  155OSM   H12G17350   1.292   6.157   3.837 -1.6481 -0.6452  0.0749
  155OSM   C13F17351   1.395   6.019   3.972  0.2483  0.8297  0.6351
  155OSM   H13F17352   1.467   6.104   3.975 -0.2170  1.2127  1.3792
  155OSM   H13G17353   1.460   5.929   3.978 -1.7496 -0.7743 -0.3933
  155OSM   C14F17354   1.291   6.026   4.080  0.0342 -0.2474  1.1679
  155OSM   H14F17355   1.221   5.940   4.068  1.0820 -1.1067  1.0576
  155OSM   H14G17356   1.238   6.123   4.070  1.1498  0.3289  0.6761
  155OSM   C15F17357   1.340   6.038   4.227 -0.4007  0.1127 -1.1410
  155OSM   H15F17358   1.360   5.931   4.247 -1.5091 -0.4781 -2.9412
  155OSM   H15G17359   1.254   6.079   4.284 -0.9499 -0.0415 -1.8428
  155OSM   C16F17360   1.470   6.118   4.258  0.3730  0.3050  0.0552
  155OSM   H16F17361   1.477   6.223   4.225 -1.3454 -0.1873 -2.0959
  155OSM   H16G17362   1.550   6.061   4.208 -0.8721 -0.5656 -1.0068
  155OSM   C17F17363   1.484   6.131   4.414  0.1447  0.3347 -0.2652
  155OSM   H17F17364   1.479   6.030   4.460 -0.8370  0.4223 -0.1738
  155OSM   H17G17365   1.398   6.176   4.468  0.9976 -0.7645  2.1786
  155OSM   C18F17366   1.611   6.197   4.458  0.5465 -0.4929  0.2774
  155OSM   H18F17367   1.690   6.162   4.388 -0.4131  0.3259 -1.2621
  155OSM   H18G17368   1.640   6.145   4.552  0.2295 -0.0246  0.6401
  155OSM   H18H17369   1.598   6.308   4.460  1.9919 -0.2049 -2.3485
  156OSM      N17370   5.833   4.019   2.471  0.0941  0.0142  0.3365
  156OSM    C1517371   5.859   4.055   2.328  0.7362 -0.2367  0.6742
  156OSM   H15A17372   5.892   3.971   2.269  2.7531  1.9057 -1.4402
  156OSM   H15B17373   5.944   4.121   2.323  0.8009 -0.1502  2.2780
  156OSM   H15C17374   5.778   4.110   2.283 -0.5510 -0.8344  2.1258
  156OSM    C1417375   5.712   3.929   2.470  0.2698 -0.0195  0.0290
  156OSM   H14A17376   5.728   3.844   2.405  2.8668 -0.3147  0.9346
  156OSM   H14B17377   5.631   3.990   2.431  2.4720  2.5378 -0.8770
  156OSM   H14C17378   5.687   3.889   2.567  0.3440  1.2382  0.5798
  156OSM    C1317379   5.951   3.948   2.530  0.5037  0.2478  0.0134
  156OSM   H13A17380   6.045   4.001   2.518  1.1608 -0.7516  0.6387
  156OSM   H13B17381   5.978   3.862   2.470  1.5202 -0.6448  1.6866
  156OSM   H13C17382   5.934   3.918   2.632  0.5858 -1.6535 -0.5030
  156OSM    C1217383   5.797   4.146   2.539 -0.6095  0.2443  0.2181
  156OSM   H12A17384   5.701   4.173   2.499 -0.6138 -0.5681 -0.3546
  156OSM   H12B17385   5.878   4.212   2.510 -0.7246 -0.2341 -1.2472
  156OSM    C1117386   5.792   4.147   2.694  0.1951 -0.3721  1.0843
  156OSM   H11A17387   5.781   4.254   2.721 -1.3961  0.0698 -1.0136
  156OSM   H11B17388   5.896   4.130   2.729  1.1401  1.3786 -0.7042
  156OSM      P17389   5.712   3.957   2.841  0.3567  0.1384  0.0355
  156OSM    O1317390   5.585   3.888   2.870  0.0223  0.0670 -0.5351
  156OSM    O1417391   5.826   3.880   2.792 -0.3034  0.4545  0.1894
  156OSM    O1117392   5.760   4.037   2.971  0.3759  0.1743  0.0787
  156OSM    O1217393   5.682   4.079   2.754  0.4996  0.2866  0.2199
  156OSM    C1S17394   5.675   4.033   3.086 -0.5652 -0.2188  0.2276
  156OSM    H1S17395   5.646   3.932   3.121 -0.4862 -1.1286 -2.1645
  156OSM    H1T17396   5.580   4.087   3.063 -0.7738 -0.8131 -0.3430
  156OSM     NF17397   5.678   4.086   3.320  0.2620  0.7207  0.1663
  156OSM    HNF17398   5.637   4.162   3.368 -1.7738  0.4921 -1.0948
  156OSM    C2S17399   5.749   4.112   3.201  0.1659  0.2343  0.2262
  156OSM    H2S17400   5.849   4.066   3.215 -0.0317 -0.0216  0.7872
  156OSM    C3S17401   5.776   4.259   3.178  0.6624 -0.8001 -0.0248
  156OSM    H3S17402   5.673   4.299   3.172  0.5831 -0.8512  0.8571
  156OSM     O317403   5.847   4.290   3.056  0.1442 -0.2610  0.0603
  156OSM    HO317404   5.832   4.217   2.995 -1.6012 -0.1282  0.2734
  156OSM    C4S17405   5.852   4.318   3.293 -0.7354 -0.4794  0.2036
  156OSM    H4S17406   5.788   4.347   3.378  1.6867  0.2567  1.8903
  156OSM    C5S17407   5.989   4.310   3.309  0.1144 -0.1246 -1.0899
  156OSM    H5S17408   6.040   4.247   3.234 -1.0725 -1.7665 -0.5650
  156OSM    C6S17409   6.069   4.344   3.433  0.1057 -0.0271  0.4335
  156OSM    H6S17410   6.112   4.446   3.432 -1.6189  0.7652  1.7068
  156OSM    H6T17411   6.157   4.276   3.439 -0.7259 -1.3542 -1.3927
  156OSM    C7S17412   5.998   4.345   3.573 -0.2253  0.6189  0.0454
  156OSM    H7S17413   5.943   4.250   3.586 -0.1012  0.2820 -1.6195
  156OSM    H7T17414   5.921   4.423   3.556 -1.9528 -1.5041 -2.8208
  156OSM    C8S17415   6.085   4.380   3.692  0.2761 -0.0048 -0.1985
  156OSM    H8S17416   6.137   4.474   3.666 -0.3422 -0.7693 -5.3559
  156OSM    H8T17417   6.158   4.299   3.718 -0.9416 -2.3496 -3.4431
  156OSM    C9S17418   5.999   4.391   3.821  0.0990  0.2182 -0.0528
  156OSM    H9S17419   5.952   4.291   3.832 -1.4168  0.5545 -2.6947
  156OSM    H9T17420   5.926   4.474   3.809  0.3317  0.3533 -0.5719
  156OSM   C10S17421   6.096   4.434   3.935 -0.1861 -0.3938 -0.7468
  156OSM   H10S17422   6.136   4.532   3.901 -0.7096  1.0016  2.3188
  156OSM   H10T17423   6.181   4.362   3.932  0.7658  0.6149  0.5060
  156OSM   C11S17424   6.027   4.431   4.075 -0.2821 -0.8378  0.6664
  156OSM   H11S17425   5.962   4.341   4.087 -0.8782 -0.8124 -1.8503
  156OSM   H11T17426   5.964   4.522   4.076  2.2547  1.0502 -0.7348
  156OSM   C12S17427   6.117   4.446   4.195 -0.2621 -0.5171  0.0087
  156OSM   H12S17428   6.180   4.535   4.174 -0.7870 -0.0620  0.3701
  156OSM   H12T17429   6.184   4.358   4.208  0.7728  0.2517  0.0062
  156OSM   C13S17430   6.039   4.454   4.325  0.0968 -0.3858  0.0802
  156OSM   H13S17431   5.974   4.364   4.331  0.3494 -0.6548 -0.9786
  156OSM   H13T17432   5.970   4.541   4.326  1.5992  0.8471  0.5331
  156OSM   C14S17433   6.126   4.467   4.450 -0.0348 -0.8130  0.2136
  156OSM   H14S17434   6.217   4.528   4.433 -0.5184 -0.5171 -1.4356
  156OSM   H14T17435   6.161   4.364   4.470 -1.3699 -1.0610  1.5116
  156OSM   C15S17436   6.051   4.522   4.579  0.1538 -0.3073  0.4399
  156OSM   H15S17437   5.960   4.460   4.594  0.0299 -0.1000  0.5420
  156OSM   H15T17438   6.017   4.623   4.547  0.1853 -0.4859 -0.1837
  156OSM   C16S17439   6.138   4.526   4.705 -0.5578 -0.1310  1.3832
  156OSM   H16S17440   6.091   4.564   4.798 -0.8052  0.5336  0.9925
  156OSM   H16T17441   6.224   4.590   4.676  0.5516 -1.6534  1.2048
  156OSM   C17S17442   6.213   4.404   4.737 -0.3720 -0.0631 -0.6868
  156OSM   H17S17443   6.276   4.355   4.660  1.8677 -1.5533  1.9025
  156OSM   H17T17444   6.137   4.323   4.749  1.0499 -1.1128  2.3430
  156OSM   C18S17445   6.287   4.408   4.873 -0.3138 -0.2434 -0.3513
  156OSM   H18S17446   6.227   4.357   4.951  2.0074 -0.5399  1.3547
  156OSM   H18T17447   6.311   4.508   4.914 -3.4778  0.1918  0.7077
  156OSM   H18U17448   6.383   4.351   4.869 -0.5549 -0.8256  1.4439
  156OSM    C1F17449   5.682   3.964   3.375  0.2647 -0.4071 -0.4873
  156OSM     OF17450   5.734   3.867   3.325 -0.0826  0.5519 -0.4451
  156OSM    C2F17451   5.628   3.950   3.514  0.1866 -0.4789  1.3940
  156OSM    H2F17452   5.592   3.845   3.517  0.5788 -0.5962  2.3371
  156OSM    H2G17453   5.536   4.013   3.524 -1.6008 -2.8699  0.8695
  156OSM    C3F17454   5.716   4.000   3.631  0.1313  0.2520  0.2591
  156OSM    H3F17455   5.746   4.107   3.619 -2.5133  0.9610 -0.5845
  156OSM    H3G17456   5.804   3.934   3.651  1.0699  1.2997 -0.2642
  156OSM    C4F17457   5.633   3.992   3.765  0.1562  1.0153  0.6533
  156OSM    H4F17458   5.600   3.888   3.783  0.6775  0.8611  0.7227
  156OSM    H4G17459   5.546   4.060   3.759 -1.4050 -0.9963 -1.4243
  156OSM    C5F17460   5.713   4.021   3.898 -0.2723  0.5268 -0.0583
  156OSM    H5F17461   5.746   4.127   3.894 -1.5969  0.9656 -0.0025
  156OSM    H5G17462   5.801   3.953   3.900 -0.3685  0.3654 -0.8306
  156OSM    C6F17463   5.633   4.015   4.020 -0.1811 -0.3937 -0.1875
  156OSM    H6F17464   5.600   3.911   4.044  3.3744 -1.4851  0.4405
  156OSM    H6G17465   5.535   4.069   4.022 -0.8102 -1.4671 -0.8361
  156OSM    C7F17466   5.715   4.048   4.144 -0.3662 -0.6211 -0.2501
  156OSM    H7F17467   5.770   4.143   4.126  1.3799 -1.3992  0.6878
  156OSM    H7G17468   5.787   3.965   4.158  1.5139  1.3803  3.9370
  156OSM    C8F17469   5.633   4.040   4.267  0.3466 -0.2299 -0.2178
  156OSM    H8F17470   5.585   3.940   4.273  0.4490 -0.1953  1.9502
  156OSM    H8G17471   5.558   4.120   4.254  2.8788  2.3686  0.1996
  156OSM    C9F17472   5.721   4.056   4.388 -0.6064  0.2535 -0.2562
  156OSM    H9F17473   5.800   3.979   4.388 -1.1144 -0.2950  0.8415
  156OSM   C10F17474   5.721   4.159   4.478 -0.1696 -0.5460 -0.1157
  156OSM   H10F17475   5.785   4.143   4.566  1.1913 -1.0718 -1.1655
  156OSM   C11F17476   5.623   4.275   4.483  0.4712 -0.3625  0.7221
  156OSM   H11F17477   5.545   4.262   4.406  1.5388  2.3462 -0.9557
  156OSM   H11G17478   5.667   4.375   4.458  4.0469 -2.0355 -0.3703
  156OSM   C12F17479   5.558   4.270   4.622  0.3330  0.7140  0.3316
  156OSM   H12F17480   5.545   4.168   4.664  2.6773 -0.2985 -1.1767
  156OSM   H12G17481   5.455   4.306   4.602  0.3317  0.1884 -0.6582
  156OSM   C13F17482   5.617   4.353   4.738  0.0720  0.8968 -0.7055
  156OSM   H13F17483   5.538   4.349   4.815 -2.2991  0.3418 -3.0188
  156OSM   H13G17484   5.615   4.458   4.703  3.2362  1.1292 -0.5388
  156OSM   C14F17485   5.752   4.287   4.774 -0.0927 -0.3685 -0.3650
  156OSM   H14F17486   5.796   4.342   4.860 -0.8642  0.4109 -0.4624
  156OSM   H14G17487   5.820   4.297   4.687  0.4223 -1.1614 -0.0727
  156OSM   C15F17488   5.742   4.142   4.832 -0.7425 -0.7533  0.3707
  156OSM   H15F17489   5.737   4.065   4.753 -1.1719  1.2435 -1.6535
  156OSM   H15G17490   5.642   4.128   4.880 -1.1492 -1.3401 -0.6175
  156OSM   C16F17491   5.849   4.097   4.934 -0.1957  0.6257  0.5838
  156OSM   H16F17492   5.838   3.988   4.951  2.2327 -0.5685 -3.8181
  156OSM   H16G17493   5.836   4.142   5.035  0.1483  0.1120  0.8610
  156OSM   C17F17494   6.001   4.096   4.897 -0.4269  0.3252 -0.5190
  156OSM   H17F17495   6.020   4.200   4.864  1.1614 -0.0162 -0.7861
  156OSM   H17G17496   6.025   4.036   4.806  0.5449  0.0979 -0.1318
  156OSM   C18F17497   6.101   4.064   5.019 -0.4113  0.1694  0.5986
  156OSM   H18F17498   6.075   3.958   5.039  1.7210 -0.8065 -1.3033
  156OSM   H18G17499   6.075   4.135   5.100  0.6938  0.4515  0.7173
  156OSM   H18H17500   6.209   4.074   4.993 -0.9686  2.0815 -1.3059
  157OSM      N17501   6.493   0.715   2.531 -0.5276  0.2549  0.5181
  157OSM    C1517502   6.567   0.706   2.402  0.0119  0.4753  0.2493
  157OSM   H15A17503   6.498   0.663   2.330 -1.4932  2.3059  0.5182
  157OSM   H15B17504   6.645   0.632   2.408  0.5261  1.0448  0.6441
  157OSM   H15C17505   6.599   0.804   2.372  0.5141  0.4527  0.7120
  157OSM    C1417506   6.596   0.774   2.622  0.4180  0.3062 -0.7611
  157OSM   H14A17507   6.652   0.710   2.688 -1.4464 -0.8726 -0.2598
  157OSM   H14B17508   6.545   0.843   2.688  0.7846  0.4173 -0.5923
  157OSM   H14C17509   6.672   0.825   2.564  0.9753 -1.0345 -1.2536
  157OSM    C1317510   6.389   0.819   2.520  0.5609 -0.1126  0.1798
  157OSM   H13A17511   6.324   0.806   2.435  0.8651  2.2410 -0.4971
  157OSM   H13B17512   6.441   0.914   2.521 -0.9453  0.7548  1.2237
  157OSM   H13C17513   6.334   0.830   2.612  2.6002  1.7016  1.2895
  157OSM    C1217514   6.445   0.577   2.576 -0.1267 -0.0324 -0.8975
  157OSM   H12A17515   6.401   0.581   2.674  1.4015  1.1953 -0.2199
  157OSM   H12B17516   6.535   0.520   2.596 -2.0215 -3.6676 -1.7960
  157OSM    C1117517   6.350   0.492   2.485  0.3725 -0.3037 -0.0599
  157OSM   H11A17518   6.249   0.534   2.466 -0.3105 -1.6963  0.3762
  157OSM   H11B17519   6.322   0.410   2.554  0.1602 -0.1114  0.0835
  157OSM      P17520   6.496   0.320   2.355 -0.0263 -0.4106 -0.1015
  157OSM    O1317521   6.460   0.232   2.245  0.1963 -0.4766 -0.7667
  157OSM    O1417522   6.637   0.364   2.358  0.0529 -0.0076  0.3262
  157OSM    O1117523   6.477   0.248   2.494  0.6617 -0.1078  0.2680
  157OSM    O1217524   6.399   0.445   2.364 -0.0592 -0.2479  0.1115
  157OSM    C1S17525   6.572   0.262   2.599  0.0655  0.6843 -0.1857
  157OSM    H1S17526   6.644   0.344   2.581  0.7740  0.4717  1.4826
  157OSM    H1T17527   6.637   0.172   2.590 -1.1955 -0.6688  2.8489
  157OSM     NF17528   6.617   0.286   2.845 -0.2631  0.0586  0.1279
  157OSM    HNF17529   6.647   0.197   2.879 -1.9853 -0.1050  1.3771
  157OSM    C2S17530   6.518   0.272   2.741  0.2709  0.1314 -0.1720
  157OSM    H2S17531   6.457   0.363   2.724  1.7265  0.7579 -2.7323
  157OSM    C3S17532   6.412   0.154   2.753  1.0514 -0.3579  0.0596
  157OSM    H3S17533   6.459   0.053   2.746 -0.9238 -1.2585 -1.4533
  157OSM     O317534   6.310   0.151   2.654 -0.2484  0.0763 -0.0771
  157OSM    HO317535   6.358   0.209   2.594  1.0145  0.9645  1.6750
  157OSM    C4S17536   6.352   0.170   2.887  0.1531  0.2285  0.3575
  157OSM    H4S17537   6.411   0.151   2.978 -1.9036 -0.7621  1.5447
  157OSM    C5S17538   6.225   0.216   2.923 -0.8538  0.5041 -0.1388
  157OSM    H5S17539   6.159   0.259   2.846  0.5388  3.2438  0.0452
  157OSM    C6S17540   6.185   0.225   3.066  0.2068 -0.0774 -0.6762
  157OSM    H6S17541   6.074   0.218   3.061 -0.0307  1.3267  1.4730
  157OSM    H6T17542   6.205   0.331   3.094 -1.6851  0.6113 -1.7078
  157OSM    C7S17543   6.246   0.120   3.165  0.8595  0.4219  0.5767
  157OSM    H7S17544   6.354   0.144   3.162  0.5288  1.9234 -1.3096
  157OSM    H7T17545   6.209   0.021   3.129  0.2543  0.0508  2.1322
  157OSM    C8S17546   6.210   0.138   3.307  0.2358  0.0653 -0.0578
  157OSM    H8S17547   6.100   0.143   3.320  0.2370  1.0469 -0.3333
  157OSM    H8T17548   6.254   0.234   3.344 -1.1337  0.0110  1.8620
  157OSM    C9S17549   6.267   0.026   3.399 -0.3216 -0.6496 -0.4000
  157OSM    H9S17550   6.366  -0.012   3.368 -1.0460 -3.0319  0.0068
  157OSM    H9T17551   6.202  -0.064   3.401  0.1244 -1.0347  2.7290
  157OSM   C10S17552   6.270   0.076   3.547 -0.8855  0.2307  0.0032
  157OSM   H10S17553   6.169   0.084   3.591  0.3231  0.9747  2.8809
  157OSM   H10T17554   6.322   0.175   3.548  0.6107 -0.5187  1.3813
  157OSM   C11S17555   6.356  -0.015   3.631  0.8114  0.1533  0.0619
  157OSM   H11S17556   6.458  -0.012   3.587  0.5929  0.4282 -0.4417
  157OSM   H11T17557   6.316  -0.118   3.629 -0.8300  0.7587 -0.2698
  157OSM   C12S17558   6.360   0.024   3.775  1.0032 -0.2455  0.2713
  157OSM   H12S17559   6.257   0.035   3.815  0.3280 -2.8701 -0.5219
  157OSM   H12T17560   6.391   0.130   3.778 -1.4974  0.5276  1.7329
  157OSM   C13S17561   6.444  -0.058   3.869  0.1251  0.8926 -0.5175
  157OSM   H13S17562   6.540  -0.067   3.813 -0.2223 -0.9172 -0.8837
  157OSM   H13T17563   6.402  -0.161   3.863 -1.0291  1.4089 -1.6894
  157OSM   C14S17564   6.455  -0.003   4.011 -0.5739  0.4821 -0.1222
  157OSM   H14S17565   6.527  -0.079   4.049  0.1216 -0.4831 -3.1477
  157OSM   H14T17566   6.362  -0.018   4.070 -0.3348 -1.8939 -0.2750
  157OSM   C15S17567   6.512   0.134   4.029 -0.7802 -0.2418  0.3093
  157OSM   H15S17568   6.519   0.159   4.138  1.1988  0.5928  0.0355
  157OSM   H15T17569   6.436   0.207   3.994 -0.1603 -0.2744 -1.1383
  157OSM   C16S17570   6.643   0.159   3.949 -0.4076 -0.0522  0.1772
  157OSM   H16S17571   6.626   0.141   3.841  1.0956  2.1644 -0.5093
  157OSM   H16T17572   6.725   0.091   3.978 -0.1434  0.3184  0.3119
  157OSM   C17S17573   6.691   0.307   3.961  0.0837  0.3445  0.7717
  157OSM   H17S17574   6.794   0.323   3.922  0.2565 -1.6348  0.2708
  157OSM   H17T17575   6.711   0.333   4.067  5.1654  0.7915 -0.0607
  157OSM   C18S17576   6.582   0.405   3.923 -0.1468 -0.0607  0.3619
  157OSM   H18S17577   6.629   0.505   3.934 -0.5977 -0.0636  2.9377
  157OSM   H18T17578   6.504   0.411   4.002 -1.1186 -1.4296 -0.4428
  157OSM   H18U17579   6.543   0.381   3.821  1.9512  0.4440 -0.6049
  157OSM    C1F17580   6.682   0.390   2.854 -0.3872 -0.1339 -0.1669
  157OSM     OF17581   6.643   0.486   2.795  0.6092 -0.7023 -0.2558
  157OSM    C2F17582   6.810   0.392   2.930 -0.3303 -0.1411 -0.1283
  157OSM    H2F17583   6.843   0.497   2.946 -0.7269 -0.0562  0.1561
  157OSM    H2G17584   6.889   0.350   2.864 -1.9295 -2.6136 -0.5969
  157OSM    C3F17585   6.807   0.309   3.059  0.3088 -0.2953 -0.0605
  157OSM    H3F17586   6.904   0.330   3.110 -0.2902  0.9795  0.6105
  157OSM    H3G17587   6.796   0.201   3.035  0.0140 -0.5364  1.0954
  157OSM    C4F17588   6.694   0.349   3.156  0.3969  1.6625 -1.0889
  157OSM    H4F17589   6.597   0.344   3.102 -1.0081  0.5775  1.3600
  157OSM    H4G17590   6.726   0.451   3.185  0.2192  1.5692 -0.5369
  157OSM    C5F17591   6.670   0.257   3.277  0.3853  0.7439  0.2798
  157OSM    H5F17592   6.637   0.159   3.238 -0.5734 -0.0617  2.8633
  157OSM    H5G17593   6.583   0.296   3.334 -1.4042 -1.2851 -0.9413
  157OSM    C6F17594   6.793   0.228   3.370  0.1485 -0.2102  0.6161
  157OSM    H6F17595   6.808   0.317   3.434  1.9313 -0.4391  0.5553
  157OSM    H6G17596   6.877   0.203   3.302 -0.7448  1.1375 -1.0968
  157OSM    C7F17597   6.766   0.109   3.458 -0.2243  0.3633  0.3805
  157OSM    H7F17598   6.766   0.021   3.390  0.8099  1.5768 -1.2841
  157OSM    H7G17599   6.663   0.128   3.495 -0.3535 -1.5622  1.1496
  157OSM    C8F17600   6.861   0.086   3.570 -0.2005 -0.0462  0.2848
  157OSM    H8F17601   6.830  -0.000   3.633 -1.1221  1.3377  1.7972
  157OSM    H8G17602   6.860   0.175   3.636 -0.7608  0.8581 -0.9027
  157OSM    C9F17603   7.002   0.066   3.507  0.7091 -0.5007 -0.4755
  157OSM    H9F17604   7.009   0.007   3.415  0.6033 -1.0482 -0.1406
  157OSM   C10F17605   7.115   0.126   3.556 -0.3452  0.5508 -0.6253
  157OSM   H10F17606   7.213   0.119   3.505 -0.0353  0.3642 -0.0182
  157OSM   C11F17607   7.127   0.208   3.680  0.0494 -0.6301  0.2259
  157OSM   H11F17608   7.215   0.169   3.736  0.9956  1.3944  0.2572
  157OSM   H11G17609   7.034   0.196   3.739  1.9638 -1.0446  3.4178
  157OSM   C12F17610   7.159   0.356   3.652 -0.3569 -0.2179 -1.0340
  157OSM   H12F17611   7.170   0.401   3.753 -1.6666 -2.1560  0.0546
  157OSM   H12G17612   7.072   0.401   3.600 -1.1498 -2.1715 -1.4975
  157OSM   C13F17613   7.278   0.382   3.558 -0.7230 -0.4461  0.4989
  157OSM   H13F17614   7.295   0.492   3.551  0.3192 -0.6468 -0.3721
  157OSM   H13G17615   7.253   0.345   3.457 -1.1450 -0.0951  0.4701
  157OSM   C14F17616   7.412   0.318   3.595 -0.6136  0.3343  0.2534
  157OSM   H14F17617   7.469   0.288   3.505 -2.0653 -0.3183 -0.4750
  157OSM   H14G17618   7.389   0.228   3.656  0.7469  0.0315  0.3566
  157OSM   C15F17619   7.506   0.408   3.677 -0.1949  1.0284 -0.9459
  157OSM   H15F17620   7.563   0.370   3.765 -1.0785  4.0851  1.1108
  157OSM   H15G17621   7.445   0.496   3.705 -1.8408 -0.0830 -0.9015
  157OSM   C16F17622   7.618   0.479   3.588  0.3218  0.2639  0.0400
  157OSM   H16F17623   7.571   0.504   3.491 -1.6265 -0.4823  0.7320
  157OSM   H16G17624   7.699   0.406   3.566 -1.0514 -1.1930 -0.3557
  157OSM   C17F17625   7.694   0.599   3.645 -0.5211 -0.6867 -0.1832
  157OSM   H17F17626   7.726   0.565   3.746  1.0181 -1.2400 -0.8273
  157OSM   H17G17627   7.623   0.683   3.659  2.3395  1.6529  1.6995
  157OSM   C18F17628   7.818   0.636   3.562  0.5421 -0.7622  0.4755
  157OSM   H18F17629   7.798   0.672   3.459  0.3566  0.6797  0.9970
  157OSM   H18G17630   7.887   0.549   3.551  2.3026  0.8433 -1.9952
  157OSM   H18H17631   7.877   0.714   3.614  2.2427  0.5393 -3.1192
  158OSM      N17632   3.804   4.835   2.286  0.3551 -0.1724 -0.0383
  158OSM    C1517633   3.824   4.691   2.309  0.5835  0.0324 -0.2686
  158OSM   H15A17634   3.822   4.664   2.414  0.3290 -2.3891 -0.8490
  158OSM   H15B17635   3.917   4.654   2.268 -0.3868 -3.8661  0.6138
  158OSM   H15C17636   3.751   4.631   2.257  0.9014 -0.8360  0.2691
  158OSM    C1417637   3.760   4.850   2.150  0.0596 -0.9195  0.7933
  158OSM   H14A17638   3.836   4.830   2.076  0.3962  0.5410  0.7111
  158OSM   H14B17639   3.717   4.945   2.124  1.8313 -0.3206 -0.0693
  158OSM   H14C17640   3.676   4.788   2.121 -0.4489  0.3379 -0.5503
  158OSM    C1317641   3.696   4.879   2.379 -0.4137  0.4028 -0.1799
  158OSM   H13A17642   3.670   4.983   2.360  2.9613  1.9276  2.3901
  158OSM   H13B17643   3.742   4.881   2.477 -0.4444  0.4499 -0.1665
  158OSM   H13C17644   3.615   4.808   2.373 -1.3106  1.4782 -1.7108
  158OSM    C1217645   3.932   4.910   2.294 -0.1016  0.0246 -0.4806
  158OSM   H12A17646   3.899   5.011   2.275 -1.5202 -0.3975 -0.4043
  158OSM   H12B17647   4.007   4.885   2.220 -1.0504 -0.1550 -1.4115
  158OSM    C1117648   4.005   4.904   2.428  0.8131 -0.0169  0.3307
  158OSM   H11A17649   4.026   4.801   2.466  0.6403  0.0335  0.5685
  158OSM   H11B17650   3.942   4.953   2.506  0.2920  1.2515 -0.8453
  158OSM      P17651   4.133   5.132   2.486  0.3688  0.0119  0.0459
  158OSM    O1317652   4.275   5.181   2.485  1.2641 -0.6107 -0.4392
  158OSM    O1417653   4.029   5.217   2.423 -0.1876 -0.1898 -0.2781
  158OSM    O1117654   4.089   5.116   2.636 -0.0055  0.5856  0.3070
  158OSM    O1217655   4.125   4.988   2.423  0.0749 -0.3159  0.2531
  158OSM    C1S17656   4.173   5.135   2.741  0.1846  0.0523 -0.3702
  158OSM    H1S17657   4.200   5.241   2.759 -1.2351 -0.0113  2.6781
  158OSM    H1T17658   4.267   5.077   2.734 -1.6221 -2.9042 -5.1358
  158OSM     NF17659   4.168   5.136   2.985 -0.2556 -0.2090  0.0323
  158OSM    HNF17660   4.244   5.079   3.017  0.4955 -0.2034 -1.6573
  158OSM    C2S17661   4.102   5.078   2.870 -0.2887  0.7256  0.2037
  158OSM    H2S17662   3.997   5.114   2.860 -0.0620  1.0746 -1.1196
  158OSM    C3S17663   4.107   4.928   2.868  0.5099 -0.1096  0.3902
  158OSM    H3S17664   4.213   4.897   2.864  0.3593 -0.5544 -0.2182
  158OSM     O317665   4.039   4.862   2.758 -0.3135 -0.0828  0.2800
  158OSM    HO317666   4.034   4.938   2.700 -0.8893 -1.2598 -1.2782
  158OSM    C4S17667   4.044   4.872   2.996  0.5218  0.6602  0.0047
  158OSM    H4S17668   3.937   4.890   3.014 -0.2301 -2.9418 -0.0197
  158OSM    C5S17669   4.111   4.798   3.089 -0.2608  0.2919  0.6557
  158OSM    H5S17670   4.213   4.767   3.063 -0.8602  0.4917 -2.2010
  158OSM    C6S17671   4.057   4.740   3.215 -0.0774 -0.0220 -0.7908
  158OSM    H6S17672   4.107   4.642   3.229 -0.4901  0.0190  1.2910
  158OSM    H6T17673   3.947   4.729   3.228 -0.0498 -0.4368 -0.9127
  158OSM    C7S17674   4.105   4.821   3.339 -0.0286  0.6986 -0.4385
  158OSM    H7S17675   4.078   4.928   3.332  2.4812  1.4285  0.0965
  158OSM    H7T17676   4.216   4.827   3.344  0.1790 -2.1205  0.0781
  158OSM    C8S17677   4.050   4.763   3.473 -0.4621  0.1665  0.5475
  158OSM    H8S17678   4.088   4.661   3.494 -0.6546 -0.0439 -0.1090
  158OSM    H8T17679   3.939   4.761   3.468 -0.4475 -1.3247  0.4648
  158OSM    C9S17680   4.098   4.853   3.585  0.2640  0.1483  0.5583
  158OSM    H9S17681   4.077   4.958   3.557  1.1397  0.6105  1.5216
  158OSM    H9T17682   4.208   4.842   3.594  0.2090 -0.8778  0.1178
  158OSM   C10S17683   4.047   4.810   3.724  0.3877 -0.0977  0.0136
  158OSM   H10S17684   4.094   4.713   3.749  3.1453  1.4529  1.3535
  158OSM   H10T17685   3.936   4.810   3.722  0.3788  1.0069 -0.6103
  158OSM   C11S17686   4.092   4.915   3.836 -0.5187  0.5202  0.3400
  158OSM   H11S17687   4.077   5.017   3.793 -1.7070  0.7611  1.2765
  158OSM   H11T17688   4.198   4.902   3.866 -0.4644 -0.9147 -0.4151
  158OSM   C12S17689   4.018   4.883   3.966 -0.9099 -0.0899 -0.9204
  158OSM   H12S17690   4.057   4.785   4.000  2.5028  1.2822 -0.5135
  158OSM   H12T17691   3.908   4.871   3.955 -1.0081 -1.1653  0.8786
  158OSM   C13S17692   4.047   4.987   4.072 -0.3732  0.1852  0.4608
  158OSM   H13S17693   3.993   5.083   4.064  1.2937  1.2673  1.5272
  158OSM   H13T17694   4.157   5.005   4.071 -0.1161 -1.0215 -2.2373
  158OSM   C14S17695   4.014   4.934   4.213  0.0638 -0.1737 -0.4197
  158OSM   H14S17696   4.054   4.834   4.241  0.1075  0.2412  1.1049
  158OSM   H14T17697   3.905   4.921   4.232 -0.1533  2.9291  0.9147
  158OSM   C15S17698   4.064   5.028   4.324  0.0517 -0.2247  0.2449
  158OSM   H15S17699   4.033   5.133   4.304 -1.4732 -0.6412  0.2442
  158OSM   H15T17700   4.175   5.025   4.323  0.2106  2.2483  1.9340
  158OSM   C16S17701   4.005   4.979   4.455 -0.8466 -0.0392 -0.4258
  158OSM   H16S17702   4.024   4.870   4.461 -0.1594  0.1419  1.1017
  158OSM   H16T17703   3.895   4.996   4.455 -0.7557  0.5621  0.5587
  158OSM   C17S17704   4.067   5.060   4.573 -0.2446 -0.1513  0.9425
  158OSM   H17S17705   4.175   5.071   4.549 -0.4432  0.7336  0.3990
  158OSM   H17T17706   4.067   5.000   4.667 -0.1981  0.1244  1.1228
  158OSM   C18S17707   4.006   5.203   4.596 -0.3548  0.7652 -0.2413
  158OSM   H18S17708   3.905   5.199   4.640 -0.4619 -1.8737 -0.5483
  158OSM   H18T17709   3.992   5.247   4.495 -1.0217 -0.3985 -0.6755
  158OSM   H18U17710   4.061   5.271   4.664 -1.6685  1.2172  0.3924
  158OSM    C1F17711   4.137   5.256   3.028  0.6073 -0.1401  0.4283
  158OSM     OF17712   4.049   5.318   2.970 -0.2229  0.0826  0.1336
  158OSM    C2F17713   4.206   5.312   3.146  0.0085 -0.7046  0.1567
  158OSM    H2F17714   4.257   5.405   3.115 -1.9712  0.4028  0.1060
  158OSM    H2G17715   4.279   5.240   3.190  0.9264 -0.1121 -0.3832
  158OSM    C3F17716   4.108   5.356   3.252 -0.3974  0.3335  0.0033
  158OSM    H3F17717   4.024   5.414   3.210 -0.5919 -0.3773 -0.6179
  158OSM    H3G17718   4.166   5.409   3.330 -0.1770  0.0170  0.0587
  158OSM    C4F17719   4.047   5.239   3.323  0.6229  0.2518  0.0174
  158OSM    H4F17720   4.120   5.183   3.386  0.8385  0.8686  0.3268
  158OSM    H4G17721   3.991   5.174   3.253 -2.0790  2.3900 -0.0047
  158OSM    C5F17722   3.936   5.281   3.428 -0.0552  0.1557  0.5314
  158OSM    H5F17723   3.899   5.183   3.466  0.4309 -0.4798 -0.5620
  158OSM    H5G17724   3.852   5.335   3.380  1.4384  2.3726  0.2609
  158OSM    C6F17725   3.972   5.373   3.545  0.3600  0.2165  0.5936
  158OSM    H6F17726   3.894   5.443   3.582  2.0254  1.2679  2.2699
  158OSM    H6G17727   4.053   5.439   3.506 -1.5475  2.0668 -0.4500
  158OSM    C7F17728   4.024   5.292   3.674  0.4780 -0.0162 -0.0142
  158OSM    H7F17729   4.084   5.208   3.632  0.1035 -0.1884 -0.2054
  158OSM    H7G17730   3.932   5.255   3.725  0.2793 -1.0839 -1.1018
  158OSM    C8F17731   4.115   5.367   3.770 -0.4696  0.1347 -0.7909
  158OSM    H8F17732   4.069   5.462   3.805 -0.5150  0.5402 -1.9097
  158OSM    H8G17733   4.202   5.395   3.707 -0.0962 -0.2042 -0.4275
  158OSM    C9F17734   4.154   5.274   3.894 -0.7384 -0.3772 -0.2332
  158OSM    H9F17735   4.068   5.230   3.946 -1.3697  0.5796 -0.4517
  158OSM   C10F17736   4.277   5.234   3.937  0.4296 -0.4947 -0.4483
  158OSM   H10F17737   4.285   5.151   4.009  3.3553 -0.9125 -1.1054
  158OSM   C11F17738   4.407   5.274   3.888 -0.2165  0.5579 -0.1396
  158OSM   H11F17739   4.434   5.365   3.946 -0.0091 -0.3245  1.1920
  158OSM   H11G17740   4.401   5.310   3.783  0.6424  0.9922 -0.0494
  158OSM   C12F17741   4.510   5.160   3.897 -0.1358 -0.2180  0.3254
  158OSM   H12F17742   4.578   5.171   3.809 -0.4290  1.5321  0.2810
  158OSM   H12G17743   4.473   5.056   3.887 -0.1753 -0.1893  0.1703
  158OSM   C13F17744   4.568   5.154   4.038 -0.2395 -0.0776 -0.4332
  158OSM   H13F17745   4.624   5.059   4.049 -0.5198 -0.1476  0.5302
  158OSM   H13G17746   4.480   5.151   4.105 -1.7283  1.6744 -2.2020
  158OSM   C14F17747   4.667   5.266   4.087 -0.3250  0.3042  0.1890
  158OSM   H14F17748   4.601   5.354   4.091  0.3609  0.9377 -1.7083
  158OSM   H14G17749   4.749   5.286   4.016  0.8850 -2.3111  0.7106
  158OSM   C15F17750   4.705   5.220   4.228 -0.1472 -0.2365  0.6501
  158OSM   H15F17751   4.756   5.121   4.220 -0.0921 -0.0899 -1.3530
  158OSM   H15G17752   4.610   5.204   4.283 -1.3460 -1.1403 -1.5570
  158OSM   C16F17753   4.789   5.328   4.299  0.4280  0.4738  0.5587
  158OSM   H16F17754   4.733   5.421   4.323  1.5548  0.9501  1.4251
  158OSM   H16G17755   4.861   5.370   4.226  2.0486 -1.8644  0.7407
  158OSM   C17F17756   4.873   5.275   4.416  0.4755  0.0897 -0.2498
  158OSM   H17F17757   4.803   5.253   4.499 -0.1011  1.7712 -0.2515
  158OSM   H17G17758   4.929   5.361   4.456 -1.4004  0.2192  2.3485
  158OSM   C18F17759   4.963   5.157   4.391 -0.3314  0.6761  0.2338
  158OSM   H18F17760   5.025   5.178   4.301  2.0404 -2.1696  1.0660
  158OSM   H18G17761   4.907   5.062   4.384 -0.1597  0.2610  3.3397
  158OSM   H18H17762   5.030   5.145   4.479 -2.1870  1.3287  1.8171
  159OSM      N17763   0.092   5.653   2.490  0.2643  0.1961 -0.2249
  159OSM    C1517764   0.218   5.564   2.508  0.5059 -0.8351  0.1718
  159OSM   H15A17765   0.288   5.621   2.568 -2.3898  0.2713  2.7507
  159OSM   H15B17766   0.259   5.550   2.409 -2.5878 -0.4594 -1.2764
  159OSM   H15C17767   0.185   5.470   2.550 -0.7482 -1.0925 -1.3125
  159OSM    C1417768   0.030   5.661   2.628 -0.1268 -0.6255  0.4082
  159OSM   H14A17769   0.081   5.735   2.688 -2.7055  2.2187 -0.6318
  159OSM   H14B17770   0.046   5.566   2.677  0.0071  0.3810  2.4017
  159OSM   H14C17771  -0.076   5.681   2.624 -0.3512 -1.7726  0.3536
  159OSM    C1317772   0.133   5.785   2.434 -0.9267  0.5423  0.2180
  159OSM   H13A17773   0.050   5.840   2.393 -0.7173 -0.1050 -1.0904
  159OSM   H13B17774   0.197   5.778   2.347  1.0557  2.3816  1.4192
  159OSM   H13C17775   0.191   5.846   2.503  1.3137  0.1670 -1.2318
  159OSM    C1217776   0.002   5.578   2.384 -0.6848 -0.0990 -0.4864
  159OSM   H12A17777   0.048   5.592   2.287 -1.4884  0.3817 -0.8050
  159OSM   H12B17778  -0.092   5.631   2.384 -0.9010 -0.4850 -0.3150
  159OSM    C1117779  -0.042   5.429   2.392 -0.4046 -0.3916  0.3127
  159OSM   H11A17780  -0.129   5.415   2.326 -1.1499 -1.1826  1.4275
  159OSM   H11B17781  -0.069   5.415   2.499 -0.4746  0.0455  0.3511
  159OSM      P17782   0.069   5.191   2.370  0.1776  0.0577  0.0452
  159OSM    O1317783  -0.061   5.141   2.313  0.0610  0.2285 -0.3623
  159OSM    O1417784   0.196   5.146   2.309  0.3336  0.2319  0.2533
  159OSM    O1117785   0.072   5.158   2.521 -0.1305  0.1504  0.5143
  159OSM    O1217786   0.069   5.349   2.360 -0.3306 -0.2424 -0.1861
  159OSM    C1S17787   0.144   5.229   2.619 -0.8211  0.5118  0.6164
  159OSM    H1S17788   0.114   5.335   2.612 -2.9943  0.1301  3.0190
  159OSM    H1T17789   0.251   5.220   2.590 -0.6292 -1.1536  1.7082
  159OSM     NF17790   0.161   5.271   2.846 -0.4150 -0.0029 -0.1704
  159OSM    HNF17791   0.233   5.246   2.910 -1.9580  0.5031  1.8476
  159OSM    C2S17792   0.122   5.170   2.751 -0.3070 -0.3352  0.1606
  159OSM    H2S17793   0.011   5.157   2.759 -0.3480  0.6518  1.4597
  159OSM    C3S17794   0.172   5.020   2.771 -0.0344 -0.1340 -0.1288
  159OSM    H3S17795   0.283   5.020   2.766  0.0569 -3.4635 -0.4586
  159OSM     O317796   0.136   4.934   2.667 -0.1232  1.0147 -0.4723
  159OSM    HO317797   0.127   4.993   2.591 -1.1938 -0.9429 -1.9453
  159OSM    C4S17798   0.123   4.975   2.909 -0.4183  0.1194  0.2511
  159OSM    H4S17799   0.018   5.002   2.928  0.0670  1.6274  0.8977
  159OSM    C5S17800   0.203   4.927   3.005 -0.0055  0.0263  0.0124
  159OSM    H5S17801   0.310   4.930   2.978 -0.1529 -1.7575 -0.9190
  159OSM    C6S17802   0.178   4.889   3.156  0.6821  0.4669  0.0298
  159OSM    H6S17803   0.232   4.958   3.225  0.1603  0.4102  0.5017
  159OSM    H6T17804   0.223   4.789   3.175 -0.5039 -0.7047 -2.8108
  159OSM    C7S17805   0.020   4.892   3.178 -0.2647  0.2640 -0.0400
  159OSM    H7S17806  -0.030   4.831   3.100 -1.8853  0.2002  0.9898
  159OSM    H7T17807  -0.032   4.991   3.171 -0.4798  0.3416  2.1515
  159OSM    C8S17808  -0.001   4.840   3.324  0.0833  0.0168  0.0785
  159OSM    H8S17809   0.031   4.734   3.328 -1.9629 -0.6186  0.9946
  159OSM    H8T17810  -0.112   4.837   3.333 -0.0846  0.9720 -1.2708
  159OSM    C9S17811   0.069   4.919   3.435 -0.4113  0.0632  0.4176
  159OSM    H9S17812   0.052   5.028   3.445  3.4417  0.7484  0.7765
  159OSM    H9T17813   0.179   4.909   3.422 -0.3988  2.0620 -1.5561
  159OSM   C10S17814   0.022   4.857   3.569 -0.3334 -0.2445  0.5263
  159OSM   H10S17815   0.051   4.750   3.572  1.4469  0.2104  2.5816
  159OSM   H10T17816  -0.089   4.863   3.575 -0.7988 -3.7552 -1.6887
  159OSM   C11S17817   0.084   4.917   3.692 -0.9700 -0.2374 -0.5526
  159OSM   H11S17818   0.195   4.910   3.684 -0.5709  3.0627  0.5360
  159OSM   H11T17819   0.043   4.869   3.783  0.0584 -1.2980 -0.6290
  159OSM   C12S17820   0.056   5.062   3.706  0.3512 -0.0160  0.1929
  159OSM   H12S17821  -0.051   5.086   3.687  0.3978  0.2471  0.2588
  159OSM   H12T17822   0.114   5.116   3.628 -0.2568  1.3709  0.6635
  159OSM   C13S17823   0.097   5.138   3.832  0.2144 -1.0431 -0.8358
  159OSM   H13S17824   0.069   5.245   3.841  3.1485 -0.3551  1.4703
  159OSM   H13T17825   0.208   5.142   3.838  0.1634 -0.3210 -0.2560
  159OSM   C14S17826   0.049   5.074   3.963 -0.7222  0.1626  0.4948
  159OSM   H14S17827   0.030   4.965   3.960  1.0055 -0.1646  0.2832
  159OSM   H14T17828  -0.054   5.107   3.990 -0.9628 -1.7142  2.0957
  159OSM   C15S17829   0.152   5.094   4.080 -1.1209  0.2911 -0.1121
  159OSM   H15S17830   0.169   5.198   4.116 -1.1147 -0.0763  1.0088
  159OSM   H15T17831   0.244   5.052   4.035 -1.7278 -0.8956 -0.2842
  159OSM   C16S17832   0.114   5.016   4.209  0.2016  0.4057  0.3849
  159OSM   H16S17833   0.194   5.013   4.286  1.0797  0.4597 -0.5150
  159OSM   H16T17834   0.116   4.910   4.176 -0.3171  0.6757 -0.5404
  159OSM   C17S17835  -0.023   5.068   4.262  1.1635  0.3267  0.1314
  159OSM   H17S17836  -0.096   5.030   4.187 -0.5864  1.5020  1.1354
  159OSM   H17T17837  -0.032   5.179   4.260 -4.0389  0.2000  1.5038
  159OSM   C18S17838  -0.068   5.008   4.393 -1.0149 -0.1160 -0.0389
  159OSM   H18S17839  -0.080   4.897   4.388 -0.7538 -0.2383  1.5833
  159OSM   H18T17840  -0.162   5.060   4.422 -0.3072  0.8476  0.5533
  159OSM   H18U17841   0.005   5.027   4.474 -2.9497 -0.7177  1.9665
  159OSM    C1F17842   0.103   5.388   2.881 -0.3335  0.5233  0.6107
  159OSM     OF17843   0.003   5.425   2.817  0.2173  0.0522 -0.2111
  159OSM    C2F17844   0.159   5.469   2.993  0.5983 -0.1756 -0.1118
  159OSM    H2F17845   0.191   5.568   2.954 -0.4527  0.2086 -0.0192
  159OSM    H2G17846   0.251   5.431   3.042  0.4962 -0.5940 -0.2412
  159OSM    C3F17847   0.041   5.491   3.095 -0.1954  0.4504 -0.8710
  159OSM    H3F17848   0.005   5.390   3.123 -2.7584  1.9707  1.8816
  159OSM    H3G17849  -0.050   5.548   3.064 -1.1205 -0.5205 -0.0403
  159OSM    C4F17850   0.103   5.555   3.219 -0.1221 -0.1350  0.4344
  159OSM    H4F17851   0.146   5.650   3.182  2.1303 -1.2536 -0.0773
  159OSM    H4G17852   0.193   5.501   3.257  0.8315  0.4913 -0.8656
  159OSM    C5F17853   0.021   5.591   3.338 -0.0950 -0.7238 -0.2648
  159OSM    H5F17854  -0.045   5.679   3.329  1.7969  0.8348  0.2784
  159OSM    H5G17855   0.104   5.621   3.406 -0.7849  1.3806 -0.2729
  159OSM    C6F17856  -0.051   5.470   3.393  0.1035 -0.4572  0.3786
  159OSM    H6F17857   0.000   5.371   3.387 -0.8567 -0.9351 -0.1935
  159OSM    H6G17858  -0.148   5.456   3.341  0.7830 -0.7508 -0.8677
  159OSM    C7F17859  -0.069   5.495   3.547  0.5331  0.1375 -0.2603
  159OSM    H7F17860   0.014   5.563   3.574 -1.0425  2.0565 -0.0059
  159OSM    H7G17861  -0.059   5.394   3.593 -2.4603 -1.2656 -2.3034
  159OSM    C8F17862  -0.208   5.558   3.585  0.2148 -0.0605  0.2922
  159OSM    H8F17863  -0.284   5.481   3.561  0.1029  0.0844  0.1786
  159OSM    H8G17864  -0.236   5.638   3.513 -3.0859  0.2219  1.6827
  159OSM    C9F17865  -0.207   5.629   3.715 -0.2731 -0.3372  0.3940
  159OSM    H9F17866  -0.123   5.701   3.711  0.7163 -1.5218 -0.7708
  159OSM   C10F17867  -0.258   5.593   3.835 -0.8894 -0.8435 -0.3309
  159OSM   H10F17868  -0.247   5.669   3.914  0.7655  0.0482 -1.3602
  159OSM   C11F17869  -0.335   5.474   3.865 -0.0878 -0.0120  0.4383
  159OSM   H11F17870  -0.311   5.380   3.811 -3.3615 -0.4924 -0.3767
  159OSM   H11G17871  -0.441   5.499   3.846 -0.2277 -0.4523  0.6043
  159OSM   C12F17872  -0.333   5.431   4.017 -0.0954 -0.1196 -0.2230
  159OSM   H12F17873  -0.399   5.344   4.036  2.0732 -1.8646 -0.3260
  159OSM   H12G17874  -0.386   5.515   4.068  0.2494 -0.3433  0.5141
  159OSM   C13F17875  -0.202   5.389   4.070  0.2236  0.5830  0.0766
  159OSM   H13F17876  -0.120   5.458   4.041  2.1069 -1.1649  0.9836
  159OSM   H13G17877  -0.166   5.292   4.030  0.1805 -0.1936  1.8366
  159OSM   C14F17878  -0.190   5.396   4.222  0.4141  0.1257  0.3601
  159OSM   H14F17879  -0.185   5.497   4.268 -0.1994 -0.7408  2.4145
  159OSM   H14G17880  -0.085   5.364   4.241  0.6811  1.4825  1.3689
  159OSM   C15F17881  -0.287   5.298   4.289 -0.0303  0.0637 -0.7802
  159OSM   H15F17882  -0.270   5.192   4.260  0.3775  0.1398 -0.8230
  159OSM   H15G17883  -0.389   5.328   4.258 -0.2894  0.0407  0.0196
  159OSM   C16F17884  -0.276   5.303   4.442  0.2083  0.3409 -0.2672
  159OSM   H16F17885  -0.174   5.290   4.483 -0.3879  3.0236  2.4094
  159OSM   H16G17886  -0.327   5.207   4.463  2.8112 -1.1954 -0.5150
  159OSM   C17F17887  -0.357   5.406   4.515 -0.8127  0.6858  0.1643
  159OSM   H17F17888  -0.463   5.400   4.483 -0.9449  1.4183  0.4422
  159OSM   H17G17889  -0.313   5.504   4.488 -0.2446  0.7974  1.4264
  159OSM   C18F17890  -0.346   5.386   4.671 -0.1517 -0.1059 -0.6683
  159OSM   H18F17891  -0.240   5.365   4.694 -0.3075 -0.2828 -0.0842
  159OSM   H18G17892  -0.390   5.286   4.693  0.1106  0.2162  1.5793
  159OSM   H18H17893  -0.382   5.470   4.735  2.0905  1.9653 -1.9803
  160OSM      N17894   5.941   5.392   2.221 -0.1400 -0.9076  0.2442
  160OSM    C1517895   5.815   5.385   2.132 -0.5199 -0.3527  0.4665
  160OSM   H15A17896   5.783   5.282   2.136 -0.6845 -0.2605  2.4301
  160OSM   H15B17897   5.846   5.404   2.030  0.1718 -0.0530  0.7270
  160OSM   H15C17898   5.736   5.454   2.156 -0.1957 -0.0559  0.7004
  160OSM    C1417899   6.044   5.324   2.144  0.6813  0.3970  0.6699
  160OSM   H14A17900   6.042   5.351   2.040 -0.8912 -0.2069  0.5121
  160OSM   H14B17901   6.024   5.218   2.143 -2.0005  0.7928  1.9790
  160OSM   H14C17902   6.141   5.345   2.185 -0.0666  1.3897  2.0297
  160OSM    C1317903   5.962   5.536   2.232 -0.5778  0.2710 -0.0167
  160OSM   H13A17904   5.966   5.587   2.137 -0.4986 -0.5004 -0.4387
  160OSM   H13B17905   6.058   5.559   2.277 -0.7951  0.8006  0.1807
  160OSM   H13C17906   5.883   5.586   2.286  0.5337  3.2216 -0.9141
  160OSM    C1217907   5.914   5.326   2.354 -0.2100 -0.0913 -0.0167
  160OSM   H12A17908   5.881   5.223   2.350 -1.4944  0.1433  2.6889
  160OSM   H12B17909   5.827   5.367   2.402 -0.7227 -1.1624 -0.0126
  160OSM    C1117910   6.031   5.328   2.455  0.6106 -0.5381  0.0403
  160OSM   H11A17911   5.977   5.328   2.552 -4.5767 -0.2898 -2.5276
  160OSM   H11B17912   6.087   5.424   2.460 -2.2048  1.1527  1.1813
  160OSM      P17913   6.128   5.097   2.531 -0.0631 -0.2909 -0.7583
  160OSM    O1317914   6.000   5.019   2.539  0.0498  0.0607 -0.7270
  160OSM    O1417915   6.249   5.024   2.492  0.4465 -0.6008 -0.3156
  160OSM    O1117916   6.151   5.165   2.665  0.2858 -0.9017 -0.2462
  160OSM    O1217917   6.113   5.218   2.430 -0.4474  0.6624 -0.4424
  160OSM    C1S17918   6.057   5.160   2.770 -0.6265 -0.8000 -0.1048
  160OSM    H1S17919   6.009   5.060   2.778 -0.6027 -0.7136  1.4037
  160OSM    H1T17920   5.973   5.227   2.740 -0.3588 -0.6044 -0.4244
  160OSM     NF17921   6.014   5.166   3.013 -0.8791 -0.5862 -0.2635
  160OSM    HNF17922   5.982   5.237   3.075 -0.0651 -3.0241  3.2204
  160OSM    C2S17923   6.108   5.210   2.912  0.1284 -0.0496  0.5718
  160OSM    H2S17924   6.203   5.159   2.943  0.1757 -0.0412  0.4413
  160OSM    C3S17925   6.140   5.368   2.898  0.9138  0.5593 -0.2238
  160OSM    H3S17926   6.039   5.414   2.892 -0.5197 -2.4693 -1.1829
  160OSM     O317927   6.224   5.408   2.796  0.1528 -0.0513  0.2987
  160OSM    HO317928   6.255   5.330   2.748 -0.2499 -1.3346  2.0230
  160OSM    C4S17929   6.183   5.402   3.034 -0.1023 -0.8744  0.2104
  160OSM    H4S17930   6.099   5.444   3.092  0.0863  0.5585 -0.4994
  160OSM    C5S17931   6.305   5.387   3.085 -0.9435  0.6611  0.0984
  160OSM    H5S17932   6.387   5.344   3.026 -0.0267  2.2934  0.1315
  160OSM    C6S17933   6.337   5.424   3.228  0.1953  0.2046 -0.4035
  160OSM    H6S17934   6.244   5.450   3.284  1.2810  3.0034  0.2935
  160OSM    H6T17935   6.398   5.516   3.240 -0.1583  0.3876  0.0073
  160OSM    C7S17936   6.413   5.315   3.312  0.5224 -0.5872 -0.2979
  160OSM    H7S17937   6.422   5.364   3.411  1.9736 -0.3700 -0.5075
  160OSM    H7T17938   6.517   5.299   3.276  1.2287 -1.8792  2.0872
  160OSM    C8S17939   6.354   5.177   3.323  0.2530  0.7505 -0.0464
  160OSM    H8S17940   6.412   5.122   3.401  0.6228 -0.3172 -1.0280
  160OSM    H8T17941   6.364   5.128   3.224 -2.4813 -0.9064  0.3849
  160OSM    C9S17942   6.207   5.164   3.366 -0.1141 -0.3304 -0.0698
  160OSM    H9S17943   6.189   5.055   3.372  0.7660 -0.5078 -0.4673
  160OSM    H9T17944   6.145   5.213   3.288  0.7061 -0.6835 -0.9670
  160OSM   C10S17945   6.189   5.229   3.506 -0.4429  0.4932 -0.0951
  160OSM   H10S17946   6.226   5.333   3.504  0.9264  0.0270 -2.0878
  160OSM   H10T17947   6.253   5.170   3.574 -2.3296 -1.5733  0.0221
  160OSM   C11S17948   6.046   5.214   3.560 -0.3762 -0.4580 -0.3737
  160OSM   H11S17949   6.000   5.117   3.533 -0.1531 -0.8137  0.5182
  160OSM   H11T17950   5.987   5.300   3.519  1.4812  0.7901 -0.5578
  160OSM   C12S17951   6.059   5.215   3.717 -0.3331 -0.3364 -0.5850
  160OSM   H12S17952   6.146   5.160   3.759  0.2125  0.5487 -0.5422
  160OSM   H12T17953   5.965   5.169   3.756 -1.5186  1.2856 -1.4213
  160OSM   C13S17954   6.062   5.355   3.786 -0.2468 -0.8035  0.4271
  160OSM   H13S17955   5.963   5.405   3.779  0.9361  1.5772 -0.2553
  160OSM   H13T17956   6.127   5.420   3.723  0.3143  1.0091  2.7378
  160OSM   C14S17957   6.089   5.359   3.931  0.5182  0.5263 -0.2826
  160OSM   H14S17958   6.183   5.303   3.949  0.4054  0.8435  1.5878
  160OSM   H14T17959   5.997   5.315   3.977 -0.4506  0.9596 -1.7560
  160OSM   C15S17960   6.104   5.498   3.993  0.3948 -0.7460  0.2056
  160OSM   H15S17961   6.018   5.564   3.969  1.8591  1.0695 -0.2257
  160OSM   H15T17962   6.188   5.548   3.941 -0.5786 -0.3858 -1.0570
  160OSM   C16S17963   6.113   5.481   4.146 -0.4042  0.2854  0.6661
  160OSM   H16S17964   6.186   5.399   4.161 -0.5802  0.0479  0.2247
  160OSM   H16T17965   6.012   5.464   4.188 -0.2387  1.5146  1.6234
  160OSM   C17S17966   6.159   5.606   4.206 -0.2600 -0.0079 -0.7327
  160OSM   H17S17967   6.080   5.684   4.207  0.8940  1.2099 -1.3662
  160OSM   H17T17968   6.243   5.649   4.148 -0.7247  1.7115 -0.1974
  160OSM   C18S17969   6.197   5.601   4.357 -0.8344 -0.3802  0.6861
  160OSM   H18S17970   6.117   5.542   4.406 -0.2224 -1.7308  0.0887
  160OSM   H18T17971   6.210   5.698   4.410 -1.6507 -1.0637  2.1927
  160OSM   H18U17972   6.289   5.539   4.358  0.1753  1.0456 -0.1281
  160OSM    C1F17973   5.991   5.036   3.039  0.1658  0.0693 -0.2360
  160OSM     OF17974   6.024   4.942   2.971 -0.7936  0.4267 -0.2946
  160OSM    C2F17975   5.909   5.015   3.167  0.2614 -0.0891  0.0461
  160OSM    H2F17976   5.803   5.019   3.136  0.4393  2.6092 -0.5374
  160OSM    H2G17977   5.931   5.096   3.240  1.5865 -0.0239 -0.3903
  160OSM    C3F17978   5.920   4.876   3.226 -0.0572  0.2111 -0.2087
  160OSM    H3F17979   6.017   4.857   3.277 -0.0196 -1.1622 -0.7590
  160OSM    H3G17980   5.910   4.795   3.151 -0.2134 -0.5530  0.6226
  160OSM    C4F17981   5.808   4.832   3.330  0.0955 -0.0528 -0.1865
  160OSM    H4F17982   5.830   4.725   3.350 -0.5239 -0.0125  0.7576
  160OSM    H4G17983   5.710   4.828   3.277  0.8671  1.2304 -1.8087
  160OSM    C5F17984   5.824   4.908   3.459  0.6853 -0.4007  0.1637
  160OSM    H5F17985   5.831   5.017   3.439 -0.5443 -0.0719  1.3700
  160OSM    H5G17986   5.917   4.877   3.511  1.3779 -2.3206 -2.0284
  160OSM    C6F17987   5.713   4.877   3.558 -0.0676 -1.0475  0.5190
  160OSM    H6F17988   5.706   4.766   3.561  0.9257 -1.1121  0.8143
  160OSM    H6G17989   5.617   4.920   3.522  0.1297  1.5325  2.7217
  160OSM    C7F17990   5.746   4.936   3.695 -0.1970 -0.0438 -0.2650
  160OSM    H7F17991   5.725   5.044   3.679  2.9415  0.4361 -1.9149
  160OSM    H7G17992   5.854   4.929   3.721 -0.3189 -3.3392 -0.2966
  160OSM    C8F17993   5.660   4.882   3.803 -0.8969  0.4805  0.5556
  160OSM    H8F17994   5.682   4.774   3.819  0.6478  0.5254 -1.0385
  160OSM    H8G17995   5.554   4.876   3.772 -0.9516  1.1052  0.6142
  160OSM    C9F17996   5.667   4.956   3.938  0.0232 -0.7994 -0.0093
  160OSM    H9F17997   5.653   5.064   3.926  1.8111 -0.8141 -3.3437
  160OSM   C10F17998   5.682   4.895   4.057  0.2703 -0.2474  0.4624
  160OSM   H10F17999   5.684   4.960   4.146 -1.6878  0.2250  0.2070
  160OSM   C11F18000   5.706   4.749   4.081  0.1856 -0.2320 -0.1661
  160OSM   H11F18001   5.775   4.704   4.006  2.7597  1.4174  1.0625
  160OSM   H11G18002   5.615   4.686   4.079 -1.1030  1.5405 -0.2901
  160OSM   C12F18003   5.790   4.728   4.214 -0.1576 -0.1725  0.0684
  160OSM   H12F18004   5.896   4.750   4.191 -0.3652  0.8284  0.0434
  160OSM   H12G18005   5.797   4.618   4.230 -0.1541 -0.2367 -0.3522
  160OSM   C13F18006   5.731   4.800   4.342 -0.0039 -0.4131  0.2045
  160OSM   H13F18007   5.620   4.800   4.347 -0.1021 -2.1113 -1.0773
  160OSM   H13G18008   5.762   4.907   4.333 -1.9522  0.3021  1.3309
  160OSM   C14F18009   5.791   4.753   4.469 -0.0936 -0.3062  0.2770
  160OSM   H14F18010   5.899   4.738   4.446 -0.4248 -2.0301 -0.3327
  160OSM   H14G18011   5.756   4.649   4.490 -0.9425 -0.1197 -0.1603
  160OSM   C15F18012   5.755   4.845   4.591 -0.0400  0.4835 -0.3530
  160OSM   H15F18013   5.647   4.869   4.584  0.4069  2.1646 -2.1829
  160OSM   H15G18014   5.811   4.939   4.572  1.2148 -0.2665 -0.5136
  160OSM   C16F18015   5.786   4.781   4.729  0.0921 -0.7704  0.6949
  160OSM   H16F18016   5.883   4.730   4.745  0.0584 -0.9879  0.2296
  160OSM   H16G18017   5.717   4.694   4.732 -0.3564 -0.5228 -1.2864
  160OSM   C17F18018   5.761   4.879   4.850  0.1084  0.0384 -0.6993
  160OSM   H17F18019   5.797   4.829   4.942  0.1002  1.7584  0.2729
  160OSM   H17G18020   5.655   4.908   4.863  0.1444 -0.8593  2.2812
  160OSM   C18F18021   5.840   5.013   4.835  0.0104  0.1891 -0.6837
  160OSM   H18F18022   5.795   5.080   4.759  1.1824 -0.4224 -1.9782
  160OSM   H18G18023   5.944   4.999   4.796 -0.4584 -2.5227 -1.1624
  160OSM   H18H18024   5.850   5.069   4.930  0.9751  0.6056 -1.0199
  161OSM      N18025   6.430   4.605   2.509  0.4281 -0.5694 -0.0174
  161OSM    C1518026   6.563   4.550   2.489 -0.3368  0.4213 -0.5282
  161OSM   H15A18027   6.572   4.445   2.466  1.0258  0.3358  0.2908
  161OSM   H15B18028   6.625   4.562   2.576 -0.5589 -1.8883  0.0198
  161OSM   H15C18029   6.613   4.590   2.401 -0.2900  1.0924 -0.2035
  161OSM    C1418030   6.390   4.589   2.655 -0.1791  0.3333 -0.5630
  161OSM   H14A18031   6.297   4.638   2.678 -0.4513 -0.2921 -0.2787
  161OSM   H14B18032   6.476   4.607   2.717 -0.7001  0.9383 -0.0023
  161OSM   H14C18033   6.366   4.490   2.691  1.4162  1.1726  3.3365
  161OSM    C1318034   6.443   4.766   2.498  0.8230  0.1264 -0.2804
  161OSM   H13A18035   6.471   4.793   2.397 -0.2287  0.4224 -0.5165
  161OSM   H13B18036   6.507   4.810   2.573 -2.1862 -0.0603  2.6428
  161OSM   H13C18037   6.351   4.821   2.517  1.8561  2.8663 -2.4783
  161OSM    C1218038   6.318   4.555   2.422 -0.1908  0.3003  0.1899
  161OSM   H12A18039   6.316   4.616   2.333  1.6578  0.5012  0.2471
  161OSM   H12B18040   6.225   4.574   2.474  0.7145  1.3958  1.4736
  161OSM    C1118041   6.319   4.409   2.376 -0.5705 -0.2201  0.3724
  161OSM   H11A18042   6.421   4.387   2.337 -1.1126 -2.5466  0.1068
  161OSM   H11B18043   6.241   4.399   2.298  0.1224 -1.8037 -0.1651
  161OSM      P18044   6.159   4.250   2.498  0.5937  0.3401  0.0616
  161OSM    O1318045   6.044   4.339   2.473 -0.1006 -0.2533 -0.1551
  161OSM    O1418046   6.168   4.135   2.406 -0.5293 -0.6541  0.9230
  161OSM    O1118047   6.153   4.193   2.644  0.3009 -0.4286 -0.6749
  161OSM    O1218048   6.296   4.326   2.491  0.1204 -0.3964 -0.1387
  161OSM    C1S18049   6.222   4.259   2.746 -0.7295  0.1938 -0.4443
  161OSM    H1S18050   6.205   4.369   2.738 -1.5563  0.4263  2.7821
  161OSM    H1T18051   6.331   4.248   2.735 -0.9120 -0.4101 -1.7306
  161OSM     NF18052   6.250   4.289   2.995 -0.3233  0.4397  0.6058
  161OSM    HNF18053   6.326   4.250   3.045 -0.3729 -1.6413 -0.8235
  161OSM    C2S18054   6.189   4.207   2.886 -0.5945 -0.0110  0.3197
  161OSM    H2S18055   6.080   4.205   2.907 -0.2391 -0.3909  2.3435
  161OSM    C3S18056   6.226   4.051   2.900 -0.5876 -0.8206  0.3418
  161OSM    H3S18057   6.334   4.053   2.876 -1.1802 -0.5412 -2.7446
  161OSM     O318058   6.180   3.970   2.790 -1.0978 -0.2892 -0.0903
  161OSM    HO318059   6.172   4.041   2.727 -1.0703 -0.8852 -0.7811
  161OSM    C4S18060   6.197   3.984   3.028 -1.0437 -0.2038 -0.5261
  161OSM    H4S18061   6.287   3.977   3.091  1.7102  0.2214 -4.1069
  161OSM    C5S18062   6.076   3.953   3.076 -0.1611 -0.0866  0.3397
  161OSM    H5S18063   5.989   3.984   3.015 -1.4602 -1.9392  1.1233
  161OSM    C6S18064   6.051   3.876   3.204  0.1426 -0.6894 -0.9050
  161OSM    H6S18065   6.095   3.775   3.185 -1.8783 -1.4484 -1.9898
  161OSM    H6T18066   5.948   3.840   3.226  0.5532  0.2936  3.3908
  161OSM    C7S18067   6.109   3.938   3.335 -0.1937 -0.7080  0.0822
  161OSM    H7S18068   6.073   4.043   3.335 -0.9801 -0.9686 -0.1538
  161OSM    H7T18069   6.218   3.940   3.316 -0.2354 -0.8389 -0.1861
  161OSM    C8S18070   6.062   3.866   3.459  0.4776 -1.0194  0.4014
  161OSM    H8S18071   6.104   3.763   3.464  0.6083 -0.9891 -0.0502
  161OSM    H8T18072   5.951   3.871   3.466  0.3028  2.5070 -2.0539
  161OSM    C9S18073   6.117   3.939   3.582  0.3242  0.5293 -0.4233
  161OSM    H9S18074   6.069   4.038   3.596  0.9295  0.5789  1.5475
  161OSM    H9T18075   6.227   3.945   3.569  0.6251 -2.3693  0.1197
  161OSM   C10S18076   6.086   3.863   3.711 -0.1733  0.1553  0.3840
  161OSM   H10S18077   6.154   3.776   3.717 -1.0226 -0.7856 -2.1572
  161OSM   H10T18078   5.985   3.816   3.704  0.2010 -0.6938  0.6123
  161OSM   C11S18079   6.106   3.952   3.837 -0.0700  0.3176  0.5201
  161OSM   H11S18080   6.035   4.036   3.826 -2.2267 -1.6540 -2.2017
  161OSM   H11T18081   6.209   3.995   3.833 -0.0614  0.2343 -1.0914
  161OSM   C12S18082   6.077   3.866   3.964 -0.2828  0.4348  0.5015
  161OSM   H12S18083   6.148   3.781   3.958 -0.5305  0.2641 -0.1229
  161OSM   H12T18084   5.981   3.816   3.939 -0.5705  1.3424 -0.2985
  161OSM   C13S18085   6.103   3.947   4.093 -0.4276 -0.0244  0.9543
  161OSM   H13S18086   6.032   4.032   4.079  0.1357  0.0922 -1.7640
  161OSM   H13T18087   6.198   4.002   4.081 -1.5182  2.0262  1.1710
  161OSM   C14S18088   6.098   3.855   4.213  0.1696 -0.3006  0.2846
  161OSM   H14S18089   6.177   3.777   4.211 -0.0911 -0.6199  1.4805
  161OSM   H14T18090   6.001   3.803   4.223  0.3882 -0.9446 -0.7841
  161OSM   C15S18091   6.096   3.936   4.347  0.5684  0.1332 -0.0960
  161OSM   H15S18092   6.035   4.025   4.319  0.1511 -0.5402 -1.4474
  161OSM   H15T18093   6.198   3.976   4.361  0.7266 -0.5652  0.8206
  161OSM   C16S18094   6.032   3.859   4.465  0.5331 -0.2936 -0.4117
  161OSM   H16S18095   5.929   3.828   4.436  0.8103 -1.3995 -0.2701
  161OSM   H16T18096   6.017   3.935   4.545 -2.4433  0.0716 -1.1820
  161OSM   C17S18097   6.120   3.741   4.514 -0.3037  0.1009 -0.2899
  161OSM   H17S18098   6.207   3.781   4.571 -0.2325 -0.0948 -0.2591
  161OSM   H17T18099   6.161   3.691   4.424 -1.1588  1.8343 -1.7139
  161OSM   C18S18100   6.057   3.646   4.611 -0.2006 -0.2891  0.0377
  161OSM   H18S18101   6.136   3.590   4.665  1.2239  1.4539 -0.1265
  161OSM   H18T18102   6.001   3.577   4.545 -0.6722  1.8026 -1.9160
  161OSM   H18U18103   5.983   3.702   4.672 -2.0403 -2.3341 -0.2078
  161OSM    C1F18104   6.200   4.409   3.025  0.2070  0.2149 -0.2498
  161OSM     OF18105   6.095   4.443   2.973 -0.8409 -0.0051  0.9208
  161OSM    C2F18106   6.282   4.492   3.125  0.3855 -0.0324 -0.5488
  161OSM    H2F18107   6.390   4.475   3.107  0.4677 -0.7648  0.5202
  161OSM    H2G18108   6.260   4.444   3.223  0.2119 -1.1203 -1.1002
  161OSM    C3F18109   6.240   4.640   3.128 -0.3556 -0.7200 -0.5601
  161OSM    H3F18110   6.131   4.647   3.147 -0.1585  1.5050 -0.0146
  161OSM    H3G18111   6.244   4.689   3.028 -2.5688  1.9460  0.5124
  161OSM    C4F18112   6.303   4.711   3.238  0.0499 -0.5505  0.2128
  161OSM    H4F18113   6.278   4.818   3.227  1.8741  0.0345  1.3074
  161OSM    H4G18114   6.411   4.722   3.218  0.1259  0.2677  0.9898
  161OSM    C5F18115   6.279   4.667   3.388  0.5461  0.0227  0.6307
  161OSM    H5F18116   6.306   4.561   3.409  0.5800  0.6088  4.1086
  161OSM    H5G18117   6.171   4.682   3.404  0.1022 -0.1399 -1.8807
  161OSM    C6F18118   6.363   4.754   3.480  0.3607 -0.1874 -0.0521
  161OSM    H6F18119   6.342   4.860   3.453  0.3921 -0.3186 -0.6114
  161OSM    H6G18120   6.470   4.730   3.463  1.4294  1.6340  3.1810
  161OSM    C7F18121   6.331   4.723   3.631 -0.5882  0.1654 -0.7616
  161OSM    H7F18122   6.329   4.613   3.643 -1.1649  0.3467  1.2008
  161OSM    H7G18123   6.228   4.759   3.655 -0.2752  0.8257 -0.3801
  161OSM    C8F18124   6.439   4.787   3.725 -0.6476  0.3518  0.2326
  161OSM    H8F18125   6.540   4.756   3.688  0.4306  1.4040  2.1126
  161OSM    H8G18126   6.427   4.753   3.830 -0.9973  0.2605  0.1626
  161OSM    C9F18127   6.439   4.935   3.700  0.3886  0.1086 -0.4887
  161OSM    H9F18128   6.478   4.969   3.603  2.7104  0.3920  0.4699
  161OSM   C10F18129   6.421   5.029   3.796  0.7636 -0.2106  0.0809
  161OSM   H10F18130   6.420   5.136   3.770  2.5743 -0.6058 -1.9384
  161OSM   C11F18131   6.381   4.994   3.938  0.1907 -0.1223  0.0452
  161OSM   H11F18132   6.417   5.075   4.005 -0.4012  1.0494 -1.0139
  161OSM   H11G18133   6.437   4.901   3.964 -0.8257 -0.6192  0.5133
  161OSM   C12F18134   6.238   4.953   3.980  0.7939  0.3723 -0.0761
  161OSM   H12F18135   6.197   4.879   3.908  1.2053  0.1408 -0.0744
  161OSM   H12G18136   6.183   5.048   3.963  0.1176 -0.1197 -0.6913
  161OSM   C13F18137   6.226   4.909   4.128 -0.1118 -0.7935  0.0523
  161OSM   H13F18138   6.287   4.818   4.146 -0.0958 -0.6601  0.7316
  161OSM   H13G18139   6.123   4.892   4.168 -0.5194  0.7664 -0.2462
  161OSM   C14F18140   6.293   5.003   4.235  0.1274 -0.2658  0.6665
  161OSM   H14F18141   6.266   5.107   4.204  1.6206  0.1641  0.6836
  161OSM   H14G18142   6.403   4.994   4.217  0.2477  1.6014  0.2098
  161OSM   C15F18143   6.262   4.965   4.382 -0.6993 -0.2560  0.6871
  161OSM   H15F18144   6.339   4.995   4.456 -0.8571 -1.8014  1.5104
  161OSM   H15G18145   6.252   4.855   4.389 -1.4254 -0.3475 -1.1721
  161OSM   C16F18146   6.123   5.015   4.424 -0.1880  0.1207 -1.0741
  161OSM   H16F18147   6.112   4.971   4.526 -1.9911  1.9592 -0.3875
  161OSM   H16G18148   6.034   4.981   4.366 -0.9061 -0.9391  0.5582
  161OSM   C17F18149   6.117   5.169   4.425  0.2939  0.0678  0.1188
  161OSM   H17F18150   6.106   5.206   4.321  0.2785  1.3436  0.5585
  161OSM   H17G18151   6.209   5.211   4.472 -0.3765  0.8005  0.7999
  161OSM   C18F18152   5.991   5.213   4.505  0.0978  0.1733  0.5711
  161OSM   H18F18153   6.002   5.189   4.613 -0.5739  0.9244  0.8174
  161OSM   H18G18154   5.900   5.164   4.464  1.8149 -1.8341 -1.0493
  161OSM   H18H18155   5.968   5.319   4.481 -1.5794 -0.4982 -1.0403
  162OSM      N18156   1.724   2.795   2.353 -0.0356  0.2864  0.8463
  162OSM    C1518157   1.868   2.783   2.308 -0.0718 -0.1308  0.2686
  162OSM   H15A18158   1.889   2.858   2.234  1.4582 -1.7743 -1.0479
  162OSM   H15B18159   1.876   2.685   2.263 -0.7202 -1.2211  2.3790
  162OSM   H15C18160   1.943   2.784   2.387  0.5571  0.1185 -0.3254
  162OSM    C1418161   1.624   2.765   2.239  0.6430  0.2574 -0.4105
  162OSM   H14A18162   1.525   2.747   2.279 -0.0863  0.8524 -1.8928
  162OSM   H14B18163   1.653   2.673   2.190  1.3984 -0.8125  1.8892
  162OSM   H14C18164   1.612   2.839   2.162 -2.3871 -0.9247 -1.2273
  162OSM    C1318165   1.709   2.680   2.452  0.4201 -0.5786 -0.1403
  162OSM   H13A18166   1.703   2.588   2.396  1.4466 -1.3881  1.0311
  162OSM   H13B18167   1.613   2.691   2.502  0.8455  0.5686  0.4604
  162OSM   H13C18168   1.775   2.676   2.537  0.1207  0.2557  0.1440
  162OSM    C1218169   1.703   2.931   2.422  0.0042 -0.4329 -0.0142
  162OSM   H12A18170   1.601   2.939   2.459  0.4372 -2.8528  2.0332
  162OSM   H12B18171   1.711   3.008   2.347  0.2980  1.2441  1.6744
  162OSM    C1118172   1.791   2.977   2.546 -0.1306  0.0458  0.5915
  162OSM   H11A18173   1.764   3.080   2.576 -0.0863 -0.0512  0.9701
  162OSM   H11B18174   1.896   2.981   2.508  0.0607  0.0744  1.1133
  162OSM      P18175   1.644   2.892   2.737  0.1240  0.0689  0.1401
  162OSM    O1318176   1.546   2.975   2.664  0.3193  0.1592  0.5499
  162OSM    O1418177   1.611   2.755   2.764 -0.0094 -0.0633  0.1115
  162OSM    O1118178   1.681   2.960   2.876 -0.0514  0.0437  0.4939
  162OSM    O1218179   1.777   2.883   2.648  0.1437 -0.3890 -0.1178
  162OSM    C1S18180   1.809   2.936   2.933  0.0681 -0.0499 -0.0974
  162OSM    H1S18181   1.876   3.018   2.900  3.9578 -2.3403  1.4061
  162OSM    H1T18182   1.859   2.842   2.902  0.0927 -0.3191  0.7291
  162OSM     NF18183   1.941   2.915   3.145  0.0686 -0.0786  0.7786
  162OSM    HNF18184   1.972   2.822   3.167 -2.0207 -0.7795  0.9258
  162OSM    C2S18185   1.807   2.927   3.087 -0.4027  1.0315 -0.6859
  162OSM    H2S18186   1.756   3.017   3.129 -1.8334  0.4863 -1.1988
  162OSM    C3S18187   1.714   2.807   3.128 -0.8571  0.5158  0.4503
  162OSM    H3S18188   1.747   2.709   3.087 -3.9525 -0.2270 -0.5664
  162OSM     O318189   1.584   2.825   3.083  0.5357  0.0673  0.1164
  162OSM    HO318190   1.592   2.890   3.012  1.0537  0.2589  0.3479
  162OSM    C4S18191   1.707   2.784   3.278  0.2297  0.1853 -0.7252
  162OSM    H4S18192   1.767   2.696   3.305  1.0240  1.3387  1.5573
  162OSM    C5S18193   1.653   2.850   3.383 -0.0862  0.2133 -0.8125
  162OSM    H5S18194   1.627   2.956   3.368 -1.6453 -0.2054 -1.3102
  162OSM    C6S18195   1.667   2.805   3.521  0.5182 -0.2963  0.2416
  162OSM    H6S18196   1.707   2.702   3.523 -0.6379 -0.7609  1.8883
  162OSM    H6T18197   1.571   2.791   3.575  0.0556 -0.0227 -0.4914
  162OSM    C7S18198   1.755   2.911   3.592  0.3421  0.0271  0.2120
  162OSM    H7S18199   1.688   3.000   3.594 -0.9909 -0.9637  0.9975
  162OSM    H7T18200   1.854   2.926   3.545 -0.2671  0.9831 -0.8092
  162OSM    C8S18201   1.777   2.869   3.734  0.3588 -0.2483  0.7021
  162OSM    H8S18202   1.817   2.766   3.732  0.8361 -0.0646 -0.2016
  162OSM    H8T18203   1.688   2.868   3.800  0.0499  0.6050  0.3160
  162OSM    C9S18204   1.874   2.954   3.821  0.5475 -0.1672 -0.1267
  162OSM    H9S18205   1.866   3.064   3.806  1.1614 -0.3171 -1.7575
  162OSM    H9T18206   1.975   2.915   3.794  2.1198  2.8126  0.9617
  162OSM   C10S18207   1.849   2.938   3.979  0.1790  0.0878 -0.1631
  162OSM   H10S18208   1.750   2.984   4.001  0.5919  1.0478 -0.2822
  162OSM   H10T18209   1.923   2.993   4.041  0.0784  0.8478 -0.7131
  162OSM   C11S18210   1.851   2.785   4.022  0.0054 -0.5239 -0.0848
  162OSM   H11S18211   1.943   2.730   3.992  0.2928 -1.8069  2.8482
  162OSM   H11T18212   1.763   2.732   3.980  0.0552 -0.4131 -0.3361
  162OSM   C12S18213   1.846   2.765   4.178  0.0159 -0.1030 -0.0584
  162OSM   H12S18214   1.775   2.682   4.196 -0.1228  0.3148  1.5608
  162OSM   H12T18215   1.807   2.856   4.228 -0.2409 -0.2155 -0.0522
  162OSM   C13S18216   1.991   2.736   4.237 -0.1493  0.4316 -0.3863
  162OSM   H13S18217   2.059   2.823   4.226 -1.0048  1.2815  0.8312
  162OSM   H13T18218   2.042   2.665   4.168 -2.7500 -0.8513 -1.1305
  162OSM   C14S18219   1.994   2.691   4.378  0.0760  0.3101  0.1121
  162OSM   H14S18220   2.093   2.649   4.406  0.0144  0.0762 -0.0185
  162OSM   H14T18221   1.924   2.609   4.402  0.0833  0.4160  0.4926
  162OSM   C15S18222   1.959   2.806   4.473  0.0393  0.3742 -0.7115
  162OSM   H15S18223   1.852   2.832   4.474  0.0884  0.7521  2.1367
  162OSM   H15T18224   2.011   2.901   4.447 -0.1240  0.1201 -2.0855
  162OSM   C16S18225   1.996   2.781   4.615 -1.0171  0.4887 -0.3576
  162OSM   H16S18226   2.105   2.762   4.616 -1.0602  0.1930  1.5052
  162OSM   H16T18227   1.933   2.693   4.641 -1.3399  0.4071 -1.3735
  162OSM   C17S18228   1.953   2.900   4.701 -0.5061 -0.1800  0.1871
  162OSM   H17S18229   1.855   2.923   4.655  0.1560 -2.7078 -2.9073
  162OSM   H17T18230   2.013   2.989   4.670 -0.8252 -0.4750 -1.3831
  162OSM   C18S18231   1.952   2.888   4.850  0.4629  0.5854  0.3708
  162OSM   H18S18232   1.885   2.802   4.873  1.6157 -0.6096 -0.5687
  162OSM   H18T18233   1.910   2.978   4.900 -0.3939 -0.7312  2.1304
  162OSM   H18U18234   2.051   2.881   4.900  0.2181  0.7349  0.8904
  162OSM    C1F18235   2.031   3.015   3.123 -0.6114 -0.1090  0.3493
  162OSM     OF18236   1.993   3.123   3.104 -0.5388 -0.0205 -0.0708
  162OSM    C2F18237   2.179   2.988   3.109 -0.5211 -1.1076  0.5073
  162OSM    H2F18238   2.202   3.008   3.002 -1.8385  0.3276  0.4704
  162OSM    H2G18239   2.208   2.884   3.135  1.5957 -0.4993  0.8039
  162OSM    C3F18240   2.265   3.088   3.192  0.0255  0.0594  0.4204
  162OSM    H3F18241   2.248   3.192   3.157 -0.0181 -1.0659 -3.2467
  162OSM    H3G18242   2.371   3.070   3.165  0.9043  0.2603  3.3957
  162OSM    C4F18243   2.253   3.063   3.337 -0.4059  0.5281 -0.7497
  162OSM    H4F18244   2.357   3.061   3.377 -0.3418  1.8292 -0.8155
  162OSM    H4G18245   2.210   2.962   3.352  1.7134 -0.3300  0.0430
  162OSM    C5F18246   2.174   3.160   3.419  0.7017 -0.3192  1.0482
  162OSM    H5F18247   2.076   3.177   3.369  2.4232 -1.5768 -3.2784
  162OSM    H5G18248   2.227   3.257   3.431  0.3879 -0.0214  0.1499
  162OSM    C6F18249   2.146   3.105   3.559 -0.6658  0.1102  0.1244
  162OSM    H6F18250   2.117   2.998   3.550  0.7846 -0.1767 -1.9034
  162OSM    H6G18251   2.057   3.161   3.596 -0.5516 -0.1262  0.7753
  162OSM    C7F18252   2.261   3.131   3.654 -0.1066 -0.0201 -0.3004
  162OSM    H7F18253   2.278   3.241   3.663 -1.1093  0.2383 -1.3497
  162OSM    H7G18254   2.351   3.088   3.605  0.8649 -0.3349  1.6558
  162OSM    C8F18255   2.252   3.078   3.802 -0.7696 -0.2612  1.1432
  162OSM    H8F18256   2.349   3.105   3.850 -0.9849  0.5514  1.1324
  162OSM    H8G18257   2.238   2.967   3.802 -1.2823 -0.1979  0.1105
  162OSM    C9F18258   2.150   3.151   3.881 -1.0606  0.5081 -0.4074
  162OSM    H9F18259   2.080   3.205   3.815 -0.7906  0.7080 -0.5317
  162OSM   C10F18260   2.155   3.184   4.016 -0.1280  0.4861  0.2067
  162OSM   H10F18261   2.071   3.245   4.052 -0.7729 -0.6309  0.6625
  162OSM   C11F18262   2.260   3.142   4.116  0.1998 -0.5832  0.2176
  162OSM   H11F18263   2.334   3.224   4.116  2.9450 -2.9189 -0.1814
  162OSM   H11G18264   2.309   3.049   4.079  1.4882 -0.7860  2.3236
  162OSM   C12F18265   2.209   3.131   4.263 -0.3759  0.3983  0.3657
  162OSM   H12F18266   2.146   3.042   4.285 -2.1799  1.4198 -0.5296
  162OSM   H12G18267   2.152   3.224   4.283  2.2883  2.3281 -0.4485
  162OSM   C13F18268   2.328   3.141   4.360 -0.5535 -0.5695 -0.1250
  162OSM   H13F18269   2.371   3.239   4.332 -0.6521 -1.0295 -2.0343
  162OSM   H13G18270   2.403   3.062   4.335  0.2120 -0.5134  1.8113
  162OSM   C14F18271   2.286   3.148   4.506  0.7803 -0.0144  0.2782
  162OSM   H14F18272   2.225   3.060   4.533  0.0340  0.8099  1.3664
  162OSM   H14G18273   2.217   3.235   4.512 -0.0276 -0.5332 -1.1202
  162OSM   C15F18274   2.406   3.172   4.597  0.0470 -0.9663 -0.0874
  162OSM   H15F18275   2.455   3.269   4.576 -1.1200  0.4405  2.9572
  162OSM   H15G18276   2.470   3.085   4.570 -2.6177 -2.9034 -0.5471
  162OSM   C16F18277   2.373   3.164   4.743 -0.2430 -0.3497 -0.0177
  162OSM   H16F18278   2.315   3.070   4.757 -1.4834  0.2938 -0.7048
  162OSM   H16G18279   2.299   3.241   4.774 -0.2700 -0.6037  0.5795
  162OSM   C17F18280   2.497   3.169   4.836 -0.1926 -0.2249  0.3539
  162OSM   H17F18281   2.548   3.267   4.831 -0.5350 -0.0901 -0.7301
  162OSM   H17G18282   2.563   3.091   4.790 -0.0957  2.1367 -3.9934
  162OSM   C18F18283   2.462   3.134   4.985  0.0638 -0.0565  0.2142
  162OSM   H18F18284   2.555   3.128   5.045  1.2777 -0.5247 -1.6278
  162OSM   H18G18285   2.409   3.037   4.995 -0.2824  0.2852  2.1577
  162OSM   H18H18286   2.394   3.216   5.018  0.3889 -0.1202  1.0767
  163OSM      N18287   0.748   5.529   2.520 -0.2960 -0.8285 -0.0846
  163OSM    C1518288   0.862   5.601   2.463 -0.4670  0.4179 -0.1406
  163OSM   H15A18289   0.830   5.675   2.390 -1.3001 -0.0437 -0.2520
  163OSM   H15B18290   0.924   5.531   2.410  0.6080  0.6422  0.7844
  163OSM   H15C18291   0.930   5.647   2.533  1.9766  0.6592 -2.4965
  163OSM    C1418292   0.681   5.448   2.416  0.0442  0.6066  0.3391
  163OSM   H14A18293   0.748   5.400   2.346 -1.9189 -1.4339 -0.2708
  163OSM   H14B18294   0.611   5.510   2.362 -1.0834 -0.6456  0.2830
  163OSM   H14C18295   0.611   5.379   2.462 -0.6227 -0.3134 -1.8833
  163OSM    C1318296   0.815   5.433   2.618  0.4195 -0.3091 -0.9238
  163OSM   H13A18297   0.876   5.361   2.565  1.0428 -0.2858 -0.2580
  163OSM   H13B18298   0.746   5.374   2.676 -0.3489 -0.7033 -2.2138
  163OSM   H13C18299   0.867   5.485   2.698  0.9933 -4.7576  1.9635
  163OSM    C1218300   0.643   5.619   2.585  0.0876 -0.0393  0.0695
  163OSM   H12A18301   0.678   5.652   2.682 -0.9870  1.5294 -0.0391
  163OSM   H12B18302   0.555   5.567   2.618 -1.1741  1.3550 -0.9552
  163OSM    C1118303   0.587   5.739   2.499 -0.4438  0.5828 -0.4729
  163OSM   H11A18304   0.499   5.785   2.549  0.2573  2.8420 -1.1837
  163OSM   H11B18305   0.543   5.703   2.404  0.5903 -0.9562 -0.3997
  163OSM      P18306   0.701   5.965   2.555  0.0940 -0.4153  0.1402
  163OSM    O1318307   0.802   6.061   2.504 -0.5051 -0.7762  0.0200
  163OSM    O1418308   0.564   6.019   2.568 -0.3064 -0.1449  0.7396
  163OSM    O1118309   0.746   5.917   2.687 -0.1680  0.4828 -0.1553
  163OSM    O1218310   0.688   5.834   2.460  0.1321  0.1250  0.3305
  163OSM    C1S18311   0.881   5.895   2.710 -0.4861 -0.4982 -0.4843
  163OSM    H1S18312   0.929   5.995   2.703  0.3784 -1.0133 -2.7012
  163OSM    H1T18313   0.932   5.819   2.648  1.8314  0.3012  0.3345
  163OSM     NF18314   1.051   5.827   2.894  0.7742 -0.3518 -1.3288
  163OSM    HNF18315   1.070   5.733   2.922 -0.9356 -1.4714 -3.6234
  163OSM    C2S18316   0.913   5.860   2.866  0.0236 -0.1861 -0.8771
  163OSM    H2S18317   0.877   5.945   2.926 -0.9501 -1.6716  0.7279
  163OSM    C3S18318   0.824   5.745   2.911  0.6212 -0.4911  0.3976
  163OSM    H3S18319   0.854   5.652   2.858  0.1863 -1.0552  1.1208
  163OSM     O318320   0.682   5.753   2.877 -0.4421 -0.2828  0.2519
  163OSM    HO318321   0.676   5.829   2.818  0.3121  1.4849  2.3432
  163OSM    C4S18322   0.842   5.709   3.057  0.0246 -0.5338 -0.6819
  163OSM    H4S18323   0.832   5.792   3.129 -1.0416  0.5124 -1.9906
  163OSM    C5S18324   0.892   5.594   3.104  0.6987  0.0752 -1.4449
  163OSM    H5S18325   0.937   5.518   3.038 -0.5522 -1.2013 -0.8765
  163OSM    C6S18326   0.916   5.567   3.252  0.2366  0.3998  0.2614
  163OSM    H6S18327   0.911   5.666   3.302 -0.9120  0.3526  0.2666
  163OSM    H6T18328   1.017   5.523   3.263  0.9725  2.2628  1.5058
  163OSM    C7S18329   0.822   5.472   3.317  0.1000  0.0814 -0.1520
  163OSM    H7S18330   0.837   5.377   3.262  0.8957  0.3527 -0.4207
  163OSM    H7T18331   0.720   5.508   3.295  0.0015 -1.7701 -3.4309
  163OSM    C8S18332   0.849   5.435   3.462  0.0827 -0.1267 -0.3134
  163OSM    H8S18333   0.954   5.400   3.467 -0.5827 -2.2811 -0.3331
  163OSM    H8T18334   0.787   5.347   3.492  0.2656  0.6308  2.5591
  163OSM    C9S18335   0.805   5.541   3.563  0.3417 -0.6544  0.0968
  163OSM    H9S18336   0.715   5.589   3.517 -0.4298 -2.3324 -0.2024
  163OSM    H9T18337   0.887   5.616   3.560  1.9670 -2.1957  2.5852
  163OSM   C10S18338   0.787   5.493   3.703  0.0729 -1.3116 -0.4542
  163OSM   H10S18339   0.880   5.446   3.743 -0.6776 -2.0522  0.4770
  163OSM   H10T18340   0.715   5.409   3.712 -0.2184 -1.0217 -0.0380
  163OSM   C11S18341   0.741   5.609   3.802 -0.8566 -0.3094 -0.4888
  163OSM   H11S18342   0.646   5.651   3.761 -0.8412 -2.4527 -3.0021
  163OSM   H11T18343   0.818   5.689   3.810 -0.2288 -1.0380  1.0217
  163OSM   C12S18344   0.729   5.554   3.951  0.9070  0.3128  0.6013
  163OSM   H12S18345   0.828   5.523   3.989 -0.4277 -0.4429  3.7698
  163OSM   H12T18346   0.663   5.465   3.959 -1.2882  1.7823 -0.1161
  163OSM   C13S18347   0.686   5.647   4.058  0.7835 -0.2752  0.0330
  163OSM   H13S18348   0.578   5.672   4.066  0.7774 -0.8757  2.3872
  163OSM   H13T18349   0.741   5.743   4.051  0.0509  0.0187 -3.1455
  163OSM   C14S18350   0.716   5.583   4.187 -0.0993  0.4155 -1.2446
  163OSM   H14S18351   0.825   5.595   4.205 -0.1355 -0.8574 -0.0665
  163OSM   H14T18352   0.696   5.474   4.176  1.5202 -0.2774  1.7739
  163OSM   C15S18353   0.635   5.634   4.306  0.1366 -0.2305 -0.6880
  163OSM   H15S18354   0.678   5.604   4.404 -1.6976 -0.1931  0.1599
  163OSM   H15T18355   0.530   5.600   4.299 -0.0400 -0.5513  2.3423
  163OSM   C16S18356   0.613   5.787   4.310 -0.5557 -0.0687  0.3041
  163OSM   H16S18357   0.547   5.819   4.227 -1.3793 -0.1415  0.9271
  163OSM   H16T18358   0.709   5.843   4.301 -0.2949 -0.2997  1.5636
  163OSM   C17S18359   0.546   5.834   4.437  0.0405 -0.0753  0.5359
  163OSM   H17S18360   0.618   5.812   4.519  0.2406  0.6526  0.5603
  163OSM   H17T18361   0.451   5.780   4.461  1.0202 -1.4888  1.4555
  163OSM   C18S18362   0.522   5.985   4.433 -0.5456 -0.2406  0.0303
  163OSM   H18S18363   0.614   6.046   4.421 -0.7974 -0.3238 -2.9005
  163OSM   H18T18364   0.486   6.006   4.537  1.2499  1.5055  0.3593
  163OSM   H18U18365   0.445   6.016   4.360 -0.4350  0.4646  0.2026
  163OSM    C1F18366   1.147   5.913   2.902 -0.2323 -0.2194  0.2192
  163OSM     OF18367   1.146   6.019   2.840  0.2002 -0.1046 -0.7216
  163OSM    C2F18368   1.269   5.871   2.984 -0.1673 -0.9224  0.2833
  163OSM    H2F18369   1.352   5.902   2.917  0.3622 -2.9229 -0.0502
  163OSM    H2G18370   1.269   5.761   2.991 -0.4282 -1.0122 -0.9467
  163OSM    C3F18371   1.274   5.929   3.129  0.0501  0.5657  0.3588
  163OSM    H3F18372   1.265   6.039   3.142 -1.0044  0.4491  0.7494
  163OSM    H3G18373   1.374   5.898   3.167  0.8210  1.5422 -0.8160
  163OSM    C4F18374   1.162   5.857   3.208 -0.0908  0.3993 -0.3346
  163OSM    H4F18375   1.185   5.749   3.213  0.4925  0.5780  1.0921
  163OSM    H4G18376   1.062   5.868   3.160 -1.2327 -3.0654  0.9687
  163OSM    C5F18377   1.179   5.909   3.350  0.0601  0.4355  0.6053
  163OSM    H5F18378   1.205   6.017   3.340 -0.8089  0.4164 -3.7058
  163OSM    H5G18379   1.262   5.849   3.393  3.0900  2.2665 -2.1857
  163OSM    C6F18380   1.042   5.894   3.432 -0.1787 -0.4200  0.2413
  163OSM    H6F18381   0.999   5.792   3.440  0.1684 -0.7677 -1.9006
  163OSM    H6G18382   0.972   5.964   3.382  2.0830  0.8480 -1.3326
  163OSM    C7F18383   1.071   5.939   3.576  0.3589  0.4456  0.4696
  163OSM    H7F18384   1.123   6.037   3.568  0.7531  0.3403  1.6198
  163OSM    H7G18385   1.152   5.872   3.614  0.0813 -0.0693  0.1715
  163OSM    C8F18386   0.958   5.931   3.678  1.2265  0.0024  0.7924
  163OSM    H8F18387   1.004   5.928   3.779  1.6474  1.3031  0.6546
  163OSM    H8G18388   0.907   5.835   3.655  1.0819  0.0474  0.9277
  163OSM    C9F18389   0.849   6.033   3.654 -0.5552  0.3308  0.1743
  163OSM    H9F18390   0.846   6.090   3.560 -1.4815  0.6122  0.3687
  163OSM   C10F18391   0.771   6.077   3.754  0.3145 -0.6259  0.2493
  163OSM   H10F18392   0.683   6.141   3.736  0.9558  0.6871  1.5921
  163OSM   C11F18393   0.771   6.022   3.888 -0.5148  0.8435  0.2258
  163OSM   H11F18394   0.773   5.910   3.891 -1.8348  0.7832 -0.4819
  163OSM   H11G18395   0.678   6.051   3.942  1.1670  1.8189  2.7790
  163OSM   C12F18396   0.879   6.083   3.982  0.2482 -0.1556  0.2987
  163OSM   H12F18397   0.869   6.193   3.975 -0.3337 -0.2360 -0.3179
  163OSM   H12G18398   0.980   6.061   3.942 -0.0620 -3.8472  1.1689
  163OSM   C13F18399   0.874   6.041   4.128 -0.1037  0.1615 -0.2775
  163OSM   H13F18400   0.930   5.949   4.155  1.0173  1.1019  0.7147
  163OSM   H13G18401   0.767   6.023   4.152 -0.0445 -0.1369 -0.2384
  163OSM   C14F18402   0.929   6.153   4.219  0.0505 -0.1844  0.1159
  163OSM   H14F18403   0.862   6.238   4.197  2.7554  1.8749 -0.7480
  163OSM   H14G18404   1.030   6.180   4.182  0.1709 -0.1695  0.4515
  163OSM   C15F18405   0.922   6.132   4.374 -0.1805  0.6010  0.3809
  163OSM   H15F18406   0.967   6.037   4.411 -0.5094  0.6308  0.8718
  163OSM   H15G18407   0.817   6.127   4.408  0.6118 -0.9805  2.9561
  163OSM   C16F18408   0.992   6.251   4.446  0.5117  0.2365  0.4567
  163OSM   H16F18409   0.961   6.351   4.409 -0.1825  0.0709  0.5740
  163OSM   H16G18410   1.098   6.227   4.427  0.1214 -1.8136  0.5994
  163OSM   C17F18411   0.966   6.255   4.602 -0.0884  0.1224 -0.2400
  163OSM   H17F18412   1.057   6.300   4.646  0.2015 -0.3073 -0.3906
  163OSM   H17G18413   0.965   6.146   4.627 -0.1245 -0.1893 -1.5373
  163OSM   C18F18414   0.830   6.316   4.652  0.0124 -0.6555 -0.0636
  163OSM   H18F18415   0.824   6.303   4.762 -0.4818  0.4588  0.0513
  163OSM   H18G18416   0.745   6.258   4.610  0.9240 -1.7874 -0.3828
  163OSM   H18H18417   0.812   6.412   4.598  0.9835 -1.1935 -1.3935
  164OSM      N18418   3.479   5.154   2.683  0.3226 -0.3012 -0.1913
  164OSM    C1518419   3.562   5.172   2.807  0.1405  0.0974 -0.8913
  164OSM   H15A18420   3.512   5.227   2.884 -0.4162 -1.4708 -0.0974
  164OSM   H15B18421   3.649   5.233   2.783  0.2798  1.0576  1.7517
  164OSM   H15C18422   3.597   5.084   2.858 -1.6266  0.5250  1.1694
  164OSM    C1418423   3.527   5.029   2.610  0.1987 -0.7779 -0.8159
  164OSM   H14A18424   3.527   4.942   2.675 -2.2411 -0.3662 -0.1492
  164OSM   H14B18425   3.625   5.042   2.567  0.8803 -0.0027  0.9059
  164OSM   H14C18426   3.452   4.999   2.538  1.1539 -3.3806 -0.8361
  164OSM    C1318427   3.339   5.141   2.729 -0.7922 -0.2004  0.3548
  164OSM   H13A18428   3.318   5.212   2.808 -0.5994  0.4182 -0.1456
  164OSM   H13B18429   3.313   5.041   2.760 -0.5353  0.2690  2.2503
  164OSM   H13C18430   3.272   5.152   2.645  0.1729 -2.7445 -0.8379
  164OSM    C1218431   3.494   5.276   2.593 -0.3871 -0.0979 -0.6432
  164OSM   H12A18432   3.592   5.280   2.547  0.1689 -0.9469  0.4090
  164OSM   H12B18433   3.482   5.361   2.658 -0.8945 -0.3154 -0.4466
  164OSM    C1118434   3.393   5.284   2.474 -0.4703 -0.6432  0.4744
  164OSM   H11A18435   3.385   5.184   2.427  2.5404 -1.4058  1.3836
  164OSM   H11B18436   3.453   5.341   2.399 -1.2976  0.9352  0.9652
  164OSM      P18437   3.249   5.493   2.512  0.0066  0.2127  0.2218
  164OSM    O1318438   3.313   5.554   2.395 -0.1637 -0.7592  0.6434
  164OSM    O1418439   3.108   5.525   2.535 -0.1262 -0.6344 -0.0350
  164OSM    O1118440   3.329   5.518   2.645  0.6296  0.2498  0.3051
  164OSM    O1218441   3.267   5.343   2.507  0.1458  0.2315 -0.0841
  164OSM    C1S18442   3.260   5.526   2.769 -0.2313  0.6560 -0.8234
  164OSM    H1S18443   3.208   5.429   2.787 -0.5566  1.2653  1.8047
  164OSM    H1T18444   3.191   5.613   2.769 -0.7525  0.2776  0.8342
  164OSM     NF18445   3.291   5.496   3.023  0.0247  0.3903 -0.6155
  164OSM    HNF18446   3.283   5.569   3.090 -0.4784 -0.8462  0.7395
  164OSM    C2S18447   3.354   5.536   2.895 -0.1441  0.4535 -0.0236
  164OSM    H2S18448   3.428   5.457   2.870  0.2570  0.6421  0.5525
  164OSM    C3S18449   3.415   5.678   2.902 -0.2710 -0.2824 -0.0382
  164OSM    H3S18450   3.337   5.749   2.937 -1.4273 -1.2468 -0.5902
  164OSM     O318451   3.455   5.736   2.779 -0.2663  0.5500 -0.6209
  164OSM    HO318452   3.441   5.666   2.715  0.2177  0.1768 -0.3228
  164OSM    C4S18453   3.539   5.683   2.993  0.3875 -0.0098  0.2147
  164OSM    H4S18454   3.630   5.637   2.952  0.9733  2.5078 -1.4874
  164OSM    C5S18455   3.552   5.753   3.105 -0.4345 -0.3437 -0.9989
  164OSM    H5S18456   3.465   5.814   3.131 -0.0062  0.5964 -1.7340
  164OSM    C6S18457   3.668   5.758   3.191  0.4326  0.3388  0.6207
  164OSM    H6S18458   3.666   5.857   3.241 -0.3594 -0.0017  1.2888
  164OSM    H6T18459   3.755   5.732   3.127  0.6940 -0.6752  1.3473
  164OSM    C7S18460   3.672   5.666   3.320 -0.0470 -0.8596 -0.7990
  164OSM    H7S18461   3.752   5.692   3.393  0.5918  1.0845 -2.1255
  164OSM    H7T18462   3.690   5.560   3.290 -0.7894 -0.9227 -1.0488
  164OSM    C8S18463   3.530   5.676   3.396 -0.1155 -0.8898  0.2053
  164OSM    H8S18464   3.449   5.682   3.320 -0.6851 -0.1600  0.8636
  164OSM    H8T18465   3.515   5.766   3.458  1.2921 -0.3378 -0.2121
  164OSM    C9S18466   3.511   5.556   3.490 -0.1160  0.0638 -0.7427
  164OSM    H9S18467   3.531   5.455   3.448  2.9837 -0.0243  0.6856
  164OSM    H9T18468   3.406   5.564   3.524  0.0076  1.4500 -0.5918
  164OSM   C10S18469   3.590   5.572   3.628  0.0773  0.2239  0.8273
  164OSM   H10S18470   3.585   5.679   3.658 -1.1945  0.4099  0.0285
  164OSM   H10T18471   3.695   5.543   3.603  0.0155  0.4054  0.3364
  164OSM   C11S18472   3.558   5.489   3.753 -0.3813  0.0487  0.7455
  164OSM   H11S18473   3.504   5.398   3.718  3.3717 -2.4741  0.9227
  164OSM   H11T18474   3.504   5.546   3.831 -0.9952 -1.2370  1.2857
  164OSM   C12S18475   3.682   5.433   3.819 -0.5037  0.0381  0.7185
  164OSM   H12S18476   3.764   5.509   3.822  0.4910 -0.9612 -0.0101
  164OSM   H12T18477   3.725   5.350   3.759  0.5213  1.3548 -0.4488
  164OSM   C13S18478   3.664   5.397   3.966  0.6064 -0.2469  0.1497
  164OSM   H13S18479   3.589   5.319   3.991 -1.0427  1.0404 -0.6157
  164OSM   H13T18480   3.628   5.492   4.011  1.2374  0.2202 -0.3107
  164OSM   C14S18481   3.797   5.366   4.036  0.4180 -0.6567 -0.4265
  164OSM   H14S18482   3.877   5.415   3.976  0.7061 -0.3027  0.2266
  164OSM   H14T18483   3.808   5.255   4.032 -2.2522 -0.9422 -1.2916
  164OSM   C15S18484   3.806   5.414   4.177  0.5284  0.3427 -0.5080
  164OSM   H15S18485   3.801   5.524   4.190 -0.8197  0.3395 -0.8863
  164OSM   H15T18486   3.900   5.377   4.224  0.8981  1.6023 -0.2012
  164OSM   C16S18487   3.698   5.348   4.265 -0.3268  0.1017 -0.1015
  164OSM   H16S18488   3.704   5.237   4.262 -0.8331  0.0826 -0.9552
  164OSM   H16T18489   3.595   5.373   4.232  0.1039  0.6139 -1.0860
  164OSM   C17S18490   3.718   5.383   4.411 -0.3962  0.1124 -0.3690
  164OSM   H17S18491   3.743   5.491   4.414 -1.0218  0.2365  0.7775
  164OSM   H17T18492   3.798   5.318   4.451 -0.5236 -1.9522 -3.1541
  164OSM   C18S18493   3.593   5.352   4.491 -0.3979 -0.3927  0.9653
  164OSM   H18S18494   3.576   5.244   4.509  1.9849 -0.9026  0.4614
  164OSM   H18T18495   3.502   5.398   4.447  0.4126  0.0178 -0.3142
  164OSM   H18U18496   3.612   5.396   4.592  0.1497 -2.0650  1.6222
  164OSM    C1F18497   3.260   5.373   3.057  0.0840  0.6617 -0.4184
  164OSM     OF18498   3.274   5.279   2.982  0.4833 -0.2563 -0.2235
  164OSM    C2F18499   3.217   5.360   3.204 -0.4154 -0.3755  0.3077
  164OSM    H2F18500   3.125   5.416   3.230  1.2835  2.5880  0.2949
  164OSM    H2G18501   3.295   5.400   3.273 -1.9643  1.6221  0.9849
  164OSM    C3F18502   3.171   5.215   3.244 -0.6422 -0.0318  0.3109
  164OSM    H3F18503   3.250   5.137   3.243 -0.0215  0.5449  2.1286
  164OSM    H3G18504   3.097   5.169   3.174 -1.9043  0.4080  1.3183
  164OSM    C4F18505   3.120   5.200   3.388 -0.1360  0.0256 -0.2569
  164OSM    H4F18506   3.109   5.092   3.409  0.1103 -0.0087 -0.3028
  164OSM    H4G18507   3.021   5.252   3.391  1.1069  2.7009 -1.9893
  164OSM    C5F18508   3.208   5.253   3.506  0.5653  0.5608  0.2927
  164OSM    H5F18509   3.218   5.364   3.501  1.7380  0.4347 -0.2819
  164OSM    H5G18510   3.308   5.212   3.484  0.9612  2.0281 -0.7423
  164OSM    C6F18511   3.148   5.207   3.649 -0.0044 -0.2764  0.0942
  164OSM    H6F18512   3.220   5.249   3.724  0.1433  1.5006 -0.9826
  164OSM    H6G18513   3.151   5.096   3.659 -0.1059 -0.1230  2.3207
  164OSM    C7F18514   3.013   5.271   3.675  0.0985 -0.0158  0.5563
  164OSM    H7F18515   2.936   5.230   3.607  1.9770 -0.9958 -1.0704
  164OSM    H7G18516   3.012   5.380   3.652  1.8678  0.0942  0.8275
  164OSM    C8F18517   2.982   5.265   3.831  0.3144  0.2321 -0.6699
  164OSM    H8F18518   3.054   5.327   3.890  0.0794  2.3191 -2.4239
  164OSM    H8G18519   2.981   5.158   3.858  2.9126  0.3170  0.0631
  164OSM    C9F18520   2.845   5.323   3.850  0.3690 -0.5020  0.0621
  164OSM    H9F18521   2.769   5.279   3.784 -0.3673  0.6689  0.0981
  164OSM   C10F18522   2.806   5.437   3.915  0.7701 -0.3484 -0.1156
  164OSM   H10F18523   2.700   5.465   3.914  0.9408  0.3472  0.5550
  164OSM   C11F18524   2.893   5.510   4.015 -0.9494  0.6145  0.1624
  164OSM   H11F18525   2.992   5.466   4.040 -0.8797  1.0203  0.6113
  164OSM   H11G18526   2.843   5.519   4.113  2.6449  0.6909  2.1692
  164OSM   C12F18527   2.904   5.647   3.952 -0.3182 -0.4983  0.1911
  164OSM   H12F18528   2.808   5.688   3.915 -0.4573 -1.0674 -0.0771
  164OSM   H12G18529   2.973   5.641   3.865 -0.5110 -0.7495  0.0561
  164OSM   C13F18530   2.958   5.745   4.052 -0.2204  0.2799  0.3184
  164OSM   H13F18531   3.043   5.688   4.093 -1.8593 -3.2250 -0.7772
  164OSM   H13G18532   2.886   5.756   4.136 -1.4243 -0.5456 -0.5703
  164OSM   C14F18533   3.016   5.876   3.991  0.4993  0.2556 -0.3374
  164OSM   H14F18534   3.069   5.843   3.899 -0.2229  0.5564 -0.8714
  164OSM   H14G18535   3.088   5.916   4.065 -0.8354  1.6899  0.2462
  164OSM   C15F18536   2.911   5.981   3.963  0.1903 -0.7318  0.5445
  164OSM   H15F18537   2.854   6.012   4.053  0.1385  1.4976 -0.1792
  164OSM   H15G18538   2.826   5.934   3.908 -1.4296  1.8071  0.7317
  164OSM   C16F18539   2.967   6.099   3.883  0.0243 -0.0113  0.1716
  164OSM   H16F18540   3.033   6.172   3.935 -0.5060  0.7199 -0.1642
  164OSM   H16G18541   2.874   6.155   3.860 -0.8259 -1.7146 -0.6919
  164OSM   C17F18542   3.029   6.062   3.747 -0.8153  0.1438  0.3117
  164OSM   H17F18543   2.966   5.973   3.724 -2.2274  0.7790  1.5271
  164OSM   H17G18544   3.131   6.029   3.774  0.2678  2.3672 -0.8034
  164OSM   C18F18545   3.015   6.178   3.637 -0.0524  0.5847  0.4061
  164OSM   H18F18546   3.094   6.156   3.562 -0.2033 -0.7113  0.5999
  164OSM   H18G18547   3.035   6.275   3.688  1.7716  0.0572  0.7584
  164OSM   H18H18548   2.914   6.187   3.592 -0.3694  0.8009  1.1361
  165SAPS     N18549   1.563   3.310   7.659 -0.0897  0.4233 -0.0405
  165SAPS   HN118550   1.497   3.374   7.611  1.1665  2.1256  0.4026
  165SAPS   HN218551   1.565   3.213   7.622 -2.6479  0.1691  0.2856
  165SAPS   HN318552   1.553   3.313   7.763  0.8151  0.5718  0.0476
  165SAPS   C1218553   1.699   3.377   7.656 -0.2816  0.0926 -0.1395
  165SAPS  H12A18554   1.701   3.418   7.556  0.7283  1.6314  0.4827
  165SAPS   C1318555   1.733   3.477   7.767  0.2508 -0.7805 -0.2541
  165SAPS  O13A18556   1.660   3.493   7.869 -0.3962  0.4015  0.2963
  165SAPS  O13B18557   1.846   3.535   7.762  0.5808  0.2079  0.3712
  165SAPS   C1118558   1.808   3.267   7.648  0.0087  0.3461  0.1280
  165SAPS  H11A18559   1.804   3.210   7.743  0.0679 -0.0361 -0.0934
  165SAPS  H11B18560   1.905   3.321   7.646  0.6086 -0.5542  2.2171
  165SAPS     P18561   1.908   3.081   7.488  0.4764 -0.0855  0.0942
  165SAPS   O1318562   2.039   3.110   7.548 -1.2286 -0.3152  0.1818
  165SAPS   O1418563   1.849   2.949   7.511  0.5488  0.2794 -1.0422
  165SAPS   O1218564   1.794   3.188   7.528  1.0421 -0.1083  0.1651
  165SAPS   O1118565   1.914   3.096   7.335  0.1782  0.0412 -0.0366
  165SAPS    C118566   1.969   3.219   7.280  0.3470  1.1436 -0.2992
  165SAPS    HA18567   1.981   3.308   7.345  3.4055  0.3025  0.4554
  165SAPS    HB18568   2.075   3.195   7.260  0.3584  0.0761  0.8731
  165SAPS    C218569   1.879   3.262   7.161  0.3716  0.7681  0.4484
  165SAPS    HS18570   1.775   3.257   7.200 -0.3567  0.5340 -1.4161
  165SAPS   O2118571   1.889   3.163   7.060  0.1319  0.8326  0.0471
  165SAPS   C2118572   1.793   3.154   6.972  0.6880 -0.6098  0.0818
  165SAPS   O2218573   1.685   3.216   6.981 -0.7663 -0.2149 -0.1815
  165SAPS   C2218574   1.840   3.062   6.859  0.5230  0.9786 -0.5396
  165SAPS   H2R18575   1.929   3.114   6.820 -0.8011  3.3793 -0.5592
  165SAPS   H2S18576   1.868   2.965   6.906  0.3961  1.1514 -0.0950
  165SAPS    C318577   1.912   3.404   7.111 -0.4311  0.0611  0.1093
  165SAPS    HX18578   2.017   3.400   7.074 -0.8313  0.7663 -1.1678
  165SAPS    HY18579   1.915   3.465   7.203  0.9138 -0.0424  0.1633
  165SAPS   O3118580   1.836   3.453   6.999 -0.6806 -0.2846 -0.4773
  165SAPS   C3118581   1.722   3.510   7.039 -0.1675 -0.0574  0.2564
  165SAPS   O3218582   1.692   3.542   7.152 -0.1383  0.2644 -0.5136
  165SAPS   C3218583   1.624   3.531   6.921 -0.3807 -0.0422  0.6758
  165SAPS   H2X18584   1.532   3.582   6.960  0.0265  1.3141 -0.0528
  165SAPS   H2Y18585   1.599   3.429   6.884 -0.2455  0.3119 -0.4233
  165SAPS   C2318586   1.725   3.028   6.753 -0.5044 -0.8227 -0.0227
  165SAPS   H3R18587   1.630   2.997   6.802  0.0480 -2.2122  0.2116
  165SAPS   H3S18588   1.767   2.948   6.687 -0.5792 -0.4012 -0.5924
  165SAPS   C2418589   1.710   3.156   6.669  0.1540 -0.0358  0.0278
  165SAPS   H4R18590   1.804   3.192   6.623 -0.8174  0.8131 -1.3740
  165SAPS   H4S18591   1.667   3.234   6.736 -0.1235 -1.3758  1.4799
  165SAPS   C2518592   1.620   3.123   6.555 -0.7135 -0.1363 -0.5946
  165SAPS   H5R18593   1.531   3.063   6.580  0.4030 -1.8822 -0.6653
  165SAPS   C2618594   1.632   3.156   6.429 -0.1541  0.0385  0.2951
  165SAPS   H6R18595   1.547   3.132   6.363 -2.1661 -0.8592  3.0561
  165SAPS   C2718596   1.732   3.245   6.361 -0.1395  0.4641 -0.5412
  165SAPS   H7R18597   1.744   3.197   6.261 -2.9480  0.0284 -0.7487
  165SAPS   H7S18598   1.825   3.242   6.423 -0.6832  1.1523  0.3304
  165SAPS   C2818599   1.694   3.391   6.343 -0.3588  0.7551  0.4561
  165SAPS   H8R18600   1.650   3.443   6.429 -2.0325 -0.5823  0.4739
  165SAPS   C2918601   1.712   3.460   6.228  0.4463 -0.2462 -0.2415
  165SAPS   H9R18602   1.700   3.569   6.228  1.2649 -0.1366  0.9768
  165SAPS  C21018603   1.776   3.408   6.102 -0.3246 -0.2585  0.2390
  165SAPS  H10R18604   1.851   3.329   6.127  2.8112  2.3534 -0.2900
  165SAPS  H10S18605   1.831   3.490   6.052  0.4968 -0.8901  0.0828
  165SAPS  C21118606   1.670   3.348   6.017  0.2892  0.0309 -0.2068
  165SAPS  H11R18607   1.581   3.313   6.073  0.6058 -3.2176 -1.5130
  165SAPS  C21218608   1.689   3.303   5.889  0.1626  0.0941 -0.4798
  165SAPS  H12R18609   1.600   3.274   5.830 -1.0694  0.3942  1.1532
  165SAPS  C21318610   1.807   3.336   5.803 -0.3425 -0.5123  0.6072
  165SAPS  H13R18611   1.866   3.252   5.762  0.5564  1.0663 -1.5576
  165SAPS  H13S18612   1.880   3.389   5.867  0.3434 -0.5697 -0.1197
  165SAPS  C21418613   1.762   3.424   5.687  0.4772 -0.3520  0.3673
  165SAPS  H14R18614   1.684   3.495   5.716  0.5004 -0.2583  0.2017
  165SAPS  C21518615   1.800   3.416   5.557  0.7036  0.1576  0.4892
  165SAPS  H15R18616   1.770   3.489   5.481 -0.8431 -0.8896  0.0469
  165SAPS  C21618617   1.894   3.313   5.507 -0.3058 -0.3137  0.1108
  165SAPS  H16R18618   1.876   3.208   5.539 -3.1627 -0.8082 -2.6318
  165SAPS  H16S18619   1.994   3.340   5.548 -0.5130  0.6852 -0.0233
  165SAPS  C21718620   1.901   3.302   5.351 -0.1825 -0.4968  0.1174
  165SAPS  H17R18621   1.929   3.401   5.310 -1.0333 -0.9351 -1.5954
  165SAPS  H17S18622   1.797   3.283   5.317 -0.2492 -1.4932  0.8210
  165SAPS  C21818623   1.992   3.193   5.294  0.1301 -0.9112 -0.1155
  165SAPS  H18R18624   1.968   3.182   5.186 -0.6976  1.2660 -0.2052
  165SAPS  H18S18625   1.960   3.094   5.334  0.0562 -0.3091  1.3838
  165SAPS  C21918626   2.137   3.217   5.323 -0.7359  0.0804 -0.0162
  165SAPS  H19R18627   2.157   3.256   5.425 -1.2547  1.9076 -0.5845
  165SAPS  H19S18628   2.177   3.298   5.258  0.2489 -0.9107 -0.6930
  165SAPS  C22018629   2.220   3.091   5.301  0.4165 -0.0215  0.2372
  165SAPS  H20R18630   2.213   3.074   5.192  3.4773  0.3058 -0.0843
  165SAPS  H20S18631   2.181   2.996   5.345  0.3706 -0.8516 -1.5290
  165SAPS  H20T18632   2.320   3.111   5.345 -0.4695  3.1327  1.0652
  165SAPS   C3318633   1.695   3.609   6.807  0.0206  0.1260 -0.1801
  165SAPS   H3X18634   1.782   3.546   6.780  1.0381  1.8575 -1.1449
  165SAPS   H3Y18635   1.746   3.704   6.835  0.8592  0.0128 -1.2596
  165SAPS   C3418636   1.619   3.617   6.674 -0.5143 -0.3881 -0.3243
  165SAPS   H4X18637   1.511   3.634   6.693 -0.2823 -0.1506  0.9207
  165SAPS   H4Y18638   1.643   3.530   6.609  1.5184 -0.9100  1.0177
  165SAPS   C3518639   1.668   3.737   6.583  0.1868 -0.2412 -0.1520
  165SAPS   H5X18640   1.772   3.729   6.544 -0.8217  0.5013 -3.2404
  165SAPS   H5Y18641   1.662   3.834   6.637 -2.5490  0.2321 -1.1828
  165SAPS   C3618642   1.574   3.751   6.463 -0.4743 -0.4373 -0.3047
  165SAPS   H6X18643   1.477   3.798   6.494 -0.9413 -1.3107 -0.4076
  165SAPS   H6Y18644   1.547   3.654   6.417 -0.6936 -0.3634 -0.3345
  165SAPS   C3718645   1.633   3.841   6.355 -0.6473 -0.9224  0.2439
  165SAPS   H7X18646   1.732   3.799   6.328 -1.0860 -0.4543 -2.4488
  165SAPS   H7Y18647   1.651   3.945   6.388 -1.2991 -1.0859  1.1591
  165SAPS   C3818648   1.561   3.841   6.225 -0.0956 -0.2055  0.1512
  165SAPS   H8X18649   1.522   3.944   6.209  0.8709  0.2721  0.7841
  165SAPS   H8Y18650   1.476   3.769   6.230  0.8535 -1.2908  1.2231
  165SAPS   C3918651   1.649   3.821   6.103 -0.4387 -0.3310  0.2167
  165SAPS   H9X18652   1.695   3.721   6.122  0.6710  0.2301  0.5533
  165SAPS   H9Y18653   1.737   3.889   6.096 -0.9341  0.1623 -1.8867
  165SAPS  C31018654   1.572   3.826   5.975  0.6091 -0.3425 -0.5843
  165SAPS  H10X18655   1.526   3.925   5.954  0.8507 -0.0764  0.1125
  165SAPS  H10Y18656   1.496   3.746   5.958  0.2151 -0.4097  1.2688
  165SAPS  C31118657   1.674   3.800   5.863 -0.0285 -0.2185 -0.1881
  165SAPS  H11X18658   1.710   3.697   5.884  0.8597  0.2109  0.4505
  165SAPS  H11Y18659   1.758   3.873   5.862  0.9207 -1.2371  1.2260
  165SAPS  C31218660   1.612   3.796   5.723 -0.2140 -0.4273 -0.0490
  165SAPS  H12X18661   1.543   3.881   5.701 -0.2338 -0.6357 -0.8263
  165SAPS  H12Y18662   1.546   3.708   5.709 -1.5552  0.5728 -0.2859
  165SAPS  C31318663   1.724   3.792   5.615  1.0057  0.0688  0.3568
  165SAPS  H13X18664   1.786   3.706   5.649  0.4930 -0.8789 -1.0079
  165SAPS  H13Y18665   1.788   3.882   5.602 -0.8183  1.0539 -3.0242
  165SAPS  C31418666   1.683   3.763   5.473 -0.3823  0.7154 -0.4245
  165SAPS  H14X18667   1.609   3.838   5.438 -2.4423 -0.6814  0.6471
  165SAPS  H14Y18668   1.630   3.665   5.472  0.3185  0.3275 -1.5388
  165SAPS  C31518669   1.807   3.759   5.385  0.5263  0.0421 -0.4466
  165SAPS  H15X18670   1.895   3.704   5.425  0.6696  0.1246 -0.6459
  165SAPS  H15Y18671   1.851   3.858   5.360 -2.6398  1.7677  0.3780
  165SAPS  C31618672   1.769   3.689   5.257 -0.0166 -0.3520  0.1925
  165SAPS  H16X18673   1.685   3.737   5.203  0.4993  2.2185  1.5257
  165SAPS  H16Y18674   1.749   3.581   5.275 -1.3726 -1.1096 -4.5398
  165SAPS  C31718675   1.883   3.694   5.151 -0.1056 -0.0126  0.2679
  165SAPS  H17X18676   1.962   3.622   5.183 -0.3388  0.4058  1.8401
  165SAPS  H17Y18677   1.936   3.791   5.145 -1.2631  0.6190 -0.0226
  165SAPS  C31818678   1.844   3.642   5.012 -0.5995 -0.1244 -0.5686
  165SAPS  H18X18679   1.917   3.673   4.934  0.1833  1.4849  0.7250
  165SAPS  H18Y18680   1.744   3.678   4.981 -0.6348 -0.2531 -0.6032
  165SAPS  H18Z18681   1.834   3.532   5.018 -3.0086  0.0728  0.3407
  166SAPS     N18682   1.862   2.684   7.519 -0.2870  0.5452 -0.2649
  166SAPS   HN118683   1.870   2.664   7.418 -0.7650 -0.6086 -0.0956
  166SAPS   HN218684   1.840   2.784   7.535  2.8526  1.3565 -0.3939
  166SAPS   HN318685   1.954   2.668   7.565  0.1026  0.1160 -1.1665
  166SAPS   C1218686   1.761   2.582   7.574  0.1492 -0.8577 -0.3524
  166SAPS  H12A18687   1.802   2.484   7.559  0.9398 -0.4782 -0.7590
  166SAPS   C1318688   1.733   2.592   7.723  0.1850 -0.1763  1.1051
  166SAPS  O13A18689   1.750   2.695   7.783 -0.1628  0.3248  0.2862
  166SAPS  O13B18690   1.655   2.505   7.779  0.0924 -0.3758  0.1419
  166SAPS   C1118691   1.633   2.605   7.500  0.0173 -0.2552 -0.0833
  166SAPS  H11A18692   1.582   2.699   7.531  0.6155  0.0172  0.0872
  166SAPS  H11B18693   1.571   2.519   7.534  0.4906 -0.8402 -0.6719
  166SAPS     P18694   1.554   2.520   7.267  0.5230 -0.4704  0.0979
  166SAPS   O1318695   1.591   2.376   7.275  0.8013  0.4732  0.1549
  166SAPS   O1418696   1.421   2.558   7.309  0.4586 -0.4379  0.6749
  166SAPS   O1218697   1.651   2.600   7.365 -0.6868 -0.0854  0.3184
  166SAPS   O1118698   1.582   2.579   7.127  0.4569  0.1114  0.0103
  166SAPS    C118699   1.707   2.557   7.058  0.4033 -0.4815  0.0201
  166SAPS    HA18700   1.753   2.658   7.052  0.5658 -0.1791  3.8055
  166SAPS    HB18701   1.774   2.497   7.123 -0.3893  0.4421  1.7453
  166SAPS    C218702   1.694   2.481   6.924  0.3282 -0.2897  0.5483
  166SAPS    HS18703   1.790   2.502   6.873  1.2141 -0.6612  1.9939
  166SAPS   O2118704   1.576   2.540   6.851 -0.7250  0.5118 -0.1618
  166SAPS   C2118705   1.608   2.650   6.788  0.1082 -0.0735  0.3916
  166SAPS   O2218706   1.715   2.714   6.800  0.2787  0.0613  0.4511
  166SAPS   C2218707   1.492   2.696   6.699 -0.0508 -0.1069 -0.3576
  166SAPS   H2R18708   1.413   2.617   6.710 -0.2937  0.1213 -0.4450
  166SAPS   H2S18709   1.458   2.794   6.740  0.4174  1.1472 -2.8122
  166SAPS    C318710   1.685   2.323   6.935 -0.9086 -0.7718  0.3335
  166SAPS    HX18711   1.600   2.298   7.000 -0.6796 -1.4595  0.3735
  166SAPS    HY18712   1.781   2.306   6.988  0.6607  2.1632 -1.2587
  166SAPS   O3118713   1.692   2.263   6.801 -0.5296  0.6640 -0.0084
  166SAPS   C3118714   1.610   2.177   6.773  0.8832  0.2377  0.1414
  166SAPS   O3218715   1.538   2.121   6.856  0.0258 -0.0588  0.1751
  166SAPS   C3218716   1.617   2.143   6.623 -0.3448  0.4154 -0.0702
  166SAPS   H2X18717   1.532   2.074   6.605  2.1079 -2.6892 -0.5100
  166SAPS   H2Y18718   1.714   2.096   6.598 -0.2381  0.9916 -0.7528
  166SAPS   C2318719   1.529   2.730   6.556  0.0053 -0.3276 -0.1822
  166SAPS   H3R18720   1.571   2.642   6.502 -1.1674 -1.7998  1.2075
  166SAPS   H3S18721   1.615   2.800   6.555 -0.8237  0.8248  2.1017
  166SAPS   C2418722   1.408   2.774   6.466 -0.1769 -0.2485  0.2808
  166SAPS   H4R18723   1.362   2.866   6.510  1.4407  0.9229 -0.3944
  166SAPS   H4S18724   1.339   2.688   6.464  2.6076 -2.6622  1.3241
  166SAPS   C2518725   1.448   2.818   6.330 -0.2627  0.1360 -0.3692
  166SAPS   H5R18726   1.556   2.838   6.318 -0.5152  1.2481 -0.9751
  166SAPS   C2618727   1.364   2.838   6.223 -0.4545  0.6076 -0.2480
  166SAPS   H6R18728   1.415   2.840   6.125 -0.9526 -0.2169 -0.5307
  166SAPS   C2718729   1.217   2.813   6.223  0.1324  0.0372 -0.4702
  166SAPS   H7R18730   1.170   2.792   6.322 -2.1538  0.0192 -1.4934
  166SAPS   H7S18731   1.209   2.716   6.169  0.6247  0.2220 -0.8812
  166SAPS   C2818732   1.144   2.926   6.157 -0.0677 -0.5250 -0.2315
  166SAPS   H8R18733   1.094   2.991   6.230 -1.1040 -1.7977  0.2146
  166SAPS   C2918734   1.119   2.937   6.029 -0.8521 -0.6380  0.1061
  166SAPS   H9R18735   1.083   3.033   5.989 -0.3483 -0.1287  0.8398
  166SAPS  C21018736   1.169   2.850   5.923 -0.2041  0.4829  0.0477
  166SAPS  H10R18737   1.077   2.817   5.870  1.6057 -2.1204 -1.7319
  166SAPS  H10S18738   1.206   2.752   5.958 -1.7380 -0.3042 -0.4234
  166SAPS  C21118739   1.258   2.930   5.829  0.8327  0.9920 -0.5759
  166SAPS  H11R18740   1.283   3.030   5.868  1.6790  0.3651  0.5654
  166SAPS  C21218741   1.286   2.897   5.699 -0.0577 -0.1898 -0.4507
  166SAPS  H12R18742   1.343   2.968   5.637 -0.4765  1.2175  0.7219
  166SAPS  C21318743   1.238   2.766   5.638  0.7261  0.1253  0.0610
  166SAPS  H13R18744   1.193   2.698   5.713  1.2407 -0.7742 -0.4333
  166SAPS  H13S18745   1.319   2.710   5.587 -0.4193 -2.2649  0.7034
  166SAPS  C21418746   1.132   2.806   5.541 -0.1966  0.1320  0.6501
  166SAPS  H14R18747   1.054   2.876   5.574 -0.7913  0.7904 -1.9573
  166SAPS  C21518748   1.120   2.758   5.415  0.5339  0.5217 -0.5213
  166SAPS  H15R18749   1.042   2.797   5.348 -0.5902 -1.0592 -0.1915
  166SAPS  C21618750   1.217   2.662   5.353 -0.6130 -0.5399  0.2549
  166SAPS  H16R18751   1.218   2.569   5.414  0.3072 -1.0184 -0.4732
  166SAPS  H16S18752   1.321   2.701   5.345 -0.7766 -0.3574 -1.1465
  166SAPS  C21718753   1.164   2.620   5.215  0.7862  0.0341  0.3084
  166SAPS  H17R18754   1.148   2.714   5.158  0.4768  0.0727  0.4543
  166SAPS  H17S18755   1.071   2.561   5.229  0.6893  0.1316  0.0753
  166SAPS  C21818756   1.253   2.530   5.128  0.4637  0.3780 -0.3459
  166SAPS  H18R18757   1.244   2.432   5.181 -0.0615 -0.2162 -1.4948
  166SAPS  H18S18758   1.355   2.574   5.123  0.4922  0.1945 -2.0668
  166SAPS  C21918759   1.199   2.510   4.984 -0.1820  0.6188 -0.4578
  166SAPS  H19R18760   1.159   2.604   4.941  0.9461  0.9077 -0.9073
  166SAPS  H19S18761   1.121   2.431   4.990  0.7351 -0.3014 -0.2818
  166SAPS  C22018762   1.313   2.464   4.890  0.3614 -0.7957  0.4098
  166SAPS  H20R18763   1.361   2.370   4.925 -1.0568 -2.0692 -0.9490
  166SAPS  H20S18764   1.387   2.543   4.866 -1.7795  0.5130 -2.5626
  166SAPS  H20T18765   1.267   2.446   4.791  0.0821  1.0951  0.1529
  166SAPS   C3318766   1.607   2.268   6.530 -0.3375 -0.0918  0.0659
  166SAPS   H3X18767   1.690   2.338   6.555  1.9513 -2.1686 -1.2179
  166SAPS   H3Y18768   1.513   2.326   6.531 -0.5077 -0.0979 -3.4492
  166SAPS   C3418769   1.633   2.235   6.381 -0.7132  0.6904 -0.0195
  166SAPS   H4X18770   1.584   2.138   6.357 -0.5958  0.0445  2.1443
  166SAPS   H4Y18771   1.741   2.215   6.372 -0.4848  2.3185 -1.4917
  166SAPS   C3518772   1.594   2.347   6.294  0.2077 -0.3465 -0.0291
  166SAPS   H5X18773   1.639   2.444   6.322  0.5685 -1.0704  2.0137
  166SAPS   H5Y18774   1.484   2.362   6.288  0.4466  1.3013 -0.9086
  166SAPS   C3618775   1.637   2.313   6.149  1.0078  0.5156  1.3982
  166SAPS   H6X18776   1.592   2.214   6.128  1.1803  0.6683  0.2393
  166SAPS   H6Y18777   1.746   2.290   6.156  1.2325  0.5765 -1.0300
  166SAPS   C3718778   1.600   2.412   6.046 -0.1510 -0.6279 -0.1796
  166SAPS   H7X18779   1.639   2.515   6.060 -1.1045 -0.2631 -0.1508
  166SAPS   H7Y18780   1.490   2.425   6.045 -0.1292 -0.4333 -0.0917
  166SAPS   C3818781   1.645   2.377   5.908  0.1114 -0.7421 -0.6820
  166SAPS   H8X18782   1.594   2.282   5.882 -1.7731  0.6344 -2.3827
  166SAPS   H8Y18783   1.753   2.358   5.892  0.2753  0.2253 -0.8119
  166SAPS   C3918784   1.609   2.476   5.800  0.6720  0.2390 -0.0945
  166SAPS   H9X18785   1.665   2.570   5.820  0.7028  0.1623  0.1891
  166SAPS   H9Y18786   1.501   2.504   5.799  1.2594  2.8100  1.1343
  166SAPS  C31018787   1.643   2.413   5.659 -0.6357  0.0886 -0.1006
  166SAPS  H10X18788   1.620   2.305   5.661  2.2755 -0.7215  4.3367
  166SAPS  H10Y18789   1.751   2.436   5.645 -1.3749  3.8365 -0.8632
  166SAPS  C31118790   1.574   2.485   5.538 -0.2926  0.3942 -0.4376
  166SAPS  H11X18791   1.608   2.591   5.541  1.0698 -0.0213 -0.4790
  166SAPS  H11Y18792   1.466   2.479   5.559  0.0440  0.9919  1.7092
  166SAPS  C31218793   1.617   2.418   5.410  0.2210 -0.0168 -0.4118
  166SAPS  H12X18794   1.563   2.322   5.399 -1.9870  0.9559  1.0458
  166SAPS  H12Y18795   1.726   2.396   5.415 -0.0368 -1.2343  0.0937
  166SAPS  C31318796   1.590   2.513   5.294  0.3169 -0.3608  0.3771
  166SAPS  H13X18797   1.671   2.586   5.312  1.3504 -1.6146  0.9170
  166SAPS  H13Y18798   1.489   2.558   5.306  0.1994  0.0937 -1.8318
  166SAPS  C31418799   1.607   2.468   5.144 -0.0764  0.0493 -0.1089
  166SAPS  H14X18800   1.556   2.543   5.080 -1.9242  0.8894  2.1734
  166SAPS  H14Y18801   1.551   2.375   5.120 -2.2498  1.2761 -0.1100
  166SAPS  C31518802   1.749   2.452   5.102 -0.5514 -0.8464 -0.0105
  166SAPS  H15X18803   1.800   2.392   5.179  0.6969  0.8813  0.5771
  166SAPS  H15Y18804   1.797   2.552   5.087 -0.9300 -0.5315  0.8247
  166SAPS  C31618805   1.751   2.385   4.963  0.5823  0.2611 -0.0779
  166SAPS  H16X18806   1.724   2.449   4.876  2.4422  2.2597  0.7182
  166SAPS  H16Y18807   1.682   2.299   4.972 -1.4470  1.5662 -2.0620
  166SAPS  C31718808   1.892   2.328   4.933  0.1001  0.0052  0.7254
  166SAPS  H17X18809   1.877   2.277   4.835  1.0913  0.9704  0.0429
  166SAPS  H17Y18810   1.918   2.254   5.012  3.8687 -1.4079 -1.5428
  166SAPS  C31818811   2.006   2.440   4.923  0.2130  0.2944  0.5406
  166SAPS  H18X18812   1.989   2.501   4.832 -0.0269 -1.0344 -0.3305
  166SAPS  H18Y18813   2.104   2.389   4.912 -0.3715 -1.7276  3.3532
  166SAPS  H18Z18814   2.010   2.498   5.018 -0.5294  0.7421  0.3027
  167SAPS     N18815   3.803   6.051   6.842 -0.5348  0.4041 -0.6650
  167SAPS   HN118816   3.858   5.969   6.811  0.3642  0.9268 -0.4863
  167SAPS   HN218817   3.710   6.013   6.869 -0.5073 -0.3025 -1.5113
  167SAPS   HN318818   3.803   6.117   6.762  1.7931  1.0642 -0.1922
  167SAPS   C1218819   3.873   6.110   6.958 -0.2924  0.7316  0.3434
  167SAPS  H12A18820   3.848   6.055   7.047 -0.9656  0.9773  0.3114
  167SAPS   C1318821   4.029   6.091   6.955  0.5864  0.1213  0.3076
  167SAPS  O13A18822   4.085   6.043   6.853 -0.0604 -0.4482 -0.1189
  167SAPS  O13B18823   4.092   6.137   7.051 -0.1873  0.5109 -0.4245
  167SAPS   C1118824   3.825   6.255   6.972  0.1578 -0.5401  0.2832
  167SAPS  H11A18825   3.842   6.322   6.885  0.1147  0.5066  1.0538
  167SAPS  H11B18826   3.889   6.296   7.053  2.9530 -3.1334 -0.4572
  167SAPS     P18827   3.578   6.339   6.921  0.1884  0.3785  0.4713
  167SAPS   O1318828   3.433   6.306   6.948 -0.1331  0.2116 -0.0168
  167SAPS   O1418829   3.614   6.481   6.907  0.1641 -0.0358 -0.4250
  167SAPS   O1218830   3.686   6.273   7.013 -0.3823 -0.0821 -0.1452
  167SAPS   O1118831   3.605   6.263   6.786  0.0928  0.4856 -0.2381
  167SAPS    C118832   3.545   6.315   6.661 -0.2640 -1.0067 -1.3099
  167SAPS    HA18833   3.436   6.300   6.668 -0.4741  0.9020  3.0603
  167SAPS    HB18834   3.569   6.421   6.637  1.3264 -0.9928  0.1286
  167SAPS    C218835   3.575   6.222   6.537  0.4062  0.0143  0.2765
  167SAPS    HS18836   3.586   6.116   6.569 -0.7018  0.3492  1.9086
  167SAPS   O2118837   3.683   6.272   6.457 -0.1026  0.6276  0.4407
  167SAPS   C2118838   3.794   6.228   6.515 -0.6602 -1.1004  0.3753
  167SAPS   O2218839   3.803   6.147   6.600  0.5874 -0.7173 -0.3946
  167SAPS   C2218840   3.912   6.311   6.465 -0.3150 -0.1212  0.1895
  167SAPS   H2R18841   3.898   6.364   6.369  1.5181 -0.9024 -0.5498
  167SAPS   H2S18842   3.927   6.391   6.540  1.1714  1.0956 -1.3626
  167SAPS    C318843   3.447   6.207   6.453  0.4632 -0.7507  0.4869
  167SAPS    HX18844   3.408   6.310   6.436 -1.4445 -1.5541 -0.2063
  167SAPS    HY18845   3.369   6.150   6.508 -1.2854 -0.9672 -2.0739
  167SAPS   O3118846   3.475   6.135   6.331 -0.1141 -1.2577  0.0455
  167SAPS   C3118847   3.373   6.124   6.246  0.1726 -0.3796  0.1400
  167SAPS   O3218848   3.262   6.167   6.276 -0.1721  0.0238  0.3694
  167SAPS   C3218849   3.421   6.051   6.115 -0.2101  0.8533 -0.0156
  167SAPS   H2X18850   3.399   5.946   6.141 -1.9517  0.5913 -2.2439
  167SAPS   H2Y18851   3.530   6.065   6.098 -0.1141  0.4716  0.2811
  167SAPS   C2318852   4.044   6.232   6.460 -0.1472 -0.2828  0.4802
  167SAPS   H3R18853   4.039   6.148   6.388 -1.9782 -0.5359  0.8430
  167SAPS   H3S18854   4.048   6.181   6.559  1.5274 -1.2337 -0.0399
  167SAPS   C2418855   4.166   6.312   6.424  0.2869 -0.3301  0.6899
  167SAPS   H4R18856   4.148   6.342   6.319  1.9786 -0.1258  0.4353
  167SAPS   H4S18857   4.257   6.248   6.414  0.0407 -0.5249 -0.3231
  167SAPS   C2518858   4.186   6.426   6.518  0.7240  0.0540  0.3153
  167SAPS   H5R18859   4.205   6.395   6.622  2.4221 -1.5170 -0.4209
  167SAPS   C2618860   4.192   6.558   6.481  0.2041 -0.2289 -0.0465
  167SAPS   H6R18861   4.198   6.630   6.564  2.7000 -0.1285 -0.2402
  167SAPS   C2718862   4.183   6.623   6.345  0.3543 -0.8039 -0.1973
  167SAPS   H7R18863   4.258   6.567   6.285  0.8474 -0.3325 -0.0344
  167SAPS   H7S18864   4.210   6.729   6.364 -3.2019  0.1548  0.1864
  167SAPS   C2818865   4.048   6.623   6.278 -0.3588 -0.3908  0.1922
  167SAPS   H8R18866   3.962   6.591   6.338 -0.8632 -0.3404 -0.4837
  167SAPS   C2918867   4.028   6.632   6.146  0.5022  0.1253  0.2595
  167SAPS   H9R18868   3.927   6.626   6.103  0.8350  0.3610 -0.5711
  167SAPS  C21018869   4.136   6.667   6.047  0.2630 -0.0551  0.0830
  167SAPS  H10R18870   4.142   6.588   5.969  1.0063 -1.0771  1.1380
  167SAPS  H10S18871   4.233   6.671   6.101  0.6014 -0.2596 -0.4977
  167SAPS  C21118872   4.109   6.808   5.981  0.4340 -0.2166  0.3214
  167SAPS  H11R18873   4.154   6.894   6.033  1.1931  0.0010 -0.6413
  167SAPS  C21218874   4.043   6.822   5.862  0.1452 -0.5943  0.1907
  167SAPS  H12R18875   4.034   6.921   5.815  2.3080  0.1519  1.2200
  167SAPS  C21318876   3.973   6.710   5.793 -0.7558 -0.6751  0.3961
  167SAPS  H13R18877   3.947   6.626   5.860  2.2677 -2.5077 -0.5060
  167SAPS  H13S18878   4.048   6.650   5.736 -1.9247 -0.6272 -1.2570
  167SAPS  C21418879   3.854   6.739   5.697  0.2156 -0.3847 -0.7357
  167SAPS  H14R18880   3.759   6.757   5.750  1.2196 -0.6465  1.2737
  167SAPS  C21518881   3.866   6.752   5.562  0.2694 -0.1119 -0.7298
  167SAPS  H15R18882   3.772   6.762   5.505 -1.2044 -1.8894  1.2596
  167SAPS  C21618883   3.988   6.743   5.479  0.6267 -0.1752  0.2082
  167SAPS  H16R18884   3.996   6.643   5.430 -2.0708 -0.8616  0.9692
  167SAPS  H16S18885   4.075   6.760   5.545  0.2060  1.4850  0.3888
  167SAPS  C21718886   4.008   6.832   5.354 -0.0300 -0.0904 -0.3986
  167SAPS  H17R18887   3.929   6.813   5.278  0.5575 -0.5061 -0.9156
  167SAPS  H17S18888   4.109   6.821   5.309 -0.3424  0.4864 -1.2623
  167SAPS  C21818889   4.005   6.979   5.393 -0.4274 -0.6058 -0.1818
  167SAPS  H18R18890   4.101   7.006   5.441  0.3863  1.1057 -2.6016
  167SAPS  H18S18891   3.926   6.991   5.470 -2.2314  0.8534 -2.1454
  167SAPS  C21918892   3.983   7.071   5.270 -0.1588 -0.2490  0.2062
  167SAPS  H19R18893   3.933   7.166   5.299 -0.1874 -0.4125  0.7076
  167SAPS  H19S18894   3.914   7.025   5.197 -0.9507  1.8143 -0.4014
  167SAPS  C22018895   4.115   7.098   5.208  1.3859  0.5931  0.0795
  167SAPS  H20R18896   4.190   7.127   5.284  1.4401  1.5686 -0.3220
  167SAPS  H20S18897   4.101   7.181   5.135  0.4977 -0.0589 -0.5149
  167SAPS  H20T18898   4.148   7.003   5.161  1.9205  0.9700 -0.3266
  167SAPS   C3318899   3.345   6.090   5.982  0.2830  0.9340  0.3298
  167SAPS   H3X18900   3.340   6.200   5.967 -2.7524  1.0640  1.4375
  167SAPS   H3Y18901   3.241   6.049   5.984 -0.0027  1.6610  0.7600
  167SAPS   C3418902   3.427   6.030   5.870 -0.3976 -0.8382  0.0411
  167SAPS   H4X18903   3.419   5.921   5.891 -0.0862 -0.3891  2.8048
  167SAPS   H4Y18904   3.536   6.053   5.877 -0.3275 -0.2638 -2.1631
  167SAPS   C3518905   3.380   6.074   5.735  0.1771 -0.2947 -0.0757
  167SAPS   H5X18906   3.379   6.185   5.726 -1.0758 -0.1536  1.4191
  167SAPS   H5Y18907   3.282   6.024   5.722  1.0264 -3.0459  2.7123
  167SAPS   C3618908   3.470   6.013   5.624  0.3875 -0.1236 -0.0419
  167SAPS   H6X18909   3.470   5.903   5.641  0.8005 -0.1009  0.1188
  167SAPS   H6Y18910   3.575   6.049   5.621  0.3438  0.1405 -3.8594
  167SAPS   C3718911   3.416   6.059   5.490  0.5496  0.1351 -0.1081
  167SAPS   H7X18912   3.447   6.165   5.473 -4.2330  1.9607  0.9016
  167SAPS   H7Y18913   3.306   6.058   5.504  0.3474 -2.3308 -1.4561
  167SAPS   C3818914   3.462   5.977   5.374 -0.5876 -0.4161  0.3580
  167SAPS   H8X18915   3.452   5.868   5.390 -0.2107 -0.5768 -0.4659
  167SAPS   H8Y18916   3.568   6.003   5.354 -0.3815 -0.9892  0.6829
  167SAPS   C3918917   3.393   6.001   5.233  0.1899  0.2263 -0.4898
  167SAPS   H9X18918   3.367   6.107   5.209  0.8274  0.1140 -1.7348
  167SAPS   H9Y18919   3.297   5.945   5.228  0.1403  0.3515 -0.9719
  167SAPS  C31018920   3.469   5.940   5.114  0.5516 -0.4291 -0.1882
  167SAPS  H10X18921   3.508   5.839   5.139 -0.0460 -0.2724  1.5621
  167SAPS  H10Y18922   3.558   6.005   5.100 -0.6947  1.9799  2.0667
  167SAPS  C31118923   3.385   5.929   4.986  0.4085 -0.5204 -0.7215
  167SAPS  H11X18924   3.445   5.895   4.898 -1.4336  0.5027 -2.4579
  167SAPS  H11Y18925   3.350   6.029   4.952 -1.4813 -0.1775  1.9113
  167SAPS  C31218926   3.278   5.820   4.997  0.2822  0.4334 -0.3441
  167SAPS  H12X18927   3.200   5.852   5.070 -1.1120 -2.7660 -0.2335
  167SAPS  H12Y18928   3.329   5.730   5.039  3.3565  1.6364 -1.2735
  167SAPS  C31318929   3.205   5.811   4.856 -0.6756 -0.6196 -0.4359
  167SAPS  H13X18930   3.277   5.803   4.772  0.1588 -0.0851  0.2181
  167SAPS  H13Y18931   3.128   5.891   4.853 -1.6753 -1.5621 -0.9910
  167SAPS  C31418932   3.128   5.678   4.848 -0.2552 -0.8913 -0.7641
  167SAPS  H14X18933   3.105   5.652   4.742  1.1580  0.6194 -1.4741
  167SAPS  H14Y18934   3.029   5.702   4.893  0.1268  0.9226 -0.8137
  167SAPS  C31518935   3.206   5.557   4.905  0.5284  0.6582  0.0060
  167SAPS  H15X18936   3.189   5.562   5.015  0.9134 -0.0427  0.1120
  167SAPS  H15Y18937   3.318   5.559   4.902  0.7420 -0.7103  3.0181
  167SAPS  C31618938   3.158   5.425   4.832 -0.1965  0.3742 -0.6541
  167SAPS  H16X18939   3.056   5.448   4.794  0.4580  2.6844 -1.1879
  167SAPS  H16Y18940   3.149   5.356   4.918  1.5213 -2.9667 -2.9413
  167SAPS  C31718941   3.260   5.370   4.733  0.6055 -0.2524 -0.3612
  167SAPS  H17X18942   3.291   5.454   4.667 -2.9910  2.3558  0.9591
  167SAPS  H17Y18943   3.201   5.300   4.671 -1.7557 -0.1681  1.6475
  167SAPS  C31818944   3.379   5.305   4.797  0.4654 -0.5975 -0.9349
  167SAPS  H18X18945   3.433   5.382   4.855 -1.3213  0.0351 -0.0587
  167SAPS  H18Y18946   3.448   5.269   4.718  2.5690 -0.6611  0.8463
  167SAPS  H18Z18947   3.359   5.218   4.863 -0.0741  1.2621  1.4760
  168SAPS     N18948   2.754   3.596   7.873  0.6505  0.1942 -0.5319
  168SAPS   HN118949   2.757   3.680   7.935 -2.6109  0.0857 -0.0660
  168SAPS   HN218950   2.793   3.514   7.924  0.0742 -0.0506 -0.4757
  168SAPS   HN318951   2.786   3.618   7.777 -1.8278  0.7158 -1.3106
  168SAPS   C1218952   2.614   3.556   7.844  0.3973 -0.4755  0.1350
  168SAPS  H12A18953   2.604   3.449   7.839 -1.4004 -0.2852 -3.0022
  168SAPS   C1318954   2.512   3.610   7.945 -0.4690  0.4384 -0.4154
  168SAPS  O13A18955   2.556   3.653   8.053  0.3640  0.3353 -0.4283
  168SAPS  O13B18956   2.395   3.568   7.939 -0.4027 -0.1148  0.4667
  168SAPS   C1118957   2.576   3.597   7.706  0.2465 -0.3796  0.2673
  168SAPS  H11A18958   2.572   3.708   7.700 -1.2852 -0.0797  3.9942
  168SAPS  H11B18959   2.474   3.566   7.676  0.0240  0.9483 -0.3797
  168SAPS     P18960   2.764   3.602   7.518 -0.6028  0.1721 -0.2946
  168SAPS   O1318961   2.839   3.698   7.603  0.3419  0.6433  0.0450
  168SAPS   O1418962   2.843   3.503   7.439 -0.7836  0.3655 -0.9882
  168SAPS   O1218963   2.660   3.524   7.610 -0.0945 -0.4511 -0.0801
  168SAPS   O1118964   2.667   3.688   7.429  0.1172  0.0064 -0.1077
  168SAPS    C118965   2.561   3.640   7.351 -0.2039 -0.3670  0.1551
  168SAPS    HA18966   2.527   3.537   7.378 -1.0923  0.3283  1.8375
  168SAPS    HB18967   2.472   3.705   7.368  0.1422 -0.2936  1.8778
  168SAPS    C218968   2.570   3.654   7.190 -0.1168  0.8336 -0.8618
  168SAPS    HS18969   2.470   3.622   7.153 -0.2916  0.5452 -0.1665
  168SAPS   O2118970   2.689   3.577   7.138  0.4783  0.6444  0.9790
  168SAPS   C2118971   2.678   3.440   7.145  0.1897  0.1421 -0.7496
  168SAPS   O2218972   2.581   3.383   7.187  0.5437 -0.0207 -0.0781
  168SAPS   C2218973   2.806   3.382   7.091  0.8774 -0.6651 -0.3390
  168SAPS   H2R18974   2.892   3.434   7.140  0.7618  1.8021 -2.5497
  168SAPS   H2S18975   2.796   3.276   7.124  1.1582 -0.1502  1.5105
  168SAPS    C318976   2.604   3.807   7.160 -0.6686 -0.1270 -0.5223
  168SAPS    HX18977   2.707   3.825   7.197 -1.4285 -0.6275  2.1218
  168SAPS    HY18978   2.527   3.859   7.222  0.9055 -0.4043  1.7883
  168SAPS   O3118979   2.586   3.823   7.017  0.8431 -0.6990  0.1108
  168SAPS   C3118980   2.566   3.950   6.977  0.4328 -0.2016  0.6228
  168SAPS   O3218981   2.571   4.054   7.039  0.4685 -0.2871 -0.4682
  168SAPS   C3218982   2.542   3.941   6.821 -0.4858 -0.0395 -0.2979
  168SAPS   H2X18983   2.469   3.859   6.807 -0.8991  0.4707 -1.2314
  168SAPS   H2Y18984   2.638   3.907   6.776  1.3735  1.4202  2.2505
  168SAPS   C2318985   2.816   3.389   6.934 -0.2268 -0.0729  0.7252
  168SAPS   H3R18986   2.811   3.497   6.905 -0.2792 -0.3306 -0.2610
  168SAPS   H3S18987   2.727   3.334   6.898  0.2771  0.3966 -1.3519
  168SAPS   C2418988   2.939   3.312   6.886  0.0600  0.7426 -0.2670
  168SAPS   H4R18989   2.931   3.208   6.924 -1.9075  1.5392  1.7359
  168SAPS   H4S18990   3.030   3.358   6.930  1.1700 -0.5859 -1.1139
  168SAPS   C2518991   2.946   3.315   6.734  1.0829  0.2900 -0.1722
  168SAPS   H5R18992   2.861   3.279   6.674  0.9228 -0.5343  0.5299
  168SAPS   C2618993   3.055   3.352   6.664 -0.5763 -0.2542 -0.1168
  168SAPS   H6R18994   3.045   3.340   6.555 -1.1442 -1.7382  0.0753
  168SAPS   C2718995   3.184   3.410   6.707  0.7285  0.4996  0.1414
  168SAPS   H7R18996   3.258   3.329   6.723  0.6390  0.2038 -0.8855
  168SAPS   H7S18997   3.176   3.463   6.805 -0.1537 -0.2594  0.4986
  168SAPS   C2818998   3.225   3.514   6.607 -0.4617  0.7197  0.3717
  168SAPS   H8R18999   3.173   3.610   6.624  0.0161  1.2567 -1.0249
  168SAPS   C2919000   3.308   3.505   6.505  0.2218 -0.0663  0.8431
  168SAPS   H9R19001   3.339   3.592   6.444  0.5754 -1.8555 -1.7094
  168SAPS  C21019002   3.382   3.379   6.476 -0.6426 -0.2846 -0.1293
  168SAPS  H10R19003   3.368   3.354   6.369 -0.0715 -0.4636 -0.1658
  168SAPS  H10S19004   3.346   3.291   6.533 -1.0446  0.6103  1.0668
  168SAPS  C21119005   3.533   3.392   6.497  0.9061 -0.8463  0.4910
  168SAPS  H11R19006   3.552   3.433   6.597 -1.3843 -1.3260  1.1695
  168SAPS  C21219007   3.635   3.374   6.410  0.7952  0.7560 -0.2523
  168SAPS  H12R19008   3.729   3.427   6.433  0.3620  1.6134 -0.3901
  168SAPS  C21319009   3.631   3.348   6.261  0.0324 -0.1925  0.2318
  168SAPS  H13R19010   3.568   3.422   6.207 -0.4551  0.5176  1.7350
  168SAPS  H13S19011   3.574   3.255   6.241  0.3357 -0.2232 -0.5212
  168SAPS  C21419012   3.764   3.329   6.181  0.7059  0.0512  0.1058
  168SAPS  H14R19013   3.816   3.233   6.192 -0.8370 -0.8289 -0.0741
  168SAPS  C21519014   3.807   3.405   6.083 -0.1787 -0.0712 -0.4986
  168SAPS  H15R19015   3.893   3.366   6.027 -0.2178 -0.1957 -0.4721
  168SAPS  C21619016   3.748   3.534   6.026 -0.2150  0.1312  0.0462
  168SAPS  H16R19017   3.818   3.618   6.007 -0.6239  0.1081 -1.6777
  168SAPS  H16S19018   3.681   3.578   6.103  0.0021  0.8057 -0.1395
  168SAPS  C21719019   3.668   3.521   5.899  0.0554 -0.7030  0.4591
  168SAPS  H17R19020   3.630   3.623   5.875  0.5004 -0.7557 -0.4994
  168SAPS  H17S19021   3.580   3.453   5.902 -0.8527  0.1923 -2.5040
  168SAPS  C21819022   3.764   3.489   5.783  0.1754  0.5144  0.2412
  168SAPS  H18R19023   3.793   3.382   5.780 -0.5065  0.3554 -1.7723
  168SAPS  H18S19024   3.858   3.547   5.785 -0.2118  1.1755 -0.3210
  168SAPS  C21919025   3.712   3.530   5.641 -0.3352 -0.3185 -0.3584
  168SAPS  H19R19026   3.707   3.641   5.647  0.2439 -0.3444  0.9654
  168SAPS  H19S19027   3.608   3.491   5.631 -1.2292  2.0000 -0.8623
  168SAPS  C22019028   3.807   3.499   5.523  0.4847  0.8038  0.5458
  168SAPS  H20R19029   3.769   3.554   5.434  1.3864  2.7526  1.3100
  168SAPS  H20S19030   3.801   3.392   5.492  2.7893  0.8772 -0.2975
  168SAPS  H20T19031   3.911   3.533   5.540  0.8438 -0.6863  1.4788
  168SAPS   C3319032   2.496   4.050   6.732  0.2453 -0.0071 -0.1151
  168SAPS   H3X19033   2.572   4.129   6.745  0.3140 -0.0558 -0.2270
  168SAPS   H3Y19034   2.402   4.094   6.772  0.9261 -0.0851  1.6572
  168SAPS   C3419035   2.461   4.021   6.588 -0.2729  0.2403  0.7876
  168SAPS   H4X19036   2.372   3.955   6.594 -0.9068  0.7003 -2.0629
  168SAPS   H4Y19037   2.544   3.956   6.552 -0.9057 -0.9420  1.3840
  168SAPS   C3519038   2.451   4.135   6.485 -0.3189 -0.7675 -0.0771
  168SAPS   H5X19039   2.549   4.185   6.500  0.2686 -1.1511 -2.3335
  168SAPS   H5Y19040   2.380   4.218   6.503  1.0499  0.3622  0.3123
  168SAPS   C3619041   2.453   4.078   6.344 -0.6003 -0.7275  0.1548
  168SAPS   H6X19042   2.362   4.019   6.321 -0.6774 -0.7055  0.3935
  168SAPS   H6Y19043   2.547   4.019   6.338  0.8796  1.4968  0.1705
  168SAPS   C3719044   2.474   4.187   6.241  0.1630  0.2459 -0.6476
  168SAPS   H7X19045   2.553   4.259   6.269 -0.5672  0.1028  2.0042
  168SAPS   H7Y19046   2.380   4.246   6.235 -0.9199 -1.4221 -1.0521
  168SAPS   C3819047   2.504   4.133   6.098  0.1262 -0.0482  0.7829
  168SAPS   H8X19048   2.403   4.092   6.075 -0.2047  0.3232  1.5063
  168SAPS   H8Y19049   2.567   4.041   6.098 -1.8657 -1.4791 -0.0057
  168SAPS   C3919050   2.535   4.234   5.998 -0.3382 -0.1968  0.8089
  168SAPS   H9X19051   2.637   4.274   6.016  0.2367 -1.2021 -0.1064
  168SAPS   H9Y19052   2.470   4.322   6.021 -3.1254 -1.1129 -2.7556
  168SAPS  C31019053   2.514   4.190   5.853  0.0039  0.1999  0.0035
  168SAPS  H10X19054   2.417   4.138   5.842 -1.6072  3.0528 -0.3403
  168SAPS  H10Y19055   2.601   4.130   5.819  0.2088  2.0107 -3.0435
  168SAPS  C31119056   2.504   4.309   5.762  0.1599 -0.3378 -0.1638
  168SAPS  H11X19057   2.598   4.363   5.738  0.4947 -0.7190  0.2855
  168SAPS  H11Y19058   2.439   4.380   5.818  0.5794 -0.4315  0.4546
  168SAPS  C31219059   2.427   4.289   5.637  0.5806 -0.3795  0.7156
  168SAPS  H12X19060   2.372   4.378   5.599  0.7857  0.4032  2.1619
  168SAPS  H12Y19061   2.346   4.217   5.661 -0.0292 -0.3654 -1.1599
  168SAPS  C31319062   2.505   4.232   5.514  0.5061 -0.5306 -0.2044
  168SAPS  H13X19063   2.554   4.139   5.550 -1.2654 -1.2839  0.3442
  168SAPS  H13Y19064   2.580   4.308   5.482 -1.1986  0.9947 -0.7747
  168SAPS  C31419065   2.400   4.188   5.410  0.3059 -0.2146 -0.1420
  168SAPS  H14X19066   2.336   4.274   5.380  0.8142  0.0964 -0.3378
  168SAPS  H14Y19067   2.323   4.116   5.446 -1.2993 -1.0731 -4.6021
  168SAPS  C31519068   2.450   4.119   5.276 -0.1613 -0.6604 -0.1849
  168SAPS  H15X19069   2.480   4.014   5.295 -1.6267 -0.6686  2.5868
  168SAPS  H15Y19070   2.546   4.172   5.259 -1.6824  2.1705 -0.5360
  168SAPS  C31619071   2.365   4.148   5.159 -0.0944  0.2086 -0.7853
  168SAPS  H16X19072   2.330   4.253   5.160 -2.1353 -0.4297 -1.3401
  168SAPS  H16Y19073   2.274   4.086   5.173  0.5773 -0.1705  2.4965
  168SAPS  C31719074   2.436   4.133   5.018  0.4248  0.4827  0.0508
  168SAPS  H17X19075   2.357   4.156   4.944  0.7147 -2.2494 -1.2084
  168SAPS  H17Y19076   2.461   4.030   4.986  1.2373  1.5034 -2.9648
  168SAPS  C31819077   2.552   4.226   4.984 -0.2265 -0.5052 -0.0565
  168SAPS  H18X19078   2.648   4.197   5.033 -0.5470 -0.0469  0.8707
  168SAPS  H18Y19079   2.538   4.331   5.018 -0.5698 -0.1768 -1.1600
  168SAPS  H18Z19080   2.571   4.228   4.875  1.7431 -0.4302  0.2525
  169SAPS     N19081   3.221   4.993   7.211  0.0571  0.2430 -0.1708
  169SAPS   HN119082   3.195   4.897   7.182 -0.9594  0.0679  1.2126
  169SAPS   HN219083   3.194   4.991   7.311  2.8532  0.1204  0.6789
  169SAPS   HN319084   3.152   5.049   7.157  0.1410 -0.6113 -1.1938
  169SAPS   C1219085   3.355   5.043   7.185  0.4222 -0.2596 -0.5098
  169SAPS  H12A19086   3.365   5.137   7.238 -1.7968 -0.9232  1.2118
  169SAPS   C1319087   3.462   4.951   7.241 -0.0394 -0.0832  0.4419
  169SAPS  O13A19088   3.433   4.841   7.291 -0.3211  0.1007 -0.7470
  169SAPS  O13B19089   3.581   4.989   7.238 -0.3313 -0.0266  0.5269
  169SAPS   C1119090   3.376   5.056   7.031 -0.1645 -0.6503  0.5006
  169SAPS  H11A19091   3.348   4.960   6.983  1.7341 -0.4178 -1.2061
  169SAPS  H11B19092   3.483   5.083   7.025 -1.0417  3.3832 -0.2553
  169SAPS     P19093   3.153   5.187   6.933 -0.0319 -0.0179 -0.0484
  169SAPS   O1319094   3.070   5.165   7.046 -0.3665 -0.1841  0.1659
  169SAPS   O1419095   3.143   5.321   6.874 -0.3290 -0.4845  0.1950
  169SAPS   O1219096   3.307   5.163   6.962 -0.3106 -0.4946  0.3105
  169SAPS   O1119097   3.113   5.079   6.822 -0.2190 -0.6200  0.1321
  169SAPS    C119098   3.206   5.015   6.731  0.6652  0.2712  0.7396
  169SAPS    HA19099   3.292   4.979   6.791  1.9824  3.1979  0.7936
  169SAPS    HB19100   3.151   4.932   6.682  1.1447 -1.5635  3.1393
  169SAPS    C219101   3.253   5.119   6.629  0.5076 -0.4378 -0.1057
  169SAPS    HS19102   3.321   5.182   6.689 -1.4501  0.3965  1.3545
  169SAPS   O2119103   3.136   5.187   6.581  0.3785  0.6860  0.9074
  169SAPS   C2119104   3.169   5.314   6.551  0.3660  0.0023  0.1376
  169SAPS   O2219105   3.271   5.373   6.578  0.2485 -0.3923  0.2787
  169SAPS   C2219106   3.048   5.379   6.489 -0.4084  0.2341  0.5822
  169SAPS   H2R19107   2.970   5.372   6.568 -0.8129 -3.8850  0.0684
  169SAPS   H2S19108   3.083   5.484   6.481  1.6447 -0.2079  2.6291
  169SAPS    C319109   3.318   5.047   6.510 -0.3976  0.2173 -0.1398
  169SAPS    HX19110   3.237   4.996   6.455 -0.4034 -1.0603  1.0070
  169SAPS    HY19111   3.379   4.964   6.553  1.2045  0.0008 -2.6184
  169SAPS   O3119112   3.387   5.142   6.416 -0.0705 -0.0660 -0.2319
  169SAPS   C3119113   3.511   5.153   6.452 -0.1674  0.6298  0.3425
  169SAPS   O3219114   3.560   5.110   6.552 -0.3891 -0.6909 -0.2836
  169SAPS   C3219115   3.585   5.226   6.338  0.2945 -0.3168 -0.4330
  169SAPS   H2X19116   3.574   5.336   6.346 -2.8791 -0.2184 -3.7076
  169SAPS   H2Y19117   3.533   5.200   6.244 -1.9271  2.8504 -0.2339
  169SAPS   C2319118   3.017   5.328   6.348  0.0580  0.2079 -0.6282
  169SAPS   H3R19119   2.935   5.389   6.306  0.5227 -0.0979 -2.0112
  169SAPS   H3S19120   2.990   5.221   6.352  2.1860 -0.3736 -0.3336
  169SAPS   C2419121   3.135   5.347   6.250 -0.2275  0.3854  0.3910
  169SAPS   H4R19122   3.204   5.260   6.253 -0.7602 -0.1447 -1.3130
  169SAPS   H4S19123   3.200   5.431   6.282  0.6781  0.9661 -2.6671
  169SAPS   C2519124   3.097   5.367   6.101  0.1094 -0.3004  0.2290
  169SAPS   H5R19125   3.010   5.427   6.073 -0.8651 -1.2658  1.1099
  169SAPS   C2619126   3.162   5.310   5.994 -0.3038 -0.3704 -0.3926
  169SAPS   H6R19127   3.120   5.333   5.896  0.8087 -0.6398 -0.9554
  169SAPS   C2719128   3.272   5.224   5.988 -1.2073  0.4870 -0.1703
  169SAPS   H7R19129   3.244   5.127   6.036 -1.1406  0.4544 -0.1984
  169SAPS   H7S19130   3.353   5.266   6.052 -1.6516  1.4083 -0.1914
  169SAPS   C2819131   3.327   5.192   5.857 -0.2234 -0.3167 -0.1259
  169SAPS   H8R19132   3.348   5.085   5.847 -0.5092 -0.3894  0.0415
  169SAPS   C2919133   3.350   5.276   5.748 -0.7319 -0.0277 -0.0719
  169SAPS   H9R19134   3.375   5.214   5.660 -2.7104 -1.8916  0.5892
  169SAPS  C21019135   3.346   5.426   5.740  0.4847 -0.7487  0.1849
  169SAPS  H10R19136   3.328   5.472   5.839  2.6450 -0.9115  0.7125
  169SAPS  H10S19137   3.258   5.463   5.683  1.8950  4.1232  0.7525
  169SAPS  C21119138   3.471   5.492   5.679 -0.3909  0.4432 -0.5166
  169SAPS  H11R19139   3.548   5.506   5.756 -3.1101 -0.0480  2.4987
  169SAPS  C21219140   3.482   5.551   5.558 -0.2220 -0.4420 -0.1102
  169SAPS  H12R19141   3.581   5.586   5.525  0.2767 -0.3875  1.3632
  169SAPS  C21319142   3.368   5.572   5.456  0.2713  0.0911  0.3809
  169SAPS  H13R19143   3.335   5.677   5.467 -1.5766 -0.5159  1.2016
  169SAPS  H13S19144   3.279   5.511   5.483  1.1388 -2.5911 -2.2950
  169SAPS  C21419145   3.413   5.560   5.310 -0.1344 -0.6529  0.0385
  169SAPS  H14R19146   3.433   5.651   5.251 -2.0654 -0.6253 -0.6585
  169SAPS  C21519147   3.416   5.442   5.247 -0.0389 -0.1666 -0.2732
  169SAPS  H15R19148   3.438   5.440   5.139 -2.8509 -0.4505 -0.9235
  169SAPS  C21619149   3.369   5.315   5.313  0.0746 -0.2028 -0.0687
  169SAPS  H16R19150   3.330   5.334   5.416 -0.5093 -0.1896 -0.2880
  169SAPS  H16S19151   3.451   5.241   5.309 -0.1078 -0.3544 -1.1371
  169SAPS  C21719152   3.251   5.264   5.231 -0.6596  0.2814  0.0489
  169SAPS  H17R19153   3.282   5.241   5.127  0.0668  0.1234  0.2991
  169SAPS  H17S19154   3.174   5.344   5.237 -2.4905 -1.2670 -1.5315
  169SAPS  C21819155   3.188   5.138   5.301  0.4260 -0.6358  0.6992
  169SAPS  H18R19156   3.130   5.180   5.387  0.4020 -1.6697  1.2041
  169SAPS  H18S19157   3.266   5.069   5.338  0.6853 -1.2263 -0.8740
  169SAPS  C21919158   3.102   5.055   5.211 -0.3191 -0.0367 -0.3380
  169SAPS  H19R19159   3.016   5.117   5.181  0.3452  0.7812 -0.5937
  169SAPS  H19S19160   3.058   4.980   5.281  1.3538 -0.2991  0.5085
  169SAPS  C22019161   3.170   4.999   5.088 -0.0944  0.2878 -0.1892
  169SAPS  H20R19162   3.248   4.933   5.133 -1.8662 -0.8850  1.3455
  169SAPS  H20S19163   3.214   5.078   5.024  2.4776  1.1163  2.3934
  169SAPS  H20T19164   3.109   4.921   5.037 -3.0569  2.1283  0.3613
  169SAPS   C3319165   3.731   5.170   6.322 -0.2441  0.1427 -0.1008
  169SAPS   H3X19166   3.730   5.062   6.300 -3.0929  0.1153 -0.3007
  169SAPS   H3Y19167   3.787   5.201   6.413 -0.7249 -0.6241  0.4642
  169SAPS   C3419168   3.812   5.237   6.199  0.1233 -0.0470  0.0787
  169SAPS   H4X19169   3.910   5.184   6.187 -0.0708 -0.4096  0.0810
  169SAPS   H4Y19170   3.835   5.342   6.226  0.6108  0.5136 -2.2642
  169SAPS   C3519171   3.747   5.217   6.065  0.4906  0.3967  0.0804
  169SAPS   H5X19172   3.649   5.271   6.065  0.4476  0.3194  0.1645
  169SAPS   H5Y19173   3.737   5.110   6.038  0.2092  0.1202  1.2361
  169SAPS   C3619174   3.825   5.295   5.952  0.4485 -0.7912 -0.1444
  169SAPS   H6X19175   3.932   5.264   5.963  0.7110  0.0939 -0.0763
  169SAPS   H6Y19176   3.816   5.402   5.981  0.9149 -0.6312 -0.5696
  169SAPS   C3719177   3.773   5.278   5.812  0.0441 -0.4044  0.3192
  169SAPS   H7X19178   3.679   5.333   5.795  0.9552  0.8043 -1.0915
  169SAPS   H7Y19179   3.753   5.170   5.796 -2.9007  0.0210  0.7261
  169SAPS   C3819180   3.873   5.320   5.702 -0.2284 -0.0263 -0.2083
  169SAPS   H8X19181   3.979   5.287   5.711  0.3990  1.5535 -1.2971
  169SAPS   H8Y19182   3.874   5.429   5.725 -3.0782  0.1202 -0.4798
  169SAPS   C3919183   3.829   5.307   5.550  0.6399  0.6477 -0.4790
  169SAPS   H9X19184   3.730   5.354   5.535  0.4856  0.7259  0.7199
  169SAPS   H9Y19185   3.823   5.199   5.524  1.0089  1.2461 -3.3610
  169SAPS  C31019186   3.934   5.362   5.447  0.9691  0.3907  0.5028
  169SAPS  H10X19187   4.034   5.335   5.486  1.4132  1.5466  0.2023
  169SAPS  H10Y19188   3.929   5.472   5.430 -0.4741  0.2871  0.0888
  169SAPS  C31119189   3.931   5.284   5.308  0.4537 -0.1731 -0.7302
  169SAPS  H11X19190   3.837   5.315   5.256 -0.5829  1.2266  1.8075
  169SAPS  H11Y19191   3.930   5.175   5.331  0.3363  0.2909  1.7592
  169SAPS  C31219192   4.057   5.317   5.228  0.5632 -0.0800  0.3276
  169SAPS  H12X19193   4.141   5.247   5.249 -0.3308 -0.7228  1.9607
  169SAPS  H12Y19194   4.085   5.423   5.249  1.0530 -0.8117  4.1271
  169SAPS  C31319195   4.030   5.324   5.075 -0.1006  0.1706  0.3053
  169SAPS  H13X19196   3.938   5.385   5.067 -0.7812 -0.9996 -1.4934
  169SAPS  H13Y19197   4.009   5.218   5.048 -2.8549  0.3220  1.5413
  169SAPS  C31419198   4.140   5.392   4.998 -0.6210  0.8904 -0.6583
  169SAPS  H14X19199   4.177   5.485   5.046 -0.7919  0.9855 -0.7099
  169SAPS  H14Y19200   4.106   5.422   4.897  1.5554  1.2773 -1.3137
  169SAPS  C31519201   4.262   5.300   4.962  1.0227  0.6392  0.4586
  169SAPS  H15X19202   4.320   5.296   5.057  1.1782 -0.6519  0.3178
  169SAPS  H15Y19203   4.315   5.356   4.882 -0.7398  0.9652 -0.5111
  169SAPS  C31619204   4.212   5.155   4.928 -0.2408  0.2974  0.0842
  169SAPS  H16X19205   4.128   5.167   4.857 -0.2681  2.1223  0.3650
  169SAPS  H16Y19206   4.174   5.109   5.022  3.3404 -2.0496  0.5670
  169SAPS  C31719207   4.322   5.065   4.866  0.0209  0.6301  0.0372
  169SAPS  H17X19208   4.332   5.103   4.762 -1.2555  1.0930  0.0740
  169SAPS  H17Y19209   4.283   4.962   4.876 -1.0182  0.6298 -3.0232
  169SAPS  C31819210   4.461   5.063   4.943  0.4884 -1.0774 -0.2525
  169SAPS  H18X19211   4.518   4.980   4.896 -1.3106 -2.7746  0.4257
  169SAPS  H18Y19212   4.436   5.034   5.047  2.1936  2.2902  1.2233
  169SAPS  H18Z19213   4.510   5.161   4.931 -0.4130 -0.5196  0.4815
  170SAPS     N19214   3.471   4.114   7.508 -0.2527  0.3481 -0.3086
  170SAPS   HN119215   3.382   4.060   7.508 -0.0205 -0.0470 -0.0681
  170SAPS   HN219216   3.445   4.209   7.542 -2.7802 -0.7857  1.2611
  170SAPS   HN319217   3.510   4.123   7.412 -3.1855  0.0568 -1.6371
  170SAPS   C1219218   3.567   4.047   7.593 -0.6544  0.6307 -0.0138
  170SAPS  H12A19219   3.534   4.059   7.695 -1.9018  1.3395 -0.4793
  170SAPS   C1319220   3.585   3.896   7.569 -0.4394 -0.4476 -0.1484
  170SAPS  O13A19221   3.492   3.842   7.507 -0.2857 -0.1490  0.4049
  170SAPS  O13B19222   3.653   3.835   7.652 -0.0518  0.0913 -0.9528
  170SAPS   C1119223   3.710   4.112   7.586 -0.2596  0.3344 -0.4473
  170SAPS  H11A19224   3.779   4.044   7.640 -0.4192 -1.0067 -1.8462
  170SAPS  H11B19225   3.705   4.208   7.640  1.7306  1.4989 -2.2005
  170SAPS     P19226   3.893   4.139   7.410  0.5306 -0.2315  0.1223
  170SAPS   O1319227   3.960   4.257   7.464 -0.2423 -0.0452 -0.7075
  170SAPS   O1419228   3.955   4.008   7.431  0.0211  0.1261 -0.4397
  170SAPS   O1219229   3.744   4.134   7.453  0.2295 -0.4897 -0.4098
  170SAPS   O1119230   3.883   4.170   7.247 -0.1808  0.4743 -0.4494
  170SAPS    C119231   3.789   4.129   7.154  0.2327  0.0946  0.9860
  170SAPS    HA19232   3.697   4.090   7.203  1.2383 -0.5710  2.4210
  170SAPS    HB19233   3.764   4.216   7.090  0.6817  0.1846  0.9367
  170SAPS    C219234   3.846   4.016   7.065  1.1019  0.2374  1.2239
  170SAPS    HS19235   3.929   3.972   7.123  2.2574 -1.7331 -1.6829
  170SAPS   O2119236   3.891   4.085   6.951  0.0679 -0.1542  0.4905
  170SAPS   C2119237   4.001   4.045   6.894  0.3842  0.1386 -0.6286
  170SAPS   O2219238   4.067   3.949   6.917  0.1983 -0.2412  0.5003
  170SAPS   C2219239   4.037   4.142   6.785 -0.1564  0.5352  0.0941
  170SAPS   H2R19240   3.963   4.127   6.703 -0.2838  2.5181 -0.2168
  170SAPS   H2S19241   4.014   4.242   6.828 -3.2677 -0.1176  0.1948
  170SAPS    C319242   3.746   3.896   7.030 -0.0466 -0.7990  0.2526
  170SAPS    HX19243   3.646   3.942   7.016  0.5439  0.4687  0.0668
  170SAPS    HY19244   3.740   3.827   7.117  0.7866 -0.4233  0.6266
  170SAPS   O3119245   3.776   3.825   6.909 -0.0739  0.4002 -0.1655
  170SAPS   C3119246   3.859   3.721   6.920 -0.2302 -0.4890  1.0621
  170SAPS   O3219247   3.897   3.679   7.027  0.3267 -0.1827 -0.1102
  170SAPS   C3219248   3.886   3.662   6.777  0.0534  0.0682  0.0014
  170SAPS   H2X19249   3.794   3.688   6.720  0.5159  4.5508  0.8693
  170SAPS   H2Y19250   3.900   3.553   6.793  0.3489  0.3259  1.7038
  170SAPS   C2319251   4.182   4.127   6.735 -0.0613  0.2128 -0.1014
  170SAPS   H3R19252   4.199   4.021   6.707 -1.9660  0.7550 -4.1218
  170SAPS   H3S19253   4.251   4.158   6.816  1.4320 -0.3755 -1.0985
  170SAPS   C2419254   4.211   4.219   6.614 -0.1484  0.5597  0.0623
  170SAPS   H4R19255   4.321   4.230   6.611 -0.0950  0.0061 -0.1791
  170SAPS   H4S19256   4.169   4.321   6.619 -0.0185  0.7197 -1.5883
  170SAPS   C2519257   4.155   4.172   6.481 -0.1387 -0.3168 -0.3746
  170SAPS   H5R19258   4.045   4.165   6.476 -0.2980  1.0024  0.7457
  170SAPS   C2619259   4.221   4.115   6.384 -0.9207  0.3384 -0.3091
  170SAPS   H6R19260   4.154   4.076   6.306 -1.2179  0.9870 -0.3874
  170SAPS   C2719261   4.369   4.092   6.387  0.0645 -0.8330  0.0488
  170SAPS   H7R19262   4.393   4.048   6.486  2.0434  0.2387  0.0902
  170SAPS   H7S19263   4.423   4.189   6.381  0.3963 -1.1008 -3.3302
  170SAPS   C2819264   4.432   4.007   6.285  0.6539 -0.2471 -0.2412
  170SAPS   H8R19265   4.479   3.910   6.310 -0.4690 -0.7078  0.1593
  170SAPS   C2919266   4.438   4.032   6.154  0.2223 -0.8194 -0.1632
  170SAPS   H9R19267   4.493   3.967   6.085 -0.6140 -2.1641  0.3982
  170SAPS  C21019268   4.371   4.151   6.080 -0.3065  0.2697  0.0825
  170SAPS  H10R19269   4.456   4.223   6.082  2.6997 -2.9905  0.4355
  170SAPS  H10S19270   4.284   4.190   6.138 -0.8608  0.1523 -0.6610
  170SAPS  C21119271   4.318   4.120   5.951  0.6534  0.3115  0.4966
  170SAPS  H11R19272   4.227   4.059   5.951  0.9873 -0.2436 -1.4547
  170SAPS  C21219273   4.382   4.131   5.830 -0.2851  0.1204  0.4783
  170SAPS  H12R19274   4.332   4.095   5.738  0.1747  1.3642 -0.2889
  170SAPS  C21319275   4.521   4.181   5.806 -0.3854  0.1337  0.1127
  170SAPS  H13R19276   4.563   4.232   5.895  0.0399  1.4226 -0.7883
  170SAPS  H13S19277   4.523   4.262   5.730  0.2636 -0.6882 -0.7728
  170SAPS  C21419278   4.614   4.064   5.791 -0.7774  0.0859  0.3428
  170SAPS  H14R19279   4.646   4.024   5.888 -0.3264 -0.2358  0.0685
  170SAPS  C21519280   4.669   4.021   5.674 -0.1414  0.1392 -0.3608
  170SAPS  H15R19281   4.729   3.928   5.675 -2.9913 -1.8370  1.3677
  170SAPS  C21619282   4.637   4.081   5.541  0.3082  0.2155 -0.1259
  170SAPS  H16R19283   4.724   4.131   5.493 -0.6416  0.1403 -2.0249
  170SAPS  H16S19284   4.565   4.166   5.545  0.2247  0.2653 -1.8517
  170SAPS  C21719285   4.579   3.965   5.458  0.4461  0.5910 -0.9801
  170SAPS  H17R19286   4.488   3.936   5.514  0.9484  1.4260  0.3107
  170SAPS  H17S19287   4.647   3.878   5.461 -1.7116 -1.1391  0.6364
  170SAPS  C21819288   4.541   4.004   5.317  0.6425 -0.0330 -0.3156
  170SAPS  H18R19289   4.636   4.019   5.261  0.4275 -0.2760 -0.7533
  170SAPS  H18S19290   4.485   4.100   5.320 -0.6228 -0.7614  0.3837
  170SAPS  C21919291   4.445   3.905   5.251  0.4033 -0.6075  0.2931
  170SAPS  H19R19292   4.341   3.905   5.291 -0.1213  2.5819 -0.7805
  170SAPS  H19S19293   4.487   3.804   5.273  0.0684 -0.8509 -0.1722
  170SAPS  C22019294   4.436   3.924   5.100  0.3554 -0.1265 -0.2846
  170SAPS  H20R19295   4.531   3.919   5.043  0.6828  0.1911  0.2255
  170SAPS  H20S19296   4.393   4.025   5.086 -0.1333  0.2267  2.9688
  170SAPS  H20T19297   4.356   3.856   5.061  2.1479 -0.9349 -2.8290
  170SAPS   C3319298   4.009   3.721   6.705  0.1364  0.8502  0.2073
  170SAPS   H3X19299   4.108   3.695   6.747  0.4135  1.5810  0.0187
  170SAPS   H3Y19300   4.004   3.832   6.715 -0.4142  0.8564 -0.0750
  170SAPS   C3419301   4.005   3.682   6.558 -0.3647  0.2259 -0.3582
  170SAPS   H4X19302   3.901   3.674   6.520 -1.0864  3.2786  0.6798
  170SAPS   H4Y19303   4.046   3.579   6.556  1.7603  0.9957  0.0118
  170SAPS   C3519304   4.098   3.750   6.459 -0.4550 -0.2459  0.9279
  170SAPS   H5X19305   4.204   3.762   6.488 -0.0094  2.1862 -1.3057
  170SAPS   H5Y19306   4.067   3.854   6.434 -0.2844 -0.4809 -0.3425
  170SAPS   C3619307   4.107   3.670   6.332 -0.5587  0.6216 -0.1558
  170SAPS   H6X19308   4.016   3.606   6.328  1.0583 -1.8924  0.9517
  170SAPS   H6Y19309   4.180   3.588   6.344 -2.0632 -0.5788  1.1888
  170SAPS   C3719310   4.139   3.746   6.207  0.5897 -0.5665 -0.8082
  170SAPS   H7X19311   4.227   3.813   6.215  1.1660 -1.4472  0.5457
  170SAPS   H7Y19312   4.057   3.818   6.183  1.4364  1.2192  1.3510
  170SAPS   C3819313   4.178   3.657   6.091  0.9260  0.0033 -0.1218
  170SAPS   H8X19314   4.100   3.578   6.079 -0.0980  1.0078 -0.2949
  170SAPS   H8Y19315   4.268   3.604   6.129  0.0782 -0.6915  0.9774
  170SAPS   C3919316   4.221   3.731   5.965 -0.2510  0.4328 -0.3829
  170SAPS   H9X19317   4.268   3.823   6.005 -0.7214  0.6222 -0.2669
  170SAPS   H9Y19318   4.137   3.756   5.896  0.1592 -1.5854 -1.6947
  170SAPS  C31019319   4.330   3.662   5.879  0.1369 -0.2131 -0.1815
  170SAPS  H10X19320   4.300   3.560   5.850  0.7079 -0.4771  0.1282
  170SAPS  H10Y19321   4.424   3.647   5.937 -0.3145 -1.0162  0.3631
  170SAPS  C31119322   4.364   3.756   5.759  0.6831  0.6841 -0.0895
  170SAPS  H11X19323   4.456   3.738   5.699 -0.9800 -3.0591 -1.8353
  170SAPS  H11Y19324   4.375   3.862   5.793  0.7810  0.8593 -0.6656
  170SAPS  C31219325   4.250   3.747   5.648 -0.0307  0.1141  0.9744
  170SAPS  H12X19326   4.277   3.832   5.581  2.8925 -0.7374  0.9347
  170SAPS  H12Y19327   4.146   3.756   5.687 -0.7181 -0.5540 -0.6468
  170SAPS  C31319328   4.255   3.616   5.570  0.8564  0.1406  0.4552
  170SAPS  H13X19329   4.205   3.547   5.641 -0.4535 -0.3324 -0.8700
  170SAPS  H13Y19330   4.357   3.584   5.538  1.8866  1.5963  2.0733
  170SAPS  C31419331   4.172   3.626   5.439  0.3075 -0.5141 -0.1216
  170SAPS  H14X19332   4.206   3.706   5.370 -1.8581  1.3295  0.8002
  170SAPS  H14Y19333   4.070   3.663   5.463 -0.4266 -0.7178 -2.6802
  170SAPS  C31519334   4.160   3.496   5.361 -0.3280  0.2099  0.1945
  170SAPS  H15X19335   4.119   3.417   5.428 -0.9071 -1.0405 -1.5700
  170SAPS  H15Y19336   4.260   3.457   5.332 -1.4129 -1.3090 -1.7197
  170SAPS  C31619337   4.072   3.494   5.234 -0.1238 -0.0071 -0.5358
  170SAPS  H16X19338   3.973   3.533   5.265 -0.0152 -0.1706  0.0294
  170SAPS  H16Y19339   4.074   3.389   5.196  2.7092  0.1881 -1.1497
  170SAPS  C31719340   4.125   3.586   5.130  0.3444 -0.2493 -0.1845
  170SAPS  H17X19341   4.230   3.561   5.108  1.0182  0.1446  2.2814
  170SAPS  H17Y19342   4.119   3.690   5.168 -1.0589 -1.1632  2.3678
  170SAPS  C31819343   4.049   3.582   4.998  0.8098 -0.7978  0.5526
  170SAPS  H18X19344   3.967   3.657   5.004 -1.5177 -2.9507 -1.3581
  170SAPS  H18Y19345   4.004   3.484   4.970 -0.7541  0.4770 -1.7993
  170SAPS  H18Z19346   4.120   3.595   4.914 -1.0363  0.2513 -0.9467
  171SAPS     N19347   5.379   4.120   7.517  0.7797  0.3583  0.1222
  171SAPS   HN119348   5.279   4.131   7.491 -0.0810 -2.1085  2.0319
  171SAPS   HN219349   5.436   4.077   7.441 -1.7258 -1.8839 -0.6280
  171SAPS   HN319350   5.367   4.050   7.593 -0.2488  1.1806  0.7305
  171SAPS   C1219351   5.441   4.243   7.574 -0.1121 -0.4445 -0.0316
  171SAPS  H12A19352   5.395   4.253   7.672  0.6312 -0.2871  0.3078
  171SAPS   C1319353   5.583   4.231   7.612 -0.1290 -0.7275  0.3159
  171SAPS  O13A19354   5.645   4.126   7.588 -0.2323  0.9914  0.0625
  171SAPS  O13B19355   5.635   4.319   7.689  0.8738 -0.0116  0.0794
  171SAPS   C1119356   5.421   4.361   7.479 -0.5365  0.1957  0.3570
  171SAPS  H11A19357   5.474   4.341   7.383 -1.5209 -0.8695  0.0140
  171SAPS  H11B19358   5.455   4.457   7.524 -1.6358  0.5935  0.3683
  171SAPS     P19359   5.233   4.500   7.357  0.0747  0.3522  0.1608
  171SAPS   O1319360   5.086   4.491   7.342  0.2343 -0.8126  0.1721
  171SAPS   O1419361   5.294   4.626   7.405  0.3647 -0.5798  0.2394
  171SAPS   O1219362   5.283   4.373   7.447  0.3504  0.4032 -0.6078
  171SAPS   O1119363   5.312   4.478   7.221 -0.3599 -0.2734  0.1943
  171SAPS    C119364   5.298   4.351   7.158 -0.2750  0.2317 -0.6470
  171SAPS    HA19365   5.397   4.303   7.140 -1.0664 -1.4894 -0.5699
  171SAPS    HB19366   5.235   4.279   7.215  1.0309 -2.3867 -2.3404
  171SAPS    C219367   5.225   4.355   7.018 -0.0057 -0.1867  0.7878
  171SAPS    HS19368   5.214   4.245   7.007  0.2305 -0.1060 -0.3762
  171SAPS   O2119369   5.305   4.411   6.917 -0.6829  0.4121 -0.2778
  171SAPS   C2119370   5.406   4.338   6.877 -0.4698 -0.1836  0.3378
  171SAPS   O2219371   5.431   4.225   6.909 -0.3109  1.0901 -0.0166
  171SAPS   C2219372   5.477   4.420   6.768  0.1772  0.0693  0.0394
  171SAPS   H2R19373   5.392   4.438   6.699  0.5739  1.3989 -0.1196
  171SAPS   H2S19374   5.508   4.514   6.817 -1.7898 -1.2263  4.2636
  171SAPS    C319375   5.089   4.426   7.025 -0.2237 -0.4028 -0.3508
  171SAPS    HX19376   5.112   4.531   7.053  0.1698 -0.7015  0.4827
  171SAPS    HY19377   5.028   4.380   7.106 -1.4034 -0.9605 -1.5179
  171SAPS   O3119378   5.019   4.428   6.902  0.6266 -0.6485 -0.2521
  171SAPS   C3119379   4.968   4.308   6.864 -0.6438  0.0066 -0.5381
  171SAPS   O3219380   4.975   4.212   6.942 -0.2085  0.5304 -0.5407
  171SAPS   C3219381   4.918   4.314   6.724  0.4993 -0.7856 -0.4893
  171SAPS   H2X19382   4.985   4.258   6.655  2.0298  0.5644 -0.1451
  171SAPS   H2Y19383   4.921   4.414   6.675  0.1062 -0.2191  0.6147
  171SAPS   C2319384   5.595   4.350   6.700 -0.1742  0.3276 -0.5700
  171SAPS   H3R19385   5.588   4.239   6.703  1.9487  0.1614  1.8011
  171SAPS   H3S19386   5.676   4.370   6.773 -1.0469 -4.6379  2.2834
  171SAPS   C2419387   5.607   4.396   6.555 -0.2398  0.6358  0.7900
  171SAPS   H4R19388   5.574   4.500   6.534  0.0850  0.4580 -0.7541
  171SAPS   H4S19389   5.533   4.336   6.498  2.0433  0.0232 -1.7605
  171SAPS   C2519390   5.757   4.368   6.509 -0.0742 -0.1542 -0.1261
  171SAPS   H5R19391   5.831   4.412   6.577  0.1395  1.5531 -1.4027
  171SAPS   C2619392   5.804   4.299   6.404  0.1100  0.2311  0.4805
  171SAPS   H6R19393   5.913   4.297   6.386 -0.1134  0.4004 -0.9555
  171SAPS   C2719394   5.718   4.234   6.297 -0.2627  0.4449  0.0029
  171SAPS   H7R19395   5.773   4.248   6.202  1.1619  0.0586  0.7380
  171SAPS   H7S19396   5.628   4.299   6.291 -0.2089  0.8711  2.4695
  171SAPS   C2819397   5.680   4.086   6.313  0.9758 -0.0349 -0.0823
  171SAPS   H8R19398   5.672   4.051   6.417  0.3165 -1.2443 -0.5180
  171SAPS   C2919399   5.646   4.009   6.210  0.4094  0.1443  0.0785
  171SAPS   H9R19400   5.616   3.906   6.233  1.2474 -0.4343 -1.2956
  171SAPS  C21019401   5.657   4.045   6.069  0.0481  0.1219  0.0626
  171SAPS  H10R19402   5.754   4.012   6.027 -0.5922 -0.6542 -0.8603
  171SAPS  H10S19403   5.668   4.155   6.052  1.1713 -0.2610 -2.0550
  171SAPS  C21119404   5.544   3.981   5.986  0.0115 -0.4261  0.1353
  171SAPS  H11R19405   5.440   4.009   6.007  0.4374  1.9886 -0.6972
  171SAPS  C21219406   5.561   3.892   5.882  0.2432 -0.2520 -0.4282
  171SAPS  H12R19407   5.471   3.851   5.833  0.3639  0.2371 -1.0692
  171SAPS  C21319408   5.688   3.823   5.825  0.0489  0.0321  0.0479
  171SAPS  H13R19409   5.772   3.839   5.896 -0.0624  1.2992 -0.0705
  171SAPS  H13S19410   5.713   3.890   5.740 -2.6043  0.1971 -0.6954
  171SAPS  C21419411   5.657   3.682   5.803 -0.4496 -0.1729  0.4751
  171SAPS  H14R19412   5.676   3.619   5.892  0.6390  0.2549  0.5672
  171SAPS  C21519413   5.610   3.623   5.690 -0.0906  0.5436  0.0364
  171SAPS  H15R19414   5.622   3.515   5.673  1.0847  0.7944 -0.8472
  171SAPS  C21619415   5.582   3.694   5.556  0.0274 -0.2653 -0.6857
  171SAPS  H16R19416   5.568   3.804   5.558  1.3516 -0.0361 -2.1994
  171SAPS  H16S19417   5.482   3.659   5.522 -0.5493  0.0512  0.6214
  171SAPS  C21719418   5.683   3.660   5.442  0.0577 -0.8396  0.1715
  171SAPS  H17R19419   5.688   3.549   5.437  1.9240 -0.7704 -0.1217
  171SAPS  H17S19420   5.780   3.706   5.470 -0.9035  1.8260 -0.5715
  171SAPS  C21819421   5.629   3.733   5.322 -0.4940  0.4389 -0.4175
  171SAPS  H18R19422   5.717   3.747   5.256  0.5716  0.1639  0.9119
  171SAPS  H18S19423   5.589   3.833   5.352 -0.3465  0.9302 -1.7843
  171SAPS  C21919424   5.525   3.649   5.251  0.0794 -0.0230 -0.1611
  171SAPS  H19R19425   5.488   3.708   5.164 -1.4762 -1.2061 -0.3493
  171SAPS  H19S19426   5.440   3.626   5.318  0.6523 -0.9321  0.2589
  171SAPS  C22019427   5.575   3.520   5.175  0.2342 -0.1303 -0.2416
  171SAPS  H20R19428   5.484   3.480   5.125 -0.4196 -0.8446  1.4768
  171SAPS  H20S19429   5.603   3.439   5.246  0.6462  1.2608  1.2448
  171SAPS  H20T19430   5.660   3.538   5.105  1.1845  2.7237  1.4579
  171SAPS   C3319431   4.775   4.258   6.697  0.6516  0.6339  0.0569
  171SAPS   H3X19432   4.704   4.339   6.725  0.0541 -0.2977  1.2762
  171SAPS   H3Y19433   4.753   4.172   6.763  0.5618  1.3881  1.0289
  171SAPS   C3419434   4.764   4.209   6.554 -0.3934 -0.9312  0.3763
  171SAPS   H4X19435   4.689   4.127   6.550  1.2165 -2.4684  0.2562
  171SAPS   H4Y19436   4.861   4.164   6.523  0.8466  1.5239  0.4379
  171SAPS   C3519437   4.740   4.321   6.450 -0.3592  0.3728 -0.0803
  171SAPS   H5X19438   4.821   4.396   6.456 -0.1579  0.0732  1.3816
  171SAPS   H5Y19439   4.642   4.367   6.478 -0.3851 -0.0525  0.5439
  171SAPS   C3619440   4.736   4.253   6.309  0.2465  0.6961 -0.6731
  171SAPS   H6X19441   4.642   4.194   6.314  0.2953  0.6615 -0.0004
  171SAPS   H6Y19442   4.826   4.188   6.296  0.2403  0.3421  0.8354
  171SAPS   C3719443   4.738   4.349   6.194  0.0838 -0.2739 -0.7606
  171SAPS   H7X19444   4.682   4.442   6.214  1.2148  0.6473 -1.6847
  171SAPS   H7Y19445   4.696   4.301   6.103  0.5813 -0.8412 -0.7020
  171SAPS   C3819446   4.880   4.393   6.161  0.2446 -0.0234  0.2654
  171SAPS   H8X19447   4.956   4.312   6.157  1.1464  0.7537  0.8835
  171SAPS   H8Y19448   4.924   4.456   6.242  1.9600 -1.2925  0.3749
  171SAPS   C3919449   4.885   4.483   6.031 -0.0160  0.8053  0.9011
  171SAPS   H9X19450   4.987   4.513   6.001 -1.3807  3.3498 -1.6700
  171SAPS   H9Y19451   4.840   4.580   6.062 -1.0718  1.0940 -1.2890
  171SAPS  C31019452   4.819   4.441   5.899 -0.0059  0.3938 -0.7916
  171SAPS  H10X19453   4.712   4.413   5.908  0.7557 -2.2767  1.3080
  171SAPS  H10Y19454   4.857   4.341   5.868 -3.3850 -0.8466 -1.4745
  171SAPS  C31119455   4.829   4.557   5.795 -0.0879  0.3837 -0.0115
  171SAPS  H11X19456   4.938   4.576   5.786  0.2849 -1.7500 -0.5385
  171SAPS  H11Y19457   4.767   4.638   5.839 -1.0500 -0.6413  0.5725
  171SAPS  C31219458   4.774   4.515   5.660  1.0460 -0.3285  0.8324
  171SAPS  H12X19459   4.750   4.611   5.609  0.7347 -1.7665 -1.8931
  171SAPS  H12Y19460   4.683   4.452   5.669  1.0431 -1.0012 -2.6648
  171SAPS  C31319461   4.876   4.436   5.576  0.7727 -0.5457 -1.0587
  171SAPS  H13X19462   4.880   4.341   5.635  1.1986  0.3482  0.4125
  171SAPS  H13Y19463   4.975   4.485   5.573  0.5601 -0.0391 -0.3361
  171SAPS  C31419464   4.821   4.410   5.439  0.1730 -0.0267  0.3950
  171SAPS  H14X19465   4.811   4.503   5.380 -1.3974  0.6235  1.6004
  171SAPS  H14Y19466   4.723   4.357   5.437 -0.1956  0.6813 -0.9134
  171SAPS  C31519467   4.914   4.318   5.364 -0.8259  0.4710  0.2658
  171SAPS  H15X19468   4.934   4.224   5.420 -0.2270 -0.2635 -1.1401
  171SAPS  H15Y19469   5.007   4.378   5.352 -1.0762  0.7087 -0.5071
  171SAPS  C31619470   4.854   4.269   5.228  0.3044 -0.0244 -0.5645
  171SAPS  H16X19471   4.800   4.358   5.190 -0.8521  1.7113  4.3625
  171SAPS  H16Y19472   4.772   4.196   5.245 -0.1946  0.3330 -1.3746
  171SAPS  C31719473   4.958   4.221   5.129  0.0191  0.3441 -0.4266
  171SAPS  H17X19474   4.916   4.171   5.039  1.3526 -0.6154 -0.5352
  171SAPS  H17Y19475   5.021   4.146   5.182 -0.6411  0.2983  0.3097
  171SAPS  C31819476   5.043   4.328   5.069 -0.0505 -1.0897  0.3208
  171SAPS  H18X19477   5.127   4.352   5.137  1.8951 -1.1660 -1.9288
  171SAPS  H18Y19478   4.997   4.429   5.060  0.8241 -0.1224  4.5502
  171SAPS  H18Z19479   5.107   4.300   4.982  0.7589 -1.2704  0.9623
  172SAPS     N19480   4.523   3.513   7.440  0.3487  0.3226  0.3277
  172SAPS   HN119481   4.506   3.423   7.391 -1.6976  0.1515  1.2926
  172SAPS   HN219482   4.620   3.549   7.425 -0.3796  2.5607  0.5919
  172SAPS   HN319483   4.504   3.500   7.541 -1.9076 -1.0349 -0.2013
  172SAPS   C1219484   4.427   3.610   7.388 -0.3830 -0.2940 -0.0773
  172SAPS  H12A19485   4.414   3.590   7.283  1.2655 -1.0188 -0.1880
  172SAPS   C1319486   4.291   3.618   7.462  0.2622 -0.6253  0.5712
  172SAPS  O13A19487   4.265   3.538   7.552  0.0807  1.1030 -0.2733
  172SAPS  O13B19488   4.211   3.709   7.431 -0.7489 -0.2742 -0.0826
  172SAPS   C1119489   4.499   3.747   7.401 -0.4067 -0.8183 -0.0785
  172SAPS  H11A19490   4.519   3.777   7.506 -2.1545  1.3492 -0.2857
  172SAPS  H11B19491   4.430   3.829   7.373 -0.5255 -0.2376  1.7624
  172SAPS     P19492   4.752   3.748   7.370  0.1265 -0.2897 -0.1834
  172SAPS   O1319493   4.772   3.867   7.457 -0.3816  0.2998 -0.6930
  172SAPS   O1419494   4.760   3.608   7.417  0.3057 -0.4688  0.2038
  172SAPS   O1219495   4.607   3.758   7.313 -0.4082 -0.1213 -0.2496
  172SAPS   O1119496   4.836   3.774   7.240  0.3337  0.2321 -0.1622
  172SAPS    C119497   4.885   3.663   7.159 -0.0839  0.0582  0.5996
  172SAPS    HA19498   4.995   3.659   7.166 -0.0944  0.8444  1.3403
  172SAPS    HB19499   4.846   3.566   7.196  2.5867 -0.6327  1.8212
  172SAPS    C219500   4.860   3.676   7.008  0.5627  0.4916 -0.6724
  172SAPS    HS19501   4.923   3.761   6.972 -0.5048  1.0391 -1.3062
  172SAPS   O2119502   4.724   3.706   6.987 -0.4775  0.4076  0.0073
  172SAPS   C2119503   4.696   3.836   7.001 -0.3321  0.2168  0.4472
  172SAPS   O2219504   4.777   3.931   7.009 -0.2011 -0.3174  0.2994
  172SAPS   C2219505   4.543   3.851   6.993  0.5532  0.1704 -0.3046
  172SAPS   H2R19506   4.492   3.754   6.976  0.4411  0.4636 -1.8705
  172SAPS   H2S19507   4.509   3.878   7.095 -0.4938  0.3891 -0.7001
  172SAPS    C319508   4.888   3.540   6.940  0.3360 -0.5519  0.2877
  172SAPS    HX19509   4.809   3.467   6.966 -1.5665  1.9021  1.8622
  172SAPS    HY19510   4.978   3.491   6.984  1.2478  1.8845  1.3650
  172SAPS   O3119511   4.905   3.543   6.792  0.0062 -0.1350 -0.1072
  172SAPS   C3119512   5.032   3.576   6.748 -0.1253 -0.8676  0.3159
  172SAPS   O3219513   5.127   3.621   6.817  0.5772 -0.4697 -0.2011
  172SAPS   C3219514   5.024   3.572   6.590 -0.3007  0.3312 -0.1856
  172SAPS   H2X19515   4.998   3.675   6.557 -0.5488 -0.2989 -2.0909
  172SAPS   H2Y19516   4.936   3.511   6.560 -0.4727  1.3657 -1.9882
  172SAPS   C2319517   4.503   3.961   6.897  0.1932 -0.2288  0.1500
  172SAPS   H3R19518   4.558   4.053   6.925  0.6438 -0.3124 -0.4424
  172SAPS   H3S19519   4.397   3.988   6.920  0.5556  1.2649  0.1500
  172SAPS   C2419520   4.521   3.926   6.750 -0.3393 -0.4433  0.0573
  172SAPS   H4R19521   4.626   3.907   6.719 -0.9419 -0.7860 -1.9032
  172SAPS   H4S19522   4.500   4.022   6.699  0.8936  1.0322  2.1879
  172SAPS   C2519523   4.430   3.812   6.687 -0.3613 -1.2631 -0.5207
  172SAPS   H5R19524   4.322   3.827   6.700 -0.5782 -3.5205  0.7230
  172SAPS   C2619525   4.482   3.707   6.622  0.8211 -0.7681  0.4075
  172SAPS   H6R19526   4.405   3.644   6.574  0.9075 -0.6300  0.0844
  172SAPS   C2719527   4.621   3.673   6.588  0.2720  0.7770  0.7770
  172SAPS   H7R19528   4.615   3.567   6.554  0.5352 -0.4510  4.2215
  172SAPS   H7S19529   4.679   3.672   6.682 -1.5403 -1.4804  1.9866
  172SAPS   C2819530   4.673   3.757   6.473 -0.0441 -0.0420  0.1591
  172SAPS   H8R19531   4.730   3.845   6.507 -0.0451 -0.7131  2.0152
  172SAPS   C2919532   4.675   3.736   6.340  0.5479 -0.4229  0.3202
  172SAPS   H9R19533   4.725   3.812   6.279  2.4483 -1.4960  0.4586
  172SAPS  C21019534   4.645   3.609   6.268  0.0543  0.0731  0.5519
  172SAPS  H10R19535   4.565   3.616   6.192  1.8611  0.3111 -1.4082
  172SAPS  H10S19536   4.607   3.529   6.335 -1.5938  2.3075  2.4704
  172SAPS  C21119537   4.780   3.560   6.206  0.4265  0.4168  0.9868
  172SAPS  H11R19538   4.845   3.513   6.280 -0.5425 -2.2421  0.2646
  172SAPS  C21219539   4.816   3.568   6.077 -0.2528 -0.6243 -0.4173
  172SAPS  H12R19540   4.917   3.540   6.044  0.1773 -0.2032  0.5114
  172SAPS  C21319541   4.729   3.639   5.973  0.3984  1.1472  0.2046
  172SAPS  H13R19542   4.686   3.735   6.007  0.0800  1.0820 -0.0142
  172SAPS  H13S19543   4.640   3.576   5.950  1.6340 -1.2377  1.5140
  172SAPS  C21419544   4.804   3.660   5.844  0.1612  0.5471  0.0187
  172SAPS  H14R19545   4.904   3.704   5.858  0.7215  0.0132 -2.0166
  172SAPS  C21519546   4.783   3.612   5.716  0.0775  0.9414  0.0789
  172SAPS  H15R19547   4.860   3.634   5.641  1.0858 -1.8304  0.1899
  172SAPS  C21619548   4.659   3.539   5.672  0.3533 -0.5272  0.1443
  172SAPS  H16R19549   4.610   3.592   5.588  0.6143  0.5706  0.6689
  172SAPS  H16S19550   4.580   3.520   5.748 -2.2146 -0.9313 -2.4846
  172SAPS  C21719551   4.693   3.401   5.608 -0.0439 -0.2204 -0.4039
  172SAPS  H17R19552   4.593   3.358   5.586 -0.6297  1.0897 -0.3996
  172SAPS  H17S19553   4.737   3.333   5.684 -0.8638 -1.3967 -0.9377
  172SAPS  C21819554   4.777   3.411   5.485 -0.0351 -0.1250 -0.6796
  172SAPS  H18R19555   4.809   3.306   5.474  0.8539 -0.0444  0.9169
  172SAPS  H18S19556   4.876   3.461   5.492  0.3672 -0.9724 -0.2978
  172SAPS  C21919557   4.710   3.468   5.359 -0.3197  0.2351 -0.6815
  172SAPS  H19R19558   4.789   3.467   5.281 -0.3886  2.2859 -0.8216
  172SAPS  H19S19559   4.689   3.576   5.371 -2.9053 -0.2828 -0.0707
  172SAPS  C22019560   4.582   3.400   5.304 -0.7874  0.0921 -0.1781
  172SAPS  H20R19561   4.506   3.391   5.385  0.8019  2.4641  1.7202
  172SAPS  H20S19562   4.602   3.297   5.267  1.1138  0.1153  0.6483
  172SAPS  H20T19563   4.535   3.451   5.218 -1.9715  1.0060  0.9633
  172SAPS   C3319564   5.159   3.523   6.532  0.3268 -0.1508  0.3688
  172SAPS   H3X19565   5.191   3.428   6.581 -0.1290  0.3862  1.7386
  172SAPS   H3Y19566   5.240   3.598   6.548 -0.5063  0.7665  0.3506
  172SAPS   C3419567   5.154   3.490   6.387 -0.1399  0.5775 -0.5538
  172SAPS   H4X19568   5.050   3.461   6.361 -0.7458  0.0923  2.0957
  172SAPS   H4Y19569   5.208   3.394   6.368  1.5633  1.2027  0.8718
  172SAPS   C3519570   5.218   3.586   6.297  0.7022  0.5501  0.1442
  172SAPS   H5X19571   5.309   3.629   6.345 -0.1833  0.5699  1.8760
  172SAPS   H5Y19572   5.145   3.669   6.294 -0.9297 -0.8653 -1.2499
  172SAPS   C3619573   5.235   3.530   6.162 -0.0408 -0.4961  0.7726
  172SAPS   H6X19574   5.134   3.514   6.120 -0.4634  1.0583  1.1351
  172SAPS   H6Y19575   5.293   3.435   6.157 -0.5079 -0.7577  0.2531
  172SAPS   C3719576   5.298   3.629   6.059  0.4222 -0.2563 -0.1827
  172SAPS   H7X19577   5.386   3.672   6.110  1.4653 -0.2318 -1.9212
  172SAPS   H7Y19578   5.223   3.707   6.037 -2.0446 -1.9834  1.5726
  172SAPS   C3819579   5.318   3.572   5.910 -0.4056  0.8290  0.0636
  172SAPS   H8X19580   5.385   3.483   5.916 -0.5392  0.8126  1.8768
  172SAPS   H8Y19581   5.375   3.659   5.871  1.6895 -0.3204  0.4175
  172SAPS   C3919582   5.191   3.546   5.832 -0.1838  0.0513  0.3710
  172SAPS   H9X19583   5.125   3.635   5.832 -0.0500  0.2237  3.1380
  172SAPS   H9Y19584   5.134   3.471   5.891  0.5788 -1.0958 -0.3030
  172SAPS  C31019585   5.215   3.473   5.700 -0.3092  0.2244  0.0313
  172SAPS  H10X19586   5.260   3.547   5.631 -1.9141 -0.9534 -2.3994
  172SAPS  H10Y19587   5.120   3.454   5.646 -0.3971  1.0618 -0.1329
  172SAPS  C31119588   5.296   3.342   5.697 -0.2997 -0.4403 -0.3378
  172SAPS  H11X19589   5.263   3.275   5.779  0.1011 -0.7822 -0.4508
  172SAPS  H11Y19590   5.404   3.362   5.718 -0.5105  0.5381 -0.1159
  172SAPS  C31219591   5.289   3.259   5.560 -0.9539 -0.6471 -0.1180
  172SAPS  H12X19592   5.366   3.180   5.575 -0.2857  0.3590  2.3950
  172SAPS  H12Y19593   5.329   3.332   5.487 -1.6987  0.4414  0.5344
  172SAPS  C31319594   5.160   3.208   5.521 -0.2037  0.0876  0.2657
  172SAPS  H13X19595   5.093   3.212   5.610  1.4522 -0.2820  1.5653
  172SAPS  H13Y19596   5.180   3.109   5.474  1.3534  1.4386 -2.1047
  172SAPS  C31419597   5.090   3.290   5.409 -0.4218 -0.4195  0.0544
  172SAPS  H14X19598   5.083   3.394   5.446 -0.0581  0.3649 -1.9533
  172SAPS  H14Y19599   4.984   3.258   5.397 -1.3851  0.2744  4.8561
  172SAPS  C31519600   5.172   3.298   5.279 -0.6397  0.0684 -0.3020
  172SAPS  H15X19601   5.156   3.194   5.244 -0.4366  0.1091 -0.5210
  172SAPS  H15Y19602   5.282   3.310   5.293 -0.7223  0.7971 -0.2365
  172SAPS  C31619603   5.124   3.401   5.186 -0.4203 -0.3164  0.2134
  172SAPS  H16X19604   5.019   3.386   5.155  0.1145 -1.5965 -1.0764
  172SAPS  H16Y19605   5.127   3.497   5.244 -1.2054  0.1507 -0.5062
  172SAPS  C31719606   5.207   3.421   5.060 -1.0037 -0.5019  0.3412
  172SAPS  H17X19607   5.289   3.484   5.099 -1.5011  0.4912 -0.1814
  172SAPS  H17Y19608   5.140   3.483   4.996  0.5294  0.6094 -0.2414
  172SAPS  C31819609   5.256   3.288   4.997 -0.3879 -0.7656  0.1580
  172SAPS  H18X19610   5.326   3.241   5.069  0.5929  2.0666  1.2052
  172SAPS  H18Y19611   5.301   3.315   4.899 -0.9805  0.9746  0.3262
  172SAPS  H18Z19612   5.168   3.221   4.999 -1.5026  0.6592  0.6395
  173SAPS     N19613   6.580   3.174   2.796  0.2358 -0.5516  1.0608
  173SAPS   HN119614   6.654   3.102   2.802  0.7498 -0.2919 -1.2149
  173SAPS   HN219615   6.586   3.244   2.872 -0.1479  0.2906  0.3384
  173SAPS   HN319616   6.483   3.134   2.798 -0.0440  0.1457  1.6429
  173SAPS   C1219617   6.593   3.230   2.659  0.5023 -0.3791 -0.2303
  173SAPS  H12A19618   6.699   3.233   2.639  0.2184 -2.5529 -2.4886
  173SAPS   C1319619   6.525   3.152   2.550 -0.2272 -0.1595  0.5701
  173SAPS  O13A19620   6.444   3.060   2.575 -0.1843 -0.5309  0.7983
  173SAPS  O13B19621   6.534   3.211   2.436 -0.0185 -0.3191 -1.0208
  173SAPS   C1119622   6.531   3.372   2.661  0.0365 -0.4946 -0.3201
  173SAPS  H11A19623   6.437   3.360   2.719 -0.1890 -1.4729 -0.8541
  173SAPS  H11B19624   6.522   3.415   2.559  0.5187  0.8145  0.1760
  173SAPS     P19625   6.640   3.617   2.692  0.1004 -0.2391 -0.2518
  173SAPS   O1319626   6.763   3.653   2.765 -0.2304  0.4057 -1.0548
  173SAPS   O1419627   6.656   3.637   2.547 -0.0022  0.1566  0.3372
  173SAPS   O1219628   6.621   3.464   2.723 -0.6305 -0.2668 -0.3506
  173SAPS   O1119629   6.525   3.694   2.756  0.2364 -0.4076  0.0062
  173SAPS    C119630   6.457   3.659   2.882  0.3761  0.3670  0.1832
  173SAPS    HA19631   6.357   3.706   2.877  0.1677 -0.1359 -0.4225
  173SAPS    HB19632   6.448   3.549   2.898 -1.5764  0.2406 -1.4052
  173SAPS    C219633   6.537   3.719   3.004  0.0247  0.1126  0.1641
  173SAPS    HS19634   6.627   3.656   3.019 -0.6624 -0.5256  1.8113
  173SAPS   O2119635   6.449   3.737   3.122 -0.4541 -0.8354  0.1115
  173SAPS   C2119636   6.439   3.626   3.185 -0.1050 -0.0555 -1.1940
  173SAPS   O2219637   6.493   3.522   3.163 -0.7379 -0.3113 -0.5688
  173SAPS   C2219638   6.346   3.644   3.310  0.4288  0.1638  0.2661
  173SAPS   H2R19639   6.342   3.753   3.334  0.0245  0.3875 -0.7686
  173SAPS   H2S19640   6.243   3.617   3.276  1.2244 -1.7376 -0.7499
  173SAPS    C319641   6.597   3.859   2.974 -0.0964  0.5458  0.0430
  173SAPS    HX19642   6.514   3.926   2.945  1.7025  2.5415 -0.8327
  173SAPS    HY19643   6.657   3.838   2.882  0.6728 -1.1871  0.8840
  173SAPS   O3119644   6.662   3.920   3.086  0.6844  0.0180 -0.0663
  173SAPS   C3119645   6.788   3.892   3.103 -0.2748  0.1312  1.0672
  173SAPS   O3219646   6.851   3.817   3.023  0.2018  0.6266 -0.3826
  173SAPS   C3219647   6.846   3.956   3.229 -0.3129 -0.1461 -0.6753
  173SAPS   H2X19648   6.818   4.064   3.227  0.4221  0.0396 -2.1669
  173SAPS   H2Y19649   6.956   3.953   3.212 -0.1278  1.8155 -0.0646
  173SAPS   C2319650   6.384   3.564   3.432  0.3372  0.1197 -0.2229
  173SAPS   H3R19651   6.432   3.469   3.403 -2.2255 -1.2978 -0.1603
  173SAPS   H3S19652   6.295   3.539   3.495  0.3281 -3.0050 -1.2976
  173SAPS   C2419653   6.493   3.630   3.516  0.4197  0.9424 -0.0140
  173SAPS   H4R19654   6.549   3.696   3.446  0.4811 -0.3686 -1.2599
  173SAPS   H4S19655   6.571   3.556   3.543 -1.1147 -0.2885  1.2142
  173SAPS   C2519656   6.429   3.713   3.624 -0.5375  0.2908  0.3364
  173SAPS   H5R19657   6.381   3.797   3.571 -0.3687 -1.1252 -2.1865
  173SAPS   C2619658   6.458   3.698   3.755 -0.2912 -0.1662  0.0328
  173SAPS   H6R19659   6.413   3.771   3.824 -1.4239 -0.0090 -0.8467
  173SAPS   C2719660   6.542   3.588   3.814  0.1916  0.7467  0.1134
  173SAPS   H7R19661   6.587   3.627   3.908  2.3002 -1.0342 -0.0652
  173SAPS   H7S19662   6.622   3.566   3.740 -0.2812  0.8356 -0.4356
  173SAPS   C2819663   6.473   3.463   3.861 -0.5189  0.8489  0.4442
  173SAPS   H8R19664   6.492   3.379   3.792 -1.8412  3.0652 -2.9045
  173SAPS   C2919665   6.390   3.442   3.956 -0.1765 -0.6120 -0.2109
  173SAPS   H9R19666   6.347   3.341   3.966 -1.2463 -0.2751 -1.1759
  173SAPS  C21019667   6.329   3.543   4.048  0.2606 -0.3072 -0.4266
  173SAPS  H10R19668   6.226   3.561   4.009 -0.7364 -1.0955  1.6804
  173SAPS  H10S19669   6.375   3.644   4.039 -0.1684  0.1322  1.7568
  173SAPS  C21119670   6.331   3.490   4.194 -0.3266 -0.0429  0.6641
  173SAPS  H11R19671   6.251   3.418   4.215  0.5856 -1.1745  0.3820
  173SAPS  C21219672   6.421   3.531   4.284 -0.0849  0.1768 -0.0527
  173SAPS  H12R19673   6.412   3.485   4.383  1.1087  1.3187  0.6132
  173SAPS  C21319674   6.533   3.627   4.277 -0.0583  0.2983  0.4816
  173SAPS  H13R19675   6.494   3.723   4.317  0.8974  1.1066 -0.4459
  173SAPS  H13S19676   6.557   3.637   4.169  0.7000 -0.1447  0.5995
  173SAPS  C21419677   6.650   3.593   4.365  0.2046  0.3157  0.2400
  173SAPS  H14R19678   6.637   3.520   4.446  1.9174 -0.3537 -0.0397
  173SAPS  C21519679   6.774   3.629   4.355 -0.5710  0.9097  0.3734
  173SAPS  H15R19680   6.845   3.605   4.435 -0.1563  0.5369 -0.1024
  173SAPS  C21619681   6.837   3.729   4.257  0.3703 -0.3994 -0.1832
  173SAPS  H16R19682   6.815   3.836   4.276  1.0595  0.3049 -2.8681
  173SAPS  H16S19683   6.794   3.708   4.157 -0.6400  2.2506 -0.3797
  173SAPS  C21719684   6.991   3.720   4.256  0.1779  0.0825 -0.0082
  173SAPS  H17R19685   7.019   3.788   4.172 -1.0700  1.1645  0.4166
  173SAPS  H17S19686   7.023   3.616   4.238  0.0193  0.1652 -0.8372
  173SAPS  C21819687   7.065   3.779   4.379  0.0523  0.7456  0.0643
  173SAPS  H18R19688   7.009   3.734   4.464  0.7134  0.3715  0.3084
  173SAPS  H18S19689   7.059   3.889   4.365 -1.3729  0.3052 -4.1815
  173SAPS  C21919690   7.215   3.742   4.393  0.6041 -0.2698 -0.5706
  173SAPS  H19R19691   7.266   3.786   4.304  2.3919 -2.9330 -0.9963
  173SAPS  H19S19692   7.231   3.632   4.392  1.7122 -0.1412  0.4027
  173SAPS  C22019693   7.282   3.785   4.523 -0.7847 -0.2173 -0.7006
  173SAPS  H20R19694   7.304   3.894   4.519 -1.9112  0.0991  0.9379
  173SAPS  H20S19695   7.384   3.749   4.550 -0.4600  2.0683  1.5112
  173SAPS  H20T19696   7.217   3.772   4.611 -0.7282 -3.1268 -1.0142
  173SAPS   C3319697   6.802   3.883   3.355  0.2434 -0.1659  0.7336
  173SAPS   H3X19698   6.800   3.773   3.343  1.1337 -0.1176  0.1167
  173SAPS   H3Y19699   6.693   3.899   3.371 -0.1849 -1.6196 -0.4712
  173SAPS   C3419700   6.882   3.928   3.479  0.0562  0.2050  0.3282
  173SAPS   H4X19701   6.903   4.035   3.460  1.0223 -0.0466 -0.0833
  173SAPS   H4Y19702   6.976   3.868   3.485  0.2407  0.1101 -2.3397
  173SAPS   C3519703   6.815   3.900   3.613  0.0036  0.8792  0.1951
  173SAPS   H5X19704   6.813   3.790   3.629  0.3447  0.4439 -2.3428
  173SAPS   H5Y19705   6.708   3.931   3.606 -1.3986 -3.4726 -0.9825
  173SAPS   C3619706   6.892   3.958   3.730  0.1125 -0.2571  0.6157
  173SAPS   H6X19707   6.882   4.068   3.715 -1.9804 -0.6797 -1.9267
  173SAPS   H6Y19708   7.002   3.940   3.733  0.6302  2.1546 -0.8996
  173SAPS   C3719709   6.830   3.924   3.866 -0.0656 -0.4247 -0.1274
  173SAPS   H7X19710   6.903   3.956   3.943 -1.1885 -0.7388  1.1053
  173SAPS   H7Y19711   6.824   3.814   3.885 -2.9679  0.0540  2.7038
  173SAPS   C3819712   6.704   3.999   3.889 -0.2461  0.6370 -0.6629
  173SAPS   H8X19713   6.638   3.981   3.802  0.5791 -0.4456 -1.0734
  173SAPS   H8Y19714   6.722   4.109   3.895 -0.3552  0.6369 -0.3001
  173SAPS   C3919715   6.622   3.960   4.021 -0.4795  0.1522  1.0801
  173SAPS   H9X19716   6.703   3.924   4.088 -1.0660 -2.7238  0.3940
  173SAPS   H9Y19717   6.561   3.871   3.991  0.3412 -0.1939  0.4006
  173SAPS  C31019718   6.544   4.073   4.084  0.0535 -0.7813 -0.7032
  173SAPS  H10X19719   6.455   4.095   4.022  0.0916 -0.7679 -0.7535
  173SAPS  H10Y19720   6.612   4.161   4.073 -1.0006 -0.0596 -1.5707
  173SAPS  C31119721   6.503   4.043   4.230 -0.5448  0.7010  0.2408
  173SAPS  H11X19722   6.462   3.940   4.225  1.6911 -0.3643  2.0821
  173SAPS  H11Y19723   6.422   4.114   4.256 -1.5608  0.1858 -1.3802
  173SAPS  C31219724   6.618   4.066   4.324  0.6010 -0.0715 -0.0928
  173SAPS  H12X19725   6.644   4.174   4.329 -1.1260  0.3345  1.1670
  173SAPS  H12Y19726   6.706   4.014   4.280 -1.0596 -1.1564 -2.3720
  173SAPS  C31319727   6.597   4.011   4.463 -0.0030  0.2760 -0.0195
  173SAPS  H13X19728   6.580   3.902   4.455  3.0720 -0.4479  1.7807
  173SAPS  H13Y19729   6.503   4.048   4.511 -0.8086 -1.9954  0.2687
  173SAPS  C31419730   6.719   4.022   4.562  0.1441  0.4138  0.1378
  173SAPS  H14X19731   6.759   4.126   4.569  0.8386  0.1550  0.1261
  173SAPS  H14Y19732   6.799   3.966   4.508  1.1356  2.2371 -0.3707
  173SAPS  C31519733   6.700   3.966   4.700 -0.4819  0.0310 -0.7888
  173SAPS  H15X19734   6.647   4.032   4.772 -0.2267 -1.7910  1.1715
  173SAPS  H15Y19735   6.800   3.956   4.745 -1.0297  1.5926  0.8664
  173SAPS  C31619736   6.650   3.826   4.718 -0.2909  0.0231 -0.2327
  173SAPS  H16X19737   6.680   3.796   4.820 -1.2201 -0.5405 -0.1212
  173SAPS  H16Y19738   6.701   3.768   4.638 -0.0427  0.0427 -0.0879
  173SAPS  C31719739   6.500   3.811   4.701  0.0915  0.3643  0.0387
  173SAPS  H17X19740   6.467   3.835   4.598 -3.3386  3.1638  1.5762
  173SAPS  H17Y19741   6.450   3.878   4.774 -1.4429 -2.7060  1.9766
  173SAPS  C31819742   6.446   3.669   4.726  0.4699  0.1970  0.2381
  173SAPS  H18X19743   6.473   3.602   4.641  1.1389 -1.3137  1.5730
  173SAPS  H18Y19744   6.336   3.680   4.733  0.5653  0.2278  2.6570
  173SAPS  H18Z19745   6.478   3.620   4.821 -1.5019  1.0720  1.4073
  174SAPS     N19746   4.547   0.313   2.293 -0.5636 -0.0181 -0.6278
  174SAPS   HN119747   4.482   0.266   2.360  1.8397 -1.9021  0.5290
  174SAPS   HN219748   4.636   0.317   2.345  0.1915  1.3735 -1.9512
  174SAPS   HN319749   4.505   0.405   2.270 -1.0476  0.1057  0.6725
  174SAPS   C1219750   4.571   0.237   2.168 -0.3815  0.0565 -0.5988
  174SAPS  H12A19751   4.603   0.141   2.205 -0.0705  0.8087  1.1766
  174SAPS   C1319752   4.452   0.202   2.080 -0.5971  0.6545 -0.5759
  174SAPS  O13A19753   4.339   0.237   2.122 -0.2030 -0.1574 -0.6434
  174SAPS  O13B19754   4.467   0.157   1.964  0.1517 -0.2353 -0.0919
  174SAPS   C1119755   4.684   0.319   2.094 -0.3620  0.3311  1.0530
  174SAPS  H11A19756   4.645   0.419   2.066  1.1377  0.4086 -1.0477
  174SAPS  H11B19757   4.691   0.261   1.999  0.9742 -0.3810  1.5626
  174SAPS     P19758   4.944   0.287   2.124  0.2550  0.0865  0.3541
  174SAPS   O1319759   4.942   0.140   2.155  0.1063  0.1156 -0.3709
  174SAPS   O1419760   4.975   0.323   1.983  0.0745  0.5962  0.3309
  174SAPS   O1219761   4.803   0.340   2.168 -0.1239 -0.8914 -0.0505
  174SAPS   O1119762   5.045   0.355   2.219 -0.3728 -0.0770  0.1145
  174SAPS    C119763   5.001   0.446   2.319 -0.3541  0.0155 -0.0311
  174SAPS    HA19764   5.055   0.544   2.315 -0.8216  0.4297  2.4127
  174SAPS    HB19765   4.896   0.472   2.296 -0.6828 -2.1805 -1.2719
  174SAPS    C219766   5.017   0.386   2.462 -0.4527 -0.8784  0.2903
  174SAPS    HS19767   4.998   0.277   2.469 -1.1385 -0.7652  0.2619
  174SAPS   O2119768   4.925   0.463   2.545  0.6772 -0.2731  1.0790
  174SAPS   C2119769   4.792   0.428   2.533  0.3208 -0.3273  0.6367
  174SAPS   O2219770   4.751   0.342   2.453 -0.4107  0.1286  0.5500
  174SAPS   C2219771   4.711   0.505   2.633  0.2386  0.2171 -0.3259
  174SAPS   H2R19772   4.697   0.609   2.597  0.7772 -0.1288 -1.5993
  174SAPS   H2S19773   4.607   0.465   2.637  0.4930 -0.3774  1.2646
  174SAPS    C319774   5.165   0.404   2.524 -0.5938  0.0581  0.4026
  174SAPS    HX19775   5.206   0.486   2.462 -1.2031 -0.8148 -1.1991
  174SAPS    HY19776   5.230   0.315   2.509 -0.0900  0.4511  0.2380
  174SAPS   O3119777   5.161   0.438   2.660 -0.1639 -0.0636 -0.3873
  174SAPS   C3119778   5.169   0.338   2.746  0.8832  0.3349  0.8247
  174SAPS   O3219779   5.186   0.221   2.716 -0.4824 -0.2145 -0.4594
  174SAPS   C3219780   5.139   0.391   2.888 -0.0768 -0.3089 -0.7502
  174SAPS   H2X19781   5.029   0.403   2.894 -0.1257 -1.2357  0.9960
  174SAPS   H2Y19782   5.184   0.492   2.901 -1.5754  0.5691 -2.0136
  174SAPS   C2319783   4.773   0.488   2.775 -0.4129 -0.6377 -0.5768
  174SAPS   H3R19784   4.703   0.548   2.837 -1.3836 -1.1065 -1.1995
  174SAPS   H3S19785   4.878   0.523   2.769 -0.3116 -0.7380  0.5742
  174SAPS   C2419786   4.772   0.350   2.832  0.0559 -0.0674  0.2876
  174SAPS   H4R19787   4.798   0.336   2.939  0.5483 -3.2838 -0.1606
  174SAPS   H4S19788   4.856   0.298   2.781 -0.7687  0.5054 -1.7556
  174SAPS   C2519789   4.659   0.259   2.814 -0.0618  0.0472 -0.1403
  174SAPS   H5R19790   4.629   0.230   2.712 -2.4841 -1.3305  0.8777
  174SAPS   C2619791   4.594   0.199   2.917  0.3430 -0.8721  0.4164
  174SAPS   H6R19792   4.518   0.123   2.894  1.9772 -2.5499  0.2826
  174SAPS   C2719793   4.605   0.225   3.062  0.7249  0.4916 -0.6102
  174SAPS   H7R19794   4.508   0.187   3.102  0.4290  0.4440 -1.3504
  174SAPS   H7S19795   4.594   0.332   3.090 -1.7247 -0.0862  0.9416
  174SAPS   C2819796   4.720   0.158   3.137 -0.2057 -0.2269 -0.3468
  174SAPS   H8R19797   4.767   0.079   3.076  1.6988  0.4470  0.1678
  174SAPS   C2919798   4.763   0.182   3.268 -0.1735  0.0988 -0.0964
  174SAPS   H9R19799   4.860   0.141   3.297 -0.0168  0.3555 -0.2517
  174SAPS  C21019800   4.702   0.282   3.359 -0.0198  0.2950 -0.7205
  174SAPS  H10R19801   4.601   0.310   3.321  1.0893  1.3033 -3.1745
  174SAPS  H10S19802   4.752   0.380   3.343 -0.8231  0.9077  0.4095
  174SAPS  C21119803   4.701   0.245   3.501 -0.1040 -0.5848  0.6897
  174SAPS  H11R19804   4.791   0.280   3.555  1.1838 -1.0798 -1.0657
  174SAPS  C21219805   4.605   0.173   3.560  0.3455  0.2621  0.2713
  174SAPS  H12R19806   4.612   0.144   3.666 -2.7920 -0.6197  0.3320
  174SAPS  C21319807   4.486   0.097   3.491 -0.3693  0.4271 -0.0935
  174SAPS  H13R19808   4.484  -0.008   3.528 -0.3477  0.8459  1.1341
  174SAPS  H13S19809   4.506   0.097   3.382  2.4021  1.7059  0.3256
  174SAPS  C21419810   4.354   0.165   3.508  0.4741 -0.0766 -0.0421
  174SAPS  H14R19811   4.361   0.273   3.528 -0.1741 -0.0680  0.1725
  174SAPS  C21519812   4.232   0.111   3.488  0.8329 -0.4610 -0.0575
  174SAPS  H15R19813   4.146   0.180   3.490  2.2475  1.3483  0.5532
  174SAPS  C21619814   4.210  -0.034   3.450 -0.2712 -0.0778 -0.3296
  174SAPS  H16R19815   4.277  -0.099   3.510  0.2355  0.6006 -0.1509
  174SAPS  H16S19816   4.244  -0.058   3.347 -1.9317 -0.7727 -0.7372
  174SAPS  C21719817   4.065  -0.074   3.461 -0.2168 -0.2216 -0.1414
  174SAPS  H17R19818   4.051  -0.182   3.440 -1.1386  0.1524 -1.5850
  174SAPS  H17S19819   4.005  -0.012   3.390 -0.0844  2.1342  1.6824
  174SAPS  C21819820   3.999  -0.052   3.598 -0.3220 -0.1602 -0.0647
  174SAPS  H18R19821   3.999   0.053   3.633 -0.9169  0.0348 -0.6145
  174SAPS  H18S19822   4.044  -0.135   3.657 -0.0154 -0.9653 -1.3813
  174SAPS  C21919823   3.858  -0.106   3.584  0.0889  0.2629  0.2784
  174SAPS  H19R19824   3.854  -0.209   3.543 -1.7139  1.0810 -1.8299
  174SAPS  H19S19825   3.806  -0.041   3.510 -1.0536 -1.2449 -0.2986
  174SAPS  C22019826   3.780  -0.095   3.714  0.2616  0.0761 -1.1239
  174SAPS  H20R19827   3.775  -0.189   3.774  0.0079  0.7357 -0.0750
  174SAPS  H20S19828   3.674  -0.069   3.694  0.2182 -0.7190 -1.9856
  174SAPS  H20T19829   3.817  -0.011   3.777 -1.9785  0.4697 -0.2289
  174SAPS   C3319830   5.192   0.290   2.999 -0.4839 -0.6276  0.2305
  174SAPS   H3X19831   5.295   0.254   2.977 -0.3441  0.5676 -1.2500
  174SAPS   H3Y19832   5.133   0.197   3.005 -2.4619  0.5390 -0.4850
  174SAPS   C3419833   5.217   0.340   3.145  0.3401 -0.1619 -0.2037
  174SAPS   H4X19834   5.304   0.409   3.142  0.7927 -0.6868  0.5750
  174SAPS   H4Y19835   5.247   0.261   3.216  0.9243  0.4373  0.2329
  174SAPS   C3519836   5.094   0.416   3.194  0.1913 -0.5931 -0.6702
  174SAPS   H5X19837   5.001   0.362   3.166  0.5242 -2.4166  1.4572
  174SAPS   H5Y19838   5.074   0.520   3.160  0.1940 -0.1519  0.6115
  174SAPS   C3619839   5.090   0.419   3.351 -0.0547 -0.0890 -0.8818
  174SAPS   H6X19840   5.075   0.317   3.392 -0.1406  0.5494  0.7629
  174SAPS   H6Y19841   4.989   0.461   3.369 -0.6966 -1.4794 -1.0880
  174SAPS   C3719842   5.207   0.490   3.421  0.5914 -0.2392 -0.1023
  174SAPS   H7X19843   5.214   0.590   3.373 -2.0468 -0.0417 -0.2480
  174SAPS   H7Y19844   5.304   0.436   3.409  1.8034  1.1861  2.5045
  174SAPS   C3819845   5.204   0.501   3.565 -0.1475  0.7989  0.3399
  174SAPS   H8X19846   5.169   0.400   3.595  0.4495  0.4862  0.0209
  174SAPS   H8Y19847   5.126   0.575   3.593 -0.8172  0.3599 -0.3275
  174SAPS   C3919848   5.343   0.521   3.631  0.2970 -0.0142  0.1831
  174SAPS   H9X19849   5.403   0.609   3.600  1.1782  0.1023  2.1335
  174SAPS   H9Y19850   5.400   0.427   3.617 -1.4006 -0.8338 -1.8389
  174SAPS  C31019851   5.322   0.524   3.782  0.3081  0.3728  0.3703
  174SAPS  H10X19852   5.261   0.440   3.821  0.1628 -0.5466 -1.6757
  174SAPS  H10Y19853   5.263   0.614   3.808 -1.2249 -0.2677 -0.6968
  174SAPS  C31119854   5.454   0.529   3.862  0.6617 -0.1411 -0.0037
  174SAPS  H11X19855   5.503   0.623   3.827  0.7443 -0.3788 -0.5403
  174SAPS  H11Y19856   5.522   0.447   3.831  1.6202  1.7093 -3.2796
  174SAPS  C31219857   5.426   0.535   4.013 -1.2054  0.1705 -0.6905
  174SAPS  H12X19858   5.341   0.470   4.041 -1.6996  0.9960 -0.2326
  174SAPS  H12Y19859   5.401   0.641   4.039  0.5773  0.0703  1.7721
  174SAPS  C31319860   5.547   0.503   4.101  0.1451 -0.5767 -0.4103
  174SAPS  H13X19861   5.628   0.576   4.081  0.9015 -0.7800  1.6704
  174SAPS  H13Y19862   5.583   0.403   4.069  1.7746 -0.4571  0.9384
  174SAPS  C31419863   5.514   0.516   4.251 -0.4730 -0.1106 -0.5649
  174SAPS  H14X19864   5.422   0.457   4.270  0.5938 -1.4220  0.7605
  174SAPS  H14Y19865   5.497   0.625   4.265 -1.7709 -0.3879  0.2261
  174SAPS  C31519866   5.630   0.459   4.331 -0.5522  0.1210  0.1786
  174SAPS  H15X19867   5.725   0.498   4.288 -0.9206  0.2865 -0.5036
  174SAPS  H15Y19868   5.633   0.348   4.328  0.3831  0.1343  0.3116
  174SAPS  C31619869   5.625   0.504   4.477 -0.6427  0.4816 -0.5475
  174SAPS  H16X19870   5.551   0.444   4.534  2.4321 -0.6977  2.5418
  174SAPS  H16Y19871   5.598   0.612   4.481 -1.6545  0.2324 -0.2828
  174SAPS  C31719872   5.756   0.488   4.556  0.1083  0.3940 -0.3471
  174SAPS  H17X19873   5.741   0.526   4.660 -1.7926 -0.0192 -0.4323
  174SAPS  H17Y19874   5.831   0.560   4.516  2.6052 -0.9875  1.5266
  174SAPS  C31819875   5.829   0.354   4.559 -0.0461  0.5833 -0.4659
  174SAPS  H18X19876   5.928   0.360   4.609 -1.3772  0.2322  2.4094
  174SAPS  H18Y19877   5.845   0.306   4.460  0.2713 -1.1413  0.3825
  174SAPS  H18Z19878   5.780   0.277   4.622  1.8014 -0.2359  0.0311
  175SAPS     N19879   1.859   0.019   1.999 -0.4294 -0.5132  0.3952
  175SAPS   HN119880   1.826   0.028   2.098  0.9982 -2.9224  1.1640
  175SAPS   HN219881   1.782   0.006   1.930  0.3142  0.3234 -0.6243
  175SAPS   HN319882   1.921  -0.063   1.988  2.5900  1.9180 -3.4291
  175SAPS   C1219883   1.954   0.131   1.973 -0.1484 -1.1548  0.0145
  175SAPS  H12A19884   2.003   0.121   1.877 -0.5666  0.8311 -0.4321
  175SAPS   C1319885   1.877   0.264   1.972  0.6101  0.0783 -0.5122
  175SAPS  O13A19886   1.760   0.279   2.021  0.1494 -0.4252  0.8742
  175SAPS  O13B19887   1.933   0.361   1.918  0.2454 -0.4139 -0.5666
  175SAPS   C1119888   2.062   0.123   2.083  0.6184  0.0570 -0.1195
  175SAPS  H11A19889   2.132   0.208   2.075  0.2942  0.4761  1.2072
  175SAPS  H11B19890   2.117   0.029   2.059 -1.5664 -1.5034  0.5718
  175SAPS     P19891   2.089   0.133   2.335 -0.1675  0.0434  0.5135
  175SAPS   O1319892   2.227   0.091   2.303  0.3573  0.5194 -0.5970
  175SAPS   O1419893   2.075   0.275   2.357 -0.4165  0.4244 -0.3948
  175SAPS   O1219894   1.998   0.108   2.215  0.1766 -0.2063  0.5054
  175SAPS   O1119895   2.023   0.048   2.442 -0.0056  0.3874 -1.2294
  175SAPS    C119896   1.926   0.109   2.526  0.3752 -0.2285  0.0236
  175SAPS    HA19897   1.874   0.198   2.484 -1.5670 -1.1697  0.3133
  175SAPS    HB19898   1.844   0.034   2.537  0.4657 -0.0391  2.6037
  175SAPS    C219899   1.964   0.136   2.675 -0.2249 -0.3619 -0.6471
  175SAPS    HS19900   2.025   0.228   2.687  1.6698 -1.8678  2.2313
  175SAPS   O2119901   2.056   0.029   2.706 -0.0887 -0.3235 -0.1561
  175SAPS   C2119902   2.145   0.049   2.807  0.2874 -0.1026 -0.7051
  175SAPS   O2219903   2.177   0.160   2.851  0.0429  0.0980 -0.1056
  175SAPS   C2219904   2.204  -0.086   2.855 -0.1463  0.0623  0.2935
  175SAPS   H2R19905   2.138  -0.160   2.804  3.2573 -2.1675 -1.2362
  175SAPS   H2S19906   2.309  -0.091   2.819  0.2937 -3.1669  1.7771
  175SAPS    C319907   1.840   0.131   2.760 -0.4822  0.0970  0.5245
  175SAPS    HX19908   1.813   0.024   2.750 -0.3010  0.1492 -0.6887
  175SAPS    HY19909   1.765   0.201   2.716  1.7022  0.7674 -2.4545
  175SAPS   O3119910   1.872   0.152   2.899 -0.2725  0.2662 -0.1217
  175SAPS   C3119911   1.897   0.277   2.936  0.6486  0.5416 -0.2104
  175SAPS   O3219912   1.887   0.372   2.861 -0.2087  0.0056 -0.4340
  175SAPS   C3219913   1.932   0.277   3.086  0.0122  0.2259  0.1735
  175SAPS   H2X19914   1.989   0.184   3.104  0.4081  0.1392 -1.3589
  175SAPS   H2Y19915   1.839   0.281   3.146  0.4254 -0.7985  0.8935
  175SAPS   C2319916   2.201  -0.115   3.009  0.0466 -0.3634  0.1389
  175SAPS   H3R19917   2.220  -0.224   3.024 -0.5527 -0.4751  0.1105
  175SAPS   H3S19918   2.102  -0.098   3.056  1.0117  1.9291  1.4752
  175SAPS   C2419919   2.311  -0.038   3.092 -0.6007  0.8203 -0.3435
  175SAPS   H4R19920   2.261   0.058   3.120 -0.4138  0.7290  0.3250
  175SAPS   H4S19921   2.399  -0.011   3.029  0.0185  0.6538  0.4402
  175SAPS   C2519922   2.355  -0.114   3.210 -0.3799  0.2712  0.0513
  175SAPS   H5R19923   2.431  -0.191   3.191 -0.6924  0.5026 -2.4570
  175SAPS   C2619924   2.320  -0.089   3.336  0.6272  0.2276  0.5217
  175SAPS   H6R19925   2.370  -0.143   3.418 -0.1343 -2.4161 -0.6646
  175SAPS   C2719926   2.222   0.010   3.387 -0.4209  0.8109  0.1692
  175SAPS   H7R19927   2.136   0.012   3.317 -0.0380  1.5743 -0.2940
  175SAPS   H7S19928   2.260   0.114   3.388  0.0450  0.6458 -0.1002
  175SAPS   C2819929   2.165  -0.024   3.523 -0.0213  0.1639  0.1931
  175SAPS   H8R19930   2.081  -0.094   3.516 -0.8928  1.3561 -2.4460
  175SAPS   C2919931   2.183   0.041   3.639  0.0985  0.1246  0.4449
  175SAPS   H9R19932   2.137   0.003   3.731 -0.0869 -2.6635 -0.7034
  175SAPS  C21019933   2.273   0.161   3.661 -0.1200 -0.4132  0.5131
  175SAPS  H10R19934   2.232   0.239   3.728 -0.3191  0.2517 -0.3585
  175SAPS  H10S19935   2.281   0.220   3.567  0.0303 -1.5911 -0.2394
  175SAPS  C21119936   2.418   0.118   3.686 -0.0717 -0.0432 -0.0747
  175SAPS  H11R19937   2.489   0.136   3.604  0.4127  0.0720  0.3656
  175SAPS  C21219938   2.465   0.082   3.808  0.6316  0.4104 -0.1427
  175SAPS  H12R19939   2.571   0.053   3.812  0.4716 -0.2701 -0.6002
  175SAPS  C21319940   2.387   0.070   3.945 -0.2337 -0.4905 -0.8734
  175SAPS  H13R19941   2.393  -0.028   3.997 -1.7636  0.8731  2.1245
  175SAPS  H13S19942   2.279   0.090   3.930 -0.1164  3.1528  1.8986
  175SAPS  C21419943   2.444   0.177   4.041  1.0659  0.0901  0.5706
  175SAPS  H14R19944   2.529   0.236   4.003 -1.1932  2.1345 -1.6197
  175SAPS  C21519945   2.407   0.206   4.169  0.7193  0.3537 -0.4291
  175SAPS  H15R19946   2.462   0.293   4.210 -0.5426  0.9833 -0.0050
  175SAPS  C21619947   2.312   0.135   4.259  0.3649  0.1564 -0.2047
  175SAPS  H16R19948   2.286   0.038   4.213  2.2582 -0.0681 -0.8914
  175SAPS  H16S19949   2.218   0.194   4.261 -0.8211 -1.6862  0.3077
  175SAPS  C21719950   2.350   0.111   4.412  0.9562 -0.1117  1.0735
  175SAPS  H17R19951   2.271   0.047   4.457  0.0964 -2.2287 -2.9730
  175SAPS  H17S19952   2.355   0.210   4.463 -1.9466  1.9639 -2.2016
  175SAPS  C21819953   2.472   0.031   4.436 -0.2210  0.0817 -0.4663
  175SAPS  H18R19954   2.561   0.087   4.398 -1.0437  0.7611 -1.4374
  175SAPS  H18S19955   2.470  -0.065   4.379 -0.8299 -1.2781  1.7484
  175SAPS  C21919956   2.502   0.005   4.584  0.7598 -0.5327 -0.0822
  175SAPS  H19R19957   2.411  -0.049   4.619 -1.6094  2.6098 -0.9523
  175SAPS  H19S19958   2.502   0.103   4.637  0.9997 -0.5163 -0.1110
  175SAPS  C22019959   2.636  -0.063   4.600 -0.2461  0.2707 -0.2482
  175SAPS  H20R19960   2.626  -0.168   4.564  0.9043 -0.0994  0.4791
  175SAPS  H20S19961   2.679  -0.050   4.701 -2.8731  0.4783  0.9308
  175SAPS  H20T19962   2.707  -0.023   4.525 -1.1658 -0.2127 -1.4065
  175SAPS   C3319963   2.030   0.393   3.125 -0.0137 -0.1498  0.1389
  175SAPS   H3X19964   1.991   0.496   3.109  0.4907  0.0128 -0.0714
  175SAPS   H3Y19965   2.120   0.389   3.060 -1.6425 -0.4364 -2.2401
  175SAPS   C3419966   2.069   0.385   3.266 -0.1802 -0.4447 -0.5465
  175SAPS   H4X19967   2.162   0.333   3.295 -0.1825  0.0993  0.5067
  175SAPS   H4Y19968   1.991   0.326   3.319  0.8042 -2.4937 -1.3119
  175SAPS   C3519969   2.073   0.520   3.336 -0.5618 -0.2337 -0.0285
  175SAPS   H5X19970   1.983   0.581   3.311 -0.3010  0.5154  0.7904
  175SAPS   H5Y19971   2.168   0.572   3.312  0.2059 -1.9461 -0.8604
  175SAPS   C3619972   2.058   0.511   3.486 -0.5484  0.8241  0.0348
  175SAPS   H6X19973   2.129   0.439   3.531  1.5411  1.4657 -2.0021
  175SAPS   H6Y19974   1.958   0.476   3.520  1.0629 -0.4020  4.0435
  175SAPS   C3719975   2.080   0.646   3.556 -0.4813 -0.0960  0.0563
  175SAPS   H7X19976   2.004   0.712   3.510  0.9962  0.4916 -1.6280
  175SAPS   H7Y19977   2.178   0.681   3.519 -0.4409 -0.9075 -0.6452
  175SAPS   C3819978   2.078   0.633   3.706 -0.1998 -0.1583 -0.0074
  175SAPS   H8X19979   2.154   0.557   3.733  0.7513  0.1096 -1.8285
  175SAPS   H8Y19980   1.976   0.606   3.740 -2.3091  4.1774 -2.0567
  175SAPS   C3919981   2.104   0.770   3.768  0.3998  0.3762  0.2145
  175SAPS   H9X19982   2.022   0.832   3.726  2.2164  1.6179 -1.7263
  175SAPS   H9Y19983   2.197   0.817   3.730 -0.2873  0.1669 -1.8363
  175SAPS  C31019984   2.108   0.779   3.920  0.8513  0.1849  0.3492
  175SAPS  H10X19985   2.164   0.868   3.956 -0.9028  1.4994 -0.0620
  175SAPS  H10Y19986   2.160   0.689   3.959 -3.0576 -1.8934  1.1857
  175SAPS  C31119987   1.959   0.782   3.973  0.0062 -0.0151 -0.4764
  175SAPS  H11X19988   1.895   0.700   3.935 -0.1189  0.9113 -2.3747
  175SAPS  H11Y19989   1.914   0.876   3.935  2.0260  0.2136 -2.5296
  175SAPS  C31219990   1.947   0.763   4.131 -0.2953 -0.3293 -0.1747
  175SAPS  H12X19991   1.842   0.793   4.153 -0.6752 -1.3218 -0.5914
  175SAPS  H12Y19992   2.012   0.832   4.188 -0.5450 -1.7128  1.8693
  175SAPS  C31319993   1.966   0.618   4.180 -0.7946  0.3579  0.2912
  175SAPS  H13X19994   1.973   0.539   4.102  0.5819  0.2011  0.5491
  175SAPS  H13Y19995   1.897   0.579   4.258  2.2388 -2.6040  1.7667
  175SAPS  C31419996   2.100   0.617   4.249  0.7156  0.1704  0.5459
  175SAPS  H14X19997   2.087   0.685   4.336 -1.2487  0.8402 -0.2055
  175SAPS  H14Y19998   2.176   0.669   4.186  1.9988  1.2590  2.8595
  175SAPS  C31519999   2.166   0.487   4.295 -0.1000 -0.2889 -0.6234
  175SAPS  H15X20000   2.255   0.519   4.353  0.4863 -1.6007 -0.7800
  175SAPS  H15Y20001   2.200   0.442   4.200  3.2233  0.3007  0.1642
  175SAPS  C31620002   2.084   0.394   4.387  0.2169 -0.4568  0.5594
  175SAPS  H16X20003   2.155   0.313   4.414  1.2480 -0.6596 -2.4553
  175SAPS  H16Y20004   2.002   0.342   4.333 -2.1073  0.0907  3.2977
  175SAPS  C31720005   2.028   0.450   4.516 -0.4904 -0.0997  0.4936
  175SAPS  H17X20006   1.970   0.542   4.497 -2.5792 -1.3082  0.7600
  175SAPS  H17Y20007   2.119   0.487   4.568 -2.1747  0.2396  3.4400
  175SAPS  C31820008   1.969   0.346   4.599  0.4556 -0.3308  0.1513
  175SAPS  H18X20009   1.865   0.326   4.566  0.6567  0.3790 -0.9575
  175SAPS  H18Y20010   1.972   0.377   4.706  2.1774 -2.9964  0.9822
  175SAPS  H18Z20011   2.022   0.249   4.606  1.6853  0.3270  0.3142
  176SAPS     N20012   1.456   6.191   2.183  0.1795  0.3753  0.6210
  176SAPS   HN120013   1.409   6.098   2.186 -1.1907  1.0146 -0.1638
  176SAPS   HN220014   1.442   6.227   2.086  2.0248  0.4198  0.3413
  176SAPS   HN320015   1.557   6.182   2.206  0.5710 -0.1140 -1.1556
  176SAPS   C1220016   1.392   6.286   2.276  0.3317  0.1910  0.1111
  176SAPS  H12A20017   1.398   6.385   2.234  2.2523  0.2289  0.3468
  176SAPS   C1320018   1.233   6.265   2.280  0.2874 -0.3038  0.0299
  176SAPS  O13A20019   1.176   6.186   2.202 -0.3300  0.1413  0.1233
  176SAPS  O13B20020   1.167   6.350   2.350 -0.0577 -0.1624 -0.3955
  176SAPS   C1120021   1.469   6.280   2.415 -0.1639 -0.6499  0.1714
  176SAPS  H11A20022   1.462   6.181   2.464 -0.4800 -0.9406 -0.4420
  176SAPS  H11B20023   1.414   6.349   2.483  2.1442  2.1018 -0.5607
  176SAPS     P20024   1.689   6.428   2.457  0.1815  0.0631 -0.3306
  176SAPS   O1320025   1.828   6.380   2.469  0.4828 -0.4510  0.7024
  176SAPS   O1420026   1.648   6.544   2.373 -0.0272 -0.0651  0.7020
  176SAPS   O1220027   1.609   6.302   2.410 -0.2990 -0.2782  0.5064
  176SAPS   O1120028   1.634   6.458   2.600 -0.6393 -0.6148  0.4892
  176SAPS    C120029   1.657   6.368   2.709  0.1694  0.0185  0.1760
  176SAPS    HA20030   1.560   6.344   2.757  0.2735 -0.3509  0.2117
  176SAPS    HB20031   1.706   6.271   2.684 -1.5479 -0.9091  0.2519
  176SAPS    C220032   1.736   6.422   2.836  0.2856 -0.1747  0.9586
  176SAPS    HS20033   1.732   6.347   2.918 -1.1633 -2.3074 -0.9307
  176SAPS   O2120034   1.680   6.547   2.881 -0.1425  0.1049 -0.8188
  176SAPS   C2120035   1.705   6.566   3.014  0.1093 -0.2096 -0.4279
  176SAPS   O2220036   1.744   6.483   3.090  0.0897  0.3996 -0.0258
  176SAPS   C2220037   1.671   6.709   3.046  0.4137 -0.4008 -0.0381
  176SAPS   H2R20038   1.767   6.764   3.036  0.5280 -0.9278 -2.3243
  176SAPS   H2S20039   1.619   6.757   2.960  0.4672 -0.3913 -0.0660
  176SAPS    C320040   1.883   6.431   2.793 -0.1599  0.6043 -0.1361
  176SAPS    HX20041   1.880   6.522   2.728 -0.3636  2.0746  1.8479
  176SAPS    HY20042   1.911   6.354   2.719  0.7756  2.0768 -1.3806
  176SAPS   O3120043   1.977   6.453   2.900  0.2796  0.0704 -0.1593
  176SAPS   C3120044   2.002   6.337   2.957 -0.0761  0.2588 -0.6345
  176SAPS   O3220045   1.983   6.226   2.916 -0.8230 -0.2472 -0.8763
  176SAPS   C3220046   2.090   6.376   3.080 -0.4468  0.5011  0.5750
  176SAPS   H2X20047   2.072   6.479   3.119  0.9589  0.8968  0.2420
  176SAPS   H2Y20048   2.189   6.368   3.029 -1.1679 -0.5195 -0.7365
  176SAPS   C2320049   1.610   6.727   3.191  0.1081 -0.4366 -0.7052
  176SAPS   H3R20050   1.622   6.641   3.260 -0.9848  0.6723  0.9358
  176SAPS   H3S20051   1.499   6.737   3.186 -0.0908 -0.8659  1.6428
  176SAPS   C2420052   1.655   6.859   3.261 -0.3260  0.3145  0.3689
  176SAPS   H4R20053   1.574   6.876   3.334 -1.2154  1.1674 -0.7794
  176SAPS   H4S20054   1.657   6.940   3.185  1.4721  1.0557  1.1409
  176SAPS   C2520055   1.786   6.866   3.331 -0.7814 -0.4890 -0.6125
  176SAPS   H5R20056   1.870   6.855   3.261 -1.0952  0.0621 -1.0840
  176SAPS   C2620057   1.809   6.878   3.461  0.7120  0.4858 -0.3557
  176SAPS   H6R20058   1.912   6.884   3.499  0.8474  0.1419 -0.6672
  176SAPS   C2720059   1.706   6.884   3.581 -1.0698 -0.5015  0.4234
  176SAPS   H7R20060   1.753   6.822   3.661 -0.4539  0.5849  0.9216
  176SAPS   H7S20061   1.606   6.844   3.556 -0.0015 -1.9580 -1.9208
  176SAPS   C2820062   1.704   7.025   3.626  0.5496  0.0335 -0.2471
  176SAPS   H8R20063   1.667   7.102   3.556  0.0457  0.2167  0.2196
  176SAPS   C2920064   1.745   7.068   3.748  0.5723  0.1639 -0.5238
  176SAPS   H9R20065   1.745   7.176   3.771 -2.5896  0.1017  0.2737
  176SAPS  C21020066   1.788   6.970   3.849  0.2103  0.0588 -0.0908
  176SAPS  H10R20067   1.865   6.894   3.824 -1.9610 -2.3298  0.0123
  176SAPS  H10S20068   1.706   6.898   3.875  1.6025 -1.5007  0.1310
  176SAPS  C21120069   1.832   7.040   3.974 -0.0898 -0.0953  0.5085
  176SAPS  H11R20070   1.941   7.051   3.977 -0.1368  0.1304  2.7838
  176SAPS  C21220071   1.744   7.088   4.068 -0.7526  0.2585 -0.3148
  176SAPS  H12R20072   1.781   7.135   4.161  1.1735 -0.9275 -0.4166
  176SAPS  C21320073   1.596   7.052   4.069  0.4955 -0.4716 -1.0669
  176SAPS  H13R20074   1.549   7.023   3.973 -0.3568 -0.8203 -0.5573
  176SAPS  H13S20075   1.550   7.142   4.115  2.4997 -0.3089  0.7980
  176SAPS  C21420076   1.573   6.943   4.171 -0.3326 -0.2787  0.1380
  176SAPS  H14R20077   1.623   6.847   4.151  0.0493  0.2512 -1.6372
  176SAPS  C21520078   1.499   6.946   4.284  0.2351  0.1519 -0.7896
  176SAPS  H15R20079   1.486   6.852   4.341 -0.7168  0.9354  0.3336
  176SAPS  C21620080   1.441   7.077   4.331  0.0748  0.9777  0.0333
  176SAPS  H16R20081   1.344   7.093   4.280 -0.6384 -0.9442  0.6726
  176SAPS  H16S20082   1.505   7.167   4.319  2.8060 -0.6014  1.6586
  176SAPS  C21720083   1.405   7.065   4.483 -0.2078  0.1554 -0.1842
  176SAPS  H17R20084   1.501   7.047   4.537 -0.3912 -2.1859 -0.5316
  176SAPS  H17S20085   1.344   6.974   4.500  1.2420 -0.6605  0.8933
  176SAPS  C21820086   1.330   7.184   4.538 -0.1555 -0.1065  0.2156
  176SAPS  H18R20087   1.234   7.202   4.485 -1.8414  1.2335  3.4432
  176SAPS  H18S20088   1.391   7.275   4.522  0.5214 -0.3378  1.3374
  176SAPS  C21920089   1.319   7.172   4.693  0.0215 -0.5818 -0.0444
  176SAPS  H19R20090   1.426   7.162   4.722  0.4446  1.1346 -0.9135
  176SAPS  H19S20091   1.259   7.084   4.725 -0.5830 -0.3866 -0.6181
  176SAPS  C22020092   1.250   7.301   4.758  0.1850 -0.4439 -0.3914
  176SAPS  H20R20093   1.210   7.272   4.858 -1.3096  1.4379 -0.3923
  176SAPS  H20S20094   1.158   7.316   4.698 -0.4138  1.1606  0.8549
  176SAPS  H20T20095   1.307   7.396   4.747 -1.7313  0.8775  0.5592
  176SAPS   C3320096   2.080   6.278   3.200  0.1685  0.1451 -0.1447
  176SAPS   H3X20097   2.178   6.283   3.252  0.3770 -1.1042 -0.3882
  176SAPS   H3Y20098   2.088   6.174   3.162 -1.7074  0.1453 -0.6735
  176SAPS   C3420099   1.962   6.286   3.288 -0.3337  0.5804 -0.5437
  176SAPS   H4X20100   1.962   6.195   3.351 -2.5454  1.5078  0.8932
  176SAPS   H4Y20101   1.874   6.279   3.221 -1.2954 -0.7163  0.7761
  176SAPS   C3520102   1.960   6.406   3.369 -0.3257  0.1942 -0.1833
  176SAPS   H5X20103   1.929   6.489   3.302  0.1730 -0.6810 -1.5375
  176SAPS   H5Y20104   2.054   6.429   3.423 -1.7568  0.4934  2.3127
  176SAPS   C3620105   1.845   6.392   3.468 -0.1326  0.0728  0.3166
  176SAPS   H6X20106   1.848   6.295   3.523  0.3410  0.3498  0.7876
  176SAPS   H6Y20107   1.749   6.383   3.412 -1.4930 -1.8872  2.7309
  176SAPS   C3720108   1.846   6.508   3.574  0.2255  0.2497 -0.1300
  176SAPS   H7X20109   1.759   6.511   3.643  2.4144  0.1805  2.8722
  176SAPS   H7Y20110   1.843   6.604   3.519  0.7810 -0.5654 -1.6138
  176SAPS   C3820111   1.960   6.489   3.678  0.7155 -0.6571  0.9085
  176SAPS   H8X20112   2.058   6.488   3.624  0.9709 -0.2050  1.3603
  176SAPS   H8Y20113   1.945   6.393   3.733 -1.5820 -1.1798 -0.5157
  176SAPS   C3920114   1.958   6.588   3.791  0.0777 -0.2268  0.4790
  176SAPS   H9X20115   1.869   6.572   3.856 -0.0535 -0.4890  0.2361
  176SAPS   H9Y20116   1.953   6.691   3.750 -1.8971 -1.0219 -1.4559
  176SAPS  C31020117   2.081   6.585   3.886 -0.0380  0.4106 -0.0528
  176SAPS  H10X20118   2.174   6.589   3.825 -0.8786 -0.1491 -1.4226
  176SAPS  H10Y20119   2.082   6.481   3.926  0.6322  1.0148  1.5411
  176SAPS  C31120120   2.081   6.687   4.003  0.2070  0.6075 -0.1755
  176SAPS  H11X20121   2.066   6.790   3.964 -0.4154  0.5125 -0.1878
  176SAPS  H11Y20122   2.181   6.682   4.051 -0.1841  0.2650  0.6197
  176SAPS  C31220123   1.973   6.657   4.106  0.2808  0.5952  0.5360
  176SAPS  H12X20124   1.995   6.553   4.139 -1.2181 -0.0439 -0.3807
  176SAPS  H12Y20125   1.872   6.661   4.060  1.0205  0.0748 -1.2408
  176SAPS  C31320126   1.965   6.748   4.232  0.1395 -0.4781  0.4753
  176SAPS  H13X20127   1.929   6.843   4.189  0.3270 -0.8802 -0.6106
  176SAPS  H13Y20128   2.065   6.770   4.276  1.2902 -1.3674 -1.5259
  176SAPS  C31420129   1.859   6.692   4.336 -0.4230 -0.6098  0.5359
  176SAPS  H14X20130   1.888   6.594   4.380 -0.8621 -0.5594  0.9439
  176SAPS  H14Y20131   1.764   6.674   4.283  0.2848 -0.1261 -0.9655
  176SAPS  C31520132   1.861   6.791   4.448  0.2251 -0.1535  0.5088
  176SAPS  H15X20133   1.842   6.894   4.412  0.5285 -0.6653 -1.2164
  176SAPS  H15Y20134   1.958   6.785   4.502 -0.0112 -2.1274  0.7839
  176SAPS  C31620135   1.748   6.753   4.549  0.3786  0.3904  0.5504
  176SAPS  H16X20136   1.763   6.652   4.593  1.1792 -1.0033 -2.6829
  176SAPS  H16Y20137   1.655   6.736   4.490  0.9189 -0.6595 -0.0345
  176SAPS  C31720138   1.722   6.869   4.647  0.1328  0.0626  0.2494
  176SAPS  H17X20139   1.724   6.963   4.588  0.0658 -0.2170 -0.2061
  176SAPS  H17Y20140   1.808   6.877   4.717  2.0822  0.3550 -2.0261
  176SAPS  C31820141   1.591   6.870   4.727 -0.0264  0.0651  0.0515
  176SAPS  H18X20142   1.504   6.892   4.662 -0.7092 -1.2597  0.4777
  176SAPS  H18Y20143   1.598   6.952   4.802 -3.3384  1.7202 -1.2857
  176SAPS  H18Z20144   1.564   6.776   4.781 -0.3560  0.2371  0.1871
  177SAPS     N20145   1.266   3.404   2.441  0.0528  0.1311  0.1388
  177SAPS   HN120146   1.309   3.318   2.481 -0.9759  0.4932  2.1727
  177SAPS   HN220147   1.220   3.380   2.351  0.5715 -1.9158  0.3760
  177SAPS   HN320148   1.342   3.474   2.429 -0.1879  0.1572 -1.4139
  177SAPS   C1220149   1.166   3.474   2.535 -0.3797  0.1099 -0.4039
  177SAPS  H12A20150   1.224   3.525   2.610 -0.8377  0.0275  0.0085
  177SAPS   C1320151   1.082   3.582   2.459 -0.4149  0.1121  0.0068
  177SAPS  O13A20152   1.098   3.600   2.330 -0.4547 -0.1609 -0.2218
  177SAPS  O13B20153   0.992   3.646   2.519  0.6758 -1.2228 -0.2964
  177SAPS   C1120154   1.070   3.371   2.595  0.6104  0.3558  0.1752
  177SAPS  H11A20155   1.018   3.327   2.508 -2.1544  0.1331  1.8109
  177SAPS  H11B20156   1.002   3.426   2.663  0.3238 -0.1443  0.3009
  177SAPS     P20157   1.200   3.278   2.803 -0.1297 -0.1250 -0.0019
  177SAPS   O1320158   1.253   3.140   2.831 -0.2973 -0.0932 -0.2292
  177SAPS   O1420159   1.302   3.385   2.800  0.3071 -0.2978 -0.9946
  177SAPS   O1220160   1.139   3.261   2.658  0.6795 -0.2894  0.3988
  177SAPS   O1120161   1.086   3.320   2.898  0.8459  0.3575  0.1183
  177SAPS    C120162   0.970   3.235   2.916  0.2265 -0.3896 -0.0430
  177SAPS    HA20163   0.875   3.290   2.900 -0.9758 -2.2648  0.3806
  177SAPS    HB20164   0.966   3.146   2.850  1.6734 -1.2043  0.9036
  177SAPS    C220165   0.969   3.181   3.060 -0.1299 -0.9042 -0.2578
  177SAPS    HS20166   0.879   3.117   3.074  0.2397 -1.1995  0.9509
  177SAPS   O2120167   0.964   3.283   3.161  0.1049  0.3123  0.5635
  177SAPS   C2120168   0.861   3.364   3.168 -0.5721 -0.8690 -0.4013
  177SAPS   O2220169   0.750   3.349   3.128  0.1978 -0.1623  0.3388
  177SAPS   C2220170   0.899   3.480   3.255 -0.5481 -0.1006 -0.1838
  177SAPS   H2R20171   0.977   3.450   3.328  1.9352  0.4777 -2.4207
  177SAPS   H2S20172   0.932   3.565   3.192  1.4087  0.0267  0.9416
  177SAPS    C320173   1.084   3.083   3.096 -0.2537  0.5739  0.5588
  177SAPS    HX20174   1.172   3.150   3.105  0.5557 -0.6577  2.7145
  177SAPS    HY20175   1.096   3.014   3.010 -0.2711 -0.5474  1.4352
  177SAPS   O3120176   1.070   3.008   3.222 -0.3272 -0.5568 -0.0134
  177SAPS   C3120177   1.161   2.919   3.238  0.0596  0.4203  0.5277
  177SAPS   O3220178   1.253   2.898   3.158  0.1404  0.3435 -0.4299
  177SAPS   C3220179   1.148   2.850   3.376  0.2995  0.1608 -0.0340
  177SAPS   H2X20180   1.041   2.828   3.397  0.7597 -3.5324 -0.7258
  177SAPS   H2Y20181   1.179   2.929   3.447 -0.8958 -1.5705  2.5438
  177SAPS   C2320182   0.774   3.534   3.331  0.0221 -0.1713 -0.4178
  177SAPS   H3R20183   0.701   3.554   3.250 -1.1471 -0.4071  0.5372
  177SAPS   H3S20184   0.794   3.631   3.381 -0.7425 -0.2988  0.1544
  177SAPS   C2420185   0.727   3.439   3.439  0.1102  0.2229  0.5210
  177SAPS   H4R20186   0.811   3.424   3.511  0.4169 -2.3608 -0.2657
  177SAPS   H4S20187   0.711   3.339   3.392 -1.7650  1.1444 -0.9010
  177SAPS   C2520188   0.588   3.480   3.483 -0.4271 -0.1785  0.3058
  177SAPS   H5R20189   0.529   3.512   3.396  0.4781  1.8471  0.3864
  177SAPS   C2620190   0.536   3.483   3.603 -0.3736 -0.4016 -0.1590
  177SAPS   H6R20191   0.431   3.512   3.615 -0.6288 -1.2206 -0.3425
  177SAPS   C2720192   0.595   3.437   3.733 -0.4143  0.2080  0.0617
  177SAPS   H7R20193   0.692   3.393   3.702 -0.8274  1.3516 -3.1862
  177SAPS   H7S20194   0.539   3.360   3.791 -1.3107  1.2137  0.5519
  177SAPS   C2820195   0.622   3.555   3.826 -0.1135 -0.1356 -0.2569
  177SAPS   H8R20196   0.631   3.654   3.780 -3.2928  0.3171 -0.1137
  177SAPS   C2920197   0.634   3.562   3.969  0.3969  0.6941 -0.1777
  177SAPS   H9R20198   0.645   3.662   4.013  1.2351  0.2909  0.5643
  177SAPS  C21020199   0.635   3.451   4.061 -0.2874  0.4726  0.1738
  177SAPS  H10R20200   0.582   3.365   4.015 -0.0818 -0.6658  1.9868
  177SAPS  H10S20201   0.562   3.478   4.140 -1.6810 -0.7147 -0.6558
  177SAPS  C21120202   0.784   3.427   4.120  0.8113 -0.7178  0.5839
  177SAPS  H11R20203   0.843   3.345   4.078 -0.0116 -1.7494  1.3676
  177SAPS  C21220204   0.842   3.503   4.218  0.0996 -0.8382 -0.4617
  177SAPS  H12R20205   0.952   3.504   4.230 -0.2161 -0.2212  3.8526
  177SAPS  C21320206   0.783   3.626   4.288  0.0470 -0.5021 -0.3246
  177SAPS  H13R20207   0.766   3.605   4.396 -0.4625  0.8763 -0.1166
  177SAPS  H13S20208   0.679   3.657   4.262  0.1704  1.7972  1.6557
  177SAPS  C21420209   0.872   3.749   4.256  0.5084 -0.8192 -0.0311
  177SAPS  H14R20210   0.829   3.816   4.181 -0.1051 -3.2145 -1.9540
  177SAPS  C21520211   0.990   3.774   4.308  0.4495  0.4563  0.4884
  177SAPS  H15R20212   1.046   3.864   4.279  1.1702  0.8565  2.9028
  177SAPS  C21620213   1.085   3.687   4.399  0.8835 -0.9842  0.5166
  177SAPS  H16R20214   1.178   3.710   4.344  1.0609 -0.4132  1.0372
  177SAPS  H16S20215   1.080   3.578   4.381  0.9021 -1.0730  1.0247
  177SAPS  C21720216   1.076   3.706   4.552 -0.2624 -0.4457  0.5266
  177SAPS  H17R20217   1.151   3.642   4.604  1.3630 -0.0458 -1.2443
  177SAPS  H17S20218   0.969   3.698   4.582 -0.6466  2.5792  0.2918
  177SAPS  C21820219   1.125   3.846   4.587 -0.1360 -0.1674  0.5057
  177SAPS  H18R20220   1.036   3.909   4.567  0.1728  0.8141  2.0482
  177SAPS  H18S20221   1.202   3.871   4.511 -1.3138 -0.0604 -0.6801
  177SAPS  C21920222   1.187   3.859   4.727  0.0814  0.1843  1.0487
  177SAPS  H19R20223   1.250   3.950   4.730  1.6158 -0.8661  3.2887
  177SAPS  H19S20224   1.252   3.772   4.752 -2.6328 -2.0178  0.9654
  177SAPS  C22020225   1.083   3.875   4.834  0.3893  0.2629 -0.4694
  177SAPS  H20R20226   1.033   3.776   4.845 -0.0784  0.7818  3.4399
  177SAPS  H20S20227   1.006   3.954   4.819  0.4807  0.3830 -0.3006
  177SAPS  H20T20228   1.135   3.894   4.930 -0.1556  1.5157 -0.4026
  177SAPS   C3320229   1.244   2.731   3.403 -0.3040 -0.8893  0.5794
  177SAPS   H3X20230   1.345   2.768   3.377  0.0656 -1.5339  1.0960
  177SAPS   H3Y20231   1.216   2.649   3.333  1.8052  0.6502 -2.2717
  177SAPS   C3420232   1.249   2.696   3.553  0.7942  0.2958 -0.1003
  177SAPS   H4X20233   1.329   2.620   3.562  1.4998  1.0511  0.0691
  177SAPS   H4Y20234   1.153   2.648   3.582  0.7773 -0.2075 -0.9576
  177SAPS   C3520235   1.287   2.809   3.649 -0.1846  0.5828  0.4092
  177SAPS   H5X20236   1.197   2.863   3.684  0.9805  0.6320  3.6615
  177SAPS   H5Y20237   1.359   2.888   3.616 -1.8738  1.9322 -0.1688
  177SAPS   C3620238   1.343   2.758   3.788 -0.3482  0.4339  0.1476
  177SAPS   H6X20239   1.453   2.769   3.789 -0.4292  1.4733  2.0797
  177SAPS   H6Y20240   1.321   2.649   3.790 -1.3969  0.5216 -2.6673
  177SAPS   C3720241   1.279   2.823   3.921  0.3188  0.3357 -0.0156
  177SAPS   H7X20242   1.189   2.766   3.952 -1.0959  2.3607 -0.1793
  177SAPS   H7Y20243   1.258   2.931   3.899  0.0795  0.2853 -0.0423
  177SAPS   C3820244   1.363   2.816   4.037  0.2153 -1.4913 -0.2016
  177SAPS   H8X20245   1.451   2.873   4.001 -1.2084  0.1791 -1.1823
  177SAPS   H8Y20246   1.403   2.713   4.051  0.2778 -1.2323  1.8642
  177SAPS   C3920247   1.311   2.881   4.166 -0.1271  0.0847 -0.1749
  177SAPS   H9X20248   1.222   2.828   4.207 -1.1517  0.4596 -1.8291
  177SAPS   H9Y20249   1.270   2.981   4.142  1.1260  1.0298  1.4084
  177SAPS  C31020250   1.426   2.876   4.266 -0.8807 -0.0965  0.2891
  177SAPS  H10X20251   1.513   2.930   4.221 -0.7092 -1.0919 -0.5995
  177SAPS  H10Y20252   1.470   2.777   4.291  1.4855  1.3314  2.3307
  177SAPS  C31120253   1.387   2.950   4.395  0.4025  0.2046 -0.3289
  177SAPS  H11X20254   1.295   2.902   4.435  1.3545 -1.9543 -0.6325
  177SAPS  H11Y20255   1.365   3.058   4.381  1.4510  0.4080 -0.4930
  177SAPS  C31220256   1.492   2.948   4.513  0.0290 -0.1192  0.7201
  177SAPS  H12X20257   1.582   3.011   4.496 -1.8425  2.6678  0.4322
  177SAPS  H12Y20258   1.531   2.845   4.522 -0.5024 -0.2145  2.2407
  177SAPS  C31320259   1.452   2.978   4.656  0.0774  0.1799 -0.6509
  177SAPS  H13X20260   1.376   2.900   4.678  1.6882 -0.8884  1.5267
  177SAPS  H13Y20261   1.415   3.082   4.663  1.9949  0.8077  0.9400
  177SAPS  C31420262   1.556   2.964   4.768  0.1938  0.0551 -0.4909
  177SAPS  H14X20263   1.595   3.067   4.780  0.1814 -0.1572  1.7206
  177SAPS  H14Y20264   1.634   2.895   4.730 -0.0655 -0.1111 -0.7356
  177SAPS  C31520265   1.492   2.917   4.899  0.3663 -0.6057 -0.3494
  177SAPS  H15X20266   1.434   2.823   4.886 -1.4523  0.6034 -1.3012
  177SAPS  H15Y20267   1.420   2.997   4.923 -0.3885 -0.2614 -3.3507
  177SAPS  C31620268   1.590   2.887   5.010 -0.1982  0.0488  0.0972
  177SAPS  H16X20269   1.663   2.969   5.030  0.4529 -0.5342  0.1545
  177SAPS  H16Y20270   1.654   2.798   4.991  1.1696  0.9950  0.0741
  177SAPS  C31720271   1.514   2.848   5.134 -0.1859  0.1574 -0.0828
  177SAPS  H17X20272   1.552   2.747   5.158 -0.8419 -0.3101 -0.9375
  177SAPS  H17Y20273   1.406   2.844   5.109 -0.0366 -1.5659 -0.5338
  177SAPS  C31820274   1.533   2.954   5.246  0.4520 -0.2612 -0.2432
  177SAPS  H18X20275   1.504   2.913   5.345 -2.5539  0.1748 -0.8491
  177SAPS  H18Y20276   1.463   3.040   5.240  0.6262  0.0720  1.8953
  177SAPS  H18Z20277   1.634   2.999   5.250  0.1904  0.3552 -0.4079
  178SAPS     N20278   4.940   3.912   2.710  0.1260  0.4218  0.1092
  178SAPS   HN120279   4.958   3.962   2.800 -2.2029 -1.0793  1.4952
  178SAPS   HN220280   4.847   3.945   2.677 -0.9318 -0.1526  2.3172
  178SAPS   HN320281   4.923   3.814   2.739 -1.7070  0.3684 -1.0449
  178SAPS   C1220282   5.050   3.910   2.608 -0.8895 -0.6475  0.2580
  178SAPS  H12A20283   5.140   3.885   2.662 -0.8699 -1.1633 -0.0097
  178SAPS   C1320284   5.032   3.809   2.489 -0.3189  1.1286  0.7761
  178SAPS  O13A20285   4.935   3.733   2.487 -0.4506  0.1707  0.2606
  178SAPS  O13B20286   5.134   3.775   2.423 -0.5103  0.2083  0.0476
  178SAPS   C1120287   5.076   4.052   2.550 -0.3294 -0.0646 -0.1332
  178SAPS  H11A20288   5.000   4.067   2.470 -0.8000  0.6334  0.4343
  178SAPS  H11B20289   5.171   4.059   2.491 -0.6255 -0.1709 -0.6263
  178SAPS     P20290   5.067   4.299   2.611 -0.4638  0.1209  0.2370
  178SAPS   O1320291   5.209   4.338   2.589 -0.1233 -0.2993 -0.2940
  178SAPS   O1420292   4.967   4.332   2.509  0.2406 -0.1776 -0.0445
  178SAPS   O1220293   5.067   4.150   2.656 -0.2656  0.6859  0.3928
  178SAPS   O1120294   5.018   4.361   2.744  0.1884  0.0280 -0.0294
  178SAPS    C120295   4.906   4.317   2.812  0.5197  0.5442  0.5930
  178SAPS    HA20296   4.827   4.394   2.802  0.0542  0.0082  0.0405
  178SAPS    HB20297   4.861   4.235   2.752  0.0152  1.7730 -0.7800
  178SAPS    C220298   4.942   4.273   2.958 -0.2593  0.2272  0.3928
  178SAPS    HS20299   5.002   4.180   2.944  0.9683  0.8312  1.4688
  178SAPS   O2120300   4.828   4.240   3.035  0.4990 -0.1386  0.5984
  178SAPS   C2120301   4.772   4.124   3.004 -0.7304 -0.5496 -0.4250
  178SAPS   O2220302   4.815   4.049   2.914  0.2632  0.3111 -0.1954
  178SAPS   C2220303   4.672   4.085   3.112  0.7604  0.6018  0.3115
  178SAPS   H2R20304   4.660   4.171   3.181 -0.9443  0.7204 -0.0938
  178SAPS   H2S20305   4.572   4.074   3.065  0.5683 -1.0787  1.0394
  178SAPS    C320306   5.030   4.373   3.021  0.3631 -1.0054  0.1193
  178SAPS    HX20307   4.982   4.472   3.008  0.3944 -1.3215 -3.2511
  178SAPS    HY20308   5.130   4.375   2.973  0.0018 -0.5263 -0.6352
  178SAPS   O3120309   5.044   4.336   3.160 -0.2022 -0.2195 -0.1185
  178SAPS   C3120310   4.962   4.401   3.246  0.2594  1.1666  0.1300
  178SAPS   O3220311   4.889   4.493   3.221  0.5347 -0.0524 -0.1155
  178SAPS   C3220312   4.968   4.342   3.384 -0.4786 -0.0934 -0.7844
  178SAPS   H2X20313   5.029   4.402   3.454  0.9243 -1.5613 -0.6976
  178SAPS   H2Y20314   5.011   4.240   3.389 -0.5856 -0.0890  2.0650
  178SAPS   C2320315   4.720   3.950   3.191 -0.7822 -0.9295  0.3514
  178SAPS   H3R20316   4.809   3.986   3.247  0.0612 -0.8061 -1.0220
  178SAPS   H3S20317   4.739   3.872   3.115 -1.6049 -1.0591  0.2624
  178SAPS   C2420318   4.613   3.891   3.287 -0.3924  0.6393  0.3446
  178SAPS   H4R20319   4.658   3.804   3.339 -0.8322  0.8230  1.0449
  178SAPS   H4S20320   4.538   3.850   3.216 -0.2779  0.7655  0.1509
  178SAPS   C2520321   4.556   3.992   3.378  0.7523 -0.1149  0.2542
  178SAPS   H5R20322   4.501   4.075   3.331  0.2076  0.0181  1.1170
  178SAPS   C2620323   4.572   3.997   3.511  0.2140 -0.0707  0.3238
  178SAPS   H6R20324   4.521   4.071   3.574  1.0932  0.0546  0.9053
  178SAPS   C2720325   4.646   3.897   3.603  0.1344  0.4026 -0.3344
  178SAPS   H7R20326   4.690   3.952   3.688 -1.4688 -1.6467  1.9626
  178SAPS   H7S20327   4.722   3.851   3.537  0.2270  0.1413 -0.0435
  178SAPS   C2820328   4.562   3.785   3.652  0.3427  0.0581 -0.9191
  178SAPS   H8R20329   4.529   3.713   3.576 -0.1498 -0.8387  0.1097
  178SAPS   C2920330   4.536   3.743   3.780  0.3161  0.5585  0.3417
  178SAPS   H9R20331   4.466   3.659   3.782 -0.0551  0.8024 -1.0169
  178SAPS  C21020332   4.586   3.804   3.902  0.1581 -1.2208 -0.3284
  178SAPS  H10R20333   4.627   3.904   3.878 -0.5710 -0.4103  1.5645
  178SAPS  H10S20334   4.680   3.747   3.918  2.3724  2.3585  0.6131
  178SAPS  C21120335   4.499   3.819   4.027  0.4874  0.5042  0.1878
  178SAPS  H11R20336   4.417   3.746   4.022  2.2051 -1.4825 -0.5551
  178SAPS  C21220337   4.505   3.909   4.131 -0.3852  0.0345  0.1643
  178SAPS  H12R20338   4.434   3.908   4.215 -0.7843 -1.0437 -0.1685
  178SAPS  C21320339   4.611   4.021   4.148 -0.3576  0.3762 -0.7445
  178SAPS  H13R20340   4.669   4.038   4.056 -0.3525  1.9991 -0.4647
  178SAPS  H13S20341   4.676   3.985   4.230  1.1544  2.0829 -1.1325
  178SAPS  C21420342   4.541   4.150   4.175  0.2521 -0.7324  0.4576
  178SAPS  H14R20343   4.516   4.199   4.079  0.2697 -1.5596  0.0199
  178SAPS  C21520344   4.487   4.190   4.292 -0.7176  1.0088 -0.2579
  178SAPS  H15R20345   4.437   4.287   4.298 -0.0493  1.2677  3.4223
  178SAPS  C21620346   4.500   4.124   4.431  0.2282 -0.0290  0.1146
  178SAPS  H16R20347   4.550   4.025   4.426  2.7748  1.1282  0.8565
  178SAPS  H16S20348   4.397   4.107   4.468 -0.0170  0.3716 -0.3644
  178SAPS  C21720349   4.566   4.216   4.532  0.1532  0.1465 -0.4290
  178SAPS  H17R20350   4.499   4.304   4.546 -0.8495 -0.2430 -2.4220
  178SAPS  H17S20351   4.662   4.266   4.505 -1.1384  2.3718 -1.1952
  178SAPS  C21820352   4.608   4.153   4.671 -0.2491 -0.8645 -0.2716
  178SAPS  H18R20353   4.711   4.113   4.669 -1.2586 -3.6388 -0.8696
  178SAPS  H18S20354   4.540   4.069   4.698 -0.7197 -0.4385 -0.1236
  178SAPS  C21920355   4.597   4.256   4.791  0.1949 -0.4418  0.7991
  178SAPS  H19R20356   4.489   4.279   4.804 -0.2429 -0.9922 -1.3584
  178SAPS  H19S20357   4.646   4.350   4.759 -0.8213 -0.7350 -1.9318
  178SAPS  C22020358   4.665   4.210   4.916  0.3787  0.2938 -0.6589
  178SAPS  H20R20359   4.622   4.114   4.950  1.7007  0.2530  1.0414
  178SAPS  H20S20360   4.660   4.297   4.985  0.3895  1.5849 -2.2180
  178SAPS  H20T20361   4.770   4.183   4.891  0.9295  2.4319 -0.8377
  178SAPS   C3320362   4.830   4.324   3.445  0.3596  0.2524  0.4643
  178SAPS   H3X20363   4.773   4.258   3.377  0.1280  0.9170  0.0057
  178SAPS   H3Y20364   4.774   4.420   3.451 -0.3012 -0.1051  0.0049
  178SAPS   C3420365   4.831   4.256   3.577  0.0365 -0.0937  0.2825
  178SAPS   H4X20366   4.892   4.163   3.572  0.2224  0.0992 -1.4016
  178SAPS   H4Y20367   4.727   4.233   3.608  0.6448 -0.8072  1.9210
  178SAPS   C3520368   4.894   4.342   3.678 -0.0909 -0.7079 -0.1960
  178SAPS   H5X20369   4.867   4.449   3.669 -0.6382 -0.9703 -2.0438
  178SAPS   H5Y20370   5.005   4.339   3.672 -0.1181 -0.8222 -0.6606
  178SAPS   C3620371   4.850   4.304   3.818  0.2962  0.3687 -0.3788
  178SAPS   H6X20372   4.865   4.195   3.832 -0.4624  0.1706 -1.0448
  178SAPS   H6Y20373   4.747   4.334   3.846  1.4526  1.1660  3.8022
  178SAPS   C3720374   4.929   4.374   3.939 -0.2748  0.7971  0.8307
  178SAPS   H7X20375   4.935   4.483   3.921  0.0262  0.8631  1.3229
  178SAPS   H7Y20376   5.027   4.321   3.944  0.2404  1.4891 -1.0866
  178SAPS   C3820377   4.852   4.362   4.061  0.1892  0.8851 -0.4453
  178SAPS   H8X20378   4.815   4.259   4.077  1.6641 -0.0665 -2.7346
  178SAPS   H8Y20379   4.764   4.431   4.056 -1.4680 -1.0555  0.6936
  178SAPS   C3920380   4.940   4.426   4.168 -0.1992  0.8261 -0.5682
  178SAPS   H9X20381   4.950   4.536   4.165  3.4863  0.6050 -0.7875
  178SAPS   H9Y20382   5.039   4.376   4.162 -0.8032 -0.3718 -0.8493
  178SAPS  C31020383   4.885   4.390   4.304 -0.2736 -0.1441 -0.0586
  178SAPS  H10X20384   4.863   4.282   4.304 -0.1434 -0.2556  3.0222
  178SAPS  H10Y20385   4.786   4.438   4.317 -0.3478  0.1419 -1.4292
  178SAPS  C31120386   4.987   4.422   4.413 -0.6104 -0.3120 -0.4085
  178SAPS  H11X20387   4.996   4.531   4.429  0.8114 -0.5762  0.7818
  178SAPS  H11Y20388   5.087   4.392   4.375 -0.0870  0.4509  0.3510
  178SAPS  C31220389   4.958   4.357   4.545  0.2841  0.5867  0.7565
  178SAPS  H12X20390   5.005   4.257   4.553  2.0067  1.2349 -0.4915
  178SAPS  H12Y20391   4.850   4.348   4.569 -0.0311  1.4339 -0.2605
  178SAPS  C31320392   5.033   4.425   4.662  0.5456  0.5167 -0.0388
  178SAPS  H13X20393   4.986   4.375   4.749  0.2757 -0.6471 -0.8341
  178SAPS  H13Y20394   4.992   4.528   4.666 -1.9469 -0.3975 -0.3066
  178SAPS  C31420395   5.187   4.410   4.660 -0.1963  0.0373  0.0732
  178SAPS  H14X20396   5.231   4.426   4.559 -0.4823  1.1995  0.1176
  178SAPS  H14Y20397   5.222   4.309   4.691 -0.2780 -0.4609 -1.3884
  178SAPS  C31520398   5.251   4.512   4.753 -0.4774 -0.3755 -0.7141
  178SAPS  H15X20399   5.360   4.488   4.749 -0.0372  1.3036  0.2550
  178SAPS  H15Y20400   5.229   4.498   4.861  0.9249 -0.0044 -0.3596
  178SAPS  C31620401   5.241   4.655   4.706 -0.9776  0.1879 -0.1533
  178SAPS  H16X20402   5.139   4.692   4.730 -1.4927  0.3967 -2.3817
  178SAPS  H16Y20403   5.249   4.649   4.595 -2.3460  0.9462 -0.3184
  178SAPS  C31720404   5.327   4.763   4.770 -0.7100  0.6333  0.1016
  178SAPS  H17X20405   5.329   4.854   4.707 -0.1381  0.5600  0.0052
  178SAPS  H17Y20406   5.432   4.727   4.780 -1.2791 -2.8636 -3.7058
  178SAPS  C31820407   5.286   4.808   4.912 -0.4036 -0.4974  0.4707
  178SAPS  H18X20408   5.208   4.887   4.903 -0.2017 -0.4568 -1.1858
  178SAPS  H18Y20409   5.368   4.859   4.967  0.1185 -0.4732 -0.3215
  178SAPS  H18Z20410   5.257   4.724   4.978 -1.0777 -3.0664 -2.8624
  179SAPS     N20411   4.148   0.368   2.260 -0.0442  0.0385  0.0668
  179SAPS   HN120412   4.216   0.316   2.201  0.9292  1.1582  0.1687
  179SAPS   HN220413   4.199   0.438   2.317 -1.1812  0.7558  0.2253
  179SAPS   HN320414   4.103   0.296   2.321  3.0307 -2.5616 -0.4687
  179SAPS   C1220415   4.053   0.440   2.178 -0.1912  0.3249  0.4062
  179SAPS  H12A20416   4.105   0.504   2.109 -2.1397 -1.0246 -2.5255
  179SAPS   C1320417   3.965   0.361   2.078  0.1703  0.6398 -0.6434
  179SAPS  O13A20418   3.985   0.234   2.065  0.4565 -0.2062  0.2001
  179SAPS  O13B20419   3.877   0.420   2.008  0.1494 -0.0666 -0.7395
  179SAPS   C1120420   3.960   0.527   2.273  0.3097  0.8311 -0.1517
  179SAPS  H11A20421   3.905   0.460   2.342 -0.6076  2.2835  0.5624
  179SAPS  H11B20422   3.890   0.592   2.217 -0.3776  1.6023  1.5641
  179SAPS     P20423   3.982   0.683   2.477 -0.1447  0.0001 -0.4812
  179SAPS   O1320424   3.879   0.771   2.425  0.0021  0.5261 -0.2653
  179SAPS   O1420425   3.931   0.581   2.577  0.3750 -0.0638 -0.0637
  179SAPS   O1220426   4.043   0.607   2.358  0.7466  0.0138  0.7065
  179SAPS   O1120427   4.111   0.763   2.531 -0.0050  0.2530 -0.8514
  179SAPS    C120428   4.245   0.704   2.538 -0.1464 -0.1462  0.8936
  179SAPS    HA20429   4.254   0.602   2.495  0.0452  0.3755 -0.3433
  179SAPS    HB20430   4.321   0.768   2.487 -0.5885 -1.7304 -1.9369
  179SAPS    C220431   4.295   0.701   2.681  0.4383  0.1798  0.4012
  179SAPS    HS20432   4.403   0.676   2.671  0.6332  1.5582 -1.7086
  179SAPS   O2120433   4.210   0.596   2.737 -0.5904 -0.2321 -0.4323
  179SAPS   C2120434   4.249   0.477   2.726 -0.0275  0.3507 -0.0880
  179SAPS   O2220435   4.357   0.443   2.671  0.6804 -0.5902 -0.3000
  179SAPS   C2220436   4.159   0.378   2.794 -0.3881 -0.1911  0.0471
  179SAPS   H2R20437   4.056   0.420   2.798 -0.7616 -1.0399 -0.2238
  179SAPS   H2S20438   4.157   0.292   2.723  0.3436 -1.3093  1.3502
  179SAPS    C320439   4.286   0.827   2.769 -0.4272  0.6612  0.0748
  179SAPS    HX20440   4.178   0.854   2.769 -0.8289 -0.7649 -1.2939
  179SAPS    HY20441   4.332   0.915   2.719  0.0830 -0.2019 -1.0286
  179SAPS   O3120442   4.348   0.805   2.905 -0.0203 -0.2577  0.5440
  179SAPS   C3120443   4.475   0.808   2.915 -0.5359 -0.8604 -0.4555
  179SAPS   O3220444   4.559   0.822   2.826  0.4644  0.2841  0.0799
  179SAPS   C3220445   4.525   0.800   3.058  0.1399 -0.4121 -0.4435
  179SAPS   H2X20446   4.487   0.708   3.106 -0.3955 -0.8763 -1.7028
  179SAPS   H2Y20447   4.485   0.890   3.110 -0.8853 -1.4916  0.6795
  179SAPS   C2320448   4.220   0.333   2.932  0.0911  0.1397  0.9235
  179SAPS   H3R20449   4.317   0.284   2.909  0.1629 -0.3654  2.2284
  179SAPS   H3S20450   4.150   0.264   2.984 -0.9626  1.0310  0.7140
  179SAPS   C2420451   4.232   0.450   3.035 -0.1044  0.0940 -0.3023
  179SAPS   H4R20452   4.134   0.501   3.041 -0.3730 -0.3600 -0.7299
  179SAPS   H4S20453   4.312   0.518   2.999  0.1197 -1.3739 -2.8442
  179SAPS   C2520454   4.260   0.394   3.172 -0.2216  0.0868  0.3815
  179SAPS   H5R20455   4.267   0.285   3.183 -0.5830 -0.1573 -1.4432
  179SAPS   C2620456   4.292   0.465   3.281  0.2441 -0.4755 -0.2883
  179SAPS   H6R20457   4.311   0.411   3.375  1.2128 -2.1627 -1.3921
  179SAPS   C2720458   4.279   0.611   3.300 -0.0443 -0.6307  0.0110
  179SAPS   H7R20459   4.250   0.652   3.200  1.4620  0.9266  0.1823
  179SAPS   H7S20460   4.370   0.669   3.325 -0.6108 -0.5925  2.1713
  179SAPS   C2820461   4.165   0.639   3.391 -0.3586 -0.4491 -0.4380
  179SAPS   H8R20462   4.065   0.608   3.356 -0.2751 -2.6675  1.0705
  179SAPS   C2920463   4.183   0.705   3.512  0.1763  0.4948  0.7765
  179SAPS   H9R20464   4.095   0.713   3.578  0.3735 -0.8117  1.2229
  179SAPS  C21020465   4.311   0.761   3.562  0.0284  1.1806 -0.2248
  179SAPS  H10R20466   4.299   0.845   3.634  0.2396 -0.7813  2.2064
  179SAPS  H10S20467   4.364   0.813   3.479  1.9282 -1.4528 -0.7724
  179SAPS  C21120468   4.399   0.645   3.615  0.7756 -0.3899 -0.2319
  179SAPS  H11R20469   4.467   0.598   3.541  1.1709  0.2568 -0.2856
  179SAPS  C21220470   4.419   0.609   3.741  0.0121  0.0879 -0.4061
  179SAPS  H12R20471   4.488   0.525   3.761  0.7488  0.8893  0.5514
  179SAPS  C21320472   4.383   0.680   3.869 -0.1780  0.3334 -0.4910
  179SAPS  H13R20473   4.413   0.787   3.862  3.1492 -0.4473  0.3848
  179SAPS  H13S20474   4.469   0.647   3.931  1.2349  1.0165 -2.0178
  179SAPS  C21420475   4.242   0.670   3.921 -1.2175 -0.1997 -0.4005
  179SAPS  H14R20476   4.171   0.624   3.850 -0.9734 -0.5779 -0.4048
  179SAPS  C21520477   4.191   0.705   4.038 -0.6169 -0.2001  0.2887
  179SAPS  H15R20478   4.087   0.676   4.057 -0.6933  0.0855  0.3202
  179SAPS  C21620479   4.264   0.782   4.148  0.0902 -0.5439 -0.0878
  179SAPS  H16R20480   4.364   0.817   4.114  1.0472 -0.1923  2.8166
  179SAPS  H16S20481   4.292   0.716   4.233  0.6283 -1.6525 -1.1001
  179SAPS  C21720482   4.181   0.908   4.177 -0.2011  0.5291 -0.6243
  179SAPS  H17R20483   4.171   0.976   4.089  0.6235 -0.2165 -1.3121
  179SAPS  H17S20484   4.239   0.973   4.246 -1.1327 -0.5548  1.2458
  179SAPS  C21820485   4.048   0.878   4.243 -0.5131 -0.2787 -0.3160
  179SAPS  H18R20486   3.993   0.787   4.210  0.2858 -0.8448 -0.1107
  179SAPS  H18S20487   3.983   0.964   4.217  0.3350  0.5521  0.2138
  179SAPS  C21920488   4.061   0.859   4.393 -0.0139  0.1818  0.5231
  179SAPS  H19R20489   4.125   0.936   4.441 -1.3603  1.9261 -0.3654
  179SAPS  H19S20490   4.115   0.763   4.408 -0.4285 -0.5340 -1.9604
  179SAPS  C22020491   3.930   0.857   4.463 -0.3184 -0.0804 -0.3322
  179SAPS  H20R20492   3.891   0.961   4.470 -0.1419 -0.0761  0.7073
  179SAPS  H20S20493   3.931   0.814   4.565 -1.8475 -1.2956 -0.7997
  179SAPS  H20T20494   3.853   0.798   4.410  0.2661  0.3260 -1.6762
  179SAPS   C3320495   4.685   0.794   3.076  1.0375  0.2747  0.4062
  179SAPS   H3X20496   4.729   0.868   3.006 -0.7704 -0.9936 -2.2717
  179SAPS   H3Y20497   4.708   0.695   3.030 -0.0231  1.1304 -2.1380
  179SAPS   C3420498   4.727   0.814   3.217 -0.8305  0.5373 -1.0770
  179SAPS   H4X20499   4.710   0.915   3.259 -1.8129 -0.3931  0.8676
  179SAPS   H4Y20500   4.836   0.796   3.221 -1.2317 -2.6798 -1.8935
  179SAPS   C3520501   4.659   0.720   3.324  0.0011 -0.2204  0.9665
  179SAPS   H5X20502   4.632   0.620   3.282  0.7841 -0.8074  1.8143
  179SAPS   H5Y20503   4.563   0.767   3.352  0.8305  1.5511  0.9578
  179SAPS   C3620504   4.744   0.693   3.443  0.4640  0.4018 -0.3271
  179SAPS   H6X20505   4.839   0.647   3.406  0.1858 -0.0503 -0.4854
  179SAPS   H6Y20506   4.689   0.618   3.504  2.4505  1.1259  2.5903
  179SAPS   C3720507   4.769   0.817   3.523 -0.4902 -0.3498  0.7850
  179SAPS   H7X20508   4.674   0.873   3.539 -1.3063 -0.7394 -1.9997
  179SAPS   H7Y20509   4.839   0.881   3.465 -3.2749  0.4251 -2.0006
  179SAPS   C3820510   4.846   0.795   3.655 -0.3402  0.1087 -0.3049
  179SAPS   H8X20511   4.884   0.890   3.697  1.1218  1.5341 -4.2946
  179SAPS   H8Y20512   4.945   0.745   3.641  0.0138  0.7093  0.0059
  179SAPS   C3920513   4.767   0.726   3.767 -0.0319  0.1955  0.2614
  179SAPS   H9X20514   4.737   0.623   3.738 -0.5908  0.2784  0.5259
  179SAPS   H9Y20515   4.670   0.780   3.774  1.1464  2.5302 -0.3473
  179SAPS  C31020516   4.845   0.708   3.900 -0.0049  0.6876  0.2360
  179SAPS  H10X20517   4.760   0.673   3.963 -1.4683 -1.5636 -2.7467
  179SAPS  H10Y20518   4.867   0.804   3.952 -0.0037  0.5428  0.5062
  179SAPS  C31120519   4.967   0.606   3.901  0.4568  0.6305 -0.3953
  179SAPS  H11X20520   5.047   0.638   3.831  1.7588 -0.5820  0.4943
  179SAPS  H11Y20521   4.922   0.513   3.861 -0.9355  1.6115 -1.2362
  179SAPS  C31220522   5.023   0.583   4.038  0.5077  0.6012 -0.6313
  179SAPS  H12X20523   5.062   0.676   4.085 -2.8384  0.6500  2.5060
  179SAPS  H12Y20524   5.102   0.506   4.018  0.4924  0.9808 -2.3188
  179SAPS  C31320525   4.939   0.501   4.137 -0.1091 -0.1231 -0.7776
  179SAPS  H13X20526   4.911   0.405   4.089 -0.0980 -0.8309  0.5831
  179SAPS  H13Y20527   4.846   0.560   4.156 -1.6537 -2.3233 -1.1722
  179SAPS  C31420528   5.009   0.472   4.272 -0.8728 -0.0219 -0.2494
  179SAPS  H14X20529   5.097   0.539   4.281 -0.7199 -0.1694 -0.6053
  179SAPS  H14Y20530   5.043   0.367   4.263 -1.8042 -0.1842 -2.5155
  179SAPS  C31520531   4.930   0.484   4.398 -0.3103 -0.7327 -0.3968
  179SAPS  H15X20532   4.871   0.577   4.415  1.0801  0.0998  0.0091
  179SAPS  H15Y20533   5.003   0.482   4.482 -0.4658  0.4819 -0.2141
  179SAPS  C31620534   4.830   0.374   4.431  0.0333  0.9312  0.2014
  179SAPS  H16X20535   4.882   0.283   4.469 -0.8707  0.3368  0.0729
  179SAPS  H16Y20536   4.786   0.340   4.335  0.6323 -2.8517  1.0796
  179SAPS  C31720537   4.724   0.408   4.537 -0.0032  0.3267 -0.2441
  179SAPS  H17X20538   4.672   0.503   4.513  0.4364  0.2532 -1.5860
  179SAPS  H17Y20539   4.780   0.424   4.631  0.9862  0.1754 -0.7862
  179SAPS  C31820540   4.627   0.290   4.538 -0.6383  0.0119  0.2951
  179SAPS  H18X20541   4.675   0.193   4.560 -0.4983  0.2795  1.1943
  179SAPS  H18Y20542   4.556   0.273   4.454 -0.1322 -0.2385 -0.0865
  179SAPS  H18Z20543   4.555   0.300   4.623 -1.0021 -0.0732  0.0029
  180SAPS     N20544   3.756   0.112   2.120  0.4992 -0.4117  0.6230
  180SAPS   HN120545   3.675   0.114   2.055  0.0491  0.7997  1.1876
  180SAPS   HN220546   3.741   0.177   2.200  0.4088 -1.8550  1.8190
  180SAPS   HN320547   3.843   0.141   2.070 -0.1123 -1.9428 -1.4245
  180SAPS   C1220548   3.769  -0.028   2.171  0.2245 -0.3109  0.3808
  180SAPS  H12A20549   3.675  -0.057   2.217 -0.6577 -1.4567 -1.9604
  180SAPS   C1320550   3.800  -0.136   2.065  0.1057  0.1280  0.7816
  180SAPS  O13A20551   3.809  -0.089   1.946 -0.0009 -0.3330  0.3510
  180SAPS  O13B20552   3.823  -0.258   2.093 -0.3406  0.0785  0.8885
  180SAPS   C1120553   3.880  -0.013   2.271  0.6796  0.1389 -0.1160
  180SAPS  H11A20554   3.972   0.021   2.219  1.8393  0.3288  1.9324
  180SAPS  H11B20555   3.914  -0.111   2.311  0.7677  0.3011  0.2190
  180SAPS     P20556   3.935   0.120   2.495  0.2014  0.1537  0.2585
  180SAPS   O1320557   4.052   0.194   2.435 -0.3165 -0.0390  0.6077
  180SAPS   O1420558   3.861   0.189   2.602 -0.3125 -0.1761 -0.1188
  180SAPS   O1220559   3.834   0.072   2.377  0.1115  0.1692 -0.6173
  180SAPS   O1120560   3.993  -0.016   2.552  0.3697 -0.1344 -0.7148
  180SAPS    C120561   3.895  -0.108   2.599  0.0642 -0.0218 -0.0087
  180SAPS    HA20562   3.793  -0.085   2.560  1.6993  2.0287 -3.5694
  180SAPS    HB20563   3.921  -0.209   2.561  1.9596  0.4912 -0.1544
  180SAPS    C220564   3.881  -0.108   2.753  0.0975 -0.5177 -0.2380
  180SAPS    HS20565   3.854  -0.001   2.766 -0.1856 -0.0610 -3.6454
  180SAPS   O2120566   4.004  -0.153   2.807  0.4158 -0.0216 -0.0525
  180SAPS   C2120567   4.065  -0.078   2.898 -0.3580 -0.2151 -0.6763
  180SAPS   O2220568   4.015   0.026   2.943  0.1519  0.1879  0.6404
  180SAPS   C2220569   4.194  -0.141   2.935 -0.5804 -0.0979 -0.4178
  180SAPS   H2R20570   4.179  -0.251   2.924  0.3985 -0.3974  1.0419
  180SAPS   H2S20571   4.279  -0.101   2.877 -0.9993  0.3761 -0.7169
  180SAPS    C320572   3.760  -0.191   2.802  0.4802  0.1693 -0.2479
  180SAPS    HX20573   3.777  -0.291   2.755 -4.4130  0.0301 -2.3375
  180SAPS    HY20574   3.662  -0.157   2.763  1.3271 -0.0099 -2.7253
  180SAPS   O3120575   3.770  -0.204   2.945  0.1014 -0.2739 -0.6793
  180SAPS   C3120576   3.727  -0.095   3.009  0.2559  0.2700 -0.2251
  180SAPS   O3220577   3.674   0.002   2.955  0.0034  0.4570 -0.3731
  180SAPS   C3220578   3.760  -0.101   3.162  0.2968 -0.0258  0.6469
  180SAPS   H2X20579   3.829  -0.021   3.196 -0.1028  0.0274  1.3468
  180SAPS   H2Y20580   3.803  -0.201   3.182 -1.7759 -0.8679  1.1648
  180SAPS   C2320581   4.225  -0.119   3.084 -0.4938 -0.1481 -0.3015
  180SAPS   H3R20582   4.150  -0.171   3.148 -1.6510 -0.8585 -2.1689
  180SAPS   H3S20583   4.233  -0.009   3.098  1.7625 -0.1889 -0.8892
  180SAPS   C2420584   4.364  -0.170   3.115  0.1846  0.3109 -0.4467
  180SAPS   H4R20585   4.390  -0.147   3.221 -0.6253 -0.2591 -0.1174
  180SAPS   H4S20586   4.435  -0.112   3.052 -0.5431 -1.9254 -3.5805
  180SAPS   C2520587   4.395  -0.309   3.071  0.2489 -0.5408 -0.0345
  180SAPS   H5R20588   4.385  -0.326   2.962 -0.8070 -1.4093  0.1750
  180SAPS   C2620589   4.426  -0.416   3.151  0.4772 -0.0483 -0.6039
  180SAPS   H6R20590   4.465  -0.506   3.102 -0.3078 -2.1845  2.4527
  180SAPS   C2720591   4.420  -0.420   3.300 -0.3239  0.4583  0.3039
  180SAPS   H7R20592   4.342  -0.494   3.328 -2.1229  2.3616  0.6463
  180SAPS   H7S20593   4.378  -0.325   3.340 -1.5670  0.1783 -0.2738
  180SAPS   C2820594   4.556  -0.454   3.358 -0.8191 -0.5294 -0.0623
  180SAPS   H8R20595   4.632  -0.483   3.283  0.3159  1.1374  0.3830
  180SAPS   C2920596   4.582  -0.458   3.492  0.2310  0.3419 -0.1120
  180SAPS   H9R20597   4.690  -0.465   3.513  0.1683 -0.1480  0.0454
  180SAPS  C21020598   4.494  -0.418   3.612  0.8698 -0.3200 -0.1058
  180SAPS  H10R20599   4.519  -0.320   3.658 -2.0144 -0.1230  1.3042
  180SAPS  H10S20600   4.529  -0.486   3.693  1.4111  0.2167  0.1145
  180SAPS  C21120601   4.344  -0.437   3.617  0.9569  0.9664  1.5650
  180SAPS  H11R20602   4.300  -0.524   3.566  0.5795  1.2740  1.3626
  180SAPS  C21220603   4.259  -0.363   3.691  0.1886  0.4852  0.7692
  180SAPS  H12R20604   4.153  -0.389   3.687  0.6810 -1.6435 -0.3115
  180SAPS  C21320605   4.298  -0.244   3.778 -0.4142 -0.0130 -0.0812
  180SAPS  H13R20606   4.321  -0.158   3.712 -2.5123 -0.3230 -1.3011
  180SAPS  H13S20607   4.391  -0.282   3.825 -0.1537 -0.0310 -0.6052
  180SAPS  C21420608   4.197  -0.203   3.885 -0.5518  0.0072 -0.1753
  180SAPS  H14R20609   4.093  -0.239   3.874 -0.7595  0.4639  0.2241
  180SAPS  C21520610   4.238  -0.115   3.975 -0.4850  0.5040 -0.2546
  180SAPS  H15R20611   4.172  -0.087   4.058 -0.3719 -0.5019  0.1959
  180SAPS  C21620612   4.375  -0.052   3.979  0.3593 -0.4820  0.4696
  180SAPS  H16R20613   4.460  -0.103   3.928 -0.2786 -0.9826 -0.1056
  180SAPS  H16S20614   4.411  -0.050   4.084  1.9068 -0.5673 -0.0319
  180SAPS  C21720615   4.348   0.103   3.963  0.3058 -0.5361 -0.0727
  180SAPS  H17R20616   4.280   0.137   4.045  0.6598 -1.8083  0.7845
  180SAPS  H17S20617   4.299   0.134   3.868  1.3029  0.3526 -0.3146
  180SAPS  C21820618   4.476   0.190   3.961  0.3294  0.2419 -0.2673
  180SAPS  H18R20619   4.537   0.170   3.870 -0.6473  0.2532 -0.9366
  180SAPS  H18S20620   4.531   0.157   4.051 -0.1010  0.4928  0.0865
  180SAPS  C21920621   4.439   0.339   3.980  0.2826 -0.1560 -0.5983
  180SAPS  H19R20622   4.351   0.358   3.915  0.1153 -0.4295 -0.4503
  180SAPS  H19S20623   4.515   0.409   3.940 -1.2273  3.3413  2.0716
  180SAPS  C22020624   4.401   0.377   4.122  0.3483 -0.1951  1.1576
  180SAPS  H20R20625   4.495   0.389   4.181  2.9164 -0.7039 -2.4954
  180SAPS  H20S20626   4.343   0.471   4.134 -0.7727 -0.7310  0.1353
  180SAPS  H20T20627   4.345   0.295   4.171 -1.1467  0.1668  0.1259
  180SAPS   C3320628   3.628  -0.098   3.248  0.8569 -0.3616 -0.1878
  180SAPS   H3X20629   3.565  -0.013   3.213  0.4013 -0.2505  0.8369
  180SAPS   H3Y20630   3.667  -0.076   3.350  0.2356 -0.8710  0.1666
  180SAPS   C3420631   3.548  -0.228   3.239  1.2141  0.6948 -0.2149
  180SAPS   H4X20632   3.616  -0.316   3.248  0.8235  0.3918 -0.1953
  180SAPS   H4Y20633   3.512  -0.241   3.135  1.5531 -0.2419 -0.2219
  180SAPS   C3520634   3.435  -0.245   3.339  0.0461  0.1661  0.5044
  180SAPS   H5X20635   3.363  -0.324   3.310  0.5295  0.3826 -1.3940
  180SAPS   H5Y20636   3.368  -0.155   3.340  0.2630  0.3357 -0.0311
  180SAPS   C3620637   3.488  -0.286   3.480  0.7495 -0.0815  0.1958
  180SAPS   H6X20638   3.556  -0.204   3.511 -0.4165  0.0595  2.6637
  180SAPS   H6Y20639   3.557  -0.372   3.477  2.5491  1.3185  0.0054
  180SAPS   C3720640   3.373  -0.305   3.585  0.1986  0.3082 -0.1515
  180SAPS   H7X20641   3.316  -0.394   3.554  1.7118 -1.0531  0.8052
  180SAPS   H7Y20642   3.305  -0.218   3.577  1.1770  1.1833  0.6096
  180SAPS   C3820643   3.420  -0.334   3.730  0.4378 -0.2844 -0.2980
  180SAPS   H8X20644   3.502  -0.267   3.764  0.5190 -0.0315 -0.9727
  180SAPS   H8Y20645   3.449  -0.441   3.728 -1.0706 -0.7417  0.7833
  180SAPS   C3920646   3.303  -0.320   3.836 -0.4616  0.5754  0.3837
  180SAPS   H9X20647   3.213  -0.367   3.792  0.6787 -1.3230 -0.0457
  180SAPS   H9Y20648   3.296  -0.213   3.865 -0.0776  0.8523 -0.5324
  180SAPS  C31020649   3.329  -0.388   3.967 -0.1391 -0.6051  0.1327
  180SAPS  H10X20650   3.437  -0.368   3.989  0.0049 -0.1331 -0.9489
  180SAPS  H10Y20651   3.316  -0.498   3.957  0.2943 -0.9348  2.5544
  180SAPS  C31120652   3.246  -0.333   4.094 -0.0453  0.0561  0.3453
  180SAPS  H11X20653   3.148  -0.384   4.087 -0.5811  1.2228 -1.6280
  180SAPS  H11Y20654   3.227  -0.224   4.092  3.0135  0.7155 -2.7854
  180SAPS  C31220655   3.328  -0.346   4.224  0.3211  0.1475  0.0609
  180SAPS  H12X20656   3.265  -0.306   4.306  0.2616  0.1840 -0.0026
  180SAPS  H12Y20657   3.417  -0.280   4.211 -0.3814  1.5030  1.7413
  180SAPS  C31320658   3.383  -0.480   4.272  0.0179 -0.0906  0.0514
  180SAPS  H13X20659   3.461  -0.521   4.203 -0.1113  0.3016 -0.3335
  180SAPS  H13Y20660   3.311  -0.563   4.281  1.1927 -1.0049  1.6098
  180SAPS  C31420661   3.437  -0.484   4.415  0.1794 -0.3971  0.1770
  180SAPS  H14X20662   3.351  -0.449   4.475  0.0067  0.8678 -0.7577
  180SAPS  H14Y20663   3.513  -0.403   4.421  0.0073 -0.2709  0.7194
  180SAPS  C31520664   3.511  -0.601   4.472  0.6609 -0.5062 -0.4569
  180SAPS  H15X20665   3.582  -0.662   4.412 -1.3892 -2.6487 -0.8583
  180SAPS  H15Y20666   3.437  -0.682   4.491  1.5454 -1.1690  0.2644
  180SAPS  C31620667   3.576  -0.582   4.611  0.7781 -1.1596  0.8797
  180SAPS  H16X20668   3.505  -0.530   4.679 -1.0923 -2.0593 -0.2991
  180SAPS  H16Y20669   3.658  -0.509   4.593 -0.8182  0.5626  0.3342
  180SAPS  C31720670   3.628  -0.712   4.675  0.1666 -0.4323  0.3769
  180SAPS  H17X20671   3.682  -0.769   4.596 -0.9789  0.5831 -1.1992
  180SAPS  H17Y20672   3.541  -0.768   4.715 -0.8112  1.0840  0.4652
  180SAPS  C31820673   3.723  -0.680   4.795  0.1798 -1.0375 -0.0187
  180SAPS  H18X20674   3.828  -0.667   4.761  0.2216 -0.0602  0.4501
  180SAPS  H18Y20675   3.712  -0.770   4.859 -2.2021 -1.3489 -0.7545
  180SAPS  H18Z20676   3.688  -0.596   4.858 -0.1035 -1.1958  0.0388
  181POPC     N20677   1.229   0.515   7.092  0.9342 -0.7890 -0.1760
  181POPC   C1220678   1.267   0.592   6.962 -0.8587  0.0152  0.1352
  181POPC  H12A20679   1.279   0.699   6.977  0.4393  0.0720 -1.0872
  181POPC  H12B20680   1.183   0.596   6.896 -0.4925  1.5459 -0.2799
  181POPC   C1320681   1.103   0.581   7.145  0.3320 -0.1138 -0.3211
  181POPC  H13A20682   1.117   0.681   7.183  2.3324  0.2693 -1.9247
  181POPC  H13B20683   1.032   0.599   7.066  1.2619 -1.1339 -1.4245
  181POPC  H13C20684   1.051   0.525   7.222  0.4533  0.5044  0.2223
  181POPC   C1420685   1.200   0.367   7.059 -0.0200 -0.1483 -0.1715
  181POPC  H14A20686   1.286   0.319   7.015  0.1002 -0.3505  0.2806
  181POPC  H14B20687   1.158   0.314   7.143  1.4127 -0.6897  0.2339
  181POPC  H14C20688   1.126   0.375   6.980 -0.2899 -2.1508 -0.1947
  181POPC   C1520689   1.336   0.525   7.187 -0.2127  0.0692  0.2473
  181POPC  H15A20690   1.324   0.457   7.270 -4.1282 -0.1531 -0.2999
  181POPC  H15B20691   1.351   0.623   7.232 -0.6984  0.6722 -0.8653
  181POPC  H15C20692   1.432   0.510   7.138 -1.1256 -0.0160 -1.6092
  181POPC   C1120693   1.390   0.548   6.876 -1.0041  0.3571  0.1030
  181POPC  H11A20694   1.395   0.587   6.772 -0.9234  2.8052  0.9386
  181POPC  H11B20695   1.376   0.441   6.851 -0.3462  0.1008  0.7951
  181POPC     P20696   1.586   0.706   6.904  0.2852 -0.0889  0.2863
  181POPC   O1320697   1.696   0.717   6.990  0.0405  0.1764  0.3886
  181POPC   O1420698   1.490   0.815   6.895  0.7902  0.3915  0.0928
  181POPC   O1220699   1.517   0.573   6.944  0.3596  0.0800 -0.1024
  181POPC   O1120700   1.637   0.687   6.753  0.0432  0.2902  0.1580
  181POPC    C120701   1.721   0.566   6.732  0.2831  0.3685  0.2018
  181POPC    HA20702   1.654   0.478   6.744 -0.3482  0.9013  0.6898
  181POPC    HB20703   1.808   0.565   6.801  1.1085  1.9446 -0.7517
  181POPC    C220704   1.778   0.554   6.584  0.3111 -0.0581 -0.6648
  181POPC    HS20705   1.869   0.617   6.582  1.6048 -1.7012  1.8363
  181POPC   O2120706   1.677   0.587   6.484  0.4515 -0.0802  0.4679
  181POPC   C2120707   1.672   0.716   6.455 -0.3287 -0.1002  0.0642
  181POPC   O2220708   1.760   0.793   6.475  0.1719  0.1591  0.2835
  181POPC   C2220709   1.537   0.750   6.391 -0.1060  0.5183 -0.0095
  181POPC   H2R20710   1.468   0.796   6.465 -1.5892  0.0258 -1.0116
  181POPC   H2S20711   1.474   0.668   6.348  0.2377  0.5071 -0.4937
  181POPC    C320712   1.834   0.410   6.555  0.1951  0.1808  0.9765
  181POPC    HX20713   1.757   0.347   6.605  0.5404 -0.2814  0.9345
  181POPC    HY20714   1.924   0.385   6.616 -0.4568 -0.0820  1.8599
  181POPC   O3120715   1.848   0.378   6.421  0.0298  0.6256 -0.4405
  181POPC   C3120716   1.932   0.451   6.349  0.7229 -0.2317 -0.1201
  181POPC   O3220717   2.004   0.540   6.393 -0.0177  0.0045  0.5974
  181POPC   C3220718   1.914   0.410   6.202  0.3739 -0.0257  0.0533
  181POPC   H2X20719   1.851   0.490   6.157  1.1352  0.2535 -0.5312
  181POPC   H2Y20720   1.849   0.320   6.212 -1.8687  1.6217  1.0137
  181POPC   C2320721   1.551   0.852   6.272  0.0109  0.2504 -0.0261
  181POPC   H3R20722   1.632   0.926   6.293  1.0710 -0.8232 -0.1760
  181POPC   H3S20723   1.466   0.918   6.245 -1.8833 -1.1624  2.1362
  181POPC   C2420724   1.599   0.789   6.149  0.4877  0.0089 -0.2702
  181POPC   H4R20725   1.520   0.732   6.095  0.8976 -0.9414  0.1284
  181POPC   H4S20726   1.689   0.727   6.166  1.0038  0.8461  0.1045
  181POPC   C2520727   1.630   0.899   6.044  0.1674 -0.1423  0.2386
  181POPC   H5R20728   1.699   0.975   6.087  1.2984 -0.6172 -0.6875
  181POPC   H5S20729   1.541   0.959   6.017  1.6799  2.4342  0.6501
  181POPC   C2620730   1.687   0.852   5.912 -0.1471 -0.2657 -0.5326
  181POPC   H6R20731   1.660   0.922   5.829 -2.5902 -1.7614 -1.0926
  181POPC   H6S20732   1.627   0.765   5.881 -1.2113 -0.2918  1.4552
  181POPC   C2720733   1.835   0.821   5.891 -0.1273  0.9092 -0.0024
  181POPC   H7R20734   1.862   0.733   5.953 -0.5513 -0.3208 -1.4979
  181POPC   H7S20735   1.899   0.907   5.919 -1.1502  1.4644  0.7495
  181POPC   C2820736   1.866   0.786   5.741  0.5077 -0.8949 -0.0247
  181POPC   H8R20737   1.974   0.761   5.735  0.7337 -0.6016  1.9675
  181POPC   H8S20738   1.853   0.875   5.676  0.5424 -0.4025  0.6224
  181POPC   C2920739   1.794   0.669   5.682 -0.4392  0.6218 -0.8694
  181POPC   H9120740   1.781   0.594   5.762 -0.0210  1.5384  0.0741
  181POPC  C21020741   1.777   0.650   5.545 -0.5222 -0.6009 -0.4153
  181POPC  H10120742   1.703   0.575   5.515 -0.2016 -0.5424 -1.3660
  181POPC  C21120743   1.828   0.739   5.439  0.3740  0.4880  0.1862
  181POPC  H11R20744   1.935   0.760   5.463  0.6735 -1.3594  0.6538
  181POPC  H11S20745   1.770   0.832   5.423 -0.1008 -0.0637 -1.4902
  181POPC  C21220746   1.833   0.664   5.299  0.7532 -0.4069  0.0482
  181POPC  H12R20747   1.725   0.648   5.277 -0.0890  2.4884  1.5353
  181POPC  H12S20748   1.896   0.573   5.289  0.6170 -0.4728 -0.2537
  181POPC  C21320749   1.872   0.748   5.179  0.2169 -0.3068  0.4016
  181POPC  H13R20750   1.971   0.794   5.195  0.7366 -1.6693  1.2726
  181POPC  H13S20751   1.803   0.835   5.174  2.5228  1.5923 -0.1812
  181POPC  C21420752   1.885   0.670   5.044 -0.5402  0.0732  0.1675
  181POPC  H14R20753   1.783   0.642   5.012  0.0022  0.2267 -1.8444
  181POPC  H14S20754   1.934   0.571   5.052  1.9452  1.1493 -0.5875
  181POPC  C21520755   1.938   0.747   4.919 -0.3878 -0.4364 -0.4020
  181POPC  H15R20756   1.883   0.843   4.918 -0.0296 -0.2319 -0.5593
  181POPC  H15S20757   1.904   0.700   4.824  2.0985  0.5906 -1.8978
  181POPC  C21620758   2.092   0.756   4.910  0.3639 -0.1990 -0.0362
  181POPC  H16R20759   2.140   0.657   4.895  0.7807  0.2911 -2.3625
  181POPC  H16S20760   2.144   0.782   5.004 -3.9632 -0.0817  2.6041
  181POPC  C21720761   2.133   0.839   4.790  0.3372 -0.2650  0.2256
  181POPC  H17R20762   2.243   0.852   4.800  0.4630  1.0802 -2.1382
  181POPC  H17S20763   2.086   0.939   4.798 -0.2377 -0.6119  1.3303
  181POPC  C21820764   2.109   0.786   4.652 -0.4874  0.7173 -0.6053
  181POPC  H18R20765   2.011   0.831   4.624 -0.2760  1.1531 -0.6484
  181POPC  H18S20766   2.116   0.675   4.660 -0.5051  0.5217 -2.7760
  181POPC  H18T20767   2.179   0.826   4.577 -1.6214  0.7426 -1.6865
  181POPC   C3320768   2.041   0.389   6.124  0.2861 -0.0253 -0.1015
  181POPC   H3X20769   2.009   0.339   6.030 -0.4000  0.2441 -0.0199
  181POPC   H3Y20770   2.107   0.324   6.185  0.2445  1.0744  1.1596
  181POPC   C3420771   2.111   0.514   6.081  0.0618  0.1392 -0.1884
  181POPC   H4X20772   2.154   0.555   6.175 -1.0223  0.0237  0.3752
  181POPC   H4Y20773   2.034   0.583   6.039  0.0320  0.5283  0.4855
  181POPC   C3520774   2.224   0.490   5.982 -0.1258  0.2172  0.2174
  181POPC   H5X20775   2.301   0.427   6.033 -1.2576 -0.6754  0.8925
  181POPC   H5Y20776   2.269   0.589   5.962  2.0188 -0.8993 -0.8840
  181POPC   C3620777   2.186   0.439   5.843 -0.0286  0.6033 -0.1032
  181POPC   H6X20778   2.077   0.448   5.829  0.0083  2.1715  0.4750
  181POPC   H6Y20779   2.202   0.329   5.839  0.9451  0.7037  0.5774
  181POPC   C3720780   2.260   0.511   5.727 -0.0340 -0.1827 -0.2496
  181POPC   H7X20781   2.369   0.495   5.745 -0.5350  0.0192  3.6115
  181POPC   H7Y20782   2.239   0.620   5.738 -1.5666 -0.3510 -1.2936
  181POPC   C3820783   2.223   0.461   5.584 -0.1024 -0.0576  0.1837
  181POPC   H8X20784   2.122   0.500   5.557 -0.0419 -0.0367 -0.0166
  181POPC   H8Y20785   2.223   0.350   5.595 -1.4750 -0.0149  0.8054
  181POPC   C3920786   2.317   0.503   5.478  0.0623 -0.2517 -0.2162
  181POPC   H9X20787   2.417   0.524   5.521 -0.3961  0.7729  0.3642
  181POPC   H9Y20788   2.301   0.601   5.429  1.0830  0.2050  0.3404
  181POPC  C31020789   2.319   0.402   5.362 -0.4305 -0.3315 -0.1446
  181POPC  H10X20790   2.357   0.306   5.402 -2.9115 -1.5054 -0.4123
  181POPC  H10Y20791   2.396   0.440   5.291  1.1608  0.4907  1.9278
  181POPC  C31120792   2.185   0.374   5.294  0.2840  0.4013 -0.0312
  181POPC  H11X20793   2.148   0.471   5.254  0.0878  0.9433  1.3812
  181POPC  H11Y20794   2.114   0.337   5.372  0.2782  0.9429  0.2306
  181POPC  C31220795   2.186   0.255   5.193 -0.4717  0.4088  0.8238
  181POPC  H12X20796   2.080   0.251   5.160 -0.4823  1.6575  0.6713
  181POPC  H12Y20797   2.217   0.165   5.251 -0.1087  0.8927  1.4001
  181POPC  C31320798   2.280   0.287   5.071 -0.0902  0.5011 -0.3112
  181POPC  H13X20799   2.381   0.282   5.116 -1.1789 -2.0710  2.2094
  181POPC  H13Y20800   2.260   0.384   5.021  0.3707 -0.4954 -2.5772
  181POPC  C31420801   2.265   0.182   4.964  0.3209 -0.2254 -0.1565
  181POPC  H14X20802   2.266   0.086   5.019 -1.1632  0.1006  0.4778
  181POPC  H14Y20803   2.356   0.186   4.900 -0.2794 -2.2015 -1.2225
  181POPC  C31520804   2.140   0.182   4.883  0.0301  0.0222  0.7104
  181POPC  H15X20805   2.116   0.282   4.841 -1.4225  0.7864  3.1500
  181POPC  H15Y20806   2.053   0.155   4.947  1.3560 -0.7120  2.2746
  181POPC  C31620807   2.146   0.078   4.767  0.8891 -0.2699  0.1235
  181POPC  H16X20808   2.045   0.038   4.743  1.6620 -0.6169 -2.9045
  181POPC  H16Y20809   2.211  -0.010   4.787 -0.3752 -1.6448 -1.4801
  181POPC  H16Z20810   2.188   0.135   4.682 -0.4161 -0.4497 -0.6808
  182POPC     N20811   0.385   6.230   6.896 -0.3371 -0.3847  0.2371
  182POPC   C1220812   0.309   6.119   6.830  0.5171  0.4342  0.0436
  182POPC  H12A20813   0.321   6.027   6.885 -1.6184 -0.3503 -0.7106
  182POPC  H12B20814   0.345   6.092   6.732 -1.3635 -0.8829 -0.3249
  182POPC   C1320815   0.335   6.237   7.040 -1.1133  0.5832  0.0194
  182POPC  H13A20816   0.233   6.271   7.047 -1.7302 -1.1669 -0.1293
  182POPC  H13B20817   0.337   6.136   7.077  0.6180  0.0149 -1.4894
  182POPC  H13C20818   0.395   6.306   7.098  0.2422  2.0391 -2.8989
  182POPC   C1420819   0.535   6.203   6.887 -0.0342 -0.3838 -0.0461
  182POPC  H14A20820   0.564   6.197   6.783 -0.7019  2.7587 -0.5312
  182POPC  H14B20821   0.595   6.279   6.934  1.2646 -1.4975  0.1575
  182POPC  H14C20822   0.554   6.105   6.926  0.6002 -0.4451 -0.5012
  182POPC   C1520823   0.344   6.368   6.844 -0.4997 -0.1056  0.2850
  182POPC  H15A20824   0.374   6.375   6.741 -2.9103  0.9206 -0.4043
  182POPC  H15B20825   0.398   6.445   6.898 -1.8011  0.9956  0.0560
  182POPC  H15C20826   0.242   6.400   6.854 -0.1923  0.7454  0.8507
  182POPC   C1120827   0.158   6.146   6.807  0.0064  0.4192  0.2243
  182POPC  H11A20828   0.129   6.044   6.776  0.6771  0.3870 -0.3307
  182POPC  H11B20829   0.141   6.218   6.724 -3.6901  1.3533  1.6037
  182POPC     P20830  -0.065   6.181   6.927 -0.3143 -0.0917  0.1265
  182POPC   O1320831  -0.118   6.252   7.046 -0.2979 -0.0842 -0.5673
  182POPC   O1420832  -0.110   6.043   6.911  0.1020  0.4585  0.9479
  182POPC   O1220833   0.094   6.189   6.927 -0.5861 -0.6166  0.6476
  182POPC   O1120834  -0.111   6.267   6.799  0.3893  0.1469 -0.4030
  182POPC    C120835  -0.099   6.411   6.788  0.0860  0.1327  0.2375
  182POPC    HA20836  -0.018   6.442   6.857  0.9782  1.8000 -1.4548
  182POPC    HB20837  -0.193   6.459   6.822  0.2951  0.8715 -0.2026
  182POPC    C220838  -0.058   6.466   6.644  0.5624  0.2643  0.4048
  182POPC    HS20839   0.026   6.407   6.602  0.8142  0.7276  0.2412
  182POPC   O2120840  -0.032   6.608   6.655  0.0899 -0.4526  0.4924
  182POPC   C2120841   0.097   6.637   6.652 -0.6083  0.2445 -0.3452
  182POPC   O2220842   0.188   6.556   6.646  0.7924 -0.4409 -0.0167
  182POPC   C2220843   0.126   6.787   6.665  0.0972 -0.1936 -0.1651
  182POPC   H2R20844   0.183   6.813   6.756  0.2316  1.1963 -0.6184
  182POPC   H2S20845   0.041   6.853   6.694  1.4855  0.7376  1.9873
  182POPC    C320846  -0.176   6.442   6.549 -0.3929 -0.7013 -0.8347
  182POPC    HX20847  -0.260   6.510   6.577  0.7827  0.9494 -1.2297
  182POPC    HY20848  -0.211   6.337   6.562  1.8596 -1.1939  2.3826
  182POPC   O3120849  -0.138   6.465   6.412  0.2619  0.0685 -0.6522
  182POPC   C3120850  -0.235   6.484   6.334 -0.2039 -0.0890  0.2080
  182POPC   O3220851  -0.351   6.447   6.351  0.5349  0.4810 -0.2786
  182POPC   C3220852  -0.186   6.578   6.222 -0.8258  0.0451  0.0819
  182POPC   H2X20853  -0.075   6.583   6.218 -0.8140 -0.7030 -1.0993
  182POPC   H2Y20854  -0.222   6.682   6.238 -0.0492  0.3440 -0.0708
  182POPC   C2320855   0.193   6.847   6.540 -0.4205 -0.0949  0.0036
  182POPC   H3R20856   0.255   6.774   6.485  0.0135 -0.3533  0.8269
  182POPC   H3S20857   0.246   6.943   6.558 -0.7614  0.0806  0.1044
  182POPC   C2420858   0.084   6.882   6.426 -0.8671  0.7263 -0.3796
  182POPC   H4R20859   0.002   6.948   6.461 -0.7215  0.0695  1.2549
  182POPC   H4S20860   0.038   6.782   6.411  1.4478 -1.3111  4.2341
  182POPC   C2520861   0.152   6.933   6.299  0.2696 -0.0751  0.3781
  182POPC   H5R20862   0.247   6.878   6.286  1.4034  1.9563 -0.1720
  182POPC   H5S20863   0.183   7.038   6.311  2.3073 -0.6452  0.3562
  182POPC   C2620864   0.058   6.930   6.174  0.2021  0.3392 -0.1636
  182POPC   H6R20865  -0.038   6.977   6.203  0.9634 -0.0922  3.5240
  182POPC   H6S20866   0.037   6.823   6.156 -0.9347  0.2530  1.4824
  182POPC   C2720867   0.118   7.002   6.049  0.8882  0.6447  0.4683
  182POPC   H7R20868   0.217   6.966   6.016 -0.4336 -0.5157 -2.6071
  182POPC   H7S20869   0.130   7.107   6.082  0.0018 -0.0229  3.2060
  182POPC   C2820870   0.016   6.997   5.933 -0.0338 -0.3442 -0.9095
  182POPC   H8R20871  -0.042   7.089   5.955  2.1040  1.1368 -1.1973
  182POPC   H8S20872  -0.054   6.914   5.958  0.9319 -0.4577  1.7168
  182POPC   C2920873   0.084   6.993   5.802 -0.7084  0.6356 -0.0205
  182POPC   H9120874   0.174   6.930   5.796 -0.0217  1.5812  0.1739
  182POPC  C21020875   0.048   7.051   5.684 -1.2224  0.3942  0.1923
  182POPC  H10120876   0.097   7.022   5.590 -1.8841  0.9197 -0.3276
  182POPC  C21120877  -0.064   7.142   5.660  0.4635 -0.6756 -0.7329
  182POPC  H11R20878  -0.033   7.241   5.620  0.2947 -0.2076  0.2566
  182POPC  H11S20879  -0.111   7.151   5.761  1.6124  2.7546 -0.3749
  182POPC  C21220880  -0.168   7.083   5.575  0.6188  0.3806  0.0482
  182POPC  H12R20881  -0.247   7.157   5.547  1.0050  0.1301 -1.8756
  182POPC  H12S20882  -0.225   6.999   5.619  1.1000 -1.4617 -2.5627
  182POPC  C21320883  -0.123   7.028   5.441  0.9401  0.2587  0.3477
  182POPC  H13R20884  -0.209   6.975   5.395  1.0995  0.8999 -0.7385
  182POPC  H13S20885  -0.037   6.959   5.455  0.9527  0.6032  2.3155
  182POPC  C21420886  -0.082   7.124   5.329 -0.0040 -0.1843  0.1589
  182POPC  H14R20887   0.014   7.173   5.355  0.8396 -1.5349 -0.2939
  182POPC  H14S20888  -0.160   7.201   5.310 -0.8141 -0.6849  1.2998
  182POPC  C21520889  -0.061   7.045   5.194  0.6763  0.3060  0.1730
  182POPC  H15R20890  -0.164   7.014   5.164  0.4222  1.1534  0.1374
  182POPC  H15S20891  -0.001   6.953   5.208 -0.5999 -0.8515 -1.5501
  182POPC  C21620892   0.017   7.120   5.089 -0.6683  0.1347  0.7884
  182POPC  H16R20893   0.114   7.143   5.140  2.2177 -2.1322 -3.1118
  182POPC  H16S20894  -0.046   7.206   5.057  0.0562 -0.2099 -1.7947
  182POPC  C21720895   0.049   7.027   4.974  0.3394  0.2901  0.2532
  182POPC  H17R20896  -0.051   6.985   4.947  0.2885 -0.5648  1.6987
  182POPC  H17S20897   0.107   6.939   5.007  0.9991 -0.8346 -3.3838
  182POPC  C21820898   0.115   7.094   4.849  0.4812 -0.7453  0.4312
  182POPC  H18R20899   0.211   7.142   4.880  1.1658  0.1041 -2.6878
  182POPC  H18S20900   0.052   7.175   4.808  2.1288 -0.2465 -1.2878
  182POPC  H18T20901   0.129   7.019   4.768  0.3667  0.9725 -1.2572
  182POPC   C3320902  -0.225   6.543   6.070  0.5397  0.3608  0.0215
  182POPC   H3X20903  -0.335   6.537   6.061  0.7169  0.5388 -3.3716
  182POPC   H3Y20904  -0.185   6.442   6.046  1.8542  0.7852  0.3275
  182POPC   C3420905  -0.172   6.641   5.969 -0.6156  0.3187  0.1436
  182POPC   H4X20906  -0.062   6.630   5.981 -0.7423 -0.0604  0.9958
  182POPC   H4Y20907  -0.198   6.747   5.986 -0.6932  0.0081  2.2134
  182POPC   C3520908  -0.210   6.603   5.823 -0.1964 -0.0416 -0.6675
  182POPC   H5X20909  -0.320   6.615   5.817 -0.4790 -1.5859  0.8219
  182POPC   H5Y20910  -0.211   6.492   5.815 -0.2529  0.0072 -1.3772
  182POPC   C3620911  -0.148   6.678   5.704  0.7833  0.2734 -0.5033
  182POPC   H6X20912  -0.041   6.703   5.716  0.0843  3.2298  0.3684
  182POPC   H6Y20913  -0.195   6.778   5.701 -1.3904 -0.6166  1.2728
  182POPC   C3720914  -0.168   6.601   5.578  0.0289  0.1242 -0.0849
  182POPC   H7X20915  -0.272   6.563   5.582  0.0876  0.0677  1.4657
  182POPC   H7Y20916  -0.097   6.516   5.582 -0.9311 -0.6340  1.6035
  182POPC   C3820917  -0.146   6.680   5.452 -0.2464  0.3011  0.5658
  182POPC   H8X20918  -0.039   6.709   5.456 -0.1841  0.3118 -0.8276
  182POPC   H8Y20919  -0.208   6.773   5.447  0.3638  0.6565 -2.2832
  182POPC   C3920920  -0.180   6.605   5.322 -0.5291  0.8084  0.6716
  182POPC   H9X20921  -0.153   6.498   5.328  1.0555  0.8029 -3.3280
  182POPC   H9Y20922  -0.105   6.649   5.252  1.5144  0.2198  2.4059
  182POPC  C31020923  -0.330   6.630   5.291 -0.0235  0.1619  0.1084
  182POPC  H10X20924  -0.385   6.637   5.387 -0.1473  1.2015 -0.0224
  182POPC  H10Y20925  -0.371   6.538   5.246 -1.4762 -0.4009  2.4432
  182POPC  C31120926  -0.351   6.757   5.206 -0.4517 -0.2763 -0.2352
  182POPC  H11X20927  -0.317   6.848   5.259 -0.5879  0.3704 -1.2276
  182POPC  H11Y20928  -0.461   6.767   5.189 -1.6119 -0.1340  5.3855
  182POPC  C31220929  -0.299   6.741   5.062  0.2524  0.2273  0.6568
  182POPC  H12X20930  -0.360   6.659   5.018 -0.6157  0.9312  0.5244
  182POPC  H12Y20931  -0.189   6.722   5.056  0.5425  1.4340  1.7768
  182POPC  C31320932  -0.312   6.859   4.959 -0.5412  0.0929 -0.4677
  182POPC  H13X20933  -0.248   6.949   4.972 -2.8667  1.9666 -1.0601
  182POPC  H13Y20934  -0.414   6.899   4.980  0.0790  0.9970  0.9912
  182POPC  C31420935  -0.310   6.824   4.810  0.0874  0.6932  0.3939
  182POPC  H14X20936  -0.373   6.737   4.782  0.3022  1.0706 -1.3773
  182POPC  H14Y20937  -0.209   6.796   4.774 -0.2771 -0.8758  0.5471
  182POPC  C31520938  -0.361   6.938   4.719  0.7539 -1.0253  0.1458
  182POPC  H15X20939  -0.290   7.022   4.727  1.0731 -1.3617  1.0080
  182POPC  H15Y20940  -0.463   6.965   4.754  0.2637 -0.2611 -1.7600
  182POPC  C31620941  -0.379   6.893   4.574  0.1692  0.8313 -0.0082
  182POPC  H16X20942  -0.287   6.881   4.513  0.7702  0.5503  0.9282
  182POPC  H16Y20943  -0.439   6.966   4.516 -0.3638 -1.8364 -3.1360
  182POPC  H16Z20944  -0.439   6.801   4.557  1.8727  0.0408 -2.1901
  183POPC     N20945   1.046   4.290   7.083  0.6551  0.3966 -0.6975
  183POPC   C1220946   1.061   4.412   7.177  0.2099  0.0012 -0.0067
  183POPC  H12A20947   1.005   4.497   7.141 -0.5921 -0.3891  0.3025
  183POPC  H12B20948   1.156   4.463   7.175 -0.2083  0.7690 -0.4999
  183POPC   C1320949   1.144   4.182   7.128  0.4826 -0.1386 -0.4190
  183POPC  H13A20950   1.102   4.133   7.214  0.4843  0.2765 -0.1763
  183POPC  H13B20951   1.151   4.113   7.046 -1.3590 -0.8537 -0.0175
  183POPC  H13C20952   1.240   4.230   7.143 -0.2815  0.7135  2.3768
  183POPC   C1420953   0.911   4.228   7.088 -0.2787 -0.4829 -0.1497
  183POPC  H14A20954   0.844   4.308   7.062  0.7711  0.5517  0.2451
  183POPC  H14B20955   0.894   4.146   7.020  0.9142 -0.2832 -0.7295
  183POPC  H14C20956   0.886   4.193   7.187  3.0284 -0.6964  0.7577
  183POPC   C1520957   1.083   4.332   6.943  0.3482  0.1341 -0.5114
  183POPC  H15A20958   1.185   4.367   6.939  0.2408  0.3717 -1.2764
  183POPC  H15B20959   1.024   4.415   6.907  0.1821  0.0195 -0.5088
  183POPC  H15C20960   1.087   4.251   6.872  0.6961  0.3216 -0.7046
  183POPC   C1120961   1.009   4.391   7.317  0.5188  0.4836  0.0156
  183POPC  H11A20962   1.056   4.477   7.369  1.7724  1.9367 -3.2099
  183POPC  H11B20963   1.042   4.292   7.356 -0.9182 -0.4765 -1.0915
  183POPC     P20964   0.778   4.511   7.291  0.0505 -0.2461 -0.4290
  183POPC   O1320965   0.852   4.632   7.269 -0.4433  0.5505 -0.4611
  183POPC   O1420966   0.669   4.516   7.395 -0.3485 -0.2478 -0.0526
  183POPC   O1220967   0.871   4.406   7.349  0.1318 -0.3219 -0.5325
  183POPC   O1120968   0.725   4.448   7.155 -0.2072 -0.3651 -0.4351
  183POPC    C120969   0.584   4.429   7.140  0.2005  0.2601  0.9474
  183POPC    HA20970   0.530   4.511   7.088 -1.3982 -1.7299 -0.7042
  183POPC    HB20971   0.534   4.405   7.236 -1.7848 -1.2755 -0.3940
  183POPC    C220972   0.553   4.314   7.040  0.3402 -0.2811  0.2661
  183POPC    HS20973   0.607   4.222   7.073  1.5606 -0.0710 -1.0342
  183POPC   O2120974   0.589   4.346   6.909  0.2216 -0.2879  0.0810
  183POPC   C2120975   0.647   4.258   6.842  0.3229 -0.4488  0.7938
  183POPC   O2220976   0.687   4.147   6.877  0.4816  0.4176  0.0813
  183POPC   C2220977   0.662   4.308   6.703 -0.3725  0.1513  0.3647
  183POPC   H2R20978   0.671   4.418   6.692  2.3292  0.1764  2.1056
  183POPC   H2S20979   0.575   4.273   6.643 -0.4566 -0.8200  1.0252
  183POPC    C320980   0.403   4.283   7.029  0.2036 -0.3685  0.2464
  183POPC    HX20981   0.366   4.374   6.977  1.3308  0.2713  0.5244
  183POPC    HY20982   0.359   4.266   7.129  1.1674  0.2817  0.7955
  183POPC   O3120983   0.390   4.168   6.947  0.6711 -0.9735 -0.2223
  183POPC   C3120984   0.268   4.110   6.949 -0.0719  0.0298 -0.4839
  183POPC   O3220985   0.177   4.157   7.020 -0.0626 -0.2231 -0.4694
  183POPC   C3220986   0.256   3.991   6.858 -1.0413 -0.3545 -0.0271
  183POPC   H2X20987   0.171   3.932   6.899  0.8614 -1.7868  2.0953
  183POPC   H2Y20988   0.349   3.933   6.874 -0.1079  1.3942  1.2557
  183POPC   C2320989   0.793   4.251   6.648 -0.4759 -0.4795 -0.0663
  183POPC   H3R20990   0.794   4.140   6.647 -0.4860 -0.4735 -0.8699
  183POPC   H3S20991   0.876   4.274   6.719 -0.4604  0.1149 -0.2707
  183POPC   C2420992   0.829   4.293   6.503  0.3447  0.1560 -0.8933
  183POPC   H4R20993   0.823   4.404   6.503 -1.3364  0.0990 -2.4322
  183POPC   H4S20994   0.750   4.256   6.435 -0.7026 -0.9613  0.8732
  183POPC   C2520995   0.967   4.247   6.454 -0.3918  0.2814  0.7198
  183POPC   H5R20996   0.969   4.136   6.460  0.0507  0.3161  1.3008
  183POPC   H5S20997   1.047   4.285   6.521 -1.2259  0.8305  1.4255
  183POPC   C2620998   1.000   4.290   6.304  0.3618 -0.2002 -0.5772
  183POPC   H6R20999   1.086   4.238   6.257 -0.6855  0.4123 -3.3502
  183POPC   H6S21000   1.027   4.398   6.297 -1.3506  0.2427 -0.7741
  183POPC   C2721001   0.884   4.275   6.203 -0.5855  0.1690  0.0747
  183POPC   H7R21002   0.802   4.349   6.220 -2.0936 -1.8847  2.6149
  183POPC   H7S21003   0.833   4.177   6.212  0.1741 -0.1394  1.2207
  183POPC   C2821004   0.946   4.292   6.058  0.1661  0.0849 -0.2072
  183POPC   H8R21005   0.873   4.274   5.976  0.8843  0.0104 -0.8447
  183POPC   H8S21006   1.018   4.209   6.044  1.2068  0.9328 -0.0068
  183POPC   C2921007   1.020   4.422   6.041 -0.3134 -0.2948  0.3185
  183POPC   H9121008   1.115   4.415   6.095 -1.0638 -0.8633  1.6264
  183POPC  C21021009   0.987   4.527   5.971  0.1444 -1.0965  0.1554
  183POPC  H10121010   1.060   4.609   5.965 -0.4314 -0.5699  0.2789
  183POPC  C21121011   0.865   4.560   5.895 -0.2483 -0.5533 -0.1070
  183POPC  H11R21012   0.852   4.670   5.907  0.6514 -0.3697 -0.7568
  183POPC  H11S21013   0.765   4.526   5.930 -1.1083  0.8054 -1.1268
  183POPC  C21221014   0.872   4.552   5.738  0.0226 -0.0419 -0.5089
  183POPC  H12R21015   0.975   4.590   5.719 -0.6543  1.8199 -0.6182
  183POPC  H12S21016   0.790   4.614   5.697 -1.9856 -1.9405  0.4176
  183POPC  C21321017   0.856   4.410   5.681  0.8340 -1.0412 -0.4525
  183POPC  H13R21018   0.755   4.369   5.701  0.9991 -1.2842 -0.1112
  183POPC  H13S21019   0.915   4.342   5.746  0.7122 -0.5552  0.1754
  183POPC  C21421020   0.917   4.390   5.545  0.2562 -0.0388  0.4550
  183POPC  H14R21021   0.896   4.286   5.509  0.5486  0.5066 -1.3874
  183POPC  H14S21022   1.027   4.402   5.549  0.2569  0.8628 -1.4126
  183POPC  C21521023   0.880   4.489   5.439  0.1060 -0.2527  0.0823
  183POPC  H15R21024   0.921   4.590   5.460  1.9090 -0.7837 -0.7268
  183POPC  H15S21025   0.770   4.496   5.420  0.0671 -2.0160 -0.5663
  183POPC  C21621026   0.947   4.454   5.307  0.2855 -1.0149 -0.0007
  183POPC  H16R21027   0.894   4.366   5.264 -1.4936  0.2410 -0.4789
  183POPC  H16S21028   1.055   4.436   5.327  0.4647  1.7500  2.0401
  183POPC  C21721029   0.932   4.570   5.202  0.1960  0.1758 -0.2217
  183POPC  H17R21030   0.970   4.667   5.242  1.5776  0.3416 -1.8116
  183POPC  H17S21031   0.822   4.574   5.185  0.5109  4.9148 -3.1722
  183POPC  C21821032   1.009   4.552   5.074 -0.6899 -0.0013 -0.0640
  183POPC  H18R21033   0.955   4.594   4.986 -0.7040 -1.9662 -1.0622
  183POPC  H18S21034   1.010   4.443   5.051 -0.9007 -0.2117  0.8781
  183POPC  H18T21035   1.114   4.588   5.078 -1.2904  2.0012 -0.9573
  183POPC   C3321036   0.243   4.024   6.707  0.6938 -0.1694  0.3494
  183POPC   H3X21037   0.155   4.092   6.708  0.4125 -0.5277  0.2228
  183POPC   H3Y21038   0.212   3.930   6.656  1.7045  0.4354 -1.4513
  183POPC   C3421039   0.372   4.067   6.648  0.5787 -0.4949  0.0342
  183POPC   H4X21040   0.450   3.995   6.679 -2.0996 -1.8877  4.5837
  183POPC   H4Y21041   0.403   4.166   6.689  1.4621 -0.6757 -0.1844
  183POPC   C3521042   0.364   4.087   6.497  0.0854  0.4424 -0.5586
  183POPC   H5X21043   0.337   4.194   6.487  0.0922  0.2728 -2.8268
  183POPC   H5Y21044   0.287   4.014   6.461  0.0949 -0.4993  1.2112
  183POPC   C3621045   0.494   4.061   6.422 -0.3161 -0.3032  0.0094
  183POPC   H6X21046   0.514   3.952   6.428  1.2524 -0.0226  0.1410
  183POPC   H6Y21047   0.563   4.113   6.491 -0.4447 -0.3203  0.1526
  183POPC   C3721048   0.489   4.100   6.272 -0.2230 -0.1680  0.2412
  183POPC   H7X21049   0.509   4.209   6.259 -0.8492 -0.1487 -0.6319
  183POPC   H7Y21050   0.381   4.098   6.248 -0.5064  0.5318  1.3958
  183POPC   C3821051   0.572   4.001   6.189  0.5044  0.2859  0.3198
  183POPC   H8X21052   0.522   3.902   6.183  0.2830  0.4708 -1.7045
  183POPC   H8Y21053   0.668   3.989   6.245 -1.1860 -2.4025  2.9900
  183POPC   C3921054   0.597   4.057   6.044 -0.0223 -0.7922 -0.3076
  183POPC   H9X21055   0.668   4.143   6.045  0.9632 -1.5872 -0.2078
  183POPC   H9Y21056   0.497   4.083   6.004 -1.0501 -0.7655  2.1201
  183POPC  C31021057   0.648   3.944   5.950 -0.2147 -0.5962 -0.2125
  183POPC  H10X21058   0.588   3.851   5.961 -3.2441  1.2883  0.2228
  183POPC  H10Y21059   0.748   3.917   5.992 -1.1127 -1.5665  1.4264
  183POPC  C31121060   0.666   3.982   5.804 -0.2749  0.3246 -0.7815
  183POPC  H11X21061   0.733   4.071   5.800 -0.4078  0.5622  1.4297
  183POPC  H11Y21062   0.565   4.011   5.767  0.4259  1.8743 -1.5933
  183POPC  C31221063   0.729   3.863   5.724 -0.5895 -0.1725 -0.6990
  183POPC  H12X21064   0.654   3.782   5.734  0.5413 -1.0620  0.8749
  183POPC  H12Y21065   0.830   3.834   5.760 -0.7213  1.2623  0.9797
  183POPC  C31321066   0.733   3.900   5.572 -0.5773  0.4178 -0.3498
  183POPC  H13X21067   0.790   3.995   5.562  1.3622 -0.7629 -0.9748
  183POPC  H13Y21068   0.634   3.912   5.524  0.5840 -0.1956 -3.1203
  183POPC  C31421069   0.799   3.786   5.485 -0.0407  0.5640  0.4139
  183POPC  H14X21070   0.748   3.690   5.506 -0.2378  0.5099 -0.2794
  183POPC  H14Y21071   0.905   3.776   5.516  0.2324  0.8073 -0.4067
  183POPC  C31521072   0.799   3.823   5.332 -1.0920  0.7165 -0.2369
  183POPC  H15X21073   0.851   3.917   5.306 -2.6602  1.3474 -1.2985
  183POPC  H15Y21074   0.695   3.826   5.293 -1.8986  0.1521  1.7364
  183POPC  C31621075   0.865   3.708   5.253  0.0971  0.0686  0.2281
  183POPC  H16X21076   0.835   3.714   5.146 -2.3795 -0.3338  0.8392
  183POPC  H16Y21077   0.827   3.605   5.274 -1.5749 -0.0580 -2.7956
  183POPC  H16Z21078   0.976   3.712   5.252  0.1402 -0.7901 -0.6791
  184POPC     N21079   2.246   5.290   7.435  0.3668 -0.0892 -0.0947
  184POPC   C1221080   2.253   5.383   7.316  0.9039  0.1753  0.7154
  184POPC  H12A21081   2.300   5.476   7.344  0.7670  0.4328  0.1025
  184POPC  H12B21082   2.153   5.399   7.278  0.8574 -0.7967  0.4004
  184POPC   C1321083   2.193   5.155   7.395 -0.6032 -0.2198  0.2439
  184POPC  H13A21084   2.183   5.092   7.482  1.4724  0.5749  1.1142
  184POPC  H13B21085   2.088   5.169   7.374 -1.4735 -2.5521  2.5269
  184POPC  H13C21086   2.247   5.115   7.310 -0.1712 -3.1472  1.7665
  184POPC   C1421087   2.378   5.265   7.499 -0.2476 -0.4289  0.2085
  184POPC  H14A21088   2.442   5.244   7.414  0.0256 -2.3462  0.8358
  184POPC  H14B21089   2.411   5.358   7.542  1.4812  1.2623 -4.1653
  184POPC  H14C21090   2.372   5.188   7.575  1.8805 -0.3263  0.5308
  184POPC   C1521091   2.152   5.344   7.539 -0.3455 -0.1536 -0.4185
  184POPC  H15A21092   2.050   5.345   7.501 -0.6761 -1.1547  0.4010
  184POPC  H15B21093   2.178   5.447   7.563  0.7823 -0.4531 -0.3115
  184POPC  H15C21094   2.161   5.289   7.631  1.6868  2.4706  1.1061
  184POPC   C1121095   2.330   5.325   7.192  0.2670  0.2067  0.3167
  184POPC  H11A21096   2.325   5.383   7.098 -1.0072  0.3849  0.4748
  184POPC  H11B21097   2.285   5.229   7.159  0.3421  0.2754  0.0170
  184POPC     P21098   2.568   5.413   7.214  0.2781 -0.1220  0.2023
  184POPC   O1321099   2.702   5.365   7.255  0.3036  0.3423 -0.4539
  184POPC   O1421100   2.505   5.533   7.274 -0.1239 -0.0259  0.0091
  184POPC   O1221101   2.465   5.290   7.215  0.1349 -0.1656 -0.1639
  184POPC   O1121102   2.568   5.448   7.057 -0.3310  0.1800 -0.1241
  184POPC    C121103   2.603   5.353   6.953  0.2520 -0.0778 -0.0984
  184POPC    HA21104   2.559   5.252   6.963  0.6775 -0.5046 -2.0101
  184POPC    HB21105   2.714   5.350   6.954  0.2663  0.4029  0.5450
  184POPC    C221106   2.537   5.401   6.818 -1.0868  0.1674  0.3183
  184POPC    HS21107   2.566   5.332   6.736 -1.0954  0.1052  0.3674
  184POPC   O2121108   2.580   5.531   6.794  0.5174  0.0336 -0.4234
  184POPC   C2121109   2.703   5.556   6.755  0.4677 -0.4985 -1.0862
  184POPC   O2221110   2.787   5.476   6.727 -0.2945  0.1457  0.4813
  184POPC   C2221111   2.715   5.709   6.744  0.1517 -0.9095 -0.1332
  184POPC   H2R21112   2.765   5.751   6.834 -2.9347  1.7554  0.5570
  184POPC   H2S21113   2.615   5.755   6.727  0.6962  0.2206 -0.3593
  184POPC    C321114   2.379   5.384   6.808 -0.4515  0.4090  0.5416
  184POPC    HX21115   2.340   5.439   6.896  2.0348  0.1484  1.8764
  184POPC    HY21116   2.348   5.281   6.836 -3.1550  0.4625 -1.7754
  184POPC   O3121117   2.321   5.422   6.685 -0.1899 -0.2776 -0.3916
  184POPC   C3121118   2.202   5.378   6.663  0.3701  0.1230 -0.3864
  184POPC   O3221119   2.143   5.294   6.727 -0.5524 -0.2729  0.3754
  184POPC   C3221120   2.150   5.453   6.539  0.1110  0.0486 -0.6092
  184POPC   H2X21121   2.130   5.555   6.578 -2.8230 -0.7826  0.3126
  184POPC   H2Y21122   2.060   5.400   6.502  0.1855 -0.7911  0.3308
  184POPC   C2321123   2.816   5.742   6.634 -0.7072 -0.4469 -0.6650
  184POPC   H3R21124   2.915   5.704   6.668 -0.7062 -0.3940 -0.6083
  184POPC   H3S21125   2.829   5.852   6.643  2.7488 -0.7429 -0.9624
  184POPC   C2421126   2.776   5.700   6.501  0.1288  0.4715  0.2726
  184POPC   H4R21127   2.754   5.591   6.495 -0.8729  0.4904  2.5326
  184POPC   H4S21128   2.867   5.716   6.438 -0.2905  1.0280 -0.1999
  184POPC   C2521129   2.654   5.767   6.430  0.2867 -0.2665 -0.1073
  184POPC   H5R21130   2.683   5.864   6.385  0.2180 -0.7461 -1.2326
  184POPC   H5S21131   2.576   5.770   6.508  1.0636 -1.1309  0.7384
  184POPC   C2621132   2.595   5.685   6.315 -0.1914 -0.4267  0.2716
  184POPC   H6R21133   2.505   5.744   6.285  0.7155  0.2984 -1.1566
  184POPC   H6S21134   2.564   5.581   6.340 -1.0823 -0.6904 -1.6887
  184POPC   C2721135   2.682   5.674   6.185  0.7009  0.0648 -0.5023
  184POPC   H7R21136   2.768   5.605   6.202  0.1603 -0.3046  0.9714
  184POPC   H7S21137   2.730   5.771   6.162 -1.9517  1.2900 -1.1821
  184POPC   C2821138   2.606   5.626   6.059  0.3431  0.0188 -0.0944
  184POPC   H8R21139   2.522   5.698   6.045  0.1787 -0.2355 -0.4617
  184POPC   H8S21140   2.573   5.520   6.069  3.2903 -0.8838  0.9719
  184POPC   C2921141   2.710   5.611   5.956  0.3379  0.1415  0.0510
  184POPC   H9121142   2.804   5.568   5.995 -0.3621 -0.1854  1.4234
  184POPC  C21021143   2.714   5.672   5.832  0.0793  0.7191 -0.8843
  184POPC  H10121144   2.799   5.658   5.764  0.2669  0.3554 -0.5806
  184POPC  C21121145   2.606   5.750   5.777 -0.0740 -0.0893  0.1912
  184POPC  H11R21146   2.605   5.845   5.835  1.1708 -0.2431  0.4728
  184POPC  H11S21147   2.501   5.715   5.787 -0.7872  0.1383 -4.2260
  184POPC  C21221148   2.626   5.772   5.621 -0.0498  0.4676 -1.1136
  184POPC  H12R21149   2.612   5.670   5.580 -1.4650 -0.0321  0.5115
  184POPC  H12S21150   2.728   5.808   5.594  0.0374 -0.0131 -1.4396
  184POPC  C21321151   2.517   5.858   5.566 -0.5624 -0.5282  0.0189
  184POPC  H13R21152   2.561   5.949   5.520 -0.1935  0.3728  2.0806
  184POPC  H13S21153   2.451   5.899   5.645 -1.5996  0.7438 -1.4438
  184POPC  C21421154   2.445   5.795   5.450 -0.2578 -0.2558  0.9658
  184POPC  H14R21155   2.375   5.868   5.403  0.2514  0.3958  1.2061
  184POPC  H14S21156   2.384   5.709   5.484 -3.3764  1.8051  1.0228
  184POPC  C21521157   2.524   5.762   5.324 -0.1701  0.0728  0.3798
  184POPC  H15R21158   2.597   5.682   5.347 -0.8080 -0.2542  1.3541
  184POPC  H15S21159   2.580   5.855   5.305 -1.1554  0.3918 -1.1885
  184POPC  C21621160   2.433   5.730   5.206 -0.1780  0.4801  0.2257
  184POPC  H16R21161   2.499   5.731   5.117  1.1301  0.9788  1.1707
  184POPC  H16S21162   2.361   5.813   5.189 -1.0070  0.5785  3.5910
  184POPC  C21721163   2.343   5.601   5.226 -0.1471  0.2298  0.5446
  184POPC  H17R21164   2.285   5.613   5.321 -0.7704 -0.7709  0.3110
  184POPC  H17S21165   2.419   5.521   5.236  1.5177  1.5619 -0.9789
  184POPC  C21821166   2.253   5.583   5.103 -0.6119 -0.5807  0.1994
  184POPC  H18R21167   2.292   5.516   5.025  1.9392  1.0778 -0.0660
  184POPC  H18S21168   2.246   5.677   5.045  1.0797 -1.6070 -1.7698
  184POPC  H18T21169   2.152   5.545   5.129 -0.3536 -1.4177  0.0013
  184POPC   C3321170   2.261   5.448   6.435  0.0132  0.2169 -0.2827
  184POPC   H3X21171   2.296   5.343   6.429 -0.0842  0.2111 -0.7587
  184POPC   H3Y21172   2.353   5.502   6.465  0.5016  0.5676 -2.2564
  184POPC   C3421173   2.208   5.522   6.304 -0.5060 -0.3651  0.1257
  184POPC   H4X21174   2.155   5.450   6.238 -2.9115  0.8291  0.6551
  184POPC   H4Y21175   2.299   5.549   6.245 -0.3037 -0.2786  0.4765
  184POPC   C3521176   2.133   5.648   6.330 -0.1985 -1.2239  0.3807
  184POPC   H5X21177   2.188   5.713   6.401  1.0452 -1.0605 -0.6854
  184POPC   H5Y21178   2.037   5.631   6.383 -1.1574  1.5212 -0.2908
  184POPC   C3621179   2.086   5.731   6.216  0.5351  0.2964 -0.0831
  184POPC   H6X21180   2.176   5.765   6.160  1.5867  1.2003  2.0486
  184POPC   H6Y21181   2.037   5.826   6.247  2.0694  1.6309 -1.5690
  184POPC   C3721182   1.983   5.653   6.129 -0.6039  0.0400 -0.7436
  184POPC   H7X21183   1.901   5.625   6.198  0.8351 -0.3532  0.8847
  184POPC   H7Y21184   2.035   5.559   6.097 -1.6735 -0.2632 -1.6437
  184POPC   C3821185   1.933   5.718   6.006 -0.5146  0.2736  0.8284
  184POPC   H8X21186   1.946   5.829   6.013 -0.5311  0.3732 -0.5358
  184POPC   H8Y21187   1.829   5.692   5.980 -0.1081  2.0576 -3.3430
  184POPC   C3921188   2.017   5.683   5.883  0.3421  0.5166 -0.1555
  184POPC   H9X21189   2.032   5.573   5.872 -3.9068 -0.1930 -0.4824
  184POPC   H9Y21190   2.116   5.732   5.896 -0.0966  2.1389 -2.2630
  184POPC  C31021191   1.958   5.722   5.751  0.4427 -0.4360 -0.3644
  184POPC  H10X21192   1.934   5.830   5.741  0.5996 -0.0588  2.4128
  184POPC  H10Y21193   1.858   5.674   5.756  0.2182 -0.1350 -1.7127
  184POPC  C31121194   2.032   5.657   5.634 -0.4193 -0.5733 -0.7765
  184POPC  H11X21195   2.058   5.553   5.663 -0.9337  0.1413  2.6939
  184POPC  H11Y21196   2.124   5.716   5.616 -0.3669 -0.3205  0.2722
  184POPC  C31221197   1.948   5.654   5.505 -0.3653  0.2886 -0.1111
  184POPC  H12X21198   1.857   5.591   5.518 -0.4749  0.5694  0.5426
  184POPC  H12Y21199   2.017   5.594   5.443  0.0991  2.0901 -1.4313
  184POPC  C31321200   1.933   5.796   5.446 -0.8526 -0.1575  0.4571
  184POPC  H13X21201   2.034   5.825   5.412 -0.5850  0.9974  2.1172
  184POPC  H13Y21202   1.904   5.861   5.531 -2.1472 -1.1293  0.7938
  184POPC  C31421203   1.834   5.807   5.324  0.3857  0.2071  0.3957
  184POPC  H14X21204   1.821   5.911   5.288 -0.1239 -0.4780 -1.5245
  184POPC  H14Y21205   1.734   5.782   5.367  1.5356 -2.4373  1.7400
  184POPC  C31521206   1.857   5.718   5.202 -0.1109  0.2768 -0.4185
  184POPC  H15X21207   1.844   5.612   5.232  3.6646  0.1566  1.3066
  184POPC  H15Y21208   1.964   5.734   5.177 -0.0693 -0.6512 -0.8682
  184POPC  C31621209   1.765   5.757   5.079 -0.2370 -0.5086  0.1164
  184POPC  H16X21210   1.660   5.736   5.109  0.1220 -1.8085  0.5372
  184POPC  H16Y21211   1.793   5.693   4.993 -2.6944  0.0894 -1.2143
  184POPC  H16Z21212   1.786   5.862   5.050  0.1492 -0.5391  0.2765
  185POPC     N21213   0.113   2.171   2.624  0.6950 -0.2408  0.6402
  185POPC   C1221214  -0.010   2.084   2.651 -0.3430 -0.0648  0.1013
  185POPC  H12A21215  -0.018   2.009   2.573 -0.9075 -0.2823  0.3624
  185POPC  H12B21216  -0.096   2.149   2.637  0.8295  1.1226 -2.3246
  185POPC   C1321217   0.083   2.260   2.508  0.1570  0.2280  0.1278
  185POPC  H13A21218   0.160   2.328   2.473 -0.5870  1.3422  0.5932
  185POPC  H13B21219   0.062   2.188   2.431  0.6845  1.7159 -1.4744
  185POPC  H13C21220  -0.014   2.307   2.514 -0.7102 -1.3385 -1.0347
  185POPC   C1421221   0.137   2.262   2.738 -0.4279  0.3825  0.5415
  185POPC  H14A21222   0.052   2.323   2.764  1.4184  2.5689  1.8604
  185POPC  H14B21223   0.169   2.203   2.823 -0.5291  0.1101  0.3902
  185POPC  H14C21224   0.215   2.329   2.704 -0.0667 -1.7833 -3.5022
  185POPC   C1521225   0.225   2.077   2.594  0.9285 -0.0225 -0.5583
  185POPC  H15A21226   0.229   2.038   2.494 -0.4581  0.1124 -0.6944
  185POPC  H15B21227   0.215   2.001   2.670 -0.4703  2.3259  1.8229
  185POPC  H15C21228   0.319   2.126   2.616 -0.0668  2.0853 -0.7718
  185POPC   C1121229  -0.026   2.015   2.783 -0.5255 -0.4673 -0.1534
  185POPC  H11A21230  -0.132   1.981   2.794 -0.4942 -0.4637  0.1760
  185POPC  H11B21231  -0.008   2.083   2.869  3.0965 -0.4993 -0.7426
  185POPC     P21232   0.022   1.762   2.721  0.2457 -0.2391 -0.3606
  185POPC   O1321233   0.148   1.693   2.723  0.0985  0.8756 -0.3946
  185POPC   O1421234  -0.041   1.771   2.588 -0.1244  0.9464 -0.1660
  185POPC   O1221235   0.061   1.901   2.786 -0.3226  0.3358  0.4036
  185POPC   O1121236  -0.095   1.711   2.818 -0.3042 -0.2885 -0.8816
  185POPC    C121237  -0.066   1.722   2.957  0.0290  0.4001  0.4565
  185POPC    HA21238  -0.083   1.830   2.979 -0.1591  0.7747 -1.3294
  185POPC    HB21239   0.040   1.696   2.980 -0.1535  1.0744  2.1890
  185POPC    C221240  -0.161   1.629   3.026  0.0774  1.1950 -0.0833
  185POPC    HS21241  -0.263   1.650   2.988 -0.2531 -1.2401 -0.6802
  185POPC   O2121242  -0.149   1.650   3.167  0.6929  0.6176 -0.2579
  185POPC   C2121243  -0.230   1.572   3.241  0.5153  0.6515  0.0768
  185POPC   O2221244  -0.310   1.490   3.204 -0.2451  0.1598  0.3675
  185POPC   C2221245  -0.237   1.628   3.383 -1.0898 -0.8611 -0.1156
  185POPC   H2R21246  -0.323   1.696   3.400  1.6686  3.0535 -0.5091
  185POPC   H2S21247  -0.150   1.697   3.385  1.0382 -3.2405 -2.2292
  185POPC    C321248  -0.128   1.483   2.975  0.6377  0.5933 -0.2487
  185POPC    HX21249  -0.137   1.483   2.865  3.0548  0.0855 -0.5054
  185POPC    HY21250  -0.210   1.415   3.006  0.4895  0.5874 -0.6613
  185POPC   O3121251  -0.001   1.444   3.028  0.2946  0.3117 -0.6345
  185POPC   C3121252   0.082   1.391   2.938 -0.4106  0.0763  0.4066
  185POPC   O3221253   0.057   1.383   2.817 -0.5923 -0.1512 -0.0436
  185POPC   C3221254   0.222   1.356   3.001  0.3299  0.3264 -0.3496
  185POPC   H2X21255   0.260   1.453   3.041 -0.2418  1.3609 -2.2097
  185POPC   H2Y21256   0.288   1.317   2.922  1.4437  0.6564  0.3892
  185POPC   C2321257  -0.227   1.512   3.481  0.0536  0.8975  0.9244
  185POPC   H3R21258  -0.130   1.461   3.464 -0.8777 -0.7924  0.4678
  185POPC   H3S21259  -0.303   1.432   3.470  1.9433 -0.7517 -1.0369
  185POPC   C2421260  -0.223   1.572   3.619 -0.1675 -0.1603 -0.1821
  185POPC   H4R21261  -0.306   1.644   3.637 -0.4752 -0.3836 -0.6865
  185POPC   H4S21262  -0.129   1.631   3.613  1.4106 -2.6481 -2.4673
  185POPC   C2521263  -0.215   1.473   3.735 -0.0062  1.2568  0.4212
  185POPC   H5R21264  -0.182   1.538   3.819  3.9634 -0.9092  0.7779
  185POPC   H5S21265  -0.132   1.400   3.722 -2.0386 -0.8626 -1.6269
  185POPC   C2621266  -0.341   1.397   3.769 -0.1600  0.0653 -0.2248
  185POPC   H6R21267  -0.362   1.314   3.699  1.6393  0.2454 -1.0445
  185POPC   H6S21268  -0.417   1.477   3.759  0.1711  0.3949 -0.1293
  185POPC   C2721269  -0.345   1.341   3.912 -0.0605  0.0778  0.5793
  185POPC   H7R21270  -0.330   1.427   3.981 -2.2936  2.9087 -2.1880
  185POPC   H7S21271  -0.260   1.269   3.923  0.0053  0.1613  0.6195
  185POPC   C2821272  -0.471   1.251   3.942 -1.0354 -0.4452  0.6086
  185POPC   H8R21273  -0.455   1.199   4.039 -1.1851 -1.1167  0.2834
  185POPC   H8S21274  -0.487   1.167   3.870 -0.7531  1.6731 -2.0705
  185POPC   C2921275  -0.593   1.339   3.953  0.1299 -0.0805  0.3909
  185POPC   H9121276  -0.629   1.369   3.854  2.9066  1.4709 -0.2516
  185POPC  C21021277  -0.644   1.380   4.072 -0.6928 -0.1535 -0.9672
  185POPC  H10121278  -0.723   1.456   4.061  0.5409  1.4939  1.0065
  185POPC  C21121279  -0.600   1.329   4.205  0.2525 -0.0477  0.4331
  185POPC  H11R21280  -0.566   1.223   4.206 -0.5602 -0.3101  0.8105
  185POPC  H11S21281  -0.694   1.330   4.264 -0.4148  0.7662 -0.6058
  185POPC  C21221282  -0.493   1.418   4.260  0.2372 -0.0665 -0.5555
  185POPC  H12R21283  -0.526   1.523   4.275 -1.1329 -0.4928 -0.4216
  185POPC  H12S21284  -0.416   1.410   4.180 -0.4276 -2.9073 -1.0040
  185POPC  C21321285  -0.434   1.355   4.393  0.2688  0.5161 -1.3480
  185POPC  H13R21286  -0.383   1.435   4.450 -0.9863 -0.6212  1.5183
  185POPC  H13S21287  -0.356   1.278   4.378  0.4385 -0.3026  2.7384
  185POPC  C21421288  -0.545   1.303   4.487  0.5272 -0.6425 -1.0172
  185POPC  H14R21289  -0.606   1.220   4.444 -4.2300 -0.0088  3.5628
  185POPC  H14S21290  -0.617   1.386   4.500 -0.0669 -1.5223  2.0087
  185POPC  C21521291  -0.490   1.254   4.624 -0.9690 -0.6025 -0.5161
  185POPC  H15R21292  -0.442   1.341   4.674 -0.3468 -1.6112  0.7000
  185POPC  H15S21293  -0.409   1.184   4.598 -0.4010 -0.1588  0.0318
  185POPC  C21621294  -0.591   1.192   4.728 -0.6305  0.2755  0.4475
  185POPC  H16R21295  -0.661   1.128   4.669 -0.4110 -0.0305  0.5176
  185POPC  H16S21296  -0.640   1.283   4.769 -3.6608 -0.4680 -1.2267
  185POPC  C21721297  -0.526   1.134   4.857  0.3793 -0.5042  0.6483
  185POPC  H17R21298  -0.607   1.131   4.933 -1.0228  2.4346 -0.5665
  185POPC  H17S21299  -0.442   1.203   4.877  0.6716 -1.0691  1.3926
  185POPC  C21821300  -0.452   1.005   4.827 -0.6147  0.5392 -0.4718
  185POPC  H18R21301  -0.371   1.025   4.753 -1.0239 -0.0517 -1.0959
  185POPC  H18S21302  -0.526   0.932   4.787 -0.7911 -0.0081  0.8171
  185POPC  H18T21303  -0.411   0.976   4.926  1.3280 -0.6545 -1.5662
  185POPC   C3321304   0.226   1.247   3.117 -0.5996 -0.2807  0.3161
  185POPC   H3X21305   0.334   1.225   3.135 -0.4505 -0.4848 -0.7128
  185POPC   H3Y21306   0.177   1.151   3.090 -0.0978 -0.7012  0.8678
  185POPC   C3421307   0.151   1.310   3.230 -0.6752 -0.2183  0.4960
  185POPC   H4X21308   0.044   1.322   3.203 -0.4296  2.0193  0.3590
  185POPC   H4Y21309   0.196   1.411   3.241  0.5681 -0.6533 -0.3224
  185POPC   C3521310   0.166   1.218   3.350 -0.1401 -0.8344 -0.4407
  185POPC   H5X21311   0.275   1.216   3.375 -0.1037  0.4760 -0.3792
  185POPC   H5Y21312   0.137   1.118   3.311 -0.7002 -0.1120 -1.9706
  185POPC   C3621313   0.086   1.244   3.477  0.3673 -0.8688  0.2369
  185POPC   H6X21314  -0.023   1.241   3.455  0.7106 -0.6287 -1.7674
  185POPC   H6Y21315   0.111   1.348   3.506 -1.4834 -0.8045  1.7091
  185POPC   C3721316   0.112   1.152   3.592 -0.2951 -0.4066  0.0632
  185POPC   H7X21317   0.221   1.135   3.583 -0.5239 -1.6539 -0.5532
  185POPC   H7Y21318   0.065   1.051   3.584  1.2370 -1.3406  1.8748
  185POPC   C3821319   0.062   1.213   3.724  0.5477 -0.0618  0.1987
  185POPC   H8X21320  -0.047   1.195   3.722  0.6668 -0.7435 -1.3387
  185POPC   H8Y21321   0.091   1.318   3.746 -0.0935  0.1585  0.0136
  185POPC   C3921322   0.112   1.143   3.847 -0.2133  0.3930  0.3276
  185POPC   H9X21323   0.220   1.165   3.863 -0.5220  2.2891  0.0768
  185POPC   H9Y21324   0.097   1.033   3.839  1.3781  0.1092  0.8860
  185POPC  C31021325   0.032   1.185   3.971  0.8537  0.2270 -0.3051
  185POPC  H10X21326  -0.076   1.162   3.958  1.4426 -2.2929 -1.4838
  185POPC  H10Y21327   0.047   1.294   3.985  0.3687  0.1329  1.0940
  185POPC  C31121328   0.058   1.094   4.092  0.4867  0.3559  0.0498
  185POPC  H11X21329   0.164   1.100   4.123 -0.0551 -0.7825  2.2806
  185POPC  H11Y21330   0.044   0.985   4.076 -1.5226  0.6138 -0.2276
  185POPC  C31221331  -0.037   1.130   4.209 -0.0875 -0.0699 -0.2888
  185POPC  H12X21332  -0.141   1.095   4.189  0.5644 -2.1088 -0.3461
  185POPC  H12Y21333  -0.033   1.240   4.220 -1.5513  0.0056 -0.3560
  185POPC  C31321334   0.006   1.073   4.345 -0.2035  0.3345 -0.0414
  185POPC  H13X21335  -0.047   1.115   4.433  0.3108 -1.6581  1.3003
  185POPC  H13Y21336   0.115   1.093   4.356 -0.3347  0.9477  0.1861
  185POPC  C31421337  -0.008   0.915   4.364 -0.3462  0.1167 -0.4306
  185POPC  H14X21338   0.004   0.862   4.267 -0.4358  0.4081 -0.6025
  185POPC  H14Y21339  -0.109   0.884   4.397 -0.3838  0.0702 -0.5908
  185POPC  C31521340   0.102   0.864   4.465 -0.0240  0.2769  0.4814
  185POPC  H15X21341   0.197   0.870   4.407 -1.7805  1.3989 -2.4772
  185POPC  H15Y21342   0.078   0.758   4.486  1.1912 -0.2557 -0.6788
  185POPC  C31621343   0.121   0.946   4.589  0.1114 -0.7494 -0.1839
  185POPC  H16X21344   0.033   0.930   4.655 -0.8521  0.5496 -1.1117
  185POPC  H16Y21345   0.147   1.051   4.565  0.0904 -0.2403  1.8585
  185POPC  H16Z21346   0.197   0.902   4.657 -0.4405 -0.8840  0.3561
  186POPC     N21347   2.195   4.024   2.429  0.0299 -0.5519 -0.2221
  186POPC   C1221348   2.125   4.045   2.563 -1.2688  0.3426 -0.0480
  186POPC  H12A21349   2.199   4.107   2.610 -2.4199  0.1710  2.1065
  186POPC  H12B21350   2.115   3.953   2.619 -0.7992  0.9529  1.0622
  186POPC   C1321351   2.205   4.156   2.355 -0.0643 -0.4622  0.2421
  186POPC  H13A21352   2.109   4.195   2.322  0.6928  2.8785  1.5581
  186POPC  H13B21353   2.241   4.240   2.413  0.4098  0.0764 -0.8075
  186POPC  H13C21354   2.260   4.144   2.263  0.5236 -0.3997  0.5865
  186POPC   C1421355   2.335   3.979   2.459 -0.1293  0.4599 -0.0982
  186POPC  H14A21356   2.382   4.049   2.526 -0.7582 -0.3350  1.2094
  186POPC  H14B21357   2.331   3.879   2.500 -0.3851  0.4484 -0.1511
  186POPC  H14C21358   2.393   3.989   2.368  0.4371  0.9344  0.3111
  186POPC   C1521359   2.121   3.922   2.353  0.1727  0.0256  0.0157
  186POPC  H15A21360   2.101   3.837   2.416 -0.2614 -0.5492 -0.8621
  186POPC  H15B21361   2.156   3.891   2.256 -2.5272  1.1401 -1.4397
  186POPC  H15C21362   2.025   3.961   2.322 -0.5551 -1.8306 -0.1988
  186POPC   C1121363   1.988   4.119   2.564  0.0256 -0.2514 -0.0059
  186POPC  H11A21364   2.003   4.225   2.535 -1.1950 -0.6617 -2.4427
  186POPC  H11B21365   1.950   4.111   2.668 -1.4369 -0.8815 -0.5534
  186POPC     P21366   1.771   4.126   2.425  0.0526 -0.1688  0.2587
  186POPC   O1321367   1.680   4.022   2.371 -0.4182  0.5210 -0.5691
  186POPC   O1421368   1.815   4.223   2.325 -0.3277  0.3805  0.0071
  186POPC   O1221369   1.895   4.054   2.479  0.9242 -0.3735  0.4381
  186POPC   O1121370   1.706   4.201   2.550 -0.2080  0.5438 -0.0474
  186POPC    C121371   1.648   4.126   2.660 -0.6392  0.9908  0.7605
  186POPC    HA21372   1.717   4.100   2.743  1.8982  0.4625 -1.3441
  186POPC    HB21373   1.599   4.036   2.618 -0.6497  2.2319 -2.1298
  186POPC    C221374   1.539   4.221   2.705  0.1106 -0.4904 -0.4062
  186POPC    HS21375   1.480   4.233   2.612 -0.5116  1.0319  0.1498
  186POPC   O2121376   1.593   4.342   2.770 -0.5782 -0.2079 -0.0098
  186POPC   C2121377   1.518   4.451   2.762  0.1682  0.2033 -0.3202
  186POPC   O2221378   1.409   4.448   2.707 -0.8149 -0.0933 -0.0730
  186POPC   C2221379   1.567   4.569   2.844 -0.0904  0.1243 -0.1845
  186POPC   H2R21380   1.606   4.642   2.769  2.4843 -2.0097 -1.0825
  186POPC   H2S21381   1.656   4.539   2.903  1.2175  1.4940 -1.3696
  186POPC    C321382   1.441   4.149   2.801 -0.2966 -0.3414 -0.4467
  186POPC    HX21383   1.398   4.058   2.753 -0.8639 -0.3690  0.1007
  186POPC    HY21384   1.355   4.217   2.814  0.0325  0.1388 -0.7387
  186POPC   O3121385   1.483   4.112   2.934 -0.2389 -0.6350  1.0335
  186POPC   C3121386   1.535   3.996   2.962  0.4964  0.3379  0.5405
  186POPC   O3221387   1.543   3.899   2.886  0.0800 -0.1238  0.1788
  186POPC   C3221388   1.542   3.988   3.115 -0.4010  0.2741 -0.3356
  186POPC   H2X21389   1.448   4.027   3.160  0.3743  1.0703  0.6527
  186POPC   H2Y21390   1.620   4.062   3.146 -0.8378 -0.6241  3.3959
  186POPC   C2321391   1.467   4.632   2.937 -0.1542  0.6961 -0.0520
  186POPC   H3R21392   1.394   4.695   2.882  1.5269  0.1079 -3.1582
  186POPC   H3S21393   1.520   4.700   3.006 -0.5813  0.6971  0.2853
  186POPC   C2421394   1.386   4.528   3.017 -0.3085  0.2415  0.2766
  186POPC   H4R21395   1.355   4.436   2.964 -0.3793 -0.2488  1.1494
  186POPC   H4S21396   1.288   4.581   3.027 -1.5726 -1.6938 -1.1386
  186POPC   C2521397   1.457   4.499   3.147 -0.5739 -0.4737 -0.2203
  186POPC   H5R21398   1.435   4.583   3.216  0.4387 -0.7347  0.4579
  186POPC   H5S21399   1.566   4.489   3.124 -0.9555  1.5477 -3.3638
  186POPC   C2621400   1.418   4.373   3.223 -0.2092  0.0484 -0.1721
  186POPC   H6R21401   1.479   4.380   3.316 -0.0866  1.4624 -0.3313
  186POPC   H6S21402   1.456   4.282   3.174 -1.4376 -0.0712 -0.9437
  186POPC   C2721403   1.280   4.369   3.275  0.4917  0.1583 -0.0141
  186POPC   H7R21404   1.209   4.377   3.190  2.1026  1.5488 -1.3067
  186POPC   H7S21405   1.269   4.459   3.340 -1.2952 -0.0354  0.0007
  186POPC   C2821406   1.245   4.243   3.352  0.0366  0.2824  0.1532
  186POPC   H8R21407   1.327   4.228   3.426  0.9136  0.8485 -0.6848
  186POPC   H8S21408   1.239   4.154   3.286  0.2931 -0.8051  1.5492
  186POPC   C2921409   1.112   4.264   3.423  0.2875 -0.1164  0.0289
  186POPC   H9121410   1.034   4.272   3.345  1.2990  2.3998 -0.8596
  186POPC  C21021411   1.090   4.275   3.559  0.2910  0.9002 -0.3983
  186POPC  H10121412   0.988   4.289   3.598  0.5651  2.4569 -0.1757
  186POPC  C21121413   1.193   4.275   3.665 -0.9099 -0.5823  0.3394
  186POPC  H11R21414   1.289   4.234   3.629 -0.2945  0.5583  0.6457
  186POPC  H11S21415   1.164   4.240   3.767  0.6716  1.3674  1.5383
  186POPC  C21221416   1.241   4.423   3.691  0.0605  0.2820 -0.6067
  186POPC  H12R21417   1.156   4.473   3.744  1.2359  1.5924  0.1208
  186POPC  H12S21418   1.260   4.471   3.593 -1.1633  1.0777 -0.4774
  186POPC  C21321419   1.359   4.444   3.782  0.1437  0.6199 -0.7110
  186POPC  H13R21420   1.444   4.383   3.745 -1.3518 -1.0556 -1.5272
  186POPC  H13S21421   1.347   4.402   3.885  0.1071  0.5870 -0.7283
  186POPC  C21421422   1.415   4.588   3.782  0.2186 -0.4260 -0.5300
  186POPC  H14R21423   1.387   4.627   3.682 -0.3892  0.6584  0.0475
  186POPC  H14S21424   1.524   4.605   3.795 -0.2863  1.2176  2.2137
  186POPC  C21521425   1.352   4.674   3.895 -0.6698  0.1161  0.4116
  186POPC  H15R21426   1.251   4.642   3.926  0.4609 -0.7282  3.6767
  186POPC  H15S21427   1.348   4.780   3.862  0.8913  0.6404  1.7220
  186POPC  C21621428   1.441   4.652   4.021 -0.2364  0.2801 -0.9270
  186POPC  H16R21429   1.539   4.701   4.006  0.7231 -1.6805 -1.3360
  186POPC  H16S21430   1.453   4.545   4.047 -0.2248  1.0514  2.8344
  186POPC  C21721431   1.387   4.727   4.147  0.3742 -0.6642  0.7500
  186POPC  H17R21432   1.277   4.709   4.147  0.0966  0.8855  1.0831
  186POPC  H17S21433   1.411   4.835   4.131 -1.6074 -0.3239 -0.2886
  186POPC  C21821434   1.446   4.684   4.282 -0.3938 -0.0039 -0.6200
  186POPC  H18R21435   1.549   4.645   4.273 -0.1588  0.7145 -1.1600
  186POPC  H18S21436   1.437   4.767   4.355  0.5575 -1.0415  0.7343
  186POPC  H18T21437   1.389   4.598   4.322  0.6199  0.0394  1.0069
  186POPC   C3321438   1.583   3.846   3.166 -0.3540  0.0878 -0.5100
  186POPC   H3X21439   1.676   3.822   3.112 -1.0046  0.2984 -1.7749
  186POPC   H3Y21440   1.507   3.767   3.146 -0.6030  0.4651 -1.0852
  186POPC   C3421441   1.604   3.845   3.325 -0.2442 -0.2007  0.6525
  186POPC   H4X21442   1.681   3.921   3.353 -0.4889 -0.5695  2.4392
  186POPC   H4Y21443   1.642   3.743   3.345 -0.7740 -0.6742 -0.6481
  186POPC   C3521444   1.473   3.876   3.398 -0.0548  0.3872 -0.1095
  186POPC   H5X21445   1.407   3.810   3.338  0.0847 -0.7047  0.8922
  186POPC   H5Y21446   1.441   3.981   3.382 -1.5017 -0.3446 -2.3399
  186POPC   C3621447   1.480   3.834   3.551 -0.3191  0.1127  0.1738
  186POPC   H6X21448   1.546   3.744   3.558 -1.7657 -1.0242 -0.3365
  186POPC   H6Y21449   1.377   3.808   3.581  0.5442 -2.8471  0.9527
  186POPC   C3721450   1.557   3.931   3.650  0.6045 -0.1181  0.8059
  186POPC   H7X21451   1.486   4.013   3.676 -0.8860 -1.6132  1.6710
  186POPC   H7Y21452   1.644   3.975   3.598  1.4817 -0.3374  2.0278
  186POPC   C3821453   1.609   3.868   3.777  0.1280  0.3353 -0.3538
  186POPC   H8X21454   1.707   3.820   3.761  0.1071 -0.4832  1.6511
  186POPC   H8Y21455   1.539   3.789   3.813 -1.5647  2.2086  0.7089
  186POPC   C3921456   1.620   3.979   3.890 -0.1520  0.0199 -0.1556
  186POPC   H9X21457   1.539   4.055   3.884  0.7536  1.0423  0.2118
  186POPC   H9Y21458   1.712   4.041   3.881 -0.3586  0.3439 -0.0669
  186POPC  C31021459   1.593   3.920   4.027 -0.5471 -0.2897  0.0728
  186POPC  H10X21460   1.670   3.841   4.042  0.1825 -0.4424 -3.5089
  186POPC  H10Y21461   1.497   3.864   4.028 -0.9161  0.3375  0.3618
  186POPC  C31121462   1.596   4.013   4.143 -0.2849 -0.4575 -0.7707
  186POPC  H11X21463   1.531   4.100   4.118  0.5502  0.4372  0.0744
  186POPC  H11Y21464   1.701   4.051   4.148 -1.0796  1.8103 -0.0920
  186POPC  C31221465   1.557   3.945   4.275  0.0200 -0.0802 -0.0723
  186POPC  H12X21466   1.455   3.904   4.265 -0.7216  1.3829  1.0647
  186POPC  H12Y21467   1.551   4.025   4.352 -0.6409 -0.1769 -0.0203
  186POPC  C31321468   1.654   3.840   4.333 -0.5069 -0.2572  0.0045
  186POPC  H13X21469   1.747   3.901   4.337 -1.7571  1.8451  4.9368
  186POPC  H13Y21470   1.665   3.749   4.271 -1.8356  0.0538 -0.7279
  186POPC  C31421471   1.608   3.818   4.485 -0.6813  0.0838  1.2298
  186POPC  H14X21472   1.500   3.791   4.485 -0.5685 -0.5313 -0.9501
  186POPC  H14Y21473   1.633   3.907   4.547  0.4813  0.7948 -0.1891
  186POPC  C31521474   1.699   3.705   4.545 -0.3561  0.1521 -0.0447
  186POPC  H15X21475   1.806   3.737   4.539  0.1148 -1.3436 -0.0244
  186POPC  H15Y21476   1.705   3.612   4.484  1.7331 -1.3439  2.2461
  186POPC  C31621477   1.661   3.658   4.680  0.0587  0.6886 -0.6968
  186POPC  H16X21478   1.723   3.576   4.722 -0.8294 -1.3516 -3.0708
  186POPC  H16Y21479   1.559   3.612   4.680 -0.1750  1.1998 -0.4308
  186POPC  H16Z21480   1.650   3.739   4.755 -1.9957 -0.1026 -0.0640
  187POPC     N21481   4.771   5.718   2.457 -0.2115  0.7309  0.4396
  187POPC   C1221482   4.785   5.768   2.599  0.2710  0.4135  0.5971
  187POPC  H12A21483   4.826   5.689   2.660 -0.3491 -0.6342 -0.3195
  187POPC  H12B21484   4.682   5.779   2.630  0.4423  1.2033  0.9260
  187POPC   C1321485   4.912   5.721   2.396 -0.1851  0.2121  0.7652
  187POPC  H13A21486   4.957   5.818   2.393  0.7172 -0.1529 -2.8495
  187POPC  H13B21487   4.977   5.664   2.461  0.5289 -0.4117 -0.4506
  187POPC  H13C21488   4.919   5.664   2.304 -2.5359 -1.6020  1.5995
  187POPC   C1421489   4.707   5.586   2.438 -0.0244  0.5124  0.7212
  187POPC  H14A21490   4.719   5.568   2.333  0.9381  1.0412  0.7262
  187POPC  H14B21491   4.777   5.519   2.487  0.4503  1.2099  1.0301
  187POPC  H14C21492   4.603   5.578   2.463 -0.8559  0.3119 -2.4407
  187POPC   C1521493   4.698   5.815   2.369  0.1063  0.4233  0.3038
  187POPC  H15A21494   4.708   5.914   2.410  0.3859  0.4577  0.1532
  187POPC  H15B21495   4.592   5.793   2.375  0.4137 -0.9211  1.4396
  187POPC  H15C21496   4.741   5.811   2.270 -0.6416  3.1665 -0.1924
  187POPC   C1121497   4.857   5.903   2.642 -0.1148  0.1514 -0.1303
  187POPC  H11A21498   4.959   5.899   2.599 -1.2070  0.3746 -2.9488
  187POPC  H11B21499   4.832   5.905   2.751 -2.2590  1.4432 -0.5966
  187POPC     P21500   4.669   6.084   2.664  0.0137 -0.0683  0.1449
  187POPC   O1321501   4.570   5.980   2.691  0.0893 -0.0843  0.6114
  187POPC   O1421502   4.631   6.201   2.578 -0.0368 -0.2116 -0.7513
  187POPC   O1221503   4.787   6.012   2.591 -0.3605  0.1593  0.2355
  187POPC   O1121504   4.727   6.134   2.801  0.3409 -0.4358  0.3554
  187POPC    C121505   4.863   6.190   2.812 -0.2622  0.1063 -0.2965
  187POPC    HA21506   4.891   6.256   2.727  2.0299 -1.8892 -1.2230
  187POPC    HB21507   4.930   6.101   2.819 -1.7309 -1.0323 -0.1108
  187POPC    C221508   4.869   6.272   2.943 -0.0008 -0.4692  0.4563
  187POPC    HS21509   4.950   6.346   2.925  0.2487 -0.7234  0.5279
  187POPC   O2121510   4.905   6.184   3.050 -0.1166  0.4458 -0.8203
  187POPC   C2121511   5.035   6.195   3.095  0.6697  0.6674  0.2692
  187POPC   O2221512   5.124   6.250   3.034 -0.4123  0.0638  0.7153
  187POPC   C2221513   5.048   6.100   3.220  0.1297 -0.8172 -0.4875
  187POPC   H2R21514   5.155   6.069   3.216  1.7470  3.3755  3.1343
  187POPC   H2S21515   4.978   6.014   3.211 -0.8014 -0.1724  0.3958
  187POPC    C321516   4.739   6.350   2.971 -0.7669  0.4433  0.4286
  187POPC    HX21517   4.665   6.269   2.987 -2.9824  2.0535 -1.0424
  187POPC    HY21518   4.713   6.401   2.875  1.2538 -3.4215 -2.4750
  187POPC   O3121519   4.748   6.424   3.097  0.8872  0.2553 -0.0034
  187POPC   C3121520   4.749   6.560   3.078  0.1313  0.6012  0.0218
  187POPC   O3221521   4.728   6.621   2.975 -0.8548 -0.4855  0.4644
  187POPC   C3221522   4.789   6.621   3.212 -0.0150  0.3356 -0.0838
  187POPC   H2X21523   4.699   6.630   3.277 -1.0182  0.9913 -1.5083
  187POPC   H2Y21524   4.838   6.718   3.192  1.5924 -0.1521  1.2467
  187POPC   C2321525   5.019   6.166   3.357  0.0206 -0.0799  0.5978
  187POPC   H3R21526   4.917   6.210   3.362 -0.0172 -0.2545  1.5562
  187POPC   H3S21527   5.093   6.242   3.388  1.4534 -1.1367 -0.1065
  187POPC   C2421528   5.033   6.060   3.468  0.0162  0.8518 -0.8750
  187POPC   H4R21529   5.117   5.987   3.463  0.3481  0.8385  2.5839
  187POPC   H4S21530   4.937   6.004   3.471 -1.0933  2.7133  0.7385
  187POPC   C2521531   5.042   6.124   3.608  0.1586  0.1218 -0.2644
  187POPC   H5R21532   4.963   6.199   3.626  0.7246  0.3644  1.3613
  187POPC   H5S21533   5.127   6.197   3.610  0.7610 -0.5773  0.2691
  187POPC   C2621534   5.066   6.035   3.734  0.0159 -0.2780 -0.2614
  187POPC   H6R21535   5.100   6.105   3.813 -0.4089 -1.2575  0.8321
  187POPC   H6S21536   5.146   5.958   3.738  1.9108  1.6437  1.9465
  187POPC   C2721537   4.939   5.947   3.772 -0.6000 -0.2424  0.2599
  187POPC   H7R21538   4.969   5.879   3.854  3.8480  0.4382 -0.5489
  187POPC   H7S21539   4.921   5.892   3.677 -1.2162  2.9508 -1.6296
  187POPC   C2821540   4.810   6.027   3.808  1.3988  0.2413 -0.0059
  187POPC   H8R21541   4.724   5.963   3.780  1.5336  0.0591  0.0003
  187POPC   H8S21542   4.801   6.115   3.740 -1.5607  0.9225  1.1361
  187POPC   C2921543   4.811   6.063   3.950  0.8584  0.1668  0.0222
  187POPC   H9121544   4.839   5.975   4.010  0.4392 -0.8474 -1.2081
  187POPC  C21021545   4.790   6.185   4.014 -0.2876  0.0645  0.5495
  187POPC  H10121546   4.807   6.187   4.123 -0.0597 -0.4014  0.5253
  187POPC  C21121547   4.772   6.318   3.958 -0.3300  0.1906  0.3169
  187POPC  H11R21548   4.780   6.316   3.847 -2.1943 -1.4277  0.1643
  187POPC  H11S21549   4.853   6.388   3.991 -0.9887  1.2704 -0.2964
  187POPC  C21221550   4.645   6.390   4.009  0.1669 -0.3423  0.0811
  187POPC  H12R21551   4.551   6.332   3.995 -0.1430 -0.8569  3.4054
  187POPC  H12S21552   4.630   6.480   3.945  0.8576  0.5840  1.1890
  187POPC  C21321553   4.644   6.426   4.159  0.2924  0.7286  0.2550
  187POPC  H13R21554   4.736   6.472   4.202  1.1765 -2.9397  2.8036
  187POPC  H13S21555   4.646   6.327   4.210  0.5737 -0.3611 -1.7681
  187POPC  C21421556   4.518   6.502   4.204  0.1150  0.1555 -0.3869
  187POPC  H14R21557   4.441   6.431   4.166  0.0769  0.5722 -1.0888
  187POPC  H14S21558   4.518   6.595   4.143  0.4781 -0.8290 -1.9426
  187POPC  C21521559   4.511   6.541   4.357 -0.2253 -0.3125  0.4375
  187POPC  H15R21560   4.593   6.611   4.385  0.0058  0.1202 -1.1915
  187POPC  H15S21561   4.529   6.450   4.418  0.1703  0.3445  1.3243
  187POPC  C21621562   4.366   6.589   4.392 -0.1609  0.4909 -0.5018
  187POPC  H16R21563   4.293   6.524   4.339  0.0383  0.3910 -0.6559
  187POPC  H16S21564   4.352   6.686   4.341 -0.9246  1.9271  2.2488
  187POPC  C21721565   4.344   6.609   4.538 -0.5000  1.2237  0.2533
  187POPC  H17R21566   4.319   6.508   4.577 -1.1874  1.3996  0.2678
  187POPC  H17S21567   4.259   6.680   4.542 -0.0467  2.0234 -2.1127
  187POPC  C21821568   4.465   6.677   4.605  0.2882 -0.4973  0.2677
  187POPC  H18R21569   4.554   6.611   4.605 -0.0201 -0.9249 -0.4656
  187POPC  H18S21570   4.437   6.697   4.711 -1.9788 -1.0415 -0.1752
  187POPC  H18T21571   4.477   6.772   4.549 -2.2555  0.2676  0.8702
  187POPC   C3321572   4.901   6.539   3.278 -0.2996 -0.1150 -0.4857
  187POPC   H3X21573   4.981   6.518   3.204  1.0490 -0.2322  0.9396
  187POPC   H3Y21574   4.861   6.438   3.302  0.4482 -0.0518  1.1529
  187POPC   C3421575   4.942   6.609   3.403 -0.6641 -0.5334 -0.2859
  187POPC   H4X21576   4.957   6.719   3.395  0.3659 -0.7166 -0.9807
  187POPC   H4Y21577   5.045   6.578   3.433  0.5613  2.4174 -1.1158
  187POPC   C3521578   4.845   6.587   3.524 -0.0017  0.3684  0.1941
  187POPC   H5X21579   4.844   6.481   3.558  0.2118  0.7430  1.4171
  187POPC   H5Y21580   4.750   6.635   3.493  0.6333  1.3019 -0.3625
  187POPC   C3621581   4.895   6.667   3.644 -0.4925 -0.1849 -0.4933
  187POPC   H6X21582   4.907   6.776   3.627  1.7169 -0.2800  0.2325
  187POPC   H6Y21583   4.996   6.631   3.669 -0.2346 -0.3766 -1.7340
  187POPC   C3721584   4.795   6.656   3.759 -1.2777 -1.0707 -0.0923
  187POPC   H7X21585   4.768   6.549   3.770  1.3658 -1.9716 -1.5471
  187POPC   H7Y21586   4.702   6.699   3.717  0.4490 -0.1394 -3.2961
  187POPC   C3821587   4.851   6.726   3.887  0.1104 -0.2769 -0.0450
  187POPC   H8X21588   4.922   6.807   3.860 -0.2837 -0.0993 -0.5740
  187POPC   H8Y21589   4.915   6.658   3.947  1.9348  0.6629 -0.8628
  187POPC   C3921590   4.746   6.806   3.965  0.6135 -0.7357  0.0963
  187POPC   H9X21591   4.654   6.744   3.976  0.9929 -1.8195 -2.2072
  187POPC   H9Y21592   4.726   6.886   3.891 -0.7059 -1.3546 -0.2588
  187POPC  C31021593   4.790   6.873   4.101 -0.2604  0.2283 -0.0942
  187POPC  H10X21594   4.699   6.904   4.155  0.0832 -1.0023  1.2592
  187POPC  H10Y21595   4.849   6.964   4.077 -1.9838  1.0870 -1.2948
  187POPC  C31121596   4.844   6.769   4.190 -0.0333  0.0384  0.8036
  187POPC  H11X21597   4.935   6.722   4.146 -2.1852 -1.8198 -1.9856
  187POPC  H11Y21598   4.762   6.694   4.197  0.3949 -0.5123  0.0358
  187POPC  C31221599   4.881   6.828   4.323  0.4206  0.3445  0.1887
  187POPC  H12X21600   4.789   6.876   4.363  0.6939 -0.1208  1.4056
  187POPC  H12Y21601   4.964   6.902   4.319 -0.5258  1.4257 -0.5446
  187POPC  C31321602   4.915   6.721   4.425 -0.6628  0.0974  0.0307
  187POPC  H13X21603   5.020   6.696   4.402 -1.7362 -1.4177 -4.0871
  187POPC  H13Y21604   4.848   6.635   4.404 -1.4470  1.2473 -2.5305
  187POPC  C31421605   4.896   6.780   4.566 -0.0617 -0.3539  0.6537
  187POPC  H14X21606   4.789   6.792   4.593 -0.0031  1.0952  0.2937
  187POPC  H14Y21607   4.951   6.876   4.570 -0.2247 -0.2679  0.8783
  187POPC  C31521608   4.957   6.691   4.678  0.4024 -0.1097 -0.5703
  187POPC  H15X21609   5.065   6.676   4.657  0.7077  0.0141  0.8387
  187POPC  H15Y21610   4.911   6.590   4.671  1.5248 -0.7575  0.8770
  187POPC  C31621611   4.930   6.743   4.823 -0.3245 -0.2704  0.5987
  187POPC  H16X21612   4.983   6.840   4.834 -0.3451  0.4596 -3.8453
  187POPC  H16Y21613   4.946   6.673   4.907  0.3161  1.0805  1.6464
  187POPC  H16Z21614   4.822   6.772   4.828  0.0488  1.0978  1.1493
  188POPC     N21615   6.485   3.997   2.415 -0.2477 -0.2017  0.0687
  188POPC   C1221616   6.538   4.128   2.486  0.4340  0.0269  0.0848
  188POPC  H12A21617   6.452   4.193   2.486 -0.3104 -0.9294 -0.9472
  188POPC  H12B21618   6.625   4.166   2.433  0.6335  1.4077  1.3344
  188POPC   C1321619   6.603   3.904   2.403 -0.1847  0.4854 -0.4199
  188POPC  H13A21620   6.680   3.931   2.333 -0.9200 -0.0599 -1.4775
  188POPC  H13B21621   6.647   3.874   2.497  0.3013 -1.1060 -1.1132
  188POPC  H13C21622   6.568   3.809   2.363 -2.7564  1.6365 -1.0761
  188POPC   C1421623   6.378   3.928   2.492  0.1833 -0.1971 -0.3098
  188POPC  H14A21624   6.335   3.839   2.448 -0.6481 -1.2195  2.4045
  188POPC  H14B21625   6.420   3.885   2.582 -1.9561 -0.8452  0.4335
  188POPC  H14C21626   6.295   3.993   2.512 -0.6100 -2.0780  3.1149
  188POPC   C1521627   6.453   4.026   2.269  0.1312 -0.1776  1.2180
  188POPC  H15A21628   6.367   4.091   2.259  1.8046  1.7978 -2.1933
  188POPC  H15B21629   6.423   3.937   2.217  1.3343  0.0883  0.0225
  188POPC  H15C21630   6.532   4.073   2.213  0.5506 -1.4381  0.7227
  188POPC   C1121631   6.585   4.122   2.635  0.4647 -0.4699 -0.4872
  188POPC  H11A21632   6.498   4.090   2.698  1.2541  1.1548  1.5545
  188POPC  H11B21633   6.609   4.222   2.677  0.7583 -1.3186  1.4636
  188POPC     P21634   6.847   4.063   2.658  0.0161 -0.1449  0.2563
  188POPC   O1321635   6.860   4.148   2.541 -0.7623  0.1134 -0.7005
  188POPC   O1421636   6.914   3.931   2.666  0.2922  0.0249  0.9024
  188POPC   O1221637   6.690   4.034   2.664 -0.0245 -1.1563  0.8217
  188POPC   O1121638   6.883   4.148   2.788  0.4844  0.2465  0.6193
  188POPC    C121639   6.859   4.289   2.800 -0.3592  0.2693  0.0128
  188POPC    HA21640   6.788   4.341   2.732 -0.6093  2.2209  1.6764
  188POPC    HB21641   6.956   4.337   2.773  0.0441 -0.8983 -0.6964
  188POPC    C221642   6.829   4.322   2.950  0.1142 -1.0404 -0.3264
  188POPC    HS21643   6.834   4.432   2.964  0.8487 -1.1055 -0.0154
  188POPC   O2121644   6.934   4.266   3.029  0.5932  0.2020 -0.1854
  188POPC   C2121645   7.041   4.329   3.042  0.3329  0.6239 -0.0722
  188POPC   O2221646   7.072   4.434   2.984  0.1788  0.6945 -0.1938
  188POPC   C2221647   7.134   4.260   3.137 -0.8365  0.4254 -0.0054
  188POPC   H2R21648   7.226   4.322   3.136  0.1746 -0.9556  1.9114
  188POPC   H2S21649   7.157   4.157   3.104 -0.4698  0.4181  0.2628
  188POPC    C321650   6.693   4.268   2.998  0.3366 -0.4384  0.7318
  188POPC    HX21651   6.685   4.166   2.954  0.9413  0.3568 -1.3832
  188POPC    HY21652   6.622   4.337   2.947 -1.4134 -1.8678  1.1492
  188POPC   O3121653   6.669   4.275   3.141 -0.3156  0.0732  0.1117
  188POPC   C3121654   6.564   4.210   3.196 -0.3815 -0.1231  0.1374
  188POPC   O3221655   6.476   4.146   3.139 -0.2017  0.0754  0.1862
  188POPC   C3221656   6.578   4.234   3.345  0.4984 -0.6070  0.4563
  188POPC   H2X21657   6.580   4.344   3.358  0.8198 -0.7611  1.9621
  188POPC   H2Y21658   6.674   4.202   3.391 -0.0666 -0.6399  1.6732
  188POPC   C2321659   7.079   4.265   3.284  0.6919  0.3544 -0.5575
  188POPC   H3R21660   7.162   4.223   3.345 -0.4573  1.9188  2.2662
  188POPC   H3S21661   6.987   4.206   3.301 -0.5623  1.4260 -3.0172
  188POPC   C2421662   7.064   4.410   3.339 -0.3380  0.4581  0.3823
  188POPC   H4R21663   6.984   4.465   3.285 -0.7856  0.5535  1.1395
  188POPC   H4S21664   7.160   4.455   3.305 -0.3418  0.9694  1.0374
  188POPC   C2521665   7.049   4.416   3.491 -0.0329  0.0144  0.8671
  188POPC   H5R21666   7.103   4.503   3.533 -1.2638  1.1135  0.2597
  188POPC   H5S21667   7.091   4.322   3.532  0.5364 -0.2347 -0.2373
  188POPC   C2621668   6.913   4.453   3.535 -0.1052  0.6106  0.0930
  188POPC   H6R21669   6.846   4.384   3.479 -1.9688  0.9098  1.8457
  188POPC   H6S21670   6.893   4.559   3.510  0.8100  1.0377  1.0902
  188POPC   C2721671   6.863   4.445   3.683 -0.0749  0.1465 -0.0489
  188POPC   H7R21672   6.851   4.338   3.713 -0.1627 -0.0781 -0.8743
  188POPC   H7S21673   6.760   4.487   3.687  0.2844  1.0377  0.0462
  188POPC   C2821674   6.951   4.520   3.784 -0.5520  0.1256 -0.2675
  188POPC   H8R21675   6.982   4.618   3.740  1.9455  0.0682  1.2161
  188POPC   H8S21676   7.043   4.460   3.795 -0.3672  0.8213  2.5918
  188POPC   C2921677   6.897   4.554   3.923 -0.2741 -0.1385  0.2939
  188POPC   H9121678   6.849   4.652   3.941  1.1356  0.1083  3.2693
  188POPC  C21021679   6.905   4.467   4.032  0.5194 -0.3253 -0.9322
  188POPC  H10121680   6.868   4.504   4.128  2.5600 -2.2193  0.6900
  188POPC  C21121681   6.969   4.330   4.032 -0.3606 -0.0367 -0.7442
  188POPC  H11R21682   7.077   4.349   4.019  0.2320 -3.2974 -1.3605
  188POPC  H11S21683   6.931   4.268   3.948 -0.8603  0.2408 -0.7273
  188POPC  C21221684   6.945   4.234   4.154  0.2210  0.0603  0.1676
  188POPC  H12R21685   6.977   4.132   4.126 -1.4011 -0.1611 -1.0499
  188POPC  H12S21686   6.836   4.231   4.174 -0.1699 -0.5689 -1.8558
  188POPC  C21321687   7.028   4.279   4.273 -0.7550 -1.2129  1.2021
  188POPC  H13R21688   7.012   4.384   4.306  0.6624 -0.6652  0.2515
  188POPC  H13S21689   7.138   4.273   4.257 -0.5299 -1.0191  2.5996
  188POPC  C21421690   7.009   4.182   4.391 -0.1594 -0.3900 -0.5368
  188POPC  H14R21691   7.047   4.091   4.340  1.4046  0.1111 -0.3263
  188POPC  H14S21692   6.903   4.174   4.420 -0.6991  0.4886 -2.1358
  188POPC  C21521693   7.087   4.235   4.510 -0.6688 -0.6138  0.1542
  188POPC  H15R21694   7.024   4.319   4.546 -2.6659 -0.8237 -2.5563
  188POPC  H15S21695   7.185   4.285   4.492 -0.1782 -1.3398  0.6867
  188POPC  C21621696   7.116   4.116   4.610 -0.1482 -0.0630  0.1586
  188POPC  H16R21697   7.173   4.053   4.538  0.0821  0.3446 -0.0192
  188POPC  H16S21698   7.016   4.094   4.651  0.3873  0.8893  2.0992
  188POPC  C21721699   7.203   4.162   4.726  0.2658  0.3555 -0.3564
  188POPC  H17R21700   7.148   4.240   4.783 -0.6188 -0.4852 -0.0312
  188POPC  H17S21701   7.300   4.196   4.684  0.2731 -0.6796 -1.2129
  188POPC  C21821702   7.243   4.052   4.826 -0.4231 -0.3175 -0.0526
  188POPC  H18R21703   7.251   4.084   4.932 -1.7005 -0.8041  0.2161
  188POPC  H18S21704   7.329   3.996   4.782 -0.9100 -0.2487 -1.1319
  188POPC  H18T21705   7.156   3.984   4.838  0.0386 -0.5658  2.3159
  188POPC   C3321706   6.459   4.165   3.420  0.1560 -0.3732  0.0934
  188POPC   H3X21707   6.443   4.060   3.388 -1.8091 -0.3816  0.9363
  188POPC   H3Y21708   6.368   4.221   3.389  1.4631  0.7910 -1.8197
  188POPC   C3421709   6.471   4.163   3.571 -0.5542 -0.3770  0.2619
  188POPC   H4X21710   6.557   4.100   3.599  0.5015  1.4212  1.2684
  188POPC   H4Y21711   6.380   4.120   3.618  0.0471 -1.3114  0.5673
  188POPC   C3521712   6.486   4.308   3.621 -0.5227  0.2024  0.8940
  188POPC   H5X21713   6.401   4.363   3.574 -1.4965 -2.6180 -0.9049
  188POPC   H5Y21714   6.580   4.355   3.584 -0.0830 -2.1609 -1.2696
  188POPC   C3621715   6.497   4.315   3.769 -0.7190 -0.1179 -0.4218
  188POPC   H6X21716   6.599   4.277   3.790 -0.0560 -0.6128 -3.9326
  188POPC   H6Y21717   6.430   4.234   3.807 -0.3202 -1.4136 -2.3099
  188POPC   C3721718   6.458   4.444   3.840 -0.0900  0.4049 -0.1303
  188POPC   H7X21719   6.348   4.458   3.840  0.0054  1.3508  1.2105
  188POPC   H7Y21720   6.493   4.532   3.783  0.2991  0.5169  0.2785
  188POPC   C3821721   6.501   4.436   3.989 -0.0470 -0.3574 -0.0229
  188POPC   H8X21722   6.609   4.412   3.997 -0.0253 -0.1351  0.3642
  188POPC   H8Y21723   6.458   4.343   4.035  1.5199 -0.4887  1.2499
  188POPC   C3921724   6.473   4.569   4.064  0.1386 -0.4126 -0.1726
  188POPC   H9X21725   6.373   4.595   4.023  0.5177 -1.1202 -1.6193
  188POPC   H9Y21726   6.547   4.643   4.026 -0.3841  1.2368  1.8643
  188POPC  C31021727   6.489   4.559   4.212  0.5850 -0.3055 -0.8223
  188POPC  H10X21728   6.421   4.481   4.251 -0.8796  1.0290 -0.5970
  188POPC  H10Y21729   6.466   4.661   4.249 -0.2966  0.1359 -2.4670
  188POPC  C31121730   6.622   4.508   4.269 -0.2230 -0.1695 -0.3826
  188POPC  H11X21731   6.704   4.575   4.235  2.0981 -1.8738  1.4438
  188POPC  H11Y21732   6.643   4.406   4.230 -1.4202 -1.1296  1.3245
  188POPC  C31221733   6.620   4.495   4.420 -0.0077  0.5339 -0.2824
  188POPC  H12X21734   6.570   4.404   4.459 -1.1158 -0.1274 -3.0411
  188POPC  H12Y21735   6.565   4.582   4.463 -1.9428 -1.3066  1.1738
  188POPC  C31321736   6.762   4.488   4.479  0.4974 -0.6119  0.4055
  188POPC  H13X21737   6.826   4.413   4.426 -0.2747 -1.8295  1.1422
  188POPC  H13Y21738   6.751   4.450   4.583 -2.3749 -3.0870 -0.6364
  188POPC  C31421739   6.825   4.625   4.498 -0.2546  0.3908  0.9294
  188POPC  H14X21740   6.751   4.699   4.535  1.0722  1.0314  2.4148
  188POPC  H14Y21741   6.856   4.658   4.396  0.9909 -2.3807  0.3226
  188POPC  C31521742   6.937   4.625   4.604 -0.2367  0.2722  0.1030
  188POPC  H15X21743   7.018   4.552   4.582  0.6310  0.8641  1.2302
  188POPC  H15Y21744   6.883   4.593   4.695 -0.5164  1.1025  0.2357
  188POPC  C31621745   7.000   4.763   4.641 -0.1061  1.0519  0.1156
  188POPC  H16X21746   7.048   4.821   4.560 -2.3121  3.1946  0.2195
  188POPC  H16Y21747   7.071   4.747   4.725  0.0625  0.8516 -0.0667
  188POPC  H16Z21748   6.915   4.825   4.679 -1.3628 -0.1870 -0.5985
  189SAPI   C1221749   0.690   0.686   7.032  0.1611 -0.8399  0.1225
  189SAPI    H221750   0.595   0.713   7.084  0.5926  0.0638  0.4684
  189SAPI    O221751   0.774   0.633   7.131 -0.0386 -0.5449 -0.0923
  189SAPI   HO221752   0.773   0.702   7.198  0.6293  0.5337 -1.1374
  189SAPI   C1321753   0.646   0.582   6.933  0.3102  0.2934  0.5599
  189SAPI    H321754   0.579   0.628   6.857 -0.2849 -0.9562  0.2946
  189SAPI    O321755   0.579   0.474   6.992 -0.0380  0.2132 -0.0713
  189SAPI   HO321756   0.601   0.482   7.085  0.3634 -2.9505  0.2174
  189SAPI   C1421757   0.770   0.528   6.863  0.1466 -0.1214  0.2633
  189SAPI    H421758   0.821   0.462   6.937  0.1302  1.8381  2.1150
  189SAPI    O421759   0.732   0.439   6.760 -0.2295  0.3443  0.4125
  189SAPI   HO421760   0.727   0.348   6.791  0.3743  0.5269  1.0577
  189SAPI   C1521761   0.874   0.631   6.811 -0.2461  0.1768  0.2199
  189SAPI    H521762   0.832   0.664   6.713  0.8690 -0.4469 -0.4737
  189SAPI    O521763   1.004   0.575   6.797  0.1857  0.6474 -0.5651
  189SAPI   HO521764   0.999   0.481   6.778  0.1955  0.8143 -1.4729
  189SAPI   C1621765   0.882   0.765   6.887 -0.7123 -0.4348 -0.0192
  189SAPI    H621766   0.956   0.746   6.968 -0.9585 -0.1579  0.2745
  189SAPI    O621767   0.928   0.869   6.799  0.0285  0.3186 -0.4066
  189SAPI   HO621768   1.018   0.864   6.766 -0.0452 -0.5687 -0.5041
  189SAPI   C1121769   0.753   0.808   6.970 -0.5613 -0.5020  0.0099
  189SAPI    H121770   0.687   0.847   6.889 -0.4354 -0.9930 -0.3349
  189SAPI     P21771   0.656   1.005   7.109  0.4674  0.3452 -0.1348
  189SAPI   O1321772   0.700   1.095   7.217  0.3933 -0.2468  0.3960
  189SAPI   O1421773   0.525   0.940   7.128 -0.2564 -0.1028  0.0078
  189SAPI   O1221774   0.780   0.899   7.073  0.5714 -0.4651 -0.2445
  189SAPI   O1121775   0.654   1.091   6.972 -0.4480 -0.0094  0.4158
  189SAPI    C121776   0.545   1.165   6.944 -0.1120 -0.8769 -0.0449
  189SAPI    HA21777   0.486   1.200   7.031 -4.1015 -0.1934 -2.7571
  189SAPI    HB21778   0.572   1.259   6.891 -0.1683 -0.3682  0.8240
  189SAPI    C221779   0.439   1.102   6.847 -0.3429  0.5091 -0.7321
  189SAPI    HS21780   0.413   1.016   6.911 -1.5708  0.0439 -1.8235
  189SAPI   O2121781   0.498   1.058   6.723 -0.2718 -0.0029  0.4716
  189SAPI   C2121782   0.477   0.932   6.693  0.0538 -0.9038  0.5015
  189SAPI   O2221783   0.393   0.862   6.743  0.0520  0.0029  0.0032
  189SAPI   C2221784   0.595   0.877   6.608  0.0469 -0.0363 -0.1476
  189SAPI   H2R21785   0.607   0.927   6.510  1.0085 -1.1565 -0.6264
  189SAPI   H2S21786   0.690   0.893   6.663 -0.3551  0.4348  0.4181
  189SAPI    C321787   0.316   1.189   6.828  0.9851  0.1301 -0.3905
  189SAPI    HX21788   0.357   1.281   6.781  1.6306  1.2462  2.1946
  189SAPI    HY21789   0.267   1.212   6.925 -2.1739 -1.8287 -1.3468
  189SAPI   O3121790   0.222   1.133   6.733  0.2556 -0.6443 -0.0224
  189SAPI   C3121791   0.137   1.043   6.779 -0.7004 -0.4710  1.1026
  189SAPI   O3221792   0.127   1.014   6.897  0.2917 -0.2123 -0.0516
  189SAPI   C3221793   0.042   0.996   6.670  0.9162 -0.2170  0.5007
  189SAPI   H2X21794  -0.048   1.061   6.674  1.0127  0.0342 -1.0048
  189SAPI   H2Y21795   0.008   0.893   6.694 -0.8736  0.6016  1.6937
  189SAPI   C2321796   0.584   0.727   6.569  0.2876  0.8494 -0.5063
  189SAPI   H3R21797   0.481   0.716   6.530  0.0187  0.3889  0.2987
  189SAPI   H3S21798   0.585   0.661   6.659  1.8322  1.2021 -0.2395
  189SAPI   C2421799   0.686   0.699   6.461 -0.3236 -0.4380  0.4554
  189SAPI   H4R21800   0.788   0.723   6.496  0.1842 -1.1391 -0.4967
  189SAPI   H4S21801   0.678   0.770   6.376  2.3088  1.7199  1.8628
  189SAPI   C2521802   0.691   0.553   6.418 -0.0445  0.2898  0.7063
  189SAPI   H5R21803   0.733   0.486   6.494  0.2436  1.7395  1.8791
  189SAPI   C2621804   0.679   0.504   6.298 -0.1930 -0.6277 -0.0943
  189SAPI   H6R21805   0.712   0.403   6.268 -0.1114 -0.4351 -0.6789
  189SAPI   C2721806   0.657   0.579   6.163  0.1910  0.5210 -0.3253
  189SAPI   H7R21807   0.599   0.673   6.172  0.5046  1.1750 -3.7730
  189SAPI   H7S21808   0.595   0.511   6.100  0.4685  0.1061 -0.1575
  189SAPI   C2821809   0.786   0.627   6.103 -0.6537  0.5736 -0.8045
  189SAPI   H8R21810   0.839   0.715   6.143 -0.2632  0.5350 -1.2321
  189SAPI   C2921811   0.846   0.580   5.995  0.7922  0.1939 -0.6510
  189SAPI   H9R21812   0.933   0.638   5.962  2.5590 -0.9631  1.6906
  189SAPI  C21021813   0.799   0.461   5.915 -0.0120  0.4434 -0.0628
  189SAPI  H10R21814   0.728   0.391   5.964 -1.4507 -1.5356 -4.4394
  189SAPI  H10S21815   0.881   0.387   5.903  1.2909  1.7226  0.7104
  189SAPI  C21121816   0.735   0.501   5.781 -0.2288 -0.6860 -0.3028
  189SAPI  H11R21817   0.646   0.565   5.784  0.2056 -0.1202  0.7403
  189SAPI  C21221818   0.785   0.477   5.655 -0.0853 -0.0785 -1.2008
  189SAPI  H12R21819   0.749   0.524   5.562  0.7787  1.2200 -0.9166
  189SAPI  C21321820   0.908   0.403   5.625 -0.1681  0.5920 -0.9530
  189SAPI  H13R21821   0.872   0.303   5.593  2.1828 -0.4856 -0.4247
  189SAPI  H13S21822   0.963   0.392   5.721 -2.6293  1.6744  0.6967
  189SAPI  C21421823   0.999   0.469   5.527 -0.4506  1.1381  0.8760
  189SAPI  H14R21824   1.046   0.566   5.548  2.8517 -0.0156 -0.5995
  189SAPI  C21521825   1.038   0.422   5.405 -0.6861 -0.0578  0.3645
  189SAPI  H15R21826   1.105   0.493   5.353  3.2913 -1.6292  2.8521
  189SAPI  C21621827   0.981   0.296   5.347  0.4093  0.8800 -0.8331
  189SAPI  H16R21828   0.870   0.290   5.341  0.3255 -0.5048  1.2273
  189SAPI  H16S21829   0.997   0.213   5.418 -1.3185  0.6963 -0.6186
  189SAPI  C21721830   1.044   0.261   5.217  0.3448 -0.9606  0.1241
  189SAPI  H17R21831   1.154   0.255   5.219  0.4660  0.8756  1.0118
  189SAPI  H17S21832   1.026   0.336   5.136  1.5402 -0.3171  0.4315
  189SAPI  C21821833   0.989   0.135   5.154 -0.0198 -0.6538  0.6409
  189SAPI  H18R21834   0.879   0.137   5.164 -0.2552 -2.8444 -0.7359
  189SAPI  H18S21835   1.030   0.051   5.214 -0.3048 -2.5399 -1.6331
  189SAPI  C21921836   1.042   0.112   5.007  0.5878 -0.1837  0.1079
  189SAPI  H19R21837   0.978   0.171   4.938 -1.3096 -3.1594 -0.8554
  189SAPI  H19S21838   1.020   0.006   4.982  0.6312 -0.5570  1.5464
  189SAPI  C22021839   1.187   0.138   4.975  0.1879 -0.6759 -1.3378
  189SAPI  H20R21840   1.193   0.124   4.865  3.2052 -2.6975 -1.0333
  189SAPI  H20S21841   1.248   0.055   5.016  2.9629  1.7209 -0.2979
  189SAPI  H20T21842   1.224   0.237   5.009  4.4705 -2.4990 -0.0008
  189SAPI   C3321843   0.097   1.010   6.527  0.3983  0.0501  0.3083
  189SAPI   H3X21844   0.062   0.919   6.473 -0.4382 -0.0232  0.9552
  189SAPI   H3Y21845   0.208   1.008   6.524  0.3833 -1.3052 -1.7532
  189SAPI   C3421846   0.053   1.138   6.459  0.4238 -0.4857 -0.0010
  189SAPI   H4X21847   0.088   1.228   6.514  0.3998 -0.5023  0.0412
  189SAPI   H4Y21848  -0.058   1.140   6.463  0.3630  2.4860 -1.0401
  189SAPI   C3521849   0.099   1.158   6.316 -0.1158  0.2647  0.5818
  189SAPI   H5X21850   0.210   1.163   6.325 -0.0700 -2.1157  2.4585
  189SAPI   H5Y21851   0.063   1.257   6.280  5.0968  0.6928 -4.9798
  189SAPI   C3621852   0.060   1.061   6.203  0.0366  0.4792  0.5001
  189SAPI   H6X21853  -0.051   1.063   6.193 -0.1711 -3.9020  0.0956
  189SAPI   H6Y21854   0.085   0.964   6.250  3.7393  1.0852  0.0715
  189SAPI   C3721855   0.121   1.085   6.061 -0.6273 -0.6960 -0.7479
  189SAPI   H7X21856   0.230   1.068   6.074 -0.4322  1.3372  0.7744
  189SAPI   H7Y21857   0.094   1.188   6.031 -0.4036 -0.1967  0.6897
  189SAPI   C3821858   0.069   0.980   5.971 -0.1185  0.2721 -0.3313
  189SAPI   H8X21859  -0.041   0.989   5.958 -0.4760 -1.7795  0.8596
  189SAPI   H8Y21860   0.104   0.882   6.010  1.3565  2.0029  3.1431
  189SAPI   C3921861   0.114   1.004   5.828 -1.3286  0.4872 -0.7756
  189SAPI   H9X21862   0.224   0.988   5.830 -0.9320  2.8553 -0.5110
  189SAPI   H9Y21863   0.087   1.108   5.797 -4.1890  0.4333  1.2030
  189SAPI  C31021864   0.048   0.905   5.726 -0.2960  0.0206 -0.2007
  189SAPI  H10X21865  -0.052   0.947   5.703 -0.1841  3.5006  4.2173
  189SAPI  H10Y21866   0.045   0.804   5.773  0.5291 -0.7291 -1.6918
  189SAPI  C31121867   0.135   0.887   5.599 -0.6433  0.6369  1.2390
  189SAPI  H11X21868   0.076   0.813   5.541 -0.5951  1.1818  0.4883
  189SAPI  H11Y21869   0.235   0.845   5.622 -0.1437  1.4509  0.6176
  189SAPI  C31221870   0.155   1.011   5.515 -0.1351 -0.0892  0.3976
  189SAPI  H12X21871   0.234   1.068   5.568  0.1612 -0.2966  0.1836
  189SAPI  H12Y21872   0.065   1.077   5.517  0.9806  1.4678  0.9654
  189SAPI  C31321873   0.206   0.969   5.376 -0.0953 -0.2799  0.0222
  189SAPI  H13X21874   0.115   0.929   5.326 -0.3282  1.9213 -1.4560
  189SAPI  H13Y21875   0.282   0.889   5.380 -0.2891 -0.7899 -3.3148
  189SAPI  C31421876   0.261   1.090   5.297  0.1198  0.3224 -0.2700
  189SAPI  H14X21877   0.352   1.120   5.354  0.6472 -2.3484  0.4187
  189SAPI  H14Y21878   0.185   1.170   5.307 -2.2653 -1.6958 -1.3053
  189SAPI  C31521879   0.301   1.053   5.161  0.4070  0.0527  0.4040
  189SAPI  H15X21880   0.214   1.013   5.104  0.6180  0.6300 -0.3452
  189SAPI  H15Y21881   0.379   0.974   5.164 -0.1650 -0.7067 -2.1315
  189SAPI  C31621882   0.354   1.168   5.071  0.6868  0.1624 -0.2599
  189SAPI  H16X21883   0.455   1.204   5.100  1.5240 -1.8676 -0.4802
  189SAPI  H16Y21884   0.280   1.250   5.063 -1.7009 -1.9923 -1.6947
  189SAPI  C31721885   0.369   1.115   4.928  0.6302  0.6836  0.0364
  189SAPI  H17X21886   0.267   1.080   4.902  0.4273 -0.3801  2.0432
  189SAPI  H17Y21887   0.431   1.023   4.929  0.9266  0.7930 -2.2657
  189SAPI  C31821888   0.414   1.215   4.820 -0.2679  0.2978 -0.3297
  189SAPI  H18X21889   0.437   1.166   4.723  1.4903  1.2611 -0.4296
  189SAPI  H18Y21890   0.508   1.264   4.854 -0.8151  3.0564 -2.4134
  189SAPI  H18Z21891   0.328   1.284   4.799 -0.1176  0.9150  0.9802
  190SAPI   C1221892   1.698   4.585   7.256 -0.0884  0.4358 -0.0005
  190SAPI    H221893   1.727   4.692   7.261  0.9398  0.1483  0.3942
  190SAPI    O221894   1.775   4.516   7.356 -0.1259  0.1644 -0.0341
  190SAPI   HO221895   1.862   4.527   7.317 -0.2194 -1.2386 -0.7050
  190SAPI   C1321896   1.549   4.569   7.284  0.1594  0.7844  0.1380
  190SAPI    H321897   1.497   4.643   7.221  0.8488  0.8054 -0.4216
  190SAPI    O321898   1.517   4.612   7.419 -0.7326 -0.3775  0.2342
  190SAPI   HO321899   1.526   4.707   7.407  4.9520 -0.3397  1.9637
  190SAPI   C1421900   1.498   4.434   7.264  0.4390  0.3981  0.2443
  190SAPI    H421901   1.537   4.370   7.346 -0.7358  0.9242  1.2504
  190SAPI    O421902   1.350   4.434   7.267 -0.2329 -0.7414 -0.0580
  190SAPI   HO421903   1.322   4.514   7.222 -0.3059 -1.1412 -0.7326
  190SAPI   C1521904   1.546   4.357   7.136 -0.8377 -0.4980  0.1103
  190SAPI    H521905   1.479   4.405   7.061 -0.3194  1.7658  0.9996
  190SAPI    O521906   1.511   4.214   7.143  0.3412  0.0626  0.0563
  190SAPI   HO521907   1.515   4.182   7.233 -1.7950 -2.1994 -0.5668
  190SAPI   C1621908   1.693   4.389   7.089  0.1421  0.1028 -0.6651
  190SAPI    H621909   1.769   4.322   7.134 -1.7160 -2.9920 -1.8172
  190SAPI    O621910   1.707   4.363   6.952  0.2656 -0.8384 -0.3247
  190SAPI   HO621911   1.782   4.415   6.922 -1.5885  1.4068 -1.3109
  190SAPI   C1121912   1.732   4.533   7.121  0.2932  0.9442  0.4351
  190SAPI    H121913   1.681   4.601   7.049  1.8892 -0.0046 -1.6977
  190SAPI     P21914   1.955   4.687   7.033 -0.3394 -0.0714 -0.1132
  190SAPI   O1321915   2.098   4.649   7.035  0.2469 -0.0868  0.1995
  190SAPI   O1421916   1.921   4.812   7.106  0.5847 -0.2528  0.0654
  190SAPI   O1221917   1.875   4.551   7.097  0.2998  0.1928 -0.7299
  190SAPI   O1121918   1.915   4.704   6.882  0.0193  0.2640  0.6205
  190SAPI    C121919   1.936   4.598   6.786 -0.9523  0.7500 -0.2851
  190SAPI    HA21920   1.966   4.500   6.828 -0.2938 -0.2791 -2.9692
  190SAPI    HB21921   1.838   4.593   6.734 -2.0797  1.7133  1.6284
  190SAPI    C221922   2.052   4.636   6.687  0.3144 -0.0589 -0.1600
  190SAPI    HS21923   2.067   4.555   6.613 -0.6855 -0.6636  0.2735
  190SAPI   O2121924   2.179   4.660   6.753  0.6329  0.2017 -0.5495
  190SAPI   C2121925   2.245   4.551   6.800  0.6200  0.0127 -0.2853
  190SAPI   O2221926   2.208   4.436   6.779 -0.0026 -0.5968 -0.7570
  190SAPI   C2221927   2.378   4.597   6.860  0.4028  0.6281  0.2123
  190SAPI   H2R21928   2.412   4.686   6.803 -0.0902 -0.4905 -1.9177
  190SAPI   H2S21929   2.355   4.633   6.963 -0.0793  1.5276 -0.2069
  190SAPI    C321930   2.018   4.766   6.608 -0.3628  0.6001  0.2709
  190SAPI    HX21931   2.106   4.789   6.544  0.4230 -2.3497  0.1381
  190SAPI    HY21932   1.997   4.842   6.686  2.3651 -1.8779  3.7279
  190SAPI   O3121933   1.899   4.742   6.526  0.6191 -0.1375  0.2426
  190SAPI   C3121934   1.916   4.725   6.393  0.2042 -0.0726 -0.4285
  190SAPI   O3221935   2.016   4.690   6.336  0.1523  0.1659  0.4083
  190SAPI   C3221936   1.789   4.786   6.319 -0.4867  0.4274 -0.9184
  190SAPI   H2X21937   1.791   4.896   6.330 -1.5034  0.2538  1.8630
  190SAPI   H2Y21938   1.699   4.759   6.377  0.1064  2.6752  1.1930
  190SAPI   C2321939   2.483   4.478   6.861  0.5168 -0.0990 -0.0082
  190SAPI   H3R21940   2.448   4.384   6.909  2.0909  0.1803  1.8293
  190SAPI   H3S21941   2.566   4.522   6.921  0.7941 -1.0491  0.3249
  190SAPI   C2421942   2.548   4.448   6.716  0.0872  0.1958  0.0335
  190SAPI   H4R21943   2.477   4.378   6.667  0.1382  0.0859  0.1146
  190SAPI   H4S21944   2.637   4.390   6.748  0.6118 -0.2460 -2.0822
  190SAPI   C2521945   2.583   4.574   6.643 -0.5254  0.2338 -0.2087
  190SAPI   H5R21946   2.650   4.643   6.696  0.8891  1.0690 -2.9054
  190SAPI   C2621947   2.551   4.622   6.526  0.3681 -0.3308 -0.2143
  190SAPI   H6R21948   2.604   4.712   6.492 -2.0521  1.9526  1.6310
  190SAPI   C2721949   2.448   4.555   6.432 -0.5667  0.1717 -0.4649
  190SAPI   H7R21950   2.369   4.494   6.480 -1.9131 -0.0125 -2.7802
  190SAPI   H7S21951   2.502   4.472   6.382  0.8936 -1.1401  2.9424
  190SAPI   C2821952   2.383   4.652   6.335 -0.0911 -0.5574 -0.8698
  190SAPI   H8R21953   2.276   4.677   6.341  0.2402  0.9276 -0.6237
  190SAPI   C2921954   2.438   4.700   6.224 -0.8499 -0.0014  0.1759
  190SAPI   H9R21955   2.375   4.772   6.170 -0.6676  0.4331  0.5421
  190SAPI  C21021956   2.581   4.684   6.184 -0.4974 -0.3671 -0.2598
  190SAPI  H10R21957   2.635   4.621   6.258 -0.0026  0.1307 -0.1938
  190SAPI  H10S21958   2.637   4.779   6.176 -1.8477  0.4097 -0.7241
  190SAPI  C21121959   2.607   4.623   6.043 -0.4290 -0.8111  0.3113
  190SAPI  H11R21960   2.672   4.534   6.054 -1.9389 -1.9703  0.1494
  190SAPI  C21221961   2.562   4.649   5.922  0.3999  0.4052  0.9914
  190SAPI  H12R21962   2.592   4.593   5.832 -0.0425  2.4855 -0.5448
  190SAPI  C21321963   2.473   4.768   5.880 -0.1341 -0.5522  0.0568
  190SAPI  H13R21964   2.504   4.814   5.784 -0.7945  2.1358  1.0499
  190SAPI  H13S21965   2.475   4.852   5.952 -0.3629  0.5186 -1.1397
  190SAPI  C21421966   2.333   4.715   5.865 -0.5463 -0.2627  0.0791
  190SAPI  H14R21967   2.302   4.654   5.952  3.6017 -1.2239  1.1475
  190SAPI  C21521968   2.250   4.729   5.759 -0.1977  0.1365  0.0098
  190SAPI  H15R21969   2.148   4.689   5.764 -0.8726  1.6727 -0.6762
  190SAPI  C21621970   2.284   4.799   5.627 -0.0321 -0.1960  0.0706
  190SAPI  H16R21971   2.383   4.849   5.633 -0.4588  0.5721  0.7817
  190SAPI  H16S21972   2.205   4.874   5.603  0.8617  0.7652  0.0539
  190SAPI  C21721973   2.292   4.687   5.526 -0.1919  0.0987 -0.3460
  190SAPI  H17R21974   2.202   4.622   5.526  1.8802 -2.9651  0.1519
  190SAPI  H17S21975   2.371   4.614   5.553 -1.8564 -1.0713  1.7000
  190SAPI  C21821976   2.326   4.748   5.394 -0.5766 -0.2109  0.5593
  190SAPI  H18R21977   2.431   4.782   5.381 -1.4528  1.2884 -5.6046
  190SAPI  H18S21978   2.272   4.839   5.360 -0.4406 -0.2606  0.1976
  190SAPI  C21921979   2.304   4.658   5.269  1.4738  0.0659  0.7578
  190SAPI  H19R21980   2.207   4.610   5.292  1.2524 -0.6610 -1.4472
  190SAPI  H19S21981   2.380   4.577   5.261  0.8661 -0.3103 -3.1158
  190SAPI  C22021982   2.287   4.726   5.133 -0.3850  0.3526  0.3554
  190SAPI  H20R21983   2.253   4.657   5.053 -1.6121  0.2814  0.9117
  190SAPI  H20S21984   2.387   4.766   5.103 -0.9104  1.7738  0.3964
  190SAPI  H20T21985   2.212   4.806   5.151 -0.4859  0.2602  0.3479
  190SAPI   C3321986   1.784   4.732   6.173 -0.9154  0.3518  0.2583
  190SAPI   H3X21987   1.678   4.707   6.151 -0.6795 -1.3209  0.8792
  190SAPI   H3Y21988   1.843   4.638   6.162 -0.0164  0.9613 -0.2434
  190SAPI   C3421989   1.831   4.831   6.062 -0.1061 -0.4046 -0.5715
  190SAPI   H4X21990   1.940   4.841   6.080 -0.4283 -0.8619  2.0752
  190SAPI   H4Y21991   1.783   4.924   6.098  0.8255 -0.8752  2.0710
  190SAPI   C3521992   1.819   4.789   5.916  0.6015 -0.3466 -0.6907
  190SAPI   H5X21993   1.714   4.755   5.906  0.1558  0.9378 -0.5184
  190SAPI   H5Y21994   1.881   4.699   5.894 -0.8598 -1.0559 -2.1596
  190SAPI   C3621995   1.833   4.907   5.818 -0.3778 -0.6796  0.0793
  190SAPI   H6X21996   1.939   4.939   5.821 -0.4572 -0.4872  1.2462
  190SAPI   H6Y21997   1.772   4.995   5.846 -0.3763  0.4979 -3.2354
  190SAPI   C3721998   1.787   4.879   5.674 -0.0120  0.1641 -0.6877
  190SAPI   H7X21999   1.733   4.963   5.625 -1.1010 -0.1604 -0.0773
  190SAPI   H7Y22000   1.704   4.805   5.679 -1.2685  1.5925  2.7840
  190SAPI   C3822001   1.898   4.819   5.581 -0.1602 -0.2438 -0.6457
  190SAPI   H8X22002   1.928   4.720   5.620  0.3712 -0.2316 -1.0108
  190SAPI   H8Y22003   1.984   4.888   5.597 -0.9420  0.2042  2.1152
  190SAPI   C3922004   1.863   4.818   5.432 -0.1858  0.2762  0.5562
  190SAPI   H9X22005   1.954   4.806   5.370 -0.4187 -1.7318  0.5440
  190SAPI   H9Y22006   1.822   4.917   5.401 -0.3906  0.9361  2.7499
  190SAPI  C31022007   1.760   4.713   5.402 -0.7624  0.2635  0.2578
  190SAPI  H10X22008   1.659   4.746   5.434 -0.3574 -0.0082  1.9088
  190SAPI  H10Y22009   1.793   4.620   5.454  1.4059 -0.8647 -2.8183
  190SAPI  C31122010   1.764   4.676   5.252 -0.3895  0.4063 -0.4106
  190SAPI  H11X22011   1.864   4.639   5.221  0.6469  0.6730  2.2904
  190SAPI  H11Y22012   1.745   4.770   5.195 -3.6326 -0.5147 -1.0548
  190SAPI  C31222013   1.638   4.591   5.226  0.0856  0.3973 -0.1593
  190SAPI  H12X22014   1.599   4.618   5.125  1.8721 -0.9634 -1.2774
  190SAPI  H12Y22015   1.563   4.600   5.307 -2.0039 -1.4052 -1.7600
  190SAPI  C31322016   1.671   4.443   5.244 -0.5712  0.7485 -0.2230
  190SAPI  H13X22017   1.677   4.421   5.353 -0.6218 -0.4324 -0.4435
  190SAPI  H13Y22018   1.765   4.419   5.190 -0.7383 -2.0438  0.5561
  190SAPI  C31422019   1.574   4.346   5.178 -0.1390  0.2013  0.0455
  190SAPI  H14X22020   1.529   4.385   5.085  0.6062 -2.3428 -1.4815
  190SAPI  H14Y22021   1.478   4.334   5.232 -2.5062  2.9871 -3.1525
  190SAPI  C31522022   1.632   4.211   5.128  0.3465 -0.2555 -0.1374
  190SAPI  H15X22023   1.700   4.156   5.197  0.5281 -3.5585 -2.6864
  190SAPI  H15Y22024   1.704   4.238   5.047 -0.3764  0.1968 -0.6398
  190SAPI  C31622025   1.527   4.118   5.049 -0.0103 -0.1011  0.5783
  190SAPI  H16X22026   1.487   4.186   4.971 -2.0982  0.1358  1.8037
  190SAPI  H16Y22027   1.441   4.090   5.113  1.3310 -0.1602  2.4463
  190SAPI  C31722028   1.596   4.001   4.987  0.6274 -0.0611  0.3237
  190SAPI  H17X22029   1.525   3.924   4.951 -0.0148  1.0437 -0.8402
  190SAPI  H17Y22030   1.654   3.955   5.070  1.6954  0.3981 -0.1479
  190SAPI  C31822031   1.686   4.022   4.872 -0.0255 -0.0054 -0.2644
  190SAPI  H18X22032   1.728   3.922   4.848 -1.4533 -0.2252 -2.1317
  190SAPI  H18Y22033   1.762   4.101   4.890 -0.8222  0.7257  0.0250
  190SAPI  H18Z22034   1.627   4.040   4.779  0.8191  1.3054 -0.5858
  191SAPI   C1222035   2.429   4.829   2.602 -0.5025 -0.2660  0.7281
  191SAPI    H222036   2.385   4.841   2.704 -2.0966  0.8168 -0.0297
  191SAPI    O222037   2.422   4.698   2.568  0.1717  0.3872  0.1428
  191SAPI   HO222038   2.480   4.643   2.621  0.5767 -0.5123 -1.1888
  191SAPI   C1322039   2.343   4.906   2.503  0.7329 -0.8633 -0.3207
  191SAPI    H322040   2.348   5.008   2.546 -1.2745 -0.9678  0.2531
  191SAPI    O322041   2.206   4.875   2.515 -0.2086 -0.4281 -0.6027
  191SAPI   HO322042   2.189   4.788   2.480 -0.6662 -0.4114 -0.4337
  191SAPI   C1422043   2.392   4.908   2.360 -0.1918  0.0879  0.0046
  191SAPI    H422044   2.355   4.812   2.317  0.0408  0.4039 -0.9200
  191SAPI    O422045   2.318   5.003   2.278 -0.3129 -0.5539 -0.6236
  191SAPI   HO422046   2.339   5.091   2.311  1.4427 -1.9658  2.4126
  191SAPI   C1522047   2.544   4.898   2.335  0.0732  0.1176  0.1908
  191SAPI    H522048   2.565   5.004   2.310  0.7738  0.4001  1.8485
  191SAPI    O522049   2.562   4.830   2.208  0.0237 -0.4867 -0.2953
  191SAPI   HO522050   2.484   4.798   2.163  0.2758 -0.0851 -1.0291
  191SAPI   C1622051   2.632   4.845   2.447 -1.0443 -0.0471  0.2494
  191SAPI    H622052   2.624   4.735   2.442 -0.9873 -0.0154 -0.7393
  191SAPI    O622053   2.765   4.885   2.437  0.1452 -0.6406 -0.5235
  191SAPI   HO622054   2.821   4.848   2.505  0.8135  0.0198 -0.6930
  191SAPI   C1122055   2.573   4.879   2.582  0.6939 -0.7106 -0.0159
  191SAPI    H122056   2.560   4.989   2.575 -2.3954 -1.0663 -2.9729
  191SAPI     P22057   2.663   4.922   2.822  0.0314  0.4414 -0.3094
  191SAPI   O1322058   2.666   5.067   2.782  0.7018 -0.1852 -0.6009
  191SAPI   O1422059   2.776   4.877   2.906 -0.4049  0.0174  0.1987
  191SAPI   O1222060   2.650   4.828   2.687 -0.6039  0.1952 -0.5859
  191SAPI   O1122061   2.534   4.895   2.912  0.1730  0.8008  0.1256
  191SAPI    C122062   2.494   4.763   2.934  0.8058 -0.4448 -0.2037
  191SAPI    HA22063   2.400   4.745   2.877  0.6477  3.2170 -1.3861
  191SAPI    HB22064   2.574   4.690   2.911  1.8155  0.7990 -0.7371
  191SAPI    C222065   2.462   4.748   3.085  0.5017  0.9117 -0.1470
  191SAPI    HS22066   2.439   4.642   3.107 -1.2460  1.1080 -0.8827
  191SAPI   O2122067   2.358   4.832   3.124 -0.1614  0.8693  0.4436
  191SAPI   C2122068   2.288   4.800   3.236  0.3225 -0.0614  0.5327
  191SAPI   O2222069   2.297   4.698   3.300  0.5495  0.5573 -0.2621
  191SAPI   C2222070   2.184   4.904   3.264 -0.5391 -0.9164 -0.0324
  191SAPI   H2R22071   2.225   4.999   3.224 -1.8103 -0.2683  0.1805
  191SAPI   H2S22072   2.088   4.884   3.212 -1.1086  1.2420  0.1217
  191SAPI    C322073   2.589   4.792   3.169 -0.2115  0.3878 -0.5259
  191SAPI    HX22074   2.623   4.892   3.137  1.2737  0.5842  1.5019
  191SAPI    HY22075   2.680   4.731   3.149 -1.7621 -2.4273  0.3341
  191SAPI   O3122076   2.565   4.799   3.312  0.0010 -0.5979 -0.1797
  191SAPI   C3122077   2.566   4.682   3.371  0.0188 -0.3538  0.3573
  191SAPI   O3222078   2.585   4.576   3.313  0.3205 -0.4268  0.1747
  191SAPI   C3222079   2.553   4.705   3.526 -0.0630  0.1068  0.0366
  191SAPI   H2X22080   2.450   4.747   3.532  0.3338  1.0247  0.7045
  191SAPI   H2Y22081   2.615   4.790   3.561 -1.8175  1.5122 -0.1181
  191SAPI   C2322082   2.146   4.928   3.413  0.3032 -0.2357  0.4731
  191SAPI   H3R22083   2.234   4.952   3.477  1.6169 -2.0782 -0.5470
  191SAPI   H3S22084   2.110   4.834   3.459 -0.3643  0.1364  0.7295
  191SAPI   C2422085   2.041   5.038   3.432  0.1927 -0.6839 -0.1220
  191SAPI   H4R22086   1.941   5.004   3.398 -0.2542 -0.8798  1.3213
  191SAPI   H4S22087   2.062   5.122   3.362 -1.0702 -1.1547 -1.1095
  191SAPI   C2522088   2.034   5.107   3.570 -0.1828  0.5193 -0.5454
  191SAPI   H5R22089   2.034   5.217   3.566 -2.3786  0.5551 -1.3605
  191SAPI   C2622090   2.028   5.036   3.683 -1.0893 -0.2967 -0.9566
  191SAPI   H6R22091   2.036   5.092   3.778 -0.0931 -1.5896 -0.2227
  191SAPI   C2722092   2.014   4.888   3.690  0.0642  0.0080 -0.2580
  191SAPI   H7R22093   2.114   4.850   3.719  0.8230  2.3143  0.4157
  191SAPI   H7S22094   1.974   4.840   3.598 -0.7405  0.6535 -0.2611
  191SAPI   C2822095   1.905   4.865   3.802 -0.1525  1.0245 -0.0195
  191SAPI   H8R22096   1.802   4.887   3.770 -0.8791  0.3940  1.7486
  191SAPI   C2922097   1.936   4.836   3.933  0.2791 -0.5284  0.1196
  191SAPI   H9R22098   1.849   4.822   3.999  1.0645 -0.8497  1.1170
  191SAPI  C21022099   2.074   4.818   4.014  0.2229  0.4195  0.0806
  191SAPI  H10R22100   2.098   4.919   4.054  0.1494  0.4209  0.1215
  191SAPI  H10S22101   2.154   4.779   3.948 -1.0502  0.1014 -1.3469
  191SAPI  C21122102   2.040   4.721   4.128 -0.2842 -0.0845  0.5463
  191SAPI  H11R22103   2.062   4.614   4.109 -0.8518  0.1264 -1.4798
  191SAPI  C21222104   1.972   4.750   4.248  0.1067 -0.5515  1.0547
  191SAPI  H12R22105   1.944   4.673   4.321  2.4075 -1.2641  1.2764
  191SAPI  C21322106   1.926   4.893   4.283  0.5262  0.0032  0.3026
  191SAPI  H13R22107   1.932   4.969   4.202  1.1315  0.7244  1.0211
  191SAPI  H13S22108   1.998   4.916   4.364 -0.0693 -0.0922  0.8714
  191SAPI  C21422109   1.787   4.902   4.342 -0.0062 -0.2453 -0.2120
  191SAPI  H14R22110   1.716   4.942   4.268  1.5875  1.2696 -0.9908
  191SAPI  C21522111   1.748   4.896   4.468  0.0419 -0.5600 -0.2623
  191SAPI  H15R22112   1.641   4.909   4.490 -0.0674  1.5449 -1.6971
  191SAPI  C21622113   1.841   4.875   4.587  0.1592 -0.3526  0.2550
  191SAPI  H16R22114   1.919   4.796   4.581 -0.6064 -1.1548  0.6083
  191SAPI  H16S22115   1.776   4.841   4.671 -3.7905  2.9167 -1.1491
  191SAPI  C21722116   1.899   5.004   4.644 -0.0034  0.1726  0.1444
  191SAPI  H17R22117   1.837   5.096   4.632  0.0634 -0.0592 -2.4200
  191SAPI  H17S22118   1.982   5.022   4.573 -0.7491 -1.7641 -1.3116
  191SAPI  C21822119   1.948   4.986   4.785 -0.3750  0.6778  0.0715
  191SAPI  H18R22120   2.022   5.065   4.807 -2.3575  2.7963 -0.5492
  191SAPI  H18S22121   2.005   4.891   4.794  2.1913  2.0392 -0.9617
  191SAPI  C21922122   1.845   4.990   4.897  0.8011  0.7509 -0.1839
  191SAPI  H19R22123   1.796   4.890   4.903  1.9510  0.2042  0.3331
  191SAPI  H19S22124   1.775   5.072   4.869  0.3223  0.1873 -0.6593
  191SAPI  C22022125   1.906   5.022   5.033 -0.2174 -0.2344  0.4374
  191SAPI  H20R22126   1.826   5.020   5.110 -0.1584 -0.6453  0.4885
  191SAPI  H20S22127   1.936   5.129   5.037  0.8472 -0.5190  0.3621
  191SAPI  H20T22128   1.987   4.953   5.066  1.6901  0.6743 -1.9894
  191SAPI   C3322129   2.563   4.589   3.625 -0.1086  0.3192  0.0472
  191SAPI   H3X22130   2.667   4.550   3.623 -0.0538  0.3996  0.8376
  191SAPI   H3Y22131   2.509   4.496   3.598  2.8447 -0.7828 -2.5930
  191SAPI   C3422132   2.523   4.635   3.770 -0.4285  0.4249 -0.7294
  191SAPI   H4X22133   2.424   4.684   3.782  0.4075  2.4457 -1.5784
  191SAPI   H4Y22134   2.601   4.709   3.800 -0.2905 -0.1245  0.3042
  191SAPI   C3522135   2.541   4.522   3.873 -0.1995 -0.9673 -0.1965
  191SAPI   H5X22136   2.637   4.474   3.843  0.8067  0.8844 -0.1202
  191SAPI   H5Y22137   2.464   4.442   3.876 -0.7959 -0.3660  1.3545
  191SAPI   C3622138   2.547   4.567   4.018  0.4335  0.7505  0.2406
  191SAPI   H6X22139   2.614   4.653   4.040  0.9564  1.2845 -3.0237
  191SAPI   H6Y22140   2.586   4.492   4.090  1.4243  1.9765  1.0299
  191SAPI   C3722141   2.414   4.622   4.066  0.1575  0.8045 -0.1310
  191SAPI   H7X22142   2.340   4.550   4.025 -0.7320 -0.6608  3.6154
  191SAPI   H7Y22143   2.393   4.722   4.024 -0.4148  0.0139 -1.7986
  191SAPI   C3822144   2.410   4.635   4.222 -0.2798  0.1183 -0.2011
  191SAPI   H8X22145   2.443   4.539   4.266 -0.1925 -0.1054 -0.7576
  191SAPI   H8Y22146   2.310   4.663   4.260 -0.6391  1.0734 -1.7861
  191SAPI   C3922147   2.496   4.751   4.278  0.4394  0.3251  0.1557
  191SAPI   H9X22148   2.458   4.842   4.227  1.0549  1.3003  1.3914
  191SAPI   H9Y22149   2.602   4.723   4.256  1.4447  2.1838  2.1859
  191SAPI  C31022150   2.477   4.763   4.424 -0.1982 -0.0398  0.0737
  191SAPI  H10X22151   2.483   4.665   4.475  0.9947 -0.2452 -0.4269
  191SAPI  H10Y22152   2.374   4.791   4.453 -0.5324  0.5946 -1.6346
  191SAPI  C31122153   2.587   4.854   4.480 -0.4354 -0.6459 -0.0908
  191SAPI  H11X22154   2.681   4.803   4.449  0.4124  2.5749 -3.5699
  191SAPI  H11Y22155   2.592   4.864   4.590  1.4336 -1.0491 -0.1064
  191SAPI  C31222156   2.589   4.994   4.427  0.0805 -0.4939 -0.5625
  191SAPI  H12X22157   2.594   5.002   4.316  1.8686 -0.8274 -0.5384
  191SAPI  H12Y22158   2.666   5.057   4.476  0.4434 -1.6632  0.4346
  191SAPI  C31322159   2.462   5.060   4.474  0.3192  0.0545  0.9840
  191SAPI  H13X22160   2.448   5.056   4.584 -2.7809 -0.5242  0.6590
  191SAPI  H13Y22161   2.373   5.001   4.445 -0.6952  1.4179  1.2292
  191SAPI  C31422162   2.450   5.203   4.427  1.1249 -0.3743 -0.3047
  191SAPI  H14X22163   2.473   5.217   4.319 -3.2498  0.9142 -1.2451
  191SAPI  H14Y22164   2.518   5.274   4.480  0.0311  0.1497  0.4518
  191SAPI  C31522165   2.304   5.260   4.443  0.3477  0.4498  0.4481
  191SAPI  H15X22166   2.243   5.202   4.370 -1.9266 -0.7752  3.1094
  191SAPI  H15Y22167   2.307   5.367   4.413 -0.6849  0.3571 -0.0236
  191SAPI  C31622168   2.240   5.250   4.587  0.8863  0.3797 -0.2915
  191SAPI  H16X22169   2.310   5.289   4.664 -0.4999 -0.6358  1.5287
  191SAPI  H16Y22170   2.230   5.148   4.629  1.2293  0.5798  0.2878
  191SAPI  C31722171   2.111   5.332   4.594  0.0697 -0.0851  0.2717
  191SAPI  H17X22172   2.038   5.272   4.535  0.5125 -1.2199  0.8445
  191SAPI  H17Y22173   2.121   5.426   4.535 -0.2990  0.8772  1.6974
  191SAPI  C31822174   2.052   5.366   4.726 -0.4959 -0.1854 -0.1627
  191SAPI  H18X22175   2.118   5.431   4.788  1.4106 -1.7632 -0.4346
  191SAPI  H18Y22176   2.033   5.273   4.784 -1.6536  1.5102  2.3516
  191SAPI  H18Z22177   1.951   5.409   4.708 -1.1763 -1.0146  1.4575
  192SAPI   C1222178   4.503   3.734   2.882  0.3792  0.2275  0.2137
  192SAPI    H222179   4.479   3.830   2.933 -1.4109  0.3128 -0.7172
  192SAPI    O222180   4.618   3.683   2.952  0.1529 -0.2891  0.5068
  192SAPI   HO222181   4.694   3.672   2.894  1.4146  0.6292  1.9080
  192SAPI   C1322182   4.388   3.630   2.902  0.4067  0.3658 -0.3401
  192SAPI    H322183   4.297   3.673   2.856 -0.2539 -0.3273  0.2852
  192SAPI    O322184   4.354   3.622   3.044  0.4868  0.0599 -0.0678
  192SAPI   HO322185   4.433   3.598   3.094  0.4390  2.5740  1.4112
  192SAPI   C1422186   4.438   3.503   2.831  0.2885  0.4603  0.1463
  192SAPI    H422187   4.531   3.464   2.876  2.3402  3.2805 -1.3223
  192SAPI    O422188   4.347   3.396   2.853  0.0700  0.6634  0.3224
  192SAPI   HO422189   4.303   3.402   2.938 -0.7224 -1.5753  0.1466
  192SAPI   C1522190   4.482   3.519   2.683 -0.0742  0.1986  0.9370
  192SAPI    H522191   4.386   3.524   2.628 -0.2142  0.1521  1.1738
  192SAPI    O522192   4.543   3.393   2.645 -0.7173  0.2240 -0.0733
  192SAPI   HO522193   4.475   3.337   2.605 -1.4005 -0.5251  2.0102
  192SAPI   C1622194   4.566   3.643   2.654  0.0142  0.8034  0.3649
  192SAPI    H622195   4.669   3.615   2.687  0.0463  0.3654 -0.0896
  192SAPI    O622196   4.574   3.669   2.515  0.0066  0.4801 -0.4137
  192SAPI   HO622197   4.488   3.686   2.475  1.2583  1.1513 -2.9853
  192SAPI   C1122198   4.528   3.766   2.737  0.1333 -0.1868  0.1719
  192SAPI    H122199   4.427   3.796   2.703  0.2821  1.0423  0.7509
  192SAPI     P22200   4.597   4.010   2.644  0.3096  0.3604 -0.2199
  192SAPI   O1322201   4.473   3.987   2.559  0.0121  0.2882  0.0393
  192SAPI   O1422202   4.726   4.061   2.583 -0.1666 -0.1792 -0.4302
  192SAPI   O1222203   4.625   3.870   2.727  0.1152 -0.7593 -0.5648
  192SAPI   O1122204   4.555   4.102   2.772 -0.9155  0.0477 -0.2607
  192SAPI    C122205   4.494   4.232   2.744  0.5712  0.3749  0.1263
  192SAPI    HA22206   4.571   4.310   2.724  1.2790  0.1530  1.8329
  192SAPI    HB22207   4.422   4.231   2.659 -0.0078  0.7321  0.6047
  192SAPI    C222208   4.409   4.274   2.866  0.0308 -0.9190  0.0633
  192SAPI    HS22209   4.343   4.359   2.838 -1.7768 -2.8769 -1.9860
  192SAPI   O2122210   4.496   4.307   2.976 -0.5445 -0.0293  0.1079
  192SAPI   C2122211   4.555   4.427   2.973 -0.3645 -0.2094  0.3518
  192SAPI   O2222212   4.578   4.487   2.871 -0.6752  0.1467 -0.4048
  192SAPI   C2222213   4.592   4.485   3.115  0.4718  0.1082 -0.3736
  192SAPI   H2R22214   4.675   4.421   3.152  0.3367 -0.2863 -0.7398
  192SAPI   H2S22215   4.634   4.587   3.105  2.2469 -0.4903  0.4475
  192SAPI    C322216   4.304   4.165   2.907 -0.6403 -0.4735  0.5799
  192SAPI    HX22217   4.362   4.070   2.907  0.0866 -0.1395 -2.6753
  192SAPI    HY22218   4.221   4.144   2.836  0.7057 -1.2048 -0.8418
  192SAPI   O3122219   4.259   4.191   3.037  0.3828 -0.1159 -0.4702
  192SAPI   C3122220   4.159   4.279   3.049 -0.1401  0.0906 -0.0813
  192SAPI   O3222221   4.114   4.347   2.962 -0.3283 -0.4866  0.1749
  192SAPI   C3222222   4.100   4.287   3.189 -0.5540 -0.0409  0.1334
  192SAPI   H2X22223   4.152   4.366   3.248  0.4524  0.9223 -1.9244
  192SAPI   H2Y22224   4.118   4.190   3.240 -0.1571  1.8705  3.9495
  192SAPI   C2322225   4.475   4.482   3.215  0.0111  0.1700  0.4919
  192SAPI   H3R22226   4.430   4.380   3.216  0.3108 -0.1158 -2.9152
  192SAPI   H3S22227   4.395   4.545   3.172 -1.3189 -1.9194 -0.2681
  192SAPI   C2422228   4.514   4.523   3.354  0.5046  0.8243  0.5644
  192SAPI   H4R22229   4.570   4.619   3.365 -1.0795  1.5427  3.1282
  192SAPI   H4S22230   4.571   4.442   3.403  1.4865 -0.6955 -2.7978
  192SAPI   C2522231   4.390   4.551   3.437 -0.4423 -0.1239 -0.5461
  192SAPI   H5R22232   4.347   4.652   3.426 -0.7376 -0.2333 -0.3965
  192SAPI   C2622233   4.339   4.472   3.533  0.0748 -0.0275 -0.2947
  192SAPI   H6R22234   4.244   4.500   3.580 -1.7173 -5.6199  0.1089
  192SAPI   C2722235   4.377   4.333   3.572  0.3499 -0.0304  0.1574
  192SAPI   H7R22236   4.484   4.318   3.595  0.1381 -2.4719 -0.1682
  192SAPI   H7S22237   4.365   4.269   3.483  2.1650 -0.1973  0.0056
  192SAPI   C2822238   4.292   4.297   3.694  0.0730 -0.0239  0.0318
  192SAPI   H8R22239   4.206   4.234   3.667  0.5706 -0.4544 -0.5890
  192SAPI   C2922240   4.308   4.346   3.817 -0.2788  0.6302  0.3245
  192SAPI   H9R22241   4.240   4.316   3.899 -0.9876  4.2475  1.2768
  192SAPI  C21022242   4.415   4.450   3.857  0.3719  0.7034 -0.2254
  192SAPI  H10R22243   4.480   4.464   3.768 -1.3464  0.7666 -1.5175
  192SAPI  H10S22244   4.466   4.398   3.942 -1.7761 -1.3089 -0.0606
  192SAPI  C21122245   4.362   4.580   3.891  0.8525  0.4689 -0.8847
  192SAPI  H11R22246   4.306   4.625   3.808  0.8705  1.5776 -0.3126
  192SAPI  C21222247   4.356   4.639   4.009 -0.1366  0.0152 -1.0945
  192SAPI  H12R22248   4.291   4.727   4.013  1.0261  0.9869 -2.5379
  192SAPI  C21322249   4.433   4.600   4.134  1.2398  0.2426  0.9406
  192SAPI  H13R22250   4.522   4.537   4.111  0.7641  0.1925 -0.9690
  192SAPI  H13S22251   4.358   4.544   4.194  0.4346  1.3551  1.0127
  192SAPI  C21422252   4.471   4.722   4.205  1.1814 -0.2427  0.2758
  192SAPI  H14R22253   4.562   4.768   4.163  0.7876  0.4316  0.1384
  192SAPI  C21522254   4.420   4.787   4.312  0.0079 -0.3625 -0.2240
  192SAPI  H15R22255   4.476   4.875   4.347 -1.6750  1.1876 -1.1892
  192SAPI  C21622256   4.310   4.732   4.402 -0.3110 -0.4918 -0.0756
  192SAPI  H16R22257   4.255   4.646   4.359 -1.5743  0.0737  0.3613
  192SAPI  H16S22258   4.239   4.818   4.407 -0.5639 -0.7397  0.7355
  192SAPI  C21722259   4.356   4.696   4.544  0.2864  1.1201  0.1937
  192SAPI  H17R22260   4.391   4.783   4.604  0.4728  2.8657 -2.3083
  192SAPI  H17S22261   4.441   4.627   4.530 -0.9034 -1.2319  3.3025
  192SAPI  C21822262   4.255   4.614   4.629 -0.8033 -0.1478  0.2699
  192SAPI  H18R22263   4.312   4.566   4.711 -0.9478  0.0562  0.4890
  192SAPI  H18S22264   4.199   4.541   4.567 -2.9838  2.3354 -0.8811
  192SAPI  C21922265   4.148   4.700   4.705 -0.5882 -0.2339  0.6443
  192SAPI  H19R22266   4.086   4.761   4.636 -1.7096 -2.6581 -0.6047
  192SAPI  H19S22267   4.204   4.770   4.771 -0.1449 -0.1027  0.1429
  192SAPI  C22022268   4.049   4.612   4.788 -0.2642 -0.3224  0.5184
  192SAPI  H20R22269   4.024   4.514   4.743 -0.3960 -0.7800  1.5630
  192SAPI  H20S22270   3.962   4.675   4.815 -1.3708 -0.1812 -2.9268
  192SAPI  H20T22271   4.094   4.589   4.887 -0.6276 -1.2725  0.4681
  192SAPI   C3322272   3.943   4.313   3.189  0.3468  0.1777 -0.4814
  192SAPI   H3X22273   3.894   4.241   3.120 -0.2870 -2.4934  2.5594
  192SAPI   H3Y22274   3.927   4.419   3.158  0.5960 -0.4886 -3.1306
  192SAPI   C3422275   3.888   4.278   3.327  0.2883 -0.1526 -0.2642
  192SAPI   H4X22276   3.940   4.188   3.365  1.6772  0.2564 -1.1318
  192SAPI   H4Y22277   3.777   4.268   3.328  0.0632  1.5989 -2.1449
  192SAPI   C3522278   3.915   4.385   3.436  0.2603  0.5352 -0.1168
  192SAPI   H5X22279   3.897   4.491   3.408  1.3407  0.3591 -1.5614
  192SAPI   H5Y22280   4.021   4.381   3.469  0.9304  1.7717 -1.9716
  192SAPI   C3622281   3.842   4.353   3.576  0.4405 -0.1813 -0.4489
  192SAPI   H6X22282   3.879   4.251   3.602  0.1648 -0.4652 -1.1237
  192SAPI   H6Y22283   3.733   4.349   3.553  0.6698  0.5983 -1.7828
  192SAPI   C3722284   3.874   4.455   3.685 -0.2552  0.0411  0.2691
  192SAPI   H7X22285   3.844   4.558   3.655  0.8706  0.2659 -0.1256
  192SAPI   H7Y22286   3.982   4.464   3.711 -0.3803  2.3801  0.1671
  192SAPI   C3822287   3.800   4.433   3.815 -0.5570  0.9262  0.1150
  192SAPI   H8X22288   3.793   4.325   3.840 -1.3533  1.6436  3.6813
  192SAPI   H8Y22289   3.693   4.455   3.797 -0.5055  2.1604  1.1363
  192SAPI   C3922290   3.845   4.521   3.930 -0.2510 -1.3422  0.7099
  192SAPI   H9X22291   3.851   4.629   3.904 -0.4629 -1.3675  0.5574
  192SAPI   H9Y22292   3.950   4.486   3.941 -0.0724 -1.0394  0.0173
  192SAPI  C31022293   3.748   4.504   4.053 -0.2804 -0.3394  0.3518
  192SAPI  H10X22294   3.751   4.400   4.091  2.3063 -0.3484  0.2745
  192SAPI  H10Y22295   3.646   4.530   4.016  0.8700 -1.0167 -3.7809
  192SAPI  C31122296   3.801   4.587   4.174  0.0272  0.5302  0.0101
  192SAPI  H11X22297   3.785   4.694   4.152 -1.0956 -0.0339 -2.2264
  192SAPI  H11Y22298   3.907   4.569   4.202  0.5053  1.2558 -1.2705
  192SAPI  C31222299   3.724   4.555   4.306 -0.6723  0.5725  0.4351
  192SAPI  H12X22300   3.736   4.446   4.327 -2.2948  0.4489  0.8407
  192SAPI  H12Y22301   3.614   4.556   4.287 -1.0271  0.3414  2.3071
  192SAPI  C31322302   3.769   4.651   4.410  0.2058 -0.4385 -0.5663
  192SAPI  H13X22303   3.757   4.755   4.373 -1.8951  0.4648  2.3104
  192SAPI  H13Y22304   3.875   4.633   4.440  0.1940 -0.0699 -0.2990
  192SAPI  C31422305   3.675   4.646   4.531  0.7445 -0.2333  0.4270
  192SAPI  H14X22306   3.567   4.661   4.508  1.0851  0.0512 -1.1124
  192SAPI  H14Y22307   3.696   4.728   4.603 -0.3110 -0.4831  1.0446
  192SAPI  C31522308   3.683   4.516   4.611 -0.6416 -0.2966 -0.1680
  192SAPI  H15X22309   3.788   4.509   4.648 -0.8097  0.9370  0.5773
  192SAPI  H15Y22310   3.665   4.426   4.548  0.0026  0.4898 -1.5376
  192SAPI  C31622311   3.604   4.504   4.743  0.5605  0.2784  0.2825
  192SAPI  H16X22312   3.495   4.495   4.723  0.6880  0.0118 -0.3077
  192SAPI  H16Y22313   3.609   4.608   4.782  0.7910  1.1053 -1.8087
  192SAPI  C31722314   3.650   4.396   4.842 -0.2544 -0.3645  0.8003
  192SAPI  H17X22315   3.682   4.308   4.781 -0.3384  1.1799 -1.6328
  192SAPI  H17Y22316   3.559   4.359   4.893  0.1446 -0.7824  1.2138
  192SAPI  C31822317   3.758   4.451   4.938  0.1293  0.4204  0.2783
  192SAPI  H18X22318   3.834   4.492   4.868  0.1366  0.0228  0.0503
  192SAPI  H18Y22319   3.813   4.381   5.004  0.4216  0.9164  0.5671
  192SAPI  H18Z22320   3.704   4.526   5.001 -1.0988 -2.4684  2.9435
  193SOD    SOD22321   4.893   6.534   1.253 -0.2407  0.6149 -0.0800
  194SOD    SOD22322   0.228   0.359   8.237 -0.4439  0.2642  0.4543
  195SOD    SOD22323   6.296   4.280   7.233 -0.2250 -0.3913 -0.0156
  196SOD    SOD22324   0.461   3.901   2.182 -0.1406  0.1459 -0.1583
  197SOD    SOD22325   6.306   1.482   0.815  0.6668 -0.1681  0.5224
  198SOD    SOD22326   0.662   2.159   7.749 -0.0155  0.6028  0.2056
  199SOD    SOD22327   3.263   4.136   6.839  0.0934  0.3522 -0.3124
  200SOD    SOD22328   0.043   0.935   2.098  0.3872  0.1095 -0.4864
  201SOD    SOD22329   6.252   3.557   2.400 -0.2007 -0.1366  0.5129
  202SOD    SOD22330   4.145   3.673   1.711  0.6019  0.4026  0.3324
  203SOD    SOD22331   3.880   6.293   0.937  0.2800 -0.3138 -0.2585
  204SOD    SOD22332   3.095   0.515   7.305 -0.2333 -0.2621  0.1485
  205SOD    SOD22333   6.643   3.322   8.890 -0.6251 -0.1492 -0.4963
  206SOD    SOD22334   5.965   3.502   7.428  0.2564  0.1282 -0.1998
  207SOD    SOD22335   5.891   4.475   2.892  0.2605  0.3205 -0.2515
  208SOD    SOD22336   5.479   2.570   0.248  0.0875 -0.2045 -0.3920
  209SOD    SOD22337   4.165   2.635   7.020  0.4393  0.8533  0.4019
  210SOD    SOD22338   5.580   4.670   8.291  0.8918  0.5632 -0.7598
  211SOD    SOD22339   0.436   1.482   0.684  0.7564 -0.6114  0.1403
  212SOD    SOD22340   3.511   3.163   0.641 -0.1679 -0.2406 -0.0651
  213SOD    SOD22341   3.480   4.193   8.776 -0.6148 -0.8517 -0.1245
  214SOD    SOD22342   2.895   4.698   2.820  0.5495 -0.0569 -0.3025
  215SOD    SOD22343   4.087   1.530   1.194  0.0911  0.1914 -0.1670
  216SOD    SOD22344   2.224   3.112   1.163 -0.5212  0.2385  0.1156
  217SOD    SOD22345   0.800   0.910   8.788  0.1714 -0.1814 -0.2843
  218SOD    SOD22346   3.742   4.696   0.406 -0.5936 -0.3305 -0.3973
  219SOD    SOD22347   3.304   3.138   7.981  0.1984 -0.3115 -0.2640
  220SOD    SOD22348   0.181   3.780   2.832  0.0447  0.2967 -0.0898
  221SOD    SOD22349   5.691   4.785   0.620  0.4570 -0.6178 -0.4725
  222SOD    SOD22350   5.047   6.307   7.281  0.0857 -0.3454  0.3665
  223SOD    SOD22351   1.046   3.073   0.268 -0.1640 -0.4658 -0.2986
  224SOD    SOD22352   6.604   3.564   8.284 -0.4263  0.0254 -0.4701
  225SOD    SOD22353   4.856   4.124   7.116  0.2155  0.0368  0.5880
  226SOD    SOD22354   2.317   1.699   0.534 -0.4558 -0.1331  0.0636
  227SOD    SOD22355   1.952   4.831   7.633 -0.0049 -0.8882 -0.4675
  228SOD    SOD22356   0.921   3.319   7.392  0.4454  0.1901  0.2375
  229SOD    SOD22357   3.349   6.780   2.485 -0.0085 -0.0098  0.0644
  230CLA    CLA22358   2.177   3.483   0.872  0.1696 -0.0578  0.0911
  231CLA    CLA22359   0.661   3.519   8.568 -0.4895  0.1123  0.2896
  232CLA    CLA22360   3.798   3.787   1.210  0.3722 -0.3403 -0.1004
  233CLA    CLA22361   5.625   2.172   1.538 -0.4106 -0.0727 -0.2589
  234CLA    CLA22362   6.167   2.244   8.305 -0.0061  0.5006 -0.0500
  235CLA    CLA22363   5.377   4.374   8.590  0.0133 -0.0796  0.1723
  236CLA    CLA22364   0.446   1.006   0.439 -0.4716 -0.1124  0.1134
  237CLA    CLA22365   4.767   2.550   8.360 -0.0697 -0.2176 -0.1629
  238CLA    CLA22366   0.519   6.068   8.509  0.2909 -0.0769  0.3066
  239CLA    CLA22367   5.690   3.181   0.700  0.1787  0.1279 -0.0618
  240CLA    CLA22368   3.175   1.107   0.432 -0.0777 -0.0825  0.0342
  241CLA    CLA22369   6.442   4.311   8.341  0.3471  0.4112 -0.0138
  242CLA    CLA22370   0.666   2.416   1.598  0.3039 -0.1422 -0.0791
  243CLA    CLA22371   6.487   1.444   8.087 -0.2154 -0.3606 -0.1321
  244CLA    CLA22372   5.591   5.746   0.005  0.1794 -0.1480  0.0874
  245CLA    CLA22373   3.057   4.837   8.800 -0.0425  0.0156  0.1862
  246CLA    CLA22374   5.940   4.523   1.627  0.2714 -0.4500  0.0341
  247TIP3   OH222375   2.753   6.744   1.572  0.1288  0.4060 -0.1800
  247TIP3    H122376   2.662   6.714   1.578  0.7560 -1.6737 -0.1076
  247TIP3    H222377   2.774   6.737   1.479  0.9079 -1.5054  0.0993
  248TIP3   OH222378   3.992   2.541   1.049  0.3857  0.1166  0.4746
  248TIP3    H122379   3.967   2.608   1.112 -0.3675 -1.0628  1.4919
  248TIP3    H222380   3.917   2.480   1.048  0.5263 -0.0776 -1.3168
  249TIP3   OH222381   6.554   5.224   7.317 -0.1301  0.5042  0.9557
  249TIP3    H122382   6.462   5.227   7.293 -0.2491 -1.5616  1.0039
  249TIP3    H222383   6.601   5.247   7.237 -0.6279 -2.1030 -0.1815
  250TIP3   OH222384   2.763   2.182   0.805  0.1856 -0.1081 -0.1283
  250TIP3    H122385   2.847   2.213   0.773 -1.0877 -0.1569 -4.0299
  250TIP3    H222386   2.742   2.240   0.879  3.2392  0.3193  0.5168
  251TIP3   OH222387   0.496   6.771   7.335  0.4347 -1.0680 -0.0670
  251TIP3    H122388   0.585   6.797   7.313 -0.1092 -1.1920 -2.6967
  251TIP3    H222389   0.451   6.853   7.356  1.0464 -0.9649  0.8825
  252TIP3   OH222390   3.792   3.426   1.650  0.2805 -0.0603 -0.5315
  252TIP3    H122391   3.829   3.376   1.724  1.0246  0.3538 -0.6085
  252TIP3    H222392   3.854   3.411   1.579  0.8918  1.4964 -0.3655
  253TIP3   OH222393   2.832   4.161   8.001  0.2215 -0.0839 -0.0717
  253TIP3    H122394   2.864   4.197   7.919  0.0283 -0.9502 -0.5455
  253TIP3    H222395   2.747   4.203   8.014 -0.3165 -0.8550 -0.9759
  254TIP3   OH222396   0.243   6.419   1.227  0.2705  0.0521  0.0986
  254TIP3    H122397   0.332   6.449   1.209  1.2982 -2.2232  1.0080
  254TIP3    H222398   0.202   6.410   1.141  1.5594 -0.6512 -0.4625
  255TIP3   OH222399   0.011   5.086   8.425 -1.3680 -0.6390 -0.1734
  255TIP3    H122400  -0.034   5.008   8.459 -1.7097  0.5131  2.2619
  255TIP3    H222401  -0.058   5.139   8.385 -1.0647 -1.7143 -2.2532
  256TIP3   OH222402   6.098   2.085   1.532 -0.0725 -0.1010 -0.5455
  256TIP3    H122403   6.024   2.077   1.473 -1.3772  0.7566  0.8923
  256TIP3    H222404   6.175   2.063   1.479 -1.5084 -3.3838 -1.5008
  257TIP3   OH222405   5.318   6.011   0.391 -0.3950  0.6776 -0.1227
  257TIP3    H122406   5.248   5.969   0.340 -1.0232  2.0585 -0.4493
  257TIP3    H222407   5.298   5.988   0.482  0.0467 -0.8141 -0.3722
  258TIP3   OH222408   6.549   2.452   3.203 -0.5174 -0.3269  0.0333
  258TIP3    H122409   6.608   2.486   3.136  0.4386  0.3912  1.2046
  258TIP3    H222410   6.544   2.358   3.185  0.2739 -0.2514 -0.6333
  259TIP3   OH222411   6.472   4.435   2.066 -0.3774 -0.3729  0.3796
  259TIP3    H122412   6.437   4.524   2.068 -0.9443 -0.6020  1.1733
  259TIP3    H222413   6.416   4.388   2.005  0.0009 -0.1593 -0.1383
  260TIP3   OH222414   5.801   6.147   1.992  0.2385  0.0525  0.0966
  260TIP3    H122415   5.843   6.230   1.971  0.9815 -0.4115 -0.2659
  260TIP3    H222416   5.803   6.142   2.088 -0.3448  0.7151  0.1533
  261TIP3   OH222417   0.158   6.466   2.630  0.3294 -0.4934 -0.2802
  261TIP3    H122418   0.077   6.420   2.607  0.4811 -0.6401 -0.5234
  261TIP3    H222419   0.164   6.538   2.567  0.0990 -0.1459  0.0922
  262TIP3   OH222420   4.051   4.250   0.151 -0.2826 -0.1910 -0.4416
  262TIP3    H122421   4.063   4.167   0.104  0.8223 -0.3449  0.0777
  262TIP3    H222422   4.103   4.240   0.230  0.1559  1.1379 -0.5333
  263TIP3   OH222423   1.270   5.417   1.674 -0.3857  0.2679 -0.6403
  263TIP3    H122424   1.280   5.335   1.724  0.0217  1.1043  0.7111
  263TIP3    H222425   1.231   5.478   1.736  1.5230  1.7815 -0.8376
  264TIP3   OH222426   4.437   0.641   7.834  0.0836  0.9176 -0.4351
  264TIP3    H122427   4.473   0.600   7.912 -0.4544 -0.9093 -1.1038
  264TIP3    H222428   4.493   0.610   7.762 -1.3356 -0.0793 -1.1739
  265TIP3   OH222429   6.375   0.027   0.966  0.0644  0.5220 -0.2930
  265TIP3    H122430   6.407  -0.062   0.958 -2.1187 -0.1575 -3.5269
  265TIP3    H222431   6.298   0.030   0.909 -0.1083  4.4055 -0.1269
  266TIP3   OH222432   3.681   6.337   8.006 -0.1162 -0.0662  0.4460
  266TIP3    H122433   3.679   6.266   7.941 -3.7130  0.7784 -0.6179
  266TIP3    H222434   3.715   6.412   7.958  2.0739 -0.5595  1.1013
  267TIP3   OH222435   6.430   4.268   1.604  0.5243 -0.1130 -0.1870
  267TIP3    H122436   6.337   4.251   1.596  0.5973 -0.8610  0.4436
  267TIP3    H222437   6.453   4.314   1.523 -0.8922  2.4477  0.7459
  268TIP3   OH222438   0.661   2.604   0.484  0.5345 -0.2191  0.0149
  268TIP3    H122439   0.637   2.564   0.400 -2.1118  0.5655  0.2967
  268TIP3    H222440   0.597   2.675   0.495 -0.0786 -1.1583  3.3421
  269TIP3   OH222441   4.127   0.595   7.522  0.2743 -0.0575  0.4560
  269TIP3    H122442   4.097   0.511   7.557  0.7945 -0.4727 -0.0832
  269TIP3    H222443   4.055   0.626   7.468 -1.0313  1.1432  2.7321
  270TIP3   OH222444   1.975   4.941   8.275  0.8877 -0.1710 -0.0514
  270TIP3    H122445   1.986   4.960   8.182  0.4734 -0.6572 -0.2042
  270TIP3    H222446   2.059   4.903   8.302  0.4813 -1.5420 -0.6182
  271TIP3   OH222447   5.158   3.254   7.993 -0.1976 -0.2431  0.2893
  271TIP3    H122448   5.228   3.230   7.931  0.4963 -0.1270  1.0038
  271TIP3    H222449   5.095   3.182   7.987 -1.1292  0.6728 -1.9392
  272TIP3   OH222450   3.956   1.077   1.691 -0.0186  0.1288 -0.3186
  272TIP3    H122451   3.901   1.031   1.626  1.1338 -1.1166 -0.4581
  272TIP3    H222452   4.046   1.056   1.665  0.4799  0.2248  1.2387
  273TIP3   OH222453   4.455   1.172   7.561 -0.0042 -0.1080  0.6169
  273TIP3    H122454   4.431   1.134   7.477 -1.4732 -1.4871  1.6101
  273TIP3    H222455   4.439   1.102   7.625 -0.7299  1.4767  2.2685
  274TIP3   OH222456   1.757   1.023   7.391  0.5571  0.0281 -0.0469
  274TIP3    H122457   1.741   0.935   7.355  0.8467 -0.3603  0.7631
  274TIP3    H222458   1.811   1.008   7.468  0.7063  0.9372  0.0316
  275TIP3   OH222459   0.365   4.605   2.813 -0.4358  0.0830 -0.0976
  275TIP3    H122460   0.329   4.544   2.877  1.6433  0.4037  1.4916
  275TIP3    H222461   0.456   4.617   2.840  0.3878  0.7109 -2.7909
  276TIP3   OH222462   1.570   3.081   1.057 -0.4963  0.1274  0.1731
  276TIP3    H122463   1.602   2.991   1.060 -0.1046  0.2399 -0.6531
  276TIP3    H222464   1.641   3.133   1.095  0.3808  0.3848 -1.7202
  277TIP3   OH222465   5.569   0.329   0.307  0.1398 -0.2651 -0.1497
  277TIP3    H122466   5.512   0.263   0.346  1.3063 -2.5367 -2.0346
  277TIP3    H222467   5.560   0.317   0.212  1.0641  1.7485 -0.5684
  278TIP3   OH222468   4.316   0.257   0.041  0.0532  0.0714 -0.2047
  278TIP3    H122469   4.328   0.176  -0.008 -0.4324 -0.9451  1.3080
  278TIP3    H222470   4.371   0.321  -0.005 -0.9200 -0.6169 -2.4921
  279TIP3   OH222471   2.963   3.819   8.643 -0.0483 -0.2424  0.0221
  279TIP3    H122472   3.014   3.746   8.610  0.1203 -0.1812  0.1433
  279TIP3    H222473   2.997   3.896   8.596  0.3045 -0.1313  0.4479
  280TIP3   OH222474   1.675   3.775   1.145  0.0846 -0.1751 -0.5082
  280TIP3    H122475   1.756   3.803   1.187 -0.6261 -1.4268  1.8599
  280TIP3    H222476   1.611   3.773   1.215 -1.3244 -1.8845 -1.7498
  281TIP3   OH222477   3.754   5.074   8.114  0.7555 -0.0437  0.1852
  281TIP3    H122478   3.828   5.112   8.068  0.8333 -0.7957 -0.3266
  281TIP3    H222479   3.706   5.149   8.149  0.9794  0.5145 -0.6820
  282TIP3   OH222480   6.199   0.598   7.603  0.2423 -0.3916 -0.4035
  282TIP3    H122481   6.128   0.536   7.623  1.1596 -0.7924  1.9432
  282TIP3    H222482   6.155   0.671   7.560 -1.6884 -0.4825  1.2601
  283TIP3   OH222483   6.582   5.688   7.569 -0.1526 -0.3822  0.5246
  283TIP3    H122484   6.501   5.667   7.614 -0.6625  1.0064  0.3075
  283TIP3    H222485   6.636   5.732   7.636  0.2623 -0.9169  0.5521
  284TIP3   OH222486   3.490   3.636   7.718 -0.1794 -0.5182 -0.0825
  284TIP3    H122487   3.565   3.694   7.702 -1.4499  1.0881 -0.5168
  284TIP3    H222488   3.504   3.563   7.658  0.3901  0.4011 -1.1304
  285TIP3   OH222489   6.350   5.736   7.376 -0.2368 -0.3473  0.2395
  285TIP3    H122490   6.443   5.745   7.353 -0.4704  0.1935 -0.5295
  285TIP3    H222491   6.328   5.819   7.419 -0.3866 -0.4275  0.3166
  286TIP3   OH222492   4.434   4.726   2.922 -0.0398 -0.1105 -0.1604
  286TIP3    H122493   4.410   4.752   2.834 -0.7459  0.3217  0.1599
  286TIP3    H222494   4.398   4.638   2.932 -2.7060  1.0078  0.7671
  287TIP3   OH222495   5.467   5.605   2.634 -0.3944 -0.6513 -0.6211
  287TIP3    H122496   5.511   5.572   2.713 -0.0482  0.8089 -0.1609
  287TIP3    H222497   5.453   5.698   2.652 -0.3431 -0.2939 -2.2817
  288TIP3   OH222498   1.441   2.451   0.581  0.4585 -0.2409  0.3473
  288TIP3    H122499   1.380   2.525   0.573 -0.3820 -0.8810  0.6232
  288TIP3    H222500   1.527   2.489   0.563  0.0445  0.7957  0.4380
  289TIP3   OH222501   2.897   1.281   1.015 -0.2800 -0.5887 -0.1341
  289TIP3    H122502   2.898   1.202   0.961 -0.4781 -1.2308  0.7776
  289TIP3    H222503   2.899   1.353   0.952 -1.6911 -1.3044 -1.0570
  290TIP3   OH222504   5.853   4.772   1.431  0.8041  0.1774  0.0329
  290TIP3    H122505   5.799   4.833   1.481  0.3937  0.3838 -0.6462
  290TIP3    H222506   5.842   4.688   1.475 -1.1324 -0.0762 -0.8384
  291TIP3   OH222507   1.004   5.743   7.394  0.3532 -0.3034  0.0158
  291TIP3    H122508   0.945   5.773   7.463  0.7288 -0.1244  0.2595
  291TIP3    H222509   0.979   5.651   7.380 -1.6362  0.4088 -1.6009
  292TIP3   OH222510   1.790   6.747   8.714  0.5879 -0.4306  0.6601
  292TIP3    H122511   1.883   6.749   8.736  1.1557 -1.7636 -1.4168
  292TIP3    H222512   1.756   6.671   8.761  0.9379 -0.9440  0.0981
  293TIP3   OH222513   5.313   5.464   1.931 -0.9386  0.7214 -0.3041
  293TIP3    H122514   5.235   5.485   1.879 -1.3038  0.0834 -0.0355
  293TIP3    H222515   5.335   5.374   1.905 -2.1207 -0.2589  1.7923
  294TIP3   OH222516   0.341   0.622   7.466  0.7552  0.5710  0.1519
  294TIP3    H122517   0.359   0.716   7.463 -0.7624  0.9067  0.6617
  294TIP3    H222518   0.301   0.604   7.381  0.6679  0.4784  0.2128
  295TIP3   OH222519   1.506   1.135   7.424 -0.3437 -0.4146  0.0646
  295TIP3    H122520   1.451   1.058   7.441  0.7112 -1.8060 -2.3890
  295TIP3    H222521   1.592   1.099   7.402 -0.2217  1.3328 -2.7641
  296TIP3   OH222522   4.987   4.537   8.263  0.3617  0.3281 -0.1290
  296TIP3    H122523   5.076   4.573   8.264 -0.3808  2.2656  0.6453
  296TIP3    H222524   4.965   4.531   8.170  1.2132  0.0188 -0.3212
  297TIP3   OH222525   4.145   5.324   7.980 -0.0525  0.3208  0.0605
  297TIP3    H122526   4.098   5.335   7.898 -0.0984  0.0932  0.0572
  297TIP3    H222527   4.212   5.393   7.979 -0.3710  0.6352  0.0564
  298TIP3   OH222528   0.610   3.049   0.291 -0.2112 -0.4763 -0.2687
  298TIP3    H122529   0.593   2.956   0.280  0.3223 -0.6943  0.6081
  298TIP3    H222530   0.548   3.076   0.360  1.1929 -0.7180  1.1378
  299TIP3   OH222531   6.412   6.297   8.601 -0.8128 -0.3115 -0.0263
  299TIP3    H122532   6.380   6.382   8.571  2.6240  0.5504 -1.7296
  299TIP3    H222533   6.471   6.319   8.673  0.5016 -1.1907 -0.8228
  300TIP3   OH222534   0.090   6.019   8.151  0.4082  0.3302 -0.6522
  300TIP3    H122535   0.162   5.998   8.091  1.8264  1.3749  0.6210
  300TIP3    H222536   0.051   6.099   8.115  1.0773  0.8007 -0.3378
  301TIP3   OH222537   1.841   4.355   0.133  0.0083 -1.1136 -0.4047
  301TIP3    H122538   1.823   4.380   0.042  2.8274  0.0354 -0.7606
  301TIP3    H222539   1.910   4.416   0.161  0.2504 -2.3974  2.0254
  302TIP3   OH222540   6.274   3.313   2.422 -0.0731 -0.4899  0.8348
  302TIP3    H122541   6.363   3.279   2.432  0.4912  0.4682 -0.6552
  302TIP3    H222542   6.231   3.252   2.362  0.5689  0.6526 -0.8771
  303TIP3   OH222543   5.358   5.862   1.300 -0.1942 -0.2898 -0.2749
  303TIP3    H122544   5.325   5.833   1.386  0.2639 -1.5332 -0.4969
  303TIP3    H222545   5.405   5.786   1.266  1.3444  0.8290 -0.7667
  304TIP3   OH222546   2.444   4.799   8.862  0.2101  0.2057 -0.4656
  304TIP3    H122547   2.456   4.718   8.910 -1.7659  0.3988  0.4708
  304TIP3    H222548   2.461   4.868   8.927  2.1730  0.6054 -1.3248
  305TIP3   OH222549   3.821   1.583   2.809  0.1290 -0.4565 -0.3531
  305TIP3    H122550   3.735   1.572   2.849  0.2066 -0.3333 -0.1531
  305TIP3    H222551   3.829   1.509   2.749 -0.5576  0.1134 -1.1690
  306TIP3   OH222552   0.687   5.746   0.569  0.5645 -0.5092 -0.0582
  306TIP3    H122553   0.708   5.686   0.497  3.4806  2.2725 -1.7777
  306TIP3    H222554   0.759   5.736   0.630  0.9847  1.0127 -0.2701
  307TIP3   OH222555   6.413   0.296   1.086 -0.0800 -0.1151 -0.3712
  307TIP3    H122556   6.385   0.213   1.046 -0.8189  0.0630 -0.2374
  307TIP3    H222557   6.470   0.270   1.158 -1.5858 -0.5990  0.6937
  308TIP3   OH222558   4.411   6.644   8.488 -0.2666 -0.1074  0.1733
  308TIP3    H122559   4.315   6.644   8.484 -0.2633 -0.8485 -0.1097
  308TIP3    H222560   4.432   6.586   8.561 -0.0440  0.6752  0.7334
  309TIP3   OH222561   0.855   3.817   1.835 -0.5285  0.3236  0.2382
  309TIP3    H122562   0.855   3.742   1.777  0.3988  0.2140  0.3618
  309TIP3    H222563   0.793   3.878   1.796 -0.6337 -0.1477 -0.3363
  310TIP3   OH222564   5.408   5.106   1.705  0.4927  0.3237 -0.0434
  310TIP3    H122565   5.464   5.118   1.629  0.9932 -0.1999  0.2372
  310TIP3    H222566   5.455   5.148   1.777  0.1277  0.6191  0.0254
  311TIP3   OH222567   0.375   5.880   7.834 -0.1743 -0.1334 -1.0863
  311TIP3    H122568   0.367   5.852   7.742 -0.8460 -2.1707 -0.4525
  311TIP3    H222569   0.287   5.909   7.857 -0.6725 -2.0078 -0.4124
  312TIP3   OH222570   2.315   1.678   1.267 -0.2556 -0.2194  0.7268
  312TIP3    H122571   2.342   1.586   1.273  1.5716  0.3060  1.4701
  312TIP3    H222572   2.331   1.702   1.176 -0.8391 -0.6563  0.5047
  313TIP3   OH222573   4.885   5.189   2.424 -0.5118 -0.1909  0.5795
  313TIP3    H122574   4.875   5.100   2.458 -3.0595 -1.0571 -2.0664
  313TIP3    H222575   4.847   5.245   2.492 -2.3164 -1.5077  0.7158
  314TIP3   OH222576   5.979   2.692   8.560 -0.2026  0.0274 -0.5510
  314TIP3    H122577   5.912   2.640   8.514  0.0812 -1.5545  0.7281
  314TIP3    H222578   5.929   2.760   8.606 -0.8491 -0.5539 -0.3711
  315TIP3   OH222579   0.143   5.563   1.714  0.2151  0.3296  0.3589
  315TIP3    H122580   0.185   5.637   1.671 -1.1608  0.2108 -1.2699
  315TIP3    H222581   0.208   5.493   1.708  1.1747  1.1099  1.1184
  316TIP3   OH222582   1.775   0.602   1.331 -0.1465 -0.2321  0.2290
  316TIP3    H122583   1.704   0.548   1.367 -1.3604 -0.1283 -1.8629
  316TIP3    H222584   1.781   0.677   1.391 -0.9787 -0.8376  1.1025
  317TIP3   OH222585   3.539   2.419   7.429 -0.1225  0.5922  0.0308
  317TIP3    H122586   3.491   2.336   7.431  0.2585  0.3421 -0.7875
  317TIP3    H222587   3.478   2.482   7.391 -0.2350  0.5710  0.1760
  318TIP3   OH222588   0.471   4.532   8.388  0.3142 -0.2071  0.4026
  318TIP3    H122589   0.484   4.540   8.483 -0.1427  2.2008  0.3224
  318TIP3    H222590   0.544   4.580   8.349 -0.5473  0.4787 -0.4062
  319TIP3   OH222591   4.472   5.449   7.844  0.3651 -0.4173  0.2260
  319TIP3    H122592   4.435   5.447   7.755 -1.3215 -1.2550  0.9140
  319TIP3    H222593   4.406   5.495   7.896  0.1981 -2.0800  1.5357
  320TIP3   OH222594   0.672   0.263   7.988 -0.0090 -0.4386  0.0037
  320TIP3    H122595   0.579   0.267   7.964  0.4144  0.3604 -1.7173
  320TIP3    H222596   0.685   0.175   8.022 -1.2407 -0.8070 -0.4381
  321TIP3   OH222597   4.803   1.698   2.052  0.6144  0.2429  0.3465
  321TIP3    H122598   4.833   1.781   2.013  0.9319  0.3245  0.7548
  321TIP3    H222599   4.803   1.636   1.979 -0.3642  0.7845 -0.1313
  322TIP3   OH222600   6.764   4.876   2.240 -0.3405  0.1349 -0.1088
  322TIP3    H122601   6.742   4.823   2.317  1.2318  0.1780  0.4254
  322TIP3    H222602   6.759   4.966   2.271 -0.5688  0.1861 -0.2993
  323TIP3   OH222603   1.525   2.846   7.017 -0.3619  0.2867  0.2740
  323TIP3    H122604   1.474   2.773   7.052 -0.9111  0.2143 -0.6510
  323TIP3    H222605   1.603   2.850   7.073  0.3354 -1.8369 -0.4653
  324TIP3   OH222606   3.221   5.151   2.140 -0.6455 -0.0504  0.0284
  324TIP3    H122607   3.176   5.135   2.222 -3.0678 -1.5047 -1.4512
  324TIP3    H222608   3.212   5.246   2.125 -0.6052  0.1411  1.1775
  325TIP3   OH222609   1.425   2.678   7.796  0.2621 -0.2209 -0.1509
  325TIP3    H122610   1.372   2.622   7.738 -0.5484  0.6600 -0.2846
  325TIP3    H222611   1.500   2.624   7.819 -0.3091 -1.2323 -0.5860
  326TIP3   OH222612   0.697   1.508   7.530 -0.1646  0.6899  0.1151
  326TIP3    H122613   0.685   1.431   7.473  0.5204  0.8937 -0.3169
  326TIP3    H222614   0.686   1.474   7.618  1.2463 -0.1490 -0.0064
  327TIP3   OH222615   6.519   3.518   8.877 -0.3281  0.3717  0.1702
  327TIP3    H122616   6.443   3.562   8.839  0.1483  1.3668  0.3513
  327TIP3    H222617   6.582   3.588   8.893  0.5130 -0.4000  0.3101
  328TIP3   OH222618   1.445   6.429   8.659  0.2548  0.3159  0.0057
  328TIP3    H122619   1.411   6.452   8.572  0.2720  1.1772  0.2206
  328TIP3    H222620   1.537   6.407   8.643 -0.0745 -0.8503 -0.3889
  329TIP3   OH222621   1.189   1.793   8.352 -0.0144 -0.4524  0.3156
  329TIP3    H122622   1.254   1.785   8.422 -1.1057 -0.4788  1.3647
  329TIP3    H222623   1.240   1.794   8.271  1.3974  0.9753  1.1603
  330TIP3   OH222624   4.516   2.390   7.618 -0.0540 -0.3417 -0.1143
  330TIP3    H122625   4.594   2.431   7.655 -1.3416  0.2252  2.2242
  330TIP3    H222626   4.509   2.306   7.665 -0.3904 -0.7777 -0.9281
  331TIP3   OH222627   2.254   2.560   8.531 -0.6036 -0.0443 -0.1193
  331TIP3    H122628   2.283   2.630   8.590 -0.7311  2.1452 -2.4803
  331TIP3    H222629   2.335   2.515   8.507  0.0014  1.4299 -1.0497
  332TIP3   OH222630   0.705   5.533   7.698 -0.4190 -0.0988 -0.2084
  332TIP3    H122631   0.621   5.571   7.727  0.2595  1.7837 -0.5788
  332TIP3    H222632   0.769   5.601   7.716  1.1564 -1.6898  0.5307
  333TIP3   OH222633   3.969   3.373   1.452 -0.1805 -0.1811  0.0004
  333TIP3    H122634   3.934   3.429   1.383  0.0785  3.0408  2.2744
  333TIP3    H222635   4.057   3.349   1.421 -0.6924 -0.2429 -1.4817
  334TIP3   OH222636   3.253   2.060   1.428  0.1409 -0.2382 -0.1292
  334TIP3    H122637   3.272   2.119   1.501 -1.5593 -0.5166  0.5838
  334TIP3    H222638   3.210   1.985   1.468  0.1520 -0.8993 -1.3063
  335TIP3   OH222639   0.809   4.789   0.076 -0.3888 -0.1808 -0.1076
  335TIP3    H122640   0.826   4.883   0.067 -1.0416  0.0187  0.6354
  335TIP3    H222641   0.717   4.784   0.103  0.1469 -0.9367  1.7395
  336TIP3   OH222642   3.393   2.650   0.121 -0.4201 -0.2885  0.0041
  336TIP3    H122643   3.404   2.742   0.096 -2.6006 -0.0402 -0.2325
  336TIP3    H222644   3.453   2.602   0.064 -2.0356  0.6640 -2.7149
  337TIP3   OH222645   3.475   0.231   1.784 -0.2910  0.1013 -0.1757
  337TIP3    H122646   3.494   0.192   1.869 -2.3576  3.1282  1.8894
  337TIP3    H222647   3.549   0.287   1.765 -1.0924  1.6667  1.1685
  338TIP3   OH222648   2.715   5.274   1.002 -0.1349 -0.4272  0.0819
  338TIP3    H122649   2.764   5.287   0.920 -1.5868 -1.2838 -0.9820
  338TIP3    H222650   2.701   5.179   1.006  0.8562 -0.5272  1.9325
  339TIP3   OH222651   0.736   2.180   0.656 -0.2678  0.3568  0.1037
  339TIP3    H122652   0.770   2.102   0.701 -0.9185  0.0003 -0.0080
  339TIP3    H222653   0.814   2.233   0.639  0.2663 -0.5247 -0.3107
  340TIP3   OH222654   0.313   1.861   8.111 -0.1156  0.5186 -0.1656
  340TIP3    H122655   0.406   1.868   8.131 -0.2588  3.0391 -0.0407
  340TIP3    H222656   0.269   1.875   8.194 -0.5981  2.0383 -0.6433
  341TIP3   OH222657   6.139   4.637   8.138 -0.4857  0.1116  0.5256
  341TIP3    H122658   6.115   4.545   8.152 -0.6379  0.4296  2.6074
  341TIP3    H222659   6.175   4.666   8.222 -1.4642  2.2770  0.2588
  342TIP3   OH222660   3.123   5.558   1.368  0.3688  0.1803  0.1101
  342TIP3    H122661   3.042   5.596   1.335 -0.8825 -2.2716  0.1791
  342TIP3    H222662   3.192   5.613   1.330 -1.1571  0.0552 -3.1413
  343TIP3   OH222663   4.112   2.873   8.266  0.7000 -0.2627  0.2855
  343TIP3    H122664   4.172   2.839   8.332 -0.4591 -0.9733  0.9800
  343TIP3    H222665   4.028   2.880   8.310 -0.0673 -0.6299 -1.0784
  344TIP3   OH222666   0.732   6.735   0.195  0.1253  0.4202  0.2145
  344TIP3    H122667   0.744   6.722   0.289  0.1986  3.0114  0.6421
  344TIP3    H222668   0.676   6.662   0.168 -2.1279  0.9754  2.8371
  345TIP3   OH222669   2.586   4.510   0.865 -0.4205 -0.2164 -0.2528
  345TIP3    H122670   2.655   4.569   0.896 -0.9852  0.1290  0.3471
  345TIP3    H222671   2.509   4.531   0.917 -1.0326 -0.5105 -1.0057
  346TIP3   OH222672   5.137   5.934   0.937 -0.6023  0.6513  0.0659
  346TIP3    H122673   5.197   6.008   0.948 -0.2468  0.9298 -2.8984
  346TIP3    H222674   5.087   5.931   1.019  0.4489  3.1792  0.8936
  347TIP3   OH222675   4.855   3.331   7.958  0.2117  0.3742 -0.3544
  347TIP3    H122676   4.928   3.272   7.977 -0.0015  0.0512 -0.5321
  347TIP3    H222677   4.777   3.280   7.980  0.0483  0.8553  0.2258
  348TIP3   OH222678   2.068   4.640   0.776  0.0542 -0.4331 -0.3882
  348TIP3    H122679   1.980   4.655   0.810  0.4869  1.0993  0.1438
  348TIP3    H222680   2.056   4.578   0.704 -1.5710  0.3845 -0.8688
  349TIP3   OH222681   6.633   0.456   1.002 -0.2107 -0.0069  0.0595
  349TIP3    H122682   6.640   0.538   0.953  1.3663 -0.4160 -0.4664
  349TIP3    H222683   6.561   0.409   0.960  2.0014 -0.9873 -3.0101
  350TIP3   OH222684   2.934   5.311   1.281 -0.3513 -0.5073 -0.4476
  350TIP3    H122685   2.895   5.306   1.368  0.6792 -0.5101  0.0225
  350TIP3    H222686   2.878   5.372   1.233  0.1125  0.9291  0.7772
  351TIP3   OH222687   1.873   0.423   7.943 -0.5523  0.6419 -0.2381
  351TIP3    H122688   1.868   0.327   7.934 -0.3962  0.6593 -0.5536
  351TIP3    H222689   1.804   0.445   8.006 -2.3477  0.5639 -2.0488
  352TIP3   OH222690   6.243   4.253   0.762  0.0828  0.2355  0.0845
  352TIP3    H122691   6.327   4.212   0.739  0.4643  0.8026  0.4284
  352TIP3    H222692   6.211   4.201   0.835  0.7752  0.7903  0.8018
  353TIP3   OH222693   1.619   5.970   2.314  0.0574 -0.0978 -0.5799
  353TIP3    H122694   1.706   5.938   2.335 -0.8304 -0.6491  2.9627
  353TIP3    H222695   1.568   5.891   2.295 -0.2378 -0.0677  0.0333
  354TIP3   OH222696   5.105   5.884   1.239 -0.2373  0.0257 -0.2628
  354TIP3    H122697   5.198   5.872   1.257 -0.2113 -0.4345 -0.7117
  354TIP3    H222698   5.061   5.844   1.315 -0.0945 -0.7944 -0.6033
  355TIP3   OH222699   4.038   0.170   1.462  0.1299 -0.6303  0.4862
  355TIP3    H122700   3.944   0.161   1.479 -0.5695 -1.6257 -3.0213
  355TIP3    H222701   4.065   0.084   1.431  1.4587  0.3828 -1.3840
  356TIP3   OH222702   5.079   1.969   0.654  0.0206  0.2031  0.2887
  356TIP3    H122703   5.051   1.878   0.646 -1.9166  0.3540  3.6705
  356TIP3    H222704   5.000   2.020   0.634  0.2077  0.9963  1.4991
  357TIP3   OH222705   1.267   3.641   8.141  0.4012 -0.6474 -0.6529
  357TIP3    H122706   1.185   3.611   8.179  0.4025 -1.5446 -1.3378
  357TIP3    H222707   1.283   3.726   8.182 -0.2723 -0.9890  0.3350
  358TIP3   OH222708   1.937   6.768   8.442  0.1983 -0.0604 -0.1529
  358TIP3    H122709   2.020   6.721   8.434 -0.2575 -0.7079 -1.2347
  358TIP3    H222710   1.870   6.702   8.424 -0.4356  1.0915 -2.2906
  359TIP3   OH222711   1.035   0.779   2.065  0.5634 -0.3069 -0.4975
  359TIP3    H122712   1.027   0.872   2.088  2.2442 -0.5349  1.2494
  359TIP3    H222713   1.116   0.751   2.107 -1.2245 -3.2125  1.3370
  360TIP3   OH222714   3.704   0.800   0.251  0.4086  0.2960 -0.5081
  360TIP3    H122715   3.693   0.804   0.156  2.2221  1.2667 -0.7200
  360TIP3    H222716   3.616   0.784   0.285 -0.5501  1.5967 -2.2458
  361TIP3   OH222717   6.364   0.703   2.149  0.0867 -0.1374  1.3396
  361TIP3    H122718   6.291   0.702   2.211 -0.9064 -0.5495  0.2203
  361TIP3    H222719   6.330   0.750   2.073  0.7414 -0.9607  0.5170
  362TIP3   OH222720   5.052   3.043   8.540  0.0734  0.3120  0.1321
  362TIP3    H122721   5.113   3.080   8.603 -0.2755 -0.8820  1.2312
  362TIP3    H222722   5.087   2.955   8.522 -1.4347 -0.5152  1.0280
  363TIP3   OH222723   5.240   5.699   6.471 -0.0289 -0.1112 -0.2459
  363TIP3    H122724   5.192   5.642   6.531  0.4214 -0.0421  0.1909
  363TIP3    H222725   5.248   5.782   6.518 -1.0942  0.4847 -1.0697
  364TIP3   OH222726   5.616   3.798   1.594 -0.2921 -0.6894  0.2130
  364TIP3    H122727   5.561   3.858   1.544 -0.8402 -0.8664  0.6064
  364TIP3    H222728   5.555   3.738   1.637  0.0633  0.3336  2.2758
  365TIP3   OH222729   5.681   1.271   6.523 -1.0409 -0.2234  0.4235
  365TIP3    H122730   5.679   1.335   6.594 -0.1287 -0.2647  0.5022
  365TIP3    H222731   5.591   1.267   6.492 -0.9167  2.0060 -0.4051
  366TIP3   OH222732   0.045   6.677   1.521 -0.1240  0.2261 -0.2838
  366TIP3    H122733   0.024   6.586   1.501 -0.1995  0.2292 -0.2188
  366TIP3    H222734   0.119   6.671   1.582  2.3134  0.2559 -2.9981
  367TIP3   OH222735   2.056   3.430   1.568 -0.8062  0.3612  0.0233
  367TIP3    H122736   2.029   3.512   1.610 -4.8410 -1.6819  1.9556
  367TIP3    H222737   2.015   3.433   1.482  0.2805  0.9134 -0.4966
  368TIP3   OH222738   0.640   6.018   1.586 -0.3699 -0.0728  0.0770
  368TIP3    H122739   0.589   6.002   1.666 -0.8496  0.2072 -0.1645
  368TIP3    H222740   0.637   6.113   1.575  0.3582 -0.0338  0.1487
  369TIP3   OH222741   4.737   6.612   1.384  0.1939 -0.3128 -0.3839
  369TIP3    H122742   4.728   6.647   1.472  1.9082 -1.1719  0.1852
  369TIP3    H222743   4.647   6.594   1.356 -0.4763  1.3034  0.5990
  370TIP3   OH222744   5.376   3.106   7.922 -0.1235  0.3520 -0.3333
  370TIP3    H122745   5.403   3.031   7.974  0.7424  1.5441  1.0283
  370TIP3    H222746   5.404   3.086   7.833  3.5116  0.5647  0.5964
  371TIP3   OH222747   5.302   4.871   2.916 -0.2708  0.0599 -0.0516
  371TIP3    H122748   5.388   4.912   2.902 -0.5300  0.5667 -0.1956
  371TIP3    H222749   5.313   4.781   2.885  0.2422  0.0863  0.0394
  372TIP3   OH222750   5.209   0.126   7.249 -0.1182  0.0624 -0.9291
  372TIP3    H122751   5.133   0.182   7.239  0.3408  0.6394 -1.2731
  372TIP3    H222752   5.174   0.042   7.280 -0.5278  1.6645  3.7566
  373TIP3   OH222753   3.601   2.459   8.206 -0.0480  0.8680  0.1043
  373TIP3    H122754   3.668   2.495   8.263  1.4210  1.1905 -1.7087
  373TIP3    H222755   3.567   2.382   8.253 -0.8169  2.5800  2.5219
  374TIP3   OH222756   1.417   1.352   8.320  0.3107 -0.2677 -0.0886
  374TIP3    H122757   1.398   1.338   8.227 -0.0503  0.7795 -0.1889
  374TIP3    H222758   1.508   1.323   8.330  1.0477  1.4688 -1.2359
  375TIP3   OH222759   1.341   2.172   0.301 -0.2515 -0.0556 -0.2829
  375TIP3    H122760   1.337   2.101   0.238 -0.2158  1.2082 -1.7695
  375TIP3    H222761   1.393   2.137   0.374  0.8156 -1.1395 -1.5207
  376TIP3   OH222762   0.398   5.525   1.999 -0.0732  0.6073 -0.1681
  376TIP3    H122763   0.383   5.520   2.094  0.2905 -0.2975 -0.1405
  376TIP3    H222764   0.370   5.439   1.967  0.7711  0.5360 -0.7303
  377TIP3   OH222765   0.276   0.181   1.674 -0.1464  0.4413  0.2891
  377TIP3    H122766   0.252   0.112   1.736 -1.1523  1.1443  0.7006
  377TIP3    H222767   0.288   0.259   1.729  1.4012  0.5198 -0.1151
  378TIP3   OH222768   1.592   2.224   8.737 -0.4107 -0.2507 -0.4162
  378TIP3    H122769   1.549   2.231   8.652 -2.3053 -1.7095  0.3499
  378TIP3    H222770   1.643   2.143   8.732  0.2508  0.1629 -0.4699
  379TIP3   OH222771   4.066   2.120   7.073 -0.2953 -0.1673  0.2671
  379TIP3    H122772   4.035   2.061   7.004 -0.8600 -0.8051  1.0480
  379TIP3    H222773   4.161   2.119   7.063 -0.4323  1.4397 -1.8502
  380TIP3   OH222774   5.015   4.781   8.569  0.2831 -0.2686 -0.2428
  380TIP3    H122775   5.085   4.847   8.574  0.8915 -1.0185  2.7837
  380TIP3    H222776   4.943   4.827   8.527  1.3273  1.7457  0.0320
  381TIP3   OH222777   1.987   6.562   1.942 -0.1917  0.6542 -0.3695
  381TIP3    H122778   1.927   6.538   1.871 -0.8457 -0.3203  0.4777
  381TIP3    H222779   2.074   6.548   1.906 -0.4965  0.8433 -1.2054
  382TIP3   OH222780   1.700   3.987   2.109  0.2299 -0.2619 -0.0800
  382TIP3    H122781   1.695   4.072   2.063  1.6417  0.1452  0.4853
  382TIP3    H222782   1.714   4.010   2.200 -0.8474 -1.1070  0.3199
  383TIP3   OH222783   2.885   5.906   8.331 -0.1537  0.8994  0.3717
  383TIP3    H122784   2.915   5.955   8.254 -0.6481 -1.4349 -1.4153
  383TIP3    H222785   2.960   5.854   8.358 -0.2767  0.9646  0.8494
  384TIP3   OH222786   4.281   3.255   1.370 -0.5056 -0.3791 -0.6021
  384TIP3    H122787   4.216   3.221   1.308 -0.6351 -1.9370  0.3436
  384TIP3    H222788   4.364   3.215   1.343 -0.3238 -0.0766 -0.5090
  385TIP3   OH222789   6.406   2.473   1.468  0.1228  0.1448  0.2031
  385TIP3    H122790   6.427   2.463   1.560  1.9130 -1.2432 -0.3013
  385TIP3    H222791   6.310   2.474   1.465  0.0381  0.6399  2.0882
  386TIP3   OH222792   5.029   4.087   1.996  0.0693 -0.1170 -0.2254
  386TIP3    H122793   4.957   4.150   1.999  1.4804  1.7192 -2.1699
  386TIP3    H222794   5.090   4.118   2.063 -0.5198 -1.2250  0.8805
  387TIP3   OH222795   1.536   5.059   7.262  0.5511  0.8301 -0.3311
  387TIP3    H122796   1.451   5.082   7.223  0.9419 -0.5386 -2.1302
  387TIP3    H222797   1.595   5.128   7.231  0.4398  0.8772 -0.4409
  388TIP3   OH222798   2.845   3.391   8.026  0.2606 -0.1045  0.5399
  388TIP3    H122799   2.901   3.392   8.103 -0.8506 -0.0708  1.3769
  388TIP3    H222800   2.793   3.311   8.034 -0.5427  0.3821  0.3418
  389TIP3   OH222801   4.376   4.903   2.022 -0.1611 -0.6640  0.2880
  389TIP3    H122802   4.392   4.973   1.959 -0.1922 -1.8045 -1.0409
  389TIP3    H222803   4.432   4.925   2.097  0.6076  0.2364 -0.5190
  390TIP3   OH222804   1.559   0.870   0.530 -0.7814 -0.3356  0.0613
  390TIP3    H122805   1.635   0.867   0.587  0.3844  0.5987 -1.3706
  390TIP3    H222806   1.496   0.926   0.576 -0.6277 -1.0819  1.2339
  391TIP3   OH222807   2.292   4.877   0.990  0.1435 -0.2880 -0.1590
  391TIP3    H122808   2.292   4.968   1.021  0.3138 -0.2138 -0.3728
  391TIP3    H222809   2.219   4.836   1.037 -0.0803  0.0184 -0.2330
  392TIP3   OH222810   4.409   1.078   0.629 -0.0895 -0.1433 -0.3208
  392TIP3    H122811   4.325   1.115   0.653 -0.1432 -0.9863  0.8930
  392TIP3    H222812   4.466   1.096   0.703  1.4610  2.2826 -1.9781
  393TIP3   OH222813   3.125   3.573   8.614  0.3206  0.2751  0.4614
  393TIP3    H122814   3.219   3.574   8.601  0.0478 -0.1322 -2.2055
  393TIP3    H222815   3.111   3.512   8.687  2.1412  1.2793  1.7078
  394TIP3   OH222816   5.603   6.096   8.833  0.1114 -0.6338  0.3152
  394TIP3    H122817   5.633   6.012   8.867  0.6766 -0.9465 -0.8847
  394TIP3    H222818   5.627   6.093   8.740 -0.8937  0.3856  0.0129
  395TIP3   OH222819   5.155   6.368   8.570  0.0661 -0.1320 -0.0598
  395TIP3    H122820   5.244   6.341   8.592 -0.2186 -1.0428  0.0029
  395TIP3    H222821   5.165   6.452   8.526  0.8611  0.4482  1.1641
  396TIP3   OH222822   3.212   6.051   0.177 -0.3035  0.6614 -0.6557
  396TIP3    H122823   3.252   6.131   0.142 -0.1702  1.0464  0.3384
  396TIP3    H222824   3.230   5.984   0.111  0.7058  1.1650 -0.9181
  397TIP3   OH222825   5.918   2.044   8.273 -0.2453  0.2222  0.6176
  397TIP3    H122826   5.948   1.953   8.267  2.2502  1.0255 -0.7160
  397TIP3    H222827   5.998   2.095   8.283 -1.5349  2.3336  0.8162
  398TIP3   OH222828   2.009   1.554   1.832  0.7756 -0.5621  0.8802
  398TIP3    H122829   1.925   1.509   1.844  1.6969 -2.2649  1.2437
  398TIP3    H222830   2.019   1.608   1.910  0.7935 -1.6865  1.6791
  399TIP3   OH222831   0.885   4.801   1.995 -0.6490 -0.2405  0.3000
  399TIP3    H122832   0.956   4.759   2.044 -0.2444  1.0085  0.8544
  399TIP3    H222833   0.818   4.820   2.061 -0.8297 -0.0571  0.0666
  400TIP3   OH222834   6.778   6.318   2.470  0.1135 -0.3515  0.1293
  400TIP3    H122835   6.748   6.240   2.517 -0.5414  0.4193  1.0344
  400TIP3    H222836   6.698   6.361   2.441  0.4907 -0.3916 -1.0276
  401TIP3   OH222837   2.137   2.997   7.770  0.8192 -0.0411 -0.3255
  401TIP3    H122838   2.122   3.070   7.831  2.3784  1.0961 -1.2198
  401TIP3    H222839   2.131   3.036   7.683 -0.1513 -1.3955 -0.9087
  402TIP3   OH222840   1.513   4.802   1.806 -0.0291 -0.2509 -0.3490
  402TIP3    H122841   1.479   4.767   1.724  1.0972 -2.5415  0.0922
  402TIP3    H222842   1.439   4.802   1.866 -0.1067 -1.8049 -0.4148
  403TIP3   OH222843   2.441   0.719   2.590 -0.3565  0.4914 -0.5792
  403TIP3    H122844   2.482   0.661   2.655  0.6487  0.9609 -0.7807
  403TIP3    H222845   2.468   0.807   2.617  0.3940  0.6706 -1.8357
  404TIP3   OH222846   4.481   2.933   0.369 -0.0251  0.3893  0.4124
  404TIP3    H122847   4.522   3.012   0.333  1.5728 -0.5511  0.0521
  404TIP3    H222848   4.476   2.873   0.295  2.3184 -1.1868  1.4011
  405TIP3   OH222849   2.649   1.471   8.325 -0.0087  0.0648  0.1073
  405TIP3    H122850   2.613   1.517   8.249 -0.1823  2.4433  1.5465
  405TIP3    H222851   2.707   1.534   8.366  0.8972 -1.5396  1.3920
  406TIP3   OH222852   6.612   6.268   8.802  0.7435 -0.0341  0.5953
  406TIP3    H122853   6.578   6.260   8.891  0.1705 -0.9761  0.3063
  406TIP3    H222854   6.683   6.204   8.797 -0.7465 -1.7186 -0.2991
  407TIP3   OH222855   2.126   0.303   1.714  0.3129  0.2567 -0.0021
  407TIP3    H122856   2.210   0.343   1.734  0.4955 -0.1050 -0.0317
  407TIP3    H222857   2.080   0.301   1.799  0.3656  0.3812  0.0290
  408TIP3   OH222858   4.931   0.167   7.686  0.2244 -0.0007  0.0256
  408TIP3    H122859   4.863   0.115   7.642  1.8167 -0.8155 -1.5738
  408TIP3    H222860   5.009   0.112   7.684  1.4528  1.6714  0.0598
  409TIP3   OH222861   6.132   4.416   0.560 -0.0870 -0.6871  0.1219
  409TIP3    H122862   6.139   4.360   0.483  2.4070 -2.3723  1.4179
  409TIP3    H222863   6.150   4.357   0.634 -0.1762  1.2799  1.8084
  410TIP3   OH222864   5.515   0.571   1.074 -0.0727  0.4576 -0.5461
  410TIP3    H122865   5.533   0.511   1.001  0.3453 -0.4133  0.2535
  410TIP3    H222866   5.424   0.553   1.097 -0.5348  1.4687 -1.5018
  411TIP3   OH222867   1.610   5.553   1.966  0.0494 -0.1270 -0.2454
  411TIP3    H122868   1.572   5.465   1.968 -0.2048 -0.0404  2.2349
  411TIP3    H222869   1.661   5.560   2.047  0.5801  1.7953 -0.6751
  412TIP3   OH222870   2.264   1.704   1.904 -0.0981  0.3046  0.0950
  412TIP3    H122871   2.215   1.727   1.983  0.3071 -0.9716  0.7533
  412TIP3    H222872   2.338   1.764   1.902 -1.4648  2.0326 -0.7267
  413TIP3   OH222873   1.783   2.177   0.842 -0.6065 -0.8417  0.0979
  413TIP3    H122874   1.705   2.230   0.856 -0.8204 -0.5509 -1.8522
  413TIP3    H222875   1.753   2.086   0.849 -0.7774 -0.7312  0.8809
  414TIP3   OH222876   1.694   4.221   7.700  0.0767 -0.1385  0.1994
  414TIP3    H122877   1.650   4.304   7.717  0.6997  0.0999  0.6768
  414TIP3    H222878   1.737   4.234   7.615  1.2879  0.5253  0.8744
  415TIP3   OH222879   3.730   5.550   7.985  0.2935  0.3550  0.0046
  415TIP3    H122880   3.819   5.530   8.011  0.3505 -0.3813 -0.7494
  415TIP3    H222881   3.694   5.467   7.954 -0.5340  0.7198 -0.0431
  416TIP3   OH222882   2.456   5.231   2.726 -0.7695  0.7293  0.2916
  416TIP3    H122883   2.527   5.186   2.770 -1.1632 -0.1371  0.0646
  416TIP3    H222884   2.493   5.315   2.699  0.2153  0.2267  0.0319
  417TIP3   OH222885   0.313   0.990   7.607  0.5088 -0.5933 -0.2756
  417TIP3    H122886   0.370   1.065   7.622  0.3800 -0.2717 -1.3673
  417TIP3    H222887   0.359   0.936   7.543  0.3690 -1.1994  0.1256
  418TIP3   OH222888   5.422   5.410   0.374 -0.7856 -0.6843 -0.1265
  418TIP3    H122889   5.456   5.465   0.445  0.4174 -1.5698  0.0147
  418TIP3    H222890   5.404   5.472   0.303  1.0716 -0.1281 -0.1755
  419TIP3   OH222891   1.872   5.341   8.678  0.7048  0.3429  0.2396
  419TIP3    H122892   1.861   5.247   8.663  0.6617  0.5265 -1.0129
  419TIP3    H222893   1.795   5.367   8.729 -0.7388  0.1660 -1.7231
  420TIP3   OH222894   2.546   5.314   1.245 -0.3015  0.0503 -0.3981
  420TIP3    H122895   2.601   5.270   1.181  0.8555  0.4989  0.2530
  420TIP3    H222896   2.607   5.346   1.311 -1.1170  2.3239 -0.6482
  421TIP3   OH222897   3.807   6.610   0.314 -0.3138 -0.1207 -0.7026
  421TIP3    H122898   3.781   6.607   0.222 -0.3254  1.1163 -0.7606
  421TIP3    H222899   3.796   6.702   0.338  1.3122 -0.1072  0.0642
  422TIP3   OH222900   1.383   1.755   8.556  0.1042  0.4281 -0.2336
  422TIP3    H122901   1.446   1.688   8.533 -0.5438  0.4044 -2.0971
  422TIP3    H222902   1.429   1.811   8.619  0.2711 -2.3616  2.3456
  423TIP3   OH222903   6.127   4.480   0.104  0.2417  0.4166  0.1926
  423TIP3    H122904   6.120   4.570   0.071  0.6133  0.5125  0.3734
  423TIP3    H222905   6.037   4.457   0.128  0.2874  1.0983  1.0813
  424TIP3   OH222906   6.612   2.578   1.300  0.7338  0.0783 -0.0161
  424TIP3    H122907   6.652   2.500   1.340 -2.6862 -3.1208 -2.1619
  424TIP3    H222908   6.538   2.599   1.357 -0.6147 -0.7535 -1.3914
  425TIP3   OH222909   0.855   6.231   7.325 -0.1020 -0.6575 -0.2349
  425TIP3    H122910   0.832   6.142   7.299 -2.6505  0.4526 -2.2697
  425TIP3    H222911   0.883   6.274   7.244  0.2332  0.6282  0.5230
  426TIP3   OH222912   0.451   1.560   7.950  0.1700 -0.1966  0.0511
  426TIP3    H122913   0.393   1.543   8.024  0.5233  0.1986  0.4249
  426TIP3    H222914   0.400   1.616   7.892 -0.8052 -2.0280 -0.9350
  427TIP3   OH222915   3.069   4.744   8.273  0.1887  0.5568  0.1884
  427TIP3    H122916   3.111   4.658   8.267  1.3489  1.0793  0.5422
  427TIP3    H222917   3.071   4.764   8.367  0.6325  1.3146  0.0166
  428TIP3   OH222918   2.983   0.914   7.879 -0.1351 -0.1072 -0.4649
  428TIP3    H122919   3.075   0.887   7.886 -0.4376 -1.2315 -0.6306
  428TIP3    H222920   2.947   0.858   7.810 -0.5614  1.4344 -1.5246
  429TIP3   OH222921   4.479   6.464   8.681 -0.3636 -0.7546  0.2135
  429TIP3    H122922   4.524   6.407   8.743 -1.7674 -0.6405  1.3758
  429TIP3    H222923   4.417   6.406   8.636 -0.0891 -0.6229 -0.3403
  430TIP3   OH222924   3.394   1.581   7.966 -0.0249  0.1330  0.1542
  430TIP3    H122925   3.421   1.534   8.045  0.6025  2.7114  1.5621
  430TIP3    H222926   3.301   1.599   7.979 -0.4201 -1.1437 -0.6704
  431TIP3   OH222927   3.111   6.793   2.491 -0.5662  0.2219 -0.1075
  431TIP3    H122928   3.019   6.772   2.502 -0.7296  1.5833  1.4964
  431TIP3    H222929   3.118   6.885   2.515  1.3098 -0.0111  0.3875
  432TIP3   OH222930   6.759   0.545   0.426 -0.2172 -0.4100 -0.0314
  432TIP3    H122931   6.735   0.637   0.418  1.1551  0.1271  1.5332
  432TIP3    H222932   6.705   0.501   0.361 -0.9815  1.4751 -0.7507
  433TIP3   OH222933   0.745   6.604   1.255  0.0245 -0.3081  0.5914
  433TIP3    H122934   0.723   6.666   1.185  0.6576 -1.6320 -0.8526
  433TIP3    H222935   0.668   6.603   1.311 -0.0348  1.6938  0.6151
  434TIP3   OH222936   5.056   6.549   2.828  0.4937 -0.2132  1.1296
  434TIP3    H122937   5.126   6.612   2.813  0.5884 -0.8121 -1.4050
  434TIP3    H222938   5.051   6.499   2.746 -2.4616 -0.6184  1.4580
  435TIP3   OH222939   0.906   6.149   2.284  0.3487 -0.0331 -0.1505
  435TIP3    H122940   0.985   6.197   2.310 -0.2651  0.7539  0.3088
  435TIP3    H222941   0.878   6.104   2.365  1.6654 -2.3228 -0.8692
  436TIP3   OH222942   0.631   5.725   7.344  0.5541 -0.1307 -0.1444
  436TIP3    H122943   0.586   5.729   7.260  0.0631  0.3141  0.1286
  436TIP3    H222944   0.591   5.652   7.390  0.3856  0.0137 -0.0592
  437TIP3   OH222945   1.466   3.196   2.524  0.0714  0.1429  0.3419
  437TIP3    H122946   1.474   3.123   2.586 -1.0172  1.2630  1.8650
  437TIP3    H222947   1.493   3.158   2.440  1.1249 -1.5623  1.3721
  438TIP3   OH222948   5.656   3.841   0.129  0.0175  0.7440 -0.0547
  438TIP3    H122949   5.611   3.924   0.111 -0.5157  0.6083  0.6041
  438TIP3    H222950   5.667   3.841   0.224  4.0779  2.1318 -0.3557
  439TIP3   OH222951   1.756   3.691   1.823 -0.0861  0.1057 -0.7539
  439TIP3    H122952   1.850   3.701   1.815 -0.1787  0.5321 -1.3605
  439TIP3    H222953   1.724   3.779   1.840 -0.3683 -0.0475 -0.4831
  440TIP3   OH222954   0.531   5.525   8.776 -0.1021  0.0761  0.6710
  440TIP3    H122955   0.464   5.497   8.713 -0.2058  0.0975  0.7715
  440TIP3    H222956   0.606   5.469   8.758 -0.3375 -0.3215  0.9302
  441TIP3   OH222957   0.750   4.874   7.465 -0.0289  0.1160 -0.6175
  441TIP3    H122958   0.761   4.934   7.392  0.8235  1.2332  0.3873
  441TIP3    H222959   0.677   4.818   7.439 -1.1294  1.8371 -1.4333
  442TIP3   OH222960   0.410   4.528   0.493  0.0138  0.2922 -0.6735
  442TIP3    H122961   0.485   4.529   0.433  0.5905 -0.2299  0.0258
  442TIP3    H222962   0.410   4.614   0.534  0.4453  0.1769 -0.4232
  443TIP3   OH222963   3.262   4.552   7.342 -0.2923  0.3981 -0.8765
  443TIP3    H122964   3.187   4.607   7.316  0.0055  1.2828  0.0672
  443TIP3    H222965   3.274   4.492   7.268 -2.1042  0.0458 -0.9444
  444TIP3   OH222966   2.296   0.053   0.742  0.0574  0.6455  0.2653
  444TIP3    H122967   2.346   0.101   0.676 -0.4077  0.6096 -0.1197
  444TIP3    H222968   2.327  -0.037   0.737  0.4225  0.7595  0.4875
  445TIP3   OH222969   0.334   0.888   7.322  0.2743 -0.0664  0.3583
  445TIP3    H122970   0.250   0.885   7.277  0.7783 -0.4319 -0.5866
  445TIP3    H222971   0.398   0.902   7.253  0.9068  1.3286  1.1966
  446TIP3   OH222972   1.953   0.158   7.875 -0.3685  0.2543  0.1167
  446TIP3    H122973   2.008   0.094   7.919  1.2055  0.8802 -0.8662
  446TIP3    H222974   1.967   0.143   7.782 -1.4182  0.8210 -0.1628
  447TIP3   OH222975   0.590   0.228   7.608 -0.3866 -0.5669 -0.5175
  447TIP3    H122976   0.651   0.301   7.610  1.9863 -2.4012 -0.7542
  447TIP3    H222977   0.543   0.237   7.526  0.4612  0.2540 -0.9252
  448TIP3   OH222978   2.822   3.159   0.751  0.2868  0.3961 -0.0141
  448TIP3    H122979   2.778   3.196   0.827 -1.3162  2.5521 -1.8377
  448TIP3    H222980   2.908   3.201   0.751 -0.3714  1.8188 -0.3193
  449TIP3   OH222981   1.770   4.645   0.872 -0.0894 -0.0031 -0.1598
  449TIP3    H122982   1.797   4.722   0.822  0.0594 -0.4694 -0.8038
  449TIP3    H222983   1.739   4.681   0.956  0.0347  0.7489 -0.4268
  450TIP3   OH222984   3.159   0.305   7.193  0.1449 -0.0781 -0.0416
  450TIP3    H122985   3.110   0.225   7.178  0.6530 -0.7228  1.5512
  450TIP3    H222986   3.227   0.305   7.126  1.4408 -2.0930  1.1761
  451TIP3   OH222987   4.920   1.766   0.254  0.1684 -0.9356 -0.0870
  451TIP3    H122988   4.917   1.839   0.193 -2.0558 -0.5367  0.4134
  451TIP3    H222989   4.914   1.688   0.199  2.7138 -0.8414 -0.6335
  452TIP3   OH222990   4.856   6.544   8.524 -0.1724  0.3415 -0.0900
  452TIP3    H122991   4.782   6.591   8.485 -0.8588 -0.1618  0.5613
  452TIP3    H222992   4.912   6.612   8.560 -0.5992  0.7176 -0.1262
  453TIP3   OH222993   2.929   5.842   1.349  0.3542 -0.1176  0.0704
  453TIP3    H122994   2.889   5.882   1.272  1.9102  0.0889 -0.6570
  453TIP3    H222995   2.856   5.799   1.394 -0.8830  1.2061 -0.5833
  454TIP3   OH222996   1.474   1.232   0.562  0.0236 -0.0158 -0.1159
  454TIP3    H122997   1.523   1.184   0.496 -0.5021 -0.1846 -0.3953
  454TIP3    H222998   1.384   1.199   0.554  0.2050 -1.0809  1.6373
  455TIP3   OH222999   0.657   5.514   1.920 -0.0864 -0.5266 -0.3379
  455TIP3    H123000   0.562   5.505   1.931 -0.1189 -0.2892 -0.4165
  455TIP3    H223001   0.670   5.518   1.825  0.1186 -1.7657 -0.3788
  456TIP3   OH223002   4.664   1.386   8.738 -0.6518  0.3804 -0.4693
  456TIP3    H123003   4.654   1.292   8.725 -1.3812  0.7473 -3.2713
  456TIP3    H223004   4.757   1.403   8.724 -0.4067  0.0454  0.6377
  457TIP3   OH223005   2.322   2.051   0.926 -0.0631  0.3647 -0.3180
  457TIP3    H123006   2.240   2.030   0.881 -0.9960  0.6859  1.1723
  457TIP3    H223007   2.370   2.106   0.864 -0.5275 -0.6285 -1.6004
  458TIP3   OH223008   6.352   4.911   2.811 -0.1824 -0.0076  0.0912
  458TIP3    H123009   6.315   4.881   2.728 -0.1558  1.0203 -0.2977
  458TIP3    H223010   6.285   4.967   2.849 -0.2411 -0.5602  0.8289
  459TIP3   OH223011   6.132   3.928   0.115  0.2279 -0.5560  0.2214
  459TIP3    H123012   6.094   4.016   0.104 -2.1318 -1.4979  0.1875
  459TIP3    H223013   6.100   3.899   0.201  0.6042 -1.5558  0.0365
  460TIP3   OH223014   5.267   3.510   7.742 -0.2176  0.2166 -0.1591
  460TIP3    H123015   5.315   3.479   7.665  0.7894  0.8623  0.1994
  460TIP3    H223016   5.282   3.605   7.744 -0.6388  0.2780  0.5550
  461TIP3   OH223017   1.324   0.036   7.436 -0.0428  0.1371 -0.9389
  461TIP3    H123018   1.239  -0.003   7.457 -1.1721 -0.4864 -5.6663
  461TIP3    H223019   1.341   0.095   7.509 -4.0196 -0.4664  0.7654
  462TIP3   OH223020   4.343   3.606   1.595  0.0860  0.2494  0.5223
  462TIP3    H123021   4.358   3.686   1.545 -0.0540  0.8576  1.4156
  462TIP3    H223022   4.425   3.557   1.588 -0.5533 -0.5882 -1.8383
  463TIP3   OH223023   4.554   3.579   2.205 -0.3820 -0.7775 -0.0643
  463TIP3    H123024   4.480   3.571   2.266  0.8520  0.9812  1.7881
  463TIP3    H223025   4.630   3.551   2.256  0.5503 -0.4186 -1.2148
  464TIP3   OH223026   3.416   4.266   1.579 -0.3651  0.9830  0.2254
  464TIP3    H123027   3.335   4.317   1.590 -0.2859  1.7969 -2.3305
  464TIP3    H223028   3.389   4.188   1.530  0.5107  1.9065 -1.8682
  465TIP3   OH223029   3.456   6.461   8.780 -0.0234  0.1519  0.5435
  465TIP3    H123030   3.444   6.480   8.687  0.3422 -0.5379  0.3452
  465TIP3    H223031   3.481   6.545   8.819  1.0784  0.1949 -0.2067
  466TIP3   OH223032   2.200   5.498   0.068  0.7918  0.1344 -0.1315
  466TIP3    H123033   2.161   5.416   0.095  0.1962  0.1022 -1.0701
  466TIP3    H223034   2.139   5.535   0.005  1.0220  1.3274  0.3177
  467TIP3   OH223035   0.415   3.948   1.264  0.2640  0.2748 -0.1021
  467TIP3    H123036   0.500   3.928   1.302  1.3362  0.6742 -2.1621
  467TIP3    H223037   0.393   4.034   1.299  1.3257  0.7414 -0.5530
  468TIP3   OH223038   5.219   6.715   1.913 -0.6264  0.7661  0.1566
  468TIP3    H123039   5.195   6.740   2.003 -0.9471 -0.7901  0.5481
  468TIP3    H223040   5.135   6.710   1.867 -0.4245  2.0313 -0.3896
  469TIP3   OH223041   6.084   1.647   7.802 -0.1239  0.2348 -0.4513
  469TIP3    H123042   6.172   1.679   7.784  0.1493 -0.5122 -0.4482
  469TIP3    H223043   6.096   1.559   7.838 -0.8825 -0.0165 -0.7753
  470TIP3   OH223044   2.469   4.108   0.149 -0.4329 -0.7323 -0.2688
  470TIP3    H123045   2.406   4.083   0.217 -0.7984 -0.1699 -0.3960
  470TIP3    H223046   2.533   4.037   0.149 -1.1142 -1.3553 -0.1955
  471TIP3   OH223047   3.125   6.588   0.985 -0.1961 -0.0784 -0.3035
  471TIP3    H123048   3.106   6.578   0.892 -1.1981  2.1262 -0.4036
  471TIP3    H223049   3.207   6.541   0.998  1.1066  1.3262 -2.7587
  472TIP3   OH223050   4.607   5.371   0.663 -0.0128 -0.1471 -0.1831
  472TIP3    H123051   4.642   5.451   0.624  0.3252  0.6959  1.7379
  472TIP3    H223052   4.553   5.401   0.736  0.0970 -1.6750  0.5650
  473TIP3   OH223053   3.374   0.402   0.300 -0.4374  0.7246  0.2125
  473TIP3    H123054   3.331   0.342   0.239 -0.3580  1.8802 -1.0186
  473TIP3    H223055   3.309   0.471   0.315  0.3265  1.5895 -0.3226
  474TIP3   OH223056   2.885   3.434   8.917 -0.7071 -0.3772 -0.1187
  474TIP3    H123057   2.829   3.397   8.985 -1.6564 -0.1701 -0.7596
  474TIP3    H223058   2.887   3.366   8.849 -1.8582  0.4076 -0.9791
  475TIP3   OH223059   3.020   1.024   7.418 -0.3325 -0.1229 -0.1409
  475TIP3    H123060   2.933   0.999   7.448 -0.1302 -0.7906 -0.0944
  475TIP3    H223061   3.009   1.112   7.383 -0.7428  0.3279  1.0958
  476TIP3   OH223062   6.252   3.158   7.670 -0.2860 -0.0484 -0.0652
  476TIP3    H123063   6.286   3.072   7.695  0.4156  0.1039 -0.4572
  476TIP3    H223064   6.243   3.153   7.575  0.9025  0.6927 -0.2421
  477TIP3   OH223065   0.033   5.261   1.810 -0.4435 -0.1282 -0.7209
  477TIP3    H123066   0.003   5.335   1.863  2.7121  1.4499 -0.8673
  477TIP3    H223067   0.025   5.185   1.868  1.6704  1.3307  1.7226
  478TIP3   OH223068   4.019   1.332   2.909  0.2635  0.1296  0.6304
  478TIP3    H123069   4.041   1.242   2.883 -2.1797 -0.6872  1.0856
  478TIP3    H223070   4.059   1.387   2.842 -0.7515 -1.5283 -1.4594
  479TIP3   OH223071   4.494   3.704   1.965 -0.3912  0.1781  0.6423
  479TIP3    H123072   4.554   3.664   1.903  0.2835  0.8137  0.8683
  479TIP3    H223073   4.512   3.660   2.048 -0.9030 -0.2842  0.5133
  480TIP3   OH223074   2.334   0.016   8.294  0.3293  0.5371 -0.2957
  480TIP3    H123075   2.419   0.057   8.277  1.3067 -1.4887 -0.6540
  480TIP3    H223076   2.294   0.071   8.362  1.9535  1.5024 -0.0639
  481TIP3   OH223077   4.475   6.430   2.626 -0.0996  0.2544  0.3465
  481TIP3    H123078   4.549   6.370   2.623  0.3653  0.7168  1.8582
  481TIP3    H223079   4.398   6.373   2.628  0.1214 -0.2293 -1.8413
  482TIP3   OH223080   0.962   0.228   0.894  0.6420  0.3259  0.0963
  482TIP3    H123081   0.913   0.156   0.933  1.3053  0.1150  0.5517
  482TIP3    H223082   0.895   0.293   0.872  0.1995  0.2365  1.1250
  483TIP3   OH223083   2.537   3.406   0.945 -0.3388  0.5334  0.3694
  483TIP3    H123084   2.531   3.428   1.038  0.1967 -0.9915  0.7964
  483TIP3    H223085   2.606   3.340   0.941 -0.6011  0.3227 -1.0760
  484TIP3   OH223086   1.486   4.751   1.537  0.2809  0.3364  0.1675
  484TIP3    H123087   1.565   4.708   1.567 -0.9057 -2.6291 -0.6027
  484TIP3    H223088   1.475   4.721   1.446 -1.3921  1.1504  0.0604
  485TIP3   OH223089   0.406   3.359   8.406 -0.9767  0.5637  0.1622
  485TIP3    H123090   0.357   3.330   8.484  1.9283  0.0796  1.9339
  485TIP3    H223091   0.481   3.406   8.441  2.0581 -2.1348 -2.1155
  486TIP3   OH223092   3.301   5.023   1.258 -0.0779  0.2540 -0.3898
  486TIP3    H123093   3.308   5.090   1.326  0.6792  0.7941 -0.9794
  486TIP3    H223094   3.339   4.945   1.297 -0.5639  0.2827  0.1511
  487TIP3   OH223095   1.947   3.824   8.923 -0.0432  0.0039  0.4436
  487TIP3    H123096   2.010   3.885   8.961 -0.0054  0.9524 -1.0521
  487TIP3    H223097   1.896   3.792   8.997  1.8067 -0.3778  1.6328
  488TIP3   OH223098   4.965   2.176   7.518 -0.1818  0.1050 -0.3721
  488TIP3    H123099   5.020   2.101   7.539  0.6083  0.5950 -0.6685
  488TIP3    H223100   4.958   2.224   7.601  0.0428  0.1763 -0.3946
  489TIP3   OH223101   2.285   0.606   0.888  0.6833 -0.4504  0.2921
  489TIP3    H123102   2.359   0.553   0.917  1.4707  0.1755 -0.5642
  489TIP3    H223103   2.314   0.649   0.808 -0.3276  0.4238  0.3608
  490TIP3   OH223104   4.159   5.741   8.165  0.1389 -0.5438 -0.1458
  490TIP3    H123105   4.126   5.819   8.210 -3.5066 -1.5643 -0.7402
  490TIP3    H223106   4.228   5.707   8.222 -0.5948  1.1367  1.8671
  491TIP3   OH223107   3.689   5.503   8.370 -0.1223  0.0463 -0.0553
  491TIP3    H123108   3.726   5.422   8.403  0.0931  0.8591  1.8580
  491TIP3    H223109   3.739   5.572   8.414  0.2292  1.2559 -2.2089
  492TIP3   OH223110   5.651   0.285   0.000  0.3119  0.8623 -0.0730
  492TIP3    H123111   5.697   0.234  -0.067 -0.6311  2.3788 -1.9676
  492TIP3    H223112   5.721   0.327   0.050  1.0551 -1.0862  0.6243
  493TIP3   OH223113   4.279   4.444   8.731  1.2457  0.1966 -0.1927
  493TIP3    H123114   4.268   4.535   8.756  1.4211 -0.7213  4.0884
  493TIP3    H223115   4.191   4.406   8.739  1.5221 -0.4007  0.1292
  494TIP3   OH223116   3.052   0.994   7.148  0.5144 -0.1994  0.1426
  494TIP3    H123117   3.046   1.088   7.131 -0.8207 -0.0792  1.1458
  494TIP3    H223118   3.034   0.986   7.242  0.1404 -1.5057 -0.0363
  495TIP3   OH223119   5.931   0.226   1.744  0.2264 -0.5635 -0.0394
  495TIP3    H123120   5.957   0.278   1.669  1.3247  0.6645  1.1554
  495TIP3    H223121   5.844   0.193   1.721 -0.1545  1.1280 -1.1610
  496TIP3   OH223122   5.279   2.673   0.301  0.0458 -0.5196  0.0936
  496TIP3    H123123   5.192   2.709   0.288  0.5730  0.7201 -0.1328
  496TIP3    H223124   5.305   2.702   0.388  1.0321  0.8763 -0.6408
  497TIP3   OH223125   3.263   1.499   2.166  0.5101 -0.3474 -0.1451
  497TIP3    H123126   3.346   1.546   2.151  0.5683 -0.4015  0.0090
  497TIP3    H223127   3.258   1.490   2.261 -0.9284  1.9119  0.0668
  498TIP3   OH223128   1.577   4.869   0.433  0.6699 -0.5550 -0.2892
  498TIP3    H123129   1.583   4.807   0.360 -0.2192  0.1998 -1.0205
  498TIP3    H223130   1.503   4.839   0.485 -0.4175  0.4674 -1.2160
  499TIP3   OH223131   3.859   1.514   1.139 -0.4379  0.0475  0.5219
  499TIP3    H123132   3.855   1.449   1.069 -1.2501  1.2231 -0.5799
  499TIP3    H223133   3.788   1.575   1.119  1.2658  2.1712  0.5709
  500TIP3   OH223134   2.227   1.226   7.679  0.3273  0.0592  0.0946
  500TIP3    H123135   2.149   1.243   7.626  0.1175  0.9497  0.6650
  500TIP3    H223136   2.273   1.155   7.633 -0.4332  0.0348 -0.6445
  501TIP3   OH223137   2.721   2.020   1.517  0.5031 -0.2316 -0.1632
  501TIP3    H123138   2.718   1.924   1.511 -0.7074 -0.1936 -0.3566
  501TIP3    H223139   2.749   2.038   1.607 -1.3238 -0.7743  0.5404
  502TIP3   OH223140   0.226   2.642   2.675  0.6785  0.1740 -0.3940
  502TIP3    H123141   0.172   2.658   2.752  0.4987 -0.1595 -0.4502
  502TIP3    H223142   0.276   2.563   2.696  0.5398  0.0118 -0.6637
  503TIP3   OH223143   2.101   3.209   0.682 -0.3892  0.0489  0.5467
  503TIP3    H123144   2.104   3.289   0.736 -0.8399  0.6035 -0.2389
  503TIP3    H223145   2.193   3.191   0.661 -0.2912  0.4060  0.6605
  504TIP3   OH223146   1.821   4.165   7.948  0.0334  0.3358 -0.8239
  504TIP3    H123147   1.794   4.201   7.864  0.7723  1.0385 -0.7780
  504TIP3    H223148   1.914   4.142   7.936  0.0124 -0.0123 -0.3520
  505TIP3   OH223149   3.773   1.665   2.020 -0.3417  0.0803 -0.2477
  505TIP3    H123150   3.824   1.696   1.945  0.4417  0.2376  0.3391
  505TIP3    H223151   3.783   1.570   2.017  0.9559  0.1652  0.5123
  506TIP3   OH223152   2.459   2.232   0.780  0.6293 -0.2928  0.0734
  506TIP3    H123153   2.427   2.297   0.718 -1.7167 -1.9893 -0.6529
  506TIP3    H223154   2.547   2.211   0.750  0.1902  0.1867 -1.6719
  507TIP3   OH223155   3.603   1.219   7.959  0.4302 -0.2438  0.4265
  507TIP3    H123156   3.621   1.236   8.051 -0.8388  0.1381  0.6254
  507TIP3    H223157   3.597   1.306   7.919  2.6758 -0.4093 -0.4048
  508TIP3   OH223158   5.670   1.779   2.202 -0.1660  0.9761  0.5000
  508TIP3    H123159   5.755   1.819   2.221  0.0386  0.3725  0.8871
  508TIP3    H223160   5.607   1.833   2.248  0.2679 -0.1850  2.6162
  509TIP3   OH223161   1.453   6.726   8.405 -0.3657 -0.5290  1.0017
  509TIP3    H123162   1.462   6.712   8.500  0.7045  0.6016  1.0909
  509TIP3    H223163   1.532   6.773   8.381 -0.2916 -1.4296 -0.6029
  510TIP3   OH223164   6.345   0.664   1.734  0.0131 -0.2638 -0.3972
  510TIP3    H123165   6.310   0.751   1.751 -1.6078 -1.0825  0.7119
  510TIP3    H223166   6.412   0.651   1.802  0.3439  0.1410 -0.6407
  511TIP3   OH223167   2.425   5.097   8.706 -0.1337  1.0730 -0.1449
  511TIP3    H123168   2.452   5.091   8.798 -1.5846  1.7837  0.3551
  511TIP3    H223169   2.485   5.162   8.668  0.9977  0.1850  0.0664
  512TIP3   OH223170   5.473   5.377   0.035 -0.4019 -0.2168 -0.3267
  512TIP3    H123171   5.568   5.383   0.026 -0.4459 -0.1974 -0.8139
  512TIP3    H223172   5.459   5.311   0.103  0.0253  2.1881  2.3016
  513TIP3   OH223173   2.038   5.691   2.084  0.0994 -0.2055 -0.3121
  513TIP3    H123174   2.010   5.630   2.152 -1.0066 -0.3816 -0.9074
  513TIP3    H223175   1.963   5.699   2.026 -0.1251  2.3962  0.1997
  514TIP3   OH223176   4.825   1.188   7.235 -0.5105 -0.4782  0.4916
  514TIP3    H123177   4.756   1.225   7.289  0.0618  1.2551  0.1227
  514TIP3    H223178   4.906   1.205   7.284 -0.2404 -1.5284  0.4333
  515TIP3   OH223179   2.803   3.198   3.232 -0.2004  0.5141  0.2287
  515TIP3    H123180   2.754   3.174   3.154 -1.2539 -1.9506  1.5434
  515TIP3    H223181   2.804   3.118   3.286  1.2330  1.8465  2.3430
  516TIP3   OH223182   0.534   4.172   7.977  0.7139 -0.1882  0.4933
  516TIP3    H123183   0.617   4.212   7.953  0.8950 -0.1704  1.1344
  516TIP3    H223184   0.472   4.245   7.977  0.6081 -0.2611 -0.3472
  517TIP3   OH223185   4.673   5.730   7.260  0.1130 -0.3398  0.1336
  517TIP3    H123186   4.620   5.755   7.335  0.6586  1.0925  0.0718
  517TIP3    H223187   4.723   5.809   7.238 -0.8955 -0.3365 -2.4700
  518TIP3   OH223188   5.509   5.893   1.567 -0.1063  0.0452  0.3010
  518TIP3    H123189   5.465   5.977   1.568 -0.6260 -0.2209  1.3232
  518TIP3    H223190   5.439   5.828   1.560  0.1077 -0.3755  1.7652
  519TIP3   OH223191   4.933   0.980   7.786 -0.3238  0.0280  0.1703
  519TIP3    H123192   4.850   0.948   7.820  0.3646 -3.7411 -1.2271
  519TIP3    H223193   4.933   1.074   7.807 -3.9000 -0.2341  2.1136
  520TIP3   OH223194   3.572   2.616   0.805  0.0502 -0.3057  0.2507
  520TIP3    H123195   3.566   2.596   0.898 -3.3081 -0.5387  0.0980
  520TIP3    H223196   3.662   2.592   0.781  1.3330  0.6698  3.5655
  521TIP3   OH223197   2.862   1.865   7.570  0.7139  0.3402  0.0723
  521TIP3    H123198   2.879   1.948   7.525 -0.1004  0.6653  0.3435
  521TIP3    H223199   2.785   1.883   7.624  1.6726 -0.0222  1.6294
  522TIP3   OH223200   3.791   1.572   8.143  0.0095 -0.1813  0.8801
  522TIP3    H123201   3.806   1.531   8.058 -1.2718 -2.3434  1.6153
  522TIP3    H223202   3.728   1.641   8.126 -1.4060 -1.5575  0.2301
  523TIP3   OH223203   5.535   2.144   7.838 -0.1885 -0.7971 -0.3740
  523TIP3    H123204   5.586   2.131   7.918 -1.7301 -0.3737  0.7339
  523TIP3    H223205   5.546   2.063   7.789 -0.6040 -1.8007  1.1085
  524TIP3   OH223206   5.669   5.307   2.558 -0.0278 -0.2442 -0.3754
  524TIP3    H123207   5.708   5.222   2.537 -0.7469 -0.7430  0.2780
  524TIP3    H223208   5.630   5.296   2.644 -2.3918 -0.0521 -1.3417
  525TIP3   OH223209   6.309   3.528   1.962 -0.1933 -0.0654 -0.3793
  525TIP3    H123210   6.229   3.485   1.932  0.0544  0.0209 -1.1808
  525TIP3    H223211   6.373   3.458   1.971 -0.2352 -0.0754 -0.1509
  526TIP3   OH223212   0.396   2.094   0.123  0.4085 -0.3751  0.5922
  526TIP3    H123213   0.454   2.070   0.195 -1.6888 -1.8190  1.9290
  526TIP3    H223214   0.421   2.184   0.100  2.5498 -0.6530  1.6541
  527TIP3   OH223215   5.334   0.748   8.813 -0.3903 -0.9268 -0.0386
  527TIP3    H123216   5.419   0.710   8.790  0.1642 -0.6972  1.4848
  527TIP3    H223217   5.318   0.718   8.903 -1.1583  0.3313  0.2715
  528TIP3   OH223218   4.132   4.889   0.596 -0.0191  0.0698 -0.0818
  528TIP3    H123219   4.104   4.959   0.655  0.6337 -1.1481  1.7719
  528TIP3    H223220   4.215   4.858   0.634  1.1639  0.1494 -2.4575
  529TIP3   OH223221   6.207   4.753   8.381 -0.5868 -0.3184 -0.0949
  529TIP3    H123222   6.204   4.809   8.459 -0.8549 -0.0523 -0.2930
  529TIP3    H223223   6.183   4.666   8.413  0.1075 -0.3899  0.2686
  530TIP3   OH223224   1.917   1.657   6.976 -0.1270 -0.1185 -0.0775
  530TIP3    H123225   1.985   1.722   6.996 -0.4523  0.3399 -0.4213
  530TIP3    H223226   1.938   1.627   6.887 -0.0648 -0.3686  0.0227
  531TIP3   OH223227   0.258   1.479   0.527  0.7422 -0.0426  0.5087
  531TIP3    H123228   0.280   1.393   0.491  1.0319 -0.1409  0.9074
  531TIP3    H223229   0.165   1.472   0.550  1.1862 -0.8564  2.1779
  532TIP3   OH223230   4.591   4.677   8.259 -0.0790 -0.1211 -0.1063
  532TIP3    H123231   4.652   4.691   8.186 -0.1510  1.4044  0.1004
  532TIP3    H223232   4.524   4.619   8.222 -0.5915  1.3109 -1.5677
  533TIP3   OH223233   5.735   5.481   1.437 -0.0327  0.1548 -0.0857
  533TIP3    H123234   5.697   5.549   1.381  1.6405  1.6182  0.4740
  533TIP3    H223235   5.804   5.526   1.486  1.0007 -1.9162  0.4580
  534TIP3   OH223236   2.141   1.030   8.749 -0.2289  0.3442 -0.2341
  534TIP3    H123237   2.168   1.121   8.763  1.0347  0.0024 -0.3700
  534TIP3    H223238   2.090   1.033   8.668  0.6914  0.7858 -0.8167
  535TIP3   OH223239   4.648   0.195   1.356 -0.3843  0.1851 -0.1527
  535TIP3    H123240   4.678   0.224   1.270 -0.4140 -0.4903 -0.3978
  535TIP3    H223241   4.591   0.265   1.387  0.4180  0.8901 -0.2450
  536TIP3   OH223242   5.219   1.727   6.967 -0.0831 -0.1642 -0.2451
  536TIP3    H123243   5.215   1.819   6.995  1.4161 -0.4867  1.1950
  536TIP3    H223244   5.238   1.679   7.047 -0.2950 -1.6884 -1.0811
  537TIP3   OH223245   2.775   6.365   1.182 -0.2762 -0.2225 -0.4380
  537TIP3    H123246   2.685   6.377   1.150 -0.9708 -2.1621  0.6669
  537TIP3    H223247   2.780   6.423   1.258  0.1633  1.5281 -1.7303
  538TIP3   OH223248   6.453   0.869   7.546 -0.1015  0.3691 -0.7100
  538TIP3    H123249   6.522   0.930   7.573  0.1589  0.1428 -0.8686
  538TIP3    H223250   6.457   0.799   7.611 -0.0339  0.2450 -0.8482
  539TIP3   OH223251   3.023   0.861   8.161  0.0196 -0.5635  0.2016
  539TIP3    H123252   3.018   0.847   8.066  1.0351 -1.6936  0.2884
  539TIP3    H223253   2.934   0.846   8.192 -0.9194  2.2730 -0.8205
  540TIP3   OH223254   1.344   0.983   0.684 -0.0328  0.3504 -0.1787
  540TIP3    H123255   1.330   0.898   0.726 -0.6009  0.3363 -0.3792
  540TIP3    H223256   1.313   1.046   0.749  0.4551  0.4080 -0.0021
  541TIP3   OH223257   6.538   4.835   3.007 -0.6729 -0.3223  0.0381
  541TIP3    H123258   6.482   4.827   2.930 -0.2845 -0.1304 -0.2692
  541TIP3    H223259   6.498   4.905   3.059 -0.7756 -0.2528 -0.1343
  542TIP3   OH223260   0.158   4.459   0.461 -0.2996 -0.1529 -0.3432
  542TIP3    H123261   0.253   4.460   0.454 -0.2294 -0.8504  0.4041
  542TIP3    H223262   0.135   4.546   0.495  0.2046 -0.4765  0.8940
  543TIP3   OH223263   4.084   0.820   1.374  0.0151  0.1050  0.0404
  543TIP3    H123264   4.089   0.782   1.287  2.2067 -1.5499  0.8117
  543TIP3    H223265   4.042   0.752   1.428  1.1462 -0.0308  0.7947
  544TIP3   OH223266   5.556   6.002   7.527 -0.0146  0.0131  0.1904
  544TIP3    H123267   5.557   5.945   7.450  1.1875  1.3394 -0.8344
  544TIP3    H223268   5.482   6.061   7.512 -0.4479 -0.4069  0.6125
  545TIP3   OH223269   0.209   1.651   1.523  0.3068  0.5372  0.2431
  545TIP3    H123270   0.142   1.707   1.482 -0.4621  0.7802  1.7462
  545TIP3    H223271   0.210   1.679   1.614  1.6799 -0.2544  0.4924
  546TIP3   OH223272   1.109   1.105   7.500  0.3264  0.0265  0.0866
  546TIP3    H123273   1.131   1.012   7.512 -0.7188 -1.0592 -4.4627
  546TIP3    H223274   1.013   1.107   7.501  0.3439  1.1510  0.4862
  547TIP3   OH223275   1.983   2.466   7.319  0.1387  0.0477 -0.4316
  547TIP3    H123276   1.969   2.480   7.226 -1.1279  0.2429 -0.2273
  547TIP3    H223277   1.967   2.373   7.332  0.3776  0.0083 -0.4237
  548TIP3   OH223278   6.387   0.848   1.332  0.6333  0.3621 -0.1584
  548TIP3    H123279   6.321   0.799   1.382  0.3830  0.3680 -0.4756
  548TIP3    H223280   6.373   0.820   1.241  1.0220  0.4196 -0.2378
  549TIP3   OH223281   5.169   3.342   0.778 -0.3498 -0.4115 -0.2248
  549TIP3    H123282   5.152   3.327   0.685 -0.4724 -0.5612 -0.1803
  549TIP3    H223283   5.264   3.349   0.786 -0.3618 -0.0135 -0.4171
  550TIP3   OH223284   5.080   6.086   1.778 -0.8863  0.6679  0.7555
  550TIP3    H123285   5.120   6.077   1.864 -0.6646 -2.0896  0.4346
  550TIP3    H223286   5.151   6.069   1.716 -1.1071  2.3515 -0.0377
  551TIP3   OH223287   4.394   4.391   0.284  0.1924  0.4453 -0.1661
  551TIP3    H123288   4.331   4.321   0.303  0.0781  1.1417  2.3827
  551TIP3    H223289   4.427   4.371   0.196 -1.0218 -1.8730 -0.1604
  552TIP3   OH223290   3.210   5.887   1.646  0.3010 -0.3859  0.6545
  552TIP3    H123291   3.245   5.961   1.596 -1.3414  0.3399  0.5238
  552TIP3    H223292   3.235   5.810   1.595  2.0923  0.0436  0.8301
  553TIP3   OH223293   5.543   5.261   1.522  0.2719 -0.1402 -0.4497
  553TIP3    H123294   5.460   5.255   1.475  0.3975  1.9215 -1.0243
  553TIP3    H223295   5.582   5.342   1.492  2.3482 -0.8699  0.0978
  554TIP3   OH223296   2.412   1.180   1.022 -0.2713  0.6708  0.5127
  554TIP3    H123297   2.494   1.228   1.031 -0.9851  2.3297 -1.1292
  554TIP3    H223298   2.437   1.088   1.030  1.6310  1.1555  0.7227
  555TIP3   OH223299   2.846   3.011   2.684 -0.5510 -0.5793 -0.1635
  555TIP3    H123300   2.923   3.054   2.646  0.4345 -1.2703  0.9631
  555TIP3    H223301   2.839   2.928   2.637 -1.7610  0.2633 -1.5447
  556TIP3   OH223302   2.148   4.978   1.628  0.3938 -0.4692 -0.0024
  556TIP3    H123303   2.062   5.020   1.628  0.0252 -1.1898 -0.7150
  556TIP3    H223304   2.204   5.037   1.579  0.2513 -0.1124  0.2601
  557TIP3   OH223305   0.886   3.405   6.924 -0.0035 -0.4819  0.3762
  557TIP3    H123306   0.833   3.327   6.940  1.1008 -1.1268  0.9561
  557TIP3    H223307   0.850   3.441   6.843  0.1007 -2.1435 -0.4534
  558TIP3   OH223308   1.858   1.183   8.748 -0.2377  0.3025  0.9695
  558TIP3    H123309   1.942   1.159   8.785  0.1072  1.0254  0.6805
  558TIP3    H223310   1.795   1.127   8.793  0.3018  0.3256  1.7774
  559TIP3   OH223311   3.876   1.038   7.735  0.3069 -0.3443 -0.2206
  559TIP3    H123312   3.783   1.018   7.723  0.5705 -0.1144 -3.2225
  559TIP3    H223313   3.911   0.960   7.779 -1.5016  0.1944  2.4297
  560TIP3   OH223314   5.710   2.809   7.696 -0.2038  0.2829  0.1468
  560TIP3    H123315   5.626   2.829   7.737  0.4382  0.5576  1.3677
  560TIP3    H223316   5.754   2.750   7.758 -0.6892 -2.3592 -1.8295
  561TIP3   OH223317   3.607   5.227   7.659 -0.1248  0.2490 -0.0779
  561TIP3    H123318   3.648   5.146   7.628  2.5987  0.7870  1.7563
  561TIP3    H223319   3.570   5.205   7.744 -0.4597  0.6463 -0.1158
  562TIP3   OH223320   5.108   1.389   0.202 -0.3198  0.5691 -0.5563
  562TIP3    H123321   5.134   1.382   0.110  0.3804 -0.7855 -0.2867
  562TIP3    H223322   5.190   1.407   0.248 -0.2970 -0.8404  0.0050
  563TIP3   OH223323   5.592   2.506   6.806 -0.1675 -0.2087 -0.3601
  563TIP3    H123324   5.503   2.537   6.789 -1.5289 -2.1091  2.4448
  563TIP3    H223325   5.597   2.423   6.759 -0.0760 -0.3304 -0.1378
  564TIP3   OH223326   4.952   3.838   1.581 -0.4560  0.1465 -0.1464
  564TIP3    H123327   5.021   3.844   1.515  0.5394 -0.7151  0.7696
  564TIP3    H223328   4.922   3.747   1.575  0.3552 -0.2410  1.2348
  565TIP3   OH223329   5.833   1.741   2.762 -0.3527  0.3226 -0.1357
  565TIP3    H123330   5.884   1.820   2.744  0.2707  0.0588  0.3909
  565TIP3    H223331   5.764   1.741   2.697 -1.5559  2.3248  1.0442
  566TIP3   OH223332   5.341   4.638   0.401 -0.0602  0.3605  0.0009
  566TIP3    H123333   5.364   4.552   0.436 -1.0706  0.5259  1.1509
  566TIP3    H223334   5.354   4.631   0.307  2.3543 -0.2499  0.3284
  567TIP3   OH223335   5.720   2.067   2.587 -0.5693 -0.1236  0.0260
  567TIP3    H123336   5.631   2.098   2.572 -1.7886 -2.3293  1.8594
  567TIP3    H223337   5.751   2.118   2.661 -1.2307 -0.8341  0.8225
  568TIP3   OH223338   3.744   0.361   7.768  0.3886  0.2841 -0.1038
  568TIP3    H123339   3.760   0.324   7.681  1.3177  0.6434 -0.1007
  568TIP3    H223340   3.668   0.418   7.757  0.9176  0.8657 -0.8585
  569TIP3   OH223341   0.010   4.267   1.396  0.4761 -0.1208 -0.1730
  569TIP3    H123342  -0.049   4.342   1.397  0.1663 -0.3643  0.3028
  569TIP3    H223343   0.039   4.260   1.305  2.2857  1.9443  0.1597
  570TIP3   OH223344   3.196   0.605   0.384 -0.1061  0.2987 -0.2190
  570TIP3    H123345   3.141   0.618   0.462  0.4425  1.7618 -0.0338
  570TIP3    H223346   3.164   0.670   0.322 -0.0654 -0.3818 -0.9657
  571TIP3   OH223347   0.366   1.264   0.715 -0.5869  0.1093 -0.0834
  571TIP3    H123348   0.408   1.220   0.789 -2.1288 -0.5058  0.4567
  571TIP3    H223349   0.328   1.193   0.663 -2.6817  0.7173  0.5389
  572TIP3   OH223350   4.699   0.949   2.597 -0.2423  0.0960  0.0774
  572TIP3    H123351   4.615   0.958   2.551 -0.1183 -0.8726 -0.3620
  572TIP3    H223352   4.681   0.886   2.667  0.3457 -0.9092 -0.6447
  573TIP3   OH223353   4.373   2.226   0.258 -0.5102 -0.1471  0.6809
  573TIP3    H123354   4.360   2.284   0.183  0.0082  0.4976  1.0784
  573TIP3    H223355   4.357   2.138   0.224 -1.9982  0.2679  0.2223
  574TIP3   OH223356   2.037   5.562   0.407 -0.3172 -0.2441 -0.6369
  574TIP3    H123357   2.035   5.648   0.366  0.9394  0.9483  1.5927
  574TIP3    H223358   1.972   5.567   0.477 -1.7399 -1.8892 -1.7500
  575TIP3   OH223359   6.280   3.664   2.614  0.2034 -0.0918 -0.1463
  575TIP3    H123360   6.340   3.667   2.689  0.7980  3.6919 -0.5619
  575TIP3    H223361   6.195   3.685   2.651  0.1808  0.0899 -0.3033
  576TIP3   OH223362   4.525   6.704   1.191  0.4857  0.1740 -0.1494
  576TIP3    H123363   4.480   6.642   1.248 -1.9027  1.0038 -1.0107
  576TIP3    H223364   4.543   6.780   1.247  0.0594  0.1662 -0.0039
  577TIP3   OH223365   4.801   0.489   8.332  0.2329  0.0139 -0.2511
  577TIP3    H123366   4.790   0.564   8.274  0.1151 -0.2793 -0.6145
  577TIP3    H223367   4.854   0.427   8.281  0.3040 -0.1605  0.0313
  578TIP3   OH223368   2.484   0.177   0.252 -0.4473  0.0230  0.0618
  578TIP3    H123369   2.461   0.264   0.220 -0.4649  0.9072  2.2804
  578TIP3    H223370   2.429   0.117   0.202 -1.9183  1.4613 -0.1096
  579TIP3   OH223371   2.882   5.382   8.767 -0.0392 -0.0868  0.1422
  579TIP3    H123372   2.884   5.439   8.691 -1.4092 -0.5095 -0.2310
  579TIP3    H223373   2.960   5.327   8.757 -0.3734 -0.3653 -1.1513
  580TIP3   OH223374   0.050   0.646   0.945  0.6304  0.1478 -0.1235
  580TIP3    H123375   0.117   0.711   0.924  1.4067 -0.1266  1.3844
  580TIP3    H223376   0.050   0.640   1.040 -1.3512 -0.0879 -0.0786
  581TIP3   OH223377   1.186   1.919   1.663  0.0164  0.0803  0.3558
  581TIP3    H123378   1.223   2.003   1.690 -1.1810  0.3224  1.3691
  581TIP3    H223379   1.192   1.919   1.568  0.8978  0.8985  0.4006
  582TIP3   OH223380   0.475   4.191   0.166 -0.1833  0.3472  0.3012
  582TIP3    H123381   0.558   4.218   0.205 -0.7994  2.0619  0.4794
  582TIP3    H223382   0.414   4.262   0.186 -1.2793 -0.1027 -1.2652
  583TIP3   OH223383   5.343   1.528   8.264  0.4269  0.0020  0.3478
  583TIP3    H123384   5.404   1.525   8.190 -1.9315  0.3286 -1.7562
  583TIP3    H223385   5.376   1.599   8.320  0.3366  2.2893 -2.3066
  584TIP3   OH223386   5.200   0.585   1.097 -0.1566  0.1515  0.5587
  584TIP3    H123387   5.163   0.590   1.009 -0.6530 -1.6558  0.6118
  584TIP3    H223388   5.193   0.674   1.132  0.1224  0.9219 -1.2353
  585TIP3   OH223389   1.736   6.203   1.308 -0.0604 -0.7863 -0.6024
  585TIP3    H123390   1.706   6.292   1.328  0.1165 -1.0725  1.1232
  585TIP3    H223391   1.676   6.171   1.241 -0.6883  0.3160 -0.5807
  586TIP3   OH223392   3.042   5.205   8.105  0.1521  0.2579  0.4856
  586TIP3    H123393   3.021   5.237   8.017 -0.6406 -1.4957 -0.0207
  586TIP3    H223394   3.071   5.115   8.091 -0.4229 -0.2076  2.0597
  587TIP3   OH223395   1.660   4.383   2.125 -0.1880 -0.2071 -0.3416
  587TIP3    H123396   1.634   4.475   2.120 -0.6016 -0.3196 -0.2904
  587TIP3    H223397   1.675   4.367   2.218 -1.2578 -0.4927 -0.1965
  588TIP3   OH223398   2.128   4.638   2.420  0.0269 -0.2178 -0.2014
  588TIP3    H123399   2.063   4.577   2.385 -0.6624  0.1662  0.3632
  588TIP3    H223400   2.207   4.587   2.430 -0.8386 -1.3381  1.3285
  589TIP3   OH223401   0.259   5.990   0.998  0.0066 -1.2670 -0.1221
  589TIP3    H123402   0.169   5.959   0.998 -0.6458  0.5304 -0.7072
  589TIP3    H223403   0.294   5.964   0.913 -1.5845  2.2715 -2.0583
  590TIP3   OH223404   0.977   0.043   6.863 -0.3355  0.0237  0.1129
  590TIP3    H123405   0.883   0.032   6.852 -0.3628 -1.2460  1.3018
  590TIP3    H223406   1.001  -0.020   6.932  1.5999 -0.7177 -1.1316
  591TIP3   OH223407   3.777   0.643   8.025 -0.4516 -0.1039 -0.4452
  591TIP3    H123408   3.847   0.666   7.964  0.7422 -0.3033  0.7890
  591TIP3    H223409   3.715   0.715   8.019  0.4200  0.6394 -0.7529
  592TIP3   OH223410   3.487   5.853   7.431  0.3361  0.4892  0.2350
  592TIP3    H123411   3.491   5.894   7.345  0.3397  0.7683  0.3692
  592TIP3    H223412   3.533   5.913   7.489  0.1349  0.4124  0.4755
  593TIP3   OH223413   3.578   0.953   6.866 -0.3117  0.1876 -0.0031
  593TIP3    H123414   3.601   1.046   6.862 -1.5497  0.5078  0.1016
  593TIP3    H223415   3.488   0.952   6.897 -0.1133 -1.0802  0.5877
  594TIP3   OH223416   2.416   0.835   1.798  0.1212 -0.1125  0.0790
  594TIP3    H123417   2.376   0.916   1.765  1.1273  0.0041 -0.9229
  594TIP3    H223418   2.412   0.775   1.724 -0.8333 -1.0868  0.8893
  595TIP3   OH223419   3.364   2.182   7.431 -0.3411  0.3045 -0.3405
  595TIP3    H123420   3.278   2.223   7.428 -0.7567 -0.6048 -1.4938
  595TIP3    H223421   3.371   2.149   7.521 -1.9091 -1.0341 -0.6513
  596TIP3   OH223422   0.183   4.736   2.117  0.3838 -0.2050 -0.1370
  596TIP3    H123423   0.236   4.776   2.048 -0.7727 -0.7167 -1.3687
  596TIP3    H223424   0.098   4.780   2.111  0.1878 -0.4114  0.8247
  597TIP3   OH223425   1.304   0.034   1.326  0.7071 -0.2575 -0.4272
  597TIP3    H123426   1.364   0.059   1.256  0.6156 -0.9765 -0.7671
  597TIP3    H223427   1.222   0.080   1.305  1.0819  0.6367 -0.0210
  598TIP3   OH223428   0.386   2.623   2.422 -0.0177  0.9352 -0.1820
  598TIP3    H123429   0.480   2.629   2.407  0.5598 -2.2717  1.2824
  598TIP3    H223430   0.376   2.635   2.516 -0.7131 -1.0304  0.0458
  599TIP3   OH223431   2.113   0.377   8.369  0.4293 -0.1253  0.7077
  599TIP3    H123432   2.201   0.348   8.394  0.1303 -1.0655  0.7224
  599TIP3    H223433   2.089   0.320   8.295 -1.2301 -1.7632  2.4066
  600TIP3   OH223434   6.503   5.745   8.400 -0.2029 -0.3615 -0.4328
  600TIP3    H123435   6.469   5.828   8.433 -1.2404 -0.0168 -2.2055
  600TIP3    H223436   6.589   5.766   8.365  0.3915 -0.4809  0.9272
  601TIP3   OH223437   4.069   0.864   0.845  0.2108 -0.4293 -0.2448
  601TIP3    H123438   4.014   0.817   0.782 -0.1867 -0.8198  0.3859
  601TIP3    H223439   4.152   0.816   0.845  0.0346 -0.7370 -0.0986
  602TIP3   OH223440   0.867   6.136   7.577  0.4500 -0.2365  0.2316
  602TIP3    H123441   0.861   6.164   7.486  0.9298 -0.2251  0.2020
  602TIP3    H223442   0.877   6.041   7.573 -0.5818 -0.3579  0.3122
  603TIP3   OH223443   4.604   5.124   1.198  0.1725  0.5819 -0.7858
  603TIP3    H123444   4.546   5.199   1.186 -1.2766 -0.5487 -1.1122
  603TIP3    H223445   4.692   5.162   1.201 -0.3291  2.0822 -3.0449
  604TIP3   OH223446   6.787   1.536   7.808  0.5598 -0.3743  0.1091
  604TIP3    H123447   6.773   1.582   7.891  2.7232  2.4625 -0.9315
  604TIP3    H223448   6.882   1.535   7.797  0.3097  0.6315 -2.9535
  605TIP3   OH223449   5.770   6.749   8.913  0.1105  0.3620 -0.0917
  605TIP3    H123450   5.833   6.686   8.946  0.6242  1.5995  1.4477
  605TIP3    H223451   5.808   6.835   8.935 -1.8530  1.1526  0.4804
  606TIP3   OH223452   0.789   1.342   2.044 -0.0542  0.0124 -0.6818
  606TIP3    H123453   0.772   1.281   2.116  0.2801  1.2132  0.4612
  606TIP3    H223454   0.772   1.291   1.964  4.1866 -2.9813 -0.0373
  607TIP3   OH223455   5.644   0.716   0.724  0.2291 -0.2270  0.5853
  607TIP3    H123456   5.724   0.738   0.772  0.5897  2.2170 -0.9575
  607TIP3    H223457   5.669   0.643   0.668  0.6316 -1.1164  1.8770
  608TIP3   OH223458   2.429   0.654   0.641 -0.1754 -0.0965 -0.2380
  608TIP3    H123459   2.407   0.716   0.572  1.2486  1.2001  0.4110
  608TIP3    H223460   2.456   0.575   0.594  0.8021  0.7722 -1.1898
  609TIP3   OH223461   2.830   4.654   0.837 -0.2253  0.0882 -0.4504
  609TIP3    H123462   2.872   4.738   0.817  0.9269  0.5183  3.0714
  609TIP3    H223463   2.876   4.591   0.782  0.3116  1.4958 -1.6705
  610TIP3   OH223464   2.249   0.675   1.506  0.3552  0.1543  0.0120
  610TIP3    H123465   2.231   0.696   1.415  1.5258 -0.3305 -0.3471
  610TIP3    H223466   2.167   0.692   1.551  0.3920  2.7131 -0.7105
  611TIP3   OH223467   5.282   1.256   0.883 -0.2310 -0.3753 -0.3388
  611TIP3    H123468   5.223   1.327   0.856 -2.4946 -1.5366  1.2565
  611TIP3    H223469   5.305   1.277   0.973 -0.8068 -1.5665  0.0988
  612TIP3   OH223470   5.302   3.446   2.163  0.0520 -0.7175 -0.5645
  612TIP3    H123471   5.229   3.384   2.157 -2.4222  1.7503  1.2071
  612TIP3    H223472   5.340   3.430   2.249 -0.6107  0.1282 -0.0903
  613TIP3   OH223473   6.692   4.036   8.933 -0.4705  0.2930 -0.4163
  613TIP3    H123474   6.670   4.129   8.940  1.2916  0.6546  1.2651
  613TIP3    H223475   6.783   4.030   8.964 -0.5294 -1.9837 -0.4907
  614TIP3   OH223476   5.830   3.688   7.371  0.1576 -0.2657  0.5419
  614TIP3    H123477   5.763   3.701   7.438  0.3839  0.9168  0.5685
  614TIP3    H223478   5.786   3.713   7.289  0.0490 -1.1675  0.3206
  615TIP3   OH223479   1.458   4.075   7.358  0.2246  0.3032  0.6506
  615TIP3    H123480   1.389   4.106   7.416  2.3667  1.1973  2.9269
  615TIP3    H223481   1.476   3.985   7.387 -0.4866 -0.2213 -0.4761
  616TIP3   OH223482   3.657   1.238   6.902 -0.2668  0.3898  0.1651
  616TIP3    H123483   3.624   1.299   6.967  1.7394  1.6974  0.0451
  616TIP3    H223484   3.743   1.272   6.878  0.0043 -1.2909 -1.5349
  617TIP3   OH223485   2.320   3.531   8.208 -0.6696  0.4059  0.4761
  617TIP3    H123486   2.388   3.531   8.141  1.0714  0.3720  2.1412
  617TIP3    H223487   2.269   3.610   8.192  0.6846  1.2134  0.0293
  618TIP3   OH223488   6.218   2.627   2.329 -0.1860  0.2207 -0.2431
  618TIP3    H123489   6.171   2.705   2.301  0.7816  2.0773  2.8301
  618TIP3    H223490   6.305   2.637   2.291  0.5918  1.8255  1.8166
  619TIP3   OH223491   4.138   6.679   7.400 -0.4528  0.1768 -0.2294
  619TIP3    H123492   4.108   6.686   7.310 -2.8321 -0.2242  0.4699
  619TIP3    H223493   4.204   6.748   7.409 -1.3232  1.2677 -1.8215
  620TIP3   OH223494   3.799   0.040   7.455 -0.0251 -0.0584 -0.1514
  620TIP3    H123495   3.756   0.122   7.481  0.9578  0.3824  0.1544
  620TIP3    H223496   3.845   0.011   7.534  0.5700 -0.2821 -0.5716
  621TIP3   OH223497   2.551   4.513   0.551 -0.3682 -0.0002  0.4056
  621TIP3    H123498   2.581   4.507   0.641 -2.3143 -2.7348  0.9840
  621TIP3    H223499   2.465   4.553   0.557 -0.2934  0.2827 -0.3124
  622TIP3   OH223500   5.907   3.775   8.616 -0.6600 -0.1546  0.3477
  622TIP3    H123501   5.947   3.853   8.578  0.2342 -0.9968 -0.4883
  622TIP3    H223502   5.953   3.762   8.699  0.9965 -1.2192 -0.6878
  623TIP3   OH223503   0.979   4.454   7.940  0.0232  0.0275  0.0237
  623TIP3    H123504   0.966   4.548   7.954  1.4199  0.1717  0.4793
  623TIP3    H223505   1.047   4.448   7.873 -2.2281 -0.7008 -2.3817
  624TIP3   OH223506   4.990   4.378   7.617  0.9674 -0.5085  0.5601
  624TIP3    H123507   4.945   4.460   7.597 -0.1382 -0.8590  1.5054
  624TIP3    H223508   5.066   4.404   7.670  1.4127  0.0078 -0.3051
  625TIP3   OH223509   0.364   4.599   2.287 -0.5353  0.6057 -0.6104
  625TIP3    H123510   0.310   4.664   2.241 -1.8382  0.4974  0.7001
  625TIP3    H223511   0.342   4.516   2.246 -3.0006  0.2547  1.2272
  626TIP3   OH223512   2.904   6.154   1.313  0.3368 -0.0561  0.1074
  626TIP3    H123513   2.852   6.226   1.276  2.3763  1.8299  0.6468
  626TIP3    H223514   2.958   6.197   1.380  1.3410 -2.2095  0.7446
  627TIP3   OH223515   3.613   5.313   8.153 -0.1821  0.7745 -0.2691
  627TIP3    H123516   3.530   5.330   8.198 -0.1647 -1.8605  0.9077
  627TIP3    H223517   3.678   5.360   8.205 -0.8461  2.6550 -1.0565
  628TIP3   OH223518   4.143   0.673   7.213 -0.0517  0.5113 -0.2171
  628TIP3    H123519   4.092   0.605   7.170  1.0941 -1.2711  1.1312
  628TIP3    H223520   4.233   0.658   7.184  0.4270  0.5322  1.1906
  629TIP3   OH223521   4.391   4.175   0.729 -0.3546  0.5066 -0.5330
  629TIP3    H123522   4.448   4.233   0.678 -1.6054  1.1827 -1.2251
  629TIP3    H223523   4.302   4.203   0.706 -0.9736 -0.2836  0.7719
  630TIP3   OH223524   5.118   2.942   8.209  0.0933 -0.0380  0.3498
  630TIP3    H123525   5.158   3.008   8.266  0.2424 -0.0833  0.2978
  630TIP3    H223526   5.101   2.868   8.267  2.1367 -0.8947 -0.0549
  631TIP3   OH223527   0.831   1.066   7.445 -0.1186  0.4368  0.5953
  631TIP3    H123528   0.774   1.065   7.368  1.9286  0.9431 -0.9807
  631TIP3    H223529   0.770   1.054   7.519 -2.2629  1.0221 -0.9764
  632TIP3   OH223530   1.932   3.676   2.374  0.3407  0.0829  0.2171
  632TIP3    H123531   1.953   3.590   2.411  1.2876  0.5160  0.6945
  632TIP3    H223532   1.911   3.657   2.282 -0.5553 -0.7971  0.5813
  633TIP3   OH223533   2.246   1.903   0.446 -0.1585 -0.0605  0.5562
  633TIP3    H123534   2.271   1.986   0.405  0.3564 -0.3995  0.1635
  633TIP3    H223535   2.167   1.877   0.400 -1.0511  0.8252  1.5335
  634TIP3   OH223536   4.657   3.026   8.632 -0.0166 -0.3448  0.5387
  634TIP3    H123537   4.607   3.076   8.696  0.4308  0.2979  0.3911
  634TIP3    H223538   4.748   3.050   8.647 -0.0096  1.0668 -1.3609
  635TIP3   OH223539   5.551   3.041   7.425 -0.2100 -0.2029  0.8854
  635TIP3    H123540   5.496   3.117   7.409  0.0383 -0.0779  0.6067
  635TIP3    H223541   5.546   2.990   7.344  0.7534  0.2374  0.5331
  636TIP3   OH223542   1.791   4.496   7.863  0.2025 -0.2532 -0.0284
  636TIP3    H123543   1.873   4.532   7.895  1.2998 -2.7179  0.1656
  636TIP3    H223544   1.787   4.522   7.771  0.3972  1.1842  0.3566
  637TIP3   OH223545   5.977   0.971   2.147 -0.2201  0.2011  0.3012
  637TIP3    H123546   5.941   0.959   2.235 -1.0572 -2.0836 -0.2709
  637TIP3    H223547   5.934   1.050   2.114 -0.9237  0.3286  1.4559
  638TIP3   OH223548   3.382   3.857   0.552 -0.1749  0.0281  0.3561
  638TIP3    H123549   3.355   3.889   0.638  0.2278 -0.0485  0.5159
  638TIP3    H223550   3.473   3.885   0.544  0.3560 -1.5104  0.7219
  639TIP3   OH223551   5.057   6.060   7.723  0.2786  0.4033 -0.6298
  639TIP3    H123552   5.063   6.103   7.809 -0.7727  3.5749 -2.0068
  639TIP3    H223553   4.965   6.064   7.700  0.2806 -1.8803 -1.3078
  640TIP3   OH223554   2.352   0.252   1.131 -0.0631  0.1507  0.9967
  640TIP3    H123555   2.413   0.178   1.134 -0.3529 -0.1394 -0.0143
  640TIP3    H223556   2.312   0.247   1.044 -2.8846 -0.7666  2.2040
  641TIP3   OH223557   0.147   1.612   8.687  0.0428  0.4951  0.1035
  641TIP3    H123558   0.116   1.672   8.619 -2.3176  0.4982  1.0844
  641TIP3    H223559   0.233   1.584   8.656  0.2702  2.6380 -1.4809
  642TIP3   OH223560   6.036   5.455   0.457  0.1570  0.1126  0.4384
  642TIP3    H123561   6.050   5.374   0.407 -0.3577  0.0519  0.3876
  642TIP3    H223562   6.084   5.522   0.408  1.1088 -0.2746  0.8221
  643TIP3   OH223563   5.124   1.309   6.463  0.0979 -0.0485  0.1435
  643TIP3    H123564   5.134   1.256   6.384 -1.5501  0.9879 -0.8135
  643TIP3    H223565   5.060   1.262   6.516 -0.9530  0.6630 -0.4601
  644TIP3   OH223566   6.688   4.690   7.136  0.2177 -0.4800  0.0447
  644TIP3    H123567   6.602   4.711   7.171  0.3810  1.5155 -0.5919
  644TIP3    H223568   6.747   4.752   7.180  1.2160 -1.2710 -0.1296
  645TIP3   OH223569   1.171   2.518   1.955 -0.0410  0.7674  0.8249
  645TIP3    H123570   1.179   2.609   1.983  0.0131 -0.1581  4.1554
  645TIP3    H223571   1.186   2.466   2.034 -0.3955 -2.1692 -0.8702
  646TIP3   OH223572   0.493   6.269   7.877 -0.6886 -0.0344  0.0781
  646TIP3    H123573   0.489   6.208   7.950 -2.2463 -0.3930 -0.2612
  646TIP3    H223574   0.524   6.217   7.803  0.6895  0.2794  0.4195
  647TIP3   OH223575   5.857   4.136   0.562 -0.2070 -1.1750  0.3004
  647TIP3    H123576   5.807   4.217   0.571 -1.7958 -2.2937  2.5281
  647TIP3    H223577   5.823   4.095   0.482  0.9207  0.4717 -1.0972
  648TIP3   OH223578   4.421   5.388   2.380  0.2062 -0.2632  0.8879
  648TIP3    H123579   4.362   5.339   2.437 -2.7732  0.9019 -0.9823
  648TIP3    H223580   4.387   5.477   2.381  2.1808  0.5753 -0.0604
  649TIP3   OH223581   6.297   3.134   0.782  0.4902  0.1882  0.1245
  649TIP3    H123582   6.205   3.115   0.765  0.4600 -0.9854  1.4501
  649TIP3    H223583   6.331   3.164   0.698 -0.8464 -0.4032 -0.6561
  650TIP3   OH223584   3.214   1.444   8.282  0.2431 -0.4494 -0.2948
  650TIP3    H123585   3.127   1.482   8.292 -0.0449 -1.2732  0.4002
  650TIP3    H223586   3.200   1.364   8.233  0.5980 -0.6407 -0.0870
  651TIP3   OH223587   6.539   3.185   7.016  0.2057 -0.4055  0.0167
  651TIP3    H123588   6.539   3.089   7.019 -0.6427 -0.4123  0.0465
  651TIP3    H223589   6.570   3.206   6.928 -2.0389 -0.7848 -0.9515
  652TIP3   OH223590   2.340   0.090   2.558 -0.5616 -0.1931 -0.3591
  652TIP3    H123591   2.325   0.176   2.598 -0.3755  0.0524 -0.8091
  652TIP3    H223592   2.293   0.095   2.475  0.1683 -0.2160 -0.7754
  653TIP3   OH223593   2.125   0.763   8.925  0.4636  1.1488  0.1644
  653TIP3    H123594   2.160   0.810   8.850  2.2509  0.3437  0.4569
  653TIP3    H223595   2.055   0.709   8.888  0.7794  1.3582 -0.7765
  654TIP3   OH223596   3.824   2.844   0.192 -0.1979 -0.3395  0.9476
  654TIP3    H123597   3.788   2.933   0.186 -0.2301 -0.4041  0.0274
  654TIP3    H223598   3.918   2.856   0.178  0.0285 -0.2838  2.3775
  655TIP3   OH223599   1.933   3.478   1.324  0.3055 -0.3404 -0.3120
  655TIP3    H123600   1.841   3.486   1.347  0.3448  0.7266 -0.4362
  655TIP3    H223601   1.947   3.548   1.260  0.8280 -1.5066 -1.5022
  656TIP3   OH223602   2.869   3.136   1.218  0.2434  0.1104  0.1268
  656TIP3    H123603   2.915   3.189   1.283  1.3101 -1.3702  0.6495
  656TIP3    H223604   2.931   3.065   1.197 -0.9847 -0.7416 -0.7741
  657TIP3   OH223605   4.618   4.811   1.769  0.5249 -0.6863  0.2549
  657TIP3    H123606   4.542   4.767   1.807  0.2137 -0.3229  0.0572
  657TIP3    H223607   4.690   4.789   1.828  0.1392 -0.5090  0.8004
  658TIP3   OH223608   0.069   5.403   1.459 -0.1926 -0.0873 -0.2501
  658TIP3    H123609   0.078   5.466   1.530 -0.1231  0.4456 -0.7199
  658TIP3    H223610   0.082   5.318   1.500  0.5854  0.2598  0.2404
  659TIP3   OH223611   3.438   4.344   0.970  0.8231  0.0204  0.2223
  659TIP3    H123612   3.432   4.427   1.016  0.7971 -0.2316  0.6797
  659TIP3    H223613   3.477   4.366   0.886  3.3143  0.1395  1.3176
  660TIP3   OH223614   2.687   4.502   8.576  0.1790 -0.2421 -0.5154
  660TIP3    H123615   2.773   4.466   8.556 -0.0221 -1.0058 -0.0593
  660TIP3    H223616   2.702   4.596   8.586  1.1465 -0.4831  0.5155
  661TIP3   OH223617   1.509   3.253   0.266  0.0455 -0.4291 -0.0494
  661TIP3    H123618   1.586   3.295   0.227 -0.5912  0.6136 -0.2333
  661TIP3    H223619   1.444   3.323   0.271 -1.2749 -1.5430 -0.9299
  662TIP3   OH223620   2.154   5.188   8.441  0.1528  0.3757  0.1056
  662TIP3    H123621   2.158   5.179   8.537  1.1144  0.5953  0.0992
  662TIP3    H223622   2.061   5.194   8.421 -0.1409 -0.9069  0.9195
  663TIP3   OH223623   6.377   5.665   8.826 -0.2601 -0.2458 -0.7185
  663TIP3    H123624   6.385   5.691   8.918  0.3849 -1.4348 -0.4130
  663TIP3    H223625   6.443   5.596   8.815 -0.7355 -0.5288 -1.9201
  664TIP3   OH223626   5.933   4.040   2.033 -0.7156  0.1197  0.1885
  664TIP3    H123627   5.911   3.974   1.967 -0.4213 -0.6003  0.8019
  664TIP3    H223628   5.934   4.122   1.984  0.3960 -0.5080 -0.9090
  665TIP3   OH223629   0.802   0.787   0.065 -0.2451 -0.0919  0.0871
  665TIP3    H123630   0.870   0.754   0.123  0.4380 -0.0709 -0.6731
  665TIP3    H223631   0.754   0.709   0.037 -0.3512 -0.1396  0.4054
  666TIP3   OH223632   5.864   3.395   7.265 -0.3765  0.1414  0.3962
  666TIP3    H123633   5.863   3.310   7.222  2.3435  0.6439 -0.8531
  666TIP3    H223634   5.810   3.451   7.210  1.4082  0.2583 -1.3259
  667TIP3   OH223635   0.502   5.335   0.334  0.6342 -0.0351  0.1743
  667TIP3    H123636   0.411   5.311   0.318  1.0338 -0.6188 -1.5138
  667TIP3    H223637   0.515   5.319   0.427 -0.2850 -2.5252 -0.0412
  668TIP3   OH223638   3.327   5.457   1.748 -0.2792  0.1770 -0.1561
  668TIP3    H123639   3.372   5.402   1.811  0.1876  0.3512 -0.3321
  668TIP3    H223640   3.321   5.543   1.790 -0.6356  0.1037 -0.0495
  669TIP3   OH223641   1.299   6.006   8.405 -0.1777 -0.7844  0.5428
  669TIP3    H123642   1.300   5.913   8.381 -2.0601 -0.0765 -2.9940
  669TIP3    H223643   1.206   6.025   8.418  0.1492  0.7096  0.7776
  670TIP3   OH223644   6.013   2.963   1.019 -0.2423 -0.1527  0.2102
  670TIP3    H123645   5.936   2.910   1.042 -0.6939  0.0476 -0.7629
  670TIP3    H223646   6.026   3.020   1.094 -0.7604 -0.5245  0.5910
  671TIP3   OH223647   4.254   5.347   1.508  0.1926  0.2063 -0.7902
  671TIP3    H123648   4.171   5.395   1.495  0.3657  0.2205 -1.8748
  671TIP3    H223649   4.227   5.263   1.544 -0.2841  0.2663 -0.9971
  672TIP3   OH223650   0.290   6.372   2.388  0.3028  0.1880  0.4465
  672TIP3    H123651   0.341   6.367   2.468 -0.7152 -1.0533  1.0479
  672TIP3    H223652   0.200   6.383   2.417 -0.2215 -1.3413 -0.4750
  673TIP3   OH223653   5.197   2.797   8.497  0.2906  0.1869  0.1195
  673TIP3    H123654   5.157   2.763   8.417  0.4880  1.6229 -0.6070
  673TIP3    H223655   5.157   2.745   8.567 -0.2209 -0.7840 -0.8549
  674TIP3   OH223656   1.631   3.688   8.359 -0.1706  0.4847 -0.3777
  674TIP3    H123657   1.620   3.629   8.284 -1.9544  1.0368 -0.5956
  674TIP3    H223658   1.572   3.653   8.426  2.5037 -0.9110  1.4435
  675TIP3   OH223659   6.708   2.749   0.576 -0.4268  0.8883 -0.1365
  675TIP3    H123660   6.791   2.738   0.530 -0.8085  0.1108 -0.6644
  675TIP3    H223661   6.730   2.802   0.652  0.8207 -0.4007  0.4556
  676TIP3   OH223662   5.279   0.236   2.169  0.2335  0.4706 -0.1131
  676TIP3    H123663   5.192   0.243   2.209  0.9577 -0.9748  1.8748
  676TIP3    H223664   5.323   0.168   2.219  1.9656 -0.0082 -2.1527
  677TIP3   OH223665   6.057   3.231   1.210  0.1082  0.0454  0.0960
  677TIP3    H123666   6.141   3.231   1.164 -0.5812  0.7268 -1.2192
  677TIP3    H223667   6.011   3.307   1.175 -1.4134 -0.8174  0.1380
  678TIP3   OH223668   1.223   0.848   7.332  0.0579 -0.2116  0.4462
  678TIP3    H123669   1.169   0.896   7.269 -0.8534 -2.3517 -0.5037
  678TIP3    H223670   1.309   0.843   7.290 -0.0132  0.0547  0.2643
  679TIP3   OH223671   1.401   3.713   0.917 -0.0063 -0.7342  0.6187
  679TIP3    H123672   1.470   3.732   0.980 -0.4655 -0.7289  1.1217
  679TIP3    H223673   1.320   3.714   0.968 -0.4793  0.0884 -0.1098
  680TIP3   OH223674   1.261   5.667   7.307 -0.1671 -0.4409  0.5698
  680TIP3    H123675   1.294   5.756   7.318 -1.5137  0.0026  1.1357
  680TIP3    H223676   1.168   5.673   7.324 -0.5153 -1.7386 -0.6363
  681TIP3   OH223677   0.659   4.704   8.291  0.3965  0.5130  0.1151
  681TIP3    H123678   0.605   4.761   8.346 -0.6805  1.4317 -1.7717
  681TIP3    H223679   0.706   4.764   8.233  0.5795 -0.4270 -0.7498
  682TIP3   OH223680   1.390   4.103   1.695 -0.6533 -0.7675 -0.3850
  682TIP3    H123681   1.299   4.114   1.721 -0.5210 -0.4003 -0.0681
  682TIP3    H223682   1.390   4.117   1.600 -0.6841  0.8614 -0.1683
  683TIP3   OH223683   0.293   6.282   8.504 -0.0188 -0.1783 -0.1607
  683TIP3    H123684   0.226   6.218   8.482 -0.0385 -0.5895  1.0065
  683TIP3    H223685   0.375   6.233   8.501  0.0244 -0.1354  0.2064
  684TIP3   OH223686   0.026   5.219   1.165 -0.0843  0.2820  0.2175
  684TIP3    H123687   0.030   5.179   1.078  0.2658  0.8069 -0.0173
  684TIP3    H223688   0.108   5.192   1.207 -0.0870  0.3216  0.2480
  685TIP3   OH223689   3.063   0.285   8.039 -0.4446 -0.6859 -0.2904
  685TIP3    H123690   3.006   0.305   7.965 -0.0721 -0.1319 -0.4320
  685TIP3    H223691   3.106   0.203   8.015 -0.7315 -0.7922 -0.4463
  686TIP3   OH223692   4.013   3.888   1.004 -0.1156 -0.5589  0.1476
  686TIP3    H123693   4.097   3.859   1.041 -0.4123 -0.5524  0.8375
  686TIP3    H223694   3.947   3.846   1.058 -0.5632 -0.5621 -0.3947
  687TIP3   OH223695   0.255   5.925   0.718  0.2278 -0.2407  0.5951
  687TIP3    H123696   0.316   5.855   0.696  0.3950 -0.1510  0.7773
  687TIP3    H223697   0.257   5.983   0.642  0.5758 -0.0922  0.7194
  688TIP3   OH223698   2.617   3.154   3.030  0.5958 -0.6467 -0.3253
  688TIP3    H123699   2.540   3.169   2.974 -1.2994 -0.1995  2.2081
  688TIP3    H223700   2.673   3.096   2.978 -1.2707 -0.7167 -2.4326
  689TIP3   OH223701   3.281   2.077   0.915  0.4151  0.2211  0.1750
  689TIP3    H123702   3.285   2.012   0.986  2.3074  1.2207  1.0682
  689TIP3    H223703   3.201   2.126   0.933 -0.6302 -1.3064 -0.0618
  690TIP3   OH223704   1.925   6.103   8.626  0.2662 -0.0689 -0.2223
  690TIP3    H123705   1.986   6.125   8.556 -0.8625 -0.1464 -1.2668
  690TIP3    H223706   1.856   6.052   8.583  0.2423 -1.3143  1.2056
  691TIP3   OH223707   0.158   3.135   1.317  0.3837 -0.2354  0.0476
  691TIP3    H123708   0.118   3.108   1.235 -0.4582 -1.5471  0.8471
  691TIP3    H223709   0.205   3.216   1.296 -0.8506  0.1419 -1.4281
  692TIP3   OH223710   3.115   5.679   8.272  0.2607  0.4875  0.3571
  692TIP3    H123711   3.189   5.660   8.330  0.4523  1.3715  0.4196
  692TIP3    H223712   3.092   5.594   8.234  2.1988  0.4077 -0.7388
  693TIP3   OH223713   2.715   4.691   8.009  0.3071 -0.0942  0.3825
  693TIP3    H123714   2.725   4.596   7.996 -1.8933 -0.3705  0.3788
  693TIP3    H223715   2.705   4.700   8.104 -0.9143 -0.0639  0.2691
  694TIP3   OH223716   3.795   2.257   8.906  0.1701 -0.3371  0.7758
  694TIP3    H123717   3.858   2.328   8.894 -0.7850  0.2670 -1.1431
  694TIP3    H223718   3.726   2.296   8.961  0.1011 -0.0703  0.5033
  695TIP3   OH223719   2.783   2.396   1.352  0.0239  0.1831 -0.3657
  695TIP3    H123720   2.798   2.321   1.293  2.0219  1.0144 -0.9867
  695TIP3    H223721   2.847   2.384   1.422 -0.3176  0.8047  0.0588
  696TIP3   OH223722   2.513   3.271   1.411 -0.4937 -0.1046 -0.1390
  696TIP3    H123723   2.520   3.204   1.343 -1.0446 -0.7151  0.4009
  696TIP3    H223724   2.420   3.275   1.432 -0.1862 -0.8798  1.5212
  697TIP3   OH223725   6.374   2.996   2.929  0.1843 -0.1940  0.4378
  697TIP3    H123726   6.321   3.070   2.960  1.3917  0.6700  0.4646
  697TIP3    H223727   6.340   2.921   2.979 -0.5194  0.4673  0.9857
  698TIP3   OH223728   0.838   3.399   1.025 -0.0434 -0.3227 -0.4955
  698TIP3    H123729   0.755   3.355   1.009  0.4928 -0.7792 -2.2729
  698TIP3    H223730   0.904   3.330   1.016  0.5916  0.2017  0.0173
  699TIP3   OH223731   2.602   6.436   3.043  0.3313  0.3758  0.7997
  699TIP3    H123732   2.627   6.410   2.954 -1.0387 -0.4114  0.6205
  699TIP3    H223733   2.657   6.511   3.062  1.7685 -0.3996 -0.1094
  700TIP3   OH223734   2.943   5.587   8.585 -0.4907 -0.2494 -0.0018
  700TIP3    H123735   2.993   5.565   8.663 -1.5921  0.3097  0.8900
  700TIP3    H223736   2.988   5.541   8.514  0.8085 -0.3859  0.8739
  701TIP3   OH223737   4.605   0.552   7.639 -0.2804  0.3609  0.7627
  701TIP3    H123738   4.635   0.603   7.564 -2.0629 -0.0451 -0.2656
  701TIP3    H223739   4.669   0.481   7.647 -0.6892 -0.2788 -1.1401
  702TIP3   OH223740   6.617   4.999   2.769 -0.0935 -0.6137  0.1265
  702TIP3    H123741   6.605   5.006   2.674 -1.1020 -0.2042  0.2793
  702TIP3    H223742   6.532   4.970   2.802  0.3858 -1.2249  0.8653
  703TIP3   OH223743   5.434   5.077   0.422 -0.0131 -0.4226 -0.4383
  703TIP3    H123744   5.414   5.170   0.421 -1.1042 -0.6557 -1.0662
  703TIP3    H223745   5.467   5.058   0.334  1.8382 -0.3190  0.1746
  704TIP3   OH223746   6.802   5.866   7.054  0.3290  0.1687 -0.3759
  704TIP3    H123747   6.747   5.928   7.006 -0.7528  0.6505  1.3523
  704TIP3    H223748   6.868   5.921   7.096  0.7685 -0.1318 -0.6796
  705TIP3   OH223749   1.780   0.537   7.647  0.5253  0.2218 -0.3767
  705TIP3    H123750   1.808   0.478   7.716 -0.2460  1.8104  1.3978
  705TIP3    H223751   1.861   0.561   7.601  1.6971  1.8343  2.2594
  706TIP3   OH223752   6.047   3.302   0.220  0.2166  0.1902  0.1070
  706TIP3    H123753   6.101   3.317   0.143 -0.9009 -0.5670 -0.8561
  706TIP3    H223754   6.093   3.346   0.291  1.6659  0.2385 -0.8367
  707TIP3   OH223755   5.558   4.335   0.942  0.2234  0.3363  0.0643
  707TIP3    H123756   5.513   4.333   0.857  1.5475 -0.2980 -0.6449
  707TIP3    H223757   5.557   4.244   0.972 -1.8528  0.7875  1.6660
  708TIP3   OH223758   2.837   4.078   8.419  0.5792  0.0777 -0.0578
  708TIP3    H123759   2.810   4.145   8.482 -0.7106 -1.5169  1.1835
  708TIP3    H223760   2.756   4.033   8.396  1.4718 -1.4945 -0.2974
  709TIP3   OH223761   5.575   4.521   2.000 -0.3411 -0.3787  0.4394
  709TIP3    H123762   5.572   4.494   2.092  0.4022  1.4108  1.0298
  709TIP3    H223763   5.667   4.508   1.975 -0.7503 -1.9020 -0.4334
  710TIP3   OH223764   5.384   2.618   7.175  0.6666  0.3945  0.3363
  710TIP3    H123765   5.342   2.533   7.162  0.5497 -0.2572  3.8748
  710TIP3    H223766   5.470   2.609   7.134  0.7463 -1.5691  0.8281
  711TIP3   OH223767   6.565   3.671   0.845  0.2816  0.3880 -0.2782
  711TIP3    H123768   6.484   3.629   0.816  0.4382  0.4858 -0.8683
  711TIP3    H223769   6.539   3.760   0.870  0.1576  0.3210 -0.1646
  712TIP3   OH223770   0.833   2.163   1.565  0.1021  0.6713 -0.2013
  712TIP3    H123771   0.900   2.183   1.499 -1.4256  0.8351 -1.7715
  712TIP3    H223772   0.811   2.247   1.603  1.0886  0.5593  0.6634
  713TIP3   OH223773   4.383   5.547   8.608  0.7258 -0.0130 -0.2431
  713TIP3    H123774   4.339   5.596   8.678  0.5120 -0.8230  0.1947
  713TIP3    H223775   4.454   5.500   8.652  1.6472  0.7736 -0.8422
  714TIP3   OH223776   0.593   2.696   1.866  0.5460  0.1371  0.0183
  714TIP3    H123777   0.506   2.669   1.835  1.6187 -1.1384 -2.0502
  714TIP3    H223778   0.576   2.778   1.914 -1.6673  0.4985 -1.2262
  715TIP3   OH223779   1.201   0.794   1.735 -0.6718 -0.1529  0.1218
  715TIP3    H123780   1.215   0.709   1.777  0.3962  0.2657  0.6581
  715TIP3    H223781   1.223   0.858   1.802 -1.5184  0.5559 -0.2603
  716TIP3   OH223782   0.794   2.010   1.801 -0.0291  0.2993  0.4269
  716TIP3    H123783   0.859   2.025   1.869 -0.0478  0.8025  0.3399
  716TIP3    H223784   0.820   2.067   1.729 -0.8408  0.8942  0.5845
  717TIP3   OH223785   4.303   2.405   0.965 -0.2719 -0.3966 -0.1214
  717TIP3    H123786   4.212   2.374   0.959 -0.2457 -0.4655 -0.1582
  717TIP3    H223787   4.324   2.437   0.877 -0.1063 -0.8100 -0.2340
  718TIP3   OH223788   5.336   2.284   6.735 -0.1581 -0.2912  0.1128
  718TIP3    H123789   5.389   2.307   6.658  2.1035  0.3906  1.7440
  718TIP3    H223790   5.285   2.208   6.708  1.5616 -0.9004 -1.6717
  719TIP3   OH223791   1.845   1.136   8.457  0.6952  0.0665 -0.3198
  719TIP3    H123792   1.890   1.052   8.467 -0.5726 -0.6413 -0.3110
  719TIP3    H223793   1.831   1.166   8.547 -0.5332 -0.6759 -0.2328
  720TIP3   OH223794   5.619   4.192   8.695  0.4238  0.0249  0.1292
  720TIP3    H123795   5.565   4.236   8.630 -0.4839  0.9775  1.4926
  720TIP3    H223796   5.636   4.106   8.657 -0.4499  0.3952 -1.1662
  721TIP3   OH223797   6.283   6.737   1.324  0.3063  0.3327  0.5825
  721TIP3    H123798   6.292   6.810   1.263 -1.5404 -0.6654 -0.9574
  721TIP3    H223799   6.191   6.713   1.320  0.2291 -0.1790  3.3640
  722TIP3   OH223800   5.748   3.900   7.652  0.1804 -0.0051  0.2357
  722TIP3    H123801   5.690   3.975   7.637 -1.1407 -1.1405 -0.5896
  722TIP3    H223802   5.835   3.938   7.656 -0.4383  1.5601 -0.3120
  723TIP3   OH223803   3.164   0.840   0.192  0.4061 -0.1165  0.3058
  723TIP3    H123804   3.074   0.860   0.217 -0.1736  0.1260 -1.7726
  723TIP3    H223805   3.203   0.926   0.175  0.4406 -0.3112 -0.6313
  724TIP3   OH223806   1.861   2.575   1.033 -0.1262  0.3245 -0.3328
  724TIP3    H123807   1.953   2.559   1.053 -0.1584  0.6638  0.1051
  724TIP3    H223808   1.860   2.663   0.994 -0.2070  0.1212 -0.8040
  725TIP3   OH223809   3.396   0.259   7.343  0.4093 -0.4263  0.3838
  725TIP3    H123810   3.309   0.292   7.368  0.3465  0.9275 -1.4287
  725TIP3    H223811   3.380   0.170   7.313 -0.8507  0.5954 -2.2666
  726TIP3   OH223812   0.964   0.985   0.286  0.0491 -0.6019  0.0285
  726TIP3    H123813   1.000   0.957   0.370  0.3641 -2.0727 -0.5647
  726TIP3    H223814   0.875   1.014   0.306  0.0146 -1.2307  0.8239
  727TIP3   OH223815   1.756   0.011   2.266  0.1242  0.1087 -0.6605
  727TIP3    H123816   1.713  -0.064   2.308  0.0512 -0.0541 -1.0210
  727TIP3    H223817   1.845   0.009   2.302  0.5097 -0.9188 -1.6094
  728TIP3   OH223818   0.306   2.875   2.199 -0.0583 -0.3732 -0.0294
  728TIP3    H123819   0.219   2.850   2.167 -0.7188  2.6473 -0.9448
  728TIP3    H223820   0.304   2.855   2.292 -1.4092 -1.1835 -0.2072
  729TIP3   OH223821   5.042   5.338   2.115  0.3939 -0.2662  0.0578
  729TIP3    H123822   5.050   5.250   2.080  0.7273 -0.1928 -0.0472
  729TIP3    H223823   5.125   5.354   2.160  0.7815  0.4123 -0.8669
  730TIP3   OH223824   1.967   1.806   0.367 -0.5717 -0.5399 -0.2358
  730TIP3    H123825   1.907   1.851   0.427  1.9142  0.5572  1.5867
  730TIP3    H223826   1.951   1.713   0.383 -2.8313 -0.3577 -0.9883
  731TIP3   OH223827   4.209   5.476   0.991 -0.1087 -0.5555  0.1876
  731TIP3    H123828   4.164   5.394   0.972  2.3794 -2.0157  0.0710
  731TIP3    H223829   4.242   5.465   1.080 -0.3711  0.6446  0.4413
  732TIP3   OH223830   2.428   6.262   8.520  0.1550 -0.0610  0.2203
  732TIP3    H123831   2.459   6.173   8.504  1.1062 -0.1015  2.0496
  732TIP3    H223832   2.449   6.310   8.440 -0.4980 -1.4897 -0.8500
  733TIP3   OH223833   4.144   3.041   7.749 -0.7852 -0.1721  0.3185
  733TIP3    H123834   4.225   2.991   7.739 -0.2311  0.7136  0.2746
  733TIP3    H223835   4.123   3.033   7.842  0.9972  2.0166  0.9954
  734TIP3   OH223836   5.332   0.506   1.564  0.4251  0.2832  0.0490
  734TIP3    H123837   5.237   0.506   1.550  0.2511 -0.2045  1.1278
  734TIP3    H223838   5.360   0.420   1.534  0.7697  0.9765 -1.6898
  735TIP3   OH223839   0.263   3.575   7.966 -0.2936  0.0170 -0.1533
  735TIP3    H123840   0.317   3.541   7.895 -2.3398 -2.7303 -0.5513
  735TIP3    H223841   0.303   3.539   8.046  1.9872  3.0796  0.2527
  736TIP3   OH223842   2.221   0.729   8.560  0.1981 -0.2206 -0.3262
  736TIP3    H123843   2.288   0.797   8.547 -0.3575  0.3168 -0.4426
  736TIP3    H223844   2.267   0.647   8.544  1.1428  0.0606  0.8091
  737TIP3   OH223845   3.951   1.378   8.906 -0.3352  0.3786 -0.0816
  737TIP3    H123846   4.015   1.327   8.955 -1.2290 -0.8036 -0.1135
  737TIP3    H223847   3.891   1.412   8.973 -0.5905  0.1512 -0.1918
  738TIP3   OH223848   0.461   6.324   1.368 -0.5511 -0.3727 -1.1743
  738TIP3    H123849   0.425   6.384   1.433 -0.0122  1.3149 -2.3561
  738TIP3    H223850   0.384   6.283   1.328 -1.0656  1.0936 -1.7461
  739TIP3   OH223851   3.646   6.034   2.031 -0.7109 -0.5277 -0.3160
  739TIP3    H123852   3.718   6.087   1.995 -1.7227  0.0177 -1.6463
  739TIP3    H223853   3.689   5.960   2.073  0.6128 -0.6954 -1.8714
  740TIP3   OH223854   3.699   1.783   0.028 -0.3069 -0.1711  0.2009
  740TIP3    H123855   3.662   1.697   0.010  1.2864 -0.6222 -1.1970
  740TIP3    H223856   3.624   1.842   0.027 -1.1710 -1.2302 -1.1270
  741TIP3   OH223857   5.526   3.507   7.203 -0.1134 -0.0355 -0.0284
  741TIP3    H123858   5.477   3.509   7.121  0.8427 -1.1874 -0.6587
  741TIP3    H223859   5.615   3.532   7.179  0.7762 -2.7125  0.1536
  742TIP3   OH223860   0.364   5.767   1.915  0.1086 -0.0168  0.2154
  742TIP3    H123861   0.375   5.674   1.938  0.3467 -0.3887 -1.2868
  742TIP3    H223862   0.440   5.787   1.860 -0.7704  0.6021 -0.8135
  743TIP3   OH223863   3.563   3.134   6.993  0.2688  0.1512 -0.5102
  743TIP3    H123864   3.619   3.119   6.917 -0.5854 -1.7960 -0.8124
  743TIP3    H223865   3.620   3.120   7.068  1.0247  1.7063 -0.7544
  744TIP3   OH223866   2.012   1.586   7.960 -0.6698  0.1304 -0.5744
  744TIP3    H123867   2.077   1.634   8.012  1.2382 -1.1070 -1.7212
  744TIP3    H223868   1.938   1.646   7.954  1.1673  2.4908 -1.0108
  745TIP3   OH223869   3.392   5.996   1.926 -0.2704 -0.1786  0.4309
  745TIP3    H123870   3.374   6.083   1.890 -0.7856 -0.1743  0.6962
  745TIP3    H223871   3.477   6.005   1.968 -0.4311  0.2626  0.6667
  746TIP3   OH223872   0.272   0.448   0.867  0.0838  0.1296 -0.3306
  746TIP3    H123873   0.200   0.477   0.811  1.3101  2.4543 -0.7894
  746TIP3    H223874   0.240   0.460   0.956 -0.2203  0.8697 -0.5356
  747TIP3   OH223875   1.720   0.352   7.231 -1.0641  0.6197 -0.3810
  747TIP3    H123876   1.782   0.397   7.173 -1.7900  2.2569  0.0507
  747TIP3    H223877   1.653   0.317   7.172  0.4074 -1.5187 -0.8909
  748TIP3   OH223878   2.386   5.211   7.850 -0.1749 -0.2314  0.2524
  748TIP3    H123879   2.450   5.278   7.828  0.4682 -1.3354 -1.3648
  748TIP3    H223880   2.311   5.261   7.885  0.2798  1.3376 -0.8878
  749TIP3   OH223881   0.712   1.914   0.782  0.1322  0.6582  0.2257
  749TIP3    H123882   0.623   1.879   0.789  1.2143 -2.0572  2.4263
  749TIP3    H223883   0.741   1.923   0.873  3.0043 -1.3359 -0.3496
  750TIP3   OH223884   2.020   0.340   6.926 -0.4977 -0.1508  0.6453
  750TIP3    H123885   1.976   0.425   6.930 -2.9805 -1.2522 -0.6097
  750TIP3    H223886   2.107   0.359   6.892 -1.4772  1.7758 -0.9917
  751TIP3   OH223887   3.236   5.688   7.377  0.3471  0.0658 -0.3788
  751TIP3    H123888   3.327   5.713   7.397 -0.0988  1.4875  0.0374
  751TIP3    H223889   3.240   5.652   7.289  1.1241  1.4895 -0.9680
  752TIP3   OH223890   0.413   3.765   0.443  0.5673 -0.0090  0.3070
  752TIP3    H123891   0.335   3.761   0.499 -0.9311  1.4340 -1.5270
  752TIP3    H223892   0.413   3.681   0.396 -1.2591  0.7771 -1.2764
  753TIP3   OH223893   6.311   4.959   7.231 -0.1155  0.1506 -0.2073
  753TIP3    H123894   6.375   4.995   7.169 -0.6791 -0.5101 -1.1966
  753TIP3    H223895   6.319   4.864   7.223 -2.3482  0.0057 -1.6193
  754TIP3   OH223896   3.381   0.331   8.410  0.4300  0.6082 -0.0085
  754TIP3    H123897   3.427   0.248   8.403 -0.9316 -0.2144  0.4501
  754TIP3    H223898   3.296   0.315   8.370  0.1864  1.8296 -0.0340
  755TIP3   OH223899   6.547   4.868   0.814 -0.1589 -0.4296 -0.4059
  755TIP3    H123900   6.465   4.914   0.799 -0.8606 -1.6865 -0.6006
  755TIP3    H223901   6.574   4.895   0.902 -0.2493  0.7551 -0.7258
  756TIP3   OH223902   0.860   2.957   0.172  0.0499  0.5748  0.1116
  756TIP3    H123903   0.855   2.922   0.083  1.1975 -1.2118  0.6947
  756TIP3    H223904   0.770   2.984   0.192 -0.5296 -0.3977 -1.0408
  757TIP3   OH223905   3.193   0.527   8.843 -0.0050 -0.1264 -0.1693
  757TIP3    H123906   3.217   0.528   8.751  1.2803 -0.2062  0.1401
  757TIP3    H223907   3.122   0.464   8.849 -0.2501  0.0554 -1.1373
  758TIP3   OH223908   3.723   1.365   1.612 -0.6630  0.4619 -0.5593
  758TIP3    H123909   3.684   1.452   1.604  0.8242  1.1244 -0.9883
  758TIP3    H223910   3.662   1.317   1.668 -1.9053  1.5289 -0.9341
  759TIP3   OH223911   0.272   3.478   7.015 -0.0827  0.0204  0.3254
  759TIP3    H123912   0.255   3.512   7.103  1.1617 -0.3367  0.7297
  759TIP3    H223913   0.321   3.548   6.972 -0.8611  0.2742 -0.1639
  760TIP3   OH223914   2.046   0.139   7.623  0.3208  0.0978 -0.2392
  760TIP3    H123915   2.139   0.153   7.637 -0.0103  2.0048  0.3282
  760TIP3    H223916   2.024   0.194   7.547 -0.5991  0.8477  0.5357
  761TIP3   OH223917   2.293   1.547   2.524  0.5301  0.1224 -0.3983
  761TIP3    H123918   2.240   1.467   2.527 -0.7860  0.9915  0.2459
  761TIP3    H223919   2.275   1.591   2.607  3.2131 -0.1034  0.4205
  762TIP3   OH223920   2.640   2.828   7.095 -0.1351  0.4395 -0.3703
  762TIP3    H123921   2.565   2.865   7.142  0.1401  0.6348 -0.0789
  762TIP3    H223922   2.608   2.745   7.060 -0.2206  0.0904  0.5265
  763TIP3   OH223923   5.110   6.295   2.204 -0.6390 -0.0638 -0.0797
  763TIP3    H123924   5.052   6.371   2.201 -1.7079 -0.7942  1.1331
  763TIP3    H223925   5.067   6.230   2.148  0.2778  0.1892 -1.1226
  764TIP3   OH223926   1.955   3.103   0.912  0.6068  0.4219 -0.0221
  764TIP3    H123927   2.049   3.117   0.895  0.8644 -0.7591  0.3793
  764TIP3    H223928   1.922   3.191   0.929  1.0122  1.2861 -3.0536
  765TIP3   OH223929   2.340   1.527   2.148  0.7783  0.2696  0.2429
  765TIP3    H123930   2.325   1.560   2.059  0.6191  0.6318  0.4008
  765TIP3    H223931   2.334   1.605   2.203 -0.6380 -0.1604  0.7448
  766TIP3   OH223932   4.858   3.243   2.347 -0.2032  0.2570  0.3721
  766TIP3    H123933   4.801   3.304   2.394 -1.2660  0.3845 -1.0099
  766TIP3    H223934   4.890   3.293   2.272 -1.0557 -0.8356 -0.7551
  767TIP3   OH223935   4.300   4.491   0.679  0.2955 -0.3594 -0.1153
  767TIP3    H123936   4.317   4.584   0.693 -1.4785  0.1920 -1.2712
  767TIP3    H223937   4.376   4.461   0.628  1.0929  0.3299  0.6375
  768TIP3   OH223938   5.831   6.112   0.119 -0.4446  0.2344 -0.2944
  768TIP3    H123939   5.738   6.089   0.123 -0.6869 -0.1541 -4.1173
  768TIP3    H223940   5.876   6.030   0.102  0.3377  0.6840 -0.4761
  769TIP3   OH223941   0.117   0.559   1.917  0.1416 -0.2436  0.3027
  769TIP3    H123942   0.044   0.609   1.955 -0.4063  1.4377 -2.6281
  769TIP3    H223943   0.094   0.549   1.825  1.6733 -3.4826  0.1504
  770TIP3   OH223944   4.766   0.384   7.317  0.0224  0.1261 -0.2601
  770TIP3    H123945   4.699   0.409   7.380 -1.7032  0.1796 -2.0082
  770TIP3    H223946   4.779   0.463   7.263 -0.2081 -0.5707 -1.3641
  771TIP3   OH223947   5.883   1.635   7.082  0.0720 -0.3010 -0.1736
  771TIP3    H123948   5.831   1.631   7.002 -0.4998  1.5490  0.0653
  771TIP3    H223949   5.932   1.717   7.075 -1.3213  0.8204  2.1236
  772TIP3   OH223950   3.289   1.973   1.164 -0.0352  0.9413  0.4155
  772TIP3    H123951   3.259   2.016   1.245 -0.9141  0.5245  0.3282
  772TIP3    H223952   3.254   1.884   1.170 -0.1304  0.9166 -0.4359
  773TIP3   OH223953   2.541   6.067   1.901  0.1497 -0.4675  0.1555
  773TIP3    H123954   2.512   6.115   1.823  0.8928  0.1396  0.2398
  773TIP3    H223955   2.625   6.029   1.876 -0.3130 -1.5524  0.1713
  774TIP3   OH223956   4.970   1.015   1.958 -0.1856 -0.3404 -0.0400
  774TIP3    H123957   4.896   1.059   1.999  1.9274  2.4595  1.1029
  774TIP3    H223958   4.934   0.976   1.878 -2.9032  0.5628  0.6295
  775TIP3   OH223959   3.392   3.841   0.238  0.0292 -0.1584  0.1651
  775TIP3    H123960   3.321   3.783   0.208  0.0277 -0.4111  0.6526
  775TIP3    H223961   3.370   3.860   0.329 -0.9794  2.1038 -0.4783
  776TIP3   OH223962   4.886   0.539   0.995 -0.3285  0.0843 -0.0864
  776TIP3    H123963   4.867   0.632   1.005  2.1203  0.6114  0.2418
  776TIP3    H223964   4.962   0.536   0.936 -0.2798 -1.7055  0.0071
  777TIP3   OH223965   1.276   3.448   0.237 -0.8646 -0.1280  0.6329
  777TIP3    H123966   1.323   3.527   0.263  2.8897 -1.8749 -0.0997
  777TIP3    H223967   1.277   3.450   0.141 -0.5824 -1.0714  0.6037
  778TIP3   OH223968   3.806   6.570   0.023  0.0242 -0.1202 -0.1707
  778TIP3    H123969   3.897   6.598   0.008  0.2437 -0.8639 -0.2467
  778TIP3    H223970   3.759   6.601  -0.054  0.1906  0.3430 -0.0939
  779TIP3   OH223971   4.254   2.383   1.936 -0.2349 -0.2662  0.3579
  779TIP3    H123972   4.177   2.396   1.992 -0.1831  0.0420  0.3608
  779TIP3    H223973   4.326   2.368   1.997  0.5797  3.6650  0.6429
  780TIP3   OH223974   1.896   2.790   0.072 -0.3812  0.1952  0.3782
  780TIP3    H123975   1.898   2.874   0.026  0.2055 -0.4133 -0.7341
  780TIP3    H223976   1.812   2.790   0.118 -1.4754  0.4054 -1.5043
  781TIP3   OH223977   5.236   4.208   0.549  0.4342 -0.1955  0.5175
  781TIP3    H123978   5.253   4.300   0.529 -0.5480 -0.0798  0.1419
  781TIP3    H223979   5.288   4.190   0.627 -0.2563  1.0135  1.2942
  782TIP3   OH223980   0.509   5.208   0.597  0.0370  0.0623 -0.1738
  782TIP3    H123981   0.458   5.217   0.678  0.0923  0.1413 -0.1478
  782TIP3    H223982   0.556   5.125   0.608 -0.6770 -0.4017 -0.5294
  783TIP3   OH223983   3.638   4.822   2.898 -0.0407  0.1765 -0.1687
  783TIP3    H123984   3.668   4.894   2.953 -1.8918  1.6387 -0.9371
  783TIP3    H223985   3.648   4.744   2.952  1.4677  1.0794  0.9161
  784TIP3   OH223986   3.539   0.111   8.313 -0.0970  0.2102  0.2291
  784TIP3    H123987   3.506   0.054   8.244  1.5108 -0.9976  0.3806
  784TIP3    H223988   3.568   0.050   8.382 -2.0961  1.3654  2.2333
  785TIP3   OH223989   1.954   5.620   0.689  0.3935  0.2805 -0.0684
  785TIP3    H123990   1.952   5.565   0.767  0.4041 -0.5249 -0.6223
  785TIP3    H223991   1.873   5.671   0.693 -0.4962 -1.0445 -0.4255
  786TIP3   OH223992   1.053   6.672   1.132 -0.1054  0.5442 -0.1711
  786TIP3    H123993   1.010   6.724   1.199  0.2993  0.8519 -0.1483
  786TIP3    H223994   0.983   6.621   1.093 -0.9722  2.8457 -1.8440
  787TIP3   OH223995   1.575   3.982   0.969 -0.4386 -0.0478  0.2577
  787TIP3    H123996   1.588   3.912   1.033 -0.0410  0.9231  1.2615
  787TIP3    H223997   1.551   4.058   1.021  0.6364  0.9633 -0.6849
  788TIP3   OH223998   5.082   0.790   2.091 -0.4137  0.0437  0.1636
  788TIP3    H123999   5.093   0.813   2.184  0.1157  0.4441  0.0046
  788TIP3    H224000   5.031   0.862   2.055  1.7427  1.3567 -0.4668
  789TIP3   OH224001   3.265   5.294   1.389 -0.9888  0.2724 -0.5227
  789TIP3    H124002   3.299   5.307   1.478  0.0024  1.1208 -0.9955
  789TIP3    H224003   3.207   5.368   1.375 -0.3457  0.7045 -0.9383
  790TIP3   OH224004   5.471   4.476   8.255  0.5701 -0.1615 -0.3076
  790TIP3    H124005   5.444   4.427   8.333  2.0777  0.0783  0.3971
  790TIP3    H224006   5.515   4.412   8.200  1.2653  0.0777 -0.0418
  791TIP3   OH224007   6.119   2.603   7.536 -0.0069 -0.5365 -0.6936
  791TIP3    H124008   6.201   2.582   7.492  1.1656  0.4590  0.8646
  791TIP3    H224009   6.141   2.597   7.629 -1.4995  0.4709 -0.2477
  792TIP3   OH224010   2.832   2.110   7.992 -0.5067  0.3173 -0.6884
  792TIP3    H124011   2.749   2.122   7.946  0.2604  1.2898 -1.8929
  792TIP3    H224012   2.843   2.192   8.041 -0.4399  0.0260 -0.2104
  793TIP3   OH224013   1.794   6.042   0.330  0.7368  0.0455  0.0161
  793TIP3    H124014   1.868   6.102   0.339 -0.6938  2.1661 -1.2893
  793TIP3    H224015   1.721   6.088   0.371 -0.6829 -0.2147 -2.0567
  794TIP3   OH224016   0.090   3.872   0.320  0.8351 -0.2677  0.5875
  794TIP3    H124017   0.139   3.855   0.400  4.3044 -0.1896 -1.3222
  794TIP3    H224018   0.103   3.965   0.303  1.1884 -0.5222 -0.6531
  795TIP3   OH224019   5.446   4.095   2.415  0.1463  0.1424 -0.1953
  795TIP3    H124020   5.399   4.176   2.396 -0.5019 -0.0694  0.4551
  795TIP3    H224021   5.386   4.025   2.387 -0.1393 -0.1399  1.0645
  796TIP3   OH224022   5.892   0.755   0.896 -0.0395  0.0741  0.2104
  796TIP3    H124023   5.926   0.806   0.823  0.2922  0.5622  0.6971
  796TIP3    H224024   5.945   0.783   0.971 -1.3759  0.7180  0.9504
  797TIP3   OH224025   4.564   5.400   8.933 -0.2315 -0.0917 -0.1131
  797TIP3    H124026   4.613   5.320   8.953  0.4697  0.1755 -0.7126
  797TIP3    H224027   4.584   5.418   8.841 -0.1308  0.9361  0.0981
  798TIP3   OH224028   4.926   0.911   7.285  0.0218 -0.4062 -0.5443
  798TIP3    H124029   4.966   0.939   7.203  1.3156 -1.9375 -0.4958
  798TIP3    H224030   4.836   0.942   7.280  0.4607  0.7723 -1.8915
  799TIP3   OH224031   4.342   0.116   8.707  0.4602 -0.1541  0.1735
  799TIP3    H124032   4.260   0.119   8.757  0.0203 -3.8115 -0.0852
  799TIP3    H224033   4.393   0.046   8.748  3.6365  2.0246  0.3853
  800TIP3   OH224034   5.433   0.803   1.286  0.1165  0.4036  0.9278
  800TIP3    H124035   5.471   0.730   1.335  0.0315  1.0034  1.9220
  800TIP3    H224036   5.486   0.809   1.207  1.5497  0.6659  1.8768
  801TIP3   OH224037   2.190   5.261   1.339 -0.5978  0.2839  0.5574
  801TIP3    H124038   2.161   5.348   1.368 -1.5119  0.5275 -0.9632
  801TIP3    H224039   2.109   5.210   1.331 -0.1580 -0.4260  0.5377
  802TIP3   OH224040   4.176   6.002   1.633 -0.2022 -0.0926 -0.3442
  802TIP3    H124041   4.256   6.024   1.586 -0.9606 -1.4765 -2.4487
  802TIP3    H224042   4.148   5.918   1.594 -2.1013 -0.1671  1.0489
  803TIP3   OH224043   6.784   0.024   0.803 -0.3279  0.4276 -0.0259
  803TIP3    H124044   6.722   0.020   0.730  0.6957  1.1794 -0.9790
  803TIP3    H224045   6.808   0.116   0.808 -0.0820  0.3135  1.0211
  804TIP3   OH224046   0.963   5.144   0.556  0.1360 -0.6484  0.7918
  804TIP3    H124047   0.896   5.126   0.490 -0.2372 -1.2425  1.3345
  804TIP3    H224048   1.036   5.088   0.531  0.7617  0.5607 -0.2579
  805TIP3   OH224049   6.402   3.059   1.817  0.0082 -0.4382  0.1134
  805TIP3    H124050   6.437   3.113   1.746  0.7578 -1.7556 -0.5500
  805TIP3    H224051   6.307   3.064   1.806  0.0695  0.5912 -0.0375
  806TIP3   OH224052   5.244   4.167   0.129  0.5080  0.3733 -0.3431
  806TIP3    H124053   5.250   4.182   0.035 -1.6588  0.7253 -0.4803
  806TIP3    H224054   5.181   4.232   0.160 -0.8211 -1.3999  0.8795
  807TIP3   OH224055   6.288   0.582   0.418 -0.3145 -0.4599  0.4321
  807TIP3    H124056   6.365   0.580   0.474  0.0958 -0.0512 -0.1036
  807TIP3    H224057   6.318   0.625   0.338 -0.9871 -0.6855  0.0510
  808TIP3   OH224058   1.975   3.781   8.506  0.2556 -0.2296 -0.2124
  808TIP3    H124059   1.927   3.836   8.444 -0.0847 -0.3107 -0.0248
  808TIP3    H224060   2.066   3.786   8.477  0.2543  0.5690 -0.0916
  809TIP3   OH224061   2.577   1.046   8.323 -0.3624 -0.0875  0.4545
  809TIP3    H124062   2.609   1.098   8.396  0.0073 -0.7029  0.7422
  809TIP3    H224063   2.552   1.111   8.257  0.5591  0.4504  0.6051
  810TIP3   OH224064   0.429   1.519   8.289  0.1253 -0.1240  0.7392
  810TIP3    H124065   0.347   1.543   8.246  0.0612  0.1949  1.0453
  810TIP3    H224066   0.469   1.602   8.314  1.1533 -0.1953 -0.5258
  811TIP3   OH224067   1.646   1.175   2.065 -0.2179  0.0652  0.1877
  811TIP3    H124068   1.674   1.090   2.100 -0.3266  0.2287  0.6763
  811TIP3    H224069   1.604   1.219   2.139 -2.5250 -0.4953 -0.6980
  812TIP3   OH224070   1.076   2.877   8.493  0.1160  0.3586 -0.0548
  812TIP3    H124071   1.116   2.815   8.555 -0.0118  2.7840  2.6424
  812TIP3    H224072   1.150   2.920   8.452  0.2677  0.9709  0.8305
  813TIP3   OH224073   2.457   5.459   0.631  0.1022  0.2018  0.5518
  813TIP3    H124074   2.434   5.480   0.540  0.4725 -2.2593 -0.2025
  813TIP3    H224075   2.373   5.446   0.675 -0.0816  1.4816  0.6266
  814TIP3   OH224076   4.563   4.215   8.202  0.3382  0.0300  0.0762
  814TIP3    H124077   4.575   4.275   8.275  0.3355  1.0855 -0.7722
  814TIP3    H224078   4.468   4.202   8.198  0.3587 -0.2606  0.4275
  815TIP3   OH224079   0.552   5.286   8.095 -0.4273 -0.7094  0.3212
  815TIP3    H124080   0.505   5.336   8.161  0.3515 -0.1510  0.4779
  815TIP3    H224081   0.588   5.211   8.141  0.9118  0.1678  0.7861
  816TIP3   OH224082   5.731   2.303   8.369 -0.1269 -0.6690 -0.3289
  816TIP3    H124083   5.823   2.330   8.372 -0.4052  0.2761  2.0717
  816TIP3    H224084   5.731   2.216   8.410 -0.2188 -0.9882 -0.9986
  817TIP3   OH224085   6.576   3.264   7.296 -0.0282 -0.4665 -0.1329
  817TIP3    H124086   6.600   3.354   7.274  0.2401 -0.4590  0.1837
  817TIP3    H224087   6.540   3.228   7.215  0.0696 -0.1437 -0.3198
  818TIP3   OH224088   3.037   4.501   2.811  0.0328  0.1303  0.2825
  818TIP3    H124089   2.997   4.450   2.882  0.8381 -0.8215  0.0765
  818TIP3    H224090   3.108   4.446   2.779 -0.5590  0.3525 -1.5420
  819TIP3   OH224091   4.035   3.105   7.504  0.1235 -0.1911 -0.3603
  819TIP3    H124092   4.069   3.104   7.593  0.1691 -1.7796 -0.3665
  819TIP3    H224093   3.940   3.111   7.514  0.2332  2.6600 -0.3109
  820TIP3   OH224094   4.088   1.362   1.019  0.0447 -0.4230  0.1699
  820TIP3    H124095   4.024   1.326   0.958 -0.5215 -1.8654  1.5523
  820TIP3    H224096   4.154   1.403   0.963 -0.4771 -1.6451 -1.4149
  821TIP3   OH224097   2.054   6.140   0.327  0.2409  0.4702 -0.6947
  821TIP3    H124098   2.111   6.133   0.251  0.9880  3.2320 -0.4961
  821TIP3    H224099   2.103   6.098   0.398  1.3880  1.4735 -0.8677
  822TIP3   OH224100   3.136   2.336   1.267 -0.0627  0.8866 -0.0570
  822TIP3    H124101   3.080   2.262   1.292 -3.3319  1.7286 -3.8315
  822TIP3    H224102   3.215   2.296   1.232 -0.2600 -0.6187  1.1393
  823TIP3   OH224103   3.964   3.214   8.103  0.0241 -0.1275 -0.3180
  823TIP3    H124104   4.035   3.156   8.132  0.0089  0.6070  1.3247
  823TIP3    H224105   3.891   3.191   8.160 -0.9603 -0.5933 -1.7277
  824TIP3   OH224106   5.038   0.969   7.036  0.5006  0.5284  0.6785
  824TIP3    H124107   5.000   0.968   6.948  0.6070 -1.8154  0.5816
  824TIP3    H224108   5.122   0.924   7.026 -0.3802 -1.6775  2.2663
  825TIP3   OH224109   2.137   6.500   8.185  0.3565 -0.1547  0.0877
  825TIP3    H124110   2.149   6.589   8.150 -1.1688  0.7583  1.7112
  825TIP3    H224111   2.083   6.456   8.120 -0.9620  0.9465  0.3837
  826TIP3   OH224112   2.459   2.108   1.161  0.4552 -0.1088  0.1842
  826TIP3    H124113   2.449   2.202   1.150  0.1913 -0.3462 -1.9414
  826TIP3    H224114   2.417   2.070   1.084  0.5322 -1.9790  1.0067
  827TIP3   OH224115   1.944   0.280   0.855  0.8356  0.1618  0.0795
  827TIP3    H124116   1.910   0.191   0.849 -0.0506  0.5954 -3.0392
  827TIP3    H224117   2.029   0.271   0.897  0.5998 -2.1005  0.1930
  828TIP3   OH224118   1.572   0.216   2.223  0.2969 -0.1390  0.7928
  828TIP3    H124119   1.635   0.247   2.158  0.1364 -1.8552 -0.2243
  828TIP3    H224120   1.599   0.127   2.243 -1.1231 -0.5070  1.1979
  829TIP3   OH224121   5.441   1.981   1.388 -0.2394 -0.7090 -0.1397
  829TIP3    H124122   5.392   2.035   1.326 -2.1932 -0.7468  1.2613
  829TIP3    H224123   5.518   2.033   1.408 -0.2565 -0.0864 -1.5374
  830TIP3   OH224124   1.734   3.417   1.913 -0.5953 -0.1248 -0.2701
  830TIP3    H124125   1.725   3.499   1.866  0.4737  0.4839  0.5552
  830TIP3    H224126   1.783   3.360   1.855  0.4031  0.5017 -0.0557
  831TIP3   OH224127   0.357   6.722   0.911  0.0104 -0.1385  0.2762
  831TIP3    H124128   0.266   6.737   0.936 -0.1894  0.2018 -0.6348
  831TIP3    H224129   0.375   6.787   0.844  0.8468 -0.3826  0.2494
  832TIP3   OH224130   0.630   1.560   8.878  0.0179 -0.3372 -0.1424
  832TIP3    H124131   0.722   1.585   8.889 -0.1026 -0.2691  0.7453
  832TIP3    H224132   0.586   1.594   8.956 -0.4808 -1.7079  0.2034
  833TIP3   OH224133   2.248   1.076   2.043 -0.4651  0.0160  0.1381
  833TIP3    H124134   2.250   1.162   2.086 -1.0167  0.1817 -0.1488
  833TIP3    H224135   2.322   1.028   2.080  0.3321  0.8946 -0.2844
  834TIP3   OH224136   1.289   3.679   7.882  0.3092  0.5271  0.3309
  834TIP3    H124137   1.379   3.698   7.858  0.2680  2.5553  1.5454
  834TIP3    H224138   1.290   3.674   7.978 -0.7928  0.0607  0.3343
  835TIP3   OH224139   5.576   1.777   2.642  0.6265 -0.1791 -0.5242
  835TIP3    H124140   5.532   1.707   2.593 -0.2243 -0.0293  0.0022
  835TIP3    H224141   5.552   1.762   2.733  3.3520 -1.3015  0.1070
  836TIP3   OH224142   1.740   3.800   1.480  0.4322 -0.2026 -0.4418
  836TIP3    H124143   1.831   3.769   1.481 -0.0258 -1.7446  2.3624
  836TIP3    H224144   1.689   3.728   1.517 -1.8127  1.0661 -0.8510
  837TIP3   OH224145   5.531   3.509   1.013 -0.1860 -0.3719 -0.0625
  837TIP3    H124146   5.501   3.582   1.068  2.1821  1.9862 -1.6852
  837TIP3    H224147   5.573   3.449   1.075  1.0704  1.4691  0.9769
  838TIP3   OH224148   3.633   4.817   8.222  0.0144 -0.3062  0.5824
  838TIP3    H124149   3.570   4.875   8.264 -0.2655 -0.5456  0.4900
  838TIP3    H224150   3.701   4.876   8.189 -0.5148  0.0208  0.0552
  839TIP3   OH224151   3.335   6.545   2.441  0.0256 -0.2328  0.0092
  839TIP3    H124152   3.411   6.490   2.422 -0.6529 -0.9870 -0.5704
  839TIP3    H224153   3.260   6.488   2.427 -0.7018  0.8591 -0.6989
  840TIP3   OH224154   3.975   1.530   1.620 -0.1610 -0.0844 -0.0769
  840TIP3    H124155   4.031   1.453   1.633 -1.1160 -0.5480  1.6353
  840TIP3    H224156   3.888   1.494   1.605 -0.3914  0.6653 -0.6011
  841TIP3   OH224157   0.296   3.671   1.685 -0.5163  0.0279 -0.0232
  841TIP3    H124158   0.281   3.678   1.590 -0.3223  0.5131 -0.0243
  841TIP3    H224159   0.244   3.741   1.723  0.3352  0.6050  0.1195
  842TIP3   OH224160   1.423   1.483   1.795  0.0501 -0.0052 -0.3303
  842TIP3    H124161   1.421   1.475   1.890 -0.6748  1.5349 -0.1858
  842TIP3    H224162   1.362   1.555   1.775  3.3153  2.6823 -1.6042
  843TIP3   OH224163   0.445   1.745   1.346 -0.0094 -0.2562 -0.2778
  843TIP3    H124164   0.369   1.767   1.399 -0.5107 -0.1052 -1.0549
  843TIP3    H224165   0.453   1.816   1.283  0.5319 -0.4720 -0.4644
  844TIP3   OH224166   3.412   3.109   1.856  0.0261  0.2449  0.4374
  844TIP3    H124167   3.352   3.157   1.913  1.0171 -0.0507  1.7816
  844TIP3    H224168   3.439   3.174   1.791 -0.3588  0.8834  0.8954
  845TIP3   OH224169   2.300   2.333   2.287 -0.5988 -0.0469 -0.3151
  845TIP3    H124170   2.264   2.284   2.361 -2.5710  0.5243 -0.8544
  845TIP3    H224171   2.244   2.310   2.213  0.9991 -0.1747 -1.5302
  846TIP3   OH224172   2.024   1.887   8.347  0.3395 -0.1593 -0.0958
  846TIP3    H124173   1.959   1.860   8.412 -1.5390  0.0636 -1.7739
  846TIP3    H224174   2.000   1.977   8.325  0.5882 -0.4026 -1.4661
  847TIP3   OH224175   0.481   2.189   2.873 -0.3784  0.4784  0.3299
  847TIP3    H124176   0.418   2.119   2.890 -0.3712  0.2530 -0.5085
  847TIP3    H224177   0.566   2.146   2.877 -0.3460  0.5408  0.3124
  848TIP3   OH224178   6.353   1.311   0.436  0.4452 -0.1309  0.4207
  848TIP3    H124179   6.270   1.357   0.425 -0.4405 -1.6376  0.5183
  848TIP3    H224180   6.419   1.380   0.444 -0.7322  1.0812 -0.1426
  849TIP3   OH224181   0.102   5.918   7.859  0.8293  0.7052 -0.6784
  849TIP3    H124182   0.019   5.960   7.883  0.8582 -0.0987  0.9224
  849TIP3    H224183   0.076   5.839   7.812  0.4712 -1.2479  2.4986
  850TIP3   OH224184   2.964   3.033   0.537  0.5499 -0.1847  0.1200
  850TIP3    H124185   2.920   2.952   0.511 -0.4592  0.8066 -1.3497
  850TIP3    H224186   2.912   3.066   0.610  1.2242 -1.0397  1.0306
  851TIP3   OH224187   5.000   0.300   7.197  0.1171 -0.6808  0.2305
  851TIP3    H124188   4.923   0.338   7.240  1.3586 -0.0121  1.9400
  851TIP3    H224189   4.994   0.332   7.106  0.2609  2.4406  1.1881
  852TIP3   OH224190   2.475   5.673   8.032 -0.6236  0.3221  0.2434
  852TIP3    H124191   2.514   5.742   8.086 -1.5465  1.7150 -0.7954
  852TIP3    H224192   2.416   5.627   8.090 -0.2329  0.6115  0.8780
  853TIP3   OH224193   2.887   1.258   8.133 -0.3287 -0.2240  0.4316
  853TIP3    H124194   2.979   1.231   8.142  0.0311  0.1316 -1.5918
  853TIP3    H224195   2.854   1.205   8.060 -1.0529  1.2137 -0.3269
  854TIP3   OH224196   4.195   2.954   2.536 -0.2643 -0.4575  0.0466
  854TIP3    H124197   4.187   2.865   2.502 -0.5030 -0.1844 -0.6355
  854TIP3    H224198   4.288   2.964   2.554  0.2148 -0.0272 -2.2538
  855TIP3   OH224199   2.165   3.336   1.174  0.0110 -0.7507 -0.4089
  855TIP3    H124200   2.073   3.338   1.200  0.4497  1.5601  1.2975
  855TIP3    H224201   2.168   3.388   1.093  0.0951  1.6180  1.0086
  856TIP3   OH224202   4.859   1.718   1.325  0.7277 -0.1940 -0.5339
  856TIP3    H124203   4.890   1.783   1.389 -0.7886 -0.8051  0.9118
  856TIP3    H224204   4.921   1.646   1.332 -1.1307 -1.7174  2.8414
  857TIP3   OH224205   4.142   4.650   2.188  0.1856  0.0689 -0.2497
  857TIP3    H124206   4.228   4.668   2.227 -0.2212 -0.6631  1.0780
  857TIP3    H224207   4.126   4.558   2.210 -1.4320  0.5144  0.5373
  858TIP3   OH224208   5.194   4.429   7.813 -0.3133  0.3608  0.4184
  858TIP3    H124209   5.228   4.392   7.895 -0.6076  0.1547  0.4495
  858TIP3    H224210   5.118   4.481   7.841  0.4773  1.5450  0.4624
  859TIP3   OH224211   3.810   5.369   0.422  0.1748 -0.0072 -0.5321
  859TIP3    H124212   3.895   5.369   0.467  0.3742  0.1733 -0.9069
  859TIP3    H224213   3.790   5.276   0.409  0.3964 -0.0471 -0.5935
  860TIP3   OH224214   3.131   3.133   1.702  0.4523 -1.1549 -0.4820
  860TIP3    H124215   3.043   3.139   1.738  0.7836 -0.8789  0.2944
  860TIP3    H224216   3.178   3.207   1.739  1.1006 -1.4734 -0.6421
  861TIP3   OH224217   2.563   4.202   1.931 -0.5384 -0.2735 -0.5042
  861TIP3    H124218   2.474   4.194   1.963  0.0518 -1.0261  1.0597
  861TIP3    H224219   2.602   4.116   1.946  0.6677  0.2633 -0.4551
  862TIP3   OH224220   3.493   6.077   0.963  0.0412 -0.6943  0.3062
  862TIP3    H124221   3.518   6.031   0.883 -2.2445  0.8742 -1.4223
  862TIP3    H224222   3.406   6.112   0.945 -0.3138  0.2605  3.2888
  863TIP3   OH224223   3.574   1.322   8.670  0.0549  0.2257 -0.8789
  863TIP3    H124224   3.494   1.274   8.648  0.9396 -1.3091 -0.8822
  863TIP3    H224225   3.598   1.290   8.757  0.3195  1.1666 -0.5957
  864TIP3   OH224226   2.129   0.174   8.199  0.5585  0.4457 -0.3007
  864TIP3    H124227   2.224   0.166   8.192  0.5312 -0.3989  0.1489
  864TIP3    H224228   2.096   0.090   8.168 -0.1143  1.2066 -1.7109
  865TIP3   OH224229   4.292   4.946   8.295  0.4056  0.2734  0.7489
  865TIP3    H124230   4.362   4.984   8.243  0.3339 -2.1337 -1.2929
  865TIP3    H224231   4.317   4.855   8.307 -2.2611 -0.6245  0.0895
  866TIP3   OH224232   4.868   4.521   1.170  0.0800  0.2746 -0.2207
  866TIP3    H124233   4.924   4.472   1.230 -0.2285 -0.8938 -0.8621
  866TIP3    H224234   4.859   4.607   1.211  1.7682  0.2708  0.2296
  867TIP3   OH224235   6.546   1.926   8.382 -0.0851  0.7234 -0.1035
  867TIP3    H124236   6.500   1.932   8.466  0.7790  1.1379  0.3585
  867TIP3    H224237   6.626   1.977   8.395  1.0345 -0.8478 -0.5123
  868TIP3   OH224238   6.077   1.727   2.462 -0.0104 -0.0220 -0.5031
  868TIP3    H124239   5.994   1.752   2.420 -0.7839 -0.5856  0.6351
  868TIP3    H224240   6.082   1.781   2.540  1.3443  0.9010 -1.1970
  869TIP3   OH224241   6.232   5.723   1.991 -0.5381 -0.5809 -0.6499
  869TIP3    H124242   6.314   5.736   1.944  0.3766 -1.3709  0.6668
  869TIP3    H224243   6.239   5.779   2.068 -1.2602 -0.6201 -0.5472
  870TIP3   OH224244   6.204   1.204   2.086  0.2303  0.1707 -0.1315
  870TIP3    H124245   6.160   1.162   2.160  1.4843 -0.1407  0.4613
  870TIP3    H224246   6.216   1.295   2.114 -1.7286  0.7684 -1.0768
  871TIP3   OH224247   0.433   3.901   2.414  0.4210 -0.4293  0.8570
  871TIP3    H124248   0.471   3.934   2.496  0.9685 -1.4714  1.0365
  871TIP3    H224249   0.401   3.814   2.436 -1.6630  0.2104  0.5742
  872TIP3   OH224250   4.983   1.047   7.520 -0.5015  0.1077  0.0366
  872TIP3    H124251   4.936   1.021   7.600 -0.9180  0.0908 -0.2102
  872TIP3    H224252   4.951   0.986   7.454  2.3757 -2.1827  0.5810
  873TIP3   OH224253   3.179   5.291   7.306 -0.0900 -0.2493  0.0128
  873TIP3    H124254   3.123   5.276   7.230 -1.1138 -0.3898  0.7760
  873TIP3    H224255   3.139   5.364   7.352  1.2314  0.6588 -0.2226
  874TIP3   OH224256   5.588   4.033   0.912  0.0736 -0.0817 -0.3606
  874TIP3    H124257   5.676   4.005   0.885  0.2964 -0.9211  1.0801
  874TIP3    H224258   5.563   3.969   0.979 -1.6914  0.0949 -0.8199
  875TIP3   OH224259   2.714   5.294   1.457 -0.1672 -0.0097 -0.3535
  875TIP3    H124260   2.667   5.226   1.505  0.0303 -0.5536 -0.9172
  875TIP3    H224261   2.733   5.361   1.523  0.3703 -0.8725  0.3883
  876TIP3   OH224262   5.665   5.338   0.665 -0.5783  0.2636 -0.8574
  876TIP3    H124263   5.600   5.398   0.702 -0.2964  0.4719 -0.6979
  876TIP3    H224264   5.745   5.390   0.659 -0.1996 -0.2390 -0.2421
  877TIP3   OH224265   5.084   4.898   3.091 -0.2705  0.0442 -0.5390
  877TIP3    H124266   5.137   4.951   3.152 -0.1194 -0.5406 -0.1567
  877TIP3    H224267   5.143   4.879   3.018  0.2135 -1.0056  0.1056
  878TIP3   OH224268   6.046   3.909   7.329  0.2745 -0.6256  0.2245
  878TIP3    H124269   6.032   3.924   7.235  0.5057 -1.1697  0.0924
  878TIP3    H224270   6.007   3.823   7.345 -2.8421  0.8869  1.3851
  879TIP3   OH224271   3.636   3.674   7.370  0.2782 -0.2265 -0.5686
  879TIP3    H124272   3.722   3.714   7.356 -0.3505  0.5985 -2.3316
  879TIP3    H224273   3.592   3.734   7.430  1.2692 -1.2185  1.2329
  880TIP3   OH224274   4.162   2.714   0.376  0.0893  0.6033  0.0616
  880TIP3    H124275   4.225   2.644   0.364 -0.4546  0.1812 -0.3723
  880TIP3    H224276   4.177   2.745   0.465  1.2495  0.8565 -0.2124
  881TIP3   OH224277   1.343   3.317   2.136 -0.0962  0.1911 -0.0290
  881TIP3    H124278   1.314   3.371   2.062 -1.6791  1.7142  1.6055
  881TIP3    H224279   1.263   3.285   2.176  0.7300 -0.6407  1.0280
  882TIP3   OH224280   2.067   2.960   7.042  0.0733 -0.2799  0.2311
  882TIP3    H124281   1.997   3.022   7.060 -0.7452 -0.9445 -0.5911
  882TIP3    H224282   2.144   2.996   7.087 -0.6300  0.7927  0.5901
  883TIP3   OH224283   5.109   3.324   8.413 -0.2626 -0.5738  1.3102
  883TIP3    H124284   5.021   3.286   8.419  0.1091 -1.3562  1.9035
  883TIP3    H224285   5.096   3.405   8.362 -1.5018 -0.1108  2.3128
  884TIP3   OH224286   3.175   0.250   0.446  0.1091 -0.2577 -0.1486
  884TIP3    H124287   3.229   0.297   0.383  0.3976 -1.3514 -0.7453
  884TIP3    H224288   3.193   0.293   0.530 -0.8019  1.6543 -0.8691
  885TIP3   OH224289   3.670   6.332   0.845  0.3964  0.2515 -0.0944
  885TIP3    H124290   3.657   6.253   0.794 -0.4899 -0.0979  0.6290
  885TIP3    H224291   3.658   6.404   0.783 -2.7090 -0.1052 -0.0632
  886TIP3   OH224292   5.857   3.663   1.522 -0.0059 -0.2076 -0.1413
  886TIP3    H124293   5.781   3.722   1.520  0.5989  0.5843 -0.6121
  886TIP3    H224294   5.825   3.584   1.565 -1.1462  0.0410 -0.4893
  887TIP3   OH224295   5.267   4.567   2.727 -0.1335 -0.3002 -0.1281
  887TIP3    H124296   5.257   4.505   2.654 -1.4220  0.2568 -0.4419
  887TIP3    H224297   5.314   4.517   2.794  0.5826 -0.9988 -1.1078
  888TIP3   OH224298   6.282   2.558   7.772  0.0332  0.6378  0.2637
  888TIP3    H124299   6.313   2.479   7.726 -1.0534 -0.9052  2.0357
  888TIP3    H224300   6.361   2.609   7.788  0.7699 -0.0590 -0.9287
  889TIP3   OH224301   0.510   6.347   3.273 -0.5352 -0.4151  0.4733
  889TIP3    H124302   0.566   6.359   3.196  0.8532 -0.0635  1.4924
  889TIP3    H224303   0.490   6.435   3.302 -1.2302 -0.5473  0.4153
  890TIP3   OH224304   5.519   4.816   2.051  0.3645 -0.7318 -0.3347
  890TIP3    H124305   5.542   4.775   2.135  2.5702  1.6130  0.3291
  890TIP3    H224306   5.565   4.764   1.985  0.4192 -1.2627  0.1128
  891TIP3   OH224307   4.168   0.622   8.571  0.3162  0.8955 -0.4888
  891TIP3    H124308   4.106   0.634   8.642  0.9374 -0.5806  0.3377
  891TIP3    H224309   4.251   0.658   8.604  0.9566 -1.0017  0.1382
  892TIP3   OH224310   0.876   0.581   1.945  0.4723 -0.1147 -0.3189
  892TIP3    H124311   0.913   0.650   2.001  0.7631 -1.9991  1.9401
  892TIP3    H224312   0.785   0.609   1.930  0.8812  1.2776 -0.4106
  893TIP3   OH224313   6.083   1.386   0.372  0.3677 -0.2946 -0.6475
  893TIP3    H124314   6.026   1.449   0.328  0.7636  0.2030 -0.4528
  893TIP3    H224315   6.025   1.312   0.391 -0.6338  0.8292  0.9441
  894TIP3   OH224316   5.983   5.495   1.234  0.4291  0.2221 -0.0004
  894TIP3    H124317   5.948   5.438   1.302  0.2714 -0.6888 -0.8167
  894TIP3    H224318   5.957   5.583   1.260  1.9003  0.1431  2.0643
  895TIP3   OH224319   5.400   6.261   1.963 -0.1423  0.0967 -0.5966
  895TIP3    H124320   5.476   6.205   1.948 -0.0660  0.3987 -1.4481
  895TIP3    H224321   5.327   6.201   1.977  0.3482 -0.1991  0.8271
  896TIP3   OH224322   5.884   6.682   7.826  0.1509 -0.0343  0.2495
  896TIP3    H124323   5.856   6.594   7.850  0.8942 -1.0530 -2.3854
  896TIP3    H224324   5.888   6.729   7.910 -1.1663 -2.1931  1.6186
  897TIP3   OH224325   4.772   5.853   0.405  0.3685  0.4864 -0.2859
  897TIP3    H124326   4.820   5.796   0.345 -0.9768  0.2527 -1.1916
  897TIP3    H224327   4.686   5.862   0.365 -0.6901  0.0890  1.7523
  898TIP3   OH224328   6.769   1.593   1.759 -0.1351  0.1548 -0.4060
  898TIP3    H124329   6.772   1.649   1.682 -2.4681  0.4610 -0.3410
  898TIP3    H224330   6.849   1.614   1.808 -0.0231  2.0110 -1.3274
  899TIP3   OH224331   0.109   5.247   0.067  0.1666  0.0998 -0.2230
  899TIP3    H124332   0.078   5.185   0.001 -1.1175 -0.6037  0.9849
  899TIP3    H224333   0.030   5.295   0.093  0.3366 -0.6927  1.8763
  900TIP3   OH224334   3.149   5.867   7.591  0.3494 -0.4567  0.1754
  900TIP3    H124335   3.200   5.944   7.566 -1.4232  0.4430 -0.8824
  900TIP3    H224336   3.145   5.815   7.510  0.7683 -1.2258  0.6391
  901TIP3   OH224337   4.968   5.551   8.701 -0.4133 -0.1600  0.1850
  901TIP3    H124338   4.976   5.510   8.615  1.8765 -0.7759  0.6135
  901TIP3    H224339   5.024   5.628   8.696 -0.8406  0.2039  0.8956
  902TIP3   OH224340   4.507   5.311   6.778 -0.1200  0.0707  0.6543
  902TIP3    H124341   4.428   5.356   6.748 -1.3130 -1.2421  1.6890
  902TIP3    H224342   4.523   5.243   6.712 -0.2084 -0.0390  0.7448
  903TIP3   OH224343   1.755   5.279   0.332 -0.3800  0.1232 -0.1956
  903TIP3    H124344   1.674   5.247   0.293 -0.0028 -1.0713 -0.0314
  903TIP3    H224345   1.818   5.209   0.317  0.3646  0.6173  0.5603
  904TIP3   OH224346   4.536   1.897   8.320 -0.4777 -0.5764  0.0326
  904TIP3    H124347   4.630   1.914   8.308 -0.8106  0.6897 -0.9819
  904TIP3    H224348   4.510   1.851   8.240 -1.3465  1.9984 -1.2934
  905TIP3   OH224349   0.471   4.761   8.746  0.0797 -0.1553 -0.6796
  905TIP3    H124350   0.502   4.676   8.715  1.4466 -0.4391  1.3086
  905TIP3    H224351   0.520   4.777   8.827  0.7923  3.1208 -1.6085
  906TIP3   OH224352   4.343   1.490   1.034  0.1603 -0.0594  0.4067
  906TIP3    H124353   4.373   1.410   1.077 -0.5624 -0.2422  0.5904
  906TIP3    H224354   4.414   1.513   0.974  0.3172 -0.9123  0.2497
  907TIP3   OH224355   1.591   5.061   2.715 -0.1402 -0.0387  0.3403
  907TIP3    H124356   1.605   5.120   2.641  1.5376  0.4549  0.9969
  907TIP3    H224357   1.668   5.004   2.714 -1.6303 -2.1392 -0.1606
  908TIP3   OH224358   2.556   4.237   0.624 -0.1162 -0.2799  0.0491
  908TIP3    H124359   2.637   4.187   0.627 -0.1878 -0.5640 -1.6821
  908TIP3    H224360   2.579   4.317   0.577 -0.5036  0.3186  0.8689
  909TIP3   OH224361   2.726   6.566   7.842  0.1415 -0.2502  0.4021
  909TIP3    H124362   2.783   6.490   7.852 -1.0014 -1.0724  0.8269
  909TIP3    H224363   2.638   6.532   7.857 -0.5930  0.7504 -1.3173
  910TIP3   OH224364   4.043   4.827   0.078 -0.3899  0.1029  0.1321
  910TIP3    H124365   4.120   4.771   0.073 -1.2239 -1.6383  3.8655
  910TIP3    H224366   4.078   4.915   0.094  0.8024  0.0237 -1.6940
  911TIP3   OH224367   5.598   2.026   6.897  0.0127 -0.3683  0.0782
  911TIP3    H124368   5.516   2.073   6.915  1.0232  1.5291 -0.0929
  911TIP3    H224369   5.572   1.934   6.898 -1.9901  0.1379  0.7384
  912TIP3   OH224370   2.433   3.697   1.542  0.5276  0.1668  0.3264
  912TIP3    H124371   2.490   3.765   1.506 -0.3570  0.7435 -0.0378
  912TIP3    H224372   2.439   3.625   1.479  0.8264  0.2271  0.2823
  913TIP3   OH224373   5.085   6.180   8.005 -0.0226 -0.2458 -0.2152
  913TIP3    H124374   5.013   6.225   8.050 -0.2433 -1.0066  0.2196
  913TIP3    H224375   5.161   6.193   8.061 -0.2141 -0.8747  0.2101
  914TIP3   OH224376   2.229   1.438   7.340  0.4887  0.4469  0.0542
  914TIP3    H124377   2.211   1.358   7.291  0.7066  0.7399 -0.5120
  914TIP3    H224378   2.176   1.430   7.419  1.2367 -0.6843  0.4533
  915TIP3   OH224379   5.148   0.066   0.776 -0.3977 -0.1741  0.0803
  915TIP3    H124380   5.098   0.143   0.802  2.2852  1.4476  0.7394
  915TIP3    H224381   5.153   0.072   0.680  0.1617  0.7335  0.1557
  916TIP3   OH224382   2.715   0.232   7.475 -0.5596 -0.3938  0.2782
  916TIP3    H124383   2.688   0.263   7.389 -0.1784  0.2694  0.3956
  916TIP3    H224384   2.765   0.152   7.458 -0.6207 -0.3506 -0.0958
  917TIP3   OH224385   0.632   6.438   0.228 -0.6257 -0.1722 -0.2351
  917TIP3    H124386   0.589   6.375   0.171 -2.4242  1.6694 -1.0225
  917TIP3    H224387   0.725   6.417   0.221 -0.9082 -0.7885 -2.8819
  918TIP3   OH224388   0.587   1.939   7.781 -0.0740  0.3251 -0.0767
  918TIP3    H124389   0.625   1.876   7.719  0.2809  1.0838 -0.6482
  918TIP3    H224390   0.493   1.926   7.774 -0.0477  0.5757 -0.9772
  919TIP3   OH224391   6.143   1.829   6.752  0.2338  0.0366  0.3986
  919TIP3    H124392   6.216   1.872   6.797  1.8204 -1.2958 -0.8027
  919TIP3    H224393   6.176   1.742   6.729 -1.8878 -0.7742  0.1741
  920TIP3   OH224394   2.165   1.562   7.740  0.1346 -0.4026  0.2533
  920TIP3    H124395   2.095   1.567   7.805  0.0120  0.0745  0.0905
  920TIP3    H224396   2.237   1.518   7.785 -0.4342 -1.3129  0.2762
  921TIP3   OH224397   6.067   3.081   2.417  0.8599 -0.5965 -0.4819
  921TIP3    H124398   5.985   3.131   2.420  0.7054 -0.8538 -0.4299
  921TIP3    H224399   6.107   3.095   2.503  0.1255 -1.7267  0.0533
  922TIP3   OH224400   2.258   3.041   2.616 -0.3134  0.4746  0.2943
  922TIP3    H124401   2.176   3.080   2.643 -0.1402  0.6539  0.5659
  922TIP3    H224402   2.325   3.091   2.662 -0.1347 -0.6971  1.3596
  923TIP3   OH224403   5.018   3.440   1.548 -0.7468 -0.1177  0.8604
  923TIP3    H124404   4.943   3.494   1.525 -0.2629  0.5289  0.7660
  923TIP3    H224405   4.999   3.355   1.510  0.3831  1.0809 -2.7832
  924TIP3   OH224406   1.737   1.157   0.892  0.1749  0.4697 -0.3374
  924TIP3    H124407   1.783   1.144   0.974  1.0681  1.2159 -0.7111
  924TIP3    H224408   1.727   1.069   0.856 -1.2034 -0.0011  1.0568
  925TIP3   OH224409   6.406   2.453   1.142 -0.5888  0.2319 -0.4648
  925TIP3    H124410   6.319   2.482   1.168 -1.1208 -2.3456  0.9781
  925TIP3    H224411   6.466   2.505   1.196 -1.4560 -0.7172  1.5185
  926TIP3   OH224412   0.352   0.773   2.802 -0.5194 -0.2942  0.2173
  926TIP3    H124413   0.427   0.771   2.742 -1.9430  0.7261 -1.6607
  926TIP3    H224414   0.287   0.715   2.762 -1.0829 -0.5207  1.4047
  927TIP3   OH224415   0.785   2.353   2.870  0.0704 -0.1153  0.5506
  927TIP3    H124416   0.744   2.407   2.802  0.0332  0.4532  1.0179
  927TIP3    H224417   0.765   2.399   2.951 -2.9015 -2.5481  1.3772
  928TIP3   OH224418   0.995   5.210   2.269 -0.5135 -0.5377  0.2394
  928TIP3    H124419   0.948   5.146   2.322  0.6368 -1.1449  0.5637
  928TIP3    H224420   0.962   5.197   2.181 -1.4068 -0.5142  0.5661
  929TIP3   OH224421   3.999   6.325   7.962  0.3914  0.4916 -0.2910
  929TIP3    H124422   3.941   6.395   7.931 -2.4309 -0.8803  1.4717
  929TIP3    H224423   4.003   6.263   7.889 -1.3802  0.0546 -0.0520
  930TIP3   OH224424   1.324   5.958   2.195 -0.5360 -0.4161  0.2182
  930TIP3    H124425   1.331   5.892   2.263  1.3701  0.7822  1.2677
  930TIP3    H224426   1.235   5.994   2.205 -1.2631 -2.1290  0.2084
  931TIP3   OH224427   6.421   4.966   1.432 -0.3952 -0.1422  0.3576
  931TIP3    H124428   6.387   5.018   1.505 -2.2084  0.7241 -1.0229
  931TIP3    H224429   6.504   5.008   1.410 -1.1033  1.2577  0.2463
  932TIP3   OH224430   4.520   2.021   2.599 -0.0898 -0.4650 -0.3970
  932TIP3    H124431   4.425   2.024   2.597 -0.1431  0.9830  1.3663
  932TIP3    H224432   4.541   1.963   2.673  0.3732 -0.3427 -0.4286
  933TIP3   OH224433   4.494   4.366   0.532 -0.0287 -0.0989 -0.2277
  933TIP3    H124434   4.588   4.364   0.545  0.1829  3.3539 -0.5282
  933TIP3    H224435   4.482   4.407   0.447 -1.7282  3.1724  1.3887
  934TIP3   OH224436   1.227   5.068   2.424  0.3663 -0.4676 -0.8409
  934TIP3    H124437   1.146   5.083   2.473 -0.2422 -1.2637 -1.5869
  934TIP3    H224438   1.265   5.156   2.413 -0.8241  0.0184 -1.2224
  935TIP3   OH224439   1.133   5.528   0.282 -0.4141  0.0755 -0.7438
  935TIP3    H124440   1.089   5.592   0.338  1.1216  0.2714  0.2789
  935TIP3    H224441   1.208   5.575   0.246 -0.6161 -0.4621 -1.9085
  936TIP3   OH224442   0.328   0.720   8.313 -0.0285  0.0038 -0.3519
  936TIP3    H124443   0.344   0.744   8.221  0.1614  0.5254 -0.1837
  936TIP3    H224444   0.358   0.630   8.319  3.8252  1.1593  0.1643
  937TIP3   OH224445   4.604   6.272   8.845  0.5830 -0.0396 -0.3125
  937TIP3    H124446   4.641   6.192   8.808 -1.2680 -0.9768 -0.2442
  937TIP3    H224447   4.656   6.289   8.924  0.5633 -1.6009  0.0581
  938TIP3   OH224448   5.660   4.474   1.524  0.4613  0.4126 -0.2474
  938TIP3    H124449   5.747   4.497   1.556  0.7146 -1.4004  0.4793
  938TIP3    H224450   5.600   4.517   1.584  0.8637  0.9728 -0.2432
  939TIP3   OH224451   0.087   1.002   1.557 -0.2526  0.5737  0.5612
  939TIP3    H124452   0.007   0.984   1.606 -0.2901 -0.7879  0.0388
  939TIP3    H224453   0.154   0.948   1.598  0.4639  1.8141  1.0850
  940TIP3   OH224454   1.478   1.903   7.742 -0.1410 -0.5557  0.0382
  940TIP3    H124455   1.420   1.953   7.685  0.6806 -0.8885 -1.1349
  940TIP3    H224456   1.554   1.882   7.687  3.1158  3.2518  2.4642
  941TIP3   OH224457   2.595   4.282   8.031 -0.0337 -0.2609  0.2174
  941TIP3    H124458   2.555   4.293   7.944  2.0972  1.8258 -0.6089
  941TIP3    H224459   2.527   4.309   8.092 -0.8860  0.2928 -0.9330
  942TIP3   OH224460   5.482   3.777   8.715  0.1894  0.3384  0.3641
  942TIP3    H124461   5.539   3.708   8.749  1.0946  1.2470  0.7309
  942TIP3    H224462   5.449   3.822   8.793 -0.8713 -0.0306  0.1476
  943TIP3   OH224463   2.886   5.448   0.687  1.0237  0.5066  0.0423
  943TIP3    H124464   2.977   5.420   0.681  0.9961  0.6311 -1.3003
  943TIP3    H224465   2.840   5.394   0.622 -0.3812 -1.4501  2.4840
  944TIP3   OH224466   2.116   2.420   2.951 -0.2348 -0.1606  0.1398
  944TIP3    H124467   2.126   2.353   3.019  1.1228  1.6728  1.8609
  944TIP3    H224468   2.201   2.464   2.948 -1.0443  1.4281 -1.0189
  945TIP3   OH224469   4.785   0.565   1.632 -0.1491  0.6103  0.2394
  945TIP3    H124470   4.821   0.505   1.698 -1.0497 -0.2804 -0.0542
  945TIP3    H224471   4.690   0.553   1.638 -0.3062  1.4213 -0.3942
  946TIP3   OH224472   1.848   0.054   1.672  0.2985  0.1180 -0.3685
  946TIP3    H124473   1.831   0.119   1.604  0.8864  0.5790 -0.0799
  946TIP3    H224474   1.760   0.027   1.702  0.0056 -0.6670 -1.8264
  947TIP3   OH224475   5.532   5.822   7.731  0.6734  0.6760  0.0811
  947TIP3    H124476   5.530   5.890   7.663  0.5817 -0.3250 -0.9429
  947TIP3    H224477   5.499   5.866   7.809  0.2077  1.7009 -0.6649
  948TIP3   OH224478   5.234   2.203   0.506  0.7157 -0.6813  0.0458
  948TIP3    H124479   5.163   2.238   0.450  1.4950 -0.2469 -0.6998
  948TIP3    H224480   5.188   2.154   0.574 -0.4204  1.3386  0.8310
  949TIP3   OH224481   4.436   4.974   8.861  0.1549  0.6473 -0.3195
  949TIP3    H124482   4.469   4.917   8.792 -1.0057  0.2540 -0.5729
  949TIP3    H224483   4.496   4.960   8.935  1.0024  0.5642 -1.0112
  950TIP3   OH224484   4.769   4.529   0.908  0.1774  0.2591 -0.2563
  950TIP3    H124485   4.803   4.576   0.984 -1.4834 -0.8831  1.2722
  950TIP3    H224486   4.710   4.592   0.866 -0.1975  0.3497  0.3909
  951TIP3   OH224487   5.197   3.833   7.009  0.1845 -0.2449  0.8534
  951TIP3    H124488   5.201   3.910   6.953 -0.5695 -0.8712 -0.0804
  951TIP3    H224489   5.174   3.761   6.951  1.4255 -1.3040  1.6070
  952TIP3   OH224490   1.796   0.924   1.748  0.5247  0.2397 -0.1429
  952TIP3    H124491   1.740   0.888   1.817  1.3710 -0.1750  0.3436
  952TIP3    H224492   1.820   1.011   1.781  1.5764 -0.2671  0.4831
  953TIP3   OH224493   1.196   3.415   0.872 -0.1970  0.1196  0.1299
  953TIP3    H124494   1.200   3.377   0.784 -0.3649  1.0514 -0.2881
  953TIP3    H224495   1.266   3.370   0.920 -0.0850 -0.3797 -0.4790
  954TIP3   OH224496   2.317   5.877   8.511 -0.2443 -0.1374  0.1549
  954TIP3    H124497   2.393   5.841   8.557 -1.2864 -0.6533  1.5242
  954TIP3    H224498   2.309   5.824   8.432  1.2924  0.4593 -0.4515
  955TIP3   OH224499   2.749   5.683   8.887 -0.9329 -0.2031 -0.1864
  955TIP3    H124500   2.681   5.621   8.862 -0.4663 -1.2931  1.1173
  955TIP3    H224501   2.703   5.750   8.937 -1.2488 -0.2169 -0.4579
  956TIP3   OH224502   3.328   1.437   2.911 -0.1714 -0.4320  0.1527
  956TIP3    H124503   3.307   1.458   2.820  1.2591 -0.5237 -0.2167
  956TIP3    H224504   3.407   1.383   2.906  0.5303  0.4218  1.5105
  957TIP3   OH224505   2.251   5.116   1.940 -0.1849  0.3959  0.4490
  957TIP3    H124506   2.170   5.166   1.954 -0.1134  1.4387 -2.3124
  957TIP3    H224507   2.232   5.030   1.978 -2.0847  1.0249  1.0609
  958TIP3   OH224508   6.580   3.317   7.585 -0.0397 -0.0946  0.2434
  958TIP3    H124509   6.571   3.390   7.523 -0.8171  1.3901  1.9940
  958TIP3    H224510   6.524   3.248   7.549 -0.6109  0.7806 -0.6201
  959TIP3   OH224511   6.299   5.306   7.218 -0.1402 -0.6685  0.3129
  959TIP3    H124512   6.277   5.382   7.272 -1.7813 -0.6404 -0.3217
  959TIP3    H224513   6.237   5.310   7.145 -0.5556 -2.8272  0.4605
  960TIP3   OH224514   0.425   1.595   0.184 -0.6947 -0.3532  0.4468
  960TIP3    H124515   0.402   1.669   0.128 -2.2143  0.6187  2.2253
  960TIP3    H224516   0.418   1.519   0.128 -0.1492  0.7337 -1.1724
  961TIP3   OH224517   1.297   5.110   7.162  0.3482  0.3765  0.5500
  961TIP3    H124518   1.231   5.041   7.160  1.5102 -0.7468 -0.4454
  961TIP3    H224519   1.247   5.191   7.154 -0.9738 -0.3742  0.8566
  962TIP3   OH224520   1.204   3.242   8.101 -0.1043 -0.3080  0.3784
  962TIP3    H124521   1.177   3.191   8.024  1.2937 -0.6035  0.0601
  962TIP3    H224522   1.146   3.318   8.101 -1.1752 -1.0961 -0.0462
  963TIP3   OH224523   0.378   4.705   0.782  0.8206 -0.3658  0.7752
  963TIP3    H124524   0.330   4.760   0.844  2.3442  1.3454  0.5365
  963TIP3    H224525   0.388   4.621   0.827 -0.5161 -0.0816  1.6662
  964TIP3   OH224526   5.761   4.893   8.803  0.1874  0.1409 -0.0654
  964TIP3    H124527   5.774   4.979   8.843 -2.7111  0.3247  0.6788
  964TIP3    H224528   5.721   4.839   8.871 -0.7774 -0.8846 -1.3752
  965TIP3   OH224529   2.626   5.019   1.525 -0.4736  0.6100  0.0138
  965TIP3    H124530   2.699   5.007   1.464 -1.3045 -1.5983 -0.6656
  965TIP3    H224531   2.643   4.957   1.596 -2.2860 -0.9835 -0.8437
  966TIP3   OH224532   5.350   4.978   0.758 -0.2270 -0.2881 -0.1396
  966TIP3    H124533   5.356   4.907   0.823  0.4954 -1.1384 -1.1134
  966TIP3    H224534   5.437   4.982   0.718 -0.0491  1.5984  0.3255
  967TIP3   OH224535   0.073   4.889   1.854 -0.3110  0.1543 -0.0828
  967TIP3    H124536  -0.007   4.841   1.876 -0.1188 -0.3171 -0.3921
  967TIP3    H224537   0.087   4.948   1.928 -1.1908  0.5647 -0.2311
  968TIP3   OH224538   0.308   5.822   8.820  0.0329  0.1141 -0.1907
  968TIP3    H124539   0.333   5.751   8.879  0.0125 -0.4714 -0.8725
  968TIP3    H224540   0.212   5.825   8.825  0.1071  1.0747  0.9491
  969TIP3   OH224541   1.951   5.145   1.246  0.2210 -0.4416  0.2212
  969TIP3    H124542   1.864   5.146   1.286 -0.4086  1.0856 -1.0909
  969TIP3    H224543   1.944   5.203   1.171  1.8285 -1.9042 -1.1461
  970TIP3   OH224544   1.265   5.636   8.360 -0.0547 -0.6997 -0.2814
  970TIP3    H124545   1.221   5.624   8.445 -0.0874 -1.0651 -0.3488
  970TIP3    H224546   1.195   5.662   8.300  0.0185 -0.1421 -0.1331
  971TIP3   OH224547   2.566   5.377   1.743 -0.4118  0.2952 -0.0663
  971TIP3    H124548   2.577   5.292   1.785  0.5369  0.6665  0.4668
  971TIP3    H224549   2.654   5.403   1.716 -0.4969  1.6149  0.8212
  972TIP3   OH224550   5.604   0.426   1.697  0.1005  0.2678  0.1074
  972TIP3    H124551   5.550   0.494   1.659  0.0586 -0.4691 -1.2261
  972TIP3    H224552   5.552   0.391   1.769 -0.2600  1.0145  0.2188
  973TIP3   OH224553   5.864   4.538   7.493 -0.1937 -0.7380 -0.2398
  973TIP3    H124554   5.900   4.549   7.404  0.3299 -2.4247 -0.2636
  973TIP3    H224555   5.769   4.546   7.481 -0.2577 -2.5414 -1.2555
  974TIP3   OH224556   3.155   5.576   7.091  0.6544  0.2919 -0.3508
  974TIP3    H124557   3.086   5.513   7.110  0.5354  1.0681  2.2108
  974TIP3    H224558   3.151   5.589   6.996  0.4053 -3.1310 -0.9409
  975TIP3   OH224559   5.678   3.925   8.565 -0.0288 -0.4410 -0.1285
  975TIP3    H124560   5.738   3.906   8.637 -0.4368 -0.1663  0.2887
  975TIP3    H224561   5.606   3.863   8.576 -0.6207  0.3070  0.3468
  976TIP3   OH224562   2.073   5.033   0.450 -0.2594 -0.5837  0.2787
  976TIP3    H124563   2.133   5.024   0.524 -0.1818  0.4190  0.3567
  976TIP3    H224564   1.990   5.000   0.483 -0.0961 -0.6293  0.6538
  977TIP3   OH224565   2.122   6.577   7.817  0.4893 -0.0031  0.2100
  977TIP3    H124566   2.191   6.514   7.799  0.4956  0.3419 -1.0999
  977TIP3    H224567   2.044   6.541   7.774 -0.3710 -0.7438  2.2639
  978TIP3   OH224568   4.224   3.275   1.677  0.5019 -0.1311 -0.1119
  978TIP3    H124569   4.294   3.264   1.612  1.0309 -1.8356  0.6754
  978TIP3    H224570   4.146   3.295   1.625  1.3918  0.9512 -1.0736
  979TIP3   OH224571   1.300   1.123   1.475 -0.4090  0.1656 -0.4988
  979TIP3    H124572   1.309   1.208   1.518 -0.2308  1.0303 -2.1889
  979TIP3    H224573   1.219   1.130   1.425 -1.4648 -1.3935  0.8565
  980TIP3   OH224574   0.641   0.001   8.057  0.1939 -0.2613  0.6491
  980TIP3    H124575   0.583  -0.054   8.003  0.2556  0.6362 -0.3773
  980TIP3    H224576   0.727  -0.040   8.050  0.2499 -0.0419 -0.1601
  981TIP3   OH224577   4.172   2.535   2.302  0.3198 -0.1082 -0.4658
  981TIP3    H124578   4.099   2.597   2.303  0.6523  0.3173 -1.4348
  981TIP3    H224579   4.132   2.450   2.282  0.2155  0.3293 -2.2251
  982TIP3   OH224580   4.778   3.851   2.303 -0.5947 -0.0606 -0.4036
  982TIP3    H124581   4.687   3.849   2.333 -0.6322  0.2830 -0.4996
  982TIP3    H224582   4.825   3.798   2.368 -0.5338  1.3508  0.7694
  983TIP3   OH224583   4.912   1.826   8.662  0.6930 -0.5691  0.4937
  983TIP3    H124584   4.999   1.866   8.670  0.7662 -0.4005 -0.8931
  983TIP3    H224585   4.896   1.823   8.568 -1.6157  1.1106  0.7796
  984TIP3   OH224586   1.065   6.186   0.497 -0.2017  0.6312 -0.6499
  984TIP3    H124587   1.135   6.188   0.563  1.6738  1.6491 -2.5646
  984TIP3    H224588   1.043   6.093   0.489 -0.0479  0.4175  0.9221
  985TIP3   OH224589   1.163   5.300   1.449  0.1155  0.4920  0.2298
  985TIP3    H124590   1.210   5.345   1.519 -0.2418  2.2466 -0.5889
  985TIP3    H224591   1.079   5.275   1.488  0.4537  0.2573  0.8011
  986TIP3   OH224592   4.880   6.670   0.829 -0.4249 -0.6218  0.5977
  986TIP3    H124593   4.802   6.676   0.884 -0.4481  0.5072  0.4788
  986TIP3    H224594   4.895   6.760   0.798 -0.5128 -1.2279 -1.3863
  987TIP3   OH224595   4.150   3.936   7.603  0.3290  0.7289  0.5029
  987TIP3    H124596   4.080   3.972   7.550  0.2930  0.5573  0.4338
  987TIP3    H224597   4.167   3.849   7.566  2.5555  1.8413 -1.3614
  988TIP3   OH224598   3.517   5.183   1.490 -0.3480  0.0068  0.0438
  988TIP3    H124599   3.555   5.181   1.577 -1.5407 -0.6935  0.5743
  988TIP3    H224600   3.526   5.274   1.461 -0.1494  0.2937  0.9890
  989TIP3   OH224601   2.218   0.512   1.234 -0.1619  0.0133  0.5462
  989TIP3    H124602   2.272   0.482   1.160  1.1617 -0.0347  1.4946
  989TIP3    H224603   2.128   0.504   1.203  0.3067 -1.4911 -0.5089
  990TIP3   OH224604   6.638   4.050   0.688  0.1055  0.1633 -0.3349
  990TIP3    H124605   6.630   4.108   0.763 -0.6389 -0.5138  0.1183
  990TIP3    H224606   6.548   4.024   0.667  0.3110  0.2894 -1.4125
  991TIP3   OH224607   4.939   1.998   1.469  0.1329  0.0947 -0.2978
  991TIP3    H124608   4.918   2.065   1.404  2.2208  1.3089  0.1963
  991TIP3    H224609   5.025   1.966   1.444 -0.1306 -1.2411  0.4344
  992TIP3   OH224610   5.920   6.750   0.693 -0.5058 -0.4672 -0.1683
  992TIP3    H124611   5.892   6.672   0.741 -1.4993  0.0695  0.1402
  992TIP3    H224612   5.960   6.715   0.613  0.4159 -1.3374  0.6403
  993TIP3   OH224613   4.333   0.344   8.546 -0.0153  0.1705 -0.0563
  993TIP3    H124614   4.326   0.326   8.452 -0.0698  1.1307 -0.2411
  993TIP3    H224615   4.371   0.264   8.583 -0.6215 -0.4741 -0.7957
  994TIP3   OH224616   1.625   0.875   8.592 -0.2486 -0.0575  0.5333
  994TIP3    H124617   1.714   0.871   8.556 -0.0490  1.4718  0.7907
  994TIP3    H224618   1.636   0.852   8.684 -0.3475 -1.2428  0.2656
  995TIP3   OH224619   3.270   2.862   1.801 -0.0035  0.0452 -0.0834
  995TIP3    H124620   3.208   2.904   1.741  0.0836 -0.3514 -0.4576
  995TIP3    H224621   3.319   2.935   1.839  1.1263  0.2490 -1.7944
  996TIP3   OH224622   2.045   6.484   1.211  0.1072 -0.1797 -0.6604
  996TIP3    H124623   2.028   6.574   1.239  0.4845 -0.1402 -0.5545
  996TIP3    H224624   1.974   6.465   1.149 -1.3502 -0.6293  1.0673
  997TIP3   OH224625   3.393   1.946   6.642 -0.4943 -0.2080  0.0233
  997TIP3    H124626   3.462   1.981   6.698 -0.7152 -0.4448  0.4446
  997TIP3    H224627   3.440   1.917   6.563  0.0014 -1.0940  0.6270
  998TIP3   OH224628   5.514   6.647   1.263  0.4398 -0.1148 -0.4308
  998TIP3    H124629   5.494   6.737   1.241  0.7526  0.7851  2.4606
  998TIP3    H224630   5.429   6.602   1.264 -0.0725  0.8338  0.6639
  999TIP3   OH224631   1.581   6.099   8.045 -0.2501  0.3772 -0.1551
  999TIP3    H124632   1.654   6.037   8.045 -0.6854 -0.1948 -1.9693
  999TIP3    H224633   1.566   6.119   8.137 -0.4827 -2.6975  0.5688
 1000TIP3   OH224634   5.958   0.699   0.131 -0.4090  0.6576  0.2047
 1000TIP3    H124635   5.986   0.791   0.130  1.8357  0.0337 -1.0046
 1000TIP3    H224636   5.878   0.697   0.078  0.4232  1.6938 -1.1514
 1001TIP3   OH224637   6.667   3.528   7.265 -0.4999  0.0760  0.2344
 1001TIP3    H124638   6.724   3.597   7.229  0.1288 -0.9322 -0.8134
 1001TIP3    H224639   6.621   3.569   7.338  0.3239  1.4147  0.0303
 1002TIP3   OH224640   2.688   3.780   0.640  0.5709  0.4075 -0.2757
 1002TIP3    H124641   2.697   3.758   0.733  2.0424 -2.4831 -1.0005
 1002TIP3    H224642   2.595   3.803   0.631  0.6031  1.7955  2.0556
 1003TIP3   OH224643   6.078   0.792   8.707  0.1943  0.0138 -0.7949
 1003TIP3    H124644   6.152   0.842   8.675 -1.0271  1.3961 -1.5797
 1003TIP3    H224645   6.059   0.829   8.793  0.5062 -0.4741 -0.5062
 1004TIP3   OH224646   1.175   2.225   2.814 -0.1144 -0.1774 -0.4609
 1004TIP3    H124647   1.163   2.189   2.902 -0.3946  0.3443 -0.2807
 1004TIP3    H224648   1.136   2.160   2.755 -1.1180  0.0944 -0.1019
 1005TIP3   OH224649   0.362   5.582   7.444  0.3275 -0.4560 -0.6306
 1005TIP3    H124650   0.283   5.545   7.405 -1.0019  1.0697  0.5179
 1005TIP3    H224651   0.352   5.569   7.538  0.8523  0.8314 -0.3701
 1006TIP3   OH224652   0.382   4.975   8.280 -0.2616 -0.4136  0.1211
 1006TIP3    H124653   0.348   5.063   8.293 -1.8953 -0.6649 -1.9403
 1006TIP3    H224654   0.308   4.917   8.301  0.3161 -1.2356 -0.0349
 1007TIP3   OH224655   1.017   0.806   0.477  0.8430  0.3557  0.1229
 1007TIP3    H124656   0.937   0.777   0.521  0.6990 -0.5539 -0.7186
 1007TIP3    H224657   1.084   0.745   0.507  0.6503 -0.5596 -1.2423
 1008TIP3   OH224658   4.084   5.723   1.968 -0.5959  0.2400  0.1705
 1008TIP3    H124659   4.176   5.746   1.977 -0.1595 -1.5036  0.4146
 1008TIP3    H224660   4.037   5.798   2.007  0.6931  1.1357  0.0595
 1009TIP3   OH224661   0.556   6.066   7.257  0.2811 -0.1341 -0.0119
 1009TIP3    H124662   0.619   6.002   7.290 -0.6343 -1.8548 -1.4141
 1009TIP3    H224663   0.562   6.057   7.161 -0.9492  0.8182 -0.1970
 1010TIP3   OH224664   6.697   6.220   8.058  0.5216  0.3382 -0.0157
 1010TIP3    H124665   6.646   6.243   7.981 -1.0325  0.3130  0.9663
 1010TIP3    H224666   6.734   6.303   8.089 -0.9364  0.7694  0.6410
 1011TIP3   OH224667   1.753   3.545   0.793 -0.0493  0.5945 -0.5418
 1011TIP3    H124668   1.731   3.613   0.856  0.0142 -0.2642  0.4348
 1011TIP3    H224669   1.676   3.489   0.791  0.2001  0.2584 -0.7410
 1012TIP3   OH224670   5.455   3.340   0.821  0.3929  0.5686  0.0782
 1012TIP3    H124671   5.523   3.328   0.754 -0.8057  2.3209 -1.5545
 1012TIP3    H224672   5.476   3.423   0.863 -0.7125  1.1570 -0.4781
 1013TIP3   OH224673   1.107   3.311   8.798 -0.4716 -0.3131  0.4465
 1013TIP3    H124674   1.091   3.240   8.736  0.5929 -0.7728  0.6817
 1013TIP3    H224675   1.049   3.382   8.769  0.2789 -0.3800 -1.2939
 1014TIP3   OH224676   0.638   0.052   8.734 -0.5165  0.3493 -0.2473
 1014TIP3    H124677   0.681   0.100   8.664  2.0013  0.4858  1.2713
 1014TIP3    H224678   0.709   0.027   8.793 -2.4896  0.2100  2.2416
 1015TIP3   OH224679   6.386   5.191   7.670  0.6911  0.2335 -0.0369
 1015TIP3    H124680   6.422   5.126   7.609 -1.4643  0.2689 -1.4703
 1015TIP3    H224681   6.368   5.142   7.750  1.5395 -0.3141 -0.1657
 1016TIP3   OH224682   3.993   0.201   8.345 -0.2929  0.3251  0.0297
 1016TIP3    H124683   4.023   0.289   8.368  1.2019 -0.1479 -0.0521
 1016TIP3    H224684   3.972   0.206   8.252  0.1298  0.5030 -0.0571
 1017TIP3   OH224685   4.705   1.503   7.551 -0.2413  0.6637  0.2255
 1017TIP3    H124686   4.769   1.565   7.587  0.6423 -1.0184  1.6984
 1017TIP3    H224687   4.626   1.517   7.604 -0.4991  1.4295 -0.3406
 1018TIP3   OH224688   2.470   0.474   8.255  0.5824 -0.2880 -0.9275
 1018TIP3    H124689   2.502   0.550   8.304  0.2045 -1.5712  1.4733
 1018TIP3    H224690   2.375   0.487   8.250  0.6080 -0.2134 -1.2291
 1019TIP3   OH224691   0.601   3.728   1.689  0.2990 -0.2070 -0.4952
 1019TIP3    H124692   0.627   3.783   1.615  1.8443 -0.7981 -0.4312
 1019TIP3    H224693   0.518   3.765   1.718  0.1469  0.6442 -1.9009
 1020TIP3   OH224694   4.082   2.131   1.435  0.0623  0.1224  0.0366
 1020TIP3    H124695   4.119   2.063   1.377 -0.1721  0.9510 -1.1211
 1020TIP3    H224696   4.159   2.170   1.477  0.1848 -1.0184  0.9245
 1021TIP3   OH224697   2.857   6.043   0.071  0.1245  0.0327  0.1887
 1021TIP3    H124698   2.924   6.013   0.133 -0.4490 -2.5210 -0.3023
 1021TIP3    H224699   2.775   6.009   0.105 -1.0862  3.3316  0.9082
 1022TIP3   OH224700   4.923   5.433   0.038  0.7868  0.1306  0.3329
 1022TIP3    H124701   4.874   5.351   0.033 -2.3017  1.8144 -0.0634
 1022TIP3    H224702   4.953   5.448  -0.052  0.9265 -0.3287  0.3033
 1023TIP3   OH224703   2.149   6.541   8.454  0.1540 -0.2720  0.2528
 1023TIP3    H124704   2.117   6.529   8.365  0.9705  0.9396 -0.2232
 1023TIP3    H224705   2.244   6.546   8.444  0.2118  0.5482  1.1115
 1024TIP3   OH224706   2.353   2.893   0.505  0.3246 -0.2936 -0.4259
 1024TIP3    H124707   2.345   2.877   0.411  1.6931 -0.9531 -0.4516
 1024TIP3    H224708   2.433   2.848   0.530  1.1670  1.6741  0.6420
 1025TIP3   OH224709   1.768   4.505   1.823 -0.1050 -0.5047 -0.3461
 1025TIP3    H124710   1.771   4.439   1.891 -0.1512  1.3643  1.5822
 1025TIP3    H224711   1.849   4.494   1.774  0.4323 -1.2175  0.6827
 1026TIP3   OH224712   1.975   0.301   7.417 -0.0741  0.2309 -0.0333
 1026TIP3    H124713   1.960   0.347   7.334 -2.2434  0.8227  0.6133
 1026TIP3    H224714   2.017   0.365   7.473 -1.7306  1.0137  0.3803
 1027TIP3   OH224715   5.851   6.523   0.849 -0.4922  0.5652  0.1253
 1027TIP3    H124716   5.757   6.518   0.866 -0.6738  0.8741 -0.7512
 1027TIP3    H224717   5.885   6.576   0.921 -1.2048  1.6623 -0.3079
 1028TIP3   OH224718   3.502   3.922   7.225 -0.1017 -0.2652 -0.9560
 1028TIP3    H124719   3.472   4.013   7.227  1.6246  0.3229 -0.4503
 1028TIP3    H224720   3.510   3.898   7.317 -1.7675 -1.3907 -1.0663
 1029TIP3   OH224721   1.308   0.336   2.114  0.2408  0.0041  0.0925
 1029TIP3    H124722   1.390   0.305   2.075  0.3137 -0.0368  0.2770
 1029TIP3    H224723   1.329   0.350   2.206 -0.0134 -0.1988  0.1822
 1030TIP3   OH224724   3.008   4.162   1.428 -0.2473  0.3831  0.2056
 1030TIP3    H124725   3.035   4.077   1.463 -0.1449  0.3644  0.0823
 1030TIP3    H224726   3.045   4.165   1.340  1.8098  1.5359  1.0229
 1031TIP3   OH224727   2.829   2.318   2.575 -0.3156 -0.1711 -0.2679
 1031TIP3    H124728   2.902   2.274   2.532  0.4136  0.6971  0.0571
 1031TIP3    H224729   2.848   2.411   2.566 -2.4239  0.1845 -1.9779
 1032TIP3   OH224730   5.372   0.965   2.567  0.0716 -1.0473 -0.2636
 1032TIP3    H124731   5.385   0.879   2.528  0.7106 -0.8259 -0.5552
 1032TIP3    H224732   5.453   0.981   2.617 -0.4189 -1.0033  0.5342
 1033TIP3   OH224733   6.365   2.336   2.359 -0.3619  0.3377  0.6701
 1033TIP3    H124734   6.317   2.289   2.427  0.7185  1.0670  1.9705
 1033TIP3    H224735   6.449   2.358   2.399  0.4870  0.3753 -1.0661
 1034TIP3   OH224736   6.278   6.286   8.141 -0.0745 -0.1887 -0.2160
 1034TIP3    H124737   6.244   6.375   8.138  2.9030  1.0462 -0.1740
 1034TIP3    H224738   6.359   6.292   8.190 -0.6674 -3.3164  1.4134
 1035TIP3   OH224739   4.500   4.482   8.587  0.4293  0.2513 -0.8654
 1035TIP3    H124740   4.551   4.492   8.668  0.1675 -1.7730 -0.3797
 1035TIP3    H224741   4.412   4.458   8.618  0.1437  0.1491 -1.7461
 1036TIP3   OH224742   4.008   4.325   1.519  0.2475 -0.2492  0.1015
 1036TIP3    H124743   4.029   4.404   1.570  0.2103  0.0284 -0.3053
 1036TIP3    H224744   4.027   4.350   1.428 -0.7782 -0.3654 -0.1518
 1037TIP3   OH224745   6.026   1.029   1.248  0.1352  0.4580 -0.0391
 1037TIP3    H124746   6.005   0.936   1.256  2.9351 -0.8606 -4.0694
 1037TIP3    H224747   6.094   1.044   1.314  0.4153 -0.7308 -0.0305
 1038TIP3   OH224748   5.584   2.772   0.391 -0.3241 -0.4258 -0.2404
 1038TIP3    H124749   5.610   2.756   0.482 -1.7908  0.3369  0.3547
 1038TIP3    H224750   5.662   2.807   0.349  0.0883  0.2071  1.0170
 1039TIP3   OH224751   4.405   5.859   2.545  0.3090  0.0897 -0.3122
 1039TIP3    H124752   4.467   5.897   2.608  0.4330  0.5361 -0.7020
 1039TIP3    H224753   4.405   5.919   2.471 -1.7868  0.9911  0.3294
 1040TIP3   OH224754   5.130   3.054   0.449  0.7476  0.2376  0.1374
 1040TIP3    H124755   5.104   3.027   0.537  1.7813  0.7517  0.6252
 1040TIP3    H224756   5.125   3.149   0.450  1.3557  0.2835 -0.1516
 1041TIP3   OH224757   3.799   4.259   1.051  0.0663  0.1095  0.2370
 1041TIP3    H124758   3.770   4.350   1.044  1.2315  0.3433 -3.3242
 1041TIP3    H224759   3.801   4.242   1.145 -2.0995  3.0803  0.9774
 1042TIP3   OH224760   2.980   4.530   1.122 -0.4931  0.1505  0.1954
 1042TIP3    H124761   2.886   4.531   1.138 -0.4287 -2.5668  1.3252
 1042TIP3    H224762   3.018   4.493   1.202  1.2662 -1.1367 -1.1472
 1043TIP3   OH224763   2.626   5.837   8.187 -0.2206 -0.3288 -0.1587
 1043TIP3    H124764   2.684   5.887   8.245 -1.6883  0.0127  1.0681
 1043TIP3    H224765   2.681   5.816   8.111  2.0494 -1.5313  1.7006
 1044TIP3   OH224766   2.858   6.504   2.294 -0.1001 -0.2365 -0.3430
 1044TIP3    H124767   2.767   6.476   2.292 -0.0762 -0.2661 -0.9779
 1044TIP3    H224768   2.862   6.566   2.367 -0.3554 -1.1578  0.4757
 1045TIP3   OH224769   1.377   3.320   1.046 -0.0979  0.5569  0.8573
 1045TIP3    H124770   1.444   3.253   1.041 -0.5658  0.1362 -0.0308
 1045TIP3    H224771   1.346   3.317   1.137 -2.7120 -3.0556  0.0605
 1046TIP3   OH224772   2.882   6.547   8.152  0.1870  0.3668 -0.1924
 1046TIP3    H124773   2.787   6.539   8.154  0.1025  1.3140  2.1470
 1046TIP3    H224774   2.914   6.458   8.166 -0.3736  0.1994  0.0538
 1047TIP3   OH224775   1.907   5.905   0.556 -0.8668 -0.2720  0.0125
 1047TIP3    H124776   1.922   5.996   0.584 -2.0216  0.7253 -2.3299
 1047TIP3    H224777   1.967   5.891   0.484 -1.6000 -0.9085 -0.4939
 1048TIP3   OH224778   6.454   6.133   2.782 -0.0729 -0.1951 -0.0345
 1048TIP3    H124779   6.387   6.193   2.817  0.7209 -0.6428  2.4739
 1048TIP3    H224780   6.473   6.074   2.855  1.6256 -1.3611 -1.3530
 1049TIP3   OH224781   1.626   2.539   1.968  0.1136 -0.2750 -0.0207
 1049TIP3    H124782   1.676   2.490   2.034  0.7360  2.2268  1.4934
 1049TIP3    H224783   1.690   2.558   1.899  0.3483 -0.0499  0.2567
 1050TIP3   OH224784   6.211   2.838   8.511 -0.2379  0.1797 -0.4573
 1050TIP3    H124785   6.130   2.791   8.530  0.7047 -2.1212 -1.7956
 1050TIP3    H224786   6.207   2.856   8.418  0.9628 -0.3461 -0.6254
 1051TIP3   OH224787   0.764   4.578   8.832 -0.0014  0.2504 -0.4235
 1051TIP3    H124788   0.755   4.490   8.867 -3.4316  0.6076 -0.0646
 1051TIP3    H224789   0.801   4.629   8.903  1.3606 -0.7097 -0.4061
 1052TIP3   OH224790   2.487   3.109   1.196 -0.0000 -0.0037 -0.7793
 1052TIP3    H124791   2.465   3.132   1.106  0.6452  0.9343 -0.7146
 1052TIP3    H224792   2.565   3.054   1.189  1.8683  2.4569 -0.7143
 1053TIP3   OH224793   6.657   5.186   0.677  0.4680 -0.7652 -0.0220
 1053TIP3    H124794   6.586   5.124   0.656  0.1971 -0.5565  0.2776
 1053TIP3    H224795   6.616   5.272   0.670  0.4239 -0.6740  1.1347
 1054TIP3   OH224796   6.187   5.914   8.935  0.3604 -0.5155 -0.3952
 1054TIP3    H124797   6.146   5.846   8.881  0.7571 -0.0547 -1.2975
 1054TIP3    H224798   6.212   5.982   8.872 -3.0314  2.0723  0.7105
 1055TIP3   OH224799   2.766   5.844   2.086 -0.5771  0.7015 -0.1746
 1055TIP3    H124800   2.771   5.826   2.180  2.5726 -0.0249 -0.3885
 1055TIP3    H224801   2.781   5.938   2.079 -0.5117  0.7064  0.0342
 1056TIP3   OH224802   1.116   3.222   2.271  0.3596 -0.0083  0.2752
 1056TIP3    H124803   1.029   3.257   2.255  0.1978 -0.8714 -0.8142
 1056TIP3    H224804   1.104   3.127   2.270  1.4188 -0.1403 -0.5118
 1057TIP3   OH224805   6.536   4.702   7.880  0.0610  0.1420 -0.2347
 1057TIP3    H124806   6.487   4.626   7.912  0.4893  0.0668  0.2656
 1057TIP3    H224807   6.533   4.764   7.952  0.3729  0.2883 -0.3458
 1058TIP3   OH224808   4.332   2.226   1.511 -0.0383 -0.0961  0.0298
 1058TIP3    H124809   4.315   2.320   1.506  1.0342  0.1456  0.6394
 1058TIP3    H224810   4.399   2.210   1.445  1.7006  0.0666  1.6710
 1059TIP3   OH224811   4.202   1.324   1.306  0.3015  0.1434 -0.1287
 1059TIP3    H124812   4.243   1.297   1.225  3.9691 -0.0055  1.5977
 1059TIP3    H224813   4.183   1.242   1.352 -2.9092  0.1578 -1.1834
 1060TIP3   OH224814   2.710   4.058   2.732 -0.1194  0.1331 -0.4123
 1060TIP3    H124815   2.638   4.012   2.775 -0.6188 -0.2476 -1.6049
 1060TIP3    H224816   2.718   4.141   2.780 -1.9475  0.5710 -0.8006
 1061TIP3   OH224817   0.932   1.614   8.867  0.5138  0.4938  0.1052
 1061TIP3    H124818   0.992   1.643   8.799 -2.5341  0.7250 -2.7037
 1061TIP3    H224819   0.960   1.525   8.888  0.6948 -0.1574 -2.6085
 1062TIP3   OH224820   0.174   1.411   8.893 -0.1830  0.0741 -0.2865
 1062TIP3    H124821   0.083   1.381   8.896 -0.4769  0.9049 -0.4900
 1062TIP3    H224822   0.169   1.495   8.847  1.0407 -1.1353 -2.8390
 1063TIP3   OH224823   5.965   5.284   1.438 -0.3783 -0.1749  0.2796
 1063TIP3    H124824   5.913   5.217   1.482 -3.1467  0.5118 -1.6644
 1063TIP3    H224825   5.960   5.361   1.495 -1.5664 -0.1252  0.1288
 1064TIP3   OH224826   3.172   6.363   7.777  0.8657 -0.5702  0.4068
 1064TIP3    H124827   3.183   6.383   7.684  0.0191 -2.7658 -0.2395
 1064TIP3    H224828   3.127   6.439   7.813 -0.9486 -0.6135 -1.5472
 1065TIP3   OH224829   5.245   5.394   2.277 -0.4945 -0.0361 -0.1948
 1065TIP3    H124830   5.326   5.423   2.321 -0.6096 -0.9114  0.6358
 1065TIP3    H224831   5.192   5.358   2.348 -0.6092 -1.6736 -1.0690
 1066TIP3   OH224832   1.290   6.718   0.802  0.4610 -0.3674 -0.4877
 1066TIP3    H124833   1.288   6.812   0.822 -0.5659 -0.2806 -0.9596
 1066TIP3    H224834   1.382   6.700   0.782  0.4897  0.7838 -1.4955
 1067TIP3   OH224835   4.486   6.253   2.382  0.1082 -0.4683 -0.4929
 1067TIP3    H124836   4.544   6.240   2.457  0.7077  0.0155 -0.8676
 1067TIP3    H224837   4.412   6.193   2.398 -0.2764  0.3621  0.9977
 1068TIP3   OH224838   2.260   0.722   7.804 -0.2167  0.2738  0.0046
 1068TIP3    H124839   2.286   0.630   7.810 -2.7116 -0.4757  0.1680
 1068TIP3    H224840   2.170   0.724   7.835 -1.0558  2.3790 -2.2480
 1069TIP3   OH224841   5.608   1.721   7.933 -0.2723  0.4759  0.4184
 1069TIP3    H124842   5.635   1.680   8.016  1.1447 -1.2335 -0.8000
 1069TIP3    H224843   5.690   1.734   7.886 -1.1678 -0.1852 -1.4096
 1070TIP3   OH224844   4.766   0.891   0.275 -0.2060  0.1194 -0.0694
 1070TIP3    H124845   4.737   0.804   0.302 -2.1016  0.9675  0.8795
 1070TIP3    H224846   4.832   0.875   0.208  0.5965 -2.0453  1.1388
 1071TIP3   OH224847   2.590   0.835   1.547  0.5747  0.2566  0.3999
 1071TIP3    H124848   2.613   0.928   1.552 -0.1962  0.4587  0.3027
 1071TIP3    H224849   2.662   0.790   1.591 -0.1537  1.0784  2.5761
 1072TIP3   OH224850   5.529   4.595   1.726  0.0039 -0.3338  0.0317
 1072TIP3    H124851   5.596   4.656   1.758  1.1597 -1.5245 -0.0118
 1072TIP3    H224852   5.511   4.538   1.800  0.2977 -1.0769 -0.4571
 1073TIP3   OH224853   2.586   4.132   2.484 -0.5061 -0.8070 -0.0342
 1073TIP3    H124854   2.613   4.222   2.501 -0.3043 -0.5096 -1.7345
 1073TIP3    H224855   2.639   4.079   2.545 -0.2213  0.1685  0.5831
 1074TIP3   OH224856   3.956   6.331   0.243 -0.2309  0.6791  0.0463
 1074TIP3    H124857   3.994   6.404   0.292 -1.7656  0.1422  2.1676
 1074TIP3    H224858   3.881   6.370   0.197  0.5564  0.9528 -1.0486
 1075TIP3   OH224859   6.154   1.714   0.086  0.4156  0.1234 -0.2472
 1075TIP3    H124860   6.185   1.704   0.176 -1.3432 -0.5304  0.3257
 1075TIP3    H224861   6.114   1.801   0.084 -0.8410 -0.4277  0.0432
 1076TIP3   OH224862   4.736   6.043   8.733  0.1685 -0.6950 -0.1470
 1076TIP3    H124863   4.747   5.963   8.784  1.2943 -1.1860 -1.1278
 1076TIP3    H224864   4.824   6.081   8.729 -0.6700  1.8911  2.2838
 1077TIP3   OH224865   5.400   3.887   2.681  0.2802 -0.2988  0.3263
 1077TIP3    H124866   5.340   3.814   2.695 -0.7548  0.8143  2.0809
 1077TIP3    H224867   5.465   3.878   2.750  1.7689 -1.0585 -1.1051
 1078TIP3   OH224868   0.790   1.038   0.981  0.4889 -0.3051  0.5545
 1078TIP3    H124869   0.858   1.104   0.966  0.7003 -0.7591 -0.6418
 1078TIP3    H224870   0.792   0.984   0.902 -0.6061 -0.9211  0.9286
 1079TIP3   OH224871   3.858   0.255   2.856 -0.2540  0.4732 -0.2596
 1079TIP3    H124872   3.852   0.234   2.763 -1.1363 -1.5353  0.2147
 1079TIP3    H224873   3.899   0.178   2.895  1.4757  1.8821  0.8473
 1080TIP3   OH224874   0.083   2.591   7.242  0.4556  0.0429 -0.3558
 1080TIP3    H124875   0.099   2.544   7.323 -1.0582  1.0084  0.5547
 1080TIP3    H224876   0.170   2.601   7.202  0.9415 -2.5044 -0.0636
 1081TIP3   OH224877   6.544   2.515   7.519  0.0575  0.6057  0.3178
 1081TIP3    H124878   6.476   2.572   7.483 -1.7535 -1.4699  0.2738
 1081TIP3    H224879   6.543   2.438   7.463  1.1152 -0.3084  1.4894
 1082TIP3   OH224880   2.588   3.510   1.701 -0.3730 -0.0617  0.1099
 1082TIP3    H124881   2.533   3.582   1.669 -0.1227  0.6668  1.2744
 1082TIP3    H224882   2.642   3.485   1.626 -0.4422  0.9854 -0.2983
 1083TIP3   OH224883   6.617   0.831   8.922  0.2134  0.5208 -0.0729
 1083TIP3    H124884   6.567   0.780   8.986  1.1474 -1.2360 -0.6841
 1083TIP3    H224885   6.602   0.922   8.947 -2.0310 -0.0021  0.6798
 1084TIP3   OH224886   3.739   5.987   2.731 -0.3963  0.6602 -0.6974
 1084TIP3    H124887   3.739   6.033   2.815 -0.0129  0.6024 -0.6621
 1084TIP3    H224888   3.755   6.056   2.666  0.4407  0.5504 -0.6223
 1085TIP3   OH224889   4.573   2.983   7.783 -0.0521 -0.3048  0.4977
 1085TIP3    H124890   4.593   3.011   7.872  0.8810 -2.5355  1.0382
 1085TIP3    H224891   4.655   2.997   7.734 -0.0468 -0.6506  0.4045
 1086TIP3   OH224892   5.532   5.957   1.898  0.1765 -0.8584  0.0395
 1086TIP3    H124893   5.597   5.978   1.831 -0.6670  0.4859 -0.3830
 1086TIP3    H224894   5.556   5.869   1.927  1.7527 -0.6742 -0.6037
 1087TIP3   OH224895   2.891   0.066   7.130  0.0830  0.2247  0.2461
 1087TIP3    H124896   2.895   0.060   7.225 -2.4465 -0.6081  0.3945
 1087TIP3    H224897   2.867   0.157   7.112  1.0018  0.4969  0.3503
 1088TIP3   OH224898   3.468   5.509   0.310  0.0226 -0.4559  0.4957
 1088TIP3    H124899   3.426   5.575   0.254  0.3674 -0.8904 -0.2833
 1088TIP3    H224900   3.557   5.541   0.322 -0.3229  0.1694  1.6819
 1089TIP3   OH224901   1.226   1.639   1.685 -0.4753 -0.4612 -0.5102
 1089TIP3    H124902   1.246   1.617   1.594  0.7709 -0.3078 -0.2897
 1089TIP3    H224903   1.219   1.734   1.686 -0.5517 -0.4674 -0.4617
 1090TIP3   OH224904   2.758   1.653   0.367  0.2078 -0.1577 -0.5285
 1090TIP3    H124905   2.696   1.627   0.298 -1.1225  0.7715  0.2737
 1090TIP3    H224906   2.800   1.571   0.393  0.0971 -0.6509 -1.8269
 1091TIP3   OH224907   6.279   2.025   2.269  0.1098  0.1259 -0.6184
 1091TIP3    H124908   6.325   1.989   2.343 -1.8239 -0.0796  0.5594
 1091TIP3    H224909   6.291   2.120   2.276 -2.9840  0.5010  2.2183
 1092TIP3   OH224910   0.035   4.704   7.488 -0.3810  0.3384 -0.3369
 1092TIP3    H124911   0.050   4.796   7.506 -0.5876  0.0952  1.1967
 1092TIP3    H224912   0.108   4.678   7.432 -0.9266  1.6748 -1.7332
 1093TIP3   OH224913   3.778   5.590   7.590 -0.1261  0.9696  0.0365
 1093TIP3    H124914   3.751   5.522   7.529  0.5857  1.3405 -0.7170
 1093TIP3    H224915   3.708   5.594   7.655 -0.8001  0.4274 -0.6429
 1094TIP3   OH224916   6.670   1.486   1.074  0.4385 -0.2851 -0.3874
 1094TIP3    H124917   6.627   1.410   1.113 -2.2264  0.4722 -1.6593
 1094TIP3    H224918   6.640   1.560   1.126 -0.1272  0.3016 -1.5208
 1095TIP3   OH224919   5.577   2.280   2.862  0.1750 -0.1296 -0.2473
 1095TIP3    H124920   5.551   2.218   2.930 -0.9306 -0.1595 -0.6863
 1095TIP3    H224921   5.673   2.275   2.862  0.2615  0.4829  1.8598
 1096TIP3   OH224922   6.021   0.123   7.679 -0.8113 -0.0627  0.4213
 1096TIP3    H124923   5.934   0.127   7.719 -0.2304 -1.9719  2.0343
 1096TIP3    H224924   6.054   0.037   7.702  1.6914  0.7580  0.2060
 1097TIP3   OH224925   4.150   0.600   8.049 -0.4360 -0.1899 -0.4338
 1097TIP3    H124926   4.093   0.560   7.984  0.8071 -0.2370 -1.5328
 1097TIP3    H224927   4.146   0.541   8.125 -0.2159 -1.3139 -1.2764
 1098TIP3   OH224928   2.710   4.786   8.837  0.5058  0.0074  0.2321
 1098TIP3    H124929   2.804   4.787   8.821  0.4014  1.5232 -0.4144
 1098TIP3    H224930   2.670   4.807   8.753 -0.4283 -0.5084  0.5225
 1099TIP3   OH224931   4.319   3.875   8.279 -0.3095 -0.7152 -0.3298
 1099TIP3    H124932   4.323   3.912   8.191  0.4047  0.1280  0.0387
 1099TIP3    H224933   4.407   3.839   8.293  0.2763  0.9965  0.7766
 1100TIP3   OH224934   3.435   1.902   0.334  0.1379  0.3922  0.3394
 1100TIP3    H124935   3.502   1.968   0.319  1.1800 -0.6944  0.0924
 1100TIP3    H224936   3.405   1.918   0.424  1.6132  0.1353  0.8957
 1101TIP3   OH224937   1.197   1.607   1.318 -0.2151  0.2163 -0.4322
 1101TIP3    H124938   1.113   1.583   1.357  1.1728 -1.9947  1.4654
 1101TIP3    H224939   1.211   1.541   1.250  0.3824 -0.0205 -0.0891
 1102TIP3   OH224940   5.443   2.582   1.359 -0.3306  0.4707 -0.5197
 1102TIP3    H124941   5.471   2.664   1.319  1.8136  0.5857  1.0417
 1102TIP3    H224942   5.507   2.518   1.329  0.0357  0.1208  0.9533
 1103TIP3   OH224943   4.431   1.246   1.112 -0.3172  0.2126 -0.9094
 1103TIP3    H124944   4.377   1.181   1.067 -1.2850  0.4301 -0.1027
 1103TIP3    H224945   4.505   1.196   1.147  0.5663  0.0744 -2.8533
 1104TIP3   OH224946   1.100   4.550   1.075  0.1350 -0.4602 -0.4042
 1104TIP3    H124947   1.122   4.458   1.058 -0.4836 -1.0668  1.7059
 1104TIP3    H224948   1.019   4.565   1.025 -0.8347 -1.6962  0.7176
 1105TIP3   OH224949   5.560   2.624   0.629 -0.3906 -0.3100  0.3790
 1105TIP3    H124950   5.654   2.608   0.644 -0.3701  0.1443  0.7529
 1105TIP3    H224951   5.518   2.587   0.707 -0.5613 -0.9025  0.0103
 1106TIP3   OH224952   3.082   6.042   0.651  0.5216 -0.4124  0.0666
 1106TIP3    H124953   3.104   6.110   0.587 -1.6008 -1.8836 -2.4610
 1106TIP3    H224954   2.997   6.069   0.685  0.4167 -0.9755  0.2521
 1107TIP3   OH224955   3.847   1.423   7.526 -0.0091 -0.1537 -0.8814
 1107TIP3    H124956   3.809   1.348   7.479 -0.5350 -2.9354  3.3922
 1107TIP3    H224957   3.777   1.489   7.526 -1.0226 -1.1840 -1.5674
 1108TIP3   OH224958   0.154   4.278   8.859  0.0966  0.2596  0.0092
 1108TIP3    H124959   0.096   4.316   8.793  2.8968  1.2166 -2.1078
 1108TIP3    H224960   0.141   4.183   8.852 -1.0398  0.4418 -0.5121
 1109TIP3   OH224961   2.411   1.913   8.778 -0.0066  0.3687 -0.5819
 1109TIP3    H124962   2.459   1.839   8.740  1.2910  0.9896 -0.2033
 1109TIP3    H224963   2.380   1.880   8.862 -1.6407 -0.5380 -1.4783
 1110TIP3   OH224964   1.948   0.610   6.974 -0.4207 -0.4529 -0.2443
 1110TIP3    H124965   1.863   0.652   6.991 -0.7506 -1.0601 -0.3831
 1110TIP3    H224966   2.011   0.682   6.977 -1.1592  0.3427 -2.0148
 1111TIP3   OH224967   5.423   4.801   8.663  0.3006 -0.1099 -0.3719
 1111TIP3    H124968   5.405   4.840   8.577 -0.7879 -3.0646 -1.6034
 1111TIP3    H224969   5.418   4.875   8.724  0.9845  2.0739 -2.7820
 1112TIP3   OH224970   3.396   1.237   2.586  0.7088 -0.1311  0.3020
 1112TIP3    H124971   3.478   1.240   2.635  0.7505  1.4470  0.1767
 1112TIP3    H224972   3.421   1.203   2.500  1.3039  0.6887  0.1418
 1113TIP3   OH224973   0.182   5.643   8.507  0.3525 -0.4608  0.2033
 1113TIP3    H124974   0.114   5.651   8.440 -0.9463  0.0212  1.5163
 1113TIP3    H224975   0.220   5.731   8.514  1.2421 -0.7662 -0.6379
 1114TIP3   OH224976   1.552   1.029   1.440  0.2861 -0.9804  0.0849
 1114TIP3    H124977   1.607   1.096   1.480  0.7177 -0.5229 -1.2035
 1114TIP3    H224978   1.463   1.064   1.447  0.4050 -0.7048  0.2445
 1115TIP3   OH224979   3.625   4.284   8.606  0.2033 -0.0070  0.1030
 1115TIP3    H124980   3.637   4.234   8.525 -0.7835 -2.1144  1.1686
 1115TIP3    H224981   3.674   4.365   8.592 -0.1011 -0.1978 -2.6630
 1116TIP3   OH224982   1.535   3.521   8.153 -0.7155 -0.0063  0.1443
 1116TIP3    H124983   1.453   3.558   8.120 -0.2221  1.8034  0.8279
 1116TIP3    H224984   1.589   3.508   8.075 -1.1977 -0.0574 -0.1837
 1117TIP3   OH224985   0.962   4.731   7.913 -0.2096 -0.3901 -0.1641
 1117TIP3    H124986   0.903   4.750   7.840 -0.2990 -0.5854 -0.1459
 1117TIP3    H224987   1.034   4.792   7.903 -1.1091  0.8590  0.6391
 1118TIP3   OH224988   2.686   5.239   8.118 -0.4369 -0.5067 -0.2008
 1118TIP3    H124989   2.762   5.245   8.177 -1.8628 -0.1396  1.6997
 1118TIP3    H224990   2.654   5.150   8.130 -0.2650 -0.6997 -1.0942
 1119TIP3   OH224991   2.823   2.591   8.017  0.4522  0.0650  0.6178
 1119TIP3    H124992   2.826   2.516   7.956 -0.5700  0.6822 -0.2228
 1119TIP3    H224993   2.780   2.557   8.095 -0.9596  0.0075 -0.1505
 1120TIP3   OH224994   6.328   1.032   0.422  0.4196  0.2323 -0.2022
 1120TIP3    H124995   6.393   0.997   0.483 -1.0029  0.3103  1.4445
 1120TIP3    H224996   6.350   1.125   0.415  0.1502  0.3976  0.8567
 1121TIP3   OH224997   2.846   5.149   7.263  0.3882  0.1700  0.5729
 1121TIP3    H124998   2.788   5.220   7.235 -0.3218 -0.1261  1.2524
 1121TIP3    H224999   2.835   5.082   7.195 -0.4743 -0.0926  0.9553
 1122TIP3   OH225000   2.821   1.516   2.514 -0.1665  0.1311 -0.1327
 1122TIP3    H125001   2.775   1.583   2.565  0.1340 -0.0970  0.4486
 1122TIP3    H225002   2.832   1.443   2.575  1.5481  0.4370 -0.0437
 1123TIP3   OH225003   4.533   1.667   6.908 -0.1539 -0.4206  0.3248
 1123TIP3    H125004   4.573   1.727   6.971  1.7855  0.4754 -1.6316
 1123TIP3    H225005   4.449   1.644   6.947  0.1914  1.4672  2.3942
 1124TIP3   OH225006   5.512   5.813   7.285  0.1631  0.0894 -0.1978
 1124TIP3    H125007   5.566   5.801   7.207 -0.3061  0.3333 -0.5658
 1124TIP3    H225008   5.447   5.742   7.280 -0.8247  1.0004 -0.8562
 1125TIP3   OH225009   5.251   1.767   7.850 -0.5873  0.0219 -0.2298
 1125TIP3    H125010   5.293   1.742   7.768  1.0286 -1.6253  1.0351
 1125TIP3    H225011   5.209   1.687   7.882 -0.4261  0.3932  0.9911
 1126TIP3   OH225012   5.835   1.186   0.383  0.1107  0.1097  0.1898
 1126TIP3    H125013   5.757   1.196   0.437 -0.2977  0.1669 -0.4051
 1126TIP3    H225014   5.805   1.140   0.304  0.7887 -0.3951  0.2096
 1127TIP3   OH225015   1.264   5.008   1.280  0.3321  0.0956  0.6806
 1127TIP3    H125016   1.251   5.077   1.345  1.8438 -0.0327  1.1390
 1127TIP3    H225017   1.178   4.965   1.274 -0.8360  2.3599 -0.0857
 1128TIP3   OH225018   4.448   1.771   0.706 -0.8225  0.1044  0.5255
 1128TIP3    H125019   4.537   1.802   0.689 -1.4210  1.4149 -0.3012
 1128TIP3    H225020   4.424   1.723   0.626 -0.7948 -0.4455  0.8381
 1129TIP3   OH225021   6.662   6.154   8.485  0.3953 -0.3583  0.1193
 1129TIP3    H125022   6.753   6.149   8.456  0.5283 -0.1012  0.4932
 1129TIP3    H225023   6.667   6.160   8.580 -0.0405 -1.1018  0.1973
 1130TIP3   OH225024   0.942   5.811   8.511  0.0210 -0.5004  0.4331
 1130TIP3    H125025   0.859   5.854   8.494 -1.1213 -2.3446  1.0567
 1130TIP3    H225026   0.981   5.861   8.583 -0.0819  0.9508 -0.5075
 1131TIP3   OH225027   4.328   2.289   8.913 -0.4747  0.1723 -0.5108
 1131TIP3    H125028   4.290   2.376   8.898 -0.8472 -0.0821 -1.0590
 1131TIP3    H225029   4.266   2.228   8.874 -0.8591 -0.4470  1.0237
 1132TIP3   OH225030   3.275   6.135   7.600 -0.1480  0.7512  0.2952
 1132TIP3    H125031   3.297   6.130   7.693  1.0792 -1.3469 -0.0693
 1132TIP3    H225032   3.358   6.158   7.557 -0.4190  0.4529 -0.3949
 1133TIP3   OH225033   2.551   0.837   7.052  0.2918 -0.6170 -0.1427
 1133TIP3    H125034   2.456   0.848   7.049  0.3445  0.4065  1.0102
 1133TIP3    H225035   2.586   0.918   7.014  0.7134 -0.9764 -0.5380
 1134TIP3   OH225036   0.175   5.886   0.393 -0.1196 -0.4211  0.3563
 1134TIP3    H125037   0.246   5.835   0.353 -1.0914 -1.6942  0.2036
 1134TIP3    H225038   0.128   5.823   0.447 -2.4342 -0.1357 -1.2169
 1135TIP3   OH225039   0.523   6.231   0.044 -0.0169 -0.0939 -0.4225
 1135TIP3    H125040   0.518   6.164  -0.024 -0.8365  0.7202 -1.1902
 1135TIP3    H225041   0.440   6.278   0.038 -0.3973 -0.3975  1.5847
 1136TIP3   OH225042   1.972   4.892   7.409  0.2321 -0.1360  1.2165
 1136TIP3    H125043   2.048   4.879   7.353  1.2856  0.0398  2.5599
 1136TIP3    H225044   1.902   4.919   7.349  0.7408 -1.9418 -0.2635
 1137TIP3   OH225045   1.488   4.033   7.794 -0.1335 -0.1112 -0.0428
 1137TIP3    H125046   1.426   4.069   7.857 -1.1875 -0.9588 -0.5622
 1137TIP3    H225047   1.540   4.109   7.765 -1.6027  0.8176 -0.3477
 1138TIP3   OH225048   6.796   3.880   0.832 -0.4313  0.3644 -0.3393
 1138TIP3    H125049   6.732   3.845   0.894  0.2063 -0.2416 -0.0085
 1138TIP3    H225050   6.744   3.928   0.768 -1.5295 -2.2989 -1.6248
 1139TIP3   OH225051   3.094   3.970   2.826  0.1921 -0.2338  0.7653
 1139TIP3    H125052   3.161   4.038   2.828 -0.6258  0.8337 -2.6808
 1139TIP3    H225053   3.143   3.890   2.806  0.6882  0.1152  0.5531
 1140TIP3   OH225054   2.515   4.000   7.945  0.0950 -0.4645 -0.5020
 1140TIP3    H125055   2.468   3.934   7.996  1.2959 -0.9839 -0.0240
 1140TIP3    H225056   2.494   4.083   7.988  0.5004 -0.8182  0.4097
 1141TIP3   OH225057   1.071   3.270   0.363  0.0744 -0.5964 -0.3178
 1141TIP3    H125058   1.010   3.313   0.423 -0.2055 -0.5061 -0.6587
 1141TIP3    H225059   1.119   3.342   0.322 -0.0744 -0.6277 -0.5525
 1142TIP3   OH225060   1.133   0.373   2.489  0.1407  0.5425 -0.1481
 1142TIP3    H125061   1.073   0.438   2.525  2.1182  2.1360  0.4719
 1142TIP3    H225062   1.115   0.293   2.539 -0.7743  1.2522  0.6867
 1143TIP3   OH225063   5.015   0.623   0.388  0.5640 -0.7792  0.2528
 1143TIP3    H125064   4.994   0.600   0.298  1.0095 -1.7546  0.3804
 1143TIP3    H225065   5.075   0.697   0.381 -2.0396  1.4341 -0.1383
 1144TIP3   OH225066   0.223   3.842   8.415  0.4435  0.3041 -0.5445
 1144TIP3    H125067   0.310   3.806   8.398  0.2946  0.0342 -0.7341
 1144TIP3    H225068   0.185   3.782   8.479  1.6970  2.2957  2.2705
 1145TIP3   OH225069   1.309   1.892   0.498  0.5080  0.4906  0.1981
 1145TIP3    H125070   1.260   1.839   0.562  1.9560  0.1743  1.0835
 1145TIP3    H225071   1.400   1.887   0.527  1.2980 -0.0069 -2.1345
 1146TIP3   OH225072   5.718   5.733   6.726  0.5232 -0.2115 -0.0546
 1146TIP3    H125073   5.750   5.706   6.641  0.8916  0.1605 -0.0355
 1146TIP3    H225074   5.765   5.679   6.789  0.0325 -0.6993 -0.0943
 1147TIP3   OH225075   1.284   3.590   1.199  0.1691 -0.2308 -0.0885
 1147TIP3    H125076   1.195   3.583   1.164 -0.0519 -0.9766  0.6125
 1147TIP3    H225077   1.305   3.502   1.230  1.2114 -0.0917 -0.3823
 1148TIP3   OH225078   6.589   0.525   1.635  0.1483  0.3316  0.0761
 1148TIP3    H125079   6.568   0.521   1.542  0.7941 -1.2776 -0.0255
 1148TIP3    H225080   6.522   0.583   1.673 -0.5049  0.4830 -1.2702
 1149TIP3   OH225081   4.679   4.268   6.990  0.3309  0.0904 -0.4993
 1149TIP3    H125082   4.587   4.254   7.010  0.5850 -0.4191  0.3687
 1149TIP3    H225083   4.683   4.358   6.956 -0.3817  0.3861  0.1719
 1150TIP3   OH225084   6.572   6.302   7.370 -0.1620  0.4826 -0.1041
 1150TIP3    H125085   6.567   6.379   7.426 -0.7251  0.5161 -0.1887
 1150TIP3    H225086   6.528   6.329   7.289 -0.0303  0.1924 -0.2737
 1151TIP3   OH225087   4.979   2.796   2.643  0.1607  0.1429 -0.2057
 1151TIP3    H125088   5.007   2.886   2.633  0.6226 -0.0405 -0.5831
 1151TIP3    H225089   5.011   2.751   2.565 -0.3868 -0.2688 -0.2032
 1152TIP3   OH225090   6.299   5.249   6.539 -0.5236 -0.4390  0.5072
 1152TIP3    H125091   6.329   5.239   6.629  0.5693 -0.2065  0.1873
 1152TIP3    H225092   6.361   5.196   6.488 -0.9372 -0.3072 -0.1347
 1153TIP3   OH225093   1.660   5.632   1.060  0.0262 -0.1575 -0.1179
 1153TIP3    H125094   1.640   5.552   1.010 -0.2464  0.3334 -0.8068
 1153TIP3    H225095   1.627   5.613   1.148  0.8235 -1.1646 -0.0094
 1154TIP3   OH225096   3.486   1.259   2.290 -0.1348  0.8740  0.1817
 1154TIP3    H125097   3.527   1.316   2.355  0.8690 -0.9578  1.2568
 1154TIP3    H225098   3.521   1.289   2.206  1.2323  1.1630  0.8238
 1155TIP3   OH225099   0.683   5.556   0.378  0.0028  0.2125 -0.5576
 1155TIP3    H125100   0.612   5.493   0.390  0.2290  0.0251 -0.1780
 1155TIP3    H225101   0.723   5.533   0.295 -0.4841  0.4231 -0.8560
 1156TIP3   OH225102   1.373   6.093   8.679 -0.1631  1.0819 -0.1420
 1156TIP3    H125103   1.349   6.074   8.588 -0.9385  1.5113 -0.0358
 1156TIP3    H225104   1.468   6.080   8.682 -0.1073  1.1994 -1.0458
 1157TIP3   OH225105   5.942   5.326   1.766 -0.1999 -0.3939  0.0562
 1157TIP3    H125106   5.982   5.241   1.783  2.7094  0.4379 -1.8323
 1157TIP3    H225107   5.993   5.387   1.820  0.0170  0.5012 -1.1088
 1158TIP3   OH225108   1.626   2.969   7.684  0.4480  0.3430 -0.2014
 1158TIP3    H125109   1.670   2.995   7.603 -0.4957  0.2357 -0.7625
 1158TIP3    H225110   1.678   2.897   7.718  3.0040  2.6997  1.2545
 1159TIP3   OH225111   5.191   0.424   0.565  0.3650  0.1988  0.2624
 1159TIP3    H125112   5.261   0.421   0.499 -0.5123 -2.2096 -0.6573
 1159TIP3    H225113   5.154   0.511   0.556  0.3408 -0.0089 -2.4128
 1160TIP3   OH225114   1.906   0.472   1.671 -0.1609  0.3651 -0.4826
 1160TIP3    H125115   1.883   0.485   1.763  0.9852 -0.0491 -0.1145
 1160TIP3    H225116   1.961   0.393   1.671 -0.6269  0.0264 -1.6042
 1161TIP3   OH225117   4.056   3.298   2.150  0.3419 -0.4123 -0.5282
 1161TIP3    H125118   4.120   3.285   2.080  2.3245  0.2178  1.0455
 1161TIP3    H225119   4.102   3.270   2.229 -1.2721  0.2849  0.7202
 1162TIP3   OH225120   2.131   6.455   1.500 -0.4642 -1.1701 -0.5082
 1162TIP3    H125121   2.058   6.488   1.552  0.6868  2.7353 -0.9897
 1162TIP3    H225122   2.095   6.443   1.412 -0.7672 -0.0688 -0.5526
 1163TIP3   OH225123   3.342   3.512   8.305  0.0924 -0.1460  0.1599
 1163TIP3    H125124   3.320   3.590   8.255  2.5668  2.0509  2.1985
 1163TIP3    H225125   3.418   3.475   8.261 -0.1216 -0.5020  0.0856
 1164TIP3   OH225126   3.789   2.068   7.993  0.1121 -0.3004 -0.1447
 1164TIP3    H125127   3.847   2.079   8.068  0.7442 -0.8462 -0.5488
 1164TIP3    H225128   3.703   2.096   8.025 -0.2155 -2.9118  1.5981
 1165TIP3   OH225129   4.056   5.406   0.226 -0.0545 -0.2217 -0.4743
 1165TIP3    H125130   4.091   5.479   0.275  0.2806 -2.0140  2.1525
 1165TIP3    H225131   4.100   5.410   0.141  1.3998  1.4402  0.3062
 1166TIP3   OH225132   0.251   5.793   7.252  0.2235 -0.0621  0.1761
 1166TIP3    H125133   0.329   5.777   7.198 -0.3410  0.4828 -0.8252
 1166TIP3    H225134   0.185   5.732   7.217 -0.6260  1.3765 -0.8338
 1167TIP3   OH225135   0.016   4.003   1.128 -0.4462 -0.7176 -0.2250
 1167TIP3    H125136   0.077   3.954   1.073  1.9777 -0.7003  2.2581
 1167TIP3    H225137   0.038   4.095   1.113 -0.1763 -0.6880  0.3651
 1168TIP3   OH225138   3.660   2.856   8.759  0.0412 -0.0410 -0.1195
 1168TIP3    H125139   3.696   2.909   8.687  0.6537 -0.1857  0.0669
 1168TIP3    H225140   3.672   2.766   8.730 -3.3779 -0.1616 -1.6074
 1169TIP3   OH225141   6.436   4.851   1.838 -0.1853 -0.2702 -0.5334
 1169TIP3    H125142   6.341   4.850   1.840 -0.2028  0.6231  1.6405
 1169TIP3    H225143   6.460   4.943   1.848  0.9067 -0.5320 -0.6293
 1170TIP3   OH225144   5.668   1.289   6.950  0.2795 -0.3978  0.3133
 1170TIP3    H125145   5.727   1.213   6.951  0.6321 -0.1341 -0.0691
 1170TIP3    H225146   5.693   1.337   6.871 -1.7807 -1.3144 -0.9784
 1171TIP3   OH225147   5.593   1.297   7.527  0.2404  0.4439  0.3190
 1171TIP3    H125148   5.584   1.241   7.449  3.7368  0.8873 -0.5733
 1171TIP3    H225149   5.677   1.272   7.565  1.0810  3.7487  0.9644
 1172TIP3   OH225150   0.158   3.716   0.054 -0.2686  0.4160  0.4881
 1172TIP3    H125151   0.116   3.771   0.120  2.0457  0.3174  2.1996
 1172TIP3    H225152   0.244   3.756   0.041  0.5548 -1.4074 -0.0364
 1173TIP3   OH225153   1.939   3.424   0.013 -0.8036 -0.1664  0.2768
 1173TIP3    H125154   2.019   3.440   0.063 -0.4223 -0.3715 -0.2640
 1173TIP3    H225155   1.946   3.480  -0.064 -0.1267 -1.7991 -0.9037
 1174TIP3   OH225156   4.266   1.365   0.400 -0.2339 -0.2102  0.2436
 1174TIP3    H125157   4.277   1.417   0.321  2.2163 -1.8955 -0.6753
 1174TIP3    H225158   4.177   1.332   0.396 -0.8864  1.5405 -0.6018
 1175TIP3   OH225159   3.348   6.310   1.745 -0.1531 -0.1396 -0.1882
 1175TIP3    H125160   3.341   6.321   1.840  1.1951  3.3750 -0.3564
 1175TIP3    H225161   3.278   6.364   1.709  0.1577 -0.3884 -1.1960
 1176TIP3   OH225162   5.741   3.463   0.621 -0.3615 -0.1725 -0.0273
 1176TIP3    H125163   5.738   3.374   0.654 -0.8799 -0.7888 -1.6433
 1176TIP3    H225164   5.761   3.517   0.698 -1.1228 -1.5480  1.1689
 1177TIP3   OH225165   6.078   0.440   0.010  0.1904 -0.4312 -0.1132
 1177TIP3    H125166   6.111   0.411   0.095 -0.5125  0.5165  0.5027
 1177TIP3    H225167   6.096   0.534   0.007 -0.1547 -0.3781 -0.8343
 1178TIP3   OH225168   4.233   4.858   7.791 -0.3575  0.1093  0.2308
 1178TIP3    H125169   4.270   4.771   7.782 -1.3669 -0.1616 -1.8069
 1178TIP3    H225170   4.148   4.853   7.747 -0.4725  2.1085  0.1204
 1179TIP3   OH225171   3.327   5.724   1.300 -0.1035 -0.6568  0.4876
 1179TIP3    H125172   3.396   5.735   1.235  0.3745 -2.5202  0.6050
 1179TIP3    H225173   3.357   5.776   1.375 -0.4872  1.2162 -0.6083
 1180TIP3   OH225174   5.509   1.484   8.069  0.4304  0.5565  0.0818
 1180TIP3    H125175   5.534   1.545   8.000  1.9153 -0.2596 -0.1438
 1180TIP3    H225176   5.562   1.406   8.053 -1.0817 -0.6465  0.6220
 1181TIP3   OH225177   0.359   0.405   0.002 -0.1187  0.1744 -0.0129
 1181TIP3    H125178   0.396   0.333  -0.049 -1.0629 -0.3134 -0.0356
 1181TIP3    H225179   0.335   0.471  -0.063  1.7925  1.0269  0.0963
 1182TIP3   OH225180   6.263   3.771   7.511  0.0407  0.2190  0.4311
 1182TIP3    H125181   6.289   3.752   7.601  0.0578 -0.3351  0.3123
 1182TIP3    H225182   6.191   3.834   7.520  0.3882  0.5702  0.8104
 1183TIP3   OH225183   2.099   1.175   6.625  0.1406 -0.1304 -0.2718
 1183TIP3    H125184   2.141   1.141   6.704 -2.7873 -0.3895  1.2956
 1183TIP3    H225185   2.113   1.108   6.559 -0.3010 -1.5381  1.0235
 1184TIP3   OH225186   2.001   4.193   2.147  0.4236 -0.1057 -0.4600
 1184TIP3    H125187   1.922   4.189   2.201 -0.1553 -0.5643 -1.3281
 1184TIP3    H225188   1.970   4.210   2.059  1.3616  0.5779 -0.6740
 1185TIP3   OH225189   5.409   6.283   8.690 -0.0050 -0.5575  0.5487
 1185TIP3    H125190   5.452   6.359   8.730  1.1453 -1.4708  1.1143
 1185TIP3    H225191   5.420   6.212   8.754 -0.5090 -1.3658 -0.2338
 1186TIP3   OH225192   3.253   3.402   8.028  0.8733 -0.4773 -0.8222
 1186TIP3    H125193   3.203   3.464   8.082  1.7856 -0.3125 -0.1401
 1186TIP3    H225194   3.255   3.442   7.941  1.1594  0.2955 -0.4714
 1187TIP3   OH225195   0.111   3.477   1.540  0.0865  0.3401 -0.1009
 1187TIP3    H125196   0.151   3.532   1.473 -0.2023 -1.0725 -1.4761
 1187TIP3    H225197   0.056   3.537   1.590  0.7842  1.5353 -0.7163
 1188TIP3   OH225198   0.826   2.028   0.356 -0.2704  0.0479  0.2673
 1188TIP3    H125199   0.777   2.025   0.438 -2.0932 -0.2604 -0.7771
 1188TIP3    H225200   0.872   1.944   0.352 -1.8325 -0.8361  0.0321
 1189TIP3   OH225201   0.009   1.417   0.656 -0.1694  0.2007 -0.2485
 1189TIP3    H125202  -0.010   1.502   0.695  2.0718  0.8281 -0.4329
 1189TIP3    H225203   0.022   1.359   0.731  0.5689  0.5688 -0.0848
 1190TIP3   OH225204   1.456   3.504   0.744  0.1852 -0.3050 -0.0718
 1190TIP3    H125205   1.374   3.458   0.728 -0.4991  1.3818 -1.8010
 1190TIP3    H225206   1.434   3.571   0.809  0.9849 -1.8349  1.8390
 1191TIP3   OH225207   6.481   4.148   0.209 -0.0756 -0.4696 -0.2640
 1191TIP3    H125208   6.536   4.162   0.286 -0.8830  0.3950  0.1721
 1191TIP3    H225209   6.524   4.197   0.139  1.5300 -2.5182 -0.8163
 1192TIP3   OH225210   0.220   3.036   8.546  0.5103 -0.4734  0.4935
 1192TIP3    H125211   0.294   3.092   8.522  0.5927 -0.9654 -0.4207
 1192TIP3    H225212   0.212   3.048   8.641  0.5308  1.0715  0.3348
 1193TIP3   OH225213   2.002   5.739   1.105  0.0607  0.8147  0.3315
 1193TIP3    H125214   2.094   5.766   1.104 -0.1607  1.7966  1.6906
 1193TIP3    H225215   1.958   5.803   1.050 -0.3309  2.9184  2.8532
 1194TIP3   OH225216   1.415   2.487   3.099 -0.4773  0.5248  0.4482
 1194TIP3    H125217   1.496   2.524   3.135 -0.3997  0.0730  0.7497
 1194TIP3    H225218   1.381   2.555   3.042 -0.0080  0.8156  0.5083
 1195TIP3   OH225219   6.689   2.181   7.711 -0.0265  0.6789 -0.5532
 1195TIP3    H125220   6.743   2.144   7.641  1.6092  1.9204  0.0059
 1195TIP3    H225221   6.604   2.195   7.670  0.3581 -0.3188 -1.7638
 1196TIP3   OH225222   1.288   1.227   7.658 -0.6553 -0.2726 -0.3473
 1196TIP3    H125223   1.334   1.300   7.617  0.4749 -1.4752 -1.2952
 1196TIP3    H225224   1.225   1.198   7.592 -0.8873 -0.3653 -0.0885
 1197TIP3   OH225225   1.449   6.380   1.969  0.1453 -0.2303 -0.3232
 1197TIP3    H125226   1.409   6.466   1.966 -0.9060 -0.7198 -0.9705
 1197TIP3    H225227   1.463   6.357   1.877 -1.1300 -1.4332 -0.2478
 1198TIP3   OH225228   4.539   6.201   0.368  0.4901 -0.4077  0.1224
 1198TIP3    H125229   4.568   6.238   0.451  2.3149  0.1330 -0.7090
 1198TIP3    H225230   4.498   6.118   0.392  1.7567 -0.6766  1.5066
 1199TIP3   OH225231   0.348   2.790   7.872 -0.5089 -0.3313 -0.2566
 1199TIP3    H125232   0.342   2.803   7.778 -0.5130  0.0987 -0.2002
 1199TIP3    H225233   0.272   2.735   7.894 -0.7552 -0.0654 -0.4414
 1200TIP3   OH225234   3.029   6.128   2.015 -0.0958 -0.2901  0.1387
 1200TIP3    H125235   2.973   6.174   1.952 -0.4673  0.9286  1.3334
 1200TIP3    H225236   2.968   6.096   2.082  0.6263  1.4182  1.6756
 1201TIP3   OH225237   1.690   0.003   1.231 -0.2517  0.6498  0.0103
 1201TIP3    H125238   1.769  -0.038   1.197  0.2403  2.0128 -0.5216
 1201TIP3    H225239   1.721   0.073   1.288 -1.0669  1.2953 -0.3244
 1202TIP3   OH225240   2.729   5.768   2.338  0.0989  0.2746 -0.1530
 1202TIP3    H125241   2.820   5.740   2.332 -0.2318 -0.6685 -1.1512
 1202TIP3    H225242   2.692   5.713   2.407 -0.2154 -0.8989 -1.2037
 1203TIP3   OH225243   4.167   1.254   8.631 -0.0739  0.1340  0.4447
 1203TIP3    H125244   4.134   1.308   8.559  1.6208 -0.2446 -0.6935
 1203TIP3    H225245   4.221   1.313   8.683  1.2376 -0.2685 -0.4184
 1204TIP3   OH225246   4.854   2.173   0.613 -0.4774 -0.2544 -0.0918
 1204TIP3    H125247   4.762   2.191   0.593 -0.5338  2.1107  1.7860
 1204TIP3    H225248   4.867   2.210   0.700  1.9756 -1.6093  0.2035
 1205TIP3   OH225249   2.562   0.109   1.408 -0.0985  0.1204 -0.6414
 1205TIP3    H125250   2.612   0.077   1.333 -0.3484 -2.9763  0.3671
 1205TIP3    H225251   2.471   0.089   1.386 -0.0603 -2.4073  1.0158
 1206TIP3   OH225252   3.993   2.912   8.554  0.2996 -0.2340 -0.2038
 1206TIP3    H125253   4.052   2.839   8.536  1.7563  0.6284  0.8034
 1206TIP3    H225254   4.050   2.988   8.562 -1.0541  0.8210 -0.0785
 1207TIP3   OH225255   0.198   3.774   0.965  0.3681 -0.2181 -0.1406
 1207TIP3    H125256   0.138   3.715   1.011  1.9534 -2.4991 -0.8525
 1207TIP3    H225257   0.141   3.829   0.912 -1.2337 -0.3701  1.3234
 1208TIP3   OH225258   2.582   3.988   8.331 -0.5686 -0.3831  0.2591
 1208TIP3    H125259   2.541   3.985   8.417  0.3592  1.9887  0.8355
 1208TIP3    H225260   2.517   3.950   8.272 -1.1516 -2.2160  1.9838
 1209TIP3   OH225261   0.667   6.779   0.659 -0.0707 -0.2258  0.4097
 1209TIP3    H125262   0.663   6.691   0.622 -1.1583 -0.1336  0.2818
 1209TIP3    H225263   0.579   6.815   0.645  0.6535  1.2774 -0.5123
 1210TIP3   OH225264   4.628   3.001   1.856  0.3755 -0.0451 -0.0399
 1210TIP3    H125265   4.685   3.078   1.854 -0.9830  1.0179  0.5931
 1210TIP3    H225266   4.630   2.972   1.947 -1.2337  0.9092  0.3213
 1211TIP3   OH225267   4.543   3.971   1.956 -0.5484  0.0019  0.5035
 1211TIP3    H125268   4.515   3.879   1.958 -2.3439  0.5205  1.2072
 1211TIP3    H225269   4.639   3.967   1.956 -0.5885 -1.8656  0.1149
 1212TIP3   OH225270   2.009   4.598   7.974 -0.5606 -0.4005 -0.0580
 1212TIP3    H125271   2.069   4.546   7.921 -0.7370  1.1743 -1.8787
 1212TIP3    H225272   2.050   4.600   8.061  2.6447  1.4478 -1.4402
 1213TIP3   OH225273   4.109   1.695   8.411 -0.3352 -0.7345 -0.3405
 1213TIP3    H125274   4.172   1.721   8.478  0.1075 -1.5236 -0.4279
 1213TIP3    H225275   4.050   1.769   8.403 -0.6185 -0.7682  1.1862
 1214TIP3   OH225276   6.777   5.888   2.085 -0.0816  0.3893  0.3913
 1214TIP3    H125277   6.816   5.955   2.141  1.0274 -0.5255  0.7770
 1214TIP3    H225278   6.840   5.816   2.088 -1.1823 -0.6264 -0.0915
 1215TIP3   OH225279   1.711   5.159   7.821 -0.2870  0.0649  0.4489
 1215TIP3    H125280   1.642   5.212   7.862  0.3600  0.6418  0.8353
 1215TIP3    H225281   1.725   5.087   7.882  0.6997  0.9435  1.3255
 1216TIP3   OH225282   6.673   0.001   2.937 -0.4633  0.8254  0.5930
 1216TIP3    H125283   6.605  -0.049   2.982  0.8972 -0.9829  0.7521
 1216TIP3    H225284   6.744  -0.062   2.924  0.1867  1.9526 -1.8375
 1217TIP3   OH225285   0.903   3.157   2.046  0.2145  0.0242  0.4781
 1217TIP3    H125286   0.929   3.246   2.021 -0.4286  0.2385  0.5530
 1217TIP3    H225287   0.826   3.169   2.102 -0.6795 -0.6305 -0.5635
 1218TIP3   OH225288   4.509   5.376   8.338 -0.3490 -0.6725 -0.4595
 1218TIP3    H125289   4.501   5.353   8.246  0.1597  0.5393 -0.8131
 1218TIP3    H225290   4.419   5.378   8.370 -0.4710 -2.6165 -0.5138
 1219TIP3   OH225291   4.094   4.550   6.682 -0.0230 -0.4620  0.0562
 1219TIP3    H125292   4.133   4.636   6.667 -1.8355  0.5526  0.7242
 1219TIP3    H225293   4.050   4.528   6.600 -1.7487  0.5277  0.6562
 1220TIP3   OH225294   2.209   5.600   1.714 -0.0938  0.1874 -0.4432
 1220TIP3    H125295   2.197   5.506   1.728 -0.7228  0.1650 -1.0801
 1220TIP3    H225296   2.266   5.606   1.638  0.9175  0.3262  0.3032
 1221TIP3   OH225297   4.975   0.187   0.273 -0.0966  0.6428  0.4335
 1221TIP3    H125298   4.904   0.217   0.216 -1.8744 -0.5240  1.9137
 1221TIP3    H225299   4.995   0.099   0.240 -1.7585 -0.4079  2.0470
 1222TIP3   OH225300   4.146   4.291   1.819  0.4955  0.0872  0.2252
 1222TIP3    H125301   4.197   4.306   1.899  1.9467 -0.7505 -0.4909
 1222TIP3    H225302   4.125   4.379   1.787  1.2984  0.4582  0.6806
 1223TIP3   OH225303   6.452   4.042   7.903  0.2303  0.0787  0.0850
 1223TIP3    H125304   6.530   4.078   7.945 -0.0908 -1.0315  1.7576
 1223TIP3    H225305   6.434   3.962   7.953 -2.0582  0.3780 -0.1671
 1224TIP3   OH225306   3.680   0.330   2.298  0.0115  0.1298  0.3725
 1224TIP3    H125307   3.647   0.364   2.381  1.3500  0.4163  0.8156
 1224TIP3    H225308   3.610   0.347   2.235 -0.8424  0.3095  1.3479
 1225TIP3   OH225309   6.263   4.309   1.952  0.1458  0.5161  0.3043
 1225TIP3    H125310   6.239   4.264   1.871  1.8260  0.0638  0.0154
 1225TIP3    H225311   6.225   4.256   2.022  1.3332 -0.9138 -0.0765
 1226TIP3   OH225312   2.355   2.563   2.441  0.1854 -0.6008 -0.1133
 1226TIP3    H125313   2.304   2.636   2.407 -0.0058  0.2782  1.9310
 1226TIP3    H225314   2.363   2.502   2.367  0.7769  1.6680 -2.0203
 1227TIP3   OH225315   1.106   0.922   8.502  0.6924 -0.2588  0.0886
 1227TIP3    H125316   1.195   0.889   8.496  0.5743 -0.3467 -2.0326
 1227TIP3    H225317   1.058   0.854   8.550  1.8418  0.0885  1.8183
 1228TIP3   OH225318   0.365   3.340   1.497  0.2118 -0.0699  0.8724
 1228TIP3    H125319   0.273   3.361   1.483 -0.0614 -2.4667 -1.7313
 1228TIP3    H225320   0.411   3.422   1.477 -1.1746  0.1906 -1.6325
 1229TIP3   OH225321   2.798   0.429   8.311  0.5296  0.8742  0.5773
 1229TIP3    H125322   2.836   0.493   8.372 -1.2898  0.6460  2.0369
 1229TIP3    H225323   2.824   0.344   8.347  0.4574  0.7498  0.3351
 1230TIP3   OH225324   0.890   3.364   2.233 -0.1085  0.0368  0.3381
 1230TIP3    H125325   0.963   3.405   2.186  0.2929 -0.3026  0.6557
 1230TIP3    H225326   0.827   3.435   2.245  0.1276  0.3150 -0.0148
 1231TIP3   OH225327   3.835   2.955   8.176  0.4365  0.2553 -0.4876
 1231TIP3    H125328   3.843   2.939   8.082  2.0092  2.2131 -0.7526
 1231TIP3    H225329   3.816   2.869   8.213 -0.2877 -0.5553 -2.5733
 1232TIP3   OH225330   3.386   5.691   0.752 -0.1299 -0.0667 -0.2904
 1232TIP3    H125331   3.369   5.767   0.697  2.6067  0.2469 -0.8192
 1232TIP3    H225332   3.470   5.658   0.722  0.2198 -1.4443  2.0019
 1233TIP3   OH225333   6.325   0.455   7.937 -0.3993  0.1132 -0.0809
 1233TIP3    H125334   6.311   0.471   8.030  0.4288 -1.2426  0.2989
 1233TIP3    H225335   6.369   0.535   7.906 -0.2684  0.3904  0.7845
 1234TIP3   OH225336   6.671   5.571   8.617  0.2374  0.5878  0.2203
 1234TIP3    H125337   6.725   5.497   8.590  1.1583  1.5600 -0.7494
 1234TIP3    H225338   6.673   5.631   8.542 -2.8961  0.3347 -0.1731
 1235TIP3   OH225339   3.439   2.700   7.837  0.1711  0.3065 -0.6003
 1235TIP3    H125340   3.459   2.619   7.789  1.4549 -0.8358  1.6525
 1235TIP3    H225341   3.426   2.766   7.769  1.1001 -1.3473 -2.5090
 1236TIP3   OH225342   6.347   1.977   1.053  0.0296  0.7570  0.5903
 1236TIP3    H125343   6.373   1.888   1.076 -0.6449  0.7301  1.2813
 1236TIP3    H225344   6.384   1.991   0.966  0.9466  0.1465  0.8652
 1237TIP3   OH225345   3.053   2.919   1.167 -0.0404  0.1140  0.2455
 1237TIP3    H125346   3.141   2.892   1.138 -0.4015 -0.5180 -0.2892
 1237TIP3    H225347   3.024   2.848   1.224 -0.3737  0.1167  0.0789
 1238TIP3   OH225348   4.789   2.219   0.196  0.1438 -0.3799 -0.1618
 1238TIP3    H125349   4.865   2.221   0.254 -2.0161  0.2279  2.9120
 1238TIP3    H225350   4.823   2.242   0.110  3.3316  0.3148  1.1592
 1239TIP3   OH225351   1.959   1.580   2.232  0.1521  0.0152  0.5407
 1239TIP3    H125352   1.967   1.630   2.314  0.0015 -2.0657  1.8942
 1239TIP3    H225353   1.929   1.494   2.260  0.6087 -0.9137 -1.6927
 1240TIP3   OH225354   3.876   1.899   0.840 -0.2777  0.1458 -0.0715
 1240TIP3    H125355   3.925   1.855   0.770 -0.0553  1.0628 -0.5164
 1240TIP3    H225356   3.863   1.988   0.807 -0.3234  0.5456  0.9874
 1241TIP3   OH225357   4.112   1.407   7.580  0.2735 -0.4156  0.0848
 1241TIP3    H125358   4.128   1.394   7.486 -1.1704  0.0877 -0.2711
 1241TIP3    H225359   4.017   1.403   7.588  0.3817 -0.4051  1.5303
 1242TIP3   OH225360   1.647   1.399   8.699 -0.5756  0.4374  0.3691
 1242TIP3    H125361   1.569   1.346   8.716  0.9650 -2.0041  0.2425
 1242TIP3    H225362   1.714   1.364   8.758  0.8185  1.5881 -0.4511
 1243TIP3   OH225363   6.326   2.607   6.987 -0.3464 -0.3818  0.9989
 1243TIP3    H125364   6.337   2.536   7.051 -1.2310 -1.4246  0.0435
 1243TIP3    H225365   6.270   2.670   7.031 -0.1658 -0.6335  1.6030
 1244TIP3   OH225366   0.699   5.251   1.820  0.7058  0.1663 -0.4448
 1244TIP3    H125367   0.711   5.335   1.864  1.3344  0.0190 -0.3269
 1244TIP3    H225368   0.697   5.186   1.890  0.0986  0.0907 -0.5271
 1245TIP3   OH225369   1.467   4.221   1.030 -0.4631 -0.3854  0.5499
 1245TIP3    H125370   1.508   4.284   0.970 -0.8232 -0.6788 -0.0138
 1245TIP3    H225371   1.455   4.270   1.111  2.5161 -0.7423  1.3254
 1246TIP3   OH225372   2.930   6.257   0.981  0.1261 -0.4992  0.4816
 1246TIP3    H125373   2.879   6.296   1.052 -0.7350  0.1723 -0.4645
 1246TIP3    H225374   3.019   6.290   0.993 -0.3600  0.9236  0.3209
 1247TIP3   OH225375   5.708   4.979   8.531  0.5887  0.0611 -0.0991
 1247TIP3    H125376   5.687   5.072   8.529 -1.3079 -0.3223 -0.9815
 1247TIP3    H225377   5.717   4.958   8.624 -2.9986  0.4018  0.4908
 1248TIP3   OH225378   1.395   2.592   0.095  0.4870  0.3048  0.6301
 1248TIP3    H125379   1.454   2.546   0.154  1.0280  0.4451  0.2075
 1248TIP3    H225380   1.314   2.541   0.096  0.5194  0.2695  1.4357
 1249TIP3   OH225381   0.446   5.260   2.444  0.6762 -0.1418  0.0836
 1249TIP3    H125382   0.422   5.167   2.451 -0.5311  0.1779  0.2771
 1249TIP3    H225383   0.433   5.296   2.531 -0.9228  0.6705 -0.4461
 1250TIP3   OH225384   2.331   0.981   8.399 -0.0691 -0.6182  0.1828
 1250TIP3    H125385   2.289   1.066   8.380  0.3006 -0.6753 -0.9523
 1250TIP3    H225386   2.418   0.989   8.360 -0.1866 -1.6768 -0.3113
 1251TIP3   OH225387   6.637   1.924   7.236  0.3146  0.0732 -0.3129
 1251TIP3    H125388   6.634   1.893   7.326  2.3353  0.1372 -0.1893
 1251TIP3    H225389   6.545   1.935   7.212 -0.3938 -2.3303  0.9019
 1252TIP3   OH225390   1.529   6.493   7.909 -0.3061  0.9476  0.2752
 1252TIP3    H125391   1.559   6.412   7.867 -1.9943 -0.4214  1.5489
 1252TIP3    H225392   1.436   6.498   7.888 -0.4909  1.9068  1.2291
 1253TIP3   OH225393   4.109   2.079   1.117 -0.4286  0.2429 -0.4048
 1253TIP3    H125394   4.157   2.029   1.183  0.9008  0.5915 -1.0817
 1253TIP3    H225395   4.018   2.051   1.128  0.3314 -2.8775 -1.2193
 1254TIP3   OH225396   1.290   1.023   2.500 -0.2786 -0.5770 -0.3764
 1254TIP3    H125397   1.228   1.094   2.517 -2.6374 -2.6961  0.6031
 1254TIP3    H225398   1.297   0.977   2.584  1.6723 -1.1662 -0.8144
 1255TIP3   OH225399   1.384   3.278   6.878 -0.1850 -0.0689 -0.1450
 1255TIP3    H125400   1.415   3.219   6.946 -1.9005  0.1264  0.8407
 1255TIP3    H225401   1.437   3.255   6.801  1.5393 -0.5301  1.1160
 1256TIP3   OH225402   0.314   4.565   8.018 -0.1707  0.0440  0.7015
 1256TIP3    H125403   0.398   4.539   7.981 -1.4580 -1.7879 -1.1344
 1256TIP3    H225404   0.290   4.494   8.077 -0.9678 -0.0662  0.2671
 1257TIP3   OH225405   1.501   2.966   1.530 -0.5598 -0.3533  0.8476
 1257TIP3    H125406   1.596   2.951   1.530 -0.5248 -0.2064 -0.1950
 1257TIP3    H225407   1.464   2.882   1.557 -0.2301 -1.3619 -1.6102
 1258TIP3   OH225408   4.932   5.324   1.853 -0.5922 -0.6838  0.1069
 1258TIP3    H125409   4.966   5.370   1.930 -1.9892  0.7153 -0.0524
 1258TIP3    H225410   5.010   5.301   1.802  0.2179  2.5430 -0.3376
 1259TIP3   OH225411   3.792   3.281   2.221  0.0400  0.5056  0.3939
 1259TIP3    H125412   3.886   3.265   2.212  0.1650  0.8145  1.0345
 1259TIP3    H225413   3.786   3.372   2.251 -0.5261  0.8657 -0.7661
 1260TIP3   OH225414   5.078   0.547   8.894 -0.0009  0.3866 -0.8787
 1260TIP3    H125415   5.104   0.502   8.974 -0.7845 -0.1573 -0.9127
 1260TIP3    H225416   5.008   0.493   8.858 -2.4603  2.6263  0.1424
 1261TIP3   OH225417   1.168   3.878   1.517 -0.1774  0.2061 -0.2924
 1261TIP3    H125418   1.204   3.956   1.473 -0.3567  0.1522 -0.5349
 1261TIP3    H225419   1.234   3.810   1.503  0.7093  0.7049  1.2208
 1262TIP3   OH225420   3.005   6.280   8.201 -0.1595 -0.3161  0.6702
 1262TIP3    H125421   3.018   6.259   8.293  1.5793 -0.4788  0.4147
 1262TIP3    H225422   2.948   6.210   8.168  0.0138 -0.8043  1.3893
 1263TIP3   OH225423   0.662   3.840   1.395 -0.6991  0.0934 -0.4094
 1263TIP3    H125424   0.749   3.880   1.399 -1.1743  1.0900  2.1838
 1263TIP3    H225425   0.679   3.747   1.380  0.7677  0.3749 -0.5878
 1264TIP3   OH225426   0.593   2.463   0.262 -0.1633  0.0530  0.4042
 1264TIP3    H125427   0.509   2.426   0.288 -0.0369  0.2127  1.0645
 1264TIP3    H225428   0.617   2.415   0.183 -0.9534  0.1255  0.1150
 1265TIP3   OH225429   1.981   3.402   6.675  0.0189 -0.7292 -0.3490
 1265TIP3    H125430   2.025   3.331   6.628  0.3808 -1.5443  1.1634
 1265TIP3    H225431   1.926   3.357   6.740 -0.4865  0.3611  0.0021
 1266TIP3   OH225432   2.652   1.281   0.592 -0.2158 -0.2197  0.0207
 1266TIP3    H125433   2.600   1.210   0.555 -1.4146  1.0216 -0.7750
 1266TIP3    H225434   2.605   1.306   0.672 -1.1656  1.1837 -0.9174
 1267TIP3   OH225435   4.796   4.444   0.561  0.3450  0.1049  0.6410
 1267TIP3    H125436   4.840   4.412   0.641  1.0451 -1.6579 -0.3838
 1267TIP3    H225437   4.825   4.384   0.493 -2.2597 -0.0164 -0.4665
 1268TIP3   OH225438   1.732   1.930   0.929 -0.6115 -0.0899  0.2401
 1268TIP3    H125439   1.723   1.856   0.869 -1.9588  0.3821 -0.1920
 1268TIP3    H225440   1.807   1.908   0.984  2.7243  0.7667 -3.4685
 1269TIP3   OH225441   2.127   4.263   7.424  0.1887 -0.1497 -0.4520
 1269TIP3    H125442   2.100   4.228   7.340 -1.1640  0.6535 -0.3947
 1269TIP3    H225443   2.175   4.192   7.466  0.0642 -0.8799 -1.5114
 1270TIP3   OH225444   6.572   4.873   8.090 -0.1437  0.0749 -0.4638
 1270TIP3    H125445   6.661   4.901   8.112  0.7726 -2.3152 -0.7786
 1270TIP3    H225446   6.538   4.834   8.171 -1.3357  1.8155 -0.0650
 1271TIP3   OH225447   3.652   6.239   8.739 -0.6912 -0.1806 -0.4374
 1271TIP3    H125448   3.705   6.234   8.660 -0.0497  1.5955 -0.1795
 1271TIP3    H225449   3.579   6.298   8.716 -0.8749 -0.1897  0.0891
 1272TIP3   OH225450   1.314   1.711   7.332  0.0891 -0.6856 -0.3673
 1272TIP3    H125451   1.255   1.662   7.389  0.5065 -0.9927 -0.1946
 1272TIP3    H225452   1.394   1.658   7.329  0.6162  0.0816 -0.0160
 1273TIP3   OH225453   1.625   4.985   8.058 -0.3348 -0.1021 -0.8781
 1273TIP3    H125454   1.543   4.981   8.009  1.2082 -1.3815 -3.6061
 1273TIP3    H225455   1.660   4.896   8.054  1.1438  0.3823  0.3033
 1274TIP3   OH225456   3.999   5.263   8.681 -0.3903  0.0284  0.0227
 1274TIP3    H125457   4.081   5.215   8.682 -0.8219 -0.7572 -0.5834
 1274TIP3    H225458   3.937   5.207   8.729 -0.9219 -0.1040 -0.7769
 1275TIP3   OH225459   2.291   4.998   8.106 -0.9021  0.0290  0.3201
 1275TIP3    H125460   2.289   4.981   8.200 -2.4565  1.6109  0.6220
 1275TIP3    H225461   2.352   5.072   8.096 -1.9591  0.9236  0.3162
 1276TIP3   OH225462   6.455   0.120   8.570 -0.0973 -0.4048 -0.4684
 1276TIP3    H125463   6.480   0.070   8.492 -0.0403 -0.4347 -0.4310
 1276TIP3    H225464   6.492   0.207   8.555 -0.6832 -0.2054 -0.7972
 1277TIP3   OH225465   0.466   3.917   7.104  0.2038  0.3520 -0.1363
 1277TIP3    H125466   0.373   3.899   7.113  0.4895 -0.2992  2.3147
 1277TIP3    H225467   0.480   3.998   7.154  1.4238 -1.4818  2.7546
 1278TIP3   OH225468   3.015   0.572   0.145  0.2682 -0.3777 -0.1491
 1278TIP3    H125469   3.087   0.622   0.107  0.9051 -2.0729 -1.3464
 1278TIP3    H225470   2.968   0.537   0.069 -1.2526 -0.1026  0.6246
 1279TIP3   OH225471   4.017   3.944   1.362  0.1348  0.4724  0.5924
 1279TIP3    H125472   3.946   3.898   1.317 -0.4354  1.6514  0.2630
 1279TIP3    H225473   4.019   4.031   1.323  0.3293  1.1883  2.1067
 1280TIP3   OH225474   5.877   4.280   8.332 -0.3519 -0.1993 -0.1436
 1280TIP3    H125475   5.819   4.210   8.360 -0.7886  0.2863  0.2057
 1280TIP3    H225476   5.858   4.352   8.393 -1.5220  0.9972 -1.8335
 1281TIP3   OH225477   6.323   2.082   1.324  0.2553  0.1367  0.2361
 1281TIP3    H125478   6.414   2.071   1.351  0.1539 -0.8701  0.1981
 1281TIP3    H225479   6.323   2.056   1.232 -0.2401 -0.7672  0.4858
 1282TIP3   OH225480   1.137   5.238   8.751  0.1255 -0.4542 -0.2677
 1282TIP3    H125481   1.173   5.197   8.830  1.7332  0.3347 -0.5257
 1282TIP3    H225482   1.149   5.173   8.682  2.3657  0.2253 -0.6110
 1283TIP3   OH225483   4.025   3.831   0.442 -0.6398  0.1178 -0.1673
 1283TIP3    H125484   3.929   3.833   0.437 -0.7177  1.6427  1.1791
 1283TIP3    H225485   4.044   3.853   0.533  1.0140  0.4723 -0.5745
 1284TIP3   OH225486   2.416   0.599   2.335 -0.2400  0.3789  0.1601
 1284TIP3    H125487   2.466   0.667   2.290  0.2291  1.1441  1.7489
 1284TIP3    H225488   2.412   0.628   2.426 -0.8073 -1.2825  0.7139
 1285TIP3   OH225489   5.198   4.671   1.111 -0.1981  0.2125 -0.5221
 1285TIP3    H125490   5.198   4.576   1.123  2.1322  0.3077  0.7543
 1285TIP3    H225491   5.179   4.706   1.198 -0.3993  0.9296 -0.8464
 1286TIP3   OH225492   5.694   5.056   2.157  0.0955  0.1240 -0.0649
 1286TIP3    H125493   5.633   4.988   2.128 -2.0176  1.8945 -0.0241
 1286TIP3    H225494   5.685   5.058   2.252 -0.1672  0.7179 -0.0982
 1287TIP3   OH225495   4.426   5.510   0.840 -0.1051  0.3471 -0.2069
 1287TIP3    H125496   4.346   5.471   0.874 -0.5186  0.5896 -0.8859
 1287TIP3    H225497   4.461   5.561   0.913  0.7516 -1.7186  0.9011
 1288TIP3   OH225498   5.925   4.994   2.026 -0.1865  0.5956  0.1797
 1288TIP3    H125499   5.841   4.996   2.072  0.1243  2.8783  0.7533
 1288TIP3    H225500   5.980   4.937   2.079 -0.5857  1.1983  1.2672
 1289TIP3   OH225501   4.311   2.048   7.097  0.1858  0.5041  0.4051
 1289TIP3    H125502   4.327   1.969   7.149 -1.8704 -0.8088 -0.8204
 1289TIP3    H225503   4.380   2.047   7.031  0.0577 -0.4293  0.2654
 1290TIP3   OH225504   6.110   6.531   7.476 -0.6204 -0.2922  0.2418
 1290TIP3    H125505   6.036   6.472   7.490 -2.2789  1.4698 -0.5680
 1290TIP3    H225506   6.117   6.581   7.558 -1.6954  0.9007 -0.3442
 1291TIP3   OH225507   3.127   0.055   7.945 -0.6858 -0.1206  0.7066
 1291TIP3    H125508   3.162  -0.019   7.993 -2.4861 -0.9293  0.8601
 1291TIP3    H225509   3.064   0.016   7.884 -0.4441  1.1357 -0.3962
 1292TIP3   OH225510   5.347   4.096   1.190  0.1147  0.4953  0.0319
 1292TIP3    H125511   5.365   4.190   1.186 -1.2700  0.7517 -2.0787
 1292TIP3    H225512   5.254   4.091   1.213  0.8013 -0.5298  3.0766
 1293TIP3   OH225513   2.483   0.744   1.271  0.7482 -0.0611  0.3850
 1293TIP3    H125514   2.445   0.701   1.348  2.4263 -1.3269  0.5360
 1293TIP3    H225515   2.577   0.736   1.282  1.0546  0.9875 -1.1319
 1294TIP3   OH225516   2.052   6.048   8.116 -0.3365  0.0911 -0.3795
 1294TIP3    H125517   2.096   6.132   8.122 -0.8566  0.5093 -1.9325
 1294TIP3    H225518   2.115   5.991   8.073 -0.6490  0.1999 -0.9900
 1295TIP3   OH225519   0.718   3.421   2.773 -0.2364 -0.1970  0.2483
 1295TIP3    H125520   0.801   3.467   2.760  0.4187 -1.4417 -0.0674
 1295TIP3    H225521   0.654   3.474   2.725  0.6611 -0.0791 -0.8580
 1296TIP3   OH225522   0.240   6.148   0.196 -0.1559  0.6744  0.6240
 1296TIP3    H125523   0.274   6.235   0.176 -0.3043  0.6657  0.3210
 1296TIP3    H225524   0.315   6.101   0.232  0.4080  0.3855 -0.8473
 1297TIP3   OH225525   3.285   5.063   8.812  0.3717 -0.5836 -0.5279
 1297TIP3    H125526   3.302   5.047   8.904  0.4934 -0.6211 -0.5570
 1297TIP3    H225527   3.242   4.983   8.781  0.9216 -0.8357 -0.6557
 1298TIP3   OH225528   5.267   3.939   2.267 -0.0862  0.2025  0.0499
 1298TIP3    H125529   5.199   3.886   2.308 -0.1400 -0.3561 -0.7434
 1298TIP3    H225530   5.220   3.998   2.208  0.1806 -1.3005 -1.7504
 1299TIP3   OH225531   0.388   1.245   8.232  0.0575 -0.5834  0.3812
 1299TIP3    H125532   0.426   1.331   8.250  1.1277 -1.3173  1.8994
 1299TIP3    H225533   0.308   1.263   8.183  0.5305  1.2376  0.2290
 1300TIP3   OH225534   3.424   6.498   7.899  0.4398  0.4531  0.4565
 1300TIP3    H125535   3.485   6.441   7.945 -0.2586  0.4630  1.4250
 1300TIP3    H225536   3.359   6.439   7.861  1.6428  0.3417 -1.5685
 1301TIP3   OH225537   6.510   5.434   8.799  0.1906 -0.3896 -0.6839
 1301TIP3    H125538   6.577   5.495   8.766 -0.7434  1.5657  0.8253
 1301TIP3    H225539   6.538   5.416   8.889 -0.2516 -1.1846 -0.7015
 1302TIP3   OH225540   4.543   0.157   1.703  0.0030 -0.0446 -0.0760
 1302TIP3    H125541   4.459   0.190   1.670 -0.6753 -0.3963  1.2461
 1302TIP3    H225542   4.542   0.179   1.796  1.6327  0.4199 -0.1521
 1303TIP3   OH225543   5.226   4.984   8.523  0.2162  0.5152  0.2997
 1303TIP3    H125544   5.162   5.042   8.565  0.4190  1.1312 -0.2280
 1303TIP3    H225545   5.295   5.043   8.493  1.4513 -0.2299  1.5736
 1304TIP3   OH225546   6.015   5.075   0.263  0.0130  0.0524  0.3837
 1304TIP3    H125547   5.974   5.153   0.227 -0.0430  0.9054  2.1751
 1304TIP3    H225548   6.070   5.107   0.334 -0.6558 -1.5790  1.7143
 1305TIP3   OH225549   4.504   1.309   0.814  0.2719  0.0904 -0.4336
 1305TIP3    H125550   4.464   1.340   0.895 -1.5761  1.3979 -1.7652
 1305TIP3    H225551   4.514   1.388   0.760  1.9358 -0.6668 -1.3180
 1306TIP3   OH225552   4.539   1.398   2.431  0.0850  0.5289  0.0954
 1306TIP3    H125553   4.535   1.325   2.493  3.1624  0.1037 -0.0513
 1306TIP3    H225554   4.492   1.469   2.475  0.0406 -0.4978  1.7947
 1307TIP3   OH225555   1.596   4.243   0.565 -0.3492  0.4867  0.6219
 1307TIP3    H125556   1.637   4.258   0.480 -0.7695  1.1905  0.5402
 1307TIP3    H225557   1.667   4.209   0.620 -0.3794 -1.3363 -0.3821
 1308TIP3   OH225558   1.789   5.283   1.916 -0.5846 -0.1594  0.3983
 1308TIP3    H125559   1.702   5.252   1.891 -1.0741  0.3223  1.4737
 1308TIP3    H225560   1.837   5.204   1.938 -0.1344 -0.6228 -1.9302
 1309TIP3   OH225561   3.950   2.698   2.355 -0.0392 -0.1502  0.0620
 1309TIP3    H125562   3.949   2.678   2.449 -2.8374 -1.9560 -0.2331
 1309TIP3    H225563   3.869   2.659   2.321  0.4552  1.1691 -2.9804
 1310TIP3   OH225564   5.859   4.928   0.531  0.6794 -0.1931 -0.4916
 1310TIP3    H125565   5.828   5.018   0.532  1.2350  0.0615  2.5659
 1310TIP3    H225566   5.946   4.933   0.490 -0.6312  0.0233 -3.4851
 1311TIP3   OH225567   5.828   2.986   6.835 -0.0937  0.4052 -0.4032
 1311TIP3    H125568   5.917   3.015   6.857 -0.3627  0.5552  0.5592
 1311TIP3    H225569   5.839   2.930   6.758  0.7308  1.0953 -0.7962
 1312TIP3   OH225570   3.726   3.261   7.810  0.3529  0.2677 -0.0965
 1312TIP3    H125571   3.742   3.168   7.792  0.8349 -0.1493  2.1448
 1312TIP3    H225572   3.813   3.300   7.816  0.1487  0.9077 -1.1018
 1313TIP3   OH225573   4.369   4.681   1.849 -0.1265 -0.2418 -0.8761
 1313TIP3    H125574   4.372   4.755   1.909 -1.2421 -0.6821 -0.2422
 1313TIP3    H225575   4.325   4.715   1.771 -0.5899 -0.1985 -0.6062
 1314TIP3   OH225576   1.509   1.295   1.136  0.3090 -0.0491  0.0199
 1314TIP3    H125577   1.512   1.286   1.041  2.3259  1.3478 -0.1201
 1314TIP3    H225578   1.489   1.207   1.167 -0.7632 -0.4578 -1.6842
 1315TIP3   OH225579   2.351   4.462   0.107 -0.1399  0.5174  0.1500
 1315TIP3    H125580   2.356   4.373   0.073 -0.2347  0.4344  0.3506
 1315TIP3    H225581   2.435   4.501   0.085 -0.6282  0.8505 -1.2356
 1316TIP3   OH225582   1.076   5.641   0.923 -0.0467 -0.4306 -0.1330
 1316TIP3    H125583   1.122   5.701   0.981 -0.8017 -0.0056  0.0433
 1316TIP3    H225584   1.134   5.565   0.915 -0.8777 -1.6117  3.1278
 1317TIP3   OH225585   6.789   2.993   7.375  0.0800  0.0894 -0.6505
 1317TIP3    H125586   6.735   2.913   7.378  0.7851 -0.4409 -1.5761
 1317TIP3    H225587   6.876   2.964   7.402 -0.3159  1.2184  2.2906
 1318TIP3   OH225588   2.935   2.128   1.359  0.0383  0.2671 -0.2162
 1318TIP3    H125589   2.874   2.133   1.432 -1.0482  1.3969 -1.1408
 1318TIP3    H225590   3.004   2.070   1.388  0.2466  1.5999  2.1558
 1319TIP3   OH225591   3.039   1.735   2.303 -0.3957 -0.6808 -0.5669
 1319TIP3    H125592   3.009   1.826   2.305 -1.3534 -0.9885 -0.1065
 1319TIP3    H225593   2.973   1.689   2.251 -0.6942 -1.3615  0.3773
 1320TIP3   OH225594   3.375   1.194   7.127 -0.3172  0.0097  0.1786
 1320TIP3    H125595   3.321   1.236   7.195 -0.6877  0.9026 -0.6379
 1320TIP3    H225596   3.445   1.257   7.111  1.4997 -1.4625  1.7765
 1321TIP3   OH225597   2.291   1.733   2.320  0.2255 -0.5155 -0.0763
 1321TIP3    H125598   2.306   1.812   2.373  0.0853 -0.3774 -0.2420
 1321TIP3    H225599   2.293   1.661   2.383  0.2417 -0.3673  0.0928
 1322TIP3   OH225600   4.714   2.624   1.338 -0.2482  0.8009  0.0798
 1322TIP3    H125601   4.665   2.566   1.397  0.8508 -0.6784 -0.4142
 1322TIP3    H225602   4.711   2.580   1.253  2.1018  0.5279  0.0819
 1323TIP3   OH225603   1.455   6.753   7.846  0.0462  0.4250 -0.6621
 1323TIP3    H125604   1.486   6.666   7.869 -1.3584 -0.3552 -1.5405
 1323TIP3    H225605   1.366   6.757   7.883 -0.6093  0.7506 -2.1924
 1324TIP3   OH225606   5.217   2.569   7.623 -0.2905 -0.1488  0.7376
 1324TIP3    H125607   5.292   2.530   7.578 -1.6067 -1.1360 -0.7460
 1324TIP3    H225608   5.207   2.518   7.703 -0.3513 -1.1516  0.1185
 1325TIP3   OH225609   6.062   1.408   1.910 -0.3289  0.2287 -0.2632
 1325TIP3    H125610   6.039   1.367   1.994  0.7010 -0.4421 -0.2883
 1325TIP3    H225611   5.988   1.389   1.853  0.1114 -1.6623 -0.2737
 1326TIP3   OH225612   0.617   6.490   7.719  0.5352 -0.3822  0.0037
 1326TIP3    H125613   0.559   6.425   7.757  1.7598 -0.6917  1.4399
 1326TIP3    H225614   0.561   6.565   7.700 -0.0608  0.1319  3.2482
 1327TIP3   OH225615   0.662   0.436   8.303 -0.5631  0.5009  0.4658
 1327TIP3    H125616   0.747   0.401   8.275 -0.7916  0.8633 -0.7328
 1327TIP3    H225617   0.679   0.529   8.319 -0.8780  0.7276 -0.4684
 1328TIP3   OH225618   1.458   0.721   0.299  0.0135  0.6450 -0.3608
 1328TIP3    H125619   1.478   0.784   0.368 -1.4807 -0.1537  0.8517
 1328TIP3    H225620   1.544   0.689   0.270  0.6814  1.2123  0.9226
 1329TIP3   OH225621   5.989   5.559   0.107 -0.4734  0.3239 -0.6600
 1329TIP3    H125622   5.914   5.584   0.162 -1.3821 -1.6772 -0.8998
 1329TIP3    H225623   6.057   5.622   0.130 -1.0810  0.0893  2.1952
 1330TIP3   OH225624   1.798   2.993   0.712 -0.6457  0.3801 -0.3174
 1330TIP3    H125625   1.730   3.057   0.691  1.6952  2.2789 -2.8304
 1330TIP3    H225626   1.859   3.041   0.769 -0.2355 -0.5324  0.0333
 1331TIP3   OH225627   4.836   5.706   8.880 -0.0546 -0.6024  0.6672
 1331TIP3    H125628   4.894   5.633   8.859 -2.1839 -1.8025 -1.5783
 1331TIP3    H225629   4.773   5.708   8.808 -0.7757  2.7791  1.2295
 1332TIP3   OH225630   3.553   3.010   8.275 -0.0106 -0.0723 -0.1603
 1332TIP3    H125631   3.600   2.927   8.274  0.2025  0.0412  0.2224
 1332TIP3    H225632   3.552   3.039   8.184 -1.3726 -1.2136 -0.5545
 1333TIP3   OH225633   6.120   3.181   8.006  0.5030 -0.0658  0.3283
 1333TIP3    H125634   6.064   3.174   7.929  1.2117 -2.2175 -0.0539
 1333TIP3    H225635   6.191   3.239   7.978 -0.2878  0.8105  0.0637
 1334TIP3   OH225636   0.358   5.221   8.815  0.0058 -0.1171  0.6184
 1334TIP3    H125637   0.281   5.229   8.871 -1.1755 -0.1352 -0.9345
 1334TIP3    H225638   0.324   5.230   8.726  1.8630  0.2662 -0.0989
 1335TIP3   OH225639   6.235   1.553   8.211 -0.5800  0.3031 -0.5106
 1335TIP3    H125640   6.213   1.642   8.184 -0.9967  0.0926 -0.8771
 1335TIP3    H225641   6.326   1.541   8.183 -1.1903 -0.1374 -2.4700
 1336TIP3   OH225642   5.281   2.266   7.753  0.0088 -0.2371 -0.5921
 1336TIP3    H125643   5.250   2.200   7.814  0.2511 -0.2996 -0.5370
 1336TIP3    H225644   5.376   2.257   7.753  0.1267  0.8683  0.2860
 1337TIP3   OH225645   6.399   6.007   8.415  0.4728  0.1222 -0.1647
 1337TIP3    H125646   6.331   6.066   8.383  0.1401 -0.0904  0.1560
 1337TIP3    H225647   6.463   6.065   8.456  0.2967  0.2864 -0.1201
 1338TIP3   OH225648   1.001   6.598   0.109  0.7519  0.1641 -0.2353
 1338TIP3    H125649   0.927   6.642   0.150  1.0009  1.8488 -1.4826
 1338TIP3    H225650   0.981   6.505   0.116 -1.8074  0.5788 -1.0621
 1339TIP3   OH225651   0.065   0.401   1.445  0.2628 -0.5036  0.0651
 1339TIP3    H125652   0.076   0.309   1.423 -2.1468 -0.5575 -1.2816
 1339TIP3    H225653  -0.001   0.433   1.382 -0.3475  1.6579  1.6770
 1340TIP3   OH225654   2.011   0.701   7.910  0.1490 -0.1999  0.2111
 1340TIP3    H125655   1.960   0.620   7.919  1.2840 -1.5671 -3.5690
 1340TIP3    H225656   1.949   0.766   7.878  0.0822 -0.9931 -1.3731
 1341TIP3   OH225657   0.782   4.466   2.162 -0.0680 -0.1944  0.7789
 1341TIP3    H125658   0.762   4.556   2.138  0.0008 -0.4132 -0.1370
 1341TIP3    H225659   0.849   4.473   2.229  0.3943  0.4281  0.2663
 1342TIP3   OH225660   0.531   2.830   8.684 -0.4766  0.9474 -0.0628
 1342TIP3    H125661   0.464   2.775   8.641  0.2200 -0.0431  0.0817
 1342TIP3    H225662   0.612   2.808   8.639 -0.2286  2.1584 -0.2433
 1343TIP3   OH225663   4.492   3.123   0.871 -0.7282  0.4985  0.1831
 1343TIP3    H125664   4.487   3.207   0.917  0.4932  0.1267  1.0481
 1343TIP3    H225665   4.507   3.059   0.940 -1.2057 -0.3844 -0.5143
 1344TIP3   OH225666   3.905   4.727   0.843 -0.3757 -0.0263  0.4152
 1344TIP3    H125667   3.991   4.719   0.883  0.7398  1.9280 -1.3777
 1344TIP3    H225668   3.916   4.691   0.755 -2.3127 -2.6676  1.1124
 1345TIP3   OH225669   2.842   6.069   0.825  0.0494  0.3832  0.0672
 1345TIP3    H125670   2.865   6.144   0.880 -0.0269  1.8955 -1.8581
 1345TIP3    H225671   2.748   6.058   0.840  0.4695 -0.9363  2.1684
 1346TIP3   OH225672   1.252   6.157   1.957 -0.1038 -0.3116 -0.3708
 1346TIP3    H125673   1.238   6.232   1.900 -1.8126 -0.2227  0.1248
 1346TIP3    H225674   1.204   6.177   2.037 -1.4482 -2.3203 -0.5909
 1347TIP3   OH225675   2.569   0.652   1.932  0.3769  0.0428  0.3748
 1347TIP3    H125676   2.525   0.706   1.866  1.2303 -0.2428 -0.4612
 1347TIP3    H225677   2.550   0.695   2.015 -0.7239  0.4197 -0.0533
 1348TIP3   OH225678   2.592   2.320   2.726 -0.6662  0.4333 -0.5161
 1348TIP3    H125679   2.630   2.352   2.808  0.6228 -1.2735 -0.3776
 1348TIP3    H225680   2.664   2.327   2.662 -0.8828 -0.5274 -0.8793
 1349TIP3   OH225681   1.161   6.249   6.934  0.0806  0.0009  0.5001
 1349TIP3    H125682   1.072   6.213   6.936 -0.8453  2.0972  0.3942
 1349TIP3    H225683   1.203   6.214   7.012 -0.6219 -1.5305  0.2231
 1350TIP3   OH225684   6.471   3.912   8.594 -0.2162 -0.0651  0.0825
 1350TIP3    H125685   6.397   3.936   8.539 -2.4039 -1.9218  1.9674
 1350TIP3    H225686   6.459   3.961   8.675 -0.2037 -1.3892  0.9253
 1351TIP3   OH225687   2.782   2.881   7.975 -0.3848 -0.1469  0.4122
 1351TIP3    H125688   2.702   2.895   7.925 -2.0215  0.5713  2.9958
 1351TIP3    H225689   2.792   2.786   7.980 -2.1179 -0.3184  1.4409
 1352TIP3   OH225690   4.161   1.149   0.713 -0.2000 -0.5779  0.1357
 1352TIP3    H125691   4.165   1.244   0.703 -0.8144 -0.5445  0.1607
 1352TIP3    H225692   4.072   1.126   0.685  0.3825 -1.3100 -1.1722
 1353TIP3   OH225693   0.360   6.605   8.665 -0.0233 -0.2360 -0.0805
 1353TIP3    H125694   0.296   6.662   8.708 -0.3548 -1.1024  0.5888
 1353TIP3    H225695   0.348   6.520   8.707 -2.5702 -2.0531 -3.9078
 1354TIP3   OH225696   5.928   4.711   2.911  0.5609  0.1572 -0.2472
 1354TIP3    H125697   5.992   4.776   2.939 -0.6533  0.3170  2.4872
 1354TIP3    H225698   5.852   4.762   2.883  0.4744 -0.0591 -0.4109
 1355TIP3   OH225699   0.374   5.687   0.298  0.2705  0.0000  0.3418
 1355TIP3    H125700   0.350   5.652   0.212  1.5521  0.0727 -0.0696
 1355TIP3    H225701   0.460   5.650   0.316  0.7087  1.2188  0.8763
 1356TIP3   OH225702   5.673   0.502   2.037 -0.1683  0.6564 -0.1110
 1356TIP3    H125703   5.607   0.450   1.991 -0.2188  0.3954  0.2510
 1356TIP3    H225704   5.697   0.448   2.113  1.7514 -0.0750 -1.1581
 1357TIP3   OH225705   3.307   1.675   1.275 -0.0466  0.2650 -0.3124
 1357TIP3    H125706   3.347   1.590   1.259 -0.2696 -0.1301  1.0663
 1357TIP3    H225707   3.213   1.658   1.277 -0.0844  0.5046  0.1475
 1358TIP3   OH225708   6.631   5.061   8.904 -0.6752 -0.5390  0.3298
 1358TIP3    H125709   6.659   5.094   8.818  0.1999 -2.5235 -0.2002
 1358TIP3    H225710   6.535   5.056   8.898 -0.8464  1.6937  0.4078
 1359TIP3   OH225711   5.511   5.249   1.925 -0.1635 -0.5821  0.6137
 1359TIP3    H125712   5.602   5.224   1.938 -0.0578 -0.5419 -0.0412
 1359TIP3    H225713   5.515   5.342   1.901 -0.1969 -1.0761 -1.5011
 1360TIP3   OH225714   1.966   1.213   2.103 -0.3530  0.6965  0.2070
 1360TIP3    H125715   1.910   1.233   2.178 -0.5813 -3.4220  1.3782
 1360TIP3    H225716   2.053   1.241   2.131 -0.8225  1.4782  0.9617
 1361TIP3   OH225717   2.716   4.340   1.770  0.6464  0.1088  0.1283
 1361TIP3    H125718   2.705   4.285   1.693  1.1316 -2.0020  1.4910
 1361TIP3    H225719   2.670   4.294   1.840  1.0236  1.4692  1.3350
 1362TIP3   OH225720   1.201   1.716   2.065 -0.2443 -0.0111 -0.0462
 1362TIP3    H125721   1.295   1.734   2.067 -0.1831 -0.2424 -0.7362
 1362TIP3    H225722   1.170   1.743   2.152  0.6828 -1.2347  0.6897
 1363TIP3   OH225723   4.197   3.846   0.039  0.4361 -0.0473  0.5636
 1363TIP3    H125724   4.263   3.914   0.056 -0.2187  0.2653  2.0038
 1363TIP3    H225725   4.121   3.894   0.007  0.3899 -0.2298  0.4007
 1364TIP3   OH225726   2.206   2.108   8.047 -0.5076  0.2716 -0.1713
 1364TIP3    H125727   2.238   2.152   8.126  0.8736 -0.7544 -0.1188
 1364TIP3    H225728   2.112   2.100   8.060 -0.2351 -0.3979  1.6637
 1365TIP3   OH225729   0.318   1.367   1.450  0.8341 -0.1309 -0.1234
 1365TIP3    H125730   0.296   1.447   1.499  0.1127 -0.4501  0.0949
 1365TIP3    H225731   0.240   1.350   1.397 -0.1435 -2.1581  1.8061
 1366TIP3   OH225732   6.181   5.460   7.861  0.1096  0.5212 -0.0875
 1366TIP3    H125733   6.206   5.531   7.920 -2.3850  1.4790 -0.0996
 1366TIP3    H225734   6.185   5.381   7.916 -0.2746  1.1231  0.8184
 1367TIP3   OH225735   1.211   6.226   7.656 -0.1266 -0.1274  0.6452
 1367TIP3    H125736   1.247   6.239   7.743  0.3183  0.8953  0.3289
 1367TIP3    H225737   1.117   6.214   7.670 -0.1378  0.5749  1.2252
 1368TIP3   OH225738   6.072   1.544   2.852  0.0334  0.2015  0.2397
 1368TIP3    H125739   6.023   1.487   2.911  0.9352  1.0174  1.8411
 1368TIP3    H225740   6.006   1.605   2.817 -0.3675  0.3327  1.1921
 1369TIP3   OH225741   1.053   3.593   2.964 -0.2554  0.7126 -0.3416
 1369TIP3    H125742   1.029   3.500   2.969 -0.7660  0.8631  0.0403
 1369TIP3    H225743   1.146   3.594   2.988 -0.2795  0.3139 -0.2145
 1370TIP3   OH225744   5.362   0.887   2.197 -0.5712  0.5716  0.5365
 1370TIP3    H125745   5.322   0.964   2.238 -1.4272  0.3426  0.1420
 1370TIP3    H225746   5.380   0.828   2.270 -0.3781  0.9290  0.7837
 1371TIP3   OH225747   6.149   2.998   1.679  0.2959 -0.2712  0.1093
 1371TIP3    H125748   6.061   2.984   1.643  0.6070 -0.3578 -0.6282
 1371TIP3    H225749   6.196   2.917   1.662  0.2636 -0.5559  1.3036
 1372TIP3   OH225750   4.415   2.590   2.157 -0.2344 -0.4938  0.2129
 1372TIP3    H125751   4.341   2.579   2.217  0.4494  2.2083  1.7295
 1372TIP3    H225752   4.486   2.541   2.198 -0.8121 -2.1987 -0.6972
 1373TIP3   OH225753   6.046   5.608   2.692  0.0717  0.1310 -0.3470
 1373TIP3    H125754   6.017   5.654   2.771 -0.2705  0.2850 -0.5612
 1373TIP3    H225755   6.114   5.548   2.723 -0.5196 -0.2883  0.1673
 1374TIP3   OH225756   1.676   1.770   6.885  0.3378 -0.1199 -0.1634
 1374TIP3    H125757   1.604   1.711   6.865 -0.3339  0.8710 -0.7868
 1374TIP3    H225758   1.739   1.717   6.933 -0.0150 -1.4575 -1.1390
 1375TIP3   OH225759   5.054   2.561   8.028 -0.4797  0.0183 -0.4995
 1375TIP3    H125760   5.147   2.566   8.005 -0.2392  1.1992  0.6211
 1375TIP3    H225761   5.043   2.473   8.063  0.4341  0.1653  0.1990
 1376TIP3   OH225762   3.695   0.310   8.380  0.3546  0.0547  0.1193
 1376TIP3    H125763   3.774   0.279   8.335 -0.8726 -1.4550 -1.1708
 1376TIP3    H225764   3.630   0.242   8.362 -0.9862  0.7770  1.9426
 1377TIP3   OH225765   1.791   5.921   8.090 -0.3313 -0.2067 -0.1343
 1377TIP3    H125766   1.828   5.836   8.117  1.1827  0.2626 -0.6084
 1377TIP3    H225767   1.863   5.983   8.102 -0.2566  0.4209 -3.0381
 1378TIP3   OH225768   3.615   1.983   6.821  0.2216  0.4370  0.4295
 1378TIP3    H125769   3.617   1.903   6.874 -3.7122  0.2313  0.5996
 1378TIP3    H225770   3.655   2.050   6.876 -0.3193 -0.5697  2.1293
 1379TIP3   OH225771   5.974   6.531   0.521 -0.4869 -0.0521 -0.4923
 1379TIP3    H125772   6.058   6.577   0.526 -0.2605 -0.3914 -1.1349
 1379TIP3    H225773   5.990   6.458   0.462 -0.4717 -1.8066  1.5791
 1380TIP3   OH225774   0.535   1.540   0.448  0.5121 -0.1846  0.2680
 1380TIP3    H125775   0.619   1.518   0.409  0.0186 -2.0213  0.1307
 1380TIP3    H225776   0.474   1.544   0.375  0.4770  1.3932  0.3358
 1381TIP3   OH225777   0.292   2.393   8.629  0.6785 -0.5393  0.2113
 1381TIP3    H125778   0.365   2.347   8.587  1.2609  1.3303 -0.9191
 1381TIP3    H225779   0.215   2.371   8.577  0.1852 -3.0889  1.8113
 1382TIP3   OH225780   4.880   1.323   8.159 -0.1487  0.3431 -0.6548
 1382TIP3    H125781   4.853   1.263   8.228 -1.8837 -2.1335 -3.2357
 1382TIP3    H225782   4.847   1.409   8.187 -0.4250 -0.4769  1.7102
 1383TIP3   OH225783   4.778   4.768   1.087 -0.2178 -0.3727 -0.0180
 1383TIP3    H125784   4.862   4.806   1.059 -0.9802  0.5138 -1.2237
 1383TIP3    H225785   4.712   4.828   1.051 -1.3459  0.8990  3.7636
 1384TIP3   OH225786   4.767   4.133   2.328  0.1848 -0.3549 -0.4288
 1384TIP3    H125787   4.737   4.125   2.419 -0.0936  2.5125 -0.1905
 1384TIP3    H225788   4.752   4.046   2.291 -2.3190 -0.8889  1.5004
 1385TIP3   OH225789   4.327   4.734   2.670 -0.3123  0.0731  0.0153
 1385TIP3    H125790   4.232   4.731   2.675 -0.5695  2.3465 -1.8469
 1385TIP3    H225791   4.346   4.758   2.579  1.9508  1.4783  0.7633
 1386TIP3   OH225792   5.965   5.615   7.753 -0.1774 -0.1904  0.5520
 1386TIP3    H125793   6.040   5.559   7.775 -2.1603 -3.8257 -1.0436
 1386TIP3    H225794   5.990   5.656   7.670  1.0074  0.8801  1.3755
 1387TIP3   OH225795   3.009   6.029   6.762  0.2117  0.7634 -0.2656
 1387TIP3    H125796   3.085   6.075   6.797 -0.2265  0.9163  0.5123
 1387TIP3    H225797   3.026   6.023   6.668 -0.0310  3.1581 -0.5281
 1388TIP3   OH225798   5.241   6.611   0.813  0.3155  0.1380  0.2083
 1388TIP3    H125799   5.175   6.680   0.812 -0.1194 -0.2616  0.8294
 1388TIP3    H225800   5.302   6.635   0.743  0.7738  1.7435  1.1209
 1389TIP3   OH225801   5.009   6.517   0.077 -0.3757  0.5356 -0.1075
 1389TIP3    H125802   5.103   6.500   0.072 -0.3679  0.4517  0.2722
 1389TIP3    H225803   4.972   6.462   0.008 -0.0737  1.1898 -0.8021
 1390TIP3   OH225804   6.004   6.336   8.219 -0.3976  0.6983 -0.8069
 1390TIP3    H125805   5.955   6.370   8.144  1.3944  0.4383 -2.1714
 1390TIP3    H225806   5.986   6.242   8.219 -0.5745  0.7323 -0.7796
 1391TIP3   OH225807   5.014   4.127   8.694  0.2374 -0.5777 -0.0925
 1391TIP3    H125808   4.922   4.130   8.669  0.1163 -1.3619  0.2158
 1391TIP3    H225809   5.062   4.141   8.613 -0.1488 -0.2726 -0.2705
 1392TIP3   OH225810   4.792   0.180   7.977 -0.2414 -0.1566 -0.2905
 1392TIP3    H125811   4.799   0.154   8.069  0.1173 -0.9593 -0.5328
 1392TIP3    H225812   4.882   0.199   7.950 -0.1223 -1.4241 -0.8788
 1393TIP3   OH225813   3.131   5.283   8.712 -0.3164 -0.0343 -0.3446
 1393TIP3    H125814   3.193   5.356   8.713 -0.7442  0.3313 -0.3411
 1393TIP3    H225815   3.186   5.206   8.724  0.3155  0.1566 -1.7208
 1394TIP3   OH225816   5.084   1.236   7.355  0.0006 -0.1416  0.8764
 1394TIP3    H125817   5.164   1.268   7.397  1.0783 -1.1087 -0.3642
 1394TIP3    H225818   5.076   1.145   7.384  2.3495 -1.8187 -2.9502
 1395TIP3   OH225819   2.902   1.429   0.490 -0.2421  0.7027 -0.1882
 1395TIP3    H125820   2.839   1.391   0.552  0.0154  0.2902 -0.1784
 1395TIP3    H225821   2.912   1.363   0.422  0.1053  0.8098 -0.2433
 1396TIP3   OH225822   5.543   5.289   8.093  0.9801  0.0202 -0.3645
 1396TIP3    H125823   5.626   5.324   8.060  1.3096 -0.2079  0.1970
 1396TIP3    H225824   5.524   5.215   8.036  0.9851  0.2850 -0.7105
 1397TIP3   OH225825   0.247   0.234   2.128 -0.6473  0.3054  0.1835
 1397TIP3    H125826   0.236   0.175   2.203  0.7105  0.0046  0.1844
 1397TIP3    H225827   0.158   0.251   2.097 -1.1851 -0.1380  1.4220
 1398TIP3   OH225828   5.693   2.472   0.305  0.7372 -0.3001 -0.6317
 1398TIP3    H125829   5.738   2.544   0.350 -0.0208 -0.0166 -0.3102
 1398TIP3    H225830   5.755   2.399   0.309  0.1479 -0.7686  2.2581
 1399TIP3   OH225831   5.639   0.824   8.426 -0.0334  0.4309  0.1614
 1399TIP3    H125832   5.664   0.878   8.352 -2.2723  2.3670  0.7144
 1399TIP3    H225833   5.715   0.827   8.485  0.7651  0.9981 -0.8728
 1400TIP3   OH225834   0.500   2.303   8.398  0.4165  0.1110 -0.1982
 1400TIP3    H125835   0.499   2.394   8.368  0.6074  0.2546  0.2232
 1400TIP3    H225836   0.525   2.253   8.321  1.6836  0.5507 -0.1020
 1401TIP3   OH225837   3.533   5.351   1.268 -0.8881  0.0526  0.3806
 1401TIP3    H125838   3.453   5.304   1.292 -1.7988  0.5817 -1.4586
 1401TIP3    H225839   3.502   5.432   1.227  0.6207  0.9330  0.8881
 1402TIP3   OH225840   1.459   4.669   7.709 -0.4393  0.0132  0.3230
 1402TIP3    H125841   1.478   4.633   7.623 -0.6214  0.4729  0.0839
 1402TIP3    H225842   1.466   4.595   7.769  4.2160  0.4019  0.6290
 1403TIP3   OH225843   4.030   2.308   7.566  0.6533  0.3324  0.2843
 1403TIP3    H125844   4.027   2.215   7.585  0.6911  0.0025 -1.2015
 1403TIP3    H225845   4.029   2.313   7.471 -1.7040  1.9251  0.3096
 1404TIP3   OH225846   3.061   5.472   0.035  0.0185 -0.1886  0.1483
 1404TIP3    H125847   2.980   5.425   0.017 -0.3798 -0.4564  2.3879
 1404TIP3    H225848   3.059   5.489   0.129  3.2105 -1.4756  0.5883
 1405TIP3   OH225849   5.648   2.031   0.511 -0.1668 -0.1307 -0.4132
 1405TIP3    H125850   5.708   1.967   0.550 -0.8781 -0.4586  0.1659
 1405TIP3    H225851   5.595   1.979   0.451 -1.5379 -0.3441  0.9193
 1406TIP3   OH225852   3.988   0.491   7.868 -0.1353 -0.6715  0.0508
 1406TIP3    H125853   3.909   0.441   7.846 -0.6019  0.2709 -0.4844
 1406TIP3    H225854   4.044   0.481   7.791 -0.6473  0.4264 -0.4819
 1407TIP3   OH225855   1.303   0.585   8.351  0.2442 -0.1768 -0.1855
 1407TIP3    H125856   1.330   0.647   8.419 -0.0846 -0.9369  0.6453
 1407TIP3    H225857   1.300   0.500   8.394  1.8230 -1.0051 -1.5890
 1408TIP3   OH225858   3.198   6.224   6.805 -0.4447 -0.0365  0.2495
 1408TIP3    H125859   3.274   6.259   6.853  0.9345  0.2619 -1.9869
 1408TIP3    H225860   3.199   6.272   6.722 -1.8433 -1.5380 -0.6819
 1409TIP3   OH225861   2.199   5.968   0.504  0.5136  0.1283 -0.2295
 1409TIP3    H125862   2.265   6.023   0.545  1.2297 -1.6459  1.0789
 1409TIP3    H225863   2.157   5.922   0.576 -1.2020  0.1304 -1.1571
 1410TIP3   OH225864   5.048   4.743   8.832 -0.0905  0.1682 -0.4423
 1410TIP3    H125865   5.126   4.687   8.831  0.2650  0.6406  0.1290
 1410TIP3    H225866   5.015   4.740   8.743  0.6451  0.0511 -0.7147
 1411TIP3   OH225867   2.184   3.726   8.028 -0.2395 -0.0917  0.4264
 1411TIP3    H125868   2.244   3.674   7.975  0.3209  2.0454 -1.1615
 1411TIP3    H225869   2.096   3.697   8.002  0.0260 -1.8456  1.3301
 1412TIP3   OH225870   3.482   0.944   2.108 -0.0700 -0.7473  0.4257
 1412TIP3    H125871   3.491   0.989   2.191  1.6736 -0.1048 -0.0669
 1412TIP3    H225872   3.474   0.851   2.131 -3.1630 -0.3495  1.4128
 1413TIP3   OH225873   1.626   0.425   1.560 -0.0601 -0.5519  0.2139
 1413TIP3    H125874   1.563   0.485   1.600  0.3238 -0.6961  1.0513
 1413TIP3    H225875   1.711   0.457   1.589  0.3975  0.5421 -2.0965
 1414TIP3   OH225876   4.463   2.863   2.643 -0.2068 -0.2130  0.4860
 1414TIP3    H125877   4.557   2.862   2.664  0.1776  1.1551 -0.9764
 1414TIP3    H225878   4.455   2.806   2.567 -0.6091 -0.5242  0.7618
 1415TIP3   OH225879   4.929   4.956   7.510  0.5141  0.2160 -0.4395
 1415TIP3    H125880   4.853   5.012   7.494 -0.0440 -0.1279  0.8419
 1415TIP3    H225881   4.966   4.940   7.423 -1.1102  0.0763 -1.1441
 1416TIP3   OH225882   6.400   6.398   1.134 -0.7717  0.0425  0.2585
 1416TIP3    H125883   6.474   6.408   1.194 -0.0754 -1.0194 -0.3850
 1416TIP3    H225884   6.396   6.304   1.117  0.1394  0.4314 -2.6659
 1417TIP3   OH225885   6.678   5.459   7.409  0.3342  1.2396 -0.2654
 1417TIP3    H125886   6.602   5.427   7.361  0.9510 -1.1116  0.1951
 1417TIP3    H225887   6.643   5.490   7.492 -0.2944  1.8020 -0.7296
 1418TIP3   OH225888   0.032   4.968   8.149  0.2301 -0.3287  0.1498
 1418TIP3    H125889   0.065   4.984   8.238  2.3284 -2.0290 -0.2520
 1418TIP3    H225890   0.108   4.941   8.099 -0.5298  2.2690 -2.7194
 1419TIP3   OH225891   0.828   1.560   0.260 -0.4088 -0.4445  0.3545
 1419TIP3    H125892   0.865   1.563   0.349  2.5567 -0.2263 -0.7690
 1419TIP3    H225893   0.825   1.651   0.233 -3.1595 -0.3082  0.8139
 1420TIP3   OH225894   0.679   4.044   1.793  0.2150 -0.1582  0.3013
 1420TIP3    H125895   0.663   4.081   1.880  0.3023 -0.8312  0.6034
 1420TIP3    H225896   0.592   4.044   1.751  0.0919 -0.2540  0.5536
 1421TIP3   OH225897   4.404   4.991   3.047 -0.0979  0.1651 -0.1424
 1421TIP3    H125898   4.412   4.898   3.029 -0.6582  0.2257 -0.7423
 1421TIP3    H225899   4.481   5.012   3.099  1.0600 -0.2394 -1.6307
 1422TIP3   OH225900   5.802   2.883   0.241  0.2409 -0.6892 -0.4399
 1422TIP3    H125901   5.878   2.867   0.298 -0.7998 -1.6214  0.7669
 1422TIP3    H225902   5.791   2.978   0.241  0.6907 -0.6278  0.3725
 1423TIP3   OH225903   5.464   4.008   7.952  0.2026 -0.2045  0.0113
 1423TIP3    H125904   5.551   4.046   7.941  1.0759 -2.1191 -0.0865
 1423TIP3    H225905   5.480   3.923   7.993 -1.9307  1.1934  4.3776
 1424TIP3   OH225906   1.778   1.806   0.038  0.0025 -0.3766 -0.0826
 1424TIP3    H125907   1.764   1.796   0.132  2.2035 -3.1228  0.1250
 1424TIP3    H225908   1.713   1.748  -0.002 -0.1181 -0.1714 -0.1860
 1425TIP3   OH225909   1.409   0.201   0.717 -0.0079 -0.5364  0.2461
 1425TIP3    H125910   1.492   0.237   0.748 -0.1287 -0.8882  1.0039
 1425TIP3    H225911   1.343   0.264   0.746 -0.0642 -0.5710  0.1922
 1426TIP3   OH225912   6.263   0.052   7.227 -0.0560  0.3107 -0.2521
 1426TIP3    H125913   6.170   0.062   7.248  0.1040 -0.0004  0.6845
 1426TIP3    H225914   6.304   0.132   7.261 -0.1086  0.9160 -1.5705
 1427TIP3   OH225915   4.652   5.687   1.309  0.2093  0.4303  0.0359
 1427TIP3    H125916   4.712   5.715   1.379  1.0658 -1.9026  0.3215
 1427TIP3    H225917   4.618   5.769   1.273 -1.7194  1.8716  4.3423
 1428TIP3   OH225918   1.591   1.130   8.172  0.3505 -0.5824 -0.2509
 1428TIP3    H125919   1.548   1.059   8.123  0.3528 -1.3343  0.8019
 1428TIP3    H225920   1.679   1.097   8.190 -0.5644 -1.6873  2.8807
 1429TIP3   OH225921   3.218   4.012   7.451 -0.0649  0.4332 -0.6752
 1429TIP3    H125922   3.162   4.031   7.376 -0.1274  1.4836 -0.3827
 1429TIP3    H225923   3.165   3.956   7.508 -0.0328 -0.3322 -1.3720
 1430TIP3   OH225924   1.512   1.172   7.829  0.0652 -0.7065 -0.2784
 1430TIP3    H125925   1.452   1.133   7.892 -0.8078  1.7571  0.5346
 1430TIP3    H225926   1.460   1.181   7.749  0.8480 -2.8466 -1.0849
 1431TIP3   OH225927   4.823   2.633   0.382  0.1143  0.2808  0.0188
 1431TIP3    H125928   4.896   2.587   0.425 -0.2700 -0.1393  0.2340
 1431TIP3    H225929   4.752   2.568   0.380  0.1040  0.3140 -1.2147
 1432TIP3   OH225930   5.073   6.520   7.196 -0.2780  0.0427 -0.5755
 1432TIP3    H125931   5.072   6.602   7.246 -0.3053 -0.8544  0.9452
 1432TIP3    H225932   5.010   6.535   7.125  0.2458  1.5819 -0.7567
 1433TIP3   OH225933   2.087   5.968   6.975 -1.1154 -0.0042 -0.5945
 1433TIP3    H125934   2.012   5.989   6.919  0.3360  1.7104 -2.0294
 1433TIP3    H225935   2.125   6.054   6.997  1.3197 -0.8333 -1.2522
 1434TIP3   OH225936   5.918   2.072   1.941 -0.6722 -0.3923 -0.0321
 1434TIP3    H125937   5.962   2.088   2.025  0.3301 -0.0793 -0.6035
 1434TIP3    H225938   5.985   2.032   1.886 -1.0357  0.2748 -0.9901
 1435TIP3   OH225939   4.034   0.465   8.403 -0.0327 -0.5624 -0.1225
 1435TIP3    H125940   3.964   0.529   8.418  1.7339  1.6780 -0.7553
 1435TIP3    H225941   4.104   0.493   8.461  0.7309 -2.1382 -0.2278
 1436TIP3   OH225942   2.634   4.179   1.248  0.0167 -0.2994  0.5511
 1436TIP3    H125943   2.544   4.204   1.269  0.5352  1.7470  0.5779
 1436TIP3    H225944   2.636   4.174   1.153 -0.6285 -2.5611  0.6188
 1437TIP3   OH225945   0.685   3.294   8.350  0.4154 -0.8840  0.0007
 1437TIP3    H125946   0.716   3.353   8.420 -2.1317 -2.4455  2.6971
 1437TIP3    H225947   0.726   3.210   8.370  0.6451 -1.0519 -1.1634
 1438TIP3   OH225948   0.685   3.194   0.887 -0.5143 -0.1959  0.2364
 1438TIP3    H125949   0.731   3.133   0.830  1.4503  2.2715 -1.0096
 1438TIP3    H225950   0.609   3.223   0.836  1.1598  1.8978 -1.2857
 1439TIP3   OH225951   1.387   5.395   0.337  0.2352  0.5961  0.4231
 1439TIP3    H125952   1.299   5.383   0.299  0.9206 -1.7681 -0.5564
 1439TIP3    H225953   1.385   5.484   0.372 -1.9407  1.2995 -1.2362
 1440TIP3   OH225954   2.388   0.914   0.317  0.2979 -0.1085 -0.2881
 1440TIP3    H125955   2.436   0.847   0.269 -0.1796 -0.0368 -0.8679
 1440TIP3    H225956   2.349   0.969   0.249 -1.1857 -0.5669  0.1578
 1441TIP3   OH225957   0.936   1.011   1.823  0.2564  0.3950  0.4005
 1441TIP3    H125958   1.029   1.024   1.806  0.3258  1.2523  1.3170
 1441TIP3    H225959   0.908   0.946   1.759  1.1919  1.1045 -0.7643
 1442TIP3   OH225960   2.247   2.237   1.816 -0.6143 -0.0932 -0.3130
 1442TIP3    H125961   2.246   2.159   1.872 -1.1596  1.1492  1.5074
 1442TIP3    H225962   2.332   2.235   1.774 -0.6146 -1.6587 -0.3050
 1443TIP3   OH225963   0.633   5.165   2.251 -0.0018  0.6049 -0.3599
 1443TIP3    H125964   0.707   5.139   2.306 -0.6567 -0.9853 -0.1770
 1443TIP3    H225965   0.557   5.124   2.292 -0.6333  0.0825 -1.9495
 1444TIP3   OH225966   1.754   4.644   0.534 -0.2459  0.3046 -0.3265
 1444TIP3    H125967   1.724   4.655   0.444 -0.6892  0.6735 -0.1400
 1444TIP3    H225968   1.769   4.734   0.565 -1.3513  0.2673  0.3817
 1445TIP3   OH225969   4.096   5.422   7.102  0.1409  0.2906  0.1637
 1445TIP3    H125970   4.075   5.496   7.045  0.5029  1.9528  2.0781
 1445TIP3    H225971   4.049   5.439   7.183  0.4810 -1.4392  0.7761
 1446TIP3   OH225972   5.449   6.800   8.876 -0.5188  0.0502  0.4498
 1446TIP3    H125973   5.524   6.762   8.921 -0.4964  0.3689  0.6825
 1446TIP3    H225974   5.419   6.870   8.934 -2.9651 -2.0745  1.9987
 1447TIP3   OH225975   6.161   5.959   2.862  0.4835  0.2327 -0.5156
 1447TIP3    H125976   6.200   5.922   2.941 -2.7619  0.8064  1.5538
 1447TIP3    H225977   6.186   6.052   2.864  0.8233  0.1411 -0.4568
 1448TIP3   OH225978   5.763   5.339   8.504 -0.5391 -0.5567  0.9224
 1448TIP3    H125979   5.813   5.408   8.460 -1.2887 -0.1614  0.6799
 1448TIP3    H225980   5.751   5.271   8.438 -1.8362  0.1242  0.4460
 1449TIP3   OH225981   0.220   0.127   0.474 -0.2860 -0.5906  0.2189
 1449TIP3    H125982   0.161   0.055   0.453 -0.2640 -0.2982 -0.8857
 1449TIP3    H225983   0.194   0.197   0.415 -0.0093  0.1598  0.9724
 1450TIP3   OH225984   6.263   4.623   1.241 -0.4752  0.2445 -0.5963
 1450TIP3    H125985   6.256   4.630   1.336 -0.5555  0.1920 -0.5985
 1450TIP3    H225986   6.286   4.712   1.212  2.0938 -0.2618 -0.3038
 1451TIP3   OH225987   2.981   1.671   6.722  0.1464  0.1027  0.4490
 1451TIP3    H125988   2.985   1.577   6.702 -1.3749  0.2634 -0.8568
 1451TIP3    H225989   2.904   1.680   6.778  1.6225  0.3151  2.5382
 1452TIP3   OH225990   3.097   2.062   8.715  0.3067 -0.1519 -0.5148
 1452TIP3    H125991   3.022   2.027   8.667  0.0224 -1.9601  1.1356
 1452TIP3    H225992   3.060   2.100   8.794  1.0134  0.2932 -0.3864
 1453TIP3   OH225993   4.581   6.433   0.849  0.4732 -0.3169  0.1171
 1453TIP3    H125994   4.621   6.408   0.766  1.3328 -1.5286  0.8682
 1453TIP3    H225995   4.575   6.528   0.845 -1.1629 -0.4417 -2.0595
 1454TIP3   OH225996   1.364   2.878   2.505 -0.7150  0.0361  0.0722
 1454TIP3    H125997   1.431   2.905   2.567 -2.5681 -0.9644  2.7384
 1454TIP3    H225998   1.288   2.933   2.527 -2.0253 -1.6933  0.1374
 1455TIP3   OH225999   5.080   2.585   0.738 -0.4896 -0.1246  0.3546
 1455TIP3    H126000   5.170   2.592   0.771 -1.0661  0.5793  1.8692
 1455TIP3    H226001   5.043   2.672   0.752 -2.0260 -0.9399  1.6939
 1456TIP3   OH226002   5.033   0.828   8.012  0.2215  0.0502 -0.3226
 1456TIP3    H126003   5.098   0.759   7.995 -0.0708 -0.2768 -0.1129
 1456TIP3    H226004   5.041   0.886   7.936  0.6761 -0.0515 -0.3590
 1457TIP3   OH226005   5.260   0.178   8.237 -0.0581 -0.5458  0.5985
 1457TIP3    H126006   5.305   0.240   8.179  0.8947 -1.3395  0.4478
 1457TIP3    H226007   5.205   0.127   8.178  0.9097 -1.3520  0.3539
 1458TIP3   OH226008   5.413   0.379   6.570  0.1222 -0.1817  0.2176
 1458TIP3    H126009   5.354   0.454   6.565 -0.6751 -0.8669 -1.1497
 1458TIP3    H226010   5.361   0.311   6.614  0.2995 -0.4236  0.0526
 1459TIP3   OH226011   3.999   4.511   7.545  0.3132  0.2618  0.5337
 1459TIP3    H126012   4.052   4.479   7.619  0.4535 -2.4048 -0.5769
 1459TIP3    H226013   3.981   4.432   7.494 -0.4788  1.8779 -1.8458
 1460TIP3   OH226014   0.458   3.620   7.313  0.1969 -0.1217 -0.7981
 1460TIP3    H126015   0.492   3.605   7.224 -0.9000 -3.4926 -0.7799
 1460TIP3    H226016   0.364   3.630   7.301  0.0072 -0.8728 -0.0300
 1461TIP3   OH226017   5.146   5.778   7.779  0.0145 -0.0686  0.0487
 1461TIP3    H126018   5.118   5.854   7.728  1.3219 -0.0712 -0.7160
 1461TIP3    H226019   5.075   5.764   7.842 -1.2391  0.4804 -1.1817
 1462TIP3   OH226020   0.782   3.395   7.199  0.1104 -0.2992 -0.3881
 1462TIP3    H126021   0.703   3.427   7.155  0.6296 -0.7684 -1.7154
 1462TIP3    H226022   0.843   3.376   7.128  0.7468 -1.7476  0.4992
 1463TIP3   OH226023   6.561   4.586   2.925 -0.1481 -0.4125 -0.0597
 1463TIP3    H126024   6.560   4.663   2.981  0.8117  0.6315 -1.4171
 1463TIP3    H226025   6.646   4.589   2.882 -0.4742 -1.7171 -0.8484
 1464TIP3   OH226026   5.687   3.134   1.016 -0.6978 -0.0219 -0.2007
 1464TIP3    H126027   5.668   3.148   0.923  0.1986  2.1961 -0.1279
 1464TIP3    H226028   5.636   3.201   1.061 -0.6414 -0.6730  0.8676
 1465TIP3   OH226029   3.549   5.873   2.556 -0.5486 -0.3172  0.4239
 1465TIP3    H126030   3.522   5.828   2.636  1.9743 -1.5759  0.6747
 1465TIP3    H226031   3.614   5.937   2.585 -0.4054 -0.0229 -0.5068
 1466TIP3   OH226032   6.573   1.120   2.653  0.0259  0.1652 -0.2130
 1466TIP3    H126033   6.663   1.127   2.623 -0.2368 -0.2163 -1.1442
 1466TIP3    H226034   6.521   1.145   2.577 -0.6641 -0.3351  0.0801
 1467TIP3   OH226035   0.057   5.520   0.245 -0.0892 -0.4972 -0.2510
 1467TIP3    H126036   0.133   5.469   0.274  1.1289  1.1258 -0.4822
 1467TIP3    H226037   0.043   5.584   0.315 -0.0321  0.4451 -1.0862
 1468TIP3   OH226038   1.469   6.577   6.857  0.4363 -0.6903 -0.1338
 1468TIP3    H126039   1.507   6.490   6.844  0.7918 -0.3567 -1.5715
 1468TIP3    H226040   1.538   6.637   6.829  0.0116  0.0367  0.3583
 1469TIP3   OH226041   5.173   0.050   7.625  0.2614  0.2281 -0.4037
 1469TIP3    H126042   5.200   0.093   7.544 -1.2553  1.4438 -0.3134
 1469TIP3    H226043   5.238  -0.019   7.638 -0.6210 -1.5255 -3.8509
 1470TIP3   OH226044   0.557   0.817   0.230 -0.1917 -0.2799  0.2514
 1470TIP3    H126045   0.644   0.842   0.199 -1.5204  1.6782 -2.2554
 1470TIP3    H226046   0.535   0.883   0.296  0.3365 -0.9746  1.1313
 1471TIP3   OH226047   3.222   2.612   1.608 -0.4718  0.2970  0.0862
 1471TIP3    H126048   3.276   2.653   1.675 -0.2092 -0.8146  0.5787
 1471TIP3    H226049   3.271   2.625   1.526 -0.3517  0.8713  0.2497
 1472TIP3   OH226050   3.946   5.316   2.168  0.6614 -0.1248  0.1713
 1472TIP3    H126051   3.971   5.308   2.261 -0.8481 -0.7453  0.5580
 1472TIP3    H226052   3.977   5.402   2.142 -0.9772  1.1075  1.9725
 1473TIP3   OH226053   4.659   5.032   3.150 -0.6947 -0.0217 -0.3677
 1473TIP3    H126054   4.717   4.958   3.162 -1.2491 -0.4195 -0.0763
 1473TIP3    H226055   4.716   5.108   3.149 -0.0931 -0.4728 -0.9702
 1474TIP3   OH226056   6.056   4.063   1.574 -0.8716  0.2287 -0.1264
 1474TIP3    H126057   6.003   4.021   1.506 -0.0855 -0.7616 -0.1515
 1474TIP3    H226058   6.094   4.140   1.531 -0.7099 -0.1588 -0.6862
 1475TIP3   OH226059   6.053   2.327   7.798  0.2657 -0.0765  0.4893
 1475TIP3    H126060   6.128   2.354   7.745  0.8828 -2.0099  0.2986
 1475TIP3    H226061   6.062   2.378   7.879 -0.3681  2.5039 -0.9333
 1476TIP3   OH226062   1.552   4.883   7.450 -0.4702 -0.1227  0.4724
 1476TIP3    H126063   1.536   4.948   7.381  2.6334 -0.9505 -1.2126
 1476TIP3    H226064   1.625   4.919   7.501  0.1614 -1.4626  0.5724
 1477TIP3   OH226065   5.245   5.782   7.157  0.0335 -0.0809 -0.4630
 1477TIP3    H126066   5.169   5.741   7.116  0.9965 -0.8317 -1.5753
 1477TIP3    H226067   5.284   5.835   7.087 -1.0268  2.6147  0.8674
 1478TIP3   OH226068   3.694   3.940   7.895  0.1803 -0.3620 -0.3980
 1478TIP3    H126069   3.673   3.905   7.808  1.2716 -1.8727 -0.0872
 1478TIP3    H226070   3.753   3.876   7.933 -1.0703 -0.2572  1.9001
 1479TIP3   OH226071   5.728   1.490   2.200  0.3301 -0.0039  0.0244
 1479TIP3    H126072   5.696   1.575   2.231  1.3834  0.4121 -0.0075
 1479TIP3    H226073   5.689   1.480   2.113 -0.0603  0.2932  0.1600
 1480TIP3   OH226074   4.523   5.882   7.653  0.7118 -0.1066 -0.4848
 1480TIP3    H126075   4.495   5.945   7.586  1.5327  0.0574 -0.6853
 1480TIP3    H226076   4.603   5.844   7.617  0.7488 -0.5623  0.0776
 1481TIP3   OH226077   5.379   5.638   0.214  0.1454 -0.3036 -0.0535
 1481TIP3    H126078   5.452   5.646   0.152  0.0428  0.4172 -0.0884
 1481TIP3    H226079   5.309   5.690   0.175  0.4761  1.1871  1.2423
 1482TIP3   OH226080   4.707   5.943   1.043  0.0144 -0.0777  0.2408
 1482TIP3    H126081   4.768   5.887   1.090  0.1150  1.7610  2.4669
 1482TIP3    H226082   4.744   5.951   0.955  1.8635 -0.6910  0.9239
 1483TIP3   OH226083   4.725   4.384   7.994  0.3153 -0.6065  0.4391
 1483TIP3    H126084   4.702   4.354   8.082  2.2620 -0.3879  1.0567
 1483TIP3    H226085   4.793   4.325   7.964  1.0944  0.5195 -0.1071
 1484TIP3   OH226086   5.502   4.320   0.671  0.4460  0.4294 -0.2488
 1484TIP3    H126087   5.527   4.307   0.580 -0.8277 -0.6935 -0.4646
 1484TIP3    H226088   5.482   4.232   0.703  0.5029  0.8524  1.0160
 1485TIP3   OH226089   1.180   6.041   1.384  0.1647 -0.1921 -0.2322
 1485TIP3    H126090   1.228   5.958   1.386  2.3148  0.9686  0.4226
 1485TIP3    H226091   1.101   6.023   1.333  0.8942 -2.4530 -0.6573
 1486TIP3   OH226092   4.600   5.408   1.267  0.2308 -0.0766 -0.0621
 1486TIP3    H126093   4.686   5.371   1.247 -0.1231 -1.2572  0.5078
 1486TIP3    H226094   4.618   5.497   1.299  1.3053 -0.5725  0.7588
 1487TIP3   OH226095   5.344   4.779   1.637  0.8408  0.0872  0.4174
 1487TIP3    H126096   5.378   4.866   1.659 -0.1235  0.8278 -0.8921
 1487TIP3    H226097   5.419   4.720   1.647  1.3497  0.9422  1.9791
 1488TIP3   OH226098   2.718   0.809   8.799  0.1618 -0.5975  0.2487
 1488TIP3    H126099   2.661   0.748   8.753  0.8701 -1.9708  1.1166
 1488TIP3    H226100   2.807   0.781   8.774  0.5049 -0.3025  1.1156
 1489TIP3   OH226101   4.260   0.467   1.077 -0.3269 -0.1711  0.3853
 1489TIP3    H126102   4.241   0.375   1.058  2.3850 -0.9542  1.0073
 1489TIP3    H226103   4.353   0.468   1.098 -0.3947  2.6659  0.9139
 1490TIP3   OH226104   1.236   0.599   1.923 -0.3306  0.1918 -0.1956
 1490TIP3    H126105   1.265   0.524   1.975  0.8177  0.9592  0.3161
 1490TIP3    H226106   1.210   0.664   1.988  0.6325  0.9795 -0.5889
 1491TIP3   OH226107   4.966   3.058   8.017  0.1141  0.5397 -0.4382
 1491TIP3    H126108   5.025   3.028   8.085  0.5206  0.8494 -0.6468
 1491TIP3    H226109   4.881   3.020   8.039  0.7312 -1.2713 -1.0439
 1492TIP3   OH226110   0.456   6.248   0.503  0.1613  0.0961  0.0736
 1492TIP3    H126111   0.480   6.243   0.411 -0.1956 -1.5639  0.0278
 1492TIP3    H226112   0.503   6.175   0.544 -1.4345 -0.6068  0.7549
 1493TIP3   OH226113   1.773   0.917   0.709  0.4963  0.0631  0.0180
 1493TIP3    H126114   1.768   0.845   0.771 -0.8967  0.0725 -0.0491
 1493TIP3    H226115   1.866   0.938   0.703  0.7322 -0.4660  1.4891
 1494TIP3   OH226116   0.755   4.889   2.227 -0.1311  0.3872  0.3187
 1494TIP3    H126117   0.796   4.934   2.300  3.3253 -1.5492 -0.2233
 1494TIP3    H226118   0.698   4.824   2.267 -0.4459  1.1755  1.1811
 1495TIP3   OH226119   2.049   2.271   0.890  0.3045  0.1493 -0.8211
 1495TIP3    H126120   2.050   2.312   0.976  0.3476 -0.3495 -0.5844
 1495TIP3    H226121   1.956   2.252   0.873  0.2376  0.6826 -1.0993
 1496TIP3   OH226122   3.169   1.308   8.549  0.1239  0.2099  0.0402
 1496TIP3    H126123   3.215   1.391   8.535  0.1791  0.0953 -0.5081
 1496TIP3    H226124   3.224   1.260   8.610  0.5042  0.2578 -0.2597
 1497TIP3   OH226125   1.602   2.041   1.464 -0.0718  0.2405  0.1574
 1497TIP3    H126126   1.543   2.116   1.460 -1.1207 -0.5302  0.6536
 1497TIP3    H226127   1.642   2.046   1.550  2.6670  2.2397 -1.1039
 1498TIP3   OH226128   4.962   2.322   8.922 -0.7046  0.0199  0.2913
 1498TIP3    H126129   5.040   2.291   8.968  0.6130 -0.1489 -1.9051
 1498TIP3    H226130   4.963   2.417   8.934  0.4020  0.1269 -0.4786
 1499TIP3   OH226131   5.920   3.511   8.019  0.0429 -0.1260  0.0565
 1499TIP3    H126132   5.989   3.483   7.959  2.2711 -0.1554  2.4912
 1499TIP3    H226133   5.865   3.433   8.030 -0.6332 -0.0210 -2.1150
 1500TIP3   OH226134   1.030   2.131   6.865  0.1090 -0.1441  0.0105
 1500TIP3    H126135   1.021   2.037   6.847 -1.1897  0.1672 -1.1389
 1500TIP3    H226136   0.980   2.146   6.945 -2.0417 -0.0210 -1.2781
 1501TIP3   OH226137   4.212   6.221   8.317  0.5232 -0.0489 -0.2894
 1501TIP3    H126138   4.272   6.147   8.324  0.0722 -0.3674  0.2563
 1501TIP3    H226139   4.131   6.184   8.281 -0.5233 -0.3201  2.1441
 1502TIP3   OH226140   5.269   3.862   7.269 -0.4992 -0.6374 -0.1187
 1502TIP3    H126141   5.253   3.847   7.176 -1.2230 -0.8851  0.0433
 1502TIP3    H226142   5.269   3.775   7.308 -1.4151 -0.4608  0.2977
 1503TIP3   OH226143   4.930   0.360   1.723  0.7406 -0.6905  0.5638
 1503TIP3    H126144   4.956   0.342   1.813  2.0435 -0.9938  0.1517
 1503TIP3    H226145   4.957   0.282   1.674  1.5050  0.1196 -0.3432
 1504TIP3   OH226146   3.382   1.423   1.165 -0.1480  0.1805 -0.5624
 1504TIP3    H126147   3.392   1.441   1.071 -1.3288 -0.7787 -0.8948
 1504TIP3    H226148   3.322   1.350   1.169  0.3318 -0.1668  0.9458
 1505TIP3   OH226149   5.481   2.826   1.244 -0.5379  0.8665 -0.1724
 1505TIP3    H126150   5.417   2.828   1.173 -0.7891 -2.1871 -0.1827
 1505TIP3    H226151   5.556   2.875   1.211 -2.0830  2.8773 -0.9086
 1506TIP3   OH226152   3.684   0.948   8.081  0.5274 -0.0900 -0.3613
 1506TIP3    H126153   3.709   0.965   8.172 -0.5166 -0.9468  0.1046
 1506TIP3    H226154   3.649   1.032   8.050 -1.6229 -0.4487  0.9083
 1507TIP3   OH226155   5.283   5.682   8.332 -0.2475  0.2471 -0.1677
 1507TIP3    H126156   5.306   5.607   8.277  0.5466  0.7117 -0.4889
 1507TIP3    H226157   5.202   5.656   8.376 -0.2530 -0.5951 -0.6596
 1508TIP3   OH226158   5.877   2.893   8.697 -0.3326 -0.1666  0.0754
 1508TIP3    H126159   5.887   2.966   8.636  0.9579  0.6328  1.1627
 1508TIP3    H226160   5.850   2.935   8.779  0.5474 -0.8753  0.7438
 1509TIP3   OH226161   5.615   0.529   7.580  0.0026  0.2150  0.1386
 1509TIP3    H126162   5.707   0.556   7.576 -0.4421  2.3032  1.8158
 1509TIP3    H226163   5.587   0.524   7.489  2.3245 -2.8945 -0.5673
 1510TIP3   OH226164   0.197   5.929   1.755  0.6493 -0.3809 -0.2575
 1510TIP3    H126165   0.242   5.880   1.823 -0.6803 -1.0432  0.1885
 1510TIP3    H226166   0.221   5.886   1.673 -0.3417 -1.6749  0.1131
 1511TIP3   OH226167   0.116   1.827   1.903 -0.1518 -0.0178  0.0119
 1511TIP3    H126168   0.162   1.912   1.907  0.4961 -0.3344 -0.4242
 1511TIP3    H226169   0.168   1.769   1.958 -1.7826  0.3761  2.0613
 1512TIP3   OH226170   1.151   1.272   1.702  0.7195  0.1424 -0.1060
 1512TIP3    H126171   1.144   1.304   1.792  2.3723 -3.2181  1.3973
 1512TIP3    H226172   1.226   1.319   1.666  0.3806  1.1280  0.4478
 1513TIP3   OH226173   6.209   0.550   2.810 -0.2782 -0.0512 -0.4850
 1513TIP3    H126174   6.130   0.555   2.864  0.0996 -1.3679  0.2322
 1513TIP3    H226175   6.257   0.631   2.829 -0.4759 -0.1844  0.6585
 1514TIP3   OH226176   1.684   1.026   8.929  0.1185 -0.2548  0.2383
 1514TIP3    H126177   1.715   0.937   8.949 -1.0092 -1.0369 -1.2490
 1514TIP3    H226178   1.600   1.033   8.974 -0.0904 -0.1942 -0.1534
 1515TIP3   OH226179   4.687   1.423   0.094  0.1313 -0.3565 -0.0569
 1515TIP3    H126180   4.725   1.336   0.097  1.8432  0.2838 -1.3059
 1515TIP3    H226181   4.641   1.427   0.010 -1.6621 -0.6642  0.8523
 1516TIP3   OH226182   5.587   3.751   7.475 -0.5483  0.0147 -0.2729
 1516TIP3    H126183   5.609   3.798   7.556 -0.0164 -1.0493  0.2406
 1516TIP3    H226184   5.571   3.819   7.411 -1.9974  0.9129  0.9813
 1517TIP3   OH226185   3.891   3.386   7.084 -0.2558 -1.0505  0.2518
 1517TIP3    H126186   3.926   3.473   7.104 -0.2005 -0.9024 -0.4596
 1517TIP3    H226187   3.828   3.369   7.155 -1.8181  0.4771 -0.6731
 1518TIP3   OH226188   1.328   1.632   2.645  0.0032 -0.2190 -0.3157
 1518TIP3    H126189   1.318   1.673   2.559  0.5903 -1.2818 -0.9103
 1518TIP3    H226190   1.357   1.543   2.626  0.3718 -0.3995  0.9954
 1519TIP3   OH226191   3.180   6.617   8.907  0.6820  0.3681  0.6657
 1519TIP3    H126192   3.209   6.639   8.819  1.9832  1.3127  1.2895
 1519TIP3    H226193   3.165   6.522   8.905  1.5301  0.2417 -0.3484
 1520TIP3   OH226194   2.000   1.975   2.196  0.0165 -0.3851  0.1740
 1520TIP3    H126195   1.981   1.944   2.284 -0.6159  1.7932  0.8538
 1520TIP3    H226196   2.003   2.070   2.204 -0.1029 -0.1326 -2.1782
 1521TIP3   OH226197   4.706   3.247   0.049 -0.1389  0.5619 -0.2981
 1521TIP3    H126198   4.757   3.294  -0.017  1.0718 -0.3660 -0.0566
 1521TIP3    H226199   4.707   3.156   0.020  0.4490  0.1258  0.9969
 1522TIP3   OH226200   0.788   4.750   8.575  0.6371 -0.1102 -0.3980
 1522TIP3    H126201   0.703   4.786   8.551  0.3885 -0.7010 -0.4242
 1522TIP3    H226202   0.771   4.698   8.654  0.8791 -0.5958 -0.6559
 1523TIP3   OH226203   5.475   1.770   6.967  0.0735 -0.5056 -0.2292
 1523TIP3    H126204   5.380   1.767   6.957  0.0538 -1.0401  0.1054
 1523TIP3    H226205   5.505   1.685   6.936  0.7979  0.8434 -3.8138
 1524TIP3   OH226206   2.335   5.596   0.273  0.2455  0.2435 -0.4424
 1524TIP3    H126207   2.314   5.583   0.181  0.3316  0.6476 -0.5226
 1524TIP3    H226208   2.301   5.519   0.317  0.5097 -0.1117 -0.8589
 1525TIP3   OH226209   4.103   5.748   8.544  0.6292  0.1510 -0.0303
 1525TIP3    H126210   4.083   5.808   8.473  0.4267  2.0690  1.5725
 1525TIP3    H226211   4.167   5.794   8.598  0.0384 -0.8100  1.5593
 1526TIP3   OH226212   1.628   3.984   8.288 -0.0025  0.1025  0.2510
 1526TIP3    H126213   1.547   4.013   8.246  1.8477  1.5038 -2.7100
 1526TIP3    H226214   1.599   3.926   8.359 -3.5382  0.3855 -0.7624
 1527TIP3   OH226215   5.604   6.664   8.665 -0.2418  0.3573  0.3633
 1527TIP3    H126216   5.654   6.733   8.708  1.2035 -0.6197  0.2847
 1527TIP3    H226217   5.559   6.619   8.737  1.5803 -0.8018  0.8306
 1528TIP3   OH226218   5.126   5.826   0.308 -0.1180  0.4092 -0.0793
 1528TIP3    H126219   5.105   5.747   0.359  0.9477 -0.7566 -1.3677
 1528TIP3    H226220   5.097   5.805   0.219 -0.3658  1.7319 -0.3220
 1529TIP3   OH226221   1.563   6.175   0.840  0.0976 -0.2750 -0.0917
 1529TIP3    H126222   1.546   6.097   0.787 -2.0446 -0.3051  0.5245
 1529TIP3    H226223   1.543   6.249   0.783  1.1735 -0.1846 -0.3706
 1530TIP3   OH226224   5.349   2.504   1.619 -0.4894 -0.0471  0.0180
 1530TIP3    H126225   5.399   2.544   1.548  0.1838  0.8414  0.9799
 1530TIP3    H226226   5.350   2.410   1.598 -0.5336  0.2170 -1.2785
 1531TIP3   OH226227   1.844   3.727   0.219 -0.2752  0.0877  0.2586
 1531TIP3    H126228   1.750   3.728   0.205 -0.2332 -0.5336 -0.1167
 1531TIP3    H226229   1.866   3.635   0.233  0.3733  0.1205 -0.4346
 1532TIP3   OH226230   2.410   5.874   0.694 -1.0230 -0.0189 -0.4789
 1532TIP3    H126231   2.396   5.842   0.605 -2.3534  2.2281 -1.1636
 1532TIP3    H226232   2.393   5.799   0.750 -0.2685 -1.4572 -2.0887
 1533TIP3   OH226233   4.061   4.618   0.638 -0.0143  0.0238  0.5473
 1533TIP3    H126234   4.143   4.574   0.659  0.1242 -1.1703 -2.1106
 1533TIP3    H226235   4.086   4.708   0.618  0.0896  0.6597  3.1950
 1534TIP3   OH226236   5.404   2.463   0.451 -0.1776  0.2625 -0.6750
 1534TIP3    H126237   5.473   2.407   0.484  0.0244 -0.5590 -2.3717
 1534TIP3    H226238   5.322   2.416   0.470 -0.0459 -0.3392 -1.5074
 1535TIP3   OH226239   6.358   6.379   7.641  0.8471 -0.3235 -0.5999
 1535TIP3    H126240   6.445   6.414   7.625  2.0888 -3.5356 -1.9015
 1535TIP3    H226241   6.304   6.413   7.570  0.7253  2.2740  0.6239
 1536TIP3   OH226242   3.470   3.106   8.506 -0.9067  0.2402  0.3435
 1536TIP3    H126243   3.551   3.124   8.555  0.2415 -0.6624 -1.1274
 1536TIP3    H226244   3.500   3.089   8.416 -2.7811  0.2489 -0.3189
 1537TIP3   OH226245   2.280   3.217   1.626 -0.5766  0.3363 -0.2749
 1537TIP3    H126246   2.316   3.171   1.701 -0.1987  0.1565 -0.5618
 1537TIP3    H226247   2.248   3.300   1.662 -0.4312  0.2375  0.0886
 1538TIP3   OH226248   6.736   2.932   7.894 -0.1095  0.1601 -0.1702
 1538TIP3    H126249   6.678   2.918   7.819 -0.0193  0.2760 -0.2605
 1538TIP3    H226250   6.778   2.847   7.908  1.2758  0.6092 -1.4149
 1539TIP3   OH226251   3.662   3.890   1.814 -0.5670 -0.0403 -0.5010
 1539TIP3    H126252   3.737   3.893   1.754 -1.4726 -1.4689 -1.8071
 1539TIP3    H226253   3.676   3.963   1.874  0.0147  2.0326 -2.9472
 1540TIP3   OH226254   2.356   4.242   8.882  0.0963  0.3081 -0.5040
 1540TIP3    H126255   2.418   4.304   8.843  0.2207  1.4094  1.2822
 1540TIP3    H226256   2.411   4.178   8.926 -0.0434 -0.5462 -1.5414
 1541TIP3   OH226257   2.868   5.628   1.177 -0.3888 -0.3319 -0.1669
 1541TIP3    H126258   2.790   5.605   1.127  0.1263 -0.3611 -0.9797
 1541TIP3    H226259   2.881   5.721   1.161 -1.0953  0.0095  1.1721
 1542TIP3   OH226260   5.277   1.415   7.924  0.0083 -0.5926  0.1729
 1542TIP3    H126261   5.371   1.404   7.936  0.8892  2.8921 -2.1335
 1542TIP3    H226262   5.243   1.430   8.012  1.8648 -0.2990  0.8763
 1543TIP3   OH226263   1.103   3.982   7.758  0.0241 -0.4591  0.0574
 1543TIP3    H126264   1.176   3.931   7.721  0.3528  0.2966 -0.3630
 1543TIP3    H226265   1.058   4.018   7.682  0.5139  0.8515  0.3629
 1544TIP3   OH226266   6.499   0.290   2.000  0.0118  0.1847 -0.2731
 1544TIP3    H126267   6.502   0.208   1.950  0.1111  1.1030 -1.8202
 1544TIP3    H226268   6.490   0.262   2.091 -0.6332 -1.5305 -0.8326
 1545TIP3   OH226269   5.681   5.695   1.670  0.7356  0.1885  0.0738
 1545TIP3    H126270   5.765   5.740   1.678 -0.2168  1.9263  0.8427
 1545TIP3    H226271   5.626   5.756   1.621 -0.0978 -0.9304 -0.4280
 1546TIP3   OH226272   5.474   2.891   7.194 -0.6824 -0.1794  0.1387
 1546TIP3    H126273   5.459   2.797   7.203  2.1302 -0.7906 -0.4138
 1546TIP3    H226274   5.494   2.904   7.101 -1.7357  1.1330  0.0526
 1547TIP3   OH226275   6.347   2.370   0.879 -0.3176 -0.1939  0.0110
 1547TIP3    H126276   6.269   2.424   0.889 -0.2290 -0.0577 -0.0250
 1547TIP3    H226277   6.406   2.400   0.948 -0.5607 -0.7668  0.4777
 1548TIP3   OH226278   1.503   0.635   1.715 -0.3170  0.0106 -0.1461
 1548TIP3    H126279   1.417   0.643   1.755 -0.1583  0.6950  0.0699
 1548TIP3    H226280   1.562   0.680   1.775 -0.3255  2.6714 -1.9494
 1549TIP3   OH226281   1.187   5.326   7.939  0.4611  0.5713  0.2429
 1549TIP3    H126282   1.277   5.353   7.922  0.4742  0.1786 -0.3699
 1549TIP3    H226283   1.148   5.399   7.987  0.8885  1.0750 -0.1608
 1550TIP3   OH226284   3.485   4.377   7.600  0.2421  0.1263  0.4370
 1550TIP3    H126285   3.441   4.436   7.539 -0.7474 -0.4496  0.5540
 1550TIP3    H226286   3.548   4.431   7.647  0.3791  0.7617 -0.4756
 1551TIP3   OH226287   5.958   4.028   7.828  0.4738 -0.0493  0.8378
 1551TIP3    H126288   5.956   4.036   7.924  0.1057 -0.1790  0.8444
 1551TIP3    H226289   6.047   4.052   7.804  0.6213 -0.1907  1.2303
 1552TIP3   OH226290   1.609   6.204   0.451  0.1332  0.0508  0.0454
 1552TIP3    H126291   1.524   6.239   0.480  0.7796  2.0022 -0.2233
 1552TIP3    H226292   1.662   6.282   0.435  1.0102 -1.0156 -2.8060
 1553TIP3   OH226293   6.633   0.107   1.517 -0.2307 -0.6711 -0.2748
 1553TIP3    H126294   6.548   0.118   1.560 -0.3371 -0.6284 -0.4942
 1553TIP3    H226295   6.649   0.013   1.517 -0.4780 -0.7132 -0.6182
 1554TIP3   OH226296   3.132   0.603   0.887 -0.1455  0.1918 -0.1747
 1554TIP3    H126297   3.096   0.626   0.972 -1.3317  0.8604 -0.8276
 1554TIP3    H226298   3.160   0.687   0.849 -1.3618  0.1730 -1.1846
 1555TIP3   OH226299   6.371   6.431   0.172 -0.2726  0.2323  0.6087
 1555TIP3    H126300   6.310   6.358   0.175  1.1538 -1.0911 -0.4278
 1555TIP3    H226301   6.332   6.493   0.111 -0.6590 -0.5211  0.0787
 1556TIP3   OH226302   2.097   0.951   8.176 -0.1987  0.2632  0.1411
 1556TIP3    H126303   2.123   0.988   8.092 -0.9259  1.7853  0.5577
 1556TIP3    H226304   2.163   0.983   8.238 -1.3764  1.7424  0.6800
 1557TIP3   OH226305   1.687   5.227   8.133  0.8605  0.5319  0.0209
 1557TIP3    H126306   1.682   5.133   8.117  1.4915  0.6576 -1.0774
 1557TIP3    H226307   1.748   5.236   8.207 -0.8823 -0.0002  1.5974
 1558TIP3   OH226308   3.703   2.813   7.482 -0.5033 -0.3080 -0.3816
 1558TIP3    H126309   3.609   2.817   7.466 -0.3329  0.7652 -1.1595
 1558TIP3    H226310   3.736   2.900   7.458  0.8006 -0.9071 -0.8440
 1559TIP3   OH226311   1.120   4.223   2.074  0.0793  0.0659  0.0193
 1559TIP3    H126312   1.147   4.132   2.068 -0.0516 -0.1216  1.7788
 1559TIP3    H226313   1.177   4.269   2.013 -0.9972 -1.3850 -2.2240
 1560TIP3   OH226314   5.652   0.015   2.487  0.0703  0.1729 -0.2681
 1560TIP3    H126315   5.697   0.098   2.471  0.1417 -0.1785 -2.1588
 1560TIP3    H226316   5.722  -0.047   2.507  0.1514  0.2430 -0.3343
 1561TIP3   OH226317   5.894   4.466   2.668 -0.1771 -0.6149 -0.3186
 1561TIP3    H126318   5.955   4.445   2.598  0.5068  1.5877 -0.4747
 1561TIP3    H226319   5.843   4.540   2.635  0.8299  1.1509  1.7834
 1562TIP3   OH226320   5.490   2.446   0.832  0.0347 -0.0917  0.6222
 1562TIP3    H126321   5.512   2.388   0.758  0.6965 -0.0073  0.7420
 1562TIP3    H226322   5.551   2.420   0.901  2.5196  2.7360 -0.2904
 1563TIP3   OH226323   6.643   3.348   8.632 -0.0698  0.2750 -0.4781
 1563TIP3    H126324   6.557   3.329   8.595  0.5610  1.0404 -2.4649
 1563TIP3    H226325   6.704   3.292   8.583  0.4524 -1.9307  2.3416
 1564TIP3   OH226326   5.756   2.004   0.264  0.6717 -0.3939  0.2836
 1564TIP3    H126327   5.755   2.042   0.351  0.7589  0.3494 -0.0323
 1564TIP3    H226328   5.831   1.943   0.265  1.0213  0.0372  0.5486
 1565TIP3   OH226329   5.062   2.622   6.875  0.5497  0.6117 -0.3346
 1565TIP3    H126330   5.041   2.533   6.903 -1.3547  0.6840 -1.3027
 1565TIP3    H226331   5.068   2.616   6.780  0.5665  1.4789 -0.3972
 1566TIP3   OH226332   2.259   2.388   7.931 -0.3775  0.3406  0.0738
 1566TIP3    H126333   2.189   2.328   7.908 -0.4500  0.5366 -0.2231
 1566TIP3    H226334   2.214   2.469   7.957 -0.3645 -0.2254  2.0758
 1567TIP3   OH226335   3.198   2.094   8.188  0.3132  0.2504  0.2798
 1567TIP3    H126336   3.227   2.178   8.153 -1.3213  0.6146 -0.2587
 1567TIP3    H226337   3.184   2.110   8.282  1.0089  0.2906  0.3793
 1568TIP3   OH226338   5.666   6.533   0.216 -0.9930  0.1177 -0.4201
 1568TIP3    H126339   5.666   6.624   0.247 -2.0990  0.2918 -0.8592
 1568TIP3    H226340   5.701   6.483   0.289 -1.1704  0.8064  0.1562
 1569TIP3   OH226341   2.073   0.525   8.667 -0.0966  0.2426  0.1113
 1569TIP3    H126342   1.982   0.526   8.639 -0.8496  0.4669  2.3495
 1569TIP3    H226343   2.110   0.606   8.630 -1.1926  0.8659  0.3378
 1570TIP3   OH226344   3.929   4.050   0.608  0.1422 -0.6235  0.7010
 1570TIP3    H126345   4.008   4.081   0.653 -0.0633 -0.1035  0.7140
 1570TIP3    H226346   3.859   4.063   0.671  0.2739 -2.6857  1.3375
 1571TIP3   OH226347   3.098   2.526   8.093  0.0417  0.0455  0.3577
 1571TIP3    H126348   3.132   2.615   8.104 -1.2316  0.5663  0.2643
 1571TIP3    H226349   3.032   2.534   8.024 -0.2583 -0.9286  0.5218
 1572TIP3   OH226350   2.583   1.913   8.500 -0.2890  0.2782 -0.5313
 1572TIP3    H126351   2.606   1.861   8.576 -0.1834  1.0183 -0.0522
 1572TIP3    H226352   2.646   1.887   8.433  0.5473  0.7003  0.0897
 1573TIP3   OH226353   4.674   1.882   1.825 -0.1187  0.1466  0.1449
 1573TIP3    H126354   4.624   1.890   1.907  1.8951  0.3443  1.4375
 1573TIP3    H226355   4.766   1.888   1.853  0.6287  2.2009 -2.3488
 1574TIP3   OH226356   2.964   2.479   8.446 -0.4185 -0.4599  0.1506
 1574TIP3    H126357   2.900   2.455   8.513 -0.6611  1.3223  0.6060
 1574TIP3    H226358   3.045   2.495   8.495 -1.0297  2.6031  0.3683
 1575TIP3   OH226359   4.512   6.514   2.377 -0.6409  0.1704  0.4936
 1575TIP3    H126360   4.516   6.431   2.329  0.2307  1.0916 -1.1159
 1575TIP3    H226361   4.510   6.489   2.469  0.5364 -1.6252  0.0689
 1576TIP3   OH226362   6.143   0.732   1.443  0.1301 -0.4622  0.2183
 1576TIP3    H126363   6.153   0.637   1.436 -0.2433 -0.4249 -1.1129
 1576TIP3    H226364   6.058   0.745   1.485  0.6223 -0.7092  1.3150
 1577TIP3   OH226365   4.120   5.715   7.769 -0.0307 -0.0887 -0.0675
 1577TIP3    H126366   4.091   5.659   7.697  2.1099 -0.1480 -0.9565
 1577TIP3    H226367   4.144   5.797   7.727  0.5287  0.1433  0.6884
 1578TIP3   OH226368   1.157   2.870   2.792 -0.1415  0.1919 -0.1740
 1578TIP3    H126369   1.162   2.966   2.784  0.1034  0.1367 -0.7078
 1578TIP3    H226370   1.236   2.845   2.838  0.8415  0.0585 -1.8533
 1579TIP3   OH226371   5.357   4.339   2.369 -0.4103 -0.2962 -0.3227
 1579TIP3    H126372   5.283   4.381   2.413 -0.6830  0.4468 -1.4515
 1579TIP3    H226373   5.434   4.368   2.418 -0.7564  0.0004  0.0527
 1580TIP3   OH226374   5.795   3.241   7.923 -0.0298 -0.2475  0.4034
 1580TIP3    H126375   5.790   3.223   7.829  0.4579 -1.3970  0.5718
 1580TIP3    H226376   5.709   3.276   7.945 -0.2978 -0.3757 -0.3911
 1581TIP3   OH226377   0.125   3.585   2.161  0.2581 -0.1884 -0.0713
 1581TIP3    H126378   0.079   3.559   2.082  0.8655  1.5743 -1.0497
 1581TIP3    H226379   0.142   3.678   2.150  1.7143 -0.2252  1.4604
 1582TIP3   OH226380   2.776   6.518   1.407  0.0308  0.0868 -0.4172
 1582TIP3    H126381   2.716   6.539   1.478 -0.4304 -0.2880 -0.6891
 1582TIP3    H226382   2.860   6.554   1.435 -0.1975  0.1420  0.2128
 1583TIP3   OH226383   2.023   5.082   6.825 -0.0244  0.1902  0.5479
 1583TIP3    H126384   2.085   5.063   6.896  0.4003  0.7469  0.3300
 1583TIP3    H226385   2.051   5.167   6.791 -1.1601  0.6545  0.7208
 1584TIP3   OH226386   2.484   4.627   1.526  0.2233 -0.4642 -0.4618
 1584TIP3    H126387   2.426   4.564   1.483 -1.1685 -0.2096  0.9502
 1584TIP3    H226388   2.483   4.703   1.468 -2.4130  0.2493  0.3762
 1585TIP3   OH226389   0.750   5.947   8.312  0.5976  0.3639 -0.4306
 1585TIP3    H126390   0.673   5.958   8.369  1.1492  0.1143  0.3748
 1585TIP3    H226391   0.804   6.024   8.330  1.2635 -0.2352  0.1603
 1586TIP3   OH226392   0.391   3.474   0.319  0.3729 -0.1524  0.4522
 1586TIP3    H126393   0.296   3.473   0.330  0.3599  0.3486  0.4025
 1586TIP3    H226394   0.406   3.412   0.248  0.0534 -0.0289  0.2703
 1587TIP3   OH226395   4.163   3.120   0.246 -0.1723  0.2913  0.7200
 1587TIP3    H126396   4.204   3.100   0.330  0.0425  0.8879  0.7632
 1587TIP3    H226397   4.116   3.202   0.261 -3.6433 -1.6535  1.4397
 1588TIP3   OH226398   1.931   5.479   8.449  0.0866  0.2363  0.0081
 1588TIP3    H126399   1.852   5.496   8.398  0.3380 -0.3640 -0.5952
 1588TIP3    H226400   1.901   5.427   8.523 -0.2827  1.1250  0.4953
 1589TIP3   OH226401   5.742   2.410   1.990 -0.2215  0.4498  0.1426
 1589TIP3    H126402   5.772   2.377   1.906 -1.9727  1.1691 -0.8181
 1589TIP3    H226403   5.719   2.332   2.041  0.4258  0.0309 -0.2000
 1590TIP3   OH226404   3.566   5.698   8.739  0.6811 -0.1515 -0.3255
 1590TIP3    H126405   3.631   5.722   8.673 -1.3618  1.6508 -1.8395
 1590TIP3    H226406   3.532   5.782   8.770 -1.3809 -1.0046 -0.1281
 1591TIP3   OH226407   6.010   2.383   8.893  0.0662 -0.3021  0.4671
 1591TIP3    H126408   6.097   2.352   8.921 -0.1902 -1.0599  0.4707
 1591TIP3    H226409   5.952   2.310   8.914 -0.5767  0.2072  0.4805
 1592TIP3   OH226410   6.370   0.464   8.742  0.2297 -0.1464  0.0462
 1592TIP3    H126411   6.429   0.500   8.675 -0.8281  0.1105 -0.7765
 1592TIP3    H226412   6.310   0.407   8.694 -0.8221  0.3748  0.6943
 1593TIP3   OH226413   6.563   5.087   2.522 -0.5937 -0.2799 -0.4442
 1593TIP3    H126414   6.468   5.088   2.515 -0.6792 -3.0103 -0.5092
 1593TIP3    H226415   6.594   5.096   2.431 -0.7777 -0.0639 -0.4868
 1594TIP3   OH226416   2.389   6.157   7.697 -0.0512  0.4543  0.1085
 1594TIP3    H126417   2.452   6.147   7.626 -0.6356 -1.4250 -0.2026
 1594TIP3    H226418   2.304   6.162   7.654 -0.2985  0.8544  0.6240
 1595TIP3   OH226419   3.546   1.733   8.328  0.2140  0.1339  0.0082
 1595TIP3    H126420   3.459   1.772   8.328 -0.0539 -0.4380 -0.8020
 1595TIP3    H226421   3.582   1.755   8.242  0.3455 -0.7664 -0.1767
 1596TIP3   OH226422   2.664   1.634   7.567  0.0369 -0.0504  0.2927
 1596TIP3    H126423   2.576   1.633   7.605  0.1175  0.8174  0.5293
 1596TIP3    H226424   2.706   1.555   7.601 -1.2129 -1.4358 -1.2456
 1597TIP3   OH226425   0.021   4.945   0.370 -0.3787  0.7298  0.1921
 1597TIP3    H126426   0.075   4.875   0.332 -3.6001 -1.7758 -0.2033
 1597TIP3    H226427  -0.034   4.900   0.434 -1.5890  3.2455  1.0269
 1598TIP3   OH226428   3.844   4.676   0.199  0.3391 -0.1891 -0.6420
 1598TIP3    H126429   3.882   4.598   0.158 -0.1274  0.2685 -2.0108
 1598TIP3    H226430   3.911   4.743   0.189  1.7482 -0.9326  2.6797
 1599TIP3   OH226431   1.959   0.552   1.120 -0.2521 -0.0040 -0.2662
 1599TIP3    H126432   1.909   0.544   1.201 -2.2899  0.8317 -1.3692
 1599TIP3    H226433   1.939   0.472   1.071  0.0631  0.0135 -0.4290
 1600TIP3   OH226434   4.661   2.280   2.000  0.3284 -0.0080 -0.0130
 1600TIP3    H126435   4.745   2.236   1.983 -0.0167 -0.3393 -0.9317
 1600TIP3    H226436   4.598   2.209   2.008  0.1188  0.2460  0.6195
 1601TIP3   OH226437   5.232   1.838   0.302 -0.0768 -0.4550 -0.0509
 1601TIP3    H126438   5.151   1.789   0.318 -0.7009  0.4058 -0.4509
 1601TIP3    H226439   5.202   1.920   0.262  0.9164  0.3262  0.7528
 1602TIP3   OH226440   4.612   1.867   7.567 -0.2771 -0.0234  0.2179
 1602TIP3    H126441   4.609   1.786   7.618  0.7833 -1.3254 -1.6240
 1602TIP3    H226442   4.575   1.842   7.482 -0.3118  1.5462 -0.2500
 1603TIP3   OH226443   4.436   1.013   1.552 -0.0957  0.1208 -0.2264
 1603TIP3    H126444   4.471   1.089   1.507  1.1520 -0.6424 -0.5954
 1603TIP3    H226445   4.513   0.971   1.592 -0.9116 -0.2981  0.9544
 1604TIP3   OH226446   4.377   3.813   8.593  0.2702 -0.5551 -0.1145
 1604TIP3    H126447   4.352   3.860   8.514  1.9720 -1.5842 -1.3495
 1604TIP3    H226448   4.473   3.815   8.593  0.3287  0.0229  2.3332
 1605TIP3   OH226449   4.816   6.008   8.148 -0.4505  0.3141  0.0071
 1605TIP3    H126450   4.905   5.999   8.114  0.1660 -1.1158  1.8256
 1605TIP3    H226451   4.760   5.969   8.080  0.5677 -1.0348 -0.0945
 1606TIP3   OH226452   2.055   4.923   2.244 -0.3977 -0.2327 -0.0926
 1606TIP3    H126453   2.146   4.924   2.272 -1.2135  0.1674  2.8580
 1606TIP3    H226454   2.034   5.015   2.227  0.0253 -0.4469 -2.0874
 1607TIP3   OH226455   6.179   4.949   0.679  0.1783 -0.6624 -0.7332
 1607TIP3    H126456   6.164   4.978   0.768  1.5576  0.1541 -0.7284
 1607TIP3    H226457   6.271   4.969   0.663 -0.3950  0.6489 -2.8412
 1608TIP3   OH226458   5.505   0.562   8.425  0.1523  0.5327 -0.0547
 1608TIP3    H126459   5.571   0.494   8.411  0.4229  0.2749  2.0952
 1608TIP3    H226460   5.547   0.643   8.395  1.2358  0.2745  0.7073
 1609TIP3   OH226461   0.693   1.440   0.766  0.4033  0.1773  0.3670
 1609TIP3    H126462   0.709   1.447   0.860 -0.0666 -1.2309  0.5714
 1609TIP3    H226463   0.778   1.453   0.725  0.8351 -0.4424  1.0568
 1610TIP3   OH226464   2.216   2.008   1.987  0.7296  0.5223 -0.0020
 1610TIP3    H126465   2.173   1.963   1.914  1.3616  1.1301 -0.7713
 1610TIP3    H226466   2.177   1.970   2.065  0.4090 -0.5278 -0.6481
 1611TIP3   OH226467   4.604   1.136   8.674  0.1011 -0.4381  0.1548
 1611TIP3    H126468   4.519   1.111   8.639  0.5372 -1.7124 -0.0253
 1611TIP3    H226469   4.620   1.074   8.745  2.0794 -2.0400 -1.5625
 1612TIP3   OH226470   4.171   4.041   2.031  0.0512 -0.5406  0.1322
 1612TIP3    H126471   4.133   3.998   2.108  2.5611 -2.0193  0.6804
 1612TIP3    H226472   4.257   4.072   2.061  1.3841 -1.7114 -2.1557
 1613TIP3   OH226473   5.916   4.824   8.066 -1.0030  0.1100 -0.4965
 1613TIP3    H126474   5.960   4.845   7.984  1.5862  0.7820  0.9224
 1613TIP3    H226475   5.944   4.734   8.085  0.1290  0.6488  0.5682
 1614TIP3   OH226476   0.587   6.314   2.609 -0.3510 -0.0920 -0.0454
 1614TIP3    H126477   0.632   6.311   2.524  1.3140 -0.4733  0.8003
 1614TIP3    H226478   0.568   6.223   2.629 -0.1792 -0.0660  0.2529
 1615TIP3   OH226479   6.618   4.020   1.740 -0.1128  0.4666 -0.3428
 1615TIP3    H126480   6.661   4.102   1.717  0.9515 -0.2898 -1.1379
 1615TIP3    H226481   6.548   4.046   1.800  1.9364  1.6859  1.6857
 1616TIP3   OH226482   5.040   3.609   2.206  0.0969  0.0956 -0.0155
 1616TIP3    H126483   5.051   3.679   2.270  0.3478  0.2396 -0.2158
 1616TIP3    H226484   5.044   3.653   2.121 -0.7147 -0.0291 -0.1245
 1617TIP3   OH226485   1.512   5.819   2.002  0.2667  0.0430 -0.9465
 1617TIP3    H126486   1.499   5.835   2.096  1.4530  0.2284 -0.8083
 1617TIP3    H226487   1.536   5.726   1.997  0.7688  0.1778 -1.0119
 1618TIP3   OH226488   0.935   0.711   0.942  0.1989 -0.0217 -0.2494
 1618TIP3    H126489   0.978   0.784   0.987  1.4237 -0.2456 -1.0283
 1618TIP3    H226490   0.919   0.744   0.854  0.8758 -0.7383 -0.6447
 1619TIP3   OH226491   1.170   0.751   8.028  0.3330  0.2690 -0.5975
 1619TIP3    H126492   1.124   0.798   8.096  0.3319 -0.5755  0.0018
 1619TIP3    H226493   1.182   0.815   7.958  0.8339  1.3235  0.4084
 1620TIP3   OH226494   0.219   3.430   8.625  0.7081 -0.2486  0.0881
 1620TIP3    H126495   0.287   3.422   8.692 -1.1694 -1.0362  2.0156
 1620TIP3    H226496   0.188   3.520   8.633  0.9871 -0.1167 -0.2698
 1621TIP3   OH226497   1.091   1.497   0.919 -0.4552 -0.1311 -0.4804
 1621TIP3    H126498   1.118   1.471   0.831 -1.7709 -1.9978 -0.3923
 1621TIP3    H226499   1.057   1.586   0.909  0.2177  0.0084 -1.6822
 1622TIP3   OH226500   3.000   1.263   7.310  0.0989 -0.1300 -0.1268
 1622TIP3    H126501   3.015   1.262   7.216  1.1462 -0.2756  0.0343
 1622TIP3    H226502   3.073   1.314   7.346 -1.3799  1.7197  0.4310
 1623TIP3   OH226503   4.395   4.054   2.199 -0.0595 -0.2624  0.4687
 1623TIP3    H126504   4.424   4.145   2.190 -1.0622 -0.1083 -1.8037
 1623TIP3    H226505   4.452   4.005   2.141  0.2249 -1.0639  1.3993
 1624TIP3   OH226506   2.929   5.749   7.473  0.2099  0.2279  0.6872
 1624TIP3    H126507   2.862   5.814   7.451  0.9020  0.9666  0.7309
 1624TIP3    H226508   2.957   5.772   7.561  1.0261  0.3640  0.3981
 1625TIP3   OH226509   3.392   2.594   0.591 -0.2169 -0.3428  0.1361
 1625TIP3    H126510   3.447   2.582   0.668 -2.5830  0.7463  2.1541
 1625TIP3    H226511   3.425   2.674   0.550  0.7110 -0.6104  0.3374
 1626TIP3   OH226512   1.713   3.796   2.523 -0.0423 -0.3872  0.1833
 1626TIP3    H126513   1.783   3.766   2.464 -0.8394 -0.5652 -0.6939
 1626TIP3    H226514   1.685   3.880   2.488 -0.3072 -0.3384  0.4993
 1627TIP3   OH226515   3.297   0.443   6.801  0.1666 -0.0345 -0.3108
 1627TIP3    H126516   3.293   0.440   6.706  0.4994  0.9922 -0.3761
 1627TIP3    H226517   3.228   0.505   6.826 -0.2533 -0.6754  0.1540
 1628TIP3   OH226518   3.493   6.252   2.115 -0.4545  0.1063 -0.9275
 1628TIP3    H126519   3.528   6.320   2.058  3.0413 -0.3962  0.3560
 1628TIP3    H226520   3.552   6.178   2.102  0.9617  0.1493  3.6279
 1629TIP3   OH226521   3.870   1.908   7.356 -0.3991  0.2341 -0.8092
 1629TIP3    H126522   3.919   1.941   7.431  1.7438  0.6322 -2.2876
 1629TIP3    H226523   3.820   1.983   7.325  2.8177  1.7900 -2.8641
 1630TIP3   OH226524   2.851   5.671   1.900 -0.2288  0.0604  0.1140
 1630TIP3    H126525   2.903   5.707   1.828  0.2781 -0.5672  0.1475
 1630TIP3    H226526   2.823   5.747   1.950  0.6873  0.4238  0.1007
 1631TIP3   OH226527   0.472   6.034   8.025  0.1339 -0.2850 -0.2831
 1631TIP3    H126528   0.480   5.969   8.094  0.2463 -1.8704 -1.7372
 1631TIP3    H226529   0.437   5.986   7.949  0.0514  1.3707 -1.3652
 1632TIP3   OH226530   0.645   1.540   1.234 -0.3982 -0.0797 -0.0693
 1632TIP3    H126531   0.585   1.612   1.257 -1.5124 -1.1347  0.4524
 1632TIP3    H226532   0.630   1.474   1.302  0.0618 -1.1136 -0.9372
 1633TIP3   OH226533   5.719   5.567   0.920 -0.6132  0.2366 -0.2653
 1633TIP3    H126534   5.799   5.558   0.868  0.0895 -3.0772  1.1325
 1633TIP3    H226535   5.745   5.619   0.995 -0.2503  0.6616 -0.6823
 1634TIP3   OH226536   3.744   5.159   0.759 -0.0359 -0.0072 -0.0786
 1634TIP3    H126537   3.750   5.254   0.775 -0.2028 -0.1584  0.9658
 1634TIP3    H226538   3.711   5.152   0.670  1.1414  0.9116 -0.6281
 1635TIP3   OH226539   6.352   5.240   6.798 -0.1816 -0.5133  0.3292
 1635TIP3    H126540   6.358   5.145   6.797  1.2146 -0.4520  1.0660
 1635TIP3    H226541   6.427   5.269   6.850  0.6427  1.0837 -1.6084
 1636TIP3   OH226542   3.879   0.840   1.124  0.1104 -0.1796  0.2144
 1636TIP3    H126543   3.835   0.835   1.039  0.4796  0.8807 -0.0585
 1636TIP3    H226544   3.962   0.794   1.110  1.6022  2.6242 -0.9953
 1637TIP3   OH226545   2.781   6.127   2.388  0.5683  0.6814  0.0632
 1637TIP3    H126546   2.797   6.075   2.467  2.7725  1.0830 -0.0761
 1637TIP3    H226547   2.786   6.218   2.418 -2.7277  0.9625  0.1978
 1638TIP3   OH226548   6.325   3.882   1.659 -0.1628  0.0955 -0.0626
 1638TIP3    H126549   6.365   3.932   1.588  0.4055  0.8308  0.7554
 1638TIP3    H226550   6.367   3.796   1.654  0.8541  0.5606  0.1909
 1639TIP3   OH226551   0.070   1.403   2.066  0.6991 -0.0038  0.1814
 1639TIP3    H126552  -0.020   1.380   2.044  1.3608 -0.1574 -2.8429
 1639TIP3    H226553   0.096   1.339   2.133 -1.3065 -0.1306  0.9049
 1640TIP3   OH226554   3.457   6.511   8.487 -0.5244  0.0176  0.6189
 1640TIP3    H126555   3.488   6.487   8.400 -0.3689  1.5247  0.2183
 1640TIP3    H226556   3.364   6.527   8.477 -0.5060  0.1991  0.7271
 1641TIP3   OH226557   1.629   4.424   0.855 -0.2800 -0.0546 -0.2957
 1641TIP3    H126558   1.682   4.346   0.845 -0.8623 -0.2086 -2.8548
 1641TIP3    H226559   1.687   4.497   0.834  0.2884  0.3017  2.1738
 1642TIP3   OH226560   2.855   3.229   7.463  0.5406  0.5853  0.0954
 1642TIP3    H126561   2.806   3.309   7.442 -0.4842 -0.3951 -1.3876
 1642TIP3    H226562   2.812   3.160   7.413  0.3359 -1.2630  2.6750
 1643TIP3   OH226563   0.131   4.709   0.563  0.0936  0.1243 -0.0792
 1643TIP3    H126564   0.166   4.672   0.644  1.0803 -0.9301 -0.9548
 1643TIP3    H226565   0.043   4.739   0.587 -0.1966 -1.4618  1.0520
 1644TIP3   OH226566   6.222   0.700   0.713  0.4170 -0.1456  0.1582
 1644TIP3    H126567   6.290   0.635   0.692  1.1216  1.7412 -4.5125
 1644TIP3    H226568   6.258   0.749   0.787  2.4993 -1.4221  0.0672
 1645TIP3   OH226569   0.889   4.857   1.601  0.4196 -0.2950  0.5103
 1645TIP3    H126570   0.919   4.772   1.633 -0.5483 -0.9701 -0.2782
 1645TIP3    H226571   0.794   4.847   1.594  0.4196  0.4113 -0.8162
 1646TIP3   OH226572   6.056   4.097   1.155  0.5700 -0.7149 -0.7422
 1646TIP3    H126573   6.116   4.157   1.198 -0.2489 -0.7566  0.5293
 1646TIP3    H226574   5.990   4.154   1.114 -0.2942 -0.7018  0.5951
 1647TIP3   OH226575   4.430   6.615   6.759  0.1706 -0.1539 -0.5523
 1647TIP3    H126576   4.458   6.529   6.793 -1.3460 -0.7690 -0.7884
 1647TIP3    H226577   4.441   6.608   6.664  0.8035  0.2213 -0.5165
 1648TIP3   OH226578   6.477   6.329   0.781  0.2567  0.1990 -0.1910
 1648TIP3    H126579   6.420   6.269   0.733  0.7357  0.3544 -0.9590
 1648TIP3    H226580   6.565   6.294   0.768  0.5050  0.8811 -0.3601
 1649TIP3   OH226581   2.350   6.382   2.534  0.0738 -0.8111 -0.6059
 1649TIP3    H126582   2.331   6.384   2.440 -0.4022  0.2709 -0.4975
 1649TIP3    H226583   2.288   6.444   2.572  0.3830 -1.1101  0.4118
 1650TIP3   OH226584   2.880   4.986   0.374 -0.3069  0.0369 -0.2301
 1650TIP3    H126585   2.953   4.970   0.433 -0.5246 -0.4915 -0.0926
 1650TIP3    H226586   2.803   4.984   0.431 -0.4764 -0.0098 -0.4589
 1651TIP3   OH226587   2.948   5.086   0.033  0.4334 -0.0621 -0.4462
 1651TIP3    H126588   3.032   5.129   0.015  0.3186  0.1813 -0.3898
 1651TIP3    H226589   2.950   5.008  -0.024  0.8528 -0.2536 -0.1796
 1652TIP3   OH226590   0.981   6.733   1.715  0.0198 -0.5252  0.1042
 1652TIP3    H126591   0.912   6.792   1.747  0.8790  1.0662 -0.8884
 1652TIP3    H226592   0.951   6.646   1.742 -2.7224  0.0163 -0.8174
 1653TIP3   OH226593   5.838   0.412   0.171 -0.0301 -0.0572  0.5412
 1653TIP3    H126594   5.901   0.470   0.129  0.1694 -0.3309  0.4609
 1653TIP3    H226595   5.839   0.437   0.263  0.8909 -0.6899  0.7154
 1654TIP3   OH226596   4.800   5.134   8.454  0.5701  0.2970  1.0856
 1654TIP3    H126597   4.714   5.094   8.463  1.2206 -1.5672 -0.3333
 1654TIP3    H226598   4.781   5.226   8.432 -1.1656 -0.4748 -1.1202
 1655TIP3   OH226599   3.563   3.156   7.980  0.2762  1.0078  0.3219
 1655TIP3    H126600   3.615   3.075   7.986 -0.5619  0.5559  2.4888
 1655TIP3    H226601   3.594   3.198   7.900  0.5712 -1.5638 -1.0362
 1656TIP3   OH226602   6.179   3.618   1.607 -0.6894  0.3214  0.2584
 1656TIP3    H126603   6.168   3.681   1.536  0.7219  0.7597  0.3779
 1656TIP3    H226604   6.111   3.553   1.593 -2.3189  1.9546  0.2270
 1657TIP3   OH226605   2.677   3.213   2.600  0.0936  0.2312  0.2282
 1657TIP3    H126606   2.671   3.296   2.646 -4.5569  0.1258  0.2909
 1657TIP3    H226607   2.729   3.157   2.658  2.7241  2.7502  0.5131
 1658TIP3   OH226608   4.834   4.780   3.139 -0.1086  0.5798  0.1889
 1658TIP3    H126609   4.853   4.688   3.157  2.2051  0.8796 -0.3687
 1658TIP3    H226610   4.920   4.820   3.127 -1.0917  2.1455 -2.8265
 1659TIP3   OH226611   4.634   5.474   8.663  0.3767  0.0111  0.1681
 1659TIP3    H126612   4.652   5.567   8.656  1.7010 -0.3065 -0.9431
 1659TIP3    H226613   4.671   5.435   8.584  0.1285 -1.5071  0.7527
 1660TIP3   OH226614   1.961   5.400   7.235  0.1733 -0.6053 -0.3937
 1660TIP3    H126615   1.927   5.490   7.229  0.7172 -0.4703 -1.8633
 1660TIP3    H226616   1.990   5.380   7.146  0.8921 -1.9195  0.1192
 1661TIP3   OH226617   1.358   5.669   0.188  0.3161 -0.6283 -0.1012
 1661TIP3    H126618   1.380   5.762   0.192 -0.4425 -0.4985  1.5531
 1661TIP3    H226619   1.438   5.628   0.155  1.0219  0.4874  0.1450
 1662TIP3   OH226620   3.686   3.738   8.198  0.1877  0.2837 -0.4076
 1662TIP3    H126621   3.707   3.658   8.150 -0.4584 -0.5791  0.6953
 1662TIP3    H226622   3.600   3.764   8.165  0.1103  0.1509 -0.3139
 1663TIP3   OH226623   3.243   4.158   1.071  0.1128  0.3794  0.1379
 1663TIP3    H126624   3.294   4.173   0.991  1.3866  0.9431  1.0170
 1663TIP3    H226625   3.223   4.245   1.103 -1.0732  0.1561  0.0300
 1664TIP3   OH226626   0.062   3.441   0.002  0.2589  0.2183  0.0455
 1664TIP3    H126627   0.112   3.522   0.010  0.6760 -0.1188  0.9312
 1664TIP3    H226628   0.111   3.377   0.052 -0.4281 -0.4227 -0.0753
 1665TIP3   OH226629   4.725   5.475   7.964 -0.0216  0.2783 -0.0983
 1665TIP3    H126630   4.645   5.448   7.918  0.3579  0.2069 -0.7376
 1665TIP3    H226631   4.791   5.481   7.894  1.3185 -2.6133  0.7860
 1666TIP3   OH226632   1.789   1.030   0.378  0.1917 -0.0249  0.2925
 1666TIP3    H126633   1.730   0.965   0.415 -1.0039  0.0367 -1.3956
 1666TIP3    H226634   1.838   0.984   0.310 -0.7489  0.8152 -1.0010
 1667TIP3   OH226635   0.832   5.447   0.689  0.3681 -0.2900  0.0853
 1667TIP3    H126636   0.904   5.490   0.734 -0.3356  0.7112  0.2950
 1667TIP3    H226637   0.831   5.485   0.601 -0.3999  0.3412  0.3448
 1668TIP3   OH226638   3.070   6.557   1.523 -0.1419 -0.3695 -0.1925
 1668TIP3    H126639   3.082   6.617   1.598  1.7669 -2.5384  1.3977
 1668TIP3    H226640   3.153   6.563   1.475 -0.2109 -1.1773 -0.4191
 1669TIP3   OH226641   6.794   0.538   2.250 -0.2105 -0.3449  0.2765
 1669TIP3    H126642   6.743   0.458   2.262  0.8761 -1.3690 -1.5579
 1669TIP3    H226643   6.864   0.531   2.315  0.1037 -1.0908 -0.1321
 1670TIP3   OH226644   6.031   6.288   0.376 -0.0439  0.2822  0.4813
 1670TIP3    H126645   6.030   6.265   0.283  1.1081  1.5889  0.1193
 1670TIP3    H226646   6.057   6.207   0.420 -0.6954 -0.3795 -0.3042
 1671TIP3   OH226647   2.026   0.608   0.325 -0.0264  0.2373  0.8434
 1671TIP3    H126648   2.061   0.676   0.382 -0.2477  0.7206  0.4144
 1671TIP3    H226649   2.070   0.528   0.353  1.1797  0.7668  0.5325
 1672TIP3   OH226650   3.169   6.573   0.676 -0.0643 -0.0872 -0.1369
 1672TIP3    H126651   3.113   6.643   0.642  0.0604  0.5543  0.9253
 1672TIP3    H226652   3.113   6.495   0.675 -0.5989  0.2900 -0.1973
 1673TIP3   OH226653   0.147   1.331   8.142 -0.1659 -0.5647  0.9988
 1673TIP3    H126654   0.118   1.372   8.223 -1.3350 -0.2178  0.4357
 1673TIP3    H226655   0.157   1.404   8.080 -1.4383 -1.0088  0.2261
 1674TIP3   OH226656   5.129   6.685   6.863 -0.1290  0.2949 -0.0831
 1674TIP3    H126657   5.082   6.604   6.880  2.4144 -1.0388  1.0963
 1674TIP3    H226658   5.108   6.742   6.937 -0.8118  0.2105 -0.2029
 1675TIP3   OH226659   4.114   0.082   8.839 -0.2536  0.6685  0.2100
 1675TIP3    H126660   4.138   0.064   8.929 -0.1832 -0.2841  0.0167
 1675TIP3    H226661   4.027   0.043   8.829  0.2861 -0.4350 -0.4767
 1676TIP3   OH226662   0.381   6.367   2.765 -0.0536 -0.4222 -0.0866
 1676TIP3    H126663   0.304   6.386   2.712 -0.7582 -2.7647  0.0072
 1676TIP3    H226664   0.455   6.386   2.707 -0.5847  2.1110 -0.0862
 1677TIP3   OH226665   0.592   6.265   1.115  0.3980  0.0984  0.5359
 1677TIP3    H126666   0.567   6.289   1.204  0.2702  0.6647  0.3516
 1677TIP3    H226667   0.511   6.268   1.064  0.7401  1.5708  0.0205
 1678TIP3   OH226668   2.242   6.090   0.811  0.0876  0.0171  0.6158
 1678TIP3    H126669   2.292   6.134   0.743  0.3038 -0.5908  0.3729
 1678TIP3    H226670   2.248   5.997   0.789 -1.9386 -0.0260  0.0238
 1679TIP3   OH226671   5.000   3.502   7.509 -0.1007  0.4828  0.2952
 1679TIP3    H126672   5.000   3.453   7.591 -0.5581 -0.2114 -0.1061
 1679TIP3    H226673   4.912   3.539   7.503 -0.3899 -0.2817 -0.3439
 1680TIP3   OH226674   1.226   2.670   0.337 -0.5826  0.1487 -0.4268
 1680TIP3    H126675   1.236   2.586   0.293  0.4346 -0.3141  0.6361
 1680TIP3    H226676   1.221   2.648   0.430  0.0120  1.2731 -0.1093
 1681TIP3   OH226677   5.422   1.825   0.654  0.0274  0.4440  0.2440
 1681TIP3    H126678   5.350   1.762   0.652 -0.0100  0.4410  1.1193
 1681TIP3    H226679   5.400   1.884   0.726  2.0492 -0.9582  2.1343
 1682TIP3   OH226680   0.918   1.989   8.062 -0.1813  0.2522 -0.2363
 1682TIP3    H126681   0.947   1.914   8.010  1.8305  0.3356  0.6646
 1682TIP3    H226682   0.852   1.954   8.121 -0.2063 -0.5126 -0.7114
 1683TIP3   OH226683   0.507   2.771   0.273  0.0472 -0.2934  0.5692
 1683TIP3    H126684   0.541   2.710   0.207  1.6944 -0.4690  1.5234
 1683TIP3    H226685   0.429   2.727   0.308 -0.5492 -0.4313 -0.8636
 1684TIP3   OH226686   0.082   2.276   7.477 -0.6041  0.2820 -0.0728
 1684TIP3    H126687  -0.011   2.265   7.459 -0.3049 -0.7456 -1.1377
 1684TIP3    H226688   0.112   2.187   7.499  0.2303  0.5084 -0.2696
 1685TIP3   OH226689   5.545   4.773   2.375 -0.1306 -0.2071 -0.1906
 1685TIP3    H126690   5.450   4.764   2.373 -0.2967  1.4386 -0.7780
 1685TIP3    H226691   5.567   4.764   2.468 -1.2530  2.6265  0.4458
 1686TIP3   OH226692   0.194   5.234   7.975 -0.4476 -0.0951  1.0841
 1686TIP3    H126693   0.126   5.253   7.910  0.5915 -1.7538 -0.5774
 1686TIP3    H226694   0.275   5.267   7.936 -0.1277  1.1138  2.6776
 1687TIP3   OH226695   3.737   1.335   7.292  0.3120 -0.0939 -0.3680
 1687TIP3    H126696   3.667   1.343   7.227 -0.5244 -0.8874  0.4034
 1687TIP3    H226697   3.815   1.312   7.241  1.1052  4.5674 -1.7822
 1688TIP3   OH226698   1.623   3.049   8.883 -0.2754  0.4667  0.3202
 1688TIP3    H126699   1.592   2.963   8.911  0.2028  0.3508  0.4972
 1688TIP3    H226700   1.704   3.032   8.836 -0.7491  0.7266 -0.6025
 1689TIP3   OH226701   5.576   3.311   7.693 -0.4302  0.1489  0.1204
 1689TIP3    H126702   5.527   3.229   7.704 -1.5414  0.6438 -0.8675
 1689TIP3    H226703   5.518   3.365   7.639  1.1101  0.8877 -0.8387
 1690TIP3   OH226704   2.378   6.410   1.634  0.3930  0.0863 -0.1518
 1690TIP3    H126705   2.287   6.419   1.606  0.3931  2.4828  0.3973
 1690TIP3    H226706   2.389   6.316   1.649 -1.8843 -0.3024 -0.5237
 1691TIP3   OH226707   4.664   5.752   8.654 -0.0375 -0.1272 -0.1889
 1691TIP3    H126708   4.650   5.846   8.645 -1.1364 -0.3138 -0.4794
 1691TIP3    H226709   4.662   5.719   8.564 -1.1726 -0.6265  0.0038
 1692TIP3   OH226710   4.548   1.622   8.643 -0.0852 -0.3759  0.2488
 1692TIP3    H126711   4.593   1.697   8.683 -0.7385 -0.9084  2.0827
 1692TIP3    H226712   4.583   1.546   8.689 -0.1454 -1.1257 -0.9107
 1693TIP3   OH226713   6.135   5.324   0.080 -0.1959 -0.1076  0.6166
 1693TIP3    H126714   6.114   5.416   0.093 -1.5368 -0.4972  1.5187
 1693TIP3    H226715   6.228   5.322   0.059 -0.6404  1.6303 -1.8662
 1694TIP3   OH226716   5.841   4.501   1.923 -0.3313  0.3667 -0.4356
 1694TIP3    H126717   5.910   4.503   1.990  0.6962 -1.5877 -1.3375
 1694TIP3    H226718   5.889   4.496   1.840 -1.5868  2.6587 -1.3585
 1695TIP3   OH226719   5.811   1.074   0.639 -0.0255 -0.0366  0.0427
 1695TIP3    H126720   5.862   0.997   0.665 -1.0750 -0.7200  0.1288
 1695TIP3    H226721   5.841   1.093   0.550 -0.2586 -0.9956 -0.2532
 1696TIP3   OH226722   1.470   3.138   7.103 -0.5892  0.5296  0.4028
 1696TIP3    H126723   1.464   3.056   7.054  0.5023 -1.3443  3.1544
 1696TIP3    H226724   1.560   3.168   7.089 -0.7155  0.7665  0.1046
 1697TIP3   OH226725   5.751   1.337   8.223  0.2082 -0.2760  0.4878
 1697TIP3    H126726   5.839   1.347   8.259 -0.0016 -1.4269  1.4093
 1697TIP3    H226727   5.701   1.410   8.260  1.1669  1.4976 -1.5184
 1698TIP3   OH226728   4.097   0.908   0.517 -0.4771 -0.3264 -0.1767
 1698TIP3    H126729   4.020   0.859   0.546  0.1608 -0.5398  1.2508
 1698TIP3    H226730   4.108   0.976   0.584 -0.8009  1.1998 -1.6233
 1699TIP3   OH226731   1.267   2.132   1.251 -0.2083 -0.0933  0.4484
 1699TIP3    H126732   1.361   2.126   1.234 -0.4467  0.0096 -1.0548
 1699TIP3    H226733   1.258   2.207   1.310  0.4340  1.8330 -1.7273
 1700TIP3   OH226734   2.056   1.201   0.559  0.5051  0.4848  0.3342
 1700TIP3    H126735   1.971   1.244   0.569  0.7769  1.0502  0.2268
 1700TIP3    H226736   2.061   1.141   0.634 -0.1691  0.1285  0.1072
 1701TIP3   OH226737   4.663   5.288   1.866  0.6525 -0.3446  0.0575
 1701TIP3    H126738   4.611   5.368   1.875 -0.0917 -0.7540 -0.5096
 1701TIP3    H226739   4.753   5.319   1.856  0.4293  0.4033  0.3034
 1702TIP3   OH226740   3.651   2.815   1.882 -0.6573  0.0487 -0.3306
 1702TIP3    H126741   3.589   2.803   1.954  0.8130 -0.6091  0.8659
 1702TIP3    H226742   3.613   2.764   1.810 -2.2500  0.8760 -0.1265
 1703TIP3   OH226743   6.107   0.970   0.997 -0.0232 -0.4603 -0.1254
 1703TIP3    H126744   6.073   0.990   1.084 -0.4435  1.8191 -0.7407
 1703TIP3    H226745   6.043   1.009   0.937 -0.2238 -2.7368 -1.5240
 1704TIP3   OH226746   0.203   1.069   8.078  0.2338  0.5373  0.0131
 1704TIP3    H126747   0.135   1.134   8.095 -0.3599 -0.4984  1.9104
 1704TIP3    H226748   0.202   1.013   8.155  2.5725 -0.1240 -0.3553
 1705TIP3   OH226749   6.330   1.798   7.834 -0.2567 -0.8609  0.7290
 1705TIP3    H126750   6.281   1.880   7.825  1.5458  0.1188 -0.7256
 1705TIP3    H226751   6.421   1.822   7.815  0.2845 -3.2626 -0.0213
 1706TIP3   OH226752   2.621   5.883   0.102 -0.1775  0.5076  0.3026
 1706TIP3    H126753   2.586   5.864   0.189 -1.2800  1.0925  0.0085
 1706TIP3    H226754   2.544   5.890   0.046  0.5482 -0.8281 -0.9423
 1707TIP3   OH226755   5.782   2.359   8.000 -0.1750  0.2595  0.6231
 1707TIP3    H126756   5.862   2.402   8.030  0.2006 -0.9737  1.4518
 1707TIP3    H226757   5.796   2.267   8.019 -0.8061 -0.3043 -1.4564
 1708TIP3   OH226758   2.442   3.961   2.113  0.4378  0.5072  0.0823
 1708TIP3    H126759   2.380   3.890   2.133 -0.1060  1.2716  1.1493
 1708TIP3    H226760   2.422   3.984   2.022 -2.6346  2.3979  1.0577
 1709TIP3   OH226761   0.928   0.533   0.552 -0.0993  0.3182  0.3401
 1709TIP3    H126762   0.862   0.484   0.503 -2.2274  3.5856 -0.3764
 1709TIP3    H226763   1.008   0.523   0.500 -0.3710 -2.3042  0.2766
 1710TIP3   OH226764   1.975   6.008   7.243 -0.3786  0.0773  0.1714
 1710TIP3    H126765   1.974   6.002   7.148 -1.4088 -0.7166  0.2134
 1710TIP3    H226766   1.928   6.089   7.263 -1.3594 -0.4344  0.0197
 1711TIP3   OH226767   4.955   3.649   1.807  0.1777  0.4348 -0.3689
 1711TIP3    H126768   4.960   3.720   1.871  0.3786 -0.7523  0.9637
 1711TIP3    H226769   4.870   3.662   1.764  0.2157  1.4835 -0.1653
 1712TIP3   OH226770   5.370   6.472   8.347  0.2986  0.3436 -0.2094
 1712TIP3    H126771   5.276   6.489   8.347  0.5305  1.8372  0.1057
 1712TIP3    H226772   5.390   6.442   8.258 -0.1625  2.1695 -0.9751
 1713TIP3   OH226773   3.526   2.154   1.304  0.0874 -0.2319 -0.1182
 1713TIP3    H126774   3.563   2.206   1.376  1.2552 -2.3937  0.9141
 1713TIP3    H226775   3.467   2.092   1.347  0.1206 -0.9853 -1.1173
 1714TIP3   OH226776   2.612   0.647   7.777  0.3897  0.6820 -0.1256
 1714TIP3    H126777   2.613   0.576   7.712  0.3516  0.8567 -0.3160
 1714TIP3    H226778   2.571   0.607   7.854 -0.1069  0.6461 -0.4047
 1715TIP3   OH226779   0.994   1.977   8.421 -0.0187 -0.3253  0.3416
 1715TIP3    H126780   1.001   2.068   8.390 -1.2889 -0.3063  0.0400
 1715TIP3    H226781   1.072   1.934   8.386 -1.3759 -0.3175 -3.0924
 1716TIP3   OH226782   5.671   0.068   0.523  0.0178  0.3490  0.2613
 1716TIP3    H126783   5.580   0.075   0.495 -0.5274 -1.2767  1.4478
 1716TIP3    H226784   5.719   0.045   0.444 -0.8085 -0.0165 -0.1457
 1717TIP3   OH226785   1.804   3.026   2.082 -0.2318 -0.5416  0.1734
 1717TIP3    H126786   1.796   3.078   2.161 -0.3872 -0.8108  0.3354
 1717TIP3    H226787   1.750   3.071   2.017 -0.1259 -0.3368  0.2296
 1718TIP3   OH226788   5.216   6.199   6.603  0.9556 -0.4182 -0.4246
 1718TIP3    H126789   5.172   6.283   6.600 -1.0072 -1.3711  0.1402
 1718TIP3    H226790   5.281   6.203   6.533 -2.1767 -0.0451 -3.5699
 1719TIP3   OH226791   4.431   5.586   1.503  0.1486 -0.2200 -0.0555
 1719TIP3    H126792   4.354   5.531   1.489  0.2616 -0.6369  0.9013
 1719TIP3    H226793   4.476   5.586   1.419 -0.3510 -0.8231 -0.3295
 1720TIP3   OH226794   3.610   6.064   7.901 -0.2729  0.3444  0.2379
 1720TIP3    H126795   3.649   5.980   7.879 -0.4443  0.3131  0.0472
 1720TIP3    H226796   3.623   6.073   7.996 -0.9872 -0.2804  0.4008
 1721TIP3   OH226797   2.801   3.920   7.767 -0.2805  0.2365 -0.8603
 1721TIP3    H126798   2.809   3.889   7.676 -0.0161 -2.7067  0.0526
 1721TIP3    H226799   2.887   3.957   7.788 -0.4405  1.2375 -1.8653
 1722TIP3   OH226800   1.050   6.290   8.876  0.8712 -0.2958 -0.1557
 1722TIP3    H126801   1.031   6.213   8.929  0.5386  1.5769  2.6695
 1722TIP3    H226802   1.145   6.289   8.864  1.4368  0.7465  3.2403
 1723TIP3   OH226803   5.552   3.280   1.617 -0.2712 -0.0370 -0.1420
 1723TIP3    H126804   5.529   3.353   1.675  1.0434 -1.4718  2.3171
 1723TIP3    H226805   5.468   3.237   1.599 -0.7453  0.6189  0.4304
 1724TIP3   OH226806   4.961   1.609   7.888 -0.2649 -0.1084 -0.1704
 1724TIP3    H126807   4.866   1.602   7.886 -0.1580 -2.2156 -0.6484
 1724TIP3    H226808   4.989   1.550   7.959  0.6186  2.6926  2.0071
 1725TIP3   OH226809   2.241   0.176   6.808  0.1245 -0.0295 -0.0203
 1725TIP3    H126810   2.235   0.090   6.851 -0.9268  0.1593  0.2336
 1725TIP3    H226811   2.326   0.210   6.835  2.1831 -2.4071 -2.8429
 1726TIP3   OH226812   0.763   5.009   1.191 -0.2687  0.3546  0.1967
 1726TIP3    H126813   0.720   5.094   1.177 -0.7833  0.1462  0.4962
 1726TIP3    H226814   0.702   4.960   1.246  0.4238  0.1051  0.7533
 1727TIP3   OH226815   0.828   3.082   2.573 -1.0793 -0.0716  0.7393
 1727TIP3    H126816   0.768   3.014   2.544 -0.3085 -1.2099  1.7070
 1727TIP3    H226817   0.785   3.164   2.550 -1.7453 -0.8702 -1.0461
 1728TIP3   OH226818   0.584   1.096   7.812  0.7131  0.3172  0.3119
 1728TIP3    H126819   0.624   1.149   7.881  0.1476  0.0399  0.8609
 1728TIP3    H226820   0.569   1.158   7.740  0.6056  0.7758  0.7218
 1729TIP3   OH226821   6.104   0.041   8.725 -0.1127  0.2568 -0.4422
 1729TIP3    H126822   6.180   0.058   8.781  0.4452  1.1447 -1.4392
 1729TIP3    H226823   6.059  -0.033   8.768  2.0843 -1.2606 -0.5840
 1730TIP3   OH226824   3.227   4.749   0.662 -0.2257  0.5643 -0.2655
 1730TIP3    H126825   3.180   4.666   0.665 -0.5056  0.7381  0.9540
 1730TIP3    H226826   3.274   4.748   0.579 -0.4799 -0.6718 -0.4086
 1731TIP3   OH226827   5.928   4.016   8.113  0.4522 -0.2404 -0.0455
 1731TIP3    H126828   5.864   3.945   8.121 -1.3130  1.2649 -0.3006
 1731TIP3    H226829   5.947   4.042   8.203  0.2854 -0.3046  0.0082
 1732TIP3   OH226830   5.473   3.744   0.438  0.2988 -0.0003 -0.2813
 1732TIP3    H126831   5.396   3.801   0.443  1.4911  1.7042 -0.7174
 1732TIP3    H226832   5.446   3.673   0.379 -0.7629  0.8533 -0.8564
 1733TIP3   OH226833   3.105   5.384   1.613 -0.2977 -0.1821  0.6390
 1733TIP3    H126834   3.181   5.424   1.655  0.9291 -0.3652 -1.2546
 1733TIP3    H226835   3.095   5.434   1.532 -1.3770 -1.0156  0.2453
 1734TIP3   OH226836   2.884   0.720   7.717  0.0758  0.5722 -0.1331
 1734TIP3    H126837   2.904   0.733   7.624 -0.9755  0.3814 -0.4023
 1734TIP3    H226838   2.806   0.664   7.717  1.5194 -1.5819  0.9173
 1735TIP3   OH226839   0.278   1.140   8.611 -0.1011 -0.5956  0.1065
 1735TIP3    H126840   0.221   1.155   8.686 -0.3989 -1.1588 -0.0052
 1735TIP3    H226841   0.219   1.113   8.541 -0.0542  1.6211 -0.8653
 1736TIP3   OH226842   3.028   0.780   1.755  0.0590  0.3340 -0.8331
 1736TIP3    H126843   2.944   0.772   1.711 -0.3228  1.2352 -0.3030
 1736TIP3    H226844   3.060   0.867   1.730  1.1244 -0.2432 -1.5193
 1737TIP3   OH226845   2.698   0.505   1.502 -0.2828 -0.3806 -0.2634
 1737TIP3    H126846   2.621   0.474   1.454 -0.2716 -0.6263 -0.1218
 1737TIP3    H226847   2.742   0.426   1.531 -0.1847 -0.2339 -0.0088
 1738TIP3   OH226848   2.432   4.431   8.189 -0.4081  0.6079 -0.8397
 1738TIP3    H126849   2.354   4.374   8.183  0.6421 -0.8547 -1.0873
 1738TIP3    H226850   2.397   4.519   8.177 -2.0949  0.0292 -0.5531
 1739TIP3   OH226851   0.686   5.864   7.841  0.2645  0.1341  0.5392
 1739TIP3    H126852   0.753   5.922   7.876  0.5566  0.4080 -0.4525
 1739TIP3    H226853   0.607   5.918   7.835  0.1272  0.0005  1.0466
 1740TIP3   OH226854   2.401   1.231   1.453  0.1906 -0.2468  0.2332
 1740TIP3    H126855   2.358   1.246   1.537  0.0704  1.2998 -0.0731
 1740TIP3    H226856   2.364   1.149   1.421 -1.3562  0.2306  0.7156
 1741TIP3   OH226857   0.801   5.074   7.071  0.0628  0.3308  0.6191
 1741TIP3    H126858   0.753   4.994   7.094 -0.6249  0.3299 -0.7288
 1741TIP3    H226859   0.758   5.106   6.992  1.6046  0.9293 -0.0190
 1742TIP3   OH226860   0.426   3.313   6.859  0.4845  0.5532  0.2883
 1742TIP3    H126861   0.384   3.272   6.784  0.3606  2.3449 -0.6744
 1742TIP3    H226862   0.354   3.357   6.905  0.6507 -0.0404  1.1421
 1743TIP3   OH226863   1.761   3.246   1.155  0.7187  0.1803 -0.2331
 1743TIP3    H126864   1.739   3.323   1.207 -0.2220  0.9219 -1.6717
 1743TIP3    H226865   1.829   3.276   1.095  1.4236 -0.5303  0.1889
 1744TIP3   OH226866   6.131   1.444   1.237 -0.0282  0.2840 -0.6423
 1744TIP3    H126867   6.055   1.405   1.280 -0.3694  0.1552 -1.3454
 1744TIP3    H226868   6.094   1.504   1.172  0.4812  0.8019 -0.4652
 1745TIP3   OH226869   2.104   5.031   7.688 -0.0413 -0.5306 -0.1953
 1745TIP3    H126870   2.195   5.019   7.714 -0.4659 -3.3241  0.2872
 1745TIP3    H226871   2.072   5.100   7.746  1.1502 -1.1924  1.3277
 1746TIP3   OH226872   4.379   4.102   8.445  0.8212  0.0131 -0.0828
 1746TIP3    H126873   4.367   4.025   8.389  0.0895 -0.8647  1.2546
 1746TIP3    H226874   4.345   4.175   8.393  1.3009 -0.5838 -1.2683
 1747TIP3   OH226875   3.283   0.053   0.788 -0.2709  0.0459  0.1420
 1747TIP3    H126876   3.213   0.049   0.723  0.3513 -1.3355 -0.4689
 1747TIP3    H226877   3.239   0.035   0.871 -0.5984 -1.1125 -0.2752
 1748TIP3   OH226878   0.104   1.723   0.441 -0.0239  0.3156  0.0018
 1748TIP3    H126879   0.132   1.814   0.433 -1.0132  0.4801 -2.9993
 1748TIP3    H226880   0.186   1.674   0.450  0.9526  1.2478 -2.6240
 1749TIP3   OH226881   0.683   5.901   0.117 -0.8786  0.0589 -0.3106
 1749TIP3    H126882   0.666   5.816   0.076 -0.1069 -0.2839  0.0606
 1749TIP3    H226883   0.670   5.964   0.047  0.4311 -0.5236 -1.1264
 1750TIP3   OH226884   1.492   4.426   7.787 -0.1576  0.0296 -0.0954
 1750TIP3    H126885   1.440   4.405   7.710 -3.2213  1.8753  1.2911
 1750TIP3    H226886   1.462   4.366   7.855 -1.1710  1.6527  0.9532
 1751TIP3   OH226887   4.243   4.223   2.422 -0.1763  0.0556  0.4876
 1751TIP3    H126888   4.283   4.165   2.357 -0.9101 -0.6026  0.6055
 1751TIP3    H226889   4.189   4.165   2.475  0.4394  0.5712  1.7134
 1752TIP3   OH226890   0.124   2.913   0.708 -0.1493 -0.6899 -0.4635
 1752TIP3    H126891   0.198   2.858   0.734  2.1266  1.2154 -2.4684
 1752TIP3    H226892   0.159   3.002   0.707 -3.0119  0.5694  0.2700
 1753TIP3   OH226893   1.242   4.325   8.382 -0.0450  0.2969 -0.2060
 1753TIP3    H126894   1.241   4.411   8.425  0.7578  0.0941  0.2279
 1753TIP3    H226895   1.244   4.262   8.453 -0.3878 -0.0803 -0.5282
 1754TIP3   OH226896   1.764   6.254   8.338  0.0012 -0.0822 -0.5024
 1754TIP3    H126897   1.758   6.309   8.260 -0.5567  0.5020 -0.0554
 1754TIP3    H226898   1.687   6.198   8.334 -1.0562  1.2285  0.5722
 1755TIP3   OH226899   0.477   4.383   1.574  0.4158 -0.4327 -0.2907
 1755TIP3    H126900   0.394   4.411   1.613 -0.3833 -1.7636 -0.9666
 1755TIP3    H226901   0.541   4.393   1.645 -0.3831  0.2759  0.3490
 1756TIP3   OH226902   6.174   4.940   7.631 -0.2422 -0.3039  0.2622
 1756TIP3    H126903   6.135   4.883   7.565  0.0120 -0.2869  0.0994
 1756TIP3    H226904   6.250   4.979   7.589  0.2147 -0.6818  0.7196
 1757TIP3   OH226905   6.562   5.499   6.508  0.0993  0.6200 -0.5975
 1757TIP3    H126906   6.653   5.521   6.527  0.2648 -0.2817 -0.3435
 1757TIP3    H226907   6.562   5.405   6.491 -0.8428  0.5396 -0.2294
 1758TIP3   OH226908   3.208   6.344   1.994 -0.3462  0.2097  0.6501
 1758TIP3    H126909   3.251   6.338   2.079 -1.0090 -0.3837  0.9505
 1758TIP3    H226910   3.144   6.273   1.994  0.6206 -0.7474 -0.9076
 1759TIP3   OH226911   5.194   5.294   0.225  0.4839 -0.2643  0.2884
 1759TIP3    H126912   5.208   5.383   0.258 -0.4401 -0.3405  0.9023
 1759TIP3    H226913   5.175   5.242   0.303  1.4374 -1.1041 -0.0114
 1760TIP3   OH226914   3.238   2.868   0.486 -0.2460  0.4829  0.4485
 1760TIP3    H126915   3.222   2.774   0.480 -0.1016  0.5297 -3.4391
 1760TIP3    H226916   3.199   2.904   0.406  1.2692  3.4756  0.9131
 1761TIP3   OH226917   0.525   1.826   8.275  0.0464 -0.0006 -0.1000
 1761TIP3    H126918   0.620   1.836   8.266  0.1601 -0.1055  0.8251
 1761TIP3    H226919   0.508   1.847   8.367 -1.0576  1.6512 -0.6378
 1762TIP3   OH226920   3.041   1.719   1.736 -0.2172 -0.1802  0.4018
 1762TIP3    H126921   3.059   1.680   1.822 -1.7552 -0.9171  0.4187
 1762TIP3    H226922   2.985   1.656   1.692  1.5679 -0.4140 -1.6882
 1763TIP3   OH226923   2.886   2.397   2.229 -0.3002 -0.5045 -0.2315
 1763TIP3    H126924   2.865   2.475   2.280 -1.3295 -0.1587 -1.1544
 1763TIP3    H226925   2.934   2.340   2.290 -0.9761  0.1477  0.9271
 1764TIP3   OH226926   6.649   6.619   7.236 -0.2104 -0.3272  0.1378
 1764TIP3    H126927   6.562   6.584   7.256  0.3603 -0.9321  1.6967
 1764TIP3    H226928   6.676   6.663   7.316  1.8485 -2.0914  0.4960
 1765TIP3   OH226929   1.454   2.580   1.066 -0.3666  0.1413  0.3591
 1765TIP3    H126930   1.389   2.573   1.137 -0.0771  0.1863  0.6324
 1765TIP3    H226931   1.455   2.492   1.027  0.3394 -0.2375  1.1916
 1766TIP3   OH226932   2.066   1.943   1.720 -0.8671  0.6186 -0.2382
 1766TIP3    H126933   2.137   1.957   1.658 -0.2905 -0.8392  0.0459
 1766TIP3    H226934   1.992   1.917   1.665  0.4822 -3.9385 -0.3164
 1767TIP3   OH226935   0.925   1.142   0.606 -0.5767 -0.1126  0.5191
 1767TIP3    H126936   0.836   1.155   0.575  0.6781  0.9495 -3.0637
 1767TIP3    H226937   0.949   1.226   0.645 -0.1226  0.7573 -1.5333
 1768TIP3   OH226938   2.311   1.005   0.040 -0.4007 -0.0612 -0.3702
 1768TIP3    H126939   2.382   1.005  -0.023  0.1255 -1.5792  0.1716
 1768TIP3    H226940   2.231   0.996  -0.012 -0.0264 -0.5207 -0.8696
 1769TIP3   OH226941   3.622   1.452   2.427 -0.0880 -0.1881  0.0434
 1769TIP3    H126942   3.570   1.529   2.450  0.0029 -0.2468  0.4365
 1769TIP3    H226943   3.674   1.433   2.505  0.3032 -0.3102 -0.2443
 1770TIP3   OH226944   5.897   4.403   7.768  0.2099  0.5498 -0.9153
 1770TIP3    H126945   5.819   4.348   7.776  2.5508 -3.1795 -1.4375
 1770TIP3    H226946   5.909   4.413   7.673  1.0147  0.0165 -0.8775
 1771TIP3   OH226947   2.093   3.638   0.443  0.5606 -0.0789 -0.0558
 1771TIP3    H126948   2.176   3.596   0.464 -0.5442 -2.0593  0.5836
 1771TIP3    H226949   2.058   3.666   0.527 -0.1623 -0.7690 -0.1111
 1772TIP3   OH226950   2.673   4.952   0.116 -0.1346 -0.1514 -0.5267
 1772TIP3    H126951   2.691   4.898   0.039  0.0948  1.2992 -1.5388
 1772TIP3    H226952   2.760   4.973   0.151 -0.1142  0.9742 -1.1900
 1773TIP3   OH226953   0.871   0.812   8.342  0.0623 -0.4335 -0.2974
 1773TIP3    H126954   0.913   0.886   8.298 -1.3007 -0.2241 -1.3363
 1773TIP3    H226955   0.934   0.741   8.335  0.9969  0.3704 -0.1552
 1774TIP3   OH226956   5.066   1.745   1.792  0.0140  0.5375  0.2277
 1774TIP3    H126957   5.105   1.820   1.748  1.1994  0.8780  1.7765
 1774TIP3    H226958   5.017   1.783   1.865 -1.6920 -0.0315 -0.5716
 1775TIP3   OH226959   0.341   5.805   2.198  0.2626 -0.5482  0.3044
 1775TIP3    H126960   0.396   5.870   2.242 -0.3695 -0.5375  1.1151
 1775TIP3    H226961   0.366   5.811   2.106  0.4431  0.6291  0.4058
 1776TIP3   OH226962   5.419   0.845   1.936  0.7942 -0.9552 -0.4468
 1776TIP3    H126963   5.399   0.871   2.026  2.0699 -0.9856 -0.1319
 1776TIP3    H226964   5.368   0.906   1.882  0.7209 -0.3314  0.2977
 1777TIP3   OH226965   4.705   4.547   0.225  0.0717 -0.0294 -0.1733
 1777TIP3    H126966   4.786   4.577   0.183  1.2939 -1.7546  0.7996
 1777TIP3    H226967   4.716   4.452   0.230 -3.0446 -0.6319 -2.0776
 1778TIP3   OH226968   4.756   0.048   8.818 -0.0217 -0.0212  0.0675
 1778TIP3    H126969   4.672   0.010   8.793 -0.3650  0.8558 -0.1447
 1778TIP3    H226970   4.819   0.009   8.757 -0.6593  1.1617 -1.4262
 1779TIP3   OH226971   0.931   6.145   3.159  0.2949 -0.1679  0.5478
 1779TIP3    H126972   0.990   6.141   3.235 -1.4228  1.1885  2.0609
 1779TIP3    H226973   0.962   6.220   3.108 -0.3176  0.8100  1.5659
 1780TIP3   OH226974   0.899   6.791   8.814 -0.4749 -0.0351 -0.3273
 1780TIP3    H126975   0.955   6.818   8.886 -3.9512  1.3433  2.1474
 1780TIP3    H226976   0.911   6.696   8.808  0.7167 -0.0256  1.3527
 1781TIP3   OH226977   2.265   1.649   8.762  0.0237 -0.1704  0.1572
 1781TIP3    H126978   2.213   1.641   8.842  1.8077 -0.0788  1.3884
 1781TIP3    H226979   2.337   1.587   8.774  0.5819  0.1841 -1.1747
 1782TIP3   OH226980   0.529   0.723   0.762  0.1385 -0.2820 -0.4098
 1782TIP3    H126981   0.596   0.753   0.701  0.2441  0.6697  0.1631
 1782TIP3    H226982   0.576   0.669   0.825  0.1172 -0.8087 -0.8314
 1783TIP3   OH226983   0.954   3.527   7.500  0.5014 -0.4090  0.2453
 1783TIP3    H126984   0.958   3.520   7.595 -1.2185 -1.7473  0.2700
 1783TIP3    H226985   0.923   3.616   7.484 -1.5938 -0.9349  1.0800
 1784TIP3   OH226986   6.070   6.649   2.216 -0.3106  0.5871  0.5937
 1784TIP3    H126987   5.997   6.695   2.256 -0.4026  0.7661  0.2252
 1784TIP3    H226988   6.148   6.688   2.255 -0.3870  1.0950  0.2483
 1785TIP3   OH226989   4.207   5.021   0.090  0.0065  0.1625 -0.5577
 1785TIP3    H126990   4.280   5.004   0.031  0.8648 -0.3210  0.6120
 1785TIP3    H226991   4.247   5.065   0.165 -1.1244  1.1341 -0.4915
 1786TIP3   OH226992   6.663   1.975   2.272 -0.6519  0.0900 -0.4429
 1786TIP3    H126993   6.599   1.918   2.229  0.1658 -0.8830 -0.4168
 1786TIP3    H226994   6.627   1.988   2.360 -0.4155 -1.1768 -0.1267
 1787TIP3   OH226995   1.649   4.399   1.250 -0.6267  0.0959 -0.1731
 1787TIP3    H126996   1.656   4.433   1.160  2.1972  1.1755  0.3545
 1787TIP3    H226997   1.718   4.444   1.298 -1.7331 -0.8430  2.4628
 1788TIP3   OH226998   5.771   5.531   2.681  0.5268 -0.0141 -0.2887
 1788TIP3    H126999   5.742   5.459   2.624 -0.1971  1.1188 -1.3949
 1788TIP3    H227000   5.845   5.569   2.635 -0.4014  1.2515 -0.7840
 1789TIP3   OH227001   5.851   4.016   0.032  0.2460  0.0532  0.1491
 1789TIP3    H127002   5.811   3.930   0.044  0.6209 -0.1970 -0.3571
 1789TIP3    H227003   5.794   4.075   0.081  0.3452 -0.5671  1.0261
 1790TIP3   OH227004   2.101   3.269   2.097 -0.0741 -0.9559  0.1910
 1790TIP3    H127005   2.109   3.217   2.017 -0.4939 -1.7914  0.6789
 1790TIP3    H227006   2.116   3.207   2.168  1.9663  0.0754  0.7634
 1791TIP3   OH227007   1.251   6.591   2.449  0.1807 -1.0513 -0.1066
 1791TIP3    H127008   1.166   6.631   2.436 -0.0481 -1.0064  1.3473
 1791TIP3    H227009   1.236   6.497   2.433 -0.2651 -1.1091  0.5957
 1792TIP3   OH227010   6.409   6.103   2.123  0.1642 -0.7395 -0.2056
 1792TIP3    H127011   6.327   6.054   2.119 -0.2903  0.0252 -0.5642
 1792TIP3    H227012   6.465   6.062   2.057 -0.8493  0.3356 -1.8015
 1793TIP3   OH227013   5.695   6.592   7.327 -0.2501 -0.7751  0.1649
 1793TIP3    H127014   5.746   6.514   7.307 -0.0443 -0.9753  1.4292
 1793TIP3    H227015   5.651   6.572   7.409  0.9259  0.9244  1.2901
 1794TIP3   OH227016   2.564   2.733   0.406 -0.1635  0.4364  0.9818
 1794TIP3    H127017   2.534   2.731   0.315 -0.8507  0.0233  1.2110
 1794TIP3    H227018   2.563   2.642   0.434  1.3259  0.4120  1.0091
 1795TIP3   OH227019   2.875   6.337   7.917  0.5906  0.3863  0.4640
 1795TIP3    H127020   2.789   6.300   7.937  0.2928  0.2393 -0.9821
 1795TIP3    H227021   2.920   6.268   7.868  0.0850  1.8042 -2.1425
 1796TIP3   OH227022   3.371   4.825   2.413  0.4005 -0.1286  0.2654
 1796TIP3    H127023   3.361   4.730   2.408  3.0153 -0.4967  0.7019
 1796TIP3    H227024   3.312   4.852   2.483  0.2241 -1.5478  0.6926
 1797TIP3   OH227025   3.731   6.296   1.720  0.0742  0.4478  0.0711
 1797TIP3    H127026   3.688   6.210   1.720  1.2190 -0.1976  2.1562
 1797TIP3    H227027   3.678   6.349   1.661 -1.3091 -1.3787 -0.4372
 1798TIP3   OH227028   6.442   1.956   8.637  0.0449 -0.0864  0.0619
 1798TIP3    H127029   6.402   1.904   8.707 -0.8262  0.4322 -0.0506
 1798TIP3    H227030   6.376   2.020   8.612  1.1764  1.2499  0.3441
 1799TIP3   OH227031   4.139   1.313   1.694 -0.2078  0.1666 -0.8133
 1799TIP3    H127032   4.214   1.263   1.724  0.8827  1.4737 -1.2700
 1799TIP3    H227033   4.111   1.269   1.614 -1.1919 -1.4801  0.3761
 1800TIP3   OH227034   4.889   1.682   7.625  0.2007  0.4500 -0.2967
 1800TIP3    H127035   4.909   1.775   7.620  0.3208  0.3958 -0.8755
 1800TIP3    H227036   4.933   1.652   7.704  0.5207  0.7955 -0.3431
 1801TIP3   OH227037   4.360   4.379   1.961 -0.3369 -0.4997 -0.4112
 1801TIP3    H127038   4.447   4.365   1.924 -0.3114 -0.5860 -0.3204
 1801TIP3    H227039   4.329   4.460   1.920  0.3533  0.3091  0.6111
 1802TIP3   OH227040   5.274   2.138   1.219 -0.0893 -0.2501  0.2271
 1802TIP3    H127041   5.209   2.117   1.153 -0.3214 -0.5468  0.5470
 1802TIP3    H227042   5.261   2.231   1.237 -1.0673 -0.5099  0.9735
 1803TIP3   OH227043   3.728   0.979   7.184 -0.6053  0.5624  0.7747
 1803TIP3    H127044   3.674   0.967   7.106 -1.2788  1.5950  1.0601
 1803TIP3    H227045   3.667   0.966   7.257 -0.1283  0.2502  1.1170
 1804TIP3   OH227046   6.390   4.242   1.273  0.1991  0.1176  0.0484
 1804TIP3    H127047   6.400   4.261   1.179 -1.1856 -0.4328 -0.2382
 1804TIP3    H227048   6.376   4.148   1.276  2.1113 -0.1777  1.0058
 1805TIP3   OH227049   0.171   4.609   8.700  0.3258  0.0766  0.2023
 1805TIP3    H127050   0.189   4.633   8.791 -0.9778 -0.6449  0.6731
 1805TIP3    H227051   0.257   4.582   8.666  0.4209 -2.5950  2.1531
 1806TIP3   OH227052   4.062   5.537   7.565  0.2244  0.2514  0.3130
 1806TIP3    H127053   4.101   5.569   7.484 -0.9550  2.5456  0.5794
 1806TIP3    H227054   3.968   5.546   7.553  0.0022  0.1224  1.7252
 1807TIP3   OH227055   4.510   2.816   0.127 -0.5799  0.1260 -0.1229
 1807TIP3    H127056   4.462   2.813   0.044 -0.6996  2.9693 -0.2547
 1807TIP3    H227057   4.601   2.832   0.103 -0.9788  3.6189  0.2031
 1808TIP3   OH227058   4.058   0.806   8.820  0.3988 -0.1352  0.4311
 1808TIP3    H127059   3.984   0.752   8.847  0.8339 -0.2552  1.4222
 1808TIP3    H227060   4.018   0.887   8.787 -0.2243 -0.7670 -0.4158
 1809TIP3   OH227061   6.410   0.032   1.861  0.1462  0.4050  0.3853
 1809TIP3    H127062   6.371  -0.049   1.893 -0.3111  1.2971  2.2601
 1809TIP3    H227063   6.361   0.053   1.782  0.4628 -1.2639 -0.2891
 1810TIP3   OH227064   0.916   3.264   7.776 -0.1585 -0.0259 -0.2089
 1810TIP3    H127065   0.830   3.231   7.803 -1.1287 -0.3163 -3.2777
 1810TIP3    H227066   0.911   3.358   7.792 -1.9800  0.3222 -2.3557
 1811TIP3   OH227067   3.211   6.339   8.560 -0.7144  0.6748 -0.1461
 1811TIP3    H127068   3.144   6.394   8.601 -1.3919  0.6242 -1.1708
 1811TIP3    H227069   3.224   6.377   8.474 -1.1422 -0.7076 -0.8513
 1812TIP3   OH227070   0.411   5.004   2.315 -0.7370  0.7287  0.3767
 1812TIP3    H127071   0.423   4.968   2.227 -0.3325 -0.2831  0.8327
 1812TIP3    H227072   0.325   5.045   2.313 -0.6332  0.9176 -0.5531
 1813TIP3   OH227073   5.858   5.586   3.137  0.7650 -0.1672 -0.0418
 1813TIP3    H127074   5.893   5.643   3.068 -0.1368  0.1039 -0.2796
 1813TIP3    H227075   5.820   5.512   3.090 -0.9447  0.5998  0.0610
 1814TIP3   OH227076   4.893   1.347   7.874  0.2024 -0.7858 -0.5493
 1814TIP3    H127077   4.820   1.297   7.837 -0.3171  0.3874 -1.1437
 1814TIP3    H227078   4.877   1.345   7.969  0.1010 -1.5956 -0.5768
 1815TIP3   OH227079   2.675   0.167   2.328 -0.5829 -0.1448 -0.3311
 1815TIP3    H127080   2.591   0.139   2.364 -0.2903 -0.3154  0.2305
 1815TIP3    H227081   2.665   0.261   2.314  0.2707  0.5984  3.0965
 1816TIP3   OH227082   2.984   6.384   0.726  0.0119 -0.2468 -0.4057
 1816TIP3    H127083   3.009   6.302   0.769  2.1942  0.7855  0.4328
 1816TIP3    H227084   2.899   6.406   0.763  0.6158 -0.7794  1.4143
 1817TIP3   OH227085   1.784   6.704   0.636 -0.0789  0.0083  0.3525
 1817TIP3    H127086   1.789   6.683   0.543  0.9266  0.0144  0.3887
 1817TIP3    H227087   1.822   6.626   0.679 -0.4280  0.0542  0.7435
 1818TIP3   OH227088   3.875   2.524   2.018  0.7432  0.8185 -0.5343
 1818TIP3    H127089   3.893   2.444   2.067 -0.4239  0.8192 -0.0635
 1818TIP3    H227090   3.812   2.571   2.072  1.3813  2.0437 -0.8323
 1819TIP3   OH227091   5.536   1.133   2.857  0.1565  0.2671 -0.5230
 1819TIP3    H127092   5.611   1.082   2.889 -0.2253  1.1317  2.0068
 1819TIP3    H227093   5.570   1.223   2.852 -0.4435  0.5053 -0.3306
 1820TIP3   OH227094   1.224   1.654   0.214 -0.2980 -0.1546  0.0495
 1820TIP3    H127095   1.174   1.735   0.219 -0.8060 -0.3984 -0.8684
 1820TIP3    H227096   1.162   1.585   0.238  0.1170 -0.2875  0.7782
 1821TIP3   OH227097   1.118   3.034   1.901 -0.4155  0.0906 -0.2577
 1821TIP3    H127098   1.034   3.063   1.936 -0.1141  0.7221 -0.0328
 1821TIP3    H227099   1.098   2.955   1.852 -1.2389  0.5731 -0.7141
 1822TIP3   OH227100   1.116   1.138   1.261 -0.3820 -0.9262  0.2192
 1822TIP3    H127101   1.052   1.153   1.331  0.6901  1.3294  0.8047
 1822TIP3    H227102   1.101   1.208   1.198  1.1334 -0.6437  0.1214
 1823TIP3   OH227103   0.882   5.839   7.616  0.0107 -0.0410 -0.3452
 1823TIP3    H127104   0.906   5.798   7.699  1.0433 -0.7391 -0.9723
 1823TIP3    H227105   0.786   5.835   7.615  0.0055 -0.5780  0.5335
 1824TIP3   OH227106   4.187   3.897   1.592 -0.6496 -0.1878 -0.1943
 1824TIP3    H127107   4.225   3.985   1.602 -0.2816 -0.4620  1.0607
 1824TIP3    H227108   4.124   3.906   1.521  0.2262  0.8057 -0.8653
 1825TIP3   OH227109   5.190   5.748   2.725 -0.1288 -0.6408 -0.3341
 1825TIP3    H127110   5.268   5.802   2.737 -1.2379  1.1262 -0.7454
 1825TIP3    H227111   5.188   5.731   2.631 -1.6160  1.6344 -0.8091
 1826TIP3   OH227112   3.583   0.911   8.859 -0.2586  0.2230  0.0484
 1826TIP3    H127113   3.675   0.936   8.848  0.1116 -0.7509  0.8581
 1826TIP3    H227114   3.555   0.957   8.938 -0.9812  1.8614 -1.1075
 1827TIP3   OH227115   4.409   6.626   7.260 -0.2222  0.2539 -0.8775
 1827TIP3    H127116   4.351   6.685   7.308 -0.1627  0.1783 -0.7131
 1827TIP3    H227117   4.350   6.570   7.210 -0.3648 -0.9290  0.5616
 1828TIP3   OH227118   3.764   5.757   7.359 -0.0780  0.4300 -0.0922
 1828TIP3    H127119   3.704   5.689   7.390  0.5568 -0.6381 -1.1447
 1828TIP3    H227120   3.709   5.816   7.307 -0.3921  0.0363 -0.2085
 1829TIP3   OH227121   4.429   3.367   1.874  0.2981  0.2873 -0.1456
 1829TIP3    H127122   4.364   3.308   1.911  1.7515 -0.3641  1.5604
 1829TIP3    H227123   4.404   3.378   1.782 -1.1933 -1.2925  0.0368
 1830TIP3   OH227124   6.503   2.017   2.499 -0.7283 -0.1264 -0.2047
 1830TIP3    H127125   6.461   1.970   2.570  0.0147  0.7732  0.8622
 1830TIP3    H227126   6.503   2.108   2.527  1.2466  0.0096 -0.4840
 1831TIP3   OH227127   4.330   0.811   8.053  0.4749  0.3317 -0.3326
 1831TIP3    H127128   4.256   0.869   8.072  1.5429  1.5716  0.2799
 1831TIP3    H227129   4.291   0.725   8.043 -1.0385  0.9245  0.0752
 1832TIP3   OH227130   2.614   1.745   8.714 -0.0226 -0.3257  0.2594
 1832TIP3    H127131   2.702   1.763   8.680 -0.2395 -1.2996 -0.8799
 1832TIP3    H227132   2.614   1.651   8.733 -0.6793 -0.2464  0.6912
 1833TIP3   OH227133   1.451   0.879   0.066 -0.9929  0.5295 -0.4487
 1833TIP3    H127134   1.491   0.812   0.011  0.0878  0.1576  0.7398
 1833TIP3    H227135   1.428   0.833   0.147 -1.9015  1.2157 -0.2987
 1834TIP3   OH227136   5.826   6.652   1.105  0.6414  0.0310  0.6440
 1834TIP3    H127137   5.787   6.572   1.140  0.1857  0.9768  2.3745
 1834TIP3    H227138   5.751   6.707   1.081  0.9470  0.3229  0.3414
 1835TIP3   OH227139   5.671   4.304   8.131 -0.0596  0.1010 -0.1175
 1835TIP3    H127140   5.675   4.244   8.056 -0.0629 -0.2308  0.1469
 1835TIP3    H227141   5.692   4.250   8.206 -3.1786 -0.3269  0.5657
 1836TIP3   OH227142   5.350   1.123   2.344  0.3753 -0.2062  0.4746
 1836TIP3    H127143   5.366   1.063   2.417 -1.7078  0.9173  1.9504
 1836TIP3    H227144   5.384   1.208   2.375 -0.1388  0.1932 -0.0325
 1837TIP3   OH227145   4.675   4.038   7.277 -0.2607 -0.3948  0.2410
 1837TIP3    H127146   4.587   4.075   7.286 -0.3683 -0.3795 -0.6915
 1837TIP3    H227147   4.688   3.985   7.355 -0.0048  1.8062  1.7800
 1838TIP3   OH227148   5.843   0.029   6.847 -0.9547  0.4818  0.1920
 1838TIP3    H127149   5.870   0.112   6.887 -0.5120  0.4652 -0.0547
 1838TIP3    H227150   5.845  -0.034   6.919  2.9909 -0.2689 -0.3481
 1839TIP3   OH227151   0.113   0.960   1.891 -0.5869  0.1826 -0.2729
 1839TIP3    H127152   0.035   0.996   1.849 -0.9995  0.2953  0.5579
 1839TIP3    H227153   0.176   1.031   1.889 -1.4590  1.0731  1.5240
 1840TIP3   OH227154   1.685   5.012   1.791  0.2774 -0.4168 -0.1026
 1840TIP3    H127155   1.634   5.080   1.835  1.0188 -0.1916  0.4324
 1840TIP3    H227156   1.627   4.936   1.789  0.0774 -0.3039  0.9055
 1841TIP3   OH227157   4.981   4.005   1.161 -0.4051  0.4835 -0.4703
 1841TIP3    H127158   4.914   4.069   1.139 -1.0613  0.2888  0.8621
 1841TIP3    H227159   5.006   4.027   1.250  2.0565  1.1797 -1.2539
 1842TIP3   OH227160   4.979   6.002   0.447 -0.1502  0.4686 -0.1233
 1842TIP3    H127161   5.034   5.926   0.426 -1.7101 -0.5644 -0.5958
 1842TIP3    H227162   4.891   5.967   0.455 -0.5432  1.8016  2.3365
 1843TIP3   OH227163   6.605   1.851   7.841 -0.2779 -0.2916  0.0343
 1843TIP3    H127164   6.666   1.901   7.787 -2.2744  1.8888 -0.3485
 1843TIP3    H227165   6.625   1.879   7.931 -1.0501  0.8770 -0.1375
 1844TIP3   OH227166   3.290   2.915   8.586  0.1851 -0.4264 -0.1360
 1844TIP3    H127167   3.276   2.870   8.503  0.9770 -0.6128 -0.1727
 1844TIP3    H227168   3.349   2.988   8.564  0.5079 -0.5578  0.2837
 1845TIP3   OH227169   4.305   2.099   8.213 -0.0109 -0.2784  0.2378
 1845TIP3    H127170   4.269   2.017   8.179 -1.5270  1.0264 -1.5209
 1845TIP3    H227171   4.303   2.158   8.138  3.0871  0.7963  0.8455
 1846TIP3   OH227172   3.634   1.372   2.002  0.1696  0.0800 -0.2950
 1846TIP3    H127173   3.728   1.364   1.984  0.2247  0.1739 -0.0587
 1846TIP3    H227174   3.592   1.314   1.938  0.4758 -1.1270  0.5689
 1847TIP3   OH227175   2.691   5.253   0.540  0.0155  0.0581 -0.0036
 1847TIP3    H127176   2.613   5.288   0.582  1.0651  0.3711  1.7749
 1847TIP3    H227177   2.683   5.158   0.550  0.9363  0.1561  2.3404
 1848TIP3   OH227178   5.819   2.204   0.070 -0.1891  0.0063 -0.3689
 1848TIP3    H127179   5.775   2.123   0.097 -1.1134  0.7929  0.5917
 1848TIP3    H227180   5.825   2.255   0.151  1.1912  0.5347 -0.7864
 1849TIP3   OH227181   3.186   1.564   0.307  0.4235  0.5102 -0.0231
 1849TIP3    H127182   3.212   1.522   0.389  0.6300  0.2068 -0.2435
 1849TIP3    H227183   3.198   1.496   0.240 -0.9002  0.3668 -0.1390
 1850TIP3   OH227184   0.019   6.448   8.707  0.2277 -0.1546  0.4346
 1850TIP3    H127185  -0.049   6.380   8.710  0.4134 -0.3176  1.3205
 1850TIP3    H227186  -0.024   6.522   8.664  0.1421 -0.9482 -0.9012
 1851TIP3   OH227187   3.963   1.630   0.797 -0.4572 -0.0712 -0.0897
 1851TIP3    H127188   3.919   1.559   0.750 -0.3486  0.2955 -0.7676
 1851TIP3    H227189   4.039   1.650   0.743 -0.3287  0.3605  0.2501
 1852TIP3   OH227190   0.675   6.395   1.813 -0.5410  0.2078  0.3651
 1852TIP3    H127191   0.736   6.466   1.830 -0.3310  0.2090 -0.3635
 1852TIP3    H227192   0.729   6.316   1.813 -0.7534  0.0622  1.0492
 1853TIP3   OH227193   5.817   5.572   8.356  0.1320  0.0606  0.1950
 1853TIP3    H127194   5.885   5.626   8.397 -0.2486  0.4618  0.3060
 1853TIP3    H227195   5.735   5.607   8.390 -0.1059 -0.9396  0.6848
 1854TIP3   OH227196   1.470   5.440   8.380  0.1906 -0.3194 -0.3683
 1854TIP3    H127197   1.451   5.390   8.300  0.8089  1.4507 -1.6667
 1854TIP3    H227198   1.402   5.507   8.383 -0.5962 -1.1478  1.3281
 1855TIP3   OH227199   2.337   6.515   1.272 -0.1767  0.4618 -0.1650
 1855TIP3    H127200   2.301   6.584   1.328  2.5783  0.8761  1.2702
 1855TIP3    H227201   2.289   6.436   1.298 -0.8504  1.1688  0.8353
 1856TIP3   OH227202   0.233   6.145   1.380  0.7403 -0.1959  0.4157
 1856TIP3    H127203   0.269   6.062   1.348  1.2784  1.1517 -2.7638
 1856TIP3    H227204   0.163   6.166   1.318  0.1834  1.4657  1.5349
 1857TIP3   OH227205   4.789   1.469   0.714  0.2161  0.4093 -0.6757
 1857TIP3    H127206   4.882   1.488   0.700  0.3508 -0.9584 -1.9343
 1857TIP3    H227207   4.744   1.520   0.646  0.1582  0.1849 -0.8089
 1858TIP3   OH227208   6.387   5.272   0.638 -0.1472 -0.6951  0.9804
 1858TIP3    H127209   6.353   5.348   0.685  0.0456 -0.1012  0.1899
 1858TIP3    H227210   6.382   5.200   0.701 -0.9626 -0.1748  1.5278
 1859TIP3   OH227211   4.909   6.103   2.386  0.2805  0.2119  0.1805
 1859TIP3    H127212   4.865   6.068   2.463  2.8847 -1.4199  1.0588
 1859TIP3    H227213   4.892   6.197   2.389 -2.2261 -0.1867  0.9467
 1860TIP3   OH227214   3.223   5.433   8.169 -0.0706  0.0082 -0.1316
 1860TIP3    H127215   3.150   5.389   8.127  0.0181  0.9978 -1.4014
 1860TIP3    H227216   3.221   5.403   8.260 -1.8347 -0.2422 -0.2191
 1861TIP3   OH227217   3.562   3.116   1.066 -0.2824 -0.3558  0.2807
 1861TIP3    H127218   3.601   3.030   1.047  0.4484  0.0403 -0.0409
 1861TIP3    H227219   3.634   3.178   1.056 -0.5871  0.2063  1.3833
 1862TIP3   OH227220   0.208   0.819   2.237 -0.5015  0.5921 -0.4245
 1862TIP3    H127221   0.281   0.812   2.176 -2.5671 -0.8593 -2.9319
 1862TIP3    H227222   0.222   0.747   2.299  0.8340  1.1301 -0.0732
 1863TIP3   OH227223   5.855   2.858   7.939  0.2569  0.1582 -0.4861
 1863TIP3    H127224   5.944   2.823   7.951  0.4935  1.0979  0.7688
 1863TIP3    H227225   5.799   2.792   7.980  0.3070 -0.6380 -1.6390
 1864TIP3   OH227226   2.604   1.685   8.128 -0.1957  0.1214 -0.2112
 1864TIP3    H127227   2.514   1.711   8.104 -0.4731 -0.4380  0.2065
 1864TIP3    H227228   2.646   1.767   8.153 -0.5171  0.4243 -0.6542
 1865TIP3   OH227229   5.640   2.072   7.200  0.1056 -0.8193  0.1824
 1865TIP3    H127230   5.594   2.017   7.136  1.1878  0.7135 -2.0742
 1865TIP3    H227231   5.636   2.160   7.162 -0.7186  0.5399  3.1725
 1866TIP3   OH227232   1.439   5.653   8.739 -0.0979 -0.2049 -0.6483
 1866TIP3    H127233   1.408   5.572   8.697  0.7258 -0.6505 -0.4243
 1866TIP3    H227234   1.520   5.674   8.693 -0.5977  0.8266 -1.0861
 1867TIP3   OH227235   0.738   2.945   0.767  0.5739  0.0384 -0.2337
 1867TIP3    H127236   0.821   2.985   0.743  0.5189  0.9593  0.9987
 1867TIP3    H227237   0.760   2.885   0.839 -0.0388  1.7914  1.5222
 1868TIP3   OH227238   1.626   5.306   8.822 -0.2579  0.3814 -0.0189
 1868TIP3    H127239   1.611   5.220   8.862 -0.0174  0.7886  0.9866
 1868TIP3    H227240   1.544   5.327   8.778 -0.3597 -0.3118 -0.1619
 1869TIP3   OH227241   3.655   6.054   8.167 -0.5026 -0.1106  0.6447
 1869TIP3    H127242   3.668   5.960   8.181  0.2639  0.0284  0.9273
 1869TIP3    H227243   3.582   6.077   8.225 -0.0617 -0.3499  1.3157
 1870TIP3   OH227244   2.223   4.557   8.474 -0.4895  0.6661  0.0978
 1870TIP3    H127245   2.200   4.475   8.517  1.0986 -0.5752 -1.2826
 1870TIP3    H227246   2.277   4.604   8.538 -0.6888  0.2595  0.5666
 1871TIP3   OH227247   6.372   3.787   8.006 -0.0884  0.7029  0.5638
 1871TIP3    H127248   6.373   3.712   8.066  0.6954 -0.3204 -0.6649
 1871TIP3    H227249   6.292   3.835   8.028  0.4177  0.6281  2.7102
 1872TIP3   OH227250   1.557   1.577   7.729 -0.4784 -0.0212  0.3084
 1872TIP3    H127251   1.586   1.636   7.659  1.0012 -0.3241  0.6186
 1872TIP3    H227252   1.496   1.517   7.686 -2.6624  2.1699  0.1604
 1873TIP3   OH227253   2.077   4.685   1.478 -0.0276  0.1487  0.7270
 1873TIP3    H127254   2.106   4.722   1.561 -0.9324  0.2803  0.9954
 1873TIP3    H227255   1.984   4.708   1.472  0.2499  1.0592 -0.8170
 1874TIP3   OH227256   5.874   5.845   0.045  0.0682 -0.2319  0.0660
 1874TIP3    H127257   5.781   5.828   0.029 -0.0819  0.6166 -0.0094
 1874TIP3    H227258   5.919   5.785  -0.014 -0.4373 -0.3173 -0.2448
 1875TIP3   OH227259   1.414   3.286   8.250 -0.2838  0.3808  0.1474
 1875TIP3    H127260   1.447   3.375   8.239 -3.4712  1.8550  1.6122
 1875TIP3    H227261   1.336   3.282   8.195 -0.4035 -1.4549  0.3789
 1876TIP3   OH227262   2.419   2.478   1.374  1.0597 -0.2857 -0.1608
 1876TIP3    H127263   2.340   2.461   1.425  0.0975 -0.3388 -1.5822
 1876TIP3    H227264   2.429   2.399   1.319  2.1522 -0.3140  0.0650
 1877TIP3   OH227265   1.079   5.917   8.736  0.4106  0.1420 -0.2847
 1877TIP3    H127266   1.129   5.938   8.815  1.5478 -2.7091 -0.1435
 1877TIP3    H227267   1.013   5.986   8.731  2.0966  2.0354  1.5266
 1878TIP3   OH227268   1.742   1.926   1.890  0.1642  0.1742 -0.0993
 1878TIP3    H127269   1.768   1.890   1.975  1.5913  1.6478  0.1338
 1878TIP3    H227270   1.778   1.865   1.826  2.2985  0.9300  0.2920
 1879TIP3   OH227271   0.260   6.670   7.549  0.1145 -0.0192  0.4778
 1879TIP3    H127272   0.314   6.607   7.501  0.6551  0.0797  0.9465
 1879TIP3    H227273   0.246   6.742   7.487  2.5091  1.0669  1.0627
 1880TIP3   OH227274   3.643   1.410   8.399  0.2776  0.2774  0.0888
 1880TIP3    H127275   3.597   1.399   8.483  0.4634 -0.2640  0.1279
 1880TIP3    H227276   3.714   1.470   8.418 -0.0504  0.6406  0.1753
 1881TIP3   OH227277   3.598   0.647   1.733  0.2044  0.1357 -0.1237
 1881TIP3    H127278   3.660   0.716   1.757 -0.5007  0.3999  1.0265
 1881TIP3    H227279   3.618   0.575   1.793  1.8854 -1.2690 -2.2456
 1882TIP3   OH227280   3.305   4.826   1.457 -0.0537  0.3743  0.1116
 1882TIP3    H127281   3.229   4.882   1.474 -0.8750 -0.3596 -0.9815
 1882TIP3    H227282   3.267   4.740   1.437  1.0862 -0.0744 -0.2120
 1883TIP3   OH227283   2.705   4.033   8.907 -0.6079 -0.0941  0.2002
 1883TIP3    H127284   2.759   4.112   8.909 -0.0915 -0.4277 -0.2403
 1883TIP3    H227285   2.768   3.962   8.893 -1.1444 -0.5027 -0.1673
 1884TIP3   OH227286   3.349   2.918   7.996  0.2918 -0.2164 -0.0794
 1884TIP3    H127287   3.273   2.876   8.037 -0.1165  0.9972  0.4380
 1884TIP3    H227288   3.424   2.868   8.029 -0.1567 -0.3707  0.7365
 1885TIP3   OH227289   0.765   2.683   7.904  0.0573 -0.6574 -0.0334
 1885TIP3    H127290   0.734   2.697   7.814 -1.1117 -0.3695  0.3941
 1885TIP3    H227291   0.699   2.725   7.959  1.3206  0.1030  0.9395
 1886TIP3   OH227292   2.558   0.955   1.041  0.0616  0.3149 -0.5488
 1886TIP3    H127293   2.522   0.888   1.098 -0.2729 -0.9113 -2.1359
 1886TIP3    H227294   2.641   0.979   1.082 -1.3244  1.3802  1.8163
 1887TIP3   OH227295   5.170   4.232   2.181  0.1364  0.0310 -0.0306
 1887TIP3    H127296   5.253   4.265   2.216  0.5262 -1.5037  0.6101
 1887TIP3    H227297   5.105   4.297   2.208  1.2310  1.7731 -1.3988
 1888TIP3   OH227298   4.495   2.983   1.621  0.7182 -0.7961  0.7522
 1888TIP3    H127299   4.483   3.025   1.706 -1.1845 -1.5268  0.9007
 1888TIP3    H227300   4.475   2.891   1.638  0.1395 -0.9201 -0.5081
 1889TIP3   OH227301   3.910   4.277   2.497  0.1352 -0.1444 -0.2834
 1889TIP3    H127302   3.933   4.207   2.435 -0.1554  1.3618 -2.2157
 1889TIP3    H227303   3.986   4.335   2.497  0.2165 -0.2348  0.9815
 1890TIP3   OH227304   0.876   1.297   8.748 -0.4067  0.3354 -0.7476
 1890TIP3    H127305   0.970   1.284   8.732 -0.5774 -0.4492 -1.1850
 1890TIP3    H227306   0.872   1.336   8.835  0.2694 -0.8103 -0.1788
 1891TIP3   OH227307   4.234   5.031   8.546 -0.3965 -0.1950  0.2142
 1891TIP3    H127308   4.234   4.990   8.460 -1.7546  0.4658 -0.1239
 1891TIP3    H227309   4.173   4.977   8.598  1.0945 -1.1383  1.0698
 1892TIP3   OH227310   3.728   5.122   0.428 -0.0960 -0.5232  0.7500
 1892TIP3    H127311   3.651   5.124   0.371  0.1148 -0.5908  0.4618
 1892TIP3    H227312   3.767   5.036   0.414 -0.1573 -0.6165  1.1482
 1893TIP3   OH227313   2.539   4.052   1.618  0.0818 -0.1053  0.5442
 1893TIP3    H127314   2.606   4.110   1.582  1.5163 -0.5524  2.3344
 1893TIP3    H227315   2.583   3.967   1.627 -1.3522 -0.9615 -0.0921
 1894TIP3   OH227316   6.294   2.875   7.735  0.6320  0.2849  0.2468
 1894TIP3    H127317   6.379   2.852   7.697  1.4046  0.9418  1.5181
 1894TIP3    H227318   6.308   2.870   7.829 -0.6735  0.6786  0.4775
 1895TIP3   OH227319   5.330   3.487   6.974 -0.2544 -0.1436  0.1355
 1895TIP3    H127320   5.287   3.554   6.922  0.8434  1.3331  1.0324
 1895TIP3    H227321   5.276   3.409   6.963 -2.3266  1.2211  0.1035
 1896TIP3   OH227322   1.009   4.953   1.366  0.1035  0.0032  0.2169
 1896TIP3    H127323   0.932   4.919   1.321 -0.0951 -0.4971  0.9107
 1896TIP3    H227324   1.004   4.914   1.454  1.7046 -0.8777 -0.0582
 1897TIP3   OH227325   2.987   1.844   8.015 -0.0260 -0.0803 -0.3492
 1897TIP3    H127326   2.981   1.938   8.002 -1.7381  0.0706  1.1641
 1897TIP3    H227327   2.936   1.806   7.944  1.5147  0.0226 -1.5753
 1898TIP3   OH227328   4.427   5.846   7.929 -0.1491  0.5506 -0.1046
 1898TIP3    H127329   4.356   5.784   7.944 -0.0576  0.6202  0.6159
 1898TIP3    H227330   4.460   5.823   7.842  1.4266 -1.9532  1.0304
 1899TIP3   OH227331   1.422   1.200   1.871  0.0802  0.2956  0.3911
 1899TIP3    H127332   1.435   1.293   1.852 -0.7088  0.9099  2.6156
 1899TIP3    H227333   1.492   1.179   1.933 -0.4179 -0.2976  0.7533
 1900TIP3   OH227334   6.514   4.565   1.119 -0.0016 -0.2175 -0.7298
 1900TIP3    H127335   6.428   4.581   1.159 -0.5375  1.2024 -2.3095
 1900TIP3    H227336   6.494   4.541   1.028  1.2688  0.7640 -1.2963
 1901TIP3   OH227337   1.633   2.385   1.530 -0.2479  0.2002 -0.1969
 1901TIP3    H127338   1.671   2.353   1.448 -0.2187  2.7315 -1.2561
 1901TIP3    H227339   1.699   2.364   1.597  0.8170  0.2048 -1.2207
 1902TIP3   OH227340   1.138   0.471   1.696 -0.4179  0.0642  0.0188
 1902TIP3    H127341   1.148   0.504   1.785 -1.2905 -0.5734  0.3698
 1902TIP3    H227342   1.099   0.544   1.647  2.2106  1.2427 -0.4484
 1903TIP3   OH227343   3.799   0.612   2.797 -0.2408  0.1326 -0.7323
 1903TIP3    H127344   3.841   0.585   2.715  1.6323 -0.2104  0.2999
 1903TIP3    H227345   3.781   0.529   2.842  1.0879  0.3859  0.3098
 1904TIP3   OH227346   4.755   2.544   7.422 -0.0373 -0.0494  0.7282
 1904TIP3    H127347   4.837   2.590   7.400 -1.3075  2.9473  1.6947
 1904TIP3    H227348   4.756   2.538   7.517 -0.8361 -0.1917  0.7302
 1905TIP3   OH227349   2.161   3.318   8.195 -0.0469  0.2882  1.0061
 1905TIP3    H127350   2.099   3.390   8.207  0.1673  0.4613  1.1066
 1905TIP3    H227351   2.247   3.360   8.204  0.0745 -0.2294  2.5140
 1906TIP3   OH227352   4.792   2.896   8.171 -0.1592 -0.0907  0.3551
 1906TIP3    H127353   4.750   2.888   8.256  0.0578  1.0376  0.5852
 1906TIP3    H227354   4.776   2.812   8.128  2.4472 -1.9553  2.6847
 1907TIP3   OH227355   0.572   5.761   8.537  0.0503 -0.1474 -0.6729
 1907TIP3    H127356   0.580   5.855   8.550  0.4806  0.1173 -2.5043
 1907TIP3    H227357   0.637   5.723   8.596 -1.3200  0.5483  1.3663
 1908TIP3   OH227358   1.555   0.056   2.677 -0.4848 -0.1303 -0.8342
 1908TIP3    H127359   1.516  -0.029   2.696 -2.4558  0.6077 -1.2679
 1908TIP3    H227360   1.550   0.103   2.760  1.8710 -0.8429 -0.2272
 1909TIP3   OH227361   3.105   2.865   8.113 -0.3306 -0.7163  0.4247
 1909TIP3    H127362   3.048   2.826   8.179 -0.3315 -1.6933 -0.1394
 1909TIP3    H227363   3.073   2.955   8.104  1.4997  0.4422  3.8608
 1910TIP3   OH227364   5.264   6.712   1.062  0.2273  0.0085 -0.0599
 1910TIP3    H127365   5.326   6.784   1.048 -0.1405  0.1922 -0.7593
 1910TIP3    H227366   5.262   6.665   0.978 -0.5365 -0.0325 -0.0213
 1911TIP3   OH227367   6.746   1.621   8.080 -0.6375 -0.2448 -0.6351
 1911TIP3    H127368   6.676   1.559   8.102 -0.8291 -0.1450 -0.9611
 1911TIP3    H227369   6.709   1.707   8.100  0.0247 -0.2836  0.8991
 1912TIP3   OH227370   3.133   6.388   2.396  0.4207  0.3356 -0.0875
 1912TIP3    H127371   3.095   6.314   2.444  0.2285  0.7946  0.4655
 1912TIP3    H227372   3.057   6.435   2.362  0.5487 -0.6455 -1.8877
 1913TIP3   OH227373   6.767   4.365   8.327 -0.4071  0.2549 -0.4513
 1913TIP3    H127374   6.773   4.303   8.254  0.0197 -0.5374  0.2464
 1913TIP3    H227375   6.683   4.346   8.368 -0.0551 -0.1912  0.0601
 1914TIP3   OH227376   5.799   3.200   8.262  0.8842  0.2250 -0.1032
 1914TIP3    H127377   5.705   3.211   8.249  0.2495 -0.9129  2.6794
 1914TIP3    H227378   5.836   3.288   8.251 -0.8080  1.0630  0.6037
 1915TIP3   OH227379   4.550   2.191   2.394  0.6525  0.4484 -0.5674
 1915TIP3    H127380   4.645   2.202   2.391  0.4585  2.5173 -0.3740
 1915TIP3    H227381   4.533   2.144   2.476  1.5063 -0.3279 -0.8196
 1916TIP3   OH227382   1.498   3.241   1.499  0.2001 -0.4030 -0.1845
 1916TIP3    H127383   1.502   3.271   1.590 -0.5011 -1.2948  0.1580
 1916TIP3    H227384   1.477   3.147   1.506 -2.4352  0.0244 -1.3025
 1917TIP3   OH227385   0.933   0.236   7.076 -0.7868  0.0888 -0.5057
 1917TIP3    H127386   0.887   0.201   7.000 -2.4243  0.4339  0.2625
 1917TIP3    H227387   0.865   0.282   7.125  0.3615  0.4308  0.8331
 1918TIP3   OH227388   5.020   1.946   7.663 -0.0737  0.1113  0.9074
 1918TIP3    H127389   5.090   1.896   7.623 -0.3027  1.1418 -0.8700
 1918TIP3    H227390   5.063   1.997   7.732  0.6569 -0.3166  0.7779
 1919TIP3   OH227391   3.363   3.540   7.008 -0.1196 -0.1242  0.0318
 1919TIP3    H127392   3.338   3.631   6.993  0.5865  0.0702 -0.0164
 1919TIP3    H227393   3.427   3.545   7.080 -1.7698 -0.8067  1.6215
 1920TIP3   OH227394   3.353   3.829   1.052  0.3094 -0.2307 -0.4523
 1920TIP3    H127395   3.368   3.785   1.136 -2.5175  0.4230  0.5180
 1920TIP3    H227396   3.441   3.851   1.020  1.5227 -1.4426  1.8000
 1921TIP3   OH227397   0.261   2.511   7.516  0.1398 -0.1682 -0.7299
 1921TIP3    H127398   0.186   2.452   7.506  0.4499 -0.7125 -0.0036
 1921TIP3    H227399   0.336   2.459   7.487  0.6122 -0.6751  1.2200
 1922TIP3   OH227400   1.853   1.096   1.123  0.2185  0.2134 -0.4464
 1922TIP3    H127401   1.868   1.008   1.088 -2.1201  0.2026 -1.5889
 1922TIP3    H227402   1.864   1.085   1.218 -0.4325 -1.4185 -0.5201
 1923TIP3   OH227403   3.882   4.344   2.827 -0.2918  0.4823  0.1639
 1923TIP3    H127404   3.919   4.414   2.773 -1.4522  0.5588 -0.5591
 1923TIP3    H227405   3.940   4.340   2.903  0.2757  1.6685 -0.1765
 1924TIP3   OH227406   0.865   2.585   1.190 -0.3725  0.2400  0.1426
 1924TIP3    H127407   0.897   2.535   1.264  1.1619  2.1621  0.8545
 1924TIP3    H227408   0.818   2.659   1.229 -0.6510  0.5962 -0.8215
 1925TIP3   OH227409   0.353   0.459   8.068 -0.3007 -0.2209 -0.0740
 1925TIP3    H127410   0.397   0.534   8.029 -1.7395 -0.2804 -1.9621
 1925TIP3    H227411   0.346   0.395   7.998 -1.4488 -1.0515  0.7459
 1926TIP3   OH227412   5.798   5.195   0.442 -0.1129  0.3726  0.5669
 1926TIP3    H127413   5.785   5.229   0.353 -2.3539 -0.1581  0.6286
 1926TIP3    H227414   5.765   5.264   0.499  0.6704  0.4212  0.9718
 1927TIP3   OH227415   5.148   3.604   1.172 -0.3053 -0.9019 -0.0201
 1927TIP3    H127416   5.109   3.689   1.154  0.2769 -0.8742 -1.2644
 1927TIP3    H227417   5.169   3.606   1.265  1.3002  1.0078 -0.3573
 1928TIP3   OH227418   4.101   2.834   0.612 -0.0435  0.6517  0.0105
 1928TIP3    H127419   4.098   2.762   0.675  0.3579  1.4604  0.9798
 1928TIP3    H227420   4.009   2.847   0.586 -0.4061  1.1758  1.4580
 1929TIP3   OH227421   2.326   0.630   0.097 -0.6607  0.2787  0.1501
 1929TIP3    H127422   2.385   0.684   0.150 -2.9714 -0.0811  3.3543
 1929TIP3    H227423   2.259   0.690   0.067 -1.6602 -0.2192  1.2969
 1930TIP3   OH227424   0.017   0.860   7.519 -0.0813 -0.2349  0.0963
 1930TIP3    H127425  -0.038   0.797   7.566  0.0464  0.1111  0.7208
 1930TIP3    H227426   0.062   0.909   7.588 -0.2483  0.6062 -0.3787
 1931TIP3   OH227427   0.377   5.021   0.310  0.5326  0.1376  0.0331
 1931TIP3    H127428   0.369   4.979   0.396 -0.8156 -0.1419 -0.2048
 1931TIP3    H227429   0.328   5.102   0.318  0.5888  0.2159 -0.4065
 1932TIP3   OH227430   0.375   1.452   8.634 -0.4945  0.0380  0.1315
 1932TIP3    H127431   0.432   1.403   8.693  0.7142  1.0107 -0.1738
 1932TIP3    H227432   0.327   1.385   8.586  1.4652 -0.9076 -0.6304
 1933TIP3   OH227433   1.366   6.327   0.449 -0.4325 -0.0230 -0.2014
 1933TIP3    H127434   1.299   6.307   0.385 -0.4653 -0.0003 -0.1744
 1933TIP3    H227435   1.404   6.410   0.419 -1.1540  0.5311  0.3739
 1934TIP3   OH227436   3.454   2.950   1.253  0.0135  0.4125  0.6276
 1934TIP3    H127437   3.405   3.009   1.310  0.0453 -0.1131  1.2236
 1934TIP3    H227438   3.469   2.999   1.173 -4.2969 -0.4425 -0.9739
 1935TIP3   OH227439   4.908   3.464   1.078  0.4595 -0.0618  0.5398
 1935TIP3    H127440   4.851   3.459   1.154 -0.7436  0.1095 -0.3281
 1935TIP3    H227441   4.984   3.513   1.109  0.0099 -0.0173  1.6322
 1936TIP3   OH227442   2.091   4.925   1.302  0.2609  0.2226  0.4285
 1936TIP3    H127443   2.045   5.006   1.278 -0.3348 -0.0955  0.4691
 1936TIP3    H227444   2.027   4.876   1.354 -0.2277 -1.2919 -1.4989
 1937TIP3   OH227445   1.014   6.169   8.495  0.7168  0.4329  0.5389
 1937TIP3    H127446   0.957   6.159   8.571  0.5386  0.3929  0.3995
 1937TIP3    H227447   1.075   6.239   8.519 -0.0153  1.1666  0.3107
 1938TIP3   OH227448   3.865   3.456   0.468  0.2070 -0.2135  0.4932
 1938TIP3    H127449   3.770   3.452   0.458  0.1308 -1.6447  1.4594
 1938TIP3    H227450   3.887   3.548   0.458 -1.0751 -0.0654 -1.4698
 1939TIP3   OH227451   2.668   4.672   1.921  0.3760 -0.2485  0.4093
 1939TIP3    H127452   2.594   4.617   1.893  0.7421 -0.1414 -0.8320
 1939TIP3    H227453   2.681   4.733   1.848  1.2972  0.1339  0.8832
 1940TIP3   OH227454   1.040   5.506   8.072  0.0202 -0.4733  0.2374
 1940TIP3    H127455   0.947   5.498   8.050 -0.3286 -0.8408  1.7131
 1940TIP3    H227456   1.042   5.569   8.144  0.7943 -1.1737  0.8444
 1941TIP3   OH227457   4.724   1.539   1.853  0.1405 -0.4244  0.7073
 1941TIP3    H127458   4.715   1.576   1.765  1.6572  0.4709  0.8919
 1941TIP3    H227459   4.702   1.447   1.843 -3.3475  0.3504  0.1372
 1942TIP3   OH227460   2.711   5.905   7.725  0.5785  0.2020  0.5329
 1942TIP3    H127461   2.772   5.861   7.785 -0.1473  1.0577  1.9523
 1942TIP3    H227462   2.767   5.956   7.667  1.2532  1.9478  2.5934
 1943TIP3   OH227463   3.605   5.140   1.757 -0.2956 -0.0246  0.3723
 1943TIP3    H127464   3.619   5.053   1.794 -0.1819  0.6036  1.8633
 1943TIP3    H227465   3.629   5.201   1.828 -1.1328  1.2096 -0.3669
 1944TIP3   OH227466   2.847   3.652   1.815 -0.0790  0.2359 -0.7469
 1944TIP3    H127467   2.769   3.608   1.783  0.4583 -0.6513 -0.8659
 1944TIP3    H227468   2.840   3.649   1.910  0.8972 -1.9075 -0.6943
 1945TIP3   OH227469   5.109   3.903   8.390  0.0785  0.1045  0.0379
 1945TIP3    H127470   5.183   3.847   8.414 -0.5055  0.1151  2.0339
 1945TIP3    H227471   5.125   3.985   8.436 -1.2054  0.0600  0.6273
 1946TIP3   OH227472   1.040   1.433   2.383  0.2120 -0.9377 -0.6234
 1946TIP3    H127473   1.089   1.405   2.306  1.0298 -1.6864  0.1583
 1946TIP3    H227474   1.003   1.518   2.358  0.2712 -1.2720 -1.9135
 1947TIP3   OH227475   0.288   2.919   0.965  0.5132  1.1493 -0.1202
 1947TIP3    H127476   0.367   2.895   1.012 -0.1899  0.9290  0.9784
 1947TIP3    H227477   0.216   2.902   1.026 -0.4320  0.9024 -1.2490
 1948TIP3   OH227478   5.779   1.995   2.980 -0.1145 -0.2298 -0.0182
 1948TIP3    H127479   5.825   1.916   2.949 -0.5417 -0.0618 -1.1370
 1948TIP3    H227480   5.787   2.057   2.907  0.6790  0.9691  1.0607
 1949TIP3   OH227481   6.659   3.333   8.298  0.0745  0.7493  0.0266
 1949TIP3    H127482   6.616   3.253   8.268 -0.1125  1.5978 -2.1879
 1949TIP3    H227483   6.722   3.303   8.364 -0.4289 -1.1349 -0.2788
 1950TIP3   OH227484   1.648   4.645   2.051  0.0111  0.3571 -0.1057
 1950TIP3    H127485   1.633   4.610   1.963  2.3749 -1.2327  0.0184
 1950TIP3    H227486   1.740   4.672   2.051 -0.3742  1.8365  1.4326
 1951TIP3   OH227487   3.308   0.402   6.520 -0.1461  0.0690 -0.2141
 1951TIP3    H127488   3.322   0.438   6.432  2.1831 -1.2526 -0.4819
 1951TIP3    H227489   3.355   0.319   6.519  0.6661  0.4026  2.5345
 1952TIP3   OH227490   5.733   2.085   8.079 -0.5206 -0.5225  0.3724
 1952TIP3    H127491   5.789   2.055   8.151 -0.2498 -1.4707 -0.2090
 1952TIP3    H227492   5.781   2.061   8.000 -0.6075  0.9021 -0.1486
 1953TIP3   OH227493   4.514   5.138   2.832  0.7693 -0.0075 -0.1683
 1953TIP3    H127494   4.545   5.217   2.876 -1.0408  1.2024 -0.9496
 1953TIP3    H227495   4.451   5.099   2.893  2.5325 -1.5855  0.7413
 1954TIP3   OH227496   6.618   0.699   7.235 -0.4285 -0.1837  0.2751
 1954TIP3    H127497   6.544   0.737   7.187 -0.2403  0.0520  0.1712
 1954TIP3    H227498   6.598   0.605   7.238 -0.0619 -0.3169 -0.9632
 1955TIP3   OH227499   3.419   1.079   8.325  0.2934  0.2523  0.8047
 1955TIP3    H127500   3.506   1.113   8.302 -0.4851  0.7887 -1.6235
 1955TIP3    H227501   3.419   0.990   8.291 -0.3094  0.4787  0.1894
 1956TIP3   OH227502   2.336   1.696   7.538  0.1447 -0.0587 -0.2653
 1956TIP3    H127503   2.251   1.656   7.556  1.3286 -2.6385  0.1037
 1956TIP3    H227504   2.380   1.697   7.622  1.4005 -1.2193 -0.8699
 1957TIP3   OH227505   5.265   5.923   6.616  0.8220  0.7090 -0.2117
 1957TIP3    H127506   5.245   6.016   6.603  0.6523  0.8106  0.7540
 1957TIP3    H227507   5.203   5.893   6.682  1.8810  0.3031  0.6394
 1958TIP3   OH227508   5.314   2.650   0.828  0.5016  0.4090  0.2279
 1958TIP3    H127509   5.309   2.711   0.901  1.9630  0.7607  0.0622
 1958TIP3    H227510   5.385   2.590   0.852  0.7564  0.3160 -0.7349
 1959TIP3   OH227511   3.489   6.679   7.023 -0.1059 -0.2924  0.3665
 1959TIP3    H127512   3.465   6.746   6.960  0.0461  0.0135  0.6305
 1959TIP3    H227513   3.534   6.612   6.971  2.4466  1.1857  0.5090
 1960TIP3   OH227514   0.358   1.764   7.147  0.3410  0.5762  0.2373
 1960TIP3    H127515   0.453   1.755   7.145  0.2245 -1.2701  0.9807
 1960TIP3    H227516   0.333   1.736   7.235 -0.7699  2.8796  0.7334
 1961TIP3   OH227517   6.446   4.511   8.088 -0.1286  0.0383  0.3762
 1961TIP3    H127518   6.455   4.465   8.172  0.2412  0.7619  0.7433
 1961TIP3    H227519   6.394   4.588   8.108  0.3077  0.4319  0.0318
 1962TIP3   OH227520   3.858   1.378   6.800  0.3867 -0.1768  0.5381
 1962TIP3    H127521   3.831   1.470   6.793  1.7018  0.4034  2.2580
 1962TIP3    H227522   3.930   1.370   6.738 -0.3922 -0.3605 -0.3710
 1963TIP3   OH227523   0.380   3.932   1.961  0.3930 -0.1194  0.0253
 1963TIP3    H127524   0.335   3.891   1.887  1.2157  0.4684 -0.8121
 1963TIP3    H227525   0.380   4.025   1.941  0.9567  0.0053  0.5786
 1964TIP3   OH227526   3.090   0.087   8.899  0.0793 -0.8917  0.1603
 1964TIP3    H127527   3.072   0.114   8.809  1.9260 -0.6733 -0.1863
 1964TIP3    H227528   3.065  -0.005   8.903 -1.4047 -0.5130 -0.1409
 1965TIP3   OH227529   4.590   1.050   0.880  0.5015  0.5230  0.1323
 1965TIP3    H127530   4.585   1.046   0.975  2.6565  0.2374  0.2809
 1965TIP3    H227531   4.617   1.140   0.861 -0.1892  0.6610 -0.2481
 1966TIP3   OH227532   5.595   5.848   8.217 -0.5336 -0.0740  0.2994
 1966TIP3    H127533   5.501   5.855   8.196 -0.2807 -1.7715 -1.7188
 1966TIP3    H227534   5.632   5.930   8.187 -1.1639 -0.0184 -0.3691
 1967TIP3   OH227535   0.014   4.397   1.984 -0.1902 -0.7620 -0.3666
 1967TIP3    H127536   0.009   4.458   2.057  0.9406  0.6796 -1.4269
 1967TIP3    H227537  -0.073   4.358   1.980 -0.6761  0.1045  0.9126
 1968TIP3   OH227538   1.645   3.551   8.791  0.1677  0.4242  0.2558
 1968TIP3    H127539   1.604   3.464   8.789  0.1448  0.4299  0.4349
 1968TIP3    H227540   1.736   3.534   8.764  0.5571  0.1103  1.6797
 1969TIP3   OH227541   1.415   2.683   1.555  0.3780 -0.3008 -0.2373
 1969TIP3    H127542   1.486   2.627   1.524 -0.5737 -0.9031 -1.4047
 1969TIP3    H227543   1.410   2.665   1.649  1.2515 -0.8252 -0.2782
 1970TIP3   OH227544   0.832   0.811   1.663 -0.1511  0.4942  0.0422
 1970TIP3    H127545   0.739   0.827   1.680 -0.1198 -0.9685  2.0292
 1970TIP3    H227546   0.843   0.717   1.681  1.6554  0.5832 -0.4483
 1971TIP3   OH227547   0.673   2.095   1.088 -0.0175  0.3071  0.6670
 1971TIP3    H127548   0.680   2.187   1.113 -2.2086  0.9794 -0.8964
 1971TIP3    H227549   0.759   2.071   1.055  0.5490  1.8003  1.0109
 1972TIP3   OH227550   5.387   5.369   7.595  0.2569  0.2169  0.0952
 1972TIP3    H127551   5.370   5.464   7.599  0.3000  0.2611 -0.6755
 1972TIP3    H227552   5.311   5.334   7.548 -1.9828 -0.7260  3.9476
 1973TIP3   OH227553   4.262   2.337   0.464  0.3855 -0.2681 -0.1757
 1973TIP3    H127554   4.311   2.316   0.385 -0.3478 -0.4357 -0.6024
 1973TIP3    H227555   4.170   2.332   0.437  0.1336  0.1926  0.5555
 1974TIP3   OH227556   5.643   6.708   7.692  0.4078 -0.2406 -0.1205
 1974TIP3    H127557   5.630   6.614   7.677 -1.0128  0.0141 -0.5976
 1974TIP3    H227558   5.734   6.715   7.723 -0.1161 -1.9918  2.0322
 1975TIP3   OH227559   1.231   6.299   0.201 -0.4170  0.1567  0.4017
 1975TIP3    H127560   1.157   6.275   0.146 -0.3724  0.3680  0.2443
 1975TIP3    H227561   1.305   6.306   0.140 -0.8047  2.5456  0.0887
 1976TIP3   OH227562   3.968   3.748   0.171  0.1991  0.0807 -0.1684
 1976TIP3    H127563   4.052   3.787   0.147 -0.7456  2.1844 -0.2474
 1976TIP3    H227564   3.955   3.773   0.262 -0.7203  0.4812 -0.4015
 1977TIP3   OH227565   1.514   2.676   8.484  0.1987  0.2664 -0.9633
 1977TIP3    H127566   1.579   2.716   8.426  1.3916  2.4938  1.6910
 1977TIP3    H227567   1.566   2.633   8.552 -1.1658 -1.7117 -1.0797
 1978TIP3   OH227568   1.776   6.564   8.390 -0.2823  0.4008 -0.5249
 1978TIP3    H127569   1.743   6.506   8.457  0.3359  1.5668  0.8377
 1978TIP3    H227570   1.743   6.528   8.308 -3.0373  0.2616  0.5576
 1979TIP3   OH227571   4.883   5.390   0.822  0.3660  0.1596 -0.0048
 1979TIP3    H127572   4.801   5.373   0.776 -0.6141  0.4200  1.5771
 1979TIP3    H227573   4.861   5.455   0.888  2.1024  1.0200 -0.2086
 1980TIP3   OH227574   2.001   1.964   8.911 -0.7062  0.0917  0.5166
 1980TIP3    H127575   2.022   1.953   8.818 -0.9843  0.4820  0.4082
 1980TIP3    H227576   1.923   1.910   8.924 -0.9927  0.4733  0.3963
 1981TIP3   OH227577   5.755   3.535   8.675  0.0019  0.2965 -0.7764
 1981TIP3    H127578   5.713   3.570   8.753 -0.5431  1.5196 -1.5871
 1981TIP3    H227579   5.816   3.603   8.647  1.0969 -0.6348 -0.7404
 1982TIP3   OH227580   3.488   0.732   7.962  0.2138  0.2772  0.3940
 1982TIP3    H127581   3.468   0.651   8.010 -0.0292  0.4749  0.6279
 1982TIP3    H227582   3.473   0.709   7.870 -1.1267  0.4070  0.5460
 1983TIP3   OH227583   2.255   4.234   1.962 -0.1987  0.3406 -0.2127
 1983TIP3    H127584   2.235   4.263   1.873  0.2639 -0.4897 -0.6039
 1983TIP3    H227585   2.186   4.171   1.982 -0.5957  0.9089  0.2184
 1984TIP3   OH227586   5.654   4.111   8.346 -0.4947 -0.2669  0.0119
 1984TIP3    H127587   5.568   4.089   8.311 -0.0628 -2.1197 -0.0047
 1984TIP3    H227588   5.676   4.037   8.403  1.7338 -0.6383 -1.2190
 1985TIP3   OH227589   2.352   4.321   1.687 -0.4262  0.0203 -0.0498
 1985TIP3    H127590   2.393   4.253   1.740 -1.0741 -0.5419 -0.2632
 1985TIP3    H227591   2.392   4.311   1.600 -0.4182  0.0084 -0.0448
 1986TIP3   OH227592   5.585   0.605   0.294  0.1313 -0.1287 -0.4270
 1986TIP3    H127593   5.522   0.622   0.364 -0.0978  1.1147 -0.9023
 1986TIP3    H227594   5.587   0.510   0.285 -0.7267 -0.2395  0.4600
 1987TIP3   OH227595   3.752   6.005   7.577  0.5886  0.7916  0.0504
 1987TIP3    H127596   3.832   5.953   7.571  0.4609  0.5340  0.5345
 1987TIP3    H227597   3.698   5.959   7.641  0.2951  1.2844  0.1639
 1988TIP3   OH227598   0.718   3.789   8.680 -0.4784  0.1072  0.0106
 1988TIP3    H127599   0.697   3.699   8.657  0.7130  0.3208 -2.1769
 1988TIP3    H227600   0.715   3.791   8.776 -1.7099 -1.9285  0.0622
 1989TIP3   OH227601   0.662   5.162   6.845 -0.3338 -0.1206  0.0533
 1989TIP3    H127602   0.668   5.087   6.785  0.6741 -0.1029  0.1041
 1989TIP3    H227603   0.579   5.204   6.824 -1.3312 -1.7467  0.6234
 1990TIP3   OH227604   6.485   0.405   0.052 -0.2501 -0.3851  0.4939
 1990TIP3    H127605   6.437   0.434  -0.025 -1.6956 -1.7468  0.8262
 1990TIP3    H227606   6.546   0.338   0.019  1.3621  1.1947  0.1062
 1991TIP3   OH227607   0.688   4.849   7.179  0.1557  0.1859 -0.3029
 1991TIP3    H127608   0.761   4.792   7.202  0.8782  1.7255  1.4937
 1991TIP3    H227609   0.616   4.818   7.235  0.2711  0.4146 -0.0233
 1992TIP3   OH227610   2.112   1.261   1.609 -0.1656 -0.1336  0.5498
 1992TIP3    H127611   2.182   1.213   1.654  0.4713  0.4762  0.2226
 1992TIP3    H227612   2.114   1.227   1.520  1.1956  1.4386 -0.0514
 1993TIP3   OH227613   3.453   1.409   8.175  0.5241  0.6807 -0.0919
 1993TIP3    H127614   3.517   1.424   8.245 -0.8695  2.6098  0.8784
 1993TIP3    H227615   3.368   1.430   8.215 -0.2158  3.1373 -2.6299
 1994TIP3   OH227616   5.010   0.045   7.055  0.4962  0.0078  0.0339
 1994TIP3    H127617   4.939   0.016   6.998  2.2692  0.1581 -2.3753
 1994TIP3    H227618   5.012   0.140   7.044  0.0461  0.2063  1.4252
 1995TIP3   OH227619   6.009   3.640   2.409 -0.0436 -0.0557 -0.4660
 1995TIP3    H127620   6.019   3.706   2.341 -0.4535  0.6445  0.1480
 1995TIP3    H227621   5.957   3.571   2.367 -1.0165  0.7486 -0.6221
 1996TIP3   OH227622   5.517   4.248   1.463 -0.0851 -0.0799 -0.7255
 1996TIP3    H127623   5.499   4.271   1.371  1.0207 -0.2648 -0.9976
 1996TIP3    H227624   5.573   4.318   1.495 -0.0373 -0.2893 -0.3460
 1997TIP3   OH227625   3.819   2.343   7.962 -0.4072 -0.0586 -0.2630
 1997TIP3    H127626   3.756   2.271   7.967  1.0133 -1.3601 -0.0455
 1997TIP3    H227627   3.870   2.336   8.044  0.1329  0.8269 -0.5077
 1998TIP3   OH227628   3.669   2.013   8.627  0.1470  0.6186  0.0404
 1998TIP3    H127629   3.668   1.921   8.600 -0.0940  1.5480 -3.6721
 1998TIP3    H227630   3.760   2.029   8.653  0.4369 -0.4599 -0.2554
 1999TIP3   OH227631   2.999   4.344   0.919 -0.1875  0.5541 -0.5277
 1999TIP3    H127632   2.925   4.286   0.936  0.1562  0.2458 -0.0632
 1999TIP3    H227633   2.981   4.422   0.971  0.2936  0.0772  0.3723
 2000TIP3   OH227634   1.647   6.496   1.270 -0.3425  0.4856  0.5503
 2000TIP3    H127635   1.557   6.484   1.238 -0.0145 -0.6139 -0.0303
 2000TIP3    H227636   1.658   6.591   1.277 -0.6330  0.8024 -2.1538
 2001TIP3   OH227637   2.644   3.145   1.677 -0.0221 -0.3349 -0.1708
 2001TIP3    H127638   2.599   3.222   1.711 -1.3157 -1.8181  1.7215
 2001TIP3    H227639   2.608   3.132   1.589 -1.0425  0.2620  0.1401
 2002TIP3   OH227640   4.948   4.354   0.764 -0.0753 -0.0519 -0.2087
 2002TIP3    H127641   4.902   4.431   0.798  2.0039  1.4230 -0.4597
 2002TIP3    H227642   4.993   4.317   0.840 -1.0128 -1.0063 -0.1036
 2003TIP3   OH227643   6.713   2.766   8.613  0.4970 -0.2157 -0.6615
 2003TIP3    H127644   6.626   2.805   8.616  0.8978  0.6898  1.4187
 2003TIP3    H227645   6.759   2.813   8.543 -0.7354 -0.9124 -1.9827
 2004TIP3   OH227646   1.765   5.476   2.182 -0.0392  0.4846 -0.3574
 2004TIP3    H127647   1.702   5.456   2.252 -0.4470 -1.2508 -1.1612
 2004TIP3    H227648   1.848   5.487   2.227  0.0143 -2.1466  0.3339
 2005TIP3   OH227649   1.196   2.761   2.116  0.4005 -0.0020 -0.2418
 2005TIP3    H127650   1.226   2.712   2.193  1.1154  0.7101 -0.0519
 2005TIP3    H227651   1.110   2.794   2.140 -0.0295 -1.0300 -0.3177
 2006TIP3   OH227652   2.641   0.490   7.537 -0.1005 -0.5209 -0.2886
 2006TIP3    H127653   2.698   0.413   7.536  1.5657  0.6767 -1.2371
 2006TIP3    H227654   2.585   0.480   7.461 -0.4639 -1.1784  0.0530
 2007TIP3   OH227655   2.200   0.260   0.897  0.2333  0.1444  0.1982
 2007TIP3    H127656   2.225   0.344   0.858 -0.3728  0.6239  0.8103
 2007TIP3    H227657   2.249   0.194   0.847 -2.2901  0.4905 -3.1033
 2008TIP3   OH227658   5.569   0.015   7.095 -0.1593 -0.5864  0.1311
 2008TIP3    H127659   5.652  -0.031   7.079  0.8333  0.4884  1.9019
 2008TIP3    H227660   5.504  -0.037   7.047  1.4990 -1.4939 -1.2700
 2009TIP3   OH227661   2.233   4.297   7.029  0.1154 -0.0993 -0.3865
 2009TIP3    H127662   2.209   4.317   6.938 -1.2521  2.1615  0.3805
 2009TIP3    H227663   2.163   4.240   7.060 -0.1653  0.2462 -0.3738
 2010TIP3   OH227664   1.897   5.725   7.263 -0.1809 -0.2570  0.8050
 2010TIP3    H127665   1.913   5.819   7.250 -1.4259 -0.0935  0.2849
 2010TIP3    H227666   1.845   5.721   7.343  0.4348 -0.5696  1.1932
 2011TIP3   OH227667   1.627   4.340   8.363 -0.4826  0.5054  0.0558
 2011TIP3    H127668   1.645   4.333   8.457  0.5033  1.0223 -0.0811
 2011TIP3    H227669   1.712   4.357   8.323 -1.1153  2.0204 -0.7499
 2012TIP3   OH227670   3.867   6.151   1.112 -0.6571  0.9051  0.2134
 2012TIP3    H127671   3.911   6.138   1.196  1.1303  2.4433 -0.4178
 2012TIP3    H227672   3.850   6.062   1.080  0.7614  0.2637  1.1438
 2013TIP3   OH227673   4.479   6.409   8.044  0.6689 -0.6246  0.4996
 2013TIP3    H127674   4.387   6.431   8.033  0.5132 -1.8125 -0.9950
 2013TIP3    H227675   4.478   6.326   8.092  0.7335 -2.2085 -2.0196
 2014TIP3   OH227676   3.799   4.654   1.460 -0.0608 -0.9761 -0.2212
 2014TIP3    H127677   3.851   4.731   1.484  1.8060 -1.9198 -1.0874
 2014TIP3    H227678   3.809   4.594   1.534 -0.9015 -0.7189  0.1186
 2015TIP3   OH227679   2.395   5.609   2.794 -0.1094  0.1216 -1.2176
 2015TIP3    H127680   2.379   5.651   2.879  1.0804 -0.3412 -0.7397
 2015TIP3    H227681   2.326   5.643   2.737  0.7761  2.7174 -0.8745
 2016TIP3   OH227682   0.975   2.849   8.779 -0.4992 -0.0986 -0.2395
 2016TIP3    H127683   1.023   2.777   8.739 -0.8449 -1.0281  0.9913
 2016TIP3    H227684   0.895   2.809   8.812 -0.2895  0.6657  1.2485
 2017TIP3   OH227685   6.103   6.509   8.467  0.3766 -0.6057  0.1836
 2017TIP3    H127686   6.063   6.476   8.387 -0.7850  1.8278 -0.3113
 2017TIP3    H227687   6.194   6.528   8.444  0.4937 -1.4435 -0.0749
 2018TIP3   OH227688   1.673   0.076   7.745 -0.3932  0.5184  0.6097
 2018TIP3    H127689   1.591   0.027   7.747  0.9718 -2.1194 -1.3889
 2018TIP3    H227690   1.669   0.127   7.663  0.3372 -0.4507 -0.0523
 2019TIP3   OH227691   1.963   5.396   6.961  0.2927 -0.4499 -0.3459
 2019TIP3    H127692   2.007   5.459   6.904 -0.2759  1.4430  1.1799
 2019TIP3    H227693   1.873   5.393   6.929  0.5927 -1.4345 -1.1437
 2020TIP3   OH227694   3.219   0.807   7.066  0.6794 -0.5268 -0.0287
 2020TIP3    H127695   3.163   0.879   7.097  0.8167 -0.0603 -0.8189
 2020TIP3    H227696   3.163   0.729   7.071  0.3386 -0.2652  0.2944
 2021TIP3   OH227697   3.702   5.831   7.797  0.2187  0.3881  0.0860
 2021TIP3    H127698   3.630   5.787   7.842 -0.2514  0.6914 -0.3543
 2021TIP3    H227699   3.776   5.826   7.858 -0.5928  1.3923  1.1981
 2022TIP3   OH227700   3.822   0.994   8.900  0.0219  0.2131  0.7513
 2022TIP3    H127701   3.894   1.025   8.846 -0.6696  1.1250  0.3206
 2022TIP3    H227702   3.824   1.050   8.978 -0.9539  1.0799  0.1799
 2023TIP3   OH227703   3.076   3.563   2.004 -0.2795 -0.3457  0.1235
 2023TIP3    H127704   3.162   3.534   2.033 -1.2608 -2.6281  0.9881
 2023TIP3    H227705   3.088   3.655   1.980  1.9922 -0.1268  1.8224
 2024TIP3   OH227706   1.495   1.466   0.405  0.0861  0.5184  0.3076
 2024TIP3    H127707   1.526   1.445   0.317  1.6800  1.0873  0.7150
 2024TIP3    H227708   1.454   1.385   0.436 -0.3810  0.2731 -0.8837
 2025TIP3   OH227709   3.039   2.648   8.842 -0.3792 -0.2170  0.1976
 2025TIP3    H127710   2.997   2.565   8.868  0.9428 -0.7589  0.6692
 2025TIP3    H227711   3.112   2.621   8.787 -1.8182  0.8172 -2.3943
 2026TIP3   OH227712   6.390   2.578   0.292  0.2313 -0.2517  0.0604
 2026TIP3    H127713   6.315   2.636   0.281  1.4347  1.7830  1.8383
 2026TIP3    H227714   6.463   2.626   0.253  1.2265 -0.6406  1.3787
 2027TIP3   OH227715   5.586   2.727   2.413  0.1299 -0.1231  0.3397
 2027TIP3    H127716   5.617   2.682   2.492  0.0874  1.1728  1.1217
 2027TIP3    H227717   5.526   2.664   2.372 -0.2030 -0.6511  1.5917
 2028TIP3   OH227718   3.278   2.187   0.130 -0.1582  0.5846 -0.4484
 2028TIP3    H127719   3.248   2.097   0.118 -0.7965  0.7600 -0.2039
 2028TIP3    H227720   3.373   2.182   0.119 -0.0944 -0.2597  0.3772
 2029TIP3   OH227721   2.381   6.082   8.221  0.2935  0.5881 -0.0477
 2029TIP3    H127722   2.413   5.997   8.250  0.3264  0.3889 -0.6429
 2029TIP3    H227723   2.388   6.079   8.125 -0.0248  1.1317 -0.0955
 2030TIP3   OH227724   1.923   5.681   2.577 -0.2399  0.3634  0.0494
 2030TIP3    H127725   1.987   5.610   2.569 -0.9713 -0.3623  0.4824
 2030TIP3    H227726   1.974   5.758   2.601  0.4992 -0.1420  0.1080
 2031TIP3   OH227727   5.689   0.108   1.863 -0.2922 -0.3005 -0.0758
 2031TIP3    H127728   5.621   0.071   1.919 -1.8276 -0.3000 -1.8332
 2031TIP3    H227729   5.642   0.163   1.801  1.4743  0.7864 -0.5363
 2032TIP3   OH227730   4.083   1.724   0.575 -0.4617  0.5770 -0.0558
 2032TIP3    H127731   4.081   1.819   0.562  0.0182  0.7554  1.0787
 2032TIP3    H227732   4.032   1.689   0.502  1.6696  1.5128 -2.1425
 2033TIP3   OH227733   4.503   5.728   0.987 -0.1178  0.7212  0.0891
 2033TIP3    H127734   4.555   5.795   0.942 -1.7220  1.2905 -0.9879
 2033TIP3    H227735   4.444   5.777   1.044  0.2827  0.0944  1.0642
 2034TIP3   OH227736   1.283   3.132   1.699 -0.0890  0.2523 -0.4820
 2034TIP3    H127737   1.362   3.131   1.753  0.0796  0.0203 -0.7306
 2034TIP3    H227738   1.217   3.089   1.753  0.1128 -0.0949 -0.5060
 2035TIP3   OH227739   2.790   0.710   1.676 -0.4160  0.1831  0.3099
 2035TIP3    H127740   2.754   0.657   1.605  0.8100  2.6703 -2.4078
 2035TIP3    H227741   2.776   0.658   1.755 -4.5697 -1.5352 -1.2623
 2036TIP3   OH227742   6.599   4.973   7.109 -0.1599  0.2821 -0.0504
 2036TIP3    H127743   6.667   4.906   7.120 -1.2276 -0.7362  0.5185
 2036TIP3    H227744   6.647   5.056   7.111  1.0466 -0.4026  0.4812
 2037TIP3   OH227745   4.252   6.454   1.208  0.0721  0.3533 -0.0317
 2037TIP3    H127746   4.333   6.465   1.259 -1.4439  1.3898  2.3692
 2037TIP3    H227747   4.271   6.494   1.123  2.3687 -0.3257  0.1075
 2038TIP3   OH227748   1.924   4.684   2.088 -0.1513 -0.0003  0.2945
 2038TIP3    H127749   1.966   4.606   2.051 -1.3226 -0.9141  0.8114
 2038TIP3    H227750   1.987   4.717   2.152 -0.9834 -2.6024  2.6521
 2039TIP3   OH227751   1.661   1.347   8.021  0.1906  0.0498  0.1597
 2039TIP3    H127752   1.631   1.295   8.096 -1.0971  0.4014 -0.0808
 2039TIP3    H227753   1.599   1.325   7.951  0.9739  0.2374 -0.6080
 2040TIP3   OH227754   0.112   0.519   0.652 -0.2004 -0.2467 -0.1065
 2040TIP3    H127755   0.187   0.568   0.619  1.2289 -3.0718 -1.4389
 2040TIP3    H227756   0.041   0.540   0.591  0.4007  0.0742 -0.7097
 2041TIP3   OH227757   4.408   0.882   1.959  0.0219 -0.6812  0.5171
 2041TIP3    H127758   4.482   0.837   1.918 -0.1249  0.5649 -1.2097
 2041TIP3    H227759   4.353   0.909   1.886 -1.0127  0.3490  1.6341
 2042TIP3   OH227760   3.697   4.732   8.740  1.4141  0.2118  0.2765
 2042TIP3    H127761   3.635   4.772   8.801  1.6030  0.2109  0.4686
 2042TIP3    H227762   3.731   4.806   8.689 -0.3408  0.0017 -1.3208
 2043TIP3   OH227763   5.172   0.703   6.832  0.4590 -0.0644  0.3574
 2043TIP3    H127764   5.151   0.609   6.833  3.0877 -0.7389  0.1690
 2043TIP3    H227765   5.121   0.738   6.759  0.9779 -1.7893 -0.9124
 2044TIP3   OH227766   0.683   6.589   0.483 -0.1372 -0.3329  0.3313
 2044TIP3    H127767   0.765   6.539   0.477 -0.3234 -0.4852 -1.9880
 2044TIP3    H227768   0.636   6.567   0.402 -1.5592  1.3449  0.6459
 2045TIP3   OH227769   2.751   3.258   1.003 -0.0917 -0.3169 -0.3513
 2045TIP3    H127770   2.778   3.205   1.078 -1.7328 -0.4678  0.1628
 2045TIP3    H227771   2.821   3.323   0.993  0.5391 -0.7919  0.7955
 2046TIP3   OH227772   4.051   2.317   7.298 -0.1308 -0.2129 -0.2469
 2046TIP3    H127773   4.051   2.407   7.265  0.3975 -0.2263 -0.2935
 2046TIP3    H227774   4.038   2.263   7.220  0.7137 -0.2260 -0.3851
 2047TIP3   OH227775   2.338   1.393   1.246  0.7676  0.0665  0.5347
 2047TIP3    H127776   2.336   1.321   1.184  0.2463  0.7134 -0.2086
 2047TIP3    H227777   2.332   1.351   1.332 -1.5326 -0.6886  0.0583
 2048TIP3   OH227778   2.212   1.848   0.117 -0.1956 -0.4580  0.1117
 2048TIP3    H127779   2.147   1.904   0.075  0.6677 -0.3645 -1.1847
 2048TIP3    H227780   2.176   1.759   0.110 -0.0336 -0.4547 -0.9496
 2049TIP3   OH227781   2.403   2.382   0.540  0.1976  0.1403  0.3871
 2049TIP3    H127782   2.345   2.318   0.497  2.1669 -0.5895 -1.3532
 2049TIP3    H227783   2.376   2.466   0.503 -1.2082  0.1234  1.3090
 2050TIP3   OH227784   2.731   4.554   1.207  0.7912  0.3161  0.3546
 2050TIP3    H127785   2.684   4.621   1.157  1.1467 -0.0041 -0.4369
 2050TIP3    H227786   2.696   4.560   1.295 -1.4773 -0.5692 -0.4212
 2051TIP3   OH227787   0.219   3.511   0.806  0.3944  0.0847  0.2604
 2051TIP3    H127788   0.213   3.584   0.867  2.6040  2.0378 -1.5990
 2051TIP3    H227789   0.301   3.467   0.829  1.1570  0.7306 -1.0970
 2052TIP3   OH227790   5.089   6.420   2.593  0.6242 -0.1469 -0.6638
 2052TIP3    H127791   5.126   6.473   2.523  0.6468 -0.5025 -0.9204
 2052TIP3    H227792   5.165   6.380   2.635  0.5523 -0.6401 -1.0013
 2053TIP3   OH227793   6.436   3.204   8.921  0.1039 -0.6706  0.1818
 2053TIP3    H127794   6.407   3.127   8.970 -0.8932 -0.9145 -0.7519
 2053TIP3    H227795   6.370   3.215   8.853  2.1007 -1.1354 -1.9335
 2054TIP3   OH227796   5.993   5.747   2.457  0.1656 -0.2598  0.2247
 2054TIP3    H127797   5.897   5.750   2.453  0.0790 -2.1637  0.0293
 2054TIP3    H227798   6.013   5.709   2.542  0.6941 -1.0066 -0.2214
 2055TIP3   OH227799   2.621   6.619   8.448  0.1714 -0.3177  0.7080
 2055TIP3    H127800   2.557   6.641   8.380 -0.3310  0.5479  1.4320
 2055TIP3    H227801   2.648   6.529   8.427  0.6103  0.1924 -1.0597
 2056TIP3   OH227802   6.268   2.995   0.085  0.6896 -0.1381  0.4664
 2056TIP3    H127803   6.199   3.020   0.023 -1.8709  1.4497  3.6461
 2056TIP3    H227804   6.265   2.899   0.085 -1.2864 -0.1342  0.1773
 2057TIP3   OH227805   4.267   1.282   7.788 -0.7395 -0.0530  0.2235
 2057TIP3    H127806   4.361   1.303   7.783 -0.5446 -0.7237  0.8541
 2057TIP3    H227807   4.231   1.315   7.706  0.0008  0.4642  0.0952
 2058TIP3   OH227808   0.743   4.563   0.310 -0.5145  0.4184  0.3739
 2058TIP3    H127809   0.687   4.520   0.246 -0.8134 -0.4548  1.2008
 2058TIP3    H227810   0.697   4.643   0.333 -0.0199  1.1537 -1.0775
 2059TIP3   OH227811   5.613   1.687   2.915 -0.7633  0.0531 -0.3662
 2059TIP3    H127812   5.706   1.700   2.897 -0.7318  0.1116 -0.1662
 2059TIP3    H227813   5.609   1.605   2.964 -0.4849  1.5419  2.3311
 2060TIP3   OH227814   4.811   0.529   1.314 -0.8839 -0.3760  0.2741
 2060TIP3    H127815   4.770   0.448   1.282  0.3153 -1.5297  1.5391
 2060TIP3    H227816   4.771   0.544   1.399 -1.3482  0.5951 -0.0979
 2061TIP3   OH227817   0.388   3.397   8.852  0.0262 -0.0150 -0.8229
 2061TIP3    H127818   0.387   3.379   8.946 -2.7204  1.6191 -0.4378
 2061TIP3    H227819   0.452   3.468   8.842 -1.6379  1.7588  0.3445
 2062TIP3   OH227820   5.715   5.038   7.667  0.7247  0.0863 -0.1738
 2062TIP3    H127821   5.665   5.097   7.723  0.1302  1.1454 -1.7549
 2062TIP3    H227822   5.804   5.041   7.702  0.3613  0.6658  0.7305
 2063TIP3   OH227823   5.203   4.396   1.142  0.0863  0.4064 -0.1237
 2063TIP3    H127824   5.155   4.339   1.081 -0.6450  1.9553 -1.0457
 2063TIP3    H227825   5.149   4.396   1.221 -0.1444  0.1737 -0.2756
 2064TIP3   OH227826   2.735   4.191   1.507 -0.1459 -0.8379  0.5122
 2064TIP3    H127827   2.695   4.198   1.420  0.5974 -1.0829  0.1323
 2064TIP3    H227828   2.829   4.197   1.489 -0.0347  1.5626  1.5488
 2065TIP3   OH227829   6.729   3.812   1.283  0.3213  0.1738  0.2404
 2065TIP3    H127830   6.721   3.736   1.224 -0.5898  1.8321 -1.8954
 2065TIP3    H227831   6.767   3.881   1.228 -1.0158  1.9552  1.4515
 2066TIP3   OH227832   2.862   1.260   8.487  0.2036  0.4198  0.1328
 2066TIP3    H127833   2.912   1.179   8.486 -1.2034 -0.5617  2.7059
 2066TIP3    H227834   2.905   1.315   8.420  1.4782 -2.1980 -1.3409
 2067TIP3   OH227835   6.680   0.615   7.546  0.5254  0.1204 -0.3405
 2067TIP3    H127836   6.663   0.523   7.524  1.4531  0.1231 -1.1023
 2067TIP3    H227837   6.651   0.664   7.468  1.0428  0.3835 -0.3678
 2068TIP3   OH227838   3.907   5.074   8.376 -0.7067  0.7167 -0.5086
 2068TIP3    H127839   3.818   5.055   8.347 -0.1629 -3.2392 -0.0547
 2068TIP3    H227840   3.962   5.064   8.298 -0.0991 -2.7495  0.2192
 2069TIP3   OH227841   2.644   4.242   7.739 -0.5571 -0.0419  1.0315
 2069TIP3    H127842   2.691   4.308   7.687 -0.7103  0.1770  1.1682
 2069TIP3    H227843   2.704   4.168   7.745 -0.2066  0.2594  1.2510
 2070TIP3   OH227844   4.203   2.754   8.478  0.1183  0.1834  0.8326
 2070TIP3    H127845   4.271   2.813   8.509 -0.7231  1.2071  0.7771
 2070TIP3    H227846   4.245   2.668   8.475  0.7814  0.3852  2.9142
 2071TIP3   OH227847   4.208   3.087   8.902  0.0111 -0.8543  0.3508
 2071TIP3    H127848   4.125   3.127   8.877  0.7487 -0.0422 -0.9221
 2071TIP3    H227849   4.211   3.097   8.998 -0.6101  0.6140  0.2590
 2072TIP3   OH227850   3.118   2.989   2.809 -0.0519  0.4192  0.3975
 2072TIP3    H127851   3.204   2.960   2.779 -0.1164  0.4062  0.2223
 2072TIP3    H227852   3.092   3.056   2.746 -0.1290  0.4899  0.5043
 2073TIP3   OH227853   1.074   4.476   8.212  0.2015 -0.1797 -0.3707
 2073TIP3    H127854   0.985   4.468   8.177  0.4341  0.8851 -1.2477
 2073TIP3    H227855   1.096   4.388   8.242 -1.0107 -0.5344 -0.4706
 2074TIP3   OH227856   5.181   1.878   1.422  0.0825 -0.8037 -0.3380
 2074TIP3    H127857   5.167   1.875   1.516 -0.1051  1.0355 -0.2683
 2074TIP3    H227858   5.261   1.930   1.411  1.4125 -2.9108 -1.1362
 2075TIP3   OH227859   0.669   4.806   1.347 -0.5811 -0.2183 -0.2531
 2075TIP3    H127860   0.714   4.722   1.342 -1.0938 -0.5122  0.0729
 2075TIP3    H227861   0.633   4.809   1.435 -1.6389 -0.2105 -0.6742
 2076TIP3   OH227862   3.837   5.497   8.755 -0.1332  0.4909  0.1623
 2076TIP3    H127863   3.891   5.424   8.783 -4.5437 -3.7196 -1.0066
 2076TIP3    H227864   3.783   5.518   8.831 -0.4825  0.9260 -0.2012
 2077TIP3   OH227865   4.358   0.643   8.331  0.1290  0.1698 -0.5065
 2077TIP3    H127866   4.354   0.594   8.413  0.3436  1.4548  0.3143
 2077TIP3    H227867   4.409   0.589   8.272  0.1636 -0.6799  0.2850
 2078TIP3   OH227868   2.288   0.658   7.257  0.0477  0.1432  0.1890
 2078TIP3    H127869   2.375   0.665   7.297  0.2856  1.2266 -0.4798
 2078TIP3    H227870   2.284   0.731   7.196 -0.6551 -0.9278 -1.1085
 2079TIP3   OH227871   3.926   2.580   8.439 -0.1882  0.5070  0.2619
 2079TIP3    H127872   3.965   2.636   8.506 -1.4534  0.2127  1.2664
 2079TIP3    H227873   3.990   2.510   8.427  1.6821  2.3470 -1.3912
 2080TIP3   OH227874   2.567   1.636   2.610 -0.0468 -0.1825  0.1631
 2080TIP3    H127875   2.574   1.622   2.704 -0.5150  0.2503  0.2707
 2080TIP3    H227876   2.472   1.633   2.593 -0.0422  0.8561 -0.1076
 2081TIP3   OH227877   6.625   6.411   1.283  0.0436  0.0154 -0.6129
 2081TIP3    H127878   6.600   6.366   1.364  0.0417 -0.6472 -0.9757
 2081TIP3    H227879   6.695   6.471   1.310 -0.2674  0.1299 -0.0386
 2082TIP3   OH227880   5.725   2.051   8.511 -0.1431 -0.2635 -0.5465
 2082TIP3    H127881   5.778   2.034   8.588 -0.7873  0.5236  0.0923
 2082TIP3    H227882   5.783   2.032   8.437  0.7035 -0.3493  0.1216
 2083TIP3   OH227883   2.164   4.031   0.043  0.5625 -0.5364 -0.3810
 2083TIP3    H127884   2.214   4.033   0.125 -1.7191  0.5183  1.0819
 2083TIP3    H227885   2.208   4.095  -0.013  0.6610  0.6449  0.9932
 2084TIP3   OH227886   0.399   0.095   0.677  0.1129  0.0391 -0.6820
 2084TIP3    H127887   0.320   0.089   0.625 -0.6378  1.4650  0.2386
 2084TIP3    H227888   0.423   0.187   0.675  1.7016 -0.3466 -0.8452
 2085TIP3   OH227889   6.332   1.759   0.310  0.6892 -0.1132  0.2429
 2085TIP3    H127890   6.400   1.693   0.307  1.8815  0.9839  1.9051
 2085TIP3    H227891   6.378   1.841   0.327 -0.8126  1.0779 -1.0578
 2086TIP3   OH227892   4.408   2.982   7.112  0.4876  0.0962  0.0625
 2086TIP3    H127893   4.340   2.924   7.078  0.2845  0.6382 -0.4755
 2086TIP3    H227894   4.372   3.070   7.103  1.6206  0.4871 -1.1701
 2087TIP3   OH227895   2.413   3.174   1.860  0.0590  0.2265  0.5389
 2087TIP3    H127896   2.500   3.135   1.864  0.2419  0.5944  0.2824
 2087TIP3    H227897   2.425   3.262   1.896 -0.1598  0.3568  0.2957
 2088TIP3   OH227898   6.506   2.436   2.151  0.5940  0.0086 -0.1828
 2088TIP3    H127899   6.564   2.511   2.164 -0.4648  0.8002  0.1523
 2088TIP3    H227900   6.462   2.425   2.235 -0.4226  0.0280 -0.6947
 2089TIP3   OH227901   4.057   5.010   7.113  0.2801 -0.2645  0.1178
 2089TIP3    H127902   4.016   4.981   7.031  0.8753  1.9332 -1.0181
 2089TIP3    H227903   4.143   5.042   7.087 -0.4808  2.9461  1.1277
 2090TIP3   OH227904   5.395   3.707   2.435 -0.0366  0.0332 -0.1750
 2090TIP3    H127905   5.398   3.670   2.523  0.3311 -1.3365 -0.7376
 2090TIP3    H227906   5.315   3.759   2.433  0.5206  1.0308  1.3130
 2091TIP3   OH227907   3.319   5.455   8.668  0.3678  0.8901  0.2525
 2091TIP3    H127908   3.402   5.487   8.704  0.0329  2.1729 -0.0787
 2091TIP3    H227909   3.293   5.522   8.604 -0.7378  0.3229  0.0884
 2092TIP3   OH227910   5.962   1.180   1.719 -0.0831  0.2277 -0.2015
 2092TIP3    H127911   5.875   1.218   1.733  0.3379  1.3914 -0.6064
 2092TIP3    H227912   5.959   1.096   1.765 -1.8068 -0.3156 -1.1883
 2093TIP3   OH227913   5.166   1.957   8.655  0.8873  0.2244  0.2266
 2093TIP3    H127914   5.121   2.013   8.592  0.1525 -0.2981  0.2842
 2093TIP3    H227915   5.246   1.931   8.610  0.0979 -0.6117 -0.7277
 2094TIP3   OH227916   0.360   2.537   8.879 -0.7511  0.1989  0.2785
 2094TIP3    H127917   0.291   2.477   8.849 -0.1493 -0.2750 -0.1831
 2094TIP3    H227918   0.440   2.485   8.875 -0.4600  0.5219  1.5087
 2095TIP3   OH227919   5.525   2.950   8.401 -0.6011 -0.0099 -0.8561
 2095TIP3    H127920   5.611   2.924   8.367 -0.4208  0.2475 -0.6016
 2095TIP3    H227921   5.500   2.878   8.459  1.4440  1.8166  2.5732
 2096TIP3   OH227922   0.446   3.301   7.445  0.3373 -0.6905  0.2081
 2096TIP3    H127923   0.389   3.277   7.518  0.3337  1.1852  0.8851
 2096TIP3    H227924   0.386   3.336   7.379  0.3641 -2.1809 -0.6448
 2097TIP3   OH227925   5.163   0.495   7.313 -0.2352 -1.0791 -0.7951
 2097TIP3    H127926   5.117   0.570   7.352  0.6873  0.1635 -1.9967
 2097TIP3    H227927   5.096   0.448   7.264 -0.8961 -1.2468  0.2443
 2098TIP3   OH227928   6.079   0.704   2.595 -0.2578  0.4073 -0.4589
 2098TIP3    H127929   6.115   0.664   2.674 -1.3695  0.5257  0.1314
 2098TIP3    H227930   6.046   0.789   2.623 -0.7186  0.4318 -1.0294
 2099TIP3   OH227931   6.584   2.520   2.422  0.0204  0.0139  0.3073
 2099TIP3    H127932   6.642   2.545   2.494  0.3845  0.0793 -0.0106
 2099TIP3    H227933   6.567   2.602   2.376 -0.5466  0.0462  0.5542
 2100TIP3   OH227934   4.781   0.932   2.208 -0.5212  0.1108 -0.1801
 2100TIP3    H127935   4.865   0.932   2.253 -0.5897 -2.3470  0.1102
 2100TIP3    H227936   4.717   0.951   2.276 -0.2548  1.7476 -0.3543
 2101TIP3   OH227937   4.525   2.172   1.310 -0.5293  0.1940  0.0471
 2101TIP3    H127938   4.556   2.082   1.325  1.3440  0.2125 -2.8387
 2101TIP3    H227939   4.487   2.170   1.222 -0.3033  2.2508 -0.1467
 2102TIP3   OH227940   1.198   1.415   8.497 -0.3225  0.1555 -0.0499
 2102TIP3    H127941   1.274   1.365   8.467  0.5833  1.3260  0.2219
 2102TIP3    H227942   1.140   1.419   8.421  0.3250  0.0653 -0.5579
 2103TIP3   OH227943   0.120   6.093   8.420 -0.1742  0.1176  0.3368
 2103TIP3    H127944   0.182   6.040   8.469 -0.6395 -0.9069 -0.1608
 2103TIP3    H227945   0.106   6.046   8.338 -2.2104 -0.1324  0.7630
 2104TIP3   OH227946   4.182   0.992   2.395  0.0222  0.7403 -0.2651
 2104TIP3    H127947   4.127   0.934   2.448  1.0089  0.0881  0.0595
 2104TIP3    H227948   4.202   1.065   2.453  2.9625 -1.0147  1.1672
 2105TIP3   OH227949   4.161   1.089   1.467 -0.2167  0.3313 -0.0704
 2105TIP3    H127950   4.222   1.016   1.476 -0.6034  0.0612  0.3752
 2105TIP3    H227951   4.095   1.058   1.405 -0.8537 -0.0221  0.7700
 2106TIP3   OH227952   2.783   4.946   1.291  0.2782  0.3404 -0.4356
 2106TIP3    H127953   2.859   4.982   1.246  0.1902  1.6203  0.4141
 2106TIP3    H227954   2.709   4.970   1.236  0.4055 -0.3535 -0.9296
 2107TIP3   OH227955   1.769   1.379   8.320  0.4334  0.1300 -0.0690
 2107TIP3    H127956   1.781   1.299   8.371  0.7543  0.5469  0.5156
 2107TIP3    H227957   1.855   1.395   8.281  0.2998  0.0516 -0.4052
 2108TIP3   OH227958   1.316   5.140   1.734  0.0333  0.1251 -0.2370
 2108TIP3    H127959   1.377   5.106   1.668  0.7776  0.6719  0.1522
 2108TIP3    H227960   1.240   5.083   1.729  1.2984 -1.6961  0.5040
 2109TIP3   OH227961   3.321   6.637   1.382 -0.0193 -0.2802 -0.1104
 2109TIP3    H127962   3.387   6.693   1.422 -0.4100 -0.1902  0.4189
 2109TIP3    H227963   3.358   6.613   1.297  0.4725  0.1758 -0.0307
 2110TIP3   OH227964   5.593   2.269   0.605 -0.4659 -0.7779 -0.1662
 2110TIP3    H127965   5.686   2.292   0.606 -0.3252 -1.0284  2.9116
 2110TIP3    H227966   5.590   2.177   0.578  0.3840 -1.2766  1.3505
 2111TIP3   OH227967   1.615   4.413   2.456  0.5989  0.7906  0.1536
 2111TIP3    H127968   1.657   4.483   2.505  0.4776  1.0247 -0.0728
 2111TIP3    H227969   1.635   4.333   2.505  1.2487  0.9101  0.0875
 2112TIP3   OH227970   1.034   0.598   8.321  0.1634  0.6177 -0.0104
 2112TIP3    H127971   1.130   0.609   8.322  0.1881  0.5803 -1.0652
 2112TIP3    H227972   1.020   0.513   8.363  0.6635  0.2044 -0.6662
 2113TIP3   OH227973   6.357   2.028   8.171  0.3200  0.4705 -0.0398
 2113TIP3    H127974   6.288   2.089   8.197  1.5672  1.6088  0.6760
 2113TIP3    H227975   6.397   2.000   8.254 -0.3712 -1.5432 -0.3191
 2114TIP3   OH227976   5.922   2.927   1.544  0.5728  0.4754  0.0645
 2114TIP3    H127977   5.862   2.878   1.600  0.9821  1.1917  1.1724
 2114TIP3    H227978   5.870   3.001   1.513  0.1536 -0.2653 -1.0638
 2115TIP3   OH227979   2.876   4.740   7.487  0.5412 -0.2771  0.5019
 2115TIP3    H127980   2.788   4.767   7.462 -0.2755 -2.6391  0.6070
 2115TIP3    H227981   2.908   4.690   7.412  0.7774 -1.5727  1.4447
 2116TIP3   OH227982   3.686   6.362   0.100  0.3634  0.3801 -0.3006
 2116TIP3    H127983   3.679   6.296   0.031 -0.5975  0.7248 -0.5538
 2116TIP3    H227984   3.732   6.435   0.059 -0.0560  0.5171 -0.5311
 2117TIP3   OH227985   5.655   4.723   6.894 -0.1059  0.2570 -0.9597
 2117TIP3    H127986   5.742   4.700   6.927  0.0618  2.1817  0.0684
 2117TIP3    H227987   5.594   4.689   6.960  0.0252  0.9743 -0.4570
 2118TIP3   OH227988   2.114   5.800   0.276 -0.1803  0.4630 -0.3845
 2118TIP3    H127989   2.191   5.745   0.262 -1.0953 -0.9259 -0.1557
 2118TIP3    H227990   2.149   5.882   0.312  1.3274  0.5436 -1.8868
 2119TIP3   OH227991   4.596   2.420   0.196 -0.0030  0.1794  0.4240
 2119TIP3    H127992   4.647   2.460   0.125  0.0828  2.0672  1.4793
 2119TIP3    H227993   4.639   2.335   0.211  1.8382  1.0133  0.1956
 2120TIP3   OH227994   6.393   5.090   8.490 -0.6451 -0.3136  0.1130
 2120TIP3    H127995   6.385   5.176   8.531  0.0101 -0.2483  0.1268
 2120TIP3    H227996   6.486   5.067   8.502  0.0555  0.5212 -2.9406
 2121TIP3   OH227997   5.589   2.912   6.927  0.5315  0.0361 -0.0467
 2121TIP3    H127998   5.581   2.827   6.885 -0.5727  0.2012 -0.2195
 2121TIP3    H227999   5.661   2.956   6.882  0.2746 -0.3264 -0.8280
 2122TIP3   OH228000   2.005   2.140   0.459 -0.3142 -0.2655 -0.0750
 2122TIP3    H128001   1.965   2.130   0.372 -0.2976  1.4151 -0.2993
 2122TIP3    H228002   1.941   2.191   0.509 -0.0270 -0.6577  0.7133
 2123TIP3   OH228003   1.431   2.218   0.683  0.1251  0.0814  0.1611
 2123TIP3    H128004   1.446   2.308   0.654  2.2846  0.6021  2.5406
 2123TIP3    H228005   1.469   2.163   0.614  1.3369  1.1064 -0.0070
 2124TIP3   OH228006   0.366   2.060   7.377  0.2401 -0.1587  0.2901
 2124TIP3    H128007   0.344   2.114   7.301 -1.4271 -0.1648  0.7314
 2124TIP3    H228008   0.428   1.995   7.343 -1.4524 -1.0082 -1.4462
 2125TIP3   OH228009   3.868   2.473   7.706 -0.0662 -0.1127  0.2659
 2125TIP3    H128010   3.914   2.401   7.664 -0.8504 -0.8763  0.6606
 2125TIP3    H228011   3.840   2.437   7.791 -0.8750  0.4928  0.2748
 2126TIP3   OH228012   1.348   5.753   2.392  0.1416  1.0737 -0.3961
 2126TIP3    H128013   1.382   5.794   2.471  0.3248  0.4455 -0.1420
 2126TIP3    H228014   1.281   5.693   2.423  0.6068  0.4020 -0.6519
 2127TIP3   OH228015   5.376   0.245   0.033  0.0682 -0.3358 -0.0682
 2127TIP3    H128016   5.330   0.284  -0.042  3.1025 -0.9501 -2.4734
 2127TIP3    H228017   5.469   0.251   0.010  1.0973 -1.7907  3.0961
 2128TIP3   OH228018   4.386   1.873   2.812 -0.1848  0.6467  0.0332
 2128TIP3    H128019   4.310   1.814   2.812 -0.1535  0.5939 -1.0109
 2128TIP3    H228020   4.368   1.935   2.883  0.0462 -0.9374  1.5505
 2129TIP3   OH228021   4.259   2.851   7.410  0.3585 -0.0614  0.2167
 2129TIP3    H128022   4.355   2.859   7.405  0.2735  1.0885  0.1388
 2129TIP3    H228023   4.232   2.927   7.462 -0.4460 -0.8764  1.0140
 2130TIP3   OH228024   1.255   2.508   7.664 -0.2800  0.1634  0.3483
 2130TIP3    H128025   1.308   2.428   7.666 -0.1826  0.2164 -0.0209
 2130TIP3    H228026   1.165   2.477   7.656 -0.1800  0.0986 -0.6741
 2131TIP3   OH228027   0.670   3.290   2.458  0.2654  0.7124  0.9579
 2131TIP3    H128028   0.609   3.364   2.452  1.4823  1.8053  1.7009
 2131TIP3    H228029   0.737   3.310   2.393 -0.1135 -0.4702  0.1708
 2132TIP3   OH228030   0.787   5.766   8.106 -0.2937 -0.2028  0.0948
 2132TIP3    H128031   0.746   5.816   8.035  2.9999  1.4153 -0.8763
 2132TIP3    H228032   0.772   5.819   8.185 -2.5200 -1.1629  0.3778
 2133TIP3   OH228033   1.807   1.303   0.413  0.0612 -0.1335  0.1975
 2133TIP3    H128034   1.729   1.345   0.375 -1.7482 -0.8112  2.9023
 2133TIP3    H228035   1.799   1.211   0.389  1.4826  0.1468 -1.6459
 2134TIP3   OH228036   2.786   1.978   0.001  0.1684  0.1843 -0.5059
 2134TIP3    H128037   2.749   2.065   0.014  0.2553  0.1209  0.2193
 2134TIP3    H228038   2.711   1.919   0.010 -0.1128  0.2497 -2.2176
 2135TIP3   OH228039   0.758   0.068   0.913 -0.4796  0.7637 -0.2724
 2135TIP3    H128040   0.712   0.082   0.996  0.5811  0.9055  0.3062
 2135TIP3    H228041   0.691   0.032   0.855 -1.2193  0.5694  0.6691
 2136TIP3   OH228042   1.389   1.772   2.400 -0.0480 -0.4435 -0.8382
 2136TIP3    H128043   1.467   1.723   2.376  0.6280 -1.1146  2.3270
 2136TIP3    H228044   1.419   1.863   2.411 -0.7134  0.2507 -3.8438
 2137TIP3   OH228045   5.879   3.351   0.906  0.1703 -0.2210  0.4444
 2137TIP3    H128046   5.970   3.337   0.880  0.1557  2.2355 -1.2350
 2137TIP3    H228047   5.831   3.279   0.864  1.1083 -0.4159 -0.3341
 2138TIP3   OH228048   0.382   1.177   7.331 -0.1928 -0.1268  0.1783
 2138TIP3    H128049   0.349   1.087   7.330 -0.8413  0.1117 -0.8375
 2138TIP3    H228050   0.314   1.228   7.373  0.2525 -0.1260  0.9176
 2139TIP3   OH228051   4.419   4.031   7.625 -0.0599 -0.3995 -0.6225
 2139TIP3    H128052   4.330   3.998   7.613 -0.3383 -1.1846  2.6800
 2139TIP3    H228053   4.450   3.988   7.704  1.6844  3.0572  0.7718
 2140TIP3   OH228054   0.944   6.415   0.509  0.5403  0.9484  0.4553
 2140TIP3    H128055   0.888   6.418   0.587 -0.8159 -0.2535 -0.4175
 2140TIP3    H228056   0.981   6.327   0.509  0.7997  1.0562 -0.0586
 2141TIP3   OH228057   2.602   0.103   8.512  0.3886  0.4356 -0.2947
 2141TIP3    H128058   2.602   0.103   8.416 -0.2299  0.5353 -0.2982
 2141TIP3    H228059   2.542   0.033   8.536  0.5644  0.3925  0.0199
 2142TIP3   OH228060   6.334   3.157   8.195  0.2940 -0.0330  0.0502
 2142TIP3    H128061   6.416   3.142   8.147  0.0539 -0.7062 -0.1654
 2142TIP3    H228062   6.271   3.181   8.127  0.0839 -0.4620  0.0899
 2143TIP3   OH228063   6.698   0.700   8.663  0.1115 -0.3971  0.2598
 2143TIP3    H128064   6.751   0.776   8.637  0.1484 -0.3905  0.3537
 2143TIP3    H228065   6.667   0.721   8.751 -2.0653  0.6744 -0.6936
 2144TIP3   OH228066   0.882   4.962   8.389 -0.0898  0.0128 -0.9327
 2144TIP3    H128067   0.971   4.939   8.362  0.7996  0.1382  1.5611
 2144TIP3    H228068   0.851   4.885   8.438 -0.9384  0.3753 -0.8802
 2145TIP3   OH228069   6.266   1.412   1.689 -0.1359 -0.1258 -0.0670
 2145TIP3    H128070   6.200   1.441   1.626 -0.7240  1.8148  1.3444
 2145TIP3    H228071   6.221   1.413   1.774  1.2994 -0.2551  0.7294
 2146TIP3   OH228072   3.233   5.087   7.768  0.6334  0.3742 -0.3128
 2146TIP3    H128073   3.269   5.045   7.690 -0.3860 -0.9835 -0.1012
 2146TIP3    H228074   3.298   5.071   7.836  1.0261  0.6137 -0.6269
 2147TIP3   OH228075   1.997   2.281   7.889  0.5302 -0.0182 -0.5467
 2147TIP3    H128076   1.984   2.313   7.978 -0.1076  2.1962 -1.3860
 2147TIP3    H228077   1.934   2.210   7.879 -0.4296  0.7046  0.2761
 2148TIP3   OH228078   3.543   5.950   1.224  0.1131  0.3021 -0.1478
 2148TIP3    H128079   3.629   5.913   1.207 -0.9584 -2.0262 -0.8542
 2148TIP3    H228080   3.521   5.998   1.144 -0.2568 -1.2475 -1.0130
 2149TIP3   OH228081   0.584   3.919   8.399 -0.0042 -0.2146  0.4578
 2149TIP3    H128082   0.534   3.867   8.462 -0.9453  0.9185  0.6766
 2149TIP3    H228083   0.652   3.961   8.452 -0.1681 -0.0533  0.5392
 2150TIP3   OH228084   0.107   1.499   6.962 -0.0578 -0.0594  0.7861
 2150TIP3    H128085   0.119   1.591   6.986 -0.9311 -0.4857  3.2112
 2150TIP3    H228086   0.169   1.451   7.018 -0.8468 -1.0551  0.8456
 2151TIP3   OH228087   4.204   3.133   8.217  0.3999 -0.4478 -0.6691
 2151TIP3    H128088   4.187   3.041   8.242  0.6750 -0.2044  0.4641
 2151TIP3    H228089   4.252   3.169   8.291 -0.1990  0.7734 -0.8521
 2152TIP3   OH228090   1.323   3.878   7.641  0.5218  1.2036 -0.4321
 2152TIP3    H128091   1.386   3.893   7.712 -1.2550 -1.0090  1.8269
 2152TIP3    H228092   1.355   3.799   7.598 -0.7682 -0.1898  1.0046
 2153TIP3   OH228093   0.781   0.502   7.881  0.1113  0.1632 -0.1209
 2153TIP3    H128094   0.740   0.420   7.907 -1.1196  0.6224 -0.5292
 2153TIP3    H228095   0.857   0.510   7.939  0.0659 -1.0902  0.1424
 2154TIP3   OH228096   4.434   0.094   8.021 -0.2825 -0.2121 -0.0228
 2154TIP3    H128097   4.453   0.059   8.108  0.8768 -0.4311 -0.3499
 2154TIP3    H228098   4.352   0.051   7.995 -1.5195  1.0639  1.5882
 2155TIP3   OH228099   4.490   4.125   1.512 -0.2246  0.5450  0.1221
 2155TIP3    H128100   4.408   4.166   1.541 -0.8762 -1.0915  0.7215
 2155TIP3    H228101   4.559   4.180   1.549 -1.0639  0.6407  1.6088
 2156TIP3   OH228102   5.076   4.147   1.386  0.2928 -0.3312  0.0815
 2156TIP3    H128103   5.079   4.181   1.476  0.0111 -1.7759  0.6571
 2156TIP3    H228104   5.014   4.206   1.342 -0.1076 -0.0186  1.0167
 2157TIP3   OH228105   4.788   1.142   8.351  0.0372  0.5340 -0.5926
 2157TIP3    H128106   4.723   1.164   8.418 -1.0363  0.3503 -1.5225
 2157TIP3    H228107   4.856   1.094   8.397 -1.4096 -0.9292  0.1217
 2158TIP3   OH228108   3.902   5.967   1.803 -0.3625  0.1969 -0.2367
 2158TIP3    H128109   3.890   5.872   1.814  2.0740  0.1156  3.6913
 2158TIP3    H228110   3.912   5.979   1.709 -2.3486 -3.1673 -1.0601
 2159TIP3   OH228111   1.560   0.357   8.594 -0.0425  0.3284  0.0517
 2159TIP3    H128112   1.466   0.376   8.587  0.2923  1.6936 -1.2016
 2159TIP3    H228113   1.578   0.297   8.522  0.3795  1.5794 -0.9135
 2160TIP3   OH228114   1.866   6.251   7.547  0.2833 -0.3291 -0.1725
 2160TIP3    H128115   1.787   6.293   7.578  0.7347 -0.8575  1.8176
 2160TIP3    H228116   1.878   6.175   7.605  2.4623 -0.0090 -0.1121
 2161TIP3   OH228117   3.942   4.793   8.089 -0.7271 -0.1083  0.4908
 2161TIP3    H128118   4.011   4.859   8.095  1.7305 -2.1129 -2.4177
 2161TIP3    H228119   3.895   4.814   8.008 -0.3899 -1.4428 -0.0711
 2162TIP3   OH228120   1.075   4.801   8.285  0.7157 -0.4244  0.3186
 2162TIP3    H128121   1.062   4.713   8.250 -1.6953 -1.1827  2.8113
 2162TIP3    H228122   1.158   4.797   8.332  0.9713 -1.1286 -0.1792
 2163TIP3   OH228123   4.397   1.485   7.486  0.4893 -0.2406 -0.4629
 2163TIP3    H128124   4.344   1.565   7.482  1.6962  0.6108  0.1061
 2163TIP3    H228125   4.334   1.417   7.510 -0.1216  1.0677  2.0999
 2164TIP3   OH228126   1.292   1.129   0.930 -0.0461 -0.8676  0.7493
 2164TIP3    H128127   1.322   1.088   1.011  0.3355 -0.7458  0.6694
 2164TIP3    H228128   1.369   1.173   0.894  0.7623 -3.8906 -1.5842
 2165TIP3   OH228129   0.398   1.035   0.111 -0.5831 -0.0340  0.0500
 2165TIP3    H128130   0.387   1.010   0.203 -0.6899  2.2827  0.7405
 2165TIP3    H228131   0.461   0.972   0.076 -0.4270 -0.8719  1.7499
 2166TIP3   OH228132   0.029   0.769   8.275  0.3726  0.2432 -0.1514
 2166TIP3    H128133   0.118   0.740   8.257  0.2905  0.2142 -0.5160
 2166TIP3    H228134   0.037   0.829   8.349  1.0099  2.0948 -1.6295
 2167TIP3   OH228135   0.326   2.687   0.589 -0.3279 -0.2232 -0.2764
 2167TIP3    H128136   0.343   2.637   0.669 -0.4204  1.9917  1.1895
 2167TIP3    H228137   0.403   2.743   0.580 -1.7571  1.9026  0.1552
 2168TIP3   OH228138   1.337   3.400   7.193  0.3584  0.1398 -0.2335
 2168TIP3    H128139   1.404   3.334   7.175 -1.6116 -2.0200 -0.0923
 2168TIP3    H228140   1.305   3.426   7.107 -0.5922 -1.0259 -0.2581
 2169TIP3   OH228141   4.598   0.835   7.498  0.2135  0.1694  0.2024
 2169TIP3    H128142   4.517   0.790   7.521  1.2154 -3.0185 -1.8181
 2169TIP3    H228143   4.572   0.902   7.435 -0.8656 -1.1461 -0.8031
 2170TIP3   OH228144   5.469   0.419   7.824 -0.0658  0.3078 -0.3124
 2170TIP3    H128145   5.507   0.417   7.912 -0.3686  1.4947 -0.1335
 2170TIP3    H228146   5.534   0.464   7.770  0.6596 -1.4826 -0.9979
 2171TIP3   OH228147   0.648   5.226   8.827  0.3159 -0.1654 -0.0103
 2171TIP3    H128148   0.554   5.245   8.820  0.1962 -0.9938 -1.0963
 2171TIP3    H228149   0.672   5.197   8.739  1.0260 -2.4276  0.8652
 2172TIP3   OH228150   2.070   6.459   2.524  0.0564  0.8496 -0.5935
 2172TIP3    H128151   1.981   6.429   2.505  0.2600 -0.2750  0.1592
 2172TIP3    H228152   2.081   6.537   2.470 -0.9374  0.2745 -1.6659
 2173TIP3   OH228153   1.231   4.145   0.896 -0.2907  0.7902 -0.3634
 2173TIP3    H128154   1.213   4.222   0.842 -0.7136  1.0697  0.1620
 2173TIP3    H228155   1.311   4.167   0.944 -0.8386  1.2311  0.3689
 2174TIP3   OH228156   6.707   1.550   7.416  0.0577 -0.0252  0.0367
 2174TIP3    H128157   6.706   1.595   7.332  0.8182  1.3452  0.7360
 2174TIP3    H228158   6.622   1.507   7.422  0.0725 -0.3359 -1.5117
 2175TIP3   OH228159   6.031   5.622   8.175  0.3457 -0.7969  0.1231
 2175TIP3    H128160   5.949   5.607   8.221  0.4710 -3.1741 -0.3239
 2175TIP3    H228161   6.081   5.680   8.232 -1.6502  0.8041  0.3489
 2176TIP3   OH228162   1.461   5.148   1.008  0.0058  0.0433 -0.0308
 2176TIP3    H128163   1.451   5.054   0.994 -2.1298  0.1896  0.0538
 2176TIP3    H228164   1.376   5.176   1.044  0.4747  2.0433 -0.3286
 2177TIP3   OH228165   2.133   6.213   1.026  0.5629 -0.3430 -0.3773
 2177TIP3    H128166   2.074   6.150   1.067 -1.7454  1.8421 -0.1263
 2177TIP3    H228167   2.168   6.168   0.949 -1.7161 -1.6097 -0.7336
 2178TIP3   OH228168   1.449   6.715   2.297  0.3376 -0.0645 -0.1725
 2178TIP3    H128169   1.376   6.679   2.349  0.3102 -0.8690 -0.7493
 2178TIP3    H228170   1.525   6.664   2.325  0.1350 -1.2522 -1.6454
 2179TIP3   OH228171   2.605   1.462   1.334  0.3036  0.1559  0.1059
 2179TIP3    H128172   2.648   1.438   1.416  2.0668 -1.2745 -1.1744
 2179TIP3    H228173   2.552   1.385   1.312 -0.6095  0.7567  0.1636
 2180TIP3   OH228174   5.599   5.234   8.680  0.2399  1.4833 -0.3026
 2180TIP3    H128175   5.674   5.220   8.738  0.3392  0.9112 -0.5594
 2180TIP3    H228176   5.633   5.289   8.609  1.0781 -0.6432 -1.6604
 2181TIP3   OH228177   5.151   0.826   8.604  0.0218 -0.0524  0.6692
 2181TIP3    H128178   5.224   0.881   8.575  0.5296 -0.5486  0.9775
 2181TIP3    H228179   5.184   0.784   8.683 -0.7070 -0.0699  0.9665
 2182TIP3   OH228180   3.029   2.190   0.682 -0.1353 -0.0578 -0.1879
 2182TIP3    H128181   3.007   2.114   0.628 -0.5806 -1.3766  1.7451
 2182TIP3    H228182   3.118   2.214   0.655  0.6535 -2.2762  0.1914
 2183TIP3   OH228183   2.370   5.667   8.329  0.1529 -0.5023  0.0217
 2183TIP3    H128184   2.430   5.612   8.280 -0.8790 -0.8008 -0.9393
 2183TIP3    H228185   2.293   5.612   8.344 -0.8669  0.6169 -0.8992
 2184TIP3   OH228186   2.430   2.111   8.597  0.2086 -0.5638 -0.0119
 2184TIP3    H128187   2.408   2.056   8.673 -0.5985 -1.7330 -1.0460
 2184TIP3    H228188   2.497   2.060   8.551  0.3254 -0.0990 -0.3521
 2185TIP3   OH228189   1.339   2.735   2.980  0.3353 -0.1858 -0.7450
 2185TIP3    H128190   1.434   2.745   2.987  0.2047 -0.0956  1.6240
 2185TIP3    H228191   1.303   2.793   3.047 -1.4851  0.5385 -2.2343
 2186TIP3   OH228192   0.731   2.724   0.938  0.0707  0.7877 -0.1965
 2186TIP3    H128193   0.719   2.669   1.016 -1.7415  0.7424 -0.4621
 2186TIP3    H228194   0.770   2.665   0.873  1.5119  0.7997  0.6021
 2187TIP3   OH228195   0.033   4.406   2.496  0.1006 -0.5684  0.4547
 2187TIP3    H128196   0.120   4.423   2.532  0.5846 -1.7017 -0.1215
 2187TIP3    H228197   0.013   4.316   2.522  0.5945 -1.5545 -2.1971
 2188TIP3   OH228198   1.013   0.241   7.973 -0.2818  0.3143  0.1518
 2188TIP3    H128199   0.937   0.236   7.915  1.1029  1.5257 -1.8796
 2188TIP3    H228200   1.032   0.335   7.980  0.8581  0.0519  0.8435
 2189TIP3   OH228201   0.876   1.793   7.772  0.4512  0.1767  0.2803
 2189TIP3    H128202   0.814   1.752   7.832  0.3419  1.0088  0.7567
 2189TIP3    H228203   0.877   1.736   7.695 -1.4031  0.4839 -0.0187
 2190TIP3   OH228204   6.036   2.673   8.918  0.4449 -0.0455  0.3679
 2190TIP3    H128205   6.041   2.718   8.833 -1.4553 -1.0098 -0.3101
 2190TIP3    H228206   6.029   2.581   8.895 -0.2830 -0.3022  1.5682
 2191TIP3   OH228207   5.504   5.865   0.719  0.1084 -0.8010 -0.3431
 2191TIP3    H128208   5.530   5.916   0.796 -0.5386  1.8217 -1.7644
 2191TIP3    H228209   5.580   5.868   0.661 -1.0536  1.7588 -1.9361
 2192TIP3   OH228210   4.775   2.903   0.056 -0.0925  0.8477  0.3043
 2192TIP3    H128211   4.826   2.933   0.132  0.3448  0.2820  0.2355
 2192TIP3    H228212   4.834   2.917  -0.019 -0.3174  0.8797  0.1331
 2193TIP3   OH228213   0.690   5.466   1.356  0.4187 -0.1259 -0.1261
 2193TIP3    H128214   0.685   5.397   1.423  0.1988  0.9056  0.9693
 2193TIP3    H228215   0.722   5.422   1.278 -1.0263 -1.7471  0.1404
 2194TIP3   OH228216   6.672   3.307   1.719 -0.3813  1.3495 -0.1701
 2194TIP3    H128217   6.723   3.387   1.710  0.3671  0.9687  0.5448
 2194TIP3    H228218   6.698   3.252   1.645  0.8415  0.8515  0.6019
 2195TIP3   OH228219   3.706   1.692   7.474  0.6608 -0.3710 -0.0971
 2195TIP3    H128220   3.634   1.746   7.440  0.0857 -1.2855 -0.3593
 2195TIP3    H228221   3.785   1.732   7.438  0.2637  0.3883 -0.1566
 2196TIP3   OH228222   5.448   0.354   1.969 -1.0080 -0.2591  0.9255
 2196TIP3    H128223   5.413   0.317   2.050  0.6164  0.7972  2.1839
 2196TIP3    H228224   5.376   0.403   1.931 -1.9469 -1.2062  1.4452
 2197TIP3   OH228225   4.283   1.083   1.764 -0.4204 -0.0708  0.4569
 2197TIP3    H128226   4.351   1.114   1.824  0.5740 -3.1164  1.0482
 2197TIP3    H228227   4.328   1.075   1.680 -1.6277  3.4578 -0.7172
 2198TIP3   OH228228   2.300   2.532   1.749  0.0491  0.6965  0.3282
 2198TIP3    H128229   2.252   2.463   1.797 -0.0693  0.8810  0.4789
 2198TIP3    H228230   2.235   2.568   1.688 -0.1895  1.3501  0.9435
 2199TIP3   OH228231   5.479   1.623   7.670  0.4466  0.3613 -0.1513
 2199TIP3    H128232   5.552   1.574   7.632 -1.0544 -0.9078 -1.5386
 2199TIP3    H228233   5.519   1.674   7.741  2.7038 -0.0838 -1.0154
 2200TIP3   OH228234   3.391   2.073   8.544 -0.2311 -0.2225 -0.7322
 2200TIP3    H128235   3.319   2.091   8.603  0.2007  0.1131 -0.3044
 2200TIP3    H228236   3.469   2.073   8.600  0.2228  0.4382 -1.3434
 2201TIP3   OH228237   0.149   4.335   1.639 -0.5806  0.4040  0.5148
 2201TIP3    H128238   0.112   4.350   1.552  1.9936  0.0202 -0.7419
 2201TIP3    H228239   0.092   4.269   1.679 -1.4854  0.1741 -1.0896
 2202TIP3   OH228240   1.191   2.351   0.772  0.1399 -0.0551  0.2284
 2202TIP3    H128241   1.258   2.284   0.758 -0.0474 -0.4314  1.0418
 2202TIP3    H228242   1.222   2.427   0.723  1.1213 -0.2566  0.5132
 2203TIP3   OH228243   1.179   2.971   8.193  0.2192 -0.0263  0.6125
 2203TIP3    H128244   1.197   3.059   8.162 -2.6629  1.3688  2.5026
 2203TIP3    H228245   1.257   2.948   8.245  1.8682  0.5001 -1.4900
 2204TIP3   OH228246   0.994   3.405   8.186  0.1736 -0.6061  0.5648
 2204TIP3    H128247   0.920   3.463   8.203  0.5150  0.3948 -1.1385
 2204TIP3    H228248   1.036   3.394   8.271 -0.8477  0.3139  1.2161
 2205TIP3   OH228249   4.835   5.720   7.683 -0.7059  0.2842 -0.2004
 2205TIP3    H128250   4.896   5.745   7.613 -1.2574  0.1252 -0.7464
 2205TIP3    H228251   4.846   5.625   7.691  1.0954  0.5687  1.5971
 2206TIP3   OH228252   5.752   5.373   2.988  0.0856 -0.1446  0.0992
 2206TIP3    H128253   5.686   5.311   3.019 -0.0489 -0.5708 -0.9629
 2206TIP3    H228254   5.743   5.371   2.892  0.6307  0.9163  0.0071
 2207TIP3   OH228255   5.541   6.031   2.460 -0.7834 -0.7102  0.4729
 2207TIP3    H128256   5.481   6.040   2.386 -1.9568  0.0277  1.4721
 2207TIP3    H228257   5.608   6.098   2.445 -0.7726 -0.8480 -0.1237
 2208TIP3   OH228258   0.518   2.561   8.264 -0.2153  0.3132  0.3091
 2208TIP3    H128259   0.448   2.515   8.217 -1.1006  0.3877  1.5113
 2208TIP3    H228260   0.502   2.653   8.248  1.3321  0.2782 -1.7805
 2209TIP3   OH228261   6.075   3.428   7.796  0.4617 -0.0612  0.2909
 2209TIP3    H128262   6.059   3.395   7.707 -0.7163 -0.4892  0.6326
 2209TIP3    H228263   6.162   3.396   7.819  1.0942  0.6979 -0.9871
 2210TIP3   OH228264   1.826   5.600   1.317 -0.1160 -0.2765  0.5873
 2210TIP3    H128265   1.890   5.559   1.375  0.2138  0.4123  0.7282
 2210TIP3    H228266   1.877   5.665   1.267 -0.7489  0.5110  0.9331
 2211TIP3   OH228267   5.089   3.044   2.610 -0.5317 -0.2266  0.1836
 2211TIP3    H128268   5.098   3.025   2.517  0.1385 -0.5534  0.3070
 2211TIP3    H228269   5.178   3.066   2.639 -0.8499  0.5151  0.6078
 2212TIP3   OH228270   2.307   0.218   7.665  0.3996 -0.4092  0.1106
 2212TIP3    H128271   2.321   0.311   7.647 -1.5089  0.4084  2.3811
 2212TIP3    H228272   2.387   0.191   7.711  1.5525 -0.3161 -1.7284
 2213TIP3   OH228273   4.905   2.782   7.500 -0.3251  0.1658  0.5677
 2213TIP3    H128274   4.919   2.767   7.594 -0.7753 -0.3607  0.5592
 2213TIP3    H228275   4.966   2.721   7.457  0.2452  0.7704  0.5134
 2214TIP3   OH228276   4.297   1.108   8.001  0.6539 -0.3148 -0.3160
 2214TIP3    H128277   4.274   1.185   7.950 -4.0339 -1.4909 -0.4421
 2214TIP3    H228278   4.324   1.043   7.936 -0.0774 -0.1708 -0.7783
 2215TIP3   OH228279   0.459   4.427   0.765  0.1302 -0.6394 -0.0522
 2215TIP3    H128280   0.417   4.411   0.681  0.7575  0.6256 -0.6406
 2215TIP3    H228281   0.452   4.344   0.811 -1.6255 -0.9040 -0.7154
 2216TIP3   OH228282   3.548   5.803   1.461  0.0978  0.2024  0.1673
 2216TIP3    H128283   3.632   5.831   1.498  0.5876  0.2108 -0.9192
 2216TIP3    H228284   3.537   5.857   1.382 -0.5177 -0.3943 -0.1641
 2217TIP3   OH228285   5.627   5.623   8.069 -0.2300  0.2825  0.3862
 2217TIP3    H128286   5.708   5.577   8.090  0.1287  0.9815  0.5748
 2217TIP3    H228287   5.631   5.703   8.121 -0.0616  1.3045 -1.1351
 2218TIP3   OH228288   0.151   6.525   0.356 -0.8809  1.0401  0.3380
 2218TIP3    H128289   0.123   6.564   0.439  1.0198  2.0002  0.5950
 2218TIP3    H228290   0.228   6.575   0.331 -0.0558 -0.7021 -0.8536
 2219TIP3   OH228291   4.293   1.773   7.907  0.4369 -0.0423 -0.0731
 2219TIP3    H128292   4.319   1.836   7.839  1.1372 -0.0030  0.2235
 2219TIP3    H228293   4.237   1.711   7.861 -0.2293  0.7724 -0.3816
 2220TIP3   OH228294   4.553   1.581   0.867 -0.3290  0.3176  0.3342
 2220TIP3    H128295   4.627   1.545   0.818 -0.3373 -0.4207  0.8430
 2220TIP3    H228296   4.520   1.653   0.813  1.3841  1.3294  0.5595
 2221TIP3   OH228297   3.325   3.486   0.356  0.3143  0.8453 -0.1689
 2221TIP3    H128298   3.288   3.498   0.443  0.4735  0.4064 -0.0355
 2221TIP3    H228299   3.278   3.549   0.301 -2.7768 -1.5765 -0.6292
 2222TIP3   OH228300   5.187   2.054   7.911 -0.4867 -0.4755  0.0264
 2222TIP3    H128301   5.239   2.106   7.972  1.0124 -0.3976 -1.2334
 2222TIP3    H228302   5.232   1.970   7.906  0.0001 -0.1734 -1.6025
 2223TIP3   OH228303   4.922   6.406   8.754 -0.5071 -0.4690  0.2112
 2223TIP3    H128304   4.866   6.454   8.693 -0.2342  0.8179  0.9430
 2223TIP3    H228305   5.006   6.398   8.708  0.2250  1.9451  0.9723
 2224TIP3   OH228306   3.063   1.572   8.787  0.0323  0.5854  0.3865
 2224TIP3    H128307   3.029   1.640   8.845  0.6290  0.2963  1.0930
 2224TIP3    H228308   3.158   1.576   8.798  0.0538 -0.8816  1.0676
 2225TIP3   OH228309   3.170   1.760   7.717 -0.8018  0.2063 -0.0845
 2225TIP3    H128310   3.181   1.844   7.762  0.4619 -0.5800  1.1826
 2225TIP3    H228311   3.079   1.735   7.735 -0.9453  0.9249  0.2299
 2226TIP3   OH228312   2.664   4.990   7.603  0.2954 -0.0492 -0.3730
 2226TIP3    H128313   2.659   4.922   7.536  1.6850  0.0708 -0.6359
 2226TIP3    H228314   2.670   5.072   7.554  0.1676  0.1335 -0.0845
 2227TIP3   OH228315   6.543   6.033   7.472  0.2539 -0.1110 -0.0368
 2227TIP3    H128316   6.623   5.987   7.498 -0.2888  0.2539  2.5681
 2227TIP3    H228317   6.565   6.126   7.483 -0.6172 -0.0232  1.0868
 2228TIP3   OH228318   2.284   6.467   0.175  0.2254 -0.8364  0.1984
 2228TIP3    H128319   2.358   6.407   0.163 -1.9394 -3.4390 -1.4411
 2228TIP3    H228320   2.226   6.447   0.102 -0.7297  3.3625 -0.4254
 2229TIP3   OH228321   6.176   0.014   6.939 -0.0602  0.5256  0.3118
 2229TIP3    H128322   6.248   0.066   6.973  0.0794  0.1029  0.6801
 2229TIP3    H228323   6.097   0.051   6.980  0.1285 -0.1354  1.3165
 2230TIP3   OH228324   1.699   3.511   1.638  0.1622 -0.4214  0.2209
 2230TIP3    H128325   1.757   3.440   1.666  1.8766  1.4909  1.7646
 2230TIP3    H228326   1.729   3.588   1.687 -0.5529  1.7800 -2.5338
 2231TIP3   OH228327   4.900   3.634   2.830 -0.4143  0.5148 -0.7359
 2231TIP3    H128328   4.992   3.609   2.817  0.0119  1.5180  0.1701
 2231TIP3    H228329   4.854   3.551   2.842  0.5153  0.0375 -0.3533
 2232TIP3   OH228330   4.790   6.209   0.150 -0.2023 -0.1402 -0.1049
 2232TIP3    H128331   4.826   6.135   0.100 -0.9166 -0.6247  0.0810
 2232TIP3    H228332   4.863   6.240   0.203  0.0372 -0.8746  0.0035
 2233TIP3   OH228333   5.537   5.678   1.192  0.3551  0.0561  0.2890
 2233TIP3    H128334   5.612   5.693   1.134 -0.1508 -0.4233 -0.5169
 2233TIP3    H228335   5.479   5.619   1.142 -0.7347  0.7119  0.7372
 2234TIP3   OH228336   5.353   2.982   0.303  0.2371 -0.1712 -0.3234
 2234TIP3    H128337   5.272   2.997   0.353  0.5961  0.8571 -0.0285
 2234TIP3    H228338   5.408   2.931   0.362  0.1213 -0.1550 -0.1989
 2235TIP3   OH228339   1.273   4.547   8.037 -0.0007 -0.4950  0.5294
 2235TIP3    H128340   1.351   4.561   8.092  0.3979 -1.0357  0.1073
 2235TIP3    H228341   1.204   4.527   8.100  0.4514 -1.1117  0.8465
 2236TIP3   OH228342   5.928   3.965   1.364 -0.2198 -0.1204 -0.1202
 2236TIP3    H128343   5.968   4.012   1.291  0.4535 -0.9556 -0.3031
 2236TIP3    H228344   5.931   3.873   1.338  0.3721 -0.4670  1.1120
 2237TIP3   OH228345   3.106   6.363   8.902  0.4063  0.0071 -0.5211
 2237TIP3    H128346   3.198   6.343   8.921  0.4026  0.9805  0.5828
 2237TIP3    H228347   3.061   6.280   8.918  1.0174 -0.3527 -0.5977
 2238TIP3   OH228348   4.718   0.834   7.855  0.6763  0.1123  0.0542
 2238TIP3    H128349   4.698   0.792   7.772  1.1212 -0.0381  0.0207
 2238TIP3    H228350   4.697   0.768   7.921  0.0841  0.3173  0.0858
 2239TIP3   OH228351   1.465   1.498   1.326 -0.1336  0.2623  0.4922
 2239TIP3    H128352   1.502   1.435   1.263  1.1613  1.7626 -0.3145
 2239TIP3    H228353   1.433   1.570   1.272  0.5466  1.3609  1.5144
 2240TIP3   OH228354   0.697   6.770   2.000 -0.2662 -0.2237 -0.0532
 2240TIP3    H128355   0.709   6.813   1.915  0.0957  0.0851  0.1530
 2240TIP3    H228356   0.758   6.815   2.059 -1.2992  0.2998  0.6322
 2241TIP3   OH228357   3.222   4.752   2.033  0.3699  0.0632 -0.6392
 2241TIP3    H128358   3.190   4.691   2.099  0.4671 -0.8107 -1.3833
 2241TIP3    H228359   3.262   4.823   2.083  0.5052 -0.6150  0.2333
 2242TIP3   OH228360   2.579   3.562   2.124  0.1320  0.4187 -0.8711
 2242TIP3    H128361   2.595   3.654   2.148 -0.0505  0.1755  0.2403
 2242TIP3    H228362   2.664   3.520   2.130 -0.1301  0.0593  0.7861
 2243TIP3   OH228363   5.524   5.975   0.972  0.2811  0.2833  1.1805
 2243TIP3    H128364   5.442   6.024   0.969 -0.3160 -0.7139  0.8666
 2243TIP3    H228365   5.506   5.902   1.031 -0.3212 -2.1432 -1.7997
 2244TIP3   OH228366   5.746   2.980   1.253  0.7319 -0.2673  0.3167
 2244TIP3    H128367   5.736   3.057   1.198 -1.1622 -0.3561  0.4720
 2244TIP3    H228368   5.770   2.910   1.193  0.2389 -0.0289 -0.1658
 2245TIP3   OH228369   6.669   0.179   8.755  0.6190 -0.6900 -0.0884
 2245TIP3    H128370   6.753   0.206   8.718  0.9462  0.3094  1.2889
 2245TIP3    H228371   6.686   0.092   8.792  1.0248 -0.5306  0.1060
 2246TIP3   OH228372   4.235   3.541   1.349 -0.3335  0.0461  0.0165
 2246TIP3    H128373   4.266   3.462   1.305 -1.4925 -2.0915  2.7411
 2246TIP3    H228374   4.281   3.542   1.433 -1.9938  0.9859  0.9785
 2247TIP3   OH228375   6.408   3.114   0.321 -0.4206  0.4322 -0.1230
 2247TIP3    H128376   6.332   3.102   0.264 -1.0650  2.2258  0.3048
 2247TIP3    H228377   6.451   3.028   0.322 -2.3842 -0.6009 -0.4378
 2248TIP3   OH228378   1.793   5.105   8.626 -0.2382  0.5446  0.1794
 2248TIP3    H128379   1.825   5.015   8.621  0.6705  0.8632  0.0736
 2248TIP3    H228380   1.743   5.109   8.707  0.3075  0.1264  0.5395
 2249TIP3   OH228381   0.744   0.124   1.214  0.8340 -0.5210  0.0845
 2249TIP3    H128382   0.767   0.216   1.226  1.0924 -0.5496 -0.1900
 2249TIP3    H228383   0.781   0.081   1.291 -0.9894 -0.1137  1.2386
 2250TIP3   OH228384   4.332   6.604   0.977  0.4775  0.0341 -0.3923
 2250TIP3    H128385   4.418   6.647   0.976  1.2425 -1.4071 -1.5846
 2250TIP3    H228386   4.284   6.646   0.905  1.0478 -0.7035 -1.2355
 2251TIP3   OH228387   1.059   5.740   1.496  0.2456 -0.4182  0.2399
 2251TIP3    H128388   1.018   5.823   1.521 -1.9385 -0.8048 -1.7505
 2251TIP3    H228389   1.131   5.766   1.438 -0.1810  0.1019 -0.0692
 2252TIP3   OH228390   3.146   5.915   8.135 -0.5764  0.1677  0.0493
 2252TIP3    H128391   3.147   5.825   8.167 -0.5820  0.7959  1.9032
 2252TIP3    H228392   3.159   5.906   8.040  0.0855 -1.7377  0.2651
 2253TIP3   OH228393   3.597   5.977   8.517 -0.2180  0.5075  0.2773
 2253TIP3    H128394   3.522   6.032   8.539  0.4150  1.7772 -0.6737
 2253TIP3    H228395   3.559   5.891   8.499 -1.2125  0.5791  1.8303
 2254TIP3   OH228396   3.481   5.058   8.583 -0.6634  0.1189 -0.1112
 2254TIP3    H128397   3.569   5.085   8.611  0.8626 -2.6795 -1.7194
 2254TIP3    H228398   3.434   5.041   8.665  1.9810 -2.9766  0.9956
 2255TIP3   OH228399   5.569   6.015   2.184 -0.1265  0.2341 -0.6110
 2255TIP3    H128400   5.600   5.964   2.108 -0.8358 -3.0912  1.1137
 2255TIP3    H228401   5.647   6.062   2.214  0.9677 -0.8243 -1.6413
 2256TIP3   OH228402   0.983   0.166   7.424 -0.1401 -0.0091  0.5627
 2256TIP3    H128403   1.026   0.125   7.349 -1.0348  0.3646 -0.1875
 2256TIP3    H228404   1.050   0.170   7.492  1.6185  2.1418 -1.1133
 2257TIP3   OH228405   4.398   6.559   0.450  0.1484  0.5808 -0.5653
 2257TIP3    H128406   4.452   6.495   0.406  1.3438  1.6764 -0.7525
 2257TIP3    H228407   4.460   6.622   0.487 -0.9611  1.4087 -0.0439
 2258TIP3   OH228408   4.321   2.240   7.315  0.0740  0.2392 -0.2616
 2258TIP3    H128409   4.298   2.177   7.248  0.0294  0.6702 -0.6584
 2258TIP3    H228410   4.247   2.300   7.319 -0.5287 -0.5466  1.1270
 2259TIP3   OH228411   3.644   5.223   2.231  0.2383 -0.3493  0.0997
 2259TIP3    H128412   3.556   5.257   2.214  0.5965  0.7053  0.2947
 2259TIP3    H228413   3.678   5.201   2.144  0.4028  0.8509 -0.1676
 2260TIP3   OH228414   2.518   4.290   8.460 -0.8859  0.3413 -0.5164
 2260TIP3    H128415   2.486   4.305   8.371  0.2761  0.4154 -0.9421
 2260TIP3    H228416   2.559   4.373   8.485 -2.0777  0.6574  0.4923
 2261TIP3   OH228417   5.981   5.127   7.696 -0.1885 -0.1999  0.5055
 2261TIP3    H128418   5.988   5.197   7.631 -0.3874 -1.7442 -1.2345
 2261TIP3    H228419   6.054   5.068   7.676 -0.2669 -0.7198  1.6875
 2262TIP3   OH228420   6.749   4.939   1.329 -0.2598 -0.0218  0.2445
 2262TIP3    H128421   6.770   4.977   1.414 -0.3413 -1.1195  0.7576
 2262TIP3    H228422   6.835   4.919   1.290 -0.2420 -1.8176  1.1270
 2263TIP3   OH228423   5.937   0.707   1.656  0.3021  0.2057  0.0272
 2263TIP3    H128424   5.935   0.765   1.732 -1.9503 -0.0183  0.1981
 2263TIP3    H228425   5.848   0.709   1.621  0.5211 -1.9709 -0.8552
 2264TIP3   OH228426   5.493   4.175   0.275  0.6014 -0.2626 -0.0200
 2264TIP3    H128427   5.480   4.268   0.291  1.4503  0.0045 -0.7524
 2264TIP3    H228428   5.410   4.144   0.239  0.1525  0.0916  0.6923
 2265TIP3   OH228429   5.374   6.130   1.292  0.9800 -0.0008 -0.4318
 2265TIP3    H128430   5.379   6.035   1.302 -1.1685 -0.0749  0.3285
 2265TIP3    H228431   5.387   6.164   1.381 -1.8017  0.1758 -0.0044
 2266TIP3   OH228432   0.554   4.565   1.816  0.4203  0.3444  0.2381
 2266TIP3    H128433   0.589   4.593   1.900 -0.0243  0.2056  0.4658
 2266TIP3    H228434   0.465   4.535   1.834  0.7234 -0.8114 -0.0698
 2267TIP3   OH228435   0.031   6.306   7.441 -0.0248 -0.2848  0.3721
 2267TIP3    H128436   0.062   6.355   7.365 -0.1662 -1.2568 -0.3378
 2267TIP3    H228437  -0.064   6.300   7.429 -0.2614  0.9189  1.4690
 2268TIP3   OH228438   2.108   6.742   8.024  0.2843  0.3662 -0.1155
 2268TIP3    H128439   2.092   6.681   7.953  0.1447 -0.2233  0.4118
 2268TIP3    H228440   2.200   6.768   8.013  1.6789 -3.0058  1.8985
 2269TIP3   OH228441   4.420   1.709   8.151 -0.2141 -0.1449  0.0167
 2269TIP3    H128442   4.389   1.733   8.064 -0.6392 -0.4540  0.0838
 2269TIP3    H228443   4.358   1.644   8.183 -0.8655  0.9712  1.1192
 2270TIP3   OH228444   6.651   3.481   1.249  0.3090 -0.2272  0.5783
 2270TIP3    H128445   6.676   3.502   1.340 -2.7652 -0.1233  1.5081
 2270TIP3    H228446   6.628   3.388   1.252  1.1926 -0.4873 -0.3779
 2271TIP3   OH228447   2.592   0.724   7.309 -0.0353 -0.4743  0.2900
 2271TIP3    H128448   2.621   0.635   7.288  1.0493  0.1479 -1.0612
 2271TIP3    H228449   2.575   0.764   7.224  0.9840  1.0785  0.7708
 2272TIP3   OH228450   0.217   3.400   7.343  0.3855  0.2133 -0.1155
 2272TIP3    H128451   0.217   3.487   7.301 -1.8305 -1.2567 -3.5999
 2272TIP3    H228452   0.143   3.403   7.404 -0.5930  0.4099 -1.2695
 2273TIP3   OH228453   1.365   3.931   0.133  1.1883  0.1934 -0.3119
 2273TIP3    H128454   1.420   3.898   0.062  1.7104  1.5988 -0.5927
 2273TIP3    H228455   1.425   3.940   0.207  0.6946 -1.0401  0.2726
 2274TIP3   OH228456   2.690   3.687   8.308 -0.3206 -0.2732 -0.5729
 2274TIP3    H128457   2.740   3.768   8.299  0.2345 -0.6256 -0.7213
 2274TIP3    H228458   2.672   3.660   8.218 -1.4150  0.2331 -0.5149
 2275TIP3   OH228459   4.634   1.789   2.309 -0.0768  0.1481  0.0297
 2275TIP3    H128460   4.540   1.800   2.321 -0.3424 -1.9826  0.2898
 2275TIP3    H228461   4.642   1.718   2.245  1.3122 -1.3242  1.7468
 2276TIP3   OH228462   1.914   5.911   0.915 -0.0737  0.2972 -0.0721
 2276TIP3    H128463   1.901   6.001   0.946  1.4916  0.8881 -1.0121
 2276TIP3    H228464   1.995   5.915   0.864 -1.5557 -0.9565 -2.7723
 2277TIP3   OH228465   4.255   4.372   7.869  0.1680 -0.3509  0.3857
 2277TIP3    H128466   4.212   4.456   7.880 -1.2095 -0.9853  0.0735
 2277TIP3    H228467   4.202   4.326   7.803  0.9108 -1.4400  0.5150
 2278TIP3   OH228468   6.602   0.260   1.307 -0.6300  0.0981 -0.4607
 2278TIP3    H128469   6.671   0.239   1.244  1.6915  4.1682  0.3599
 2278TIP3    H228470   6.608   0.191   1.373 -0.1415 -1.8322 -2.3973
 2279TIP3   OH228471   5.503   1.822   0.408  0.0592  0.0219 -0.1807
 2279TIP3    H128472   5.419   1.836   0.364 -0.5738 -2.0287  0.2514
 2279TIP3    H228473   5.480   1.813   0.501  0.9869  1.1097  0.1779
 2280TIP3   OH228474   0.695   3.940   0.672 -0.4613  0.5546  0.0440
 2280TIP3    H128475   0.639   3.901   0.739  0.4845  0.3355  0.7271
 2280TIP3    H228476   0.748   3.868   0.640  0.3735  1.0032  0.3774
 2281TIP3   OH228477   5.333   6.455   0.150  0.5035  0.3352  0.1162
 2281TIP3    H128478   5.367   6.421   0.233 -0.6579  1.1105  0.9379
 2281TIP3    H228479   5.389   6.414   0.083  0.6979 -1.2593  1.1899
 2282TIP3   OH228480   4.134   4.735   0.994  0.5479 -0.2595 -0.6218
 2282TIP3    H128481   4.186   4.655   0.998 -0.5532 -0.9679  3.0385
 2282TIP3    H228482   4.197   4.805   1.007  1.1143 -0.7999 -0.4186
 2283TIP3   OH228483   2.044   4.695   2.695  0.4911 -0.5726  0.6230
 2283TIP3    H128484   2.032   4.749   2.773 -0.3081 -0.3380  0.3492
 2283TIP3    H228485   2.080   4.754   2.630  1.8038 -0.9247  0.9942
 2284TIP3   OH228486   0.516   2.022   2.390  0.1038  0.6887  0.4951
 2284TIP3    H128487   0.526   1.984   2.477 -1.4959  0.0325  0.4282
 2284TIP3    H228488   0.567   1.964   2.333 -0.2868  0.0681  0.7608
 2285TIP3   OH228489   0.998   2.785   1.805  0.3462 -0.0255 -0.3149
 2285TIP3    H128490   1.019   2.762   1.714 -1.3582  1.1847 -1.0725
 2285TIP3    H228491   0.947   2.710   1.836  0.4936 -0.2160 -0.5255
 2286TIP3   OH228492   5.078   5.097   1.485  0.4981 -0.2373 -0.0390
 2286TIP3    H128493   5.090   5.121   1.577 -2.3932  0.6924  0.1895
 2286TIP3    H228494   5.034   5.012   1.487  0.6646 -0.3420 -0.5812
 2287TIP3   OH228495   1.997   6.492   2.223  0.1679  0.4576 -0.1190
 2287TIP3    H128496   2.090   6.472   2.236 -0.0768 -0.2214  0.7174
 2287TIP3    H228497   1.995   6.548   2.146  1.2036 -0.1257 -0.5981
 2288TIP3   OH228498   4.648   0.934   1.711  0.2519 -0.2257  0.4222
 2288TIP3    H128499   4.726   0.890   1.678  0.4515 -1.9755  2.9593
 2288TIP3    H228500   4.665   0.948   1.804  0.0393  5.1751 -0.0574
 2289TIP3   OH228501   0.744   2.735   7.188  0.6677 -0.5127 -0.6369
 2289TIP3    H128502   0.682   2.721   7.260  0.6154 -3.3376 -1.0960
 2289TIP3    H228503   0.690   2.756   7.112  0.6201  1.0214 -0.2061
 2290TIP3   OH228504   6.163   4.614   7.589 -0.3147  0.8278 -0.3292
 2290TIP3    H128505   6.182   4.568   7.671  1.4907  0.5022 -0.8863
 2290TIP3    H228506   6.069   4.632   7.593 -0.3827  0.3004  1.5367
 2291TIP3   OH228507   6.492   0.184   8.046 -0.0684 -0.1833 -0.1742
 2291TIP3    H128508   6.397   0.187   8.038  0.0350  0.9366 -1.2321
 2291TIP3    H228509   6.514   0.261   8.100  0.2042 -0.8142  0.6441
 2292TIP3   OH228510   6.707   2.267   8.060  0.0845  0.3429 -0.3381
 2292TIP3    H128511   6.619   2.283   8.094  0.1707 -1.1790  0.6952
 2292TIP3    H228512   6.745   2.204   8.121  1.8642  0.8856 -0.8330
 2293TIP3   OH228513   6.638   2.198   0.620 -0.5507 -0.0311 -0.0423
 2293TIP3    H128514   6.705   2.181   0.554 -0.6096 -1.3536  0.2034
 2293TIP3    H228515   6.591   2.274   0.588 -0.8763 -0.9055 -1.7721
 2294TIP3   OH228516   6.011   0.068   7.246 -0.2976  0.0309  0.4658
 2294TIP3    H128517   5.980   0.150   7.208 -0.8999 -0.4643 -0.1356
 2294TIP3    H228518   5.933   0.028   7.285 -0.3015 -0.9121 -0.4708
 2295TIP3   OH228519   5.388   1.612   0.222  0.4145  0.3092  0.4488
 2295TIP3    H128520   5.390   1.558   0.301  1.2096  0.6898  0.6939
 2295TIP3    H228521   5.332   1.687   0.246 -1.1123 -0.6230 -0.0561
 2296TIP3   OH228522   1.531   4.749   8.420 -0.0826  0.4262 -0.2844
 2296TIP3    H128523   1.616   4.724   8.383  0.3165 -1.4241  1.6685
 2296TIP3    H228524   1.553   4.783   8.508 -1.2821  1.0665 -0.2112
 2297TIP3   OH228525   4.228   6.766   6.870  0.4240  0.7973  0.8795
 2297TIP3    H128526   4.297   6.706   6.844  0.3260  1.0100  0.1093
 2297TIP3    H228527   4.153   6.742   6.815  0.0281  0.8700  1.3806
 2298TIP3   OH228528   2.454   3.301   2.209 -0.1169  0.1185  0.6889
 2298TIP3    H128529   2.372   3.346   2.190  1.5193  3.2200  0.2065
 2298TIP3    H228530   2.507   3.368   2.254  2.6639 -1.2429 -0.3552
 2299TIP3   OH228531   3.788   6.682   8.253  0.3670 -0.0221  0.2221
 2299TIP3    H128532   3.796   6.732   8.335  0.0805  1.6893 -0.7530
 2299TIP3    H228533   3.841   6.603   8.268  0.9437  0.6188  1.7734
 2300TIP3   OH228534   5.014   4.837   1.460  0.4851  0.3501  0.7199
 2300TIP3    H128535   5.034   4.795   1.543  0.8869  0.1260  0.5150
 2300TIP3    H228536   5.100   4.850   1.419  0.2587 -0.0113  0.1200
 2301TIP3   OH228537   3.241   3.416   1.025  0.0708 -0.7696  0.1406
 2301TIP3    H128538   3.329   3.452   1.015  0.3829 -0.1813  3.6367
 2301TIP3    H228539   3.252   3.322   1.013  0.9863 -0.6161 -0.3269
 2302TIP3   OH228540   4.385   0.874   7.316 -0.4491 -0.0192 -0.2346
 2302TIP3    H128541   4.399   0.853   7.224 -1.5929 -0.1657 -0.3798
 2302TIP3    H228542   4.370   0.790   7.358  2.3458 -0.2309  0.5424
 2303TIP3   OH228543   3.588   1.274   8.934 -0.1859 -0.4438  0.3516
 2303TIP3    H128544   3.647   1.217   8.984 -0.4487 -1.7746 -0.8241
 2303TIP3    H228545   3.611   1.363   8.963  1.0415 -1.0559  1.3423
 2304TIP3   OH228546   4.513   3.851   8.879 -0.2564  0.5587 -0.3951
 2304TIP3    H128547   4.536   3.847   8.786 -1.6745  1.5769 -0.8183
 2304TIP3    H228548   4.456   3.927   8.886 -3.3211 -1.6358  0.5686
 2305TIP3   OH228549   1.920   5.083   0.233 -0.1491 -0.3498  0.2774
 2305TIP3    H128550   1.988   5.051   0.292  0.2339 -1.5617 -0.7820
 2305TIP3    H228551   1.906   5.012   0.171 -2.1911 -0.0077  0.2899
 2306TIP3   OH228552   6.156   1.101   7.617  0.2663 -0.1845  0.4934
 2306TIP3    H128553   6.206   1.097   7.536 -0.5328 -1.0864  0.0191
 2306TIP3    H228554   6.220   1.125   7.684  1.3463 -1.3015 -0.0956
 2307TIP3   OH228555   3.722   3.233   0.733 -0.3126 -0.3435  0.2496
 2307TIP3    H128556   3.718   3.305   0.796 -0.6603  1.5094 -1.8063
 2307TIP3    H228557   3.804   3.188   0.755  0.3136  1.1240  1.1218
 2308TIP3   OH228558   1.107   1.927   0.300 -0.0964  0.5073  0.2007
 2308TIP3    H128559   1.181   1.970   0.343  1.6636 -0.9828 -1.1737
 2308TIP3    H228560   1.085   1.985   0.227  1.1157 -0.0173 -0.6107
 2309TIP3   OH228561   2.054   5.925   8.427  0.5551  0.0075 -0.5983
 2309TIP3    H128562   2.132   5.940   8.480  0.1084  1.5483 -0.3406
 2309TIP3    H228563   2.068   5.976   8.347  0.7891 -1.5172 -1.5824
 2310TIP3   OH228564   6.658   0.797   0.509 -0.1451  0.0077  0.1610
 2310TIP3    H128565   6.631   0.770   0.596 -2.7732 -1.2850 -0.9622
 2310TIP3    H228566   6.614   0.881   0.495  1.8148  1.2109  0.7069
 2311TIP3   OH228567   6.435   5.638   1.168  0.1579 -0.1320  0.1976
 2311TIP3    H128568   6.364   5.579   1.192 -0.1373  0.8245  1.8373
 2311TIP3    H228569   6.484   5.651   1.249  1.6928 -0.0794 -0.7089
 2312TIP3   OH228570   1.935   3.471   8.172 -0.2124 -0.0340 -0.4040
 2312TIP3    H128571   1.891   3.407   8.116 -2.0777  0.9432 -0.1450
 2312TIP3    H228572   1.925   3.554   8.125  1.3343  0.2344 -0.2885
 2313TIP3   OH228573   1.930   4.241   0.458 -1.0371 -0.1199  0.4268
 2313TIP3    H128574   1.947   4.149   0.435 -0.4175  0.1305 -0.1408
 2313TIP3    H228575   1.945   4.289   0.377 -0.4538  0.5974  0.9509
 2314TIP3   OH228576   5.038   6.705   7.398  0.2386  0.5927  0.3268
 2314TIP3    H128577   4.955   6.749   7.415  0.2802  0.2862  1.4526
 2314TIP3    H228578   5.054   6.654   7.478  1.2200  0.2013 -0.1087
 2315TIP3   OH228579   6.450   1.443   0.006 -0.1808 -0.3398 -0.1720
 2315TIP3    H128580   6.426   1.471   0.094  1.0181 -0.4386  0.2093
 2315TIP3    H228581   6.367   1.423  -0.037 -0.7953 -0.0328  0.8450
 2316TIP3   OH228582   5.927   5.860   2.125  0.6978 -0.2717  0.3675
 2316TIP3    H128583   5.988   5.819   2.186 -1.8773 -1.7213  2.1622
 2316TIP3    H228584   5.901   5.941   2.168 -0.5355 -0.9175  0.8771
 2317TIP3   OH228585   2.199   0.504   2.170 -0.1085  0.0280 -0.3517
 2317TIP3    H128586   2.220   0.533   2.081  0.2898  0.9779  0.0375
 2317TIP3    H228587   2.268   0.543   2.224 -0.8246  0.1635  0.4849
 2318TIP3   OH228588   2.848   5.527   2.613  0.0742 -0.0282 -0.2035
 2318TIP3    H128589   2.836   5.606   2.667 -0.3287 -0.4322  0.3158
 2318TIP3    H228590   2.942   5.524   2.596  0.4613 -0.6644  1.7292
 2319TIP3   OH228591   4.757   1.195   0.671  0.1922  0.1414  0.1659
 2319TIP3    H128592   4.766   1.289   0.685  0.1021  0.3001 -0.7808
 2319TIP3    H228593   4.668   1.184   0.639 -0.3081 -0.4540  1.6744
 2320TIP3   OH228594   3.512   0.492   7.201 -0.3090  0.3599 -0.2785
 2320TIP3    H128595   3.499   0.481   7.107 -2.4294  0.9856 -0.1162
 2320TIP3    H228596   3.457   0.424   7.241 -0.1878  0.7197  0.5213
 2321TIP3   OH228597   5.633   2.648   7.045  0.1476  0.2730  0.1059
 2321TIP3    H128598   5.718   2.670   7.082  0.9176 -1.4477 -0.5408
 2321TIP3    H228599   5.652   2.617   6.956 -1.4962  2.9035 -1.3164
 2322TIP3   OH228600   2.582   6.771   2.517 -0.4814 -0.3096  0.1660
 2322TIP3    H128601   2.619   6.721   2.589  0.4835  1.5269  1.0300
 2322TIP3    H228602   2.496   6.798   2.548  0.7263  2.2440  1.6300
 2323TIP3   OH228603   3.044   4.517   0.677  0.4293 -0.7703 -0.1816
 2323TIP3    H128604   3.066   4.427   0.704  0.2168 -1.0876 -1.0523
 2323TIP3    H228605   2.980   4.506   0.607  0.1130  0.0766 -0.0311
 2324TIP3   OH228606   0.237   4.474   7.321 -0.2844 -0.0440  0.2816
 2324TIP3    H128607   0.312   4.457   7.378 -0.4421 -0.3017  0.4163
 2324TIP3    H228608   0.239   4.568   7.306  1.0629 -0.2442 -1.0948
 2325TIP3   OH228609   0.446   0.222   7.371  0.2706  0.1776 -0.5919
 2325TIP3    H128610   0.452   0.253   7.280 -2.0938  0.9782 -0.5453
 2325TIP3    H228611   0.364   0.259   7.403 -0.0810 -1.9419  1.1547
 2326TIP3   OH228612   1.536   3.243   1.794  0.0459 -0.2199 -0.0628
 2326TIP3    H128613   1.564   3.320   1.844  0.1093 -0.6042  0.5024
 2326TIP3    H228614   1.608   3.181   1.803 -0.2739 -0.5826  0.0160
 2327TIP3   OH228615   6.774   1.713   0.194 -0.4060 -0.2593  0.0641
 2327TIP3    H128616   6.842   1.722   0.127  0.6448 -1.7860  0.8696
 2327TIP3    H228617   6.822   1.692   0.274 -1.6492  1.3384  1.3056
 2328TIP3   OH228618   2.143   0.116   1.296  0.0732  0.3706  0.0079
 2328TIP3    H128619   2.121   0.201   1.334  0.2791  0.1716  0.5932
 2328TIP3    H228620   2.183   0.137   1.212  0.4283  0.8757  0.2938
 2329TIP3   OH228621   6.080   0.086   8.438  0.0919  0.2643 -0.1272
 2329TIP3    H128622   6.073   0.046   8.524  0.5764 -1.3517 -0.8095
 2329TIP3    H228623   6.172   0.076   8.413  0.7282  3.4755  0.4014
 2330TIP3   OH228624   6.353   2.356   7.623  0.5124 -0.0717 -0.3047
 2330TIP3    H128625   6.418   2.298   7.582 -0.6825 -0.9414 -1.0654
 2330TIP3    H228626   6.295   2.380   7.551 -1.6610 -1.6357  0.7967
 2331TIP3   OH228627   6.121   3.852   2.287  0.3756 -0.2765 -0.0366
 2331TIP3    H128628   6.179   3.797   2.234  0.3776 -1.0292  0.7262
 2331TIP3    H228629   6.168   3.934   2.297 -0.2967  0.4868 -2.5226
 2332TIP3   OH228630   3.153   4.706   8.530  0.1704  0.1402  0.0100
 2332TIP3    H128631   3.121   4.722   8.619  0.3008 -0.3070  0.1390
 2332TIP3    H228632   3.248   4.696   8.541  0.2600  0.6347 -0.2574
 2333TIP3   OH228633   2.989   0.244   8.671 -0.2810  0.8759  0.0683
 2333TIP3    H128634   2.966   0.252   8.578 -0.2350  1.9887  0.1416
 2333TIP3    H228635   2.910   0.208   8.712  0.8526 -3.3664 -0.9155
 2334TIP3   OH228636   1.459   0.679   1.380 -0.3346  0.2921  0.1196
 2334TIP3    H128637   1.415   0.723   1.453 -1.6862  3.3896 -2.3150
 2334TIP3    H228638   1.394   0.619   1.346 -0.4027  0.2627  0.2995
 2335TIP3   OH228639   5.327   1.777   0.994 -0.7239 -0.0903  0.0086
 2335TIP3    H128640   5.234   1.759   0.999 -0.6736 -1.1774 -1.8630
 2335TIP3    H228641   5.333   1.863   0.952 -0.8614  0.7376  1.6058
 2336TIP3   OH228642   0.440   1.807   0.001  0.3091 -0.0443  0.2050
 2336TIP3    H128643   0.497   1.826  -0.074  0.7714 -0.1686  0.5154
 2336TIP3    H228644   0.475   1.861   0.071 -0.2024  0.1670  0.2970
 2337TIP3   OH228645   5.439   2.366   8.415 -0.1463  0.7870 -0.2762
 2337TIP3    H128646   5.513   2.328   8.368  0.8072  2.6073 -0.3543
 2337TIP3    H228647   5.471   2.379   8.504 -1.3178 -0.8984  0.4353
 2338TIP3   OH228648   3.236   1.308   1.929 -0.0400  0.2003 -0.1260
 2338TIP3    H128649   3.307   1.342   1.875 -1.0687  0.7723 -1.1585
 2338TIP3    H228650   3.225   1.374   1.998  0.7928 -0.1788  0.3930
 2339TIP3   OH228651   3.764   4.003   2.160 -0.1037 -0.0261 -0.0369
 2339TIP3    H128652   3.820   4.020   2.085 -2.0381 -0.4875 -1.6656
 2339TIP3    H228653   3.750   3.908   2.160 -1.5064  0.1542 -0.1852
 2340TIP3   OH228654   5.835   1.986   7.613  0.3460 -0.4968  0.1963
 2340TIP3    H128655   5.798   1.953   7.531 -1.1535  0.7200  0.3452
 2340TIP3    H228656   5.817   1.917   7.677 -0.3441 -0.5676 -0.0675
 2341TIP3   OH228657   4.004   5.008   1.799  0.2023 -0.2656  0.5647
 2341TIP3    H128658   3.981   5.096   1.828  2.1635  0.0140  1.4535
 2341TIP3    H228659   4.030   4.962   1.879  2.7965 -0.4403 -0.2735
 2342TIP3   OH228660   5.676   3.736   2.026  0.5429 -0.4989  0.1519
 2342TIP3    H128661   5.766   3.708   2.043  0.3464 -0.5458  1.1861
 2342TIP3    H228662   5.682   3.830   2.011  0.5657 -0.1521  2.0822
 2343TIP3   OH228663   5.382   5.569   7.319 -0.3709  0.5662  0.3874
 2343TIP3    H128664   5.357   5.587   7.410 -0.2071  1.0079  0.3489
 2343TIP3    H228665   5.302   5.587   7.269 -0.2653  0.9990  0.3713
 2344TIP3   OH228666   4.514   5.744   0.349 -0.0200  0.3376  0.3767
 2344TIP3    H128667   4.514   5.739   0.254 -0.5206 -1.4089  0.4301
 2344TIP3    H228668   4.553   5.661   0.377  0.7774  1.1260  1.6914
 2345TIP3   OH228669   3.995   5.497   6.420  0.2892 -0.2849 -0.2768
 2345TIP3    H128670   4.090   5.508   6.410  0.5597 -1.5732  0.5815
 2345TIP3    H228671   3.978   5.515   6.512 -0.1968 -0.7018 -0.2808
 2346TIP3   OH228672   0.952   3.517   0.252  0.5371  0.4837 -0.1777
 2346TIP3    H128673   0.947   3.436   0.201  1.7981 -0.4516  1.0859
 2346TIP3    H228674   0.996   3.579   0.194 -2.2361  0.9823 -1.9264
 2347TIP3   OH228675   3.683   2.396   1.742 -0.4767 -0.3806  0.8325
 2347TIP3    H128676   3.740   2.471   1.725  0.1338 -0.8980  0.5475
 2347TIP3    H228677   3.607   2.433   1.787  0.9735  0.0594  3.0712
 2348TIP3   OH228678   6.703   5.231   8.128  0.0066 -0.7407 -0.0716
 2348TIP3    H128679   6.666   5.208   8.042  1.7063  0.5814 -1.2370
 2348TIP3    H228680   6.757   5.155   8.150  1.8374  0.0134 -1.6254
 2349TIP3   OH228681   4.206   6.497   8.065 -0.7921 -0.8842  0.1616
 2349TIP3    H128682   4.129   6.445   8.040 -1.8027  0.4195  0.4217
 2349TIP3    H228683   4.220   6.477   8.157 -1.3205 -0.5255  0.3220
 2350TIP3   OH228684   3.935   2.753   1.891 -0.1032  0.1066 -0.0708
 2350TIP3    H128685   3.932   2.676   1.947 -1.9915 -0.3609 -0.7192
 2350TIP3    H228686   3.844   2.782   1.886  0.6644  3.0570  1.0286
 2351TIP3   OH228687   6.254   3.172   2.172  0.7550  0.3979  0.2775
 2351TIP3    H128688   6.344   3.151   2.147  0.5715  0.3484 -0.3485
 2351TIP3    H228689   6.200   3.129   2.106  0.3431  2.3386 -0.7303
 2352TIP3   OH228690   4.419   2.172   2.142 -0.0089  0.0566 -1.1178
 2352TIP3    H128691   4.336   2.157   2.187  1.0366  0.1133  0.9391
 2352TIP3    H228692   4.479   2.202   2.210  1.5942  0.5053 -2.6309
 2353TIP3   OH228693   3.650   2.871   7.974 -0.3743  0.0411  0.1403
 2353TIP3    H128694   3.645   2.867   7.878  0.4286  0.5913  0.0631
 2353TIP3    H228695   3.683   2.784   7.999  1.4824  0.5753 -0.2681
 2354TIP3   OH228696   1.602   4.239   0.215 -0.5513  0.7043  0.3127
 2354TIP3    H128697   1.692   4.260   0.190 -0.2917 -0.8729 -0.1623
 2354TIP3    H228698   1.553   4.318   0.194  0.5175  1.1564 -0.5978
 2355TIP3   OH228699   5.426   2.302   8.818 -0.7163 -0.1481 -0.1938
 2355TIP3    H128700   5.437   2.366   8.747  1.4286 -0.6252 -0.3757
 2355TIP3    H228701   5.478   2.227   8.790 -1.0912 -0.9495  1.1969
 2356TIP3   OH228702   5.345   3.741   8.470 -0.2735 -0.8413 -0.2623
 2356TIP3    H128703   5.277   3.688   8.512  0.3322 -0.9133  0.6405
 2356TIP3    H228704   5.408   3.759   8.539  0.5016 -0.5521 -1.0286
 2357TIP3   OH228705   0.034   0.948   0.340  0.0030 -0.0840  0.6345
 2357TIP3    H128706   0.023   1.035   0.380  1.0526  0.3758 -0.0321
 2357TIP3    H228707  -0.033   0.894   0.382 -0.8674  1.1153  0.8608
 2358TIP3   OH228708   4.447   4.481   6.416  0.2723  0.2012  0.7068
 2358TIP3    H128709   4.387   4.407   6.404 -0.1826  0.5211  0.9579
 2358TIP3    H228710   4.406   4.534   6.485  2.2620 -1.0422  3.0398
 2359TIP3   OH228711   4.917   2.373   0.837 -0.2256  0.4654 -0.2667
 2359TIP3    H128712   4.980   2.441   0.815  1.7881 -1.4468 -0.7705
 2359TIP3    H228713   4.832   2.411   0.816  0.7452  3.0062  0.0743
 2360TIP3   OH228714   3.510   1.910   7.475  0.2957  0.5988  0.8375
 2360TIP3    H128715   3.435   1.852   7.474  0.0180  0.8920  2.2752
 2360TIP3    H228716   3.497   1.969   7.400 -0.3021 -0.0796  0.4044
 2361TIP3   OH228717   2.691   6.391   0.778  0.3829 -0.2334  0.4131
 2361TIP3    H128718   2.661   6.395   0.687  0.1589  0.8655  0.5165
 2361TIP3    H228719   2.692   6.297   0.799  0.3621 -0.4965 -0.6872
 2362TIP3   OH228720   0.894   2.478   8.059  0.1311 -0.4329 -0.2951
 2362TIP3    H128721   0.854   2.539   7.998  1.0548  1.0085  0.4870
 2362TIP3    H228722   0.988   2.481   8.039  0.3789 -0.3507  0.7966
 2363TIP3   OH228723   5.133   3.390   0.249 -0.7463 -0.1521  0.4102
 2363TIP3    H128724   5.062   3.437   0.206  0.4586  1.6079  0.2206
 2363TIP3    H228725   5.169   3.453   0.311  0.9002 -0.8335  0.2057
 2364TIP3   OH228726   4.659   1.893   7.032 -0.0459 -0.3692 -0.5784
 2364TIP3    H128727   4.610   1.970   7.002  0.8755 -0.0768 -1.3767
 2364TIP3    H228728   4.750   1.922   7.034  0.2609 -1.3226 -0.4875
 2365TIP3   OH228729   4.134   6.579   8.480  0.2583  0.2187  0.0344
 2365TIP3    H128730   4.058   6.547   8.431 -0.2540  2.5168 -0.8409
 2365TIP3    H228731   4.117   6.673   8.491  2.5876  0.6471  0.5568
 2366TIP3   OH228732   4.416   3.608   7.928  0.0713  0.7704  0.1506
 2366TIP3    H128733   4.422   3.633   8.021 -0.9603 -1.9442  1.0414
 2366TIP3    H228734   4.507   3.598   7.901  0.4211 -1.4081  1.8498
 2367TIP3   OH228735   3.066   6.644   7.607 -0.7639 -0.6838 -0.3288
 2367TIP3    H128736   3.105   6.731   7.594 -0.9271 -0.3619  1.1289
 2367TIP3    H228737   3.127   6.584   7.565 -0.6550  0.1271 -1.3721
 2368TIP3   OH228738   1.997   3.732   1.532  0.0256 -0.2389 -0.3802
 2368TIP3    H128739   2.072   3.743   1.472  1.9894 -1.4346  1.7027
 2368TIP3    H228740   2.023   3.778   1.611 -1.5448 -0.5309  0.3345
 2369TIP3   OH228741   2.225   3.984   7.904 -0.7165  0.2601 -0.0856
 2369TIP3    H128742   2.238   3.904   7.955 -0.6599 -0.8893 -1.8159
 2369TIP3    H228743   2.254   3.961   7.816 -0.0829  2.4006 -0.5044
 2370TIP3   OH228744   5.918   3.035   8.457  0.4266 -0.4478  0.2184
 2370TIP3    H128745   5.873   3.109   8.415  1.2146  0.8064  1.5159
 2370TIP3    H228746   5.971   2.997   8.387 -1.2083 -0.8333 -0.8780
 2371TIP3   OH228747   2.615   2.207   7.872 -0.1385  0.4344  0.6098
 2371TIP3    H128748   2.584   2.242   7.956 -2.3262  0.4459 -0.1343
 2371TIP3    H228749   2.574   2.264   7.806 -0.8702 -1.3271 -0.5201
 2372TIP3   OH228750   1.707   5.352   1.222 -0.1037  0.0296  0.6246
 2372TIP3    H128751   1.725   5.354   1.316  0.3886 -0.9974  0.5689
 2372TIP3    H228752   1.729   5.440   1.192 -1.5371  0.7850  1.6685
 2373TIP3   OH228753   4.641   2.395   1.210 -0.3800 -0.3375 -0.3153
 2373TIP3    H128754   4.559   2.398   1.161  0.0428  1.2419 -0.9877
 2373TIP3    H228755   4.627   2.329   1.278 -2.6552  0.7610  0.3722
 2374TIP3   OH228756   0.349   2.534   1.661 -0.1217  0.2156  0.0510
 2374TIP3    H128757   0.428   2.517   1.610 -0.5031 -0.8005 -0.2271
 2374TIP3    H228758   0.302   2.451   1.660 -0.6805  0.5050  1.1160
 2375TIP3   OH228759   3.174   1.317   6.803 -0.3578 -0.1232  0.6500
 2375TIP3    H128760   3.229   1.394   6.787  1.3737 -1.1309  1.4844
 2375TIP3    H228761   3.100   1.328   6.744  0.8397  1.1836 -0.6865
 2376TIP3   OH228762   1.586   3.677   2.725 -0.1600 -0.2126 -0.3714
 2376TIP3    H128763   1.569   3.762   2.765  1.0219  0.7394 -1.7798
 2376TIP3    H228764   1.631   3.697   2.643 -0.4126 -2.1785 -1.0576
 2377TIP3   OH228765   5.206   4.107   7.887 -1.1351  0.2626  0.2446
 2377TIP3    H128766   5.162   4.024   7.902 -2.4947  0.7968 -0.6884
 2377TIP3    H228767   5.299   4.086   7.897 -1.3636 -1.5933 -1.0249
 2378TIP3   OH228768   4.613   1.317   7.352 -1.0666 -0.1523 -0.1609
 2378TIP3    H128769   4.532   1.303   7.401  0.0308 -0.9210  1.5834
 2378TIP3    H228770   4.659   1.386   7.401  0.3246 -1.3437  0.2973
 2379TIP3   OH228771   1.494   5.411   1.438 -0.5852 -0.5203 -0.1104
 2379TIP3    H128772   1.433   5.367   1.498 -1.5737  1.6546  0.6074
 2379TIP3    H228773   1.444   5.420   1.357 -0.4764 -0.5052 -0.1750
 2380TIP3   OH228774   1.892   5.171   8.383 -0.0813  0.4979 -0.0584
 2380TIP3    H128775   1.845   5.167   8.467 -3.3532  0.0853 -1.7532
 2380TIP3    H228776   1.888   5.081   8.350  1.8349  0.4998 -0.3730
 2381TIP3   OH228777   3.990   6.008   2.067  0.3348  0.1207 -0.3069
 2381TIP3    H128778   3.936   6.074   2.023 -0.5099 -0.6680 -0.4991
 2381TIP3    H228779   3.934   5.975   2.137  0.2463 -1.2783 -1.0088
 2382TIP3   OH228780   6.610   5.153   2.994  0.6303 -0.4799  0.2044
 2382TIP3    H128781   6.627   5.087   2.928 -0.7441  0.6585 -1.3722
 2382TIP3    H228782   6.645   5.234   2.958 -2.4619  0.7199 -0.4928
 2383TIP3   OH228783   5.240   4.446   8.080  0.1446 -0.3308  0.3263
 2383TIP3    H128784   5.316   4.465   8.136 -0.3418  2.0512  0.2930
 2383TIP3    H228785   5.177   4.404   8.138  0.9973 -1.2062  0.6504
 2384TIP3   OH228786   6.178   4.277   1.459 -0.1764 -0.1263 -0.7363
 2384TIP3    H128787   6.233   4.266   1.381 -0.1301  1.7009 -0.9996
 2384TIP3    H228788   6.111   4.339   1.433 -0.9971 -0.5530  0.2884
 2385TIP3   OH228789   6.198   5.502   7.384 -0.0434 -0.0863  0.3831
 2385TIP3    H128790   6.244   5.579   7.349 -1.6173 -0.4916 -2.9828
 2385TIP3    H228791   6.123   5.538   7.432 -0.1016  0.4912 -0.1334
 2386TIP3   OH228792   6.473   5.807   0.168 -0.3051  0.2974  0.1667
 2386TIP3    H128793   6.553   5.801   0.115 -0.6390  0.3165 -0.3445
 2386TIP3    H228794   6.505   5.825   0.256  0.3912 -1.9301  0.4442
 2387TIP3   OH228795   1.273   0.324   8.443 -0.3981  0.2485 -0.6615
 2387TIP3    H128796   1.261   0.296   8.534 -1.6313  1.4569 -0.4147
 2387TIP3    H228797   1.255   0.246   8.391 -0.9908 -0.1294  0.0907
 2388TIP3   OH228798   4.083   2.870   0.175  0.1933 -0.5860 -0.2647
 2388TIP3    H128799   4.087   2.960   0.209  0.8094 -0.3773 -0.8720
 2388TIP3    H228800   4.109   2.815   0.248 -0.4242 -0.2942  0.1867
 2389TIP3   OH228801   6.241   3.707   8.740 -0.0999 -0.1955 -0.2919
 2389TIP3    H128802   6.302   3.772   8.774  0.7342 -0.8605 -0.4971
 2389TIP3    H228803   6.166   3.711   8.799  1.5795 -1.8301  2.1207
 2390TIP3   OH228804   1.956   1.319   7.983 -0.3531  0.8834 -0.7083
 2390TIP3    H128805   1.865   1.292   7.974  0.0871  0.0812 -4.7455
 2390TIP3    H228806   1.957   1.411   7.958 -0.0279  0.7029 -1.4070
 2391TIP3   OH228807   4.042   4.237   1.222 -0.0667  0.0901 -0.6349
 2391TIP3    H128808   4.108   4.302   1.243 -0.5311  0.9524 -1.7701
 2391TIP3    H228809   3.974   4.285   1.176  0.2080 -1.3972 -2.7482
 2392TIP3   OH228810   1.461   4.894   7.883 -0.0176 -0.5739  0.1974
 2392TIP3    H128811   1.376   4.861   7.911  0.3656 -0.3124  1.7352
 2392TIP3    H228812   1.490   4.833   7.816 -2.1002  0.1978 -1.5267
 2393TIP3   OH228813   5.047   4.797   2.700  0.0308  0.1981 -0.2172
 2393TIP3    H128814   5.128   4.745   2.701  0.7215  1.2610  0.4456
 2393TIP3    H228815   4.987   4.749   2.757  0.6150  0.0498  0.2868
 2394TIP3   OH228816   1.695   6.259   2.030 -0.1008  0.4938  0.2985
 2394TIP3    H128817   1.610   6.255   1.987  0.1840 -1.2299 -0.1933
 2394TIP3    H228818   1.721   6.351   2.024 -0.8027  0.6186 -1.7947
 2395TIP3   OH228819   3.192   4.187   0.714 -0.0660  0.4599  0.9803
 2395TIP3    H128820   3.213   4.095   0.728 -0.1051  0.8268  4.0361
 2395TIP3    H228821   3.133   4.209   0.786  1.5272  3.3732  1.5125
 2396TIP3   OH228822   0.334   2.472   8.105 -0.4161 -0.3202 -0.1022
 2396TIP3    H128823   0.303   2.500   8.019 -0.4658 -2.4045 -0.8048
 2396TIP3    H228824   0.329   2.377   8.104 -0.2214 -0.4305  2.1570
 2397TIP3   OH228825   0.339   5.027   7.618  0.3468 -0.0731 -0.1594
 2397TIP3    H128826   0.400   5.070   7.677  0.7224 -1.1322  0.2456
 2397TIP3    H228827   0.380   5.032   7.532  0.9811 -0.7165  0.0992
 2398TIP3   OH228828   1.796   4.617   2.574 -0.2375 -0.1331 -0.6232
 2398TIP3    H128829   1.891   4.610   2.584 -0.1836  1.0391 -0.0632
 2398TIP3    H228830   1.775   4.704   2.609 -1.6187 -0.6768 -0.0076
 2399TIP3   OH228831   2.923   0.993   1.367 -0.0796  1.4140  0.4619
 2399TIP3    H128832   2.948   1.083   1.387 -1.5102  2.3162 -1.4766
 2399TIP3    H228833   2.975   0.940   1.428  0.4727  3.5383  1.9889
 2400TIP3   OH228834   4.285   1.049   1.000  0.4039 -0.0561  0.5919
 2400TIP3    H128835   4.330   0.968   0.973  1.2666  0.3830  0.6967
 2400TIP3    H228836   4.211   1.056   0.939  0.9671 -0.3341 -0.1373
 2401TIP3   OH228837   6.527   4.669   0.373 -0.1702  0.4245  0.1779
 2401TIP3    H128838   6.554   4.600   0.434  1.0928  1.1055  0.4237
 2401TIP3    H228839   6.478   4.622   0.304  1.4676 -0.8687 -0.1759
 2402TIP3   OH228840   2.064   2.463   2.537  0.3926  0.5908  0.2014
 2402TIP3    H128841   2.138   2.522   2.550  0.3268  0.8120 -0.4359
 2402TIP3    H228842   2.080   2.392   2.599  1.6392  0.1569 -0.5771
 2403TIP3   OH228843   3.235   6.325   8.090 -0.2907  0.0552  0.2755
 2403TIP3    H128844   3.145   6.319   8.123 -0.2016  1.8592  0.9087
 2403TIP3    H228845   3.251   6.238   8.052 -2.5340 -0.1177 -0.4849
 2404TIP3   OH228846   2.790   1.777   0.656  0.1743 -0.3213  0.7818
 2404TIP3    H128847   2.862   1.779   0.719  0.4650  1.3917  0.4491
 2404TIP3    H228848   2.825   1.732   0.580  1.0667  0.8507  0.4713
 2405TIP3   OH228849   2.077   4.541   0.168 -0.0607 -0.5722 -0.8218
 2405TIP3    H128850   2.149   4.576   0.115  0.1861  0.5491  0.2043
 2405TIP3    H228851   2.118   4.474   0.222  0.0741 -0.4528 -0.7723
 2406TIP3   OH228852   2.999   1.754   0.834  0.0316  0.5488  0.1831
 2406TIP3    H128853   3.032   1.801   0.910  1.2991 -1.0043  0.6386
 2406TIP3    H228854   3.075   1.710   0.797 -0.8858 -0.1946 -0.9105
 2407TIP3   OH228855   0.204   2.514   1.302  0.4922 -0.0932 -0.3357
 2407TIP3    H128856   0.152   2.572   1.358  0.6765  0.5549 -0.8147
 2407TIP3    H228857   0.246   2.453   1.363  1.6856  1.3914  0.3955
 2408TIP3   OH228858   4.746   5.479   7.578 -0.5376  0.3007 -0.0685
 2408TIP3    H128859   4.665   5.530   7.583 -0.3776  0.4749  0.8145
 2408TIP3    H228860   4.762   5.471   7.484 -1.7715 -0.0489 -0.2719
 2409TIP3   OH228861   4.823   3.731   1.224  0.3362 -0.4040 -0.0108
 2409TIP3    H128862   4.755   3.799   1.230  0.0561 -0.7433  0.8095
 2409TIP3    H228863   4.896   3.774   1.180  0.0811  0.3658  0.3002
 2410TIP3   OH228864   1.085   0.234   0.192  0.1482 -0.1024 -0.4392
 2410TIP3    H128865   1.174   0.206   0.215  0.4404  0.1771 -1.1694
 2410TIP3    H228866   1.028   0.166   0.226  0.3586  1.1225  2.6865
 2411TIP3   OH228867   2.967   2.972   8.485  0.0842  0.0508  0.7380
 2411TIP3    H128868   3.033   3.016   8.539  1.4496  0.4139 -1.1260
 2411TIP3    H228869   2.916   3.043   8.446 -0.3505 -0.1728  0.8902
 2412TIP3   OH228870   0.774   5.101   0.355 -0.0970  0.0152  0.0515
 2412TIP3    H128871   0.850   5.127   0.301  0.7262 -0.6466  0.8567
 2412TIP3    H228872   0.700   5.146   0.315  0.2993 -1.2030 -2.2550
 2413TIP3   OH228873   2.266   2.203   0.416  0.3278 -0.3336  0.3511
 2413TIP3    H128874   2.178   2.179   0.446  1.2877 -2.4840  1.6268
 2413TIP3    H228875   2.255   2.224   0.323 -1.8024  1.1972  0.8790
 2414TIP3   OH228876   2.011   0.686   8.348 -0.2001 -0.1297 -0.4686
 2414TIP3    H128877   2.074   0.620   8.378 -0.3170  0.6703  1.6666
 2414TIP3    H228878   2.059   0.736   8.282  1.2416  0.1098  0.7060
 2415TIP3   OH228879   3.384   0.732   7.691  0.1968  0.5174  0.3658
 2415TIP3    H128880   3.457   0.772   7.643  0.1240 -0.0293 -0.2219
 2415TIP3    H228881   3.309   0.740   7.631  0.2040 -0.5645  0.1854
 2416TIP3   OH228882   1.883   6.110   1.931 -0.1500  0.4087 -0.3714
 2416TIP3    H128883   1.810   6.138   1.986  0.5733  0.0400  0.8222
 2416TIP3    H228884   1.844   6.048   1.869 -0.9920  0.8380 -0.2779
 2417TIP3   OH228885   3.854   2.172   0.728 -0.1443  0.1889 -0.3388
 2417TIP3    H128886   3.899   2.196   0.647 -0.5850 -0.6871 -0.8584
 2417TIP3    H228887   3.780   2.233   0.733 -0.9000 -0.6247 -1.3208
 2418TIP3   OH228888   3.862   5.317   2.708 -0.2930  0.0587  0.1447
 2418TIP3    H128889   3.953   5.289   2.712 -0.2675  0.2248  1.3463
 2418TIP3    H228890   3.817   5.248   2.660  0.2064 -0.8193  0.9073
 2419TIP3   OH228891   5.674   4.759   7.794 -0.2582 -0.5477  0.0059
 2419TIP3    H128892   5.641   4.679   7.754 -2.0659 -0.2263  0.7808
 2419TIP3    H228893   5.601   4.820   7.792  0.4128  0.3682  1.3615
 2420TIP3   OH228894   3.098   4.099   7.964  0.3286  0.6811  0.5597
 2420TIP3    H128895   3.009   4.120   7.990  0.2852 -0.2028  1.1822
 2420TIP3    H228896   3.141   4.073   8.045  1.4541  2.0631  0.4377
 2421TIP3   OH228897   4.501   5.086   0.294  0.1914 -0.6858 -0.4216
 2421TIP3    H128898   4.538   5.111   0.378  0.2233  0.6418 -0.8107
 2421TIP3    H228899   4.470   5.168   0.256  1.2287 -1.0777 -2.2161
 2422TIP3   OH228900   2.619   5.864   1.309  0.3229  0.2932 -0.6297
 2422TIP3    H128901   2.677   5.859   1.234 -0.4935  0.1576 -1.2619
 2422TIP3    H228902   2.587   5.954   1.309 -0.2110  0.1053 -0.8523
 2423TIP3   OH228903   5.333   2.514   2.513  0.1959  0.1655  0.2042
 2423TIP3    H128904   5.253   2.566   2.499 -0.4070 -0.3999  1.3332
 2423TIP3    H228905   5.341   2.461   2.434 -1.7849 -1.3079  0.8943
 2424TIP3   OH228906   3.862   1.283   0.892 -0.3833  0.3351  0.2942
 2424TIP3    H128907   3.774   1.267   0.926 -0.0230 -0.9655  0.6891
 2424TIP3    H228908   3.859   1.251   0.802 -0.6615  1.5229 -0.1381
 2425TIP3   OH228909   1.906   5.813   7.555  0.2263 -0.1566 -0.0488
 2425TIP3    H128910   1.875   5.769   7.635  0.1620  0.1935  0.1183
 2425TIP3    H228911   1.826   5.839   7.510  0.1892 -2.0063 -1.1785
 2426TIP3   OH228912   1.559   6.143   1.110  0.2112  0.1942 -0.2950
 2426TIP3    H128913   1.539   6.051   1.095 -1.3981  0.5952 -0.7885
 2426TIP3    H228914   1.536   6.187   1.028  1.6686  0.9535 -0.3379
 2427TIP3   OH228915   5.079   0.854   2.367 -0.1588  0.3070  0.0277
 2427TIP3    H128916   5.047   0.936   2.406  0.2373  0.6827 -0.4208
 2427TIP3    H228917   5.137   0.817   2.434 -0.9638 -0.0276  0.5624
 2428TIP3   OH228918   5.544   4.434   0.360  0.3412 -0.1333 -0.0578
 2428TIP3    H128919   5.630   4.402   0.385  1.8405  1.9512 -2.0466
 2428TIP3    H228920   5.553   4.530   0.362 -1.9517  0.1400 -0.2700
 2429TIP3   OH228921   1.361   5.631   0.478 -0.2276  0.1146  0.7991
 2429TIP3    H128922   1.417   5.691   0.429 -1.8092  2.0587  1.2259
 2429TIP3    H228923   1.274   5.670   0.473 -1.3205 -2.0952  1.2585
 2430TIP3   OH228924   6.671   2.163   8.742  0.1930 -0.3396 -0.4871
 2430TIP3    H128925   6.685   2.258   8.741  1.4875 -0.5188 -1.1062
 2430TIP3    H228926   6.647   2.143   8.832  0.0612  0.5504 -0.3145
 2431TIP3   OH228927   4.456   3.178   8.782  0.4454 -0.1041  0.1793
 2431TIP3    H128928   4.454   3.269   8.751 -2.3885 -0.5697 -1.3104
 2431TIP3    H228929   4.396   3.177   8.857  1.2651 -0.5827  0.8493
 2432TIP3   OH228930   6.146   3.354   1.816  0.4123 -0.3455 -0.0226
 2432TIP3    H128931   6.173   3.292   1.749  0.9998 -1.2850  1.0374
 2432TIP3    H228932   6.114   3.299   1.888  0.5625  0.5955  0.7850
 2433TIP3   OH228933   0.029   5.484   1.081 -0.0847 -0.1312 -0.2904
 2433TIP3    H128934   0.076   5.401   1.082  2.0871  1.0235 -0.6119
 2433TIP3    H228935  -0.027   5.480   1.159  1.8139 -0.9295  1.1367
 2434TIP3   OH228936   3.836   4.608   6.803  0.1908  0.2160 -0.3104
 2434TIP3    H128937   3.872   4.696   6.814 -0.0326  0.1604  1.0572
 2434TIP3    H228938   3.912   4.553   6.781  0.7848  0.3145  1.3673
 2435TIP3   OH228939   3.384   1.624   1.846  0.7153  0.1727 -0.7469
 2435TIP3    H128940   3.393   1.662   1.933 -0.1736  0.3386 -0.7246
 2435TIP3    H228941   3.341   1.691   1.794 -1.6253 -1.0133 -0.4992
 2436TIP3   OH228942   6.182   4.576   1.848 -0.2704  0.0780 -0.2718
 2436TIP3    H128943   6.230   4.495   1.837 -3.1920 -1.8550  0.1072
 2436TIP3    H228944   6.121   4.579   1.774 -1.4670  0.9321  0.6870
 2437TIP3   OH228945   3.506   2.141   0.786 -0.6184 -0.1614 -0.1414
 2437TIP3    H128946   3.425   2.090   0.787 -1.2335  0.8046  0.5711
 2437TIP3    H228947   3.544   2.130   0.873 -0.5810  0.3107 -0.0913
 2438TIP3   OH228948   3.946   0.020   8.043  0.9974 -0.1144  0.5024
 2438TIP3    H128949   3.885  -0.009   8.110  0.3890  0.8875  0.4070
 2438TIP3    H228950   3.945   0.115   8.049 -0.2969  0.1032 -1.9609
 2439TIP3   OH228951   2.240   3.834   1.687  0.1932 -0.4470  0.1486
 2439TIP3    H128952   2.298   3.798   1.620 -0.9278  0.1759 -1.2232
 2439TIP3    H228953   2.206   3.757   1.732 -1.0741 -1.1276 -1.8035
 2440TIP3   OH228954   5.715   2.685   8.118 -0.2111  0.2400 -0.8211
 2440TIP3    H128955   5.687   2.650   8.202  1.8902 -1.2400 -0.6579
 2440TIP3    H228956   5.634   2.691   8.067 -1.1014 -2.1818  0.1540
 2441TIP3   OH228957   4.051   1.714   2.154  0.4266 -0.4566 -0.2898
 2441TIP3    H128958   4.141   1.698   2.125  0.5527 -0.1397 -0.0823
 2441TIP3    H228959   4.031   1.802   2.122 -0.0991 -0.8459 -1.0375
 2442TIP3   OH228960   3.979   2.062   0.014 -0.1757  0.9950 -0.7737
 2442TIP3    H128961   3.959   1.990  -0.046 -1.0748  1.5696 -1.1750
 2442TIP3    H228962   3.906   2.123   0.003 -0.2418  1.2134  0.7401
 2443TIP3   OH228963   5.424   2.276   2.596  0.0449  0.1504 -0.2072
 2443TIP3    H128964   5.464   2.262   2.682  0.2982  2.4808  0.1095
 2443TIP3    H228965   5.398   2.368   2.596  0.0985  0.2239 -2.6410
 2444TIP3   OH228966   5.785   4.878   7.482 -0.0413  0.2182  0.4800
 2444TIP3    H128967   5.751   4.926   7.557  0.7937 -1.9151  2.3390
 2444TIP3    H228968   5.762   4.786   7.499  0.3341 -0.3695 -1.7920
 2445TIP3   OH228969   1.518   5.200   1.899 -0.2822  0.4067  0.0488
 2445TIP3    H128970   1.452   5.172   1.836 -0.8676 -0.0009  0.8237
 2445TIP3    H228971   1.469   5.248   1.965  0.3862  1.2104 -0.0310
 2446TIP3   OH228972   3.770   6.393   7.339  0.2525 -0.2157  0.3631
 2446TIP3    H128973   3.755   6.298   7.330 -0.3491 -0.2487  1.5706
 2446TIP3    H228974   3.799   6.420   7.252 -0.9175 -1.2771 -0.4001
 2447TIP3   OH228975   6.435   6.089   0.059 -0.2978 -0.0205  0.0418
 2447TIP3    H128976   6.458   5.997   0.075 -0.0789  0.1521  0.7616
 2447TIP3    H228977   6.499   6.139   0.110 -3.3547  0.4856  3.8625
 2448TIP3   OH228978   5.607   1.892   1.963  0.2395  0.2725 -0.0771
 2448TIP3    H128979   5.520   1.922   1.991  0.8700  1.4667  0.6366
 2448TIP3    H228980   5.644   1.850   2.041  1.3286  2.1035  0.4248
 2449TIP3   OH228981   6.492   1.837   1.392 -0.2669  0.0171  0.1470
 2449TIP3    H128982   6.450   1.801   1.313  0.4671  1.0714 -0.7539
 2449TIP3    H228983   6.450   1.790   1.464 -1.1114 -0.8337 -0.8494
 2450TIP3   OH228984   3.931   6.466   1.851 -0.7409 -0.4130  0.1273
 2450TIP3    H128985   3.896   6.513   1.927 -0.0808 -0.5867  0.5464
 2450TIP3    H228986   3.898   6.515   1.776 -0.8598  0.1560  0.5378
 2451TIP3   OH228987   4.740   2.088   1.670  0.0976  0.2844  0.4971
 2451TIP3    H128988   4.794   2.046   1.603 -0.2987 -0.2044  0.4725
 2451TIP3    H228989   4.694   2.015   1.712 -2.0084  0.7876 -0.7745
 2452TIP3   OH228990   6.542   5.977   0.709 -0.4097 -0.5401 -0.3926
 2452TIP3    H128991   6.522   5.971   0.802  0.7665  1.1027  0.0125
 2452TIP3    H228992   6.498   6.057   0.680  0.6456 -0.0898 -0.8195
 2453TIP3   OH228993   6.550   2.646   7.901  0.4230  0.8218 -0.3847
 2453TIP3    H128994   6.611   2.653   7.828  0.7522 -0.2955 -0.2357
 2453TIP3    H228995   6.536   2.552   7.912 -2.1227  1.0574 -1.0433
 2454TIP3   OH228996   3.592   2.268   8.686 -0.3050 -0.4314 -0.0783
 2454TIP3    H128997   3.665   2.331   8.683  1.0856 -2.0038 -0.6808
 2454TIP3    H228998   3.630   2.187   8.653 -1.6941 -1.9577  1.8959
 2455TIP3   OH228999   3.699   4.599   3.037  0.5701 -0.0021 -0.2369
 2455TIP3    H129000   3.674   4.516   2.996 -2.4285  1.6814 -2.1380
 2455TIP3    H229001   3.669   4.590   3.128 -2.3986 -0.0413 -1.1395
 2456TIP3   OH229002   6.750   1.085   8.758 -0.0971 -0.6319  0.2471
 2456TIP3    H129003   6.750   1.088   8.853  0.4006  0.9678  0.2232
 2456TIP3    H229004   6.678   1.142   8.732  1.4075  1.0950 -0.3272
 2457TIP3   OH229005   4.091   2.631   0.792  0.3062 -0.5641 -0.2417
 2457TIP3    H129006   4.061   2.618   0.881 -0.4778  2.0826 -0.0393
 2457TIP3    H229007   4.168   2.575   0.784  0.4473 -0.8002  2.1178
 2458TIP3   OH229008   3.754   0.624   7.261  0.0838  0.7217  0.4151
 2458TIP3    H129009   3.735   0.676   7.184 -1.4355 -0.2505  0.0846
 2458TIP3    H229010   3.684   0.559   7.264  1.5974 -0.9726  1.1011
 2459TIP3   OH229011   1.295   2.656   1.277  0.0770  0.6007  0.3026
 2459TIP3    H129012   1.331   2.705   1.351  0.4560  1.4009 -0.4052
 2459TIP3    H229013   1.264   2.723   1.216  0.5166 -0.0321 -0.6416
 2460TIP3   OH229014   2.391   3.310   7.909 -0.2948 -0.0493 -0.1042
 2460TIP3    H129015   2.304   3.273   7.920 -0.3293  0.0462 -0.0582
 2460TIP3    H229016   2.377   3.405   7.908 -0.3874 -0.0562 -1.7074
 2461TIP3   OH229017   3.576   6.636   0.936  0.3178 -0.4716 -0.7536
 2461TIP3    H129018   3.575   6.730   0.950 -0.9149 -0.5746 -0.0783
 2461TIP3    H229019   3.576   6.626   0.841  1.5081  0.1950 -0.8489
 2462TIP3   OH229020   6.474   6.513   1.871 -0.3162  0.5101  0.0761
 2462TIP3    H129021   6.428   6.576   1.927  0.9709 -0.4581  2.3925
 2462TIP3    H229022   6.418   6.436   1.869 -0.5732  0.7054 -0.3741
 2463TIP3   OH229023   0.615   0.635   1.917  0.0730 -0.3305  0.4789
 2463TIP3    H129024   0.606   0.680   1.833 -1.0189 -0.6713  0.3965
 2463TIP3    H229025   0.590   0.700   1.983  2.2763  0.3840  0.6852
 2464TIP3   OH229026   3.793   3.543   2.863  0.2260  0.1820  0.6699
 2464TIP3    H129027   3.815   3.450   2.877 -0.8054  0.0279  1.3362
 2464TIP3    H229028   3.855   3.572   2.796  0.3456 -1.0853  0.2031
 2465TIP3   OH229029   1.950   0.695   2.021 -0.3164  0.1956  0.7851
 2465TIP3    H129030   1.968   0.787   2.001 -0.4716  0.2014  0.6729
 2465TIP3    H229031   1.866   0.677   1.978  0.2987 -0.3400 -0.2300
 2466TIP3   OH229032   3.819   0.657   8.306  0.2579  0.1648  0.1373
 2466TIP3    H129033   3.820   0.649   8.211 -1.6492  1.5472 -0.0576
 2466TIP3    H229034   3.770   0.580   8.336  0.5407 -0.0817 -0.0341
 2467TIP3   OH229035   6.304   2.260   8.597 -0.5666  0.6446  0.3292
 2467TIP3    H129036   6.264   2.249   8.510 -0.9892  1.8110  0.3528
 2467TIP3    H229037   6.332   2.352   8.598 -0.5634  0.6396  1.4269
 2468TIP3   OH229038   5.778   1.638   2.497 -0.0121 -0.0231  0.0675
 2468TIP3    H129039   5.688   1.613   2.519 -0.0123  0.1383  0.2473
 2468TIP3    H229040   5.769   1.722   2.453  0.1039  0.2864  0.6279
 2469TIP3   OH229041   5.764   4.531   8.226  0.2013 -0.0279  0.0865
 2469TIP3    H129042   5.853   4.553   8.199  0.1064 -0.5013 -0.6762
 2469TIP3    H229043   5.754   4.438   8.201 -1.0042  0.4186 -1.2990
 2470TIP3   OH229044   5.607   2.354   1.266 -0.5404 -0.1370  0.2866
 2470TIP3    H129045   5.561   2.308   1.196 -0.0669 -1.1873  0.6496
 2470TIP3    H229046   5.610   2.292   1.338 -1.3112  1.0387  1.3835
 2471TIP3   OH229047   5.779   4.536   0.938  0.3413 -0.2582  0.1475
 2471TIP3    H129048   5.780   4.612   0.997  0.2089  1.3109 -1.7722
 2471TIP3    H229049   5.696   4.492   0.957 -0.2800  0.9404  0.2690
 2472TIP3   OH229050   4.111   5.076   1.351  0.6350 -0.1069 -0.2072
 2472TIP3    H129051   4.023   5.038   1.360  1.2599 -2.1986 -1.9654
 2472TIP3    H229052   4.155   5.055   1.433  0.4602 -1.9645 -0.5393
 2473TIP3   OH229053   1.409   2.013   0.896  0.2455  0.0541 -0.1774
 2473TIP3    H129054   1.402   2.067   0.817 -1.1749  1.4974  0.8458
 2473TIP3    H229055   1.321   1.979   0.909  0.4438 -0.1032  0.8056
 2474TIP3   OH229056   2.878   0.198   8.412  0.2235  0.3528 -0.0804
 2474TIP3    H129057   2.803   0.156   8.454  1.1338 -0.5168  0.7263
 2474TIP3    H229058   2.935   0.126   8.387  1.6175  1.0675  0.9279
 2475TIP3   OH229059   6.246   2.270   2.073 -0.8507  0.3132 -0.5074
 2475TIP3    H129060   6.313   2.305   2.131 -0.8378  0.7965 -0.8020
 2475TIP3    H229061   6.254   2.323   1.994  0.2134 -1.3539 -1.5978
 2476TIP3   OH229062   3.057   3.876   0.283 -0.1551 -0.3551  0.1632
 2476TIP3    H129063   2.965   3.879   0.260 -0.0457 -1.1438 -0.4160
 2476TIP3    H229064   3.059   3.892   0.377 -0.8547 -0.0482  0.1281
 2477TIP3   OH229065   3.291   5.673   8.501 -0.1433  0.1340  0.2660
 2477TIP3    H129066   3.377   5.697   8.467 -0.0693 -0.1764  0.2287
 2477TIP3    H229067   3.265   5.747   8.556  0.3211  0.0620  0.5914
 2478TIP3   OH229068   0.903   1.688   1.210 -0.0780  0.1895 -0.0007
 2478TIP3    H129069   0.882   1.770   1.255 -0.9834  0.3360 -0.6685
 2478TIP3    H229070   0.818   1.650   1.187  0.3466 -0.4352 -0.5818
 2479TIP3   OH229071   5.736   3.131   1.485 -0.6153 -0.4107  0.4348
 2479TIP3    H129072   5.694   3.064   1.431 -1.4651 -0.0032  0.5767
 2479TIP3    H229073   5.666   3.163   1.543 -0.9581  2.4480 -1.3843
 2480TIP3   OH229074   1.858   5.582   8.841 -0.5407  0.0954  0.4033
 2480TIP3    H129075   1.869   5.493   8.874 -0.5888 -0.3210 -0.6714
 2480TIP3    H229076   1.945   5.621   8.846 -0.1314 -0.5998 -0.7276
 2481TIP3   OH229077   2.557   2.640   1.901  0.0277  0.3357 -0.4060
 2481TIP3    H129078   2.529   2.558   1.861  1.1698  0.0724 -0.6962
 2481TIP3    H229079   2.487   2.661   1.963 -0.9273 -0.1483 -1.2767
 2482TIP3   OH229080   5.852   3.360   2.050  0.9216 -0.1690  0.0692
 2482TIP3    H129081   5.872   3.409   1.970  0.2154 -0.3433 -0.2239
 2482TIP3    H229082   5.827   3.273   2.018 -0.7673  0.1855  0.3724
 2483TIP3   OH229083   1.276   0.569   8.718  0.9273 -0.7965 -0.1933
 2483TIP3    H129084   1.264   0.525   8.802  1.4234 -0.2250  0.1905
 2483TIP3    H229085   1.201   0.541   8.666  0.8312 -1.4848  0.2957
 2484TIP3   OH229086   3.755   4.832   6.977  0.8059  0.5734  0.6615
 2484TIP3    H129087   3.711   4.900   6.925  0.9222  1.0028  1.1084
 2484TIP3    H229088   3.848   4.842   6.956  0.8444  0.6938  0.8843
 2485TIP3   OH229089   2.592   5.458   2.674 -0.3289  0.4975 -0.0945
 2485TIP3    H129090   2.644   5.505   2.609 -0.7787  0.5021 -0.4542
 2485TIP3    H229091   2.535   5.525   2.713 -2.2276  0.0002 -1.8310
 2486TIP3   OH229092   2.943   5.548   2.133 -1.1457 -0.0698  0.6039
 2486TIP3    H129093   2.907   5.606   2.067 -2.0527 -0.6757  0.5453
 2486TIP3    H229094   2.949   5.601   2.212 -0.5999  0.4954  0.1867
 2487TIP3   OH229095   0.534   0.507   7.306  0.4089  0.1536 -0.3878
 2487TIP3    H129096   0.466   0.515   7.373  0.7383  0.4477 -0.0855
 2487TIP3    H229097   0.581   0.428   7.330  0.1981 -0.0293 -0.5753
 2488TIP3   OH229098   6.143   5.228   7.480 -0.2146  0.2260 -0.1878
 2488TIP3    H129099   6.131   5.312   7.435 -1.2841  1.1962  1.7758
 2488TIP3    H229100   6.223   5.241   7.532 -0.4194  0.0540  0.1695
 2489TIP3   OH229101   2.593   3.935   7.446  0.0445  0.0683  0.4755
 2489TIP3    H129102   2.681   3.972   7.432  0.0768 -0.1877 -0.0418
 2489TIP3    H229103   2.606   3.840   7.436  0.1182 -0.1851  2.6047
 2490TIP3   OH229104   0.941   3.117   8.623  0.2710  0.1996 -0.2923
 2490TIP3    H129105   0.982   3.031   8.632 -0.2251  0.0072  0.1532
 2490TIP3    H229106   0.912   3.121   8.532  0.6295  0.0484 -0.4141
 2491TIP3   OH229107   0.545   5.490   6.610  0.3041 -0.7943  0.9515
 2491TIP3    H129108   0.530   5.492   6.705  1.1715  1.4447  1.0817
 2491TIP3    H229109   0.522   5.577   6.580  4.3463  0.0822 -0.1725
 2492TIP3   OH229110   1.199   5.983   2.576 -0.3061  0.0486  0.5306
 2492TIP3    H129111   1.288   5.960   2.603 -0.2592 -0.0087  0.3340
 2492TIP3    H229112   1.146   5.967   2.653 -0.4997 -2.1397  0.0075
 2493TIP3   OH229113   6.542   1.366   1.644  0.2495 -0.4306  0.1380
 2493TIP3    H129114   6.560   1.378   1.738 -0.2432  1.2641  0.0442
 2493TIP3    H229115   6.447   1.363   1.638  0.2871 -1.9095 -0.1960
 2494TIP3   OH229116   0.372   5.190   1.164 -0.1010 -0.0509  0.2829
 2494TIP3    H129117   0.431   5.232   1.101  0.2646  0.0852  0.7080
 2494TIP3    H229118   0.352   5.260   1.227 -1.6783  0.2499 -0.5156
 2495TIP3   OH229119   1.758   1.987   7.522 -0.3450  0.3415 -0.4194
 2495TIP3    H129120   1.827   1.990   7.455  0.2346  1.1999  0.1873
 2495TIP3    H229121   1.699   2.058   7.498  0.0507  0.8797  0.1494
 2496TIP3   OH229122   0.854   0.471   0.840  0.4892 -0.3539 -0.1198
 2496TIP3    H129123   0.922   0.486   0.776 -0.1005  0.4474 -0.5746
 2496TIP3    H229124   0.857   0.548   0.897  1.2902 -1.2458  1.0980
 2497TIP3   OH229125   5.887   6.581   1.674 -0.2670 -0.2878  0.0407
 2497TIP3    H129126   5.953   6.649   1.664 -0.8094  0.2110 -0.2083
 2497TIP3    H229127   5.826   6.595   1.601  0.1561 -1.6665 -0.6125
 2498TIP3   OH229128   2.106   2.744   0.254 -0.0759 -0.5275 -0.3188
 2498TIP3    H129129   2.118   2.825   0.303  0.0430 -0.7451  0.0178
 2498TIP3    H229130   2.046   2.767   0.183 -2.0406 -0.6801  1.2001
 2499TIP3   OH229131   3.603   3.034   0.473  0.1102 -0.0893  0.2380
 2499TIP3    H129132   3.586   2.940   0.462  3.9655 -0.7323 -1.9668
 2499TIP3    H229133   3.579   3.073   0.388  1.1451  0.3920  0.1510
 2500TIP3   OH229134   2.846   5.202   6.709 -0.3034 -0.2541  0.2541
 2500TIP3    H129135   2.940   5.203   6.728 -0.0084 -2.2597 -0.7951
 2500TIP3    H229136   2.817   5.292   6.726  1.7975  0.4230  0.5919
 2501TIP3   OH229137   1.635   6.354   6.818 -0.0758 -0.4223 -0.0489
 2501TIP3    H129138   1.689   6.347   6.897 -0.4192  2.1720  0.5096
 2501TIP3    H229139   1.675   6.293   6.756  2.1772 -0.1647  1.0561
 2502TIP3   OH229140   5.915   1.398   8.555 -0.2298  0.5390 -0.6586
 2502TIP3    H129141   5.977   1.403   8.482  1.0293  1.6420  0.4368
 2502TIP3    H229142   5.909   1.488   8.587 -2.1137  0.3773 -0.4868
 2503TIP3   OH229143   2.670   1.811   7.357 -0.3560  0.1452 -0.1538
 2503TIP3    H129144   2.680   1.753   7.433 -0.7710 -0.7419 -0.7526
 2503TIP3    H229145   2.712   1.893   7.383 -0.8574 -0.0011  1.1845
 2504TIP3   OH229146   3.638   0.288   7.506 -0.0930 -0.6602 -0.2994
 2504TIP3    H129147   3.605   0.377   7.506  1.5739  0.0009  0.8987
 2504TIP3    H229148   3.568   0.237   7.465 -2.4341  0.6585  1.7640
 2505TIP3   OH229149   5.227   6.069   2.015 -0.4972 -0.4601  0.5746
 2505TIP3    H129150   5.147   6.083   2.066 -0.2084  0.4825  0.7876
 2505TIP3    H229151   5.226   5.975   1.995 -3.4134  0.0038 -2.3782
 2506TIP3   OH229152   2.984   5.771   7.186 -0.3030 -0.1061  0.4544
 2506TIP3    H129153   2.999   5.756   7.280  1.5832  1.7951  0.5394
 2506TIP3    H229154   3.052   5.720   7.143  0.0023  0.4516  0.2577
 2507TIP3   OH229155   1.788   2.354   1.289 -0.1455  0.1362  0.1861
 2507TIP3    H129156   1.827   2.426   1.240  0.6245 -0.2510  0.2077
 2507TIP3    H229157   1.698   2.348   1.256 -0.1471  0.9563  0.0324
 2508TIP3   OH229158   1.107   0.290   1.501  0.0759 -0.9667  0.0777
 2508TIP3    H129159   1.170   0.336   1.556  0.8649 -1.6363 -0.2586
 2508TIP3    H229160   1.034   0.352   1.492  0.4010 -0.4288  0.9771
 2509TIP3   OH229161   2.736   1.880   0.938 -0.2975  0.0397 -0.7379
 2509TIP3    H129162   2.685   1.830   0.874  1.1397 -0.3979 -1.5872
 2509TIP3    H229163   2.752   1.964   0.895  1.1043 -0.4371 -1.2164
 2510TIP3   OH229164   1.132   2.692   1.572 -0.2779 -0.1240  0.2596
 2510TIP3    H129165   1.108   2.601   1.588 -1.1147  0.3307  1.7151
 2510TIP3    H229166   1.228   2.692   1.569 -0.2792 -1.2931 -1.4805
 2511TIP3   OH229167   1.405   2.173   1.959  0.0366  0.1856 -0.4382
 2511TIP3    H129168   1.364   2.256   1.985  0.3681  0.0462  0.5683
 2511TIP3    H229169   1.378   2.112   2.027  1.1186 -0.1432 -0.2996
 2512TIP3   OH229170   0.397   1.678   2.802 -0.3696  0.0659 -0.0571
 2512TIP3    H129171   0.302   1.684   2.795 -0.8526 -3.5475  1.2512
 2512TIP3    H229172   0.424   1.637   2.720 -0.4810 -2.0806  0.9081
 2513TIP3   OH229173   0.409   6.613   7.978 -0.2718  0.0713  0.8318
 2513TIP3    H129174   0.368   6.640   7.896 -3.4825  1.6319  2.7320
 2513TIP3    H229175   0.399   6.518   7.980 -2.1470  0.2229  0.3218
 2514TIP3   OH229176   1.020   3.766   0.666 -0.0849 -0.4364  0.6562
 2514TIP3    H129177   1.030   3.837   0.730  0.5867  0.1315 -0.0704
 2514TIP3    H229178   1.102   3.766   0.616 -0.3075 -1.3527  0.2708
 2515TIP3   OH229179   4.268   0.232   1.646 -0.3548  0.2039 -0.1536
 2515TIP3    H129180   4.194   0.206   1.592  0.3687 -3.7694  0.4623
 2515TIP3    H229181   4.235   0.229   1.736  1.0475 -5.3666  0.5472
 2516TIP3   OH229182   2.403   6.139   1.637 -0.1904  0.2746 -0.0370
 2516TIP3    H129183   2.434   6.061   1.590 -0.1633  0.1523  0.1814
 2516TIP3    H229184   2.324   6.110   1.682 -0.5190  0.5358 -0.4420
 2517TIP3   OH229185   1.285   5.525   0.754  0.5960  0.3383  0.5743
 2517TIP3    H129186   1.335   5.541   0.674 -0.0446  0.1833  0.1377
 2517TIP3    H229187   1.238   5.443   0.737 -1.3223  1.4528  0.2070
 2518TIP3   OH229188   5.677   0.427   8.104  0.2803 -0.5893  0.1228
 2518TIP3    H129189   5.714   0.443   8.190  0.3680 -0.4886  0.0662
 2518TIP3    H229190   5.722   0.348   8.072  0.8060 -0.1872 -0.1518
 2519TIP3   OH229191   5.902   2.118   7.837  0.3903 -0.3791 -0.2662
 2519TIP3    H129192   5.959   2.194   7.824 -0.8286  0.4248 -1.1230
 2519TIP3    H229193   5.853   2.110   7.755 -2.9072  0.8573  1.3786
 2520TIP3   OH229194   0.662   1.799   0.480  0.3564  0.8018  0.0362
 2520TIP3    H129195   0.621   1.716   0.505  1.2946  0.2941 -0.0626
 2520TIP3    H229196   0.594   1.865   0.492 -0.5311 -0.0447 -0.2813
 2521TIP3   OH229197   4.733   5.634   1.633  0.3382 -0.3575  0.3299
 2521TIP3    H129198   4.778   5.623   1.717 -1.0491  1.1057  1.3308
 2521TIP3    H229199   4.700   5.547   1.612  1.7005 -0.9811  0.7032
 2522TIP3   OH229200   4.207   6.713   0.734 -0.4268  0.2892 -0.0817
 2522TIP3    H129201   4.261   6.704   0.655 -0.8216  2.6461 -0.7151
 2522TIP3    H229202   4.118   6.720   0.700 -1.0329 -1.9981  0.8573
 2523TIP3   OH229203   3.213   4.226   0.161 -0.4109 -0.4319 -0.0722
 2523TIP3    H129204   3.206   4.141   0.117  0.5260 -0.2433 -0.6139
 2523TIP3    H229205   3.262   4.208   0.241  1.3130 -0.1500 -1.0132
 2524TIP3   OH229206   3.412   3.535   8.589  0.1222 -0.0718 -0.4818
 2524TIP3    H129207   3.435   3.504   8.501 -1.1249  0.2389 -0.9256
 2524TIP3    H229208   3.496   3.538   8.635  0.7822 -0.3297 -1.6221
 2525TIP3   OH229209   0.824   1.795   0.131  0.7401 -0.0699  0.1325
 2525TIP3    H129210   0.905   1.846   0.135  0.3876  0.5406 -0.2566
 2525TIP3    H229211   0.832   1.743   0.051  0.9098 -0.2836  0.2907
 2526TIP3   OH229212   6.258   6.114   7.937 -0.1617  0.1706  0.4505
 2526TIP3    H129213   6.183   6.055   7.946  0.3766 -0.2004  3.0483
 2526TIP3    H229214   6.252   6.172   8.013  1.8318  0.5626  0.3490
 2527TIP3   OH229215   6.587   3.442   0.663  0.5242  0.0916 -0.2292
 2527TIP3    H129216   6.659   3.492   0.700  0.6486 -0.5902  0.4751
 2527TIP3    H229217   6.544   3.502   0.602  1.4032  0.6513 -0.3070
 2528TIP3   OH229218   3.403   6.686   7.674  1.2159  0.0432 -0.1744
 2528TIP3    H129219   3.388   6.641   7.757 -2.1084 -0.8751 -1.0938
 2528TIP3    H229220   3.447   6.622   7.619  1.1395 -0.2557  0.1087
 2529TIP3   OH229221   1.721   1.656   8.083  0.3503  0.3419 -0.2815
 2529TIP3    H129222   1.752   1.683   8.170 -1.4383 -0.2068  0.5727
 2529TIP3    H229223   1.729   1.561   8.083 -1.7751  0.0997  0.2257
 2530TIP3   OH229224   2.926   6.755   7.792  0.1967 -0.5986  0.0786
 2530TIP3    H129225   2.973   6.702   7.728  0.0130 -0.2754 -0.3252
 2530TIP3    H229226   2.861   6.695   7.830  0.4522 -0.8490  0.1242
 2531TIP3   OH229227   6.430   0.872   8.391  0.2715  0.6007  0.9293
 2531TIP3    H129228   6.478   0.828   8.320  2.7042 -0.3871  3.0449
 2531TIP3    H229229   6.341   0.881   8.357  0.5439 -2.6213 -1.0893
 2532TIP3   OH229230   6.559   6.736   0.660  0.1198  0.3868  0.3072
 2532TIP3    H129231   6.526   6.674   0.724 -0.9378  0.3086 -0.2773
 2532TIP3    H229232   6.489   6.742   0.594  1.0400  0.6787 -0.6838
 2533TIP3   OH229233   3.727   2.758   8.355  0.6027 -0.0741  0.3129
 2533TIP3    H129234   3.655   2.722   8.407 -0.1393  0.8515 -0.0364
 2533TIP3    H229235   3.793   2.689   8.354 -0.3759 -1.0427  0.4399
 2534TIP3   OH229236   6.029   5.408   8.730  0.2042 -0.0562 -0.0557
 2534TIP3    H129237   6.024   5.383   8.822  0.2518  1.1123  0.2771
 2534TIP3    H229238   5.947   5.453   8.712  0.9577  1.4034 -0.0439
 2535TIP3   OH229239   3.209   4.502   8.767  0.0201  0.9030 -0.8017
 2535TIP3    H129240   3.215   4.574   8.829 -0.0364  0.8888 -0.7803
 2535TIP3    H229241   3.290   4.507   8.717  0.0303  0.9625 -0.7797
 2536TIP3   OH229242   6.543   5.192   0.202 -0.8277  0.0235 -0.6090
 2536TIP3    H129243   6.469   5.134   0.221  0.1005 -0.8903  0.3125
 2536TIP3    H229244   6.594   5.146   0.135 -0.4403  0.0892 -0.3601
 2537TIP3   OH229245   3.145   6.275   1.184  0.3470 -0.1063  0.4204
 2537TIP3    H129246   3.065   6.327   1.189  0.5662  0.8279 -2.9265
 2537TIP3    H229247   3.124   6.193   1.226 -2.0603  0.4805  0.4931
 2538TIP3   OH229248   6.049   5.953   0.982 -0.1698 -0.5657 -0.7286
 2538TIP3    H129249   6.034   5.886   1.048 -0.3379  0.2999  0.1379
 2538TIP3    H229250   5.961   5.975   0.949  0.0494 -2.6429 -2.9867
 2539TIP3   OH229251   2.005   2.877   0.580  0.3029  0.1235 -0.1575
 2539TIP3    H129252   1.920   2.911   0.607  0.9534  1.2928  0.4657
 2539TIP3    H229253   2.044   2.947   0.528  1.3085  0.0059  0.4113
 2540TIP3   OH229254   4.222   3.744   1.924  0.2184 -0.5077  0.2356
 2540TIP3    H129255   4.315   3.725   1.930  0.0194 -1.7925 -0.5865
 2540TIP3    H229256   4.210   3.821   1.980  2.0547  0.7427 -0.9759
 2541TIP3   OH229257   2.734   0.180   0.122 -0.0369 -0.2508  0.2196
 2541TIP3    H129258   2.672   0.210   0.188  1.8462 -1.2442  2.5800
 2541TIP3    H229259   2.747   0.087   0.141  0.7980 -0.5023 -1.3784
 2542TIP3   OH229260   2.850   4.000   0.710  0.4144 -0.2194  0.1603
 2542TIP3    H129261   2.812   3.922   0.669 -0.0488 -0.6489  1.3612
 2542TIP3    H229262   2.895   4.045   0.639  1.4128 -2.0158 -0.4018
 2543TIP3   OH229263   5.420   5.438   1.091 -0.2300  0.4781 -0.0677
 2543TIP3    H129264   5.450   5.370   1.031  0.8830  0.4023  0.5383
 2543TIP3    H229265   5.348   5.398   1.139 -0.5581  0.2456 -0.7408
 2544TIP3   OH229266   5.911   6.345   7.532 -0.2382 -0.4743 -0.2186
 2544TIP3    H129267   5.880   6.349   7.441 -3.1837 -3.4951  0.4538
 2544TIP3    H229268   5.943   6.255   7.542 -0.2103 -0.2849  1.7912
 2545TIP3   OH229269   5.722   1.082   1.133 -0.0128 -0.1142  0.2346
 2545TIP3    H129270   5.693   1.120   1.215  1.6698 -0.0327  0.8412
 2545TIP3    H229271   5.677   0.998   1.128 -1.4935  0.6446  0.3394
 2546TIP3   OH229272   0.257   2.849   7.359  0.1445  0.0385 -0.0595
 2546TIP3    H129273   0.336   2.898   7.337 -0.7859  1.2819 -0.7671
 2546TIP3    H229274   0.250   2.782   7.291  0.8106 -0.3614  0.2590
 2547TIP3   OH229275   2.502   2.456   0.208 -0.1390  0.6236 -0.2122
 2547TIP3    H129276   2.484   2.546   0.179 -0.8120  1.0077  1.3105
 2547TIP3    H229277   2.417   2.424   0.239  0.6358  0.4900  1.9076
 2548TIP3   OH229278   1.020   3.939   2.017  0.4516  0.0079 -0.8088
 2548TIP3    H129279   1.064   3.887   2.085 -1.5307  1.6025  1.9095
 2548TIP3    H229280   0.975   3.875   1.963  0.1094 -1.2525  0.8908
 2549TIP3   OH229281   3.451   4.464   1.895 -0.7364  0.1511 -0.1375
 2549TIP3    H129282   3.391   4.408   1.943  0.0248 -2.6068 -2.1585
 2549TIP3    H229283   3.401   4.493   1.819 -0.1162 -0.6401 -0.8650
 2550TIP3   OH229284   0.699   3.286   7.532  0.0629  0.0195 -0.5421
 2550TIP3    H129285   0.730   3.197   7.515  1.7463  0.2516  1.0090
 2550TIP3    H229286   0.606   3.284   7.510  0.1655 -1.9997 -0.9413
 2551TIP3   OH229287   1.269   5.729   7.626 -0.2257 -0.3499  0.0217
 2551TIP3    H129288   1.210   5.715   7.552  0.9989  0.0903 -1.0783
 2551TIP3    H229289   1.302   5.818   7.614  3.5543 -1.7773 -1.6208
 2552TIP3   OH229290   3.349   3.123   8.877  0.2555  0.0253  0.5870
 2552TIP3    H129291   3.308   3.038   8.859  0.6062  0.0943 -0.6270
 2552TIP3    H229292   3.425   3.102   8.931 -1.8834 -0.0094  3.8828
 2553TIP3   OH229293   5.433   0.802   0.183 -0.3049  0.1093  0.1390
 2553TIP3    H129294   5.360   0.822   0.241  0.5810  0.5900  1.1204
 2553TIP3    H229295   5.488   0.742   0.234  0.5623  0.6550 -0.1389
 2554TIP3   OH229296   4.449   0.446   7.221 -0.1116 -0.3403 -0.1708
 2554TIP3    H129297   4.500   0.526   7.206  0.9170 -1.0224 -0.4360
 2554TIP3    H229298   4.426   0.450   7.314 -2.2072  1.4437 -0.6819
 2555TIP3   OH229299   5.228   2.512   8.559 -0.4960 -0.2532  0.1934
 2555TIP3    H129300   5.292   2.489   8.492 -0.6864 -0.4647  0.0830
 2555TIP3    H229301   5.144   2.481   8.524 -0.4746 -1.1890  0.9391
 2556TIP3   OH229302   0.224   0.655   8.750 -0.1043 -0.3549 -0.1486
 2556TIP3    H129303   0.154   0.657   8.816  1.4149 -0.8540  1.5455
 2556TIP3    H229304   0.260   0.744   8.751  0.2110 -0.4838  0.0283
 2557TIP3   OH229305   2.575   1.182   1.880  0.0600  0.2835 -0.4257
 2557TIP3    H129306   2.537   1.107   1.926  2.6306 -0.4067  0.7656
 2557TIP3    H229307   2.564   1.256   1.939  2.2053 -0.3351  0.8507
 2558TIP3   OH229308   0.078   6.659   0.978  0.3337  0.1171 -0.1786
 2558TIP3    H129309   0.035   6.703   0.905 -0.3260  0.8204  0.6075
 2558TIP3    H229310   0.037   6.696   1.056  1.0278 -0.6054  0.5556
 2559TIP3   OH229311   3.111   0.598   8.108 -0.5925  0.5768  0.0925
 2559TIP3    H129312   3.091   0.638   8.193  0.8701 -0.6368  1.0587
 2559TIP3    H229313   3.092   0.505   8.120 -0.2433  0.3680 -0.8727
 2560TIP3   OH229314   0.495   3.630   0.036  0.1806 -0.1886 -0.0282
 2560TIP3    H129315   0.453   3.693   0.095  0.0591  1.8869 -2.1401
 2560TIP3    H229316   0.578   3.672   0.012  0.7497 -1.5046 -0.4622
 2561TIP3   OH229317   1.553   3.476   2.430  0.2832  0.1874  0.1217
 2561TIP3    H129318   1.569   3.569   2.413  1.6766  0.1809  1.1273
 2561TIP3    H229319   1.609   3.430   2.368  2.2929  0.1175  1.8648
 2562TIP3   OH229320   4.986   2.539   1.451 -0.1591 -0.3710 -0.3943
 2562TIP3    H129321   5.052   2.607   1.462  0.3311 -1.0595  1.2458
 2562TIP3    H229322   4.911   2.584   1.411  0.3257  1.0217  0.1998
 2563TIP3   OH229323   1.848   5.091   7.175  0.3507  0.0314 -0.1473
 2563TIP3    H129324   1.928   5.076   7.125  0.3595 -1.5029  0.3046
 2563TIP3    H229325   1.787   5.129   7.112  1.4819  1.4440 -0.4415
 2564TIP3   OH229326   4.470   6.074   1.548  0.4184 -0.1667  0.1530
 2564TIP3    H129327   4.433   6.120   1.623  0.0403 -1.0496  0.5187
 2564TIP3    H229328   4.562   6.061   1.570  0.3128 -0.4036  0.4630
 2565TIP3   OH229329   0.312   4.774   1.854  0.9647 -0.0261  0.4234
 2565TIP3    H129330   0.221   4.801   1.841  0.5847 -1.1883  0.5110
 2565TIP3    H229331   0.357   4.803   1.775  0.3503 -0.0814  0.0441
 2566TIP3   OH229332   4.125   6.527   0.341  0.2270  0.3369 -0.8183
 2566TIP3    H129333   4.192   6.571   0.393 -0.0130 -1.6863  1.3656
 2566TIP3    H229334   4.117   6.580   0.262  0.9389  3.3251  0.9840
 2567TIP3   OH229335   4.130   1.649   7.707  0.3408  0.8996  0.0375
 2567TIP3    H129336   4.139   1.570   7.654 -1.7920  1.0063 -0.5782
 2567TIP3    H229337   4.035   1.662   7.716  0.6295  2.2248  1.8923
 2568TIP3   OH229338   2.152   1.944   8.656 -0.2337  0.3523 -0.2234
 2568TIP3    H129339   2.235   1.952   8.704 -0.6001  1.7234  0.2358
 2568TIP3    H229340   2.169   1.878   8.590  0.9003 -0.1716  0.5517
 2569TIP3   OH229341   5.922   2.080   0.785  0.8222 -0.1583 -0.8893
 2569TIP3    H129342   5.918   2.162   0.833  1.5231  0.1662 -1.3667
 2569TIP3    H229343   5.843   2.033   0.811  1.2686 -0.0924  0.7488
 2570TIP3   OH229344   3.771   5.180   2.475 -0.3303 -0.4400  0.3501
 2570TIP3    H129345   3.723   5.213   2.399  0.7100  3.1308  1.0414
 2570TIP3    H229346   3.863   5.192   2.451  0.0828 -1.6538  1.2510
 2571TIP3   OH229347   2.241   5.633   7.591 -0.5040  0.2693  0.3907
 2571TIP3    H129348   2.199   5.668   7.513  1.2630  0.1044 -0.6994
 2571TIP3    H229349   2.215   5.692   7.661 -2.3221  0.2868 -0.2500
 2572TIP3   OH229350   3.322   1.139   1.533 -0.3846 -0.4928  0.7805
 2572TIP3    H129351   3.341   1.222   1.490 -0.0657 -0.3854  1.1342
 2572TIP3    H229352   3.323   1.075   1.462 -0.6687 -0.1922  0.5025
 2573TIP3   OH229353   0.002   6.204   1.216  0.2809  0.1137  0.6419
 2573TIP3    H129354   0.065   6.233   1.150 -0.0897 -0.9021 -0.1781
 2573TIP3    H229355  -0.064   6.273   1.218  0.2117  0.0688 -0.1531
 2574TIP3   OH229356   1.159   2.750   0.810 -0.9565 -0.3204 -0.6018
 2574TIP3    H129357   1.246   2.788   0.815 -1.5834  1.5113 -2.4184
 2574TIP3    H229358   1.128   2.749   0.901  0.3394  0.4572 -0.1334
 2575TIP3   OH229359   3.534   3.702   1.615 -0.9528 -0.1673 -0.1296
 2575TIP3    H129360   3.611   3.757   1.601  0.2948 -2.0439 -1.0517
 2575TIP3    H229361   3.512   3.669   1.528 -1.3953 -1.4417  0.4391
 2576TIP3   OH229362   2.124   5.610   7.097 -0.2173  0.2907 -0.3533
 2576TIP3    H129363   2.117   5.602   7.002 -0.4812  0.9825 -0.4013
 2576TIP3    H229364   2.051   5.667   7.122 -0.3236 -0.1229  0.3025
 2577TIP3   OH229365   1.758   2.510   8.022  0.4421 -0.2915 -0.1822
 2577TIP3    H129366   1.739   2.428   7.976  0.2846  0.1761 -0.9871
 2577TIP3    H229367   1.743   2.578   7.955 -2.0118  0.6076  1.1420
 2578TIP3   OH229368   6.269   4.247   7.686  0.7555  0.4098  1.0081
 2578TIP3    H129369   6.241   4.312   7.750  0.9618 -0.9348  2.5398
 2578TIP3    H229370   6.365   4.255   7.684  0.7375  0.5719  0.7174
 2579TIP3   OH229371   6.215   2.583   8.171  0.4567  0.4577 -0.4438
 2579TIP3    H129372   6.216   2.677   8.189 -3.0101  0.5218  0.1740
 2579TIP3    H229373   6.257   2.544   8.247  0.6964  1.4615 -0.0455
 2580TIP3   OH229374   2.567   4.386   8.805  0.1721 -0.1141  0.1528
 2580TIP3    H129375   2.598   4.467   8.845 -1.6168  0.8233 -0.2574
 2580TIP3    H229376   2.573   4.402   8.711 -1.9785  0.3000  0.0589
 2581TIP3   OH229377   2.361   2.939   8.220 -0.0643 -0.2886  0.1509
 2581TIP3    H129378   2.286   2.987   8.255  0.2049 -0.7864  1.4749
 2581TIP3    H229379   2.355   2.951   8.125 -0.3578  1.8212  0.3850
 2582TIP3   OH229380   2.579   5.730   2.564  0.1609  0.1166 -0.0059
 2582TIP3    H129381   2.661   5.746   2.610 -0.0729 -1.4005  1.0218
 2582TIP3    H229382   2.517   5.706   2.633 -0.0152 -2.9981 -1.0706
 2583TIP3   OH229383   2.630   3.196   7.799 -0.2681  0.4471  0.4094
 2583TIP3    H129384   2.615   3.105   7.824 -0.3234  0.4578  0.4150
 2583TIP3    H229385   2.550   3.242   7.823 -1.6090 -0.0984 -2.5491
 2584TIP3   OH229386   3.423   5.383   7.370 -0.1808  0.4360 -0.1790
 2584TIP3    H129387   3.334   5.353   7.354 -0.3427 -0.3150  1.8052
 2584TIP3    H229388   3.413   5.457   7.430  0.5325  0.1522  0.3097
 2585TIP3   OH229389   6.373   5.119   8.873 -0.1088  0.2290 -0.0753
 2585TIP3    H129390   6.290   5.102   8.918 -0.5129 -1.5329 -1.3876
 2585TIP3    H229391   6.349   5.174   8.798  0.1912  1.0710  0.4244
 2586TIP3   OH229392   0.364   2.025   1.446  0.6100  0.6313 -0.1975
 2586TIP3    H129393   0.408   2.037   1.362  0.3678  0.4404 -0.3523
 2586TIP3    H229394   0.433   2.042   1.511  1.2676 -0.9514 -0.4332
 2587TIP3   OH229395   4.313   3.975   8.033  0.0949 -0.0773  0.0986
 2587TIP3    H129396   4.246   3.956   7.967  0.3974  0.6304 -0.4268
 2587TIP3    H229397   4.351   4.059   8.005 -0.3139  0.6367  1.6036
 2588TIP3   OH229398   0.447   0.705   0.029  0.0846  0.7449 -0.0807
 2588TIP3    H129399   0.495   0.735   0.106  1.6770 -2.0034  0.0988
 2588TIP3    H229400   0.355   0.714   0.053  0.5320  1.1979  1.5922
 2589TIP3   OH229401   1.931   3.148   0.483 -0.2387  0.4235  0.6328
 2589TIP3    H129402   1.878   3.228   0.487  0.4241  0.8784  0.5588
 2589TIP3    H229403   1.995   3.159   0.554  0.8841  0.7210 -0.3953
 2590TIP3   OH229404   5.112   5.421   8.441 -0.2073 -0.7231 -0.4878
 2590TIP3    H129405   5.064   5.497   8.408 -0.0145 -0.3844 -0.0025
 2590TIP3    H229406   5.186   5.412   8.381 -0.6265 -0.9814 -0.9791
 2591TIP3   OH229407   6.158   1.853   8.509  0.4294  1.1319  0.5767
 2591TIP3    H129408   6.191   1.793   8.442 -1.1683 -0.2619  0.9874
 2591TIP3    H229409   6.194   1.820   8.591  1.0547  1.8739  0.6188
 2592TIP3   OH229410   1.330   5.456   1.208  0.5971  0.2812  0.1298
 2592TIP3    H129411   1.318   5.445   1.114 -0.1879  0.3842  0.2171
 2592TIP3    H229412   1.244   5.480   1.241  0.8959  0.3717  0.8597
 2593TIP3   OH229413   0.363   4.761   7.763 -0.6927  0.1198 -0.1734
 2593TIP3    H129414   0.344   4.851   7.734 -0.2622  0.2812  0.0281
 2593TIP3    H229415   0.331   4.758   7.853 -0.2614  0.2254 -0.0151
 2594TIP3   OH229416   5.298   2.498   1.926  0.3954  0.5470  0.2339
 2594TIP3    H129417   5.289   2.522   1.834 -3.8265 -0.2231  0.2674
 2594TIP3    H229418   5.282   2.404   1.928 -1.1260  0.7853  1.8105
 2595TIP3   OH229419   2.311   1.118   1.756  0.0805 -0.0796 -0.2114
 2595TIP3    H129420   2.275   1.119   1.845  0.1097  0.6689 -0.2034
 2595TIP3    H229421   2.398   1.157   1.765  0.3711 -0.6556 -0.4551
 2596TIP3   OH229422   4.681   0.287   0.824  0.3288  0.0689  0.2331
 2596TIP3    H129423   4.738   0.234   0.767  0.2660  0.3164 -0.0598
 2596TIP3    H229424   4.599   0.238   0.827 -0.6166  1.3471 -2.0560
 2597TIP3   OH229425   6.778   4.443   7.237 -0.4226  0.6197  0.6750
 2597TIP3    H129426   6.753   4.526   7.198 -0.4898  0.0240 -0.6132
 2597TIP3    H229427   6.873   4.451   7.252 -0.4640  0.9883  0.7530
 2598TIP3   OH229428   1.353   2.204   7.038  0.9747  0.3902 -0.8619
 2598TIP3    H129429   1.315   2.262   6.972  1.6289  0.9410 -0.7719
 2598TIP3    H229430   1.428   2.165   6.994  0.4891 -0.4596 -0.9443
 2599TIP3   OH229431   1.429   0.905   7.170  0.4181 -0.8100  0.3865
 2599TIP3    H129432   1.393   0.992   7.157 -0.9470 -1.1855  1.4230
 2599TIP3    H229433   1.448   0.874   7.081  1.0486  0.5590  0.0108
 2600TIP3   OH229434   5.078   4.996   0.743 -0.3130  0.0328  0.3948
 2600TIP3    H129435   5.076   4.937   0.667 -1.1588 -2.4418  2.2129
 2600TIP3    H229436   5.170   5.020   0.752 -0.1796  0.3163 -1.3086
 2601TIP3   OH229437   3.255   1.926   0.603 -0.1293 -0.2217  0.7932
 2601TIP3    H129438   3.184   1.955   0.546  1.6308  0.9023 -0.9522
 2601TIP3    H229439   3.230   1.958   0.690 -1.6867  0.2373  0.2129
 2602TIP3   OH229440   0.840   3.285   0.073  0.9038 -0.2659 -0.0874
 2602TIP3    H129441   0.791   3.278  -0.009 -0.6336  1.2033  0.6387
 2602TIP3    H229442   0.932   3.277   0.048  0.4591  0.0790 -1.9451
 2603TIP3   OH229443   0.797   5.825   1.219 -0.3081  0.2117 -0.3265
 2603TIP3    H129444   0.797   5.737   1.181  0.4930  0.4555 -0.9322
 2603TIP3    H229445   0.886   5.857   1.205  0.0464  0.3127  1.8174
 2604TIP3   OH229446   5.916   2.394   0.905 -0.5282 -0.3649  0.2607
 2604TIP3    H129447   5.897   2.384   0.998  0.4869 -1.2594  0.3988
 2604TIP3    H229448   6.007   2.423   0.902 -0.3337 -1.0098 -0.4664
 2605TIP3   OH229449   4.285   4.220   1.070 -0.5219  0.0380  0.2268
 2605TIP3    H129450   4.332   4.163   1.010  0.9313 -1.2933  2.4757
 2605TIP3    H229451   4.204   4.173   1.089 -0.8634  0.3384 -0.4696
 2606TIP3   OH229452   3.694   0.029   7.745 -0.0647  0.5871  0.0314
 2606TIP3    H129453   3.609  -0.006   7.721 -0.1117  1.0399 -0.4854
 2606TIP3    H229454   3.675   0.116   7.781  0.2279  0.9823 -0.7354
 2607TIP3   OH229455   4.268   4.661   0.073 -0.0663 -0.0394  0.2334
 2607TIP3    H129456   4.313   4.652   0.156  0.8277 -3.5841 -0.4677
 2607TIP3    H229457   4.337   4.675   0.009 -0.1992 -2.2256 -0.4512
 2608TIP3   OH229458   3.946   0.445   0.936  0.4956 -0.3044 -0.0457
 2608TIP3    H129459   3.896   0.363   0.946  1.0861 -0.6154  0.4297
 2608TIP3    H229460   3.989   0.457   1.020  1.3904 -0.1577 -0.5135
 2609TIP3   OH229461   6.335   0.142   8.841 -0.3266 -0.2407 -0.0379
 2609TIP3    H129462   6.404   0.154   8.776 -0.3953  1.1084  0.1135
 2609TIP3    H229463   6.380   0.150   8.925 -0.4856 -0.4979  0.0730
 2610TIP3   OH229464   2.838   6.339   0.250 -0.3939  0.1449 -0.0266
 2610TIP3    H129465   2.895   6.395   0.197 -0.0809 -0.2948 -0.1653
 2610TIP3    H229466   2.898   6.295   0.311 -0.7744  0.8214  0.8631
 2611TIP3   OH229467   3.849   5.489   3.055  0.0673  0.8903  0.0343
 2611TIP3    H129468   3.908   5.414   3.061  1.4478  1.8970 -0.4068
 2611TIP3    H229469   3.887   5.545   2.987  0.4098  3.1085  1.9157
 2612TIP3   OH229470   3.823   5.697   1.776  0.4085 -0.3277 -0.2037
 2612TIP3    H129471   3.809   5.638   1.850 -0.9740 -0.3336 -0.4340
 2612TIP3    H229472   3.750   5.678   1.717  0.4018  1.0205 -0.6606
 2613TIP3   OH229473   0.679   4.130   7.697  0.2055  0.3342  0.3302
 2613TIP3    H129474   0.752   4.158   7.642  0.4326 -1.6738 -0.4981
 2613TIP3    H229475   0.708   4.147   7.787  2.2077 -1.3842  0.0930
 2614TIP3   OH229476   6.762   3.232   1.469 -0.1048  0.0297 -0.1002
 2614TIP3    H129477   6.823   3.199   1.402  0.3179  0.6387 -0.0243
 2614TIP3    H229478   6.811   3.302   1.512 -1.3571  1.4543 -0.9283
 2615TIP3   OH229479   3.528   1.376   0.494  0.1647  0.1652 -0.0005
 2615TIP3    H129480   3.482   1.334   0.421  0.7142 -0.3812 -0.0380
 2615TIP3    H229481   3.551   1.463   0.461 -0.3707  0.2545 -0.1596
 2616TIP3   OH229482   3.897   3.296   1.893 -0.1980 -0.0052 -0.0593
 2616TIP3    H129483   3.870   3.211   1.927 -2.7513  0.7823  0.0985
 2616TIP3    H229484   3.899   3.353   1.969  1.8524  0.0786 -0.1055
 2617TIP3   OH229485   4.752   0.544   7.888  0.2056 -0.2773  0.2461
 2617TIP3    H129486   4.785   0.498   7.811  1.2346 -0.2665  0.6655
 2617TIP3    H229487   4.667   0.504   7.905  1.3725 -2.5917  1.0433
 2618TIP3   OH229488   3.768   0.625   0.782 -0.2768  0.1409  0.2690
 2618TIP3    H129489   3.816   0.564   0.837 -0.8669 -1.7194 -1.1806
 2618TIP3    H229490   3.678   0.590   0.780 -0.3824  0.4212 -1.4402
 2619TIP3   OH229491   5.197   6.607   7.927 -0.1499 -0.4279 -0.0055
 2619TIP3    H129492   5.116   6.641   7.890  0.1842 -1.1123 -1.4598
 2619TIP3    H229493   5.248   6.684   7.951 -0.0582  0.0844 -1.7522
 2620TIP3   OH229494   5.841   3.852   1.821  0.1521  0.5204 -0.6845
 2620TIP3    H129495   5.907   3.839   1.752  1.1159 -3.3250  0.6896
 2620TIP3    H229496   5.766   3.801   1.792  0.1117 -0.1223  0.4927
 2621TIP3   OH229497   3.033   6.599   1.231 -0.1398 -0.2493 -0.0295
 2621TIP3    H129498   3.113   6.558   1.262  1.0389  0.1203 -2.3045
 2621TIP3    H229499   3.042   6.600   1.135 -1.5651  2.3467 -0.2446
 2622TIP3   OH229500   4.471   0.397   1.429  0.3870 -0.5698 -0.2500
 2622TIP3    H129501   4.486   0.390   1.524  0.6676  0.5404 -0.1948
 2622TIP3    H229502   4.399   0.460   1.421 -1.0277 -2.1692 -0.7190
 2623TIP3   OH229503   5.805   6.653   7.065  0.8078  0.0767 -0.1528
 2623TIP3    H129504   5.789   6.577   7.010  0.2926  0.5261 -0.6367
 2623TIP3    H229505   5.754   6.636   7.145  0.5816 -0.0210 -0.3176
 2624TIP3   OH229506   0.626   3.317   2.110  0.3512  0.2703 -0.9390
 2624TIP3    H129507   0.707   3.345   2.068 -1.0091  2.3144 -2.4019
 2624TIP3    H229508   0.571   3.287   2.037  0.0940 -2.0512  0.1350
 2625TIP3   OH229509   4.369   2.558   0.184 -0.1757  0.2311  0.1139
 2625TIP3    H129510   4.453   2.513   0.190  1.3510  2.0815 -3.6503
 2625TIP3    H229511   4.391   2.651   0.197 -1.9547  0.5903  0.7730
 2626TIP3   OH229512   1.197   5.584   8.867  0.2297  0.2832  0.2311
 2626TIP3    H129513   1.212   5.601   8.961  0.9726 -0.2366  0.2148
 2626TIP3    H229514   1.283   5.597   8.827 -0.1510  0.8116 -0.4336
 2627TIP3   OH229515   5.918   5.547   7.189  0.3798 -0.7738 -0.1026
 2627TIP3    H129516   5.851   5.529   7.123  0.3621 -1.5678  0.1188
 2627TIP3    H229517   5.999   5.557   7.139 -0.0338  1.1599 -0.4647
 2628TIP3   OH229518   5.588   0.125   7.859  0.5454 -0.2306 -0.4855
 2628TIP3    H129519   5.549   0.196   7.808 -1.7276 -2.0618 -1.4525
 2628TIP3    H229520   5.604   0.056   7.795  4.9910  0.0707 -0.0447
 2629TIP3   OH229521   3.386   3.356   2.350 -0.5166  0.5594 -0.8146
 2629TIP3    H129522   3.372   3.278   2.296 -0.9151  0.5331 -0.6810
 2629TIP3    H229523   3.335   3.340   2.429  1.6827 -0.3031  0.5047
 2630TIP3   OH229524   2.999   4.662   1.721 -0.4801  0.2376 -0.1857
 2630TIP3    H129525   2.981   4.720   1.795  0.3141 -0.0203  0.2213
 2630TIP3    H229526   2.914   4.624   1.699 -0.6432 -0.0976  0.9502
 2631TIP3   OH229527   0.949   0.064   0.360 -0.7885 -0.3593  0.8167
 2631TIP3    H129528   0.970  -0.028   0.376 -1.9940 -0.7695  0.1582
 2631TIP3    H229529   0.931   0.099   0.447 -1.0316 -0.9235  0.9996
 2632TIP3   OH229530   0.347   4.102   2.223 -0.1879  0.0081 -0.2616
 2632TIP3    H129531   0.265   4.151   2.233 -0.3711 -0.1679 -0.8457
 2632TIP3    H229532   0.398   4.126   2.300 -1.1042 -0.5127  0.5273
 2633TIP3   OH229533   0.373   5.455   8.579  0.1916 -0.1741 -0.2185
 2633TIP3    H129534   0.311   5.517   8.541 -0.1006 -1.1312 -1.3696
 2633TIP3    H229535   0.363   5.376   8.526  2.5949 -0.2602 -0.6352
 2634TIP3   OH229536   4.349   3.851   2.389  0.2554 -0.0490  0.0174
 2634TIP3    H129537   4.393   3.893   2.463 -1.0824  0.4954  0.5281
 2634TIP3    H229538   4.372   3.906   2.314  1.4826 -0.5092  0.0342
 2635TIP3   OH229539   1.819   0.644   0.838  0.4542 -0.6259  0.4101
 2635TIP3    H129540   1.764   0.652   0.915  1.1636 -1.2915  1.0067
 2635TIP3    H229541   1.760   0.613   0.769 -0.1687 -0.0907  0.7011
 2636TIP3   OH229542   0.272   5.908   8.556  0.9177 -0.7712  0.1254
 2636TIP3    H129543   0.345   5.960   8.521 -0.3335  2.5958  2.0563
 2636TIP3    H229544   0.296   5.892   8.647 -0.7910  0.7270  0.9067
 2637TIP3   OH229545   5.381   3.895   1.382 -0.6891 -0.7153  0.6225
 2637TIP3    H129546   5.390   3.954   1.457  1.0750  0.3988 -0.3853
 2637TIP3    H229547   5.395   3.951   1.306  0.4273 -2.3217 -0.4100
 2638TIP3   OH229548   4.765   2.808   2.114 -0.9152  0.2125  0.2497
 2638TIP3    H129549   4.844   2.770   2.152 -1.2073 -1.2101 -0.5127
 2638TIP3    H229550   4.786   2.901   2.103  1.1189 -0.3520 -1.0803
 2639TIP3   OH229551   5.071   5.094   2.027  0.6628  0.1564 -0.4476
 2639TIP3    H129552   4.990   5.073   1.981  1.9383 -1.7762 -1.9799
 2639TIP3    H229553   5.063   5.052   2.112  0.2275 -0.4320 -0.7750
 2640TIP3   OH229554   2.418   4.292   1.415  0.3206  0.0039 -0.0908
 2640TIP3    H129555   2.374   4.207   1.410 -0.1679  0.1355  1.4147
 2640TIP3    H229556   2.359   4.352   1.369  0.4024 -0.3689 -0.6899
 2641TIP3   OH229557   1.961   6.441   0.279  0.1772 -0.3240  0.3101
 2641TIP3    H129558   2.008   6.392   0.212 -0.5298 -0.0275 -0.4275
 2641TIP3    H229559   2.001   6.414   0.361  1.1766 -0.5674 -0.2406
 2642TIP3   OH229560   1.137   6.613   0.511  0.2132 -0.0112  0.2045
 2642TIP3    H129561   1.152   6.632   0.604 -1.4042  0.6383  0.3566
 2642TIP3    H229562   1.075   6.540   0.512  1.1995 -0.8895 -0.3950
 2643TIP3   OH229563   2.000   6.733   0.205 -0.8086 -0.1777  0.3892
 2643TIP3    H129564   2.004   6.647   0.246  0.1382 -0.3933 -0.1101
 2643TIP3    H229565   2.024   6.795   0.274 -0.4268 -0.4163  0.4685
 2644TIP3   OH229566   6.628   5.935   8.071 -0.5200 -0.5837 -0.4225
 2644TIP3    H129567   6.690   5.959   8.140  1.4703  1.0676 -2.6062
 2644TIP3    H229568   6.581   6.016   8.052  0.4550 -0.4299 -2.3752
 2645TIP3   OH229569   6.315   4.070   0.956 -0.2848 -0.0795  0.1375
 2645TIP3    H129570   6.279   4.041   1.040  0.1002  0.3388  0.4525
 2645TIP3    H229571   6.341   3.990   0.912  0.5999 -0.2419  0.9221
 2646TIP3   OH229572   0.741   3.019   1.827 -0.2199 -0.1094 -0.4270
 2646TIP3    H129573   0.797   2.949   1.859  0.2046  0.5571  0.3209
 2646TIP3    H229574   0.655   3.002   1.865 -0.1659 -0.3279 -0.4054
 2647TIP3   OH229575   3.216   1.992   7.910 -0.3970 -0.5511 -1.1643
 2647TIP3    H129576   3.145   2.036   7.862  0.8354  2.8378 -0.1521
 2647TIP3    H229577   3.201   2.015   8.001  2.1763  0.6221 -0.9735
 2648TIP3   OH229578   2.334   0.279   8.468 -0.2594  0.6321  0.4738
 2648TIP3    H129579   2.405   0.336   8.441  0.0385  0.1104  0.1416
 2648TIP3    H229580   2.316   0.304   8.559  0.2278  0.8855  0.5015
 2649TIP3   OH229581   1.402   4.458   2.257  0.2643 -0.0497  0.5710
 2649TIP3    H129582   1.333   4.395   2.279  0.1135  0.4162  1.4746
 2649TIP3    H229583   1.456   4.463   2.336  1.3133 -0.3566 -0.0913
 2650TIP3   OH229584   1.993   3.044   1.515 -0.3537 -0.7106 -0.3438
 2650TIP3    H129585   2.079   3.087   1.516 -1.4260  1.5984 -0.0810
 2650TIP3    H229586   1.968   3.039   1.607 -1.5819  1.0899 -0.5303
 2651TIP3   OH229587   3.311   4.742   8.048 -0.3544 -0.5378 -0.1533
 2651TIP3    H129588   3.225   4.784   8.041  0.5989  1.4136 -1.1493
 2651TIP3    H229589   3.329   4.742   8.142 -1.6434 -1.4907  0.1274
 2652TIP3   OH229590   5.978   3.423   8.358 -0.2956  0.1991  0.2935
 2652TIP3    H129591   6.038   3.493   8.385 -0.4265  0.1855  0.6303
 2652TIP3    H229592   5.907   3.427   8.422 -0.3569 -0.1729  0.2482
 2653TIP3   OH229593   5.745   2.396   7.354 -0.2702 -0.3502 -0.2331
 2653TIP3    H129594   5.788   2.442   7.283  0.2018 -0.6057 -0.1136
 2653TIP3    H229595   5.801   2.411   7.430 -1.0700  0.4086  0.2275
 2654TIP3   OH229596   6.285   5.479   0.814 -0.0356 -0.3402  0.0326
 2654TIP3    H129597   6.312   5.560   0.770  0.0216 -0.7810 -0.7582
 2654TIP3    H229598   6.202   5.502   0.856 -0.6558 -0.2089 -1.2370
 2655TIP3   OH229599   4.813   3.892   2.019 -0.1455  0.4238 -0.4669
 2655TIP3    H129600   4.909   3.895   2.016 -0.0461 -1.2924 -0.3929
 2655TIP3    H229601   4.793   3.878   2.112 -0.4293  0.2912 -0.5462
 2656TIP3   OH229602   6.432   5.415   1.696  0.0817  0.4322 -0.2666
 2656TIP3    H129603   6.385   5.471   1.758 -0.5691  1.0234 -1.2601
 2656TIP3    H229604   6.518   5.457   1.687  0.1210  0.4348  0.1097
 2657TIP3   OH229605   3.755   0.967   2.314 -0.1854  0.1498 -0.0157
 2657TIP3    H129606   3.811   0.900   2.353  1.5508  1.4659 -0.1049
 2657TIP3    H229607   3.689   0.986   2.381  0.4511 -0.3229  0.7567
 2658TIP3   OH229608   6.246   1.004   0.161 -0.5319  0.2882 -0.1437
 2658TIP3    H129609   6.316   1.056   0.121 -0.0611  0.8899  1.4004
 2658TIP3    H229610   6.247   1.029   0.253 -2.5409  0.0208 -0.0055
 2659TIP3   OH229611   2.335   5.328   0.917  0.7053 -0.2209 -0.5273
 2659TIP3    H129612   2.272   5.376   0.864  0.9360  1.5764  0.7243
 2659TIP3    H229613   2.352   5.385   0.992  1.7933 -1.8377  0.5334
 2660TIP3   OH229614   3.368   4.057   7.862  0.0554 -0.4231  0.4280
 2660TIP3    H129615   3.346   3.965   7.847  0.1649 -0.7227  1.9186
 2660TIP3    H229616   3.288   4.095   7.899  0.5069 -0.3336  1.3360
 2661TIP3   OH229617   3.321   1.839   2.367  0.3787  0.2523  0.5308
 2661TIP3    H129618   3.226   1.829   2.362  0.5399 -1.0182 -0.4752
 2661TIP3    H229619   3.339   1.921   2.322 -0.1232 -0.2526 -0.6239
 2662TIP3   OH229620   4.804   1.199   0.005 -0.2174  0.2083  0.2000
 2662TIP3    H129621   4.777   1.108  -0.010 -0.0081 -0.3001  2.4494
 2662TIP3    H229622   4.862   1.220  -0.068 -2.2372 -0.5708 -1.7447
 2663TIP3   OH229623   0.616   2.359   0.842  0.0058  0.0611 -0.2994
 2663TIP3    H129624   0.658   2.276   0.819  0.2855  0.8991 -3.2379
 2663TIP3    H229625   0.682   2.426   0.822 -1.3558  1.1659 -1.3639
 2664TIP3   OH229626   3.640   5.332   3.094  0.1873 -0.0647 -0.0467
 2664TIP3    H129627   3.591   5.374   3.165 -0.4263 -0.5812 -0.1478
 2664TIP3    H229628   3.717   5.387   3.082  0.9439 -0.6252  1.8467
 2665TIP3   OH229629   6.095   2.636   1.961  0.3936  0.5604  0.0676
 2665TIP3    H129630   6.144   2.554   1.945  0.9291  0.9730 -0.4711
 2665TIP3    H229631   6.158   2.705   1.941 -0.8064  1.1417 -2.0615
 2666TIP3   OH229632   6.349   0.787   7.157  0.4605 -0.2942  0.0822
 2666TIP3    H129633   6.358   0.879   7.132 -0.2371 -0.1596  0.3010
 2666TIP3    H229634   6.255   0.775   7.170  0.6782 -0.6969  1.3827
 2667TIP3   OH229635   6.397   6.739   1.588 -0.8320  0.1686 -0.4960
 2667TIP3    H129636   6.458   6.668   1.610 -1.0317  0.4837  1.2181
 2667TIP3    H229637   6.369   6.720   1.499 -0.0436 -1.3001 -0.4579
 2668TIP3   OH229638   1.706   5.559   0.325 -0.1983  0.5862  0.7198
 2668TIP3    H129639   1.712   5.467   0.351 -2.3103  0.5645  1.2914
 2668TIP3    H229640   1.659   5.557   0.242 -0.7874  1.1782  1.0357
 2669TIP3   OH229641   5.488   1.250   7.806  0.5291 -0.5732  0.4739
 2669TIP3    H129642   5.568   1.287   7.844  0.1328  0.4595  0.3343
 2669TIP3    H229643   5.495   1.267   7.713  0.0501 -0.2690  0.4883
 2670TIP3   OH229644   2.280   5.410   8.069  0.3838 -0.1921  1.0710
 2670TIP3    H129645   2.329   5.357   8.132  0.0759 -1.1123  0.5546
 2670TIP3    H229646   2.193   5.418   8.108  0.4264 -0.0761  1.1431
 2671TIP3   OH229647   2.988   3.583   1.435 -0.2224  0.1154 -0.0738
 2671TIP3    H129648   3.018   3.542   1.516 -1.1866  1.2437  0.8753
 2671TIP3    H229649   2.904   3.542   1.416 -0.9895  1.2972  0.6499
 2672TIP3   OH229650   5.547   1.501   0.973 -0.2743  0.0984  0.7186
 2672TIP3    H129651   5.592   1.494   1.057  0.8047  2.3934  0.4092
 2672TIP3    H229652   5.592   1.440   0.916 -0.6510 -1.0656  1.6340
 2673TIP3   OH229653   1.846   6.086   6.931  0.0929  0.2556  0.1153
 2673TIP3    H129654   1.760   6.045   6.936  0.3733 -0.2946  0.5803
 2673TIP3    H229655   1.838   6.165   6.986 -0.5613  1.0603 -1.0948
 2674TIP3   OH229656   3.907   0.423   7.356 -0.2668 -0.0583  0.5082
 2674TIP3    H129657   3.843   0.418   7.427 -1.4821  1.6817 -0.3849
 2674TIP3    H229658   3.880   0.500   7.305  1.7712 -0.0599 -0.6719
 2675TIP3   OH229659   6.276   1.448   7.854 -0.1176 -0.3221 -0.0921
 2675TIP3    H129660   6.316   1.489   7.777 -0.5801 -0.2386 -0.2914
 2675TIP3    H229661   6.342   1.455   7.922  0.4028 -0.6376 -0.5578
 2676TIP3   OH229662   1.809   6.419   1.076  0.5281 -0.1033  0.0567
 2676TIP3    H129663   1.758   6.418   1.157 -2.9971  1.3365 -1.9086
 2676TIP3    H229664   1.807   6.329   1.044 -2.5628  0.1723 -0.8226
 2677TIP3   OH229665   2.586   4.755   1.081 -0.7780  0.5331  0.7520
 2677TIP3    H129666   2.654   4.811   1.118  1.0370  0.9072 -2.7358
 2677TIP3    H229667   2.522   4.816   1.044 -0.6206  0.2589  0.0145
 2678TIP3   OH229668   1.367   2.419   2.086  0.0038  0.2377 -0.0869
 2678TIP3    H129669   1.456   2.435   2.052  0.3228  1.1484  1.1085
 2678TIP3    H229670   1.379   2.408   2.180 -0.8314 -2.4785 -0.2255
 2679TIP3   OH229671   4.982   6.411   7.652 -0.5279  0.3333 -1.0797
 2679TIP3    H129672   4.964   6.370   7.567 -0.4039 -0.2584 -0.8285
 2679TIP3    H229673   5.078   6.418   7.654 -0.4204 -0.9648 -0.4097
 2680TIP3   OH229674   6.198   1.894   2.011  0.3119  0.4067  0.6119
 2680TIP3    H129675   6.202   1.944   1.929  1.9767  0.4058  0.6451
 2680TIP3    H229676   6.240   1.952   2.076  1.0112 -0.4561  0.9555
 2681TIP3   OH229677   0.889   2.315   1.982  0.3220  0.4929  0.2627
 2681TIP3    H129678   0.917   2.383   1.921  1.7363 -1.2462 -1.1268
 2681TIP3    H229679   0.936   2.237   1.954  0.4658 -0.5733  3.1785
 2682TIP3   OH229680   0.359   4.204   1.385 -0.3967 -0.3026  0.4306
 2682TIP3    H129681   0.357   4.235   1.294 -1.3188 -0.2735  0.4483
 2682TIP3    H229682   0.413   4.268   1.431 -0.2240 -0.1163 -0.0285
 2683TIP3   OH229683   6.600   5.665   2.100 -0.1819 -0.0945 -0.9268
 2683TIP3    H129684   6.546   5.663   2.179  0.5342 -0.0316 -0.4309
 2683TIP3    H229685   6.655   5.743   2.111 -0.0740 -0.0914 -1.4820
 2684TIP3   OH229686   3.253   0.648   7.397  0.0395  0.0276 -0.4759
 2684TIP3    H129687   3.327   0.675   7.342 -0.0167  1.2628  0.0165
 2684TIP3    H229688   3.237   0.724   7.453 -1.8172 -0.0969 -0.7940
 2685TIP3   OH229689   4.507   6.696   2.634 -0.1588  0.9511 -0.0486
 2685TIP3    H129690   4.419   6.715   2.600  0.4161  1.7419 -1.1632
 2685TIP3    H229691   4.511   6.600   2.638 -0.0007  0.7423 -3.0502
 2686TIP3   OH229692   2.230   3.731   7.716  0.2857 -0.0009 -0.0921
 2686TIP3    H129693   2.233   3.718   7.621  0.1072  2.0314 -0.4125
 2686TIP3    H229694   2.297   3.797   7.733 -0.3883  0.4046  1.0529
 2687TIP3   OH229695   3.481   1.679   2.501 -0.2510  0.4944  0.6355
 2687TIP3    H129696   3.419   1.721   2.441 -0.4349  0.9144  1.1086
 2687TIP3    H229697   3.428   1.655   2.577 -0.1049 -0.4340  0.4538
 2688TIP3   OH229698   5.192   0.384   1.281  0.1842 -0.5253 -0.6524
 2688TIP3    H129699   5.126   0.415   1.343 -1.6333 -3.1211 -1.1268
 2688TIP3    H229700   5.201   0.455   1.218 -1.6464  0.2119 -0.1504
 2689TIP3   OH229701   4.894   0.558   7.105  0.2619  0.4964 -0.0790
 2689TIP3    H129702   4.904   0.653   7.114 -0.2591  0.4641  0.9818
 2689TIP3    H229703   4.833   0.548   7.032 -2.8634  1.1700  2.2217
 2690TIP3   OH229704   4.584   1.957   2.076  0.1902 -0.2018  0.8317
 2690TIP3    H129705   4.618   1.901   2.146 -0.3210 -1.2674  0.2485
 2690TIP3    H229706   4.509   2.002   2.115 -2.8518 -3.9520 -0.0759
 2691TIP3   OH229707   3.464   0.834   8.235 -0.2393  0.2614 -0.0226
 2691TIP3    H129708   3.530   0.798   8.295  0.1148  1.0059  0.0529
 2691TIP3    H229709   3.497   0.814   8.148 -0.6230 -0.5920  0.0165
 2692TIP3   OH229710   1.637   5.663   8.056 -0.1724 -0.0313  0.1686
 2692TIP3    H129711   1.671   5.731   7.998  0.0422 -0.5344 -0.2991
 2692TIP3    H229712   1.592   5.711   8.126 -0.7873  0.5770 -0.6315
 2693TIP3   OH229713   1.744   1.814   2.157  0.3472  0.0855  0.4997
 2693TIP3    H129714   1.743   1.725   2.191  2.9988 -0.5641 -0.8483
 2693TIP3    H229715   1.788   1.865   2.225 -1.2317  0.4432  1.3016
 2694TIP3   OH229716   6.666   1.632   7.141 -0.7678  0.4330  0.3403
 2694TIP3    H129717   6.706   1.718   7.156 -1.7375  1.1796 -1.0694
 2694TIP3    H229718   6.720   1.592   7.072 -0.4056 -0.0358  0.8909
 2695TIP3   OH229719   4.939   6.632   1.895 -0.0662  0.2220  0.2965
 2695TIP3    H129720   4.878   6.618   1.967 -1.5550  1.3649 -0.6693
 2695TIP3    H229721   4.948   6.546   1.854 -1.8748  0.1970 -0.1393
 2696TIP3   OH229722   1.344   3.219   8.500 -0.6753 -0.2857  0.0556
 2696TIP3    H129723   1.409   3.255   8.560 -0.8475 -1.7818  1.2018
 2696TIP3    H229724   1.371   3.250   8.414 -0.1197  1.4843  0.8233
 2697TIP3   OH229725   6.599   1.869   8.110  0.4012 -0.1356  0.9581
 2697TIP3    H129726   6.522   1.926   8.101  0.0418 -0.8338 -0.6393
 2697TIP3    H229727   6.611   1.861   8.205  0.5906  2.7436  1.2592
 2698TIP3   OH229728   1.987   0.699   7.585 -0.6919 -0.3464  0.1512
 2698TIP3    H129729   2.069   0.749   7.591  0.5930 -1.7379 -3.2498
 2698TIP3    H229730   1.929   0.755   7.534 -0.3720 -0.9558 -0.9173
 2699TIP3   OH229731   2.485   2.206   1.684  0.3549  0.4906 -0.1362
 2699TIP3    H129732   2.536   2.135   1.723 -1.0442  0.0318  0.9302
 2699TIP3    H229733   2.485   2.186   1.590 -0.1964 -1.0498  0.1707
 2700TIP3   OH229734   5.208   3.474   8.170  0.1676  0.3119 -0.1276
 2700TIP3    H129735   5.303   3.465   8.180  0.3804 -0.3168 -2.2360
 2700TIP3    H229736   5.183   3.399   8.116 -1.5538  0.4684  0.4074
 2701TIP3   OH229737   5.294   1.329   0.414  0.2910  0.4611  0.1161
 2701TIP3    H129738   5.225   1.276   0.453 -1.1223  1.4822 -0.8747
 2701TIP3    H229739   5.355   1.266   0.376 -0.8142 -0.4639 -0.1766
 2702TIP3   OH229740   1.611   1.358   0.178 -0.2063  0.0010 -0.6876
 2702TIP3    H129741   1.686   1.378   0.121  0.1331  0.9365  0.0551
 2702TIP3    H229742   1.538   1.346   0.118  0.2701  0.3647 -1.3598
 2703TIP3   OH229743   3.427   5.565   7.582 -0.0511 -0.2744 -0.1237
 2703TIP3    H129744   3.408   5.552   7.675 -1.6908 -1.4614 -0.5584
 2703TIP3    H229745   3.388   5.650   7.561  1.1306  0.4326  0.4379
 2704TIP3   OH229746   5.140   0.834   1.236 -0.2037  0.3264  0.2477
 2704TIP3    H129747   5.125   0.925   1.210 -0.4740  0.6608  1.5290
 2704TIP3    H229748   5.222   0.837   1.286  0.2701 -0.2942 -0.4727
 2705TIP3   OH229749   0.090   1.355   1.698  0.4102  0.0371 -0.0630
 2705TIP3    H129750   0.035   1.315   1.631 -1.4224 -0.2054  1.5070
 2705TIP3    H229751   0.041   1.432   1.727  1.2376  0.2449  0.8667
 2706TIP3   OH229752   4.903   3.666   7.722  0.6366  0.7073  0.1811
 2706TIP3    H129753   4.983   3.703   7.682  0.4996  2.2554  1.2253
 2706TIP3    H229754   4.847   3.742   7.737  0.0090 -0.0290  1.7785
 2707TIP3   OH229755   0.390   4.493   7.695  0.3316  0.3725  0.0298
 2707TIP3    H129756   0.390   4.583   7.727  0.6589 -0.3181  2.1326
 2707TIP3    H229757   0.474   4.458   7.724 -0.1551 -0.8644  0.0025
 2708TIP3   OH229758   4.220   4.112   7.118 -0.3106 -0.2231  0.0903
 2708TIP3    H129759   4.223   4.046   7.187 -1.6794  0.6771  1.0582
 2708TIP3    H229760   4.166   4.072   7.050 -0.1586 -0.5441  0.1532
 2709TIP3   OH229761   5.074   0.087   8.430 -0.2608 -0.1101  0.3446
 2709TIP3    H129762   5.019   0.152   8.386 -0.4833  0.1003  0.9347
 2709TIP3    H229763   5.164   0.114   8.409 -0.3697 -0.2960 -0.3863
 2710TIP3   OH229764   4.100   4.894   2.036  0.2399 -0.8252 -0.1468
 2710TIP3    H129765   4.193   4.897   2.016  0.8572  0.0534  2.5288
 2710TIP3    H229766   4.086   4.807   2.074  0.5529 -0.0916  1.7478
 2711TIP3   OH229767   3.098   0.409   0.684  0.1690 -0.0832  0.1251
 2711TIP3    H129768   3.065   0.470   0.617 -0.8068 -0.7117  0.0153
 2711TIP3    H229769   3.103   0.461   0.764 -1.6797 -0.1021  0.2848
 2712TIP3   OH229770   1.320   4.097   1.410  0.4484  0.1446 -0.2827
 2712TIP3    H129771   1.393   4.054   1.366  0.5989  1.7812 -1.7561
 2712TIP3    H229772   1.290   4.163   1.347 -0.9655  0.9081  1.1175
 2713TIP3   OH229773   5.096   5.934   2.940 -0.6496 -0.3149 -0.3994
 2713TIP3    H129774   5.013   5.898   2.972 -0.5431 -0.3706 -0.1898
 2713TIP3    H229775   5.139   5.859   2.897  0.0308 -0.7116  0.9164
 2714TIP3   OH229776   4.906   2.266   8.668 -0.3867 -0.0475  0.2386
 2714TIP3    H129777   4.822   2.219   8.659 -0.1025 -0.4645 -0.3430
 2714TIP3    H229778   4.915   2.281   8.762 -0.8951 -0.4165  0.3545
 2715TIP3   OH229779   4.007   1.668   1.368 -0.2283  0.3280  0.7750
 2715TIP3    H129780   3.929   1.724   1.364 -1.2580 -1.0951  0.2368
 2715TIP3    H229781   3.991   1.610   1.443  0.2576 -0.0642  0.5806
 2716TIP3   OH229782   3.163   3.994   0.012  0.3680 -0.2874  0.1740
 2716TIP3    H129783   3.223   3.932  -0.029  1.5373  0.0778  1.2764
 2716TIP3    H229784   3.146   3.958   0.099  2.0464  1.4760  1.3080
 2717TIP3   OH229785   3.892   5.722   2.827  0.5915 -0.1111  0.4525
 2717TIP3    H129786   3.869   5.812   2.806  0.3931 -0.1745  0.3901
 2717TIP3    H229787   3.860   5.671   2.752  2.3421 -0.0315 -0.3896
 2718TIP3   OH229788   0.734   1.184   1.847  0.3683 -0.0478  0.0257
 2718TIP3    H129789   0.808   1.126   1.827 -0.9011 -2.2163  1.3040
 2718TIP3    H229790   0.660   1.125   1.861 -0.7454  1.7878  2.5751
 2719TIP3   OH229791   3.507   5.429   7.827  0.2825  0.5803  0.1415
 2719TIP3    H129792   3.530   5.392   7.742  2.4556  1.2441  0.3699
 2719TIP3    H229793   3.476   5.354   7.878  0.0102 -0.0170 -0.8865
 2720TIP3   OH229794   1.442   3.098   3.028 -0.0542 -0.1657  0.3825
 2720TIP3    H129795   1.416   3.025   3.084  2.4565 -1.3472  0.1239
 2720TIP3    H229796   1.379   3.096   2.955 -0.6846 -1.3617  0.9257
 2721TIP3   OH229797   5.468   5.530   6.650  0.2162 -0.1245 -0.2328
 2721TIP3    H129798   5.517   5.609   6.670  1.2452 -0.3563 -1.6542
 2721TIP3    H229799   5.410   5.556   6.578 -1.5714  0.0617  1.2131
 2722TIP3   OH229800   0.237   1.611   2.029 -0.1687  0.3473  0.4737
 2722TIP3    H129801   0.168   1.553   2.061 -1.6354  1.5521 -0.3533
 2722TIP3    H229802   0.273   1.565   1.952  0.8026 -0.8116  1.5667
 2723TIP3   OH229803   3.161   5.917   0.928  0.6083  0.1323 -0.0847
 2723TIP3    H129804   3.133   5.830   0.957  3.5984 -0.6816  0.7148
 2723TIP3    H229805   3.117   5.929   0.843 -0.0259 -2.0590 -0.1303
 2724TIP3   OH229806   2.613   1.148   8.569 -0.0775 -0.4235 -0.1163
 2724TIP3    H129807   2.687   1.203   8.541 -0.7089  0.9011  0.7180
 2724TIP3    H229808   2.649   1.094   8.639  0.0873  0.3345  0.4031
 2725TIP3   OH229809   0.016   0.279   2.008 -0.2321 -0.0904  0.0309
 2725TIP3    H129810  -0.047   0.337   2.050  0.6200  0.4091  0.6587
 2725TIP3    H229811   0.002   0.292   1.914 -0.3034  0.8641  0.1620
 2726TIP3   OH229812   3.354   2.137   7.684  0.2918  0.1753 -0.1922
 2726TIP3    H129813   3.371   2.059   7.736 -2.1240 -1.1055 -1.1528
 2726TIP3    H229814   3.311   2.197   7.745 -2.5038 -1.3101 -0.5095
 2727TIP3   OH229815   4.780   5.203   7.425  0.1721 -0.8181  0.0102
 2727TIP3    H129816   4.807   5.286   7.386 -2.3381  0.9964  1.8290
 2727TIP3    H229817   4.743   5.154   7.351 -4.1362  2.3703 -0.3926
 2728TIP3   OH229818   5.712   4.733   1.847  0.4317 -0.0147  0.0519
 2728TIP3    H129819   5.735   4.655   1.898 -0.6610  0.5079  1.3848
 2728TIP3    H229820   5.797   4.771   1.824  0.9851  0.3027  2.3932
 2729TIP3   OH229821   1.675   1.737   7.543 -0.0561  0.6411  0.4600
 2729TIP3    H129822   1.699   1.829   7.540 -0.7779  0.8664  1.5300
 2729TIP3    H229823   1.698   1.704   7.456  3.7439  0.9138  1.1940
 2730TIP3   OH229824   4.647   0.705   0.956 -0.3085 -0.1951 -0.0641
 2730TIP3    H129825   4.609   0.628   0.998 -1.0211 -0.1754 -0.6538
 2730TIP3    H229826   4.716   0.734   1.016 -0.3316 -1.0271  0.3745
 2731TIP3   OH229827   2.142   4.453   2.112 -0.3068 -0.2095 -0.0874
 2731TIP3    H129828   2.184   4.379   2.067  3.0023  1.1741  0.4535
 2731TIP3    H229829   2.102   4.413   2.190 -1.4405 -1.8372 -1.4248
 2732TIP3   OH229830   6.623   4.297   8.930 -0.6561  0.3985  0.0628
 2732TIP3    H129831   6.551   4.307   8.867  0.1359  0.0331 -0.9336
 2732TIP3    H229832   6.663   4.384   8.935  0.1779  0.1124 -1.0917
 2733TIP3   OH229833   6.302   6.647   8.178 -0.0792 -0.4538 -0.2685
 2733TIP3    H129834   6.296   6.619   8.087  0.9546  0.2021 -0.5621
 2733TIP3    H229835   6.216   6.686   8.197  0.0025  0.2494 -1.2669
 2734TIP3   OH229836   6.097   4.000   8.521 -0.1175  0.1306  0.4533
 2734TIP3    H129837   6.181   4.006   8.475 -1.3212  1.4171 -1.7440
 2734TIP3    H229838   6.079   4.090   8.549 -1.3275  0.1275 -0.2477
 2735TIP3   OH229839   5.077   4.041   1.729 -0.3381  0.4115 -0.4122
 2735TIP3    H129840   5.005   3.984   1.702 -0.4762  0.8160 -0.9156
 2735TIP3    H229841   5.071   4.044   1.825 -0.9505  0.3875 -0.4467
 2736TIP3   OH229842   5.551   1.907   0.062  0.2691 -0.1134 -0.2666
 2736TIP3    H129843   5.625   1.849   0.078  0.6148  0.6280  0.9316
 2736TIP3    H229844   5.511   1.919   0.148  0.0643  1.2299 -0.5322
 2737TIP3   OH229845   2.645   2.571   8.282  0.1445 -0.5230  0.1110
 2737TIP3    H129846   2.619   2.528   8.363 -1.7123  1.1939  0.5201
 2737TIP3    H229847   2.603   2.657   8.286 -0.4940 -0.5883 -2.9294
 2738TIP3   OH229848   1.681   5.889   7.405  0.1562 -0.3395 -0.8680
 2738TIP3    H129849   1.628   5.821   7.363 -0.2853 -0.4323 -0.1702
 2738TIP3    H229850   1.650   5.971   7.367  0.9706 -0.5362 -2.0213
 2739TIP3   OH229851   6.277   4.656   0.662 -0.1124  0.1849  0.4375
 2739TIP3    H129852   6.241   4.568   0.670  0.5979  0.0493  3.0658
 2739TIP3    H229853   6.201   4.714   0.665 -0.5691 -0.2817 -1.1606
 2740TIP3   OH229854   4.204   0.041   1.952 -0.0451  0.2331  0.3389
 2740TIP3    H129855   4.131   0.092   1.987  0.4476  0.2621  1.3674
 2740TIP3    H229856   4.282   0.089   1.980  0.3917 -0.3456  0.1354
 2741TIP3   OH229857   1.112   5.261   2.760 -0.3361  0.2934  0.0049
 2741TIP3    H129858   1.075   5.202   2.694  1.4739  1.0421 -1.8170
 2741TIP3    H229859   1.196   5.221   2.783 -0.5824  0.4712  1.2760
 2742TIP3   OH229860   2.984   1.772   0.326 -0.3819  0.3562  0.5078
 2742TIP3    H129861   2.900   1.725   0.331 -0.7625  1.1167  3.5855
 2742TIP3    H229862   3.048   1.705   0.301 -1.8348 -0.2144 -2.0551
 2743TIP3   OH229863   0.616   0.639   2.232 -0.0274  0.2927 -0.2183
 2743TIP3    H129864   0.630   0.576   2.161 -1.6655  0.9010 -1.1503
 2743TIP3    H229865   0.704   0.665   2.258  0.6505 -1.2165 -0.8637
 2744TIP3   OH229866   2.657   6.240   1.674 -0.1172 -0.3673  0.4168
 2744TIP3    H129867   2.575   6.204   1.639  0.5982 -1.0982 -0.5810
 2744TIP3    H229868   2.650   6.334   1.660  0.0493 -0.6060 -1.5948
 2745TIP3   OH229869   1.683   0.956   6.670  0.9513  0.0558  0.0126
 2745TIP3    H129870   1.665   0.876   6.719  2.7861 -0.0641  0.5718
 2745TIP3    H229871   1.727   0.925   6.591  1.4210  0.4924  0.1034
 2746TIP3   OH229872   0.196   3.993   8.860  0.3320 -0.6714  0.1660
 2746TIP3    H129873   0.161   3.936   8.791  1.1729 -0.8351 -0.1390
 2746TIP3    H229874   0.290   3.993   8.845  0.3568  0.8507  0.1219
 2747TIP3   OH229875   6.667   4.530   1.600 -0.0096 -0.0227 -1.2802
 2747TIP3    H129876   6.631   4.509   1.514 -4.1644  0.2232  0.1608
 2747TIP3    H229877   6.612   4.601   1.632  1.0263 -0.4559  1.7842
 2748TIP3   OH229878   1.028   6.584   0.821 -0.2707  0.7591  0.5908
 2748TIP3    H129879   1.005   6.667   0.780 -2.5901  0.4107  1.0168
 2748TIP3    H229880   0.945   6.536   0.824  0.7879 -1.1044  1.3989
 2749TIP3   OH229881   4.557   4.476   1.177  0.3547 -0.0223 -0.0029
 2749TIP3    H129882   4.554   4.449   1.268 -0.2789  1.0425  0.3105
 2749TIP3    H229883   4.650   4.480   1.156  0.5475  0.6173  0.8920
 2750TIP3   OH229884   5.408   1.010   8.183  0.3788  0.7046  0.2924
 2750TIP3    H129885   5.375   0.953   8.252  2.6135  0.0552  0.9248
 2750TIP3    H229886   5.373   1.097   8.204  0.3774  0.3602  1.8015
 2751TIP3   OH229887   3.543   4.531   0.439 -0.4735  0.4950 -0.2643
 2751TIP3    H129888   3.576   4.479   0.511  1.3856  1.4685 -0.3604
 2751TIP3    H229889   3.560   4.479   0.361  0.1069  0.6433 -0.2387
 2752TIP3   OH229890   4.395   1.791   7.185 -0.1460  0.5105 -0.4396
 2752TIP3    H129891   4.340   1.779   7.263  1.5410  1.1457  0.9038
 2752TIP3    H229892   4.449   1.711   7.182 -1.0327 -0.0743 -1.7030
 2753TIP3   OH229893   1.637   2.603   0.461  0.4666 -0.0525  0.7356
 2753TIP3    H129894   1.617   2.694   0.442  0.6694 -0.1179  0.1926
 2753TIP3    H229895   1.732   2.601   0.475  0.2494  0.1146  2.4804
 2754TIP3   OH229896   5.653   1.054   2.622 -0.3746 -0.3386 -0.8055
 2754TIP3    H129897   5.708   1.130   2.604 -0.0188 -0.2390  0.5926
 2754TIP3    H229898   5.591   1.084   2.689  0.6057 -1.5938  0.7575
 2755TIP3   OH229899   2.408   3.923   7.706  0.3981 -0.5785 -0.2046
 2755TIP3    H129900   2.467   3.970   7.765 -0.3619 -1.1421  1.0306
 2755TIP3    H229901   2.421   3.966   7.621  1.7366  0.0465  0.2820
 2756TIP3   OH229902   3.154   0.867   0.620  0.3635  0.1978  0.3468
 2756TIP3    H129903   3.148   0.941   0.560 -1.6119  1.2224  1.7120
 2756TIP3    H229904   3.245   0.867   0.649  0.8958  0.7824 -1.2314
 2757TIP3   OH229905   4.069   2.260   0.932 -0.8442 -0.3485  0.2888
 2757TIP3    H129906   4.101   2.214   0.854 -0.9633 -0.3854  0.2614
 2757TIP3    H229907   4.092   2.202   1.004  0.3057  0.2161  0.3989
 2758TIP3   OH229908   5.585   1.418   1.557  0.4303  0.4172 -0.4751
 2758TIP3    H129909   5.541   1.494   1.520 -3.1786 -1.4249 -0.4028
 2758TIP3    H229910   5.521   1.379   1.616  2.3188 -2.3758 -0.0649
 2759TIP3   OH229911   3.796   1.182   0.177  0.2016  0.0362 -1.0912
 2759TIP3    H129912   3.789   1.275   0.198  2.4645  0.2258 -0.9159
 2759TIP3    H229913   3.775   1.137   0.259 -2.3716  0.2548 -1.5383
 2760TIP3   OH229914   2.580   2.946   0.012 -0.4085  0.1053 -0.1428
 2760TIP3    H129915   2.644   2.989   0.070  0.6302  0.9419 -1.8297
 2760TIP3    H229916   2.633   2.885  -0.039 -0.4761  2.2009 -2.9635
 2761TIP3   OH229917   6.436   1.783   1.911  0.6471 -0.6678 -0.1410
 2761TIP3    H129918   6.358   1.813   1.958  0.3654 -0.9758 -0.4072
 2761TIP3    H229919   6.430   1.688   1.915  0.4128 -0.6983 -1.1459
 2762TIP3   OH229920   5.824   6.590   8.160  0.3911  0.5352 -0.4055
 2762TIP3    H129921   5.802   6.521   8.098  0.3193 -0.8653  1.1120
 2762TIP3    H229922   5.750   6.593   8.220  1.7038 -0.2236  1.3491
 2763TIP3   OH229923   4.335   0.253   2.461  0.0375  0.1279 -0.2046
 2763TIP3    H129924   4.332   0.278   2.553  1.1311  1.2818 -0.4499
 2763TIP3    H229925   4.258   0.197   2.448 -2.0202  2.5820  0.6358
 2764TIP3   OH229926   4.425   5.121   1.861 -0.0541 -0.2586 -0.0956
 2764TIP3    H129927   4.380   5.188   1.810  0.9298  0.1645 -0.4374
 2764TIP3    H229928   4.517   5.146   1.857  0.2419 -1.2226  0.4013
 2765TIP3   OH229929   0.905   3.912   7.938 -0.3659 -0.2149 -0.0930
 2765TIP3    H129930   0.959   3.929   8.015  0.1435 -1.2158 -0.2166
 2765TIP3    H229931   0.967   3.905   7.866 -0.6116 -1.6547 -0.1945
 2766TIP3   OH229932   4.318   5.444   1.235  0.2168 -0.0345  0.1108
 2766TIP3    H129933   4.291   5.405   1.319  1.6190 -3.7490 -0.9879
 2766TIP3    H229934   4.411   5.423   1.227  0.7740  2.5360 -1.3024
 2767TIP3   OH229935   1.593   3.170   0.688 -0.4544  0.0339  0.1575
 2767TIP3    H129936   1.520   3.157   0.627  0.0686 -1.6655 -0.1727
 2767TIP3    H229937   1.551   3.198   0.770 -1.1822  2.1056 -0.8575
 2768TIP3   OH229938   2.261   2.576   0.411  0.9485  0.5723  0.1884
 2768TIP3    H129939   2.222   2.648   0.360  1.2101  1.0802  0.6912
 2768TIP3    H229940   2.188   2.539   0.460  0.4742 -0.6341 -1.3533
 2769TIP3   OH229941   6.101   4.862   2.177 -0.2325 -0.7085 -0.0488
 2769TIP3    H129942   6.077   4.820   2.260 -0.9624 -1.4501 -0.6132
 2769TIP3    H229943   6.178   4.914   2.198 -0.5752 -0.6566  1.1578
 2770TIP3   OH229944   5.033   5.717   8.072 -0.2536  0.2670  0.1059
 2770TIP3    H129945   5.006   5.625   8.082 -0.0014 -0.0398 -1.8130
 2770TIP3    H229946   5.101   5.729   8.138 -1.0870 -0.5718  1.1679
 2771TIP3   OH229947   1.930   5.729   8.228  0.0394 -0.0015 -0.4001
 2771TIP3    H129948   1.964   5.643   8.250 -0.3090 -0.0189  0.0848
 2771TIP3    H229949   1.938   5.780   8.308 -0.9994  0.0093 -0.2869
 2772TIP3   OH229950   4.290   1.613   1.295 -0.0904  0.3052  0.0559
 2772TIP3    H129951   4.380   1.595   1.267  0.0057  0.3423  0.3412
 2772TIP3    H229952   4.298   1.643   1.385 -0.5849 -1.8153  0.8579
 2773TIP3   OH229953   2.386   3.868   8.167 -0.1545 -0.2398  0.1817
 2773TIP3    H129954   2.310   3.841   8.217 -1.0316  0.4243 -0.7527
 2773TIP3    H229955   2.437   3.788   8.155  0.5187 -0.2841  2.7759
 2774TIP3   OH229956   3.818   1.453   0.203 -0.2522 -0.5422 -0.1433
 2774TIP3    H129957   3.734   1.500   0.199 -1.1673 -1.9878  1.1084
 2774TIP3    H229958   3.882   1.521   0.227 -1.1474  0.4694 -0.5186
 2775TIP3   OH229959   1.071   5.418   7.579 -0.2139 -0.3185  0.2774
 2775TIP3    H129960   1.151   5.367   7.568 -1.5379 -2.2737 -0.7068
 2775TIP3    H229961   1.011   5.359   7.624 -0.9017  1.3992  1.7554
 2776TIP3   OH229962   1.789   5.983   1.686  0.8631  0.1469 -0.1293
 2776TIP3    H129963   1.817   6.046   1.619  0.9510 -0.7536 -0.9508
 2776TIP3    H229964   1.694   5.995   1.691  0.8642  0.2637 -0.3614
 2777TIP3   OH229965   3.604   6.464   1.949 -0.2379 -0.2140 -0.2086
 2777TIP3    H129966   3.631   6.501   1.865 -0.7695  0.4869 -0.0839
 2777TIP3    H229967   3.676   6.485   2.008 -0.2314  0.0235 -0.2999
 2778TIP3   OH229968   2.233   3.844   8.405 -0.1527 -0.3123  0.1302
 2778TIP3    H129969   2.266   3.915   8.460 -1.2649  0.9520 -0.7744
 2778TIP3    H229970   2.276   3.766   8.439  0.7698  0.7184  1.4471
 2779TIP3   OH229971   4.202   3.808   1.194 -0.4296 -0.3556  0.1772
 2779TIP3    H129972   4.163   3.869   1.256 -2.3856 -1.7852  0.4244
 2779TIP3    H229973   4.230   3.734   1.248  0.3927 -0.4139 -0.3204
 2780TIP3   OH229974   5.265   0.366   8.486  0.2378 -0.1679 -0.0295
 2780TIP3    H129975   5.279   0.313   8.407 -0.3277  1.3653 -1.2133
 2780TIP3    H229976   5.312   0.447   8.468  0.3058  0.1066  1.3341
 2781TIP3   OH229977   1.908   3.355   0.958 -0.9870  0.5058  0.0530
 2781TIP3    H129978   1.988   3.408   0.958 -0.8065  0.2482  0.7683
 2781TIP3    H229979   1.841   3.412   0.919 -0.3349  0.5212 -1.0786
 2782TIP3   OH229980   5.798   1.405   1.719  0.1711 -0.4510  0.0721
 2782TIP3    H129981   5.739   1.389   1.645  1.8691  0.1436 -1.4795
 2782TIP3    H229982   5.792   1.499   1.734  2.4499  0.0800 -1.7405
 2783TIP3   OH229983   6.308   4.020   6.886  0.7499 -0.6998 -0.2519
 2783TIP3    H129984   6.286   4.024   6.793  1.1216  1.7077 -0.3004
 2783TIP3    H229985   6.227   3.992   6.929  0.2347 -0.6697 -1.1876
 2784TIP3   OH229986   0.228   4.943   0.083 -0.1046 -0.1605 -0.3184
 2784TIP3    H129987   0.285   4.973   0.153 -0.0196  0.5568 -0.6820
 2784TIP3    H229988   0.204   5.023   0.036 -1.5688 -0.4117 -0.0566
 2785TIP3   OH229989   3.050   6.139   7.846  0.7014  0.6803 -1.0275
 2785TIP3    H129990   3.110   6.088   7.900 -0.8443  1.8998  2.0811
 2785TIP3    H229991   3.098   6.220   7.826  0.5486  1.2161  0.5921
 2786TIP3   OH229992   0.014   4.035   8.428 -0.4088  0.2082 -0.2858
 2786TIP3    H129993  -0.051   4.032   8.358 -1.7159 -0.9915  0.9283
 2786TIP3    H229994   0.088   3.985   8.393 -1.8731 -2.2582 -0.0678
 2787TIP3   OH229995   1.865   4.850   1.477  0.2132  0.1313 -0.3126
 2787TIP3    H129996   1.804   4.787   1.515  2.5974 -1.0905  1.7602
 2787TIP3    H229997   1.883   4.912   1.547  1.8673  0.0369 -0.6164
 2788TIP3   OH229998   2.561   6.112   0.804  0.4684 -0.1480  0.9598
 2788TIP3    H129999   2.522   6.025   0.819 -1.4135  0.7424  1.5448
 2788TIP3    H230000   2.564   6.120   0.708 -1.2026 -0.1101  0.8866
 2789TIP3   OH230001   0.357   0.481   0.279 -0.1826  0.1698 -0.1304
 2789TIP3    H130002   0.355   0.466   0.184 -1.3065  1.2899 -0.3057
 2789TIP3    H230003   0.274   0.448   0.311 -0.1064  0.4372  0.3611
 2790TIP3   OH230004   3.627   5.662   0.624  0.1553  0.0394 -0.5347
 2790TIP3    H130005   3.642   5.665   0.530 -2.1724  0.8560 -0.9478
 2790TIP3    H230006   3.689   5.597   0.656  1.4104  0.1738 -2.5286
 2791TIP3   OH230007   3.322   0.390   7.684 -0.4624 -0.1274  0.2505
 2791TIP3    H130008   3.367   0.349   7.759 -1.3909 -1.7963 -0.0493
 2791TIP3    H230009   3.361   0.477   7.678  0.4912 -0.3794  1.9295
 2792TIP3   OH230010   3.154   4.417   7.581 -0.3528 -0.2421 -0.0938
 2792TIP3    H130011   3.179   4.425   7.489  1.3618 -1.2471  0.2321
 2792TIP3    H230012   3.173   4.503   7.619  0.1745 -0.2054 -0.4226
 2793TIP3   OH230013   1.813   2.431   1.764 -0.5553  0.5496  0.4418
 2793TIP3    H130014   1.765   2.354   1.794  1.2647 -0.6814  0.3700
 2793TIP3    H230015   1.889   2.435   1.822  0.4439  1.0582 -0.8623
 2794TIP3   OH230016   3.463   2.250   8.307 -0.5634  0.0316 -0.0169
 2794TIP3    H130017   3.437   2.217   8.393 -0.0961  0.8769  0.4650
 2794TIP3    H230018   3.381   2.282   8.268 -0.3496  2.7879  1.5415
 2795TIP3   OH230019   0.550   4.574   1.074 -0.0279  0.1978 -0.7179
 2795TIP3    H130020   0.602   4.528   1.140  0.2714  0.8927 -0.4626
 2795TIP3    H230021   0.606   4.578   0.997 -0.2295 -0.2649 -0.8942
 2796TIP3   OH230022   0.209   6.741   8.845 -0.4863 -0.2315  0.7522
 2796TIP3    H130023   0.181   6.817   8.794  1.8842 -0.7727 -1.6174
 2796TIP3    H230024   0.269   6.777   8.911  0.4938  0.0554 -0.2517
 2797TIP3   OH230025   3.857   0.279   6.337  0.5524  0.2049  0.2607
 2797TIP3    H130026   3.863   0.337   6.413  1.1117  0.1615  0.2571
 2797TIP3    H230027   3.765   0.255   6.332  0.3265  1.0363  0.3061
 2798TIP3   OH230028   6.173   6.029   2.094  0.3198 -0.2682 -0.1264
 2798TIP3    H130029   6.123   6.099   2.051 -2.2873 -2.0186 -0.1847
 2798TIP3    H230030   6.117   5.952   2.086  1.7501 -1.7055  2.4982
 2799TIP3   OH230031   2.491   2.929   2.861  0.1157 -0.1041  0.2938
 2799TIP3    H130032   2.444   3.012   2.852 -0.2201 -0.3680 -0.4627
 2799TIP3    H230033   2.423   2.862   2.857  0.2396 -0.3852  2.1677
 2800TIP3   OH230034   2.880   4.947   8.546 -0.2501  0.4514 -0.3785
 2800TIP3    H130035   2.913   5.014   8.487 -2.8910  1.2487 -1.0968
 2800TIP3    H230036   2.950   4.934   8.611  1.1157  2.4192 -1.3858
 2801TIP3   OH230037   4.965   3.231   7.431  0.1733 -0.4907  0.4268
 2801TIP3    H130038   4.947   3.325   7.430 -1.3470 -0.6272 -3.5555
 2801TIP3    H230039   4.880   3.191   7.449  0.1319 -1.0721 -0.9599
 2802TIP3   OH230040   3.594   0.713   2.410 -0.6230 -0.3788 -0.0263
 2802TIP3    H130041   3.687   0.725   2.430 -0.6829  0.4479 -0.1927
 2802TIP3    H230042   3.554   0.690   2.494 -0.1609 -1.4310 -0.0899
 2803TIP3   OH230043   6.551   6.600   7.890 -0.0327  0.5918 -0.1915
 2803TIP3    H130044   6.618   6.594   7.958  0.3277 -0.2989 -0.6120
 2803TIP3    H230045   6.595   6.645   7.818 -0.0365  0.4346 -0.2916
 2804TIP3   OH230046   5.742   0.114   7.472  0.0497 -0.3629  0.6927
 2804TIP3    H130047   5.684   0.064   7.415  0.2859  0.5948 -0.4256
 2804TIP3    H230048   5.728   0.077   7.559 -1.8071 -0.5228  0.3568
 2805TIP3   OH230049   1.109   0.292   7.664 -0.4259  0.5430  0.6869
 2805TIP3    H130050   1.061   0.374   7.673  1.3765  1.7386  0.0153
 2805TIP3    H230051   1.142   0.274   7.751  0.8476  1.6586  0.4699
 2806TIP3   OH230052   0.549   0.893   1.406 -0.6741  0.7145  0.2406
 2806TIP3    H130053   0.610   0.967   1.405 -0.8548  0.8543 -0.7814
 2806TIP3    H230054   0.478   0.923   1.464 -0.7427  1.3378 -0.1531
 2807TIP3   OH230055   5.243   3.634   0.107  0.9367  0.1356 -0.4104
 2807TIP3    H130056   5.191   3.655   0.184  0.9710  1.1447 -0.6435
 2807TIP3    H230057   5.246   3.716   0.057  3.3647  0.3651 -0.0470
 2808TIP3   OH230058   0.692   5.620   0.053 -0.2789 -0.3194  0.0804
 2808TIP3    H130059   0.629   5.602  -0.016  1.0140 -5.1983 -0.2050
 2808TIP3    H230060   0.777   5.602   0.013  0.9609  1.5924  1.6775
 2809TIP3   OH230061   0.003   1.241   0.358  0.0919  0.7633 -0.5820
 2809TIP3    H130062   0.020   1.214   0.448 -0.1804 -1.5164 -1.1586
 2809TIP3    H230063   0.089   1.267   0.324  0.0307  2.6929  0.6001
 2810TIP3   OH230064   1.064   3.935   0.904  0.3946  0.7994  0.1468
 2810TIP3    H130065   1.127   4.008   0.902 -1.1872  2.2165  0.5133
 2810TIP3    H230066   1.055   3.913   0.996  0.9099  0.0626  0.0340
 2811TIP3   OH230067   1.471   1.797   1.425  0.2693 -0.4321  0.1227
 2811TIP3    H130068   1.507   1.882   1.450 -0.7170  0.1680 -0.4366
 2811TIP3    H230069   1.533   1.733   1.461  1.5216  0.5395 -0.2471
 2812TIP3   OH230070   1.097   6.242   2.947 -0.0803 -0.1342  0.0272
 2812TIP3    H130071   1.167   6.278   3.001  0.0356 -1.8759  1.1226
 2812TIP3    H230072   1.129   6.155   2.922 -0.9651 -0.1153 -1.2575
 2813TIP3   OH230073   6.683   6.109   2.600  0.2768  0.9139  0.3020
 2813TIP3    H130074   6.653   6.047   2.534 -0.4923  3.3104 -1.7362
 2813TIP3    H230075   6.613   6.109   2.666 -0.0931  0.2530 -0.0748
 2814TIP3   OH230076   0.355   1.675   7.702  0.6063 -0.3778  0.1580
 2814TIP3    H130077   0.412   1.715   7.637 -0.4284 -0.3365 -0.7640
 2814TIP3    H230078   0.314   1.749   7.746 -0.5647 -0.3827 -0.8723
 2815TIP3   OH230079   6.180   5.323   6.974  0.0204  0.0974  0.8887
 2815TIP3    H130080   6.166   5.418   6.977  1.6232  0.3756  0.2987
 2815TIP3    H230081   6.257   5.312   6.919  0.1150 -1.5304  1.3177
 2816TIP3   OH230082   1.037   2.108   1.929 -0.4383  0.4894 -0.3225
 2816TIP3    H130083   1.119   2.138   1.891 -0.5095  0.5024 -0.4671
 2816TIP3    H230084   1.054   2.104   2.023  0.0967 -0.6170 -0.4414
 2817TIP3   OH230085   6.116   3.863   0.794  0.4176 -0.0080  0.4673
 2817TIP3    H130086   6.070   3.779   0.789  1.4196 -0.5897  0.7901
 2817TIP3    H230087   6.160   3.861   0.879  2.1373 -0.0656 -0.3813
 2818TIP3   OH230088   0.794   1.383   7.766 -0.0663  0.2120 -0.2794
 2818TIP3    H130089   0.745   1.396   7.847 -0.4407 -0.7186 -0.3405
 2818TIP3    H230090   0.856   1.313   7.786 -0.2287 -0.0942 -0.8131
 2819TIP3   OH230091   2.777   5.126   1.991  0.5249 -0.2128  0.5025
 2819TIP3    H130092   2.784   5.056   2.056  0.1685 -0.2935  0.4521
 2819TIP3    H230093   2.685   5.151   1.990  0.1094 -1.5684 -1.3674
 2820TIP3   OH230094   2.439   6.518   0.907  0.3278 -0.7811 -0.0490
 2820TIP3    H130095   2.486   6.592   0.945  0.2383 -0.7603  0.0214
 2820TIP3    H230096   2.468   6.516   0.815  0.4495 -0.7566 -0.0111
 2821TIP3   OH230097   4.750   0.255   0.110 -0.2231  0.4496 -0.4672
 2821TIP3    H130098   4.752   0.347   0.082  0.7443  0.4948 -0.2858
 2821TIP3    H230099   4.745   0.205   0.029 -2.5875  0.6730 -0.5256
 2822TIP3   OH230100   4.435   4.153   7.383 -0.0124  0.0312 -0.5220
 2822TIP3    H130101   4.358   4.190   7.339 -0.0759 -0.0932 -0.5183
 2822TIP3    H230102   4.402   4.124   7.468  0.6466  2.6451  0.7290
 2823TIP3   OH230103   6.164   4.783   2.623  0.1541 -0.2598  0.1829
 2823TIP3    H130104   6.132   4.849   2.562 -1.1812 -0.3664  0.7263
 2823TIP3    H230105   6.086   4.732   2.647  0.9638 -1.3544  0.5930
 2824TIP3   OH230106   2.783   6.076   8.743  0.1536 -0.8103 -0.5650
 2824TIP3    H130107   2.832   6.101   8.822  0.0680 -1.2693 -0.3669
 2824TIP3    H230108   2.769   5.982   8.752 -0.8364 -0.6695 -0.5878
 2825TIP3   OH230109   0.373   6.162   1.658 -0.2827  0.1598  0.2723
 2825TIP3    H130110   0.326   6.143   1.577 -0.6747 -0.7241  0.6959
 2825TIP3    H230111   0.323   6.116   1.726  1.1316 -0.7074  0.7510
 2826TIP3   OH230112   6.093   2.879   2.237  0.1532  0.0632 -0.0916
 2826TIP3    H130113   6.070   2.939   2.309  0.2666  0.3536 -0.2971
 2826TIP3    H230114   6.027   2.896   2.170  0.5407  0.3880 -0.3941
 2827TIP3   OH230115   4.067   3.029   0.822 -0.0889 -0.0383 -0.4450
 2827TIP3    H130116   4.076   3.100   0.758  0.2672  1.0411  0.7531
 2827TIP3    H230117   4.144   2.974   0.808  0.3993  0.6337 -0.4156
 2828TIP3   OH230118   0.332   5.578   0.027  0.1213  0.1327  0.0035
 2828TIP3    H130119   0.398   5.527  -0.022 -1.1304 -2.0261  0.4443
 2828TIP3    H230120   0.249   5.536   0.006 -0.6789  0.3653  2.4734
 2829TIP3   OH230121   0.587   6.460   2.981 -0.0662 -0.4856 -1.0153
 2829TIP3    H130122   0.627   6.542   2.950  0.8228 -1.4807 -2.6696
 2829TIP3    H230123   0.520   6.440   2.915 -1.1972 -0.4512  0.0810
 2830TIP3   OH230124   3.740   5.729   2.413  0.2707  0.1360 -0.4476
 2830TIP3    H130125   3.653   5.762   2.435 -0.3023 -1.8050  0.4633
 2830TIP3    H230126   3.792   5.746   2.492  0.4242  0.3464 -0.5947
 2831TIP3   OH230127   0.639   2.222   1.365 -0.1878  0.4158 -0.1403
 2831TIP3    H130128   0.713   2.165   1.383 -2.1675 -1.6298  2.1825
 2831TIP3    H230129   0.645   2.291   1.431 -0.6797 -0.0831  0.4243
 2832TIP3   OH230130   0.772   2.971   1.542 -0.5088  0.3704  0.6192
 2832TIP3    H130131   0.729   3.048   1.505  2.7241  1.9441 -0.2325
 2832TIP3    H230132   0.804   2.999   1.627  0.9301  0.1254  0.1939
 2833TIP3   OH230133   6.571   0.723   8.205  0.5189 -0.3589 -0.2160
 2833TIP3    H130134   6.538   0.790   8.146  0.2645  0.6086  0.9769
 2833TIP3    H230135   6.654   0.758   8.237 -0.7160  0.5877  2.2465
 2834TIP3   OH230136   1.309   0.093   0.495  0.3900  0.0825 -0.4480
 2834TIP3    H130137   1.335   0.104   0.586 -0.7724  0.4682 -0.1428
 2834TIP3    H230138   1.250   0.018   0.496  1.4515 -0.7852 -1.1189
 2835TIP3   OH230139   6.144   0.476   1.683  0.0507  0.2723 -0.6490
 2835TIP3    H130140   6.082   0.546   1.702  1.7098  1.7705 -0.4762
 2835TIP3    H230141   6.230   0.517   1.690  1.2514 -2.3349  1.9153
 2836TIP3   OH230142   2.219   2.854   0.762  0.0158  0.0445 -0.3753
 2836TIP3    H130143   2.223   2.948   0.779  0.9393 -0.3199  1.7114
 2836TIP3    H230144   2.238   2.845   0.668  1.3110  1.8430 -0.3226
 2837TIP3   OH230145   3.512   2.482   1.929  0.2255  0.0800 -0.1540
 2837TIP3    H130146   3.529   2.410   1.990 -0.1838  0.1405  0.0338
 2837TIP3    H230147   3.500   2.559   1.985 -1.3162 -0.0793 -0.2181
 2838TIP3   OH230148   4.083   0.333   7.607  0.0941 -0.3815  0.0144
 2838TIP3    H130149   4.159   0.325   7.664  1.0574 -2.0538 -1.4103
 2838TIP3    H230150   4.048   0.244   7.600 -1.5721  0.2284  0.0407
 2839TIP3   OH230151   4.621   3.955   1.261  0.1595 -0.2322  0.5249
 2839TIP3    H130152   4.639   4.030   1.205 -0.7183 -0.5380 -0.1853
 2839TIP3    H230153   4.642   3.986   1.349 -1.3935  1.2716  0.4137
 2840TIP3   OH230154   1.090   2.421   1.667 -0.5944 -0.2199 -0.4534
 2840TIP3    H130155   1.167   2.365   1.659 -0.6309 -0.1002 -1.8908
 2840TIP3    H230156   1.110   2.477   1.742  0.2368 -0.9179 -0.1308
 2841TIP3   OH230157   1.028   5.961   1.160  0.1844  0.4322  0.4691
 2841TIP3    H130158   1.100   5.982   1.100  1.5713 -1.2761  1.4237
 2841TIP3    H230159   0.984   6.044   1.175  0.8435  1.2018 -1.5659
 2842TIP3   OH230160   3.140   2.382   7.772 -0.0441  0.1238  0.1607
 2842TIP3    H130161   3.095   2.341   7.699 -1.5853  3.5442 -1.0356
 2842TIP3    H230162   3.075   2.384   7.843  0.1808  0.0603  0.3710
 2843TIP3   OH230163   4.018   5.918   8.350  0.0748 -0.0150  0.2636
 2843TIP3    H130164   4.001   5.966   8.269  3.7662  0.5233 -0.3376
 2843TIP3    H230165   3.990   5.979   8.419 -1.3839  0.2638 -0.5281
 2844TIP3   OH230166   3.595   6.252   0.600  0.2441 -0.6322 -0.0739
 2844TIP3    H130167   3.631   6.318   0.540 -1.0423  0.1112 -0.0604
 2844TIP3    H230168   3.585   6.174   0.546 -0.7200 -0.0293 -0.8072
 2845TIP3   OH230169   0.049   1.787   8.486 -0.4656  0.1532  0.3419
 2845TIP3    H130170  -0.018   1.821   8.545 -1.4980 -0.1774 -0.5876
 2845TIP3    H230171   0.008   1.791   8.399  0.5492 -0.5165 -0.1874
 2846TIP3   OH230172   3.923   1.831   2.819 -0.7489  0.4512  0.6295
 2846TIP3    H130173   3.898   1.740   2.803  0.1032  0.0072  1.7103
 2846TIP3    H230174   3.844   1.881   2.800 -1.1087 -0.4635 -0.3906
 2847TIP3   OH230175   1.128   2.209   8.349  0.3211 -0.1469  0.1857
 2847TIP3    H130176   1.133   2.304   8.357 -0.0262 -0.1696  0.7415
 2847TIP3    H230177   1.127   2.193   8.255  2.1158  0.2929  0.0520
 2848TIP3   OH230178   0.205   2.430   0.596 -0.1247  0.1888  0.1580
 2848TIP3    H130179   0.249   2.395   0.674  1.6725  1.1079 -0.3878
 2848TIP3    H230180   0.237   2.520   0.589 -0.3341  0.1538 -1.5782
 2849TIP3   OH230181   5.015   0.799   0.117 -0.1395  0.0313 -0.2417
 2849TIP3    H130182   5.050   0.885   0.092  2.3307 -0.9954 -0.6059
 2849TIP3    H230183   5.051   0.739   0.051 -2.3674 -1.2206 -0.4045
 2850TIP3   OH230184   6.550   5.174   2.129 -0.2371  0.1582 -0.3894
 2850TIP3    H130185   6.497   5.234   2.181  0.6333 -0.0370  0.7698
 2850TIP3    H230186   6.631   5.165   2.179  0.8299  0.3264 -2.0303
 2851TIP3   OH230187   3.297   5.761   0.373  0.5293 -0.3411 -0.1621
 2851TIP3    H130188   3.231   5.752   0.441  0.1559  3.9329  0.3160
 2851TIP3    H230189   3.380   5.765   0.421  0.5008  0.3898 -0.1716
 2852TIP3   OH230190   2.943   2.592   1.868 -0.1153  0.3011  0.2678
 2852TIP3    H130191   2.927   2.653   1.797 -1.4590  1.1087  1.2373
 2852TIP3    H230192   3.035   2.606   1.892 -0.3445  1.7924  0.3321
 2853TIP3   OH230193   4.394   4.724   8.779 -0.6337 -0.0175  0.5150
 2853TIP3    H130194   4.327   4.775   8.732 -0.5059 -2.0655 -2.1326
 2853TIP3    H230195   4.472   4.733   8.724  0.2793 -0.5097  1.7070
 2854TIP3   OH230196   4.417   1.204   0.054  0.2126 -0.6354 -0.2500
 2854TIP3    H130197   4.462   1.244  -0.020  0.0647 -0.6829 -0.3661
 2854TIP3    H230198   4.487   1.171   0.110  0.3316 -0.3182 -0.2139
 2855TIP3   OH230199   1.099   3.011   2.531  0.1607 -0.3297 -0.2226
 2855TIP3    H130200   1.113   3.102   2.560 -2.3080  0.1469 -0.3585
 2855TIP3    H230201   1.005   2.997   2.540  0.2740 -2.4014 -1.6351
 2856TIP3   OH230202   0.059   4.966   7.527 -0.0559  0.0397  0.8260
 2856TIP3    H130203   0.014   4.979   7.610  0.6376  0.0430  1.2044
 2856TIP3    H230204   0.147   5.001   7.541 -0.0522  0.4198 -0.0346
 2857TIP3   OH230205   2.463   3.783   1.088 -0.3474 -0.1264 -0.3347
 2857TIP3    H130206   2.377   3.825   1.088 -0.2282  0.1221 -0.7590
 2857TIP3    H230207   2.445   3.692   1.062 -0.4751 -0.0664 -0.4583
 2858TIP3   OH230208   3.794   0.405   0.520  0.1403  0.3719  0.2448
 2858TIP3    H130209   3.882   0.439   0.502  0.8056 -1.0204  0.6948
 2858TIP3    H230210   3.752   0.401   0.434  1.7859 -2.2088 -0.5523
 2859TIP3   OH230211   0.536   0.336   0.792  0.5181 -0.0407 -0.2568
 2859TIP3    H130212   0.584   0.349   0.873  0.1268 -0.9422  0.1245
 2859TIP3    H230213   0.448   0.369   0.811  0.5864  0.2939 -0.5074
 2860TIP3   OH230214   0.454   0.626   2.542  0.2506  0.2694 -0.2286
 2860TIP3    H130215   0.519   0.630   2.472 -0.4498  1.7582 -0.8512
 2860TIP3    H230216   0.374   0.595   2.499  0.7543 -2.5828  0.7483
 2861TIP3   OH230217   5.852   1.240   2.099 -0.2706 -0.3636 -0.2474
 2861TIP3    H130218   5.846   1.334   2.119 -1.2004 -0.1464 -1.3543
 2861TIP3    H230219   5.764   1.207   2.116 -0.5308 -0.5796 -1.8099
 2862TIP3   OH230220   0.360   0.756   6.986 -0.1999 -0.2814  0.2432
 2862TIP3    H130221   0.395   0.837   7.023 -1.8510  0.1644  0.9043
 2862TIP3    H230222   0.376   0.763   6.892  2.4730 -0.6376  0.5743
 2863TIP3   OH230223   5.631   4.631   7.413 -0.2240 -0.3625 -0.4616
 2863TIP3    H130224   5.670   4.695   7.354 -0.8466  1.2470  0.7953
 2863TIP3    H230225   5.537   4.641   7.401 -0.3414 -0.6267  0.1856
 2864TIP3   OH230226   0.547   2.844   0.588  0.0191  0.4094 -0.0522
 2864TIP3    H130227   0.616   2.869   0.649  0.1660 -0.0521 -0.0261
 2864TIP3    H230228   0.506   2.927   0.563  0.0216  0.6099  0.5966
 2865TIP3   OH230229   0.537   2.844   8.342 -0.5348  0.1133  0.5260
 2865TIP3    H130230   0.607   2.799   8.388 -0.2344  0.4822  0.4372
 2865TIP3    H230231   0.501   2.906   8.406 -0.8268 -0.1255  0.5939
 2866TIP3   OH230232   3.921   3.765   7.892  0.0912 -0.0223  0.3522
 2866TIP3    H130233   3.966   3.720   7.820 -0.2209  0.6042 -0.2522
 2866TIP3    H230234   3.970   3.846   7.904 -0.7414  0.5703 -0.1737
 2867TIP3   OH230235   5.433   3.657   1.234 -0.0319 -0.5063 -0.2049
 2867TIP3    H130236   5.365   3.688   1.293  0.9302  0.0022  0.6628
 2867TIP3    H230237   5.488   3.600   1.287 -0.2833 -1.6535 -1.1294
 2868TIP3   OH230238   5.656   1.070   7.348 -0.0882 -0.1197 -0.5552
 2868TIP3    H130239   5.721   1.002   7.361 -0.9865 -0.9649 -0.3569
 2868TIP3    H230240   5.644   1.075   7.253 -2.2401 -2.4774 -0.5274
 2869TIP3   OH230241   5.586   6.186   8.324 -0.1919 -0.4813  0.1147
 2869TIP3    H130242   5.634   6.231   8.393  1.5291 -0.1774 -1.2068
 2869TIP3    H230243   5.551   6.108   8.366  0.9193 -0.3729  1.2998
 2870TIP3   OH230244   5.192   1.796   8.901 -0.1384 -0.1987  0.4888
 2870TIP3    H130245   5.264   1.735   8.887  0.2620  0.0236  1.5051
 2870TIP3    H230246   5.211   1.869   8.842 -0.7668 -1.1341 -0.9439
 2871TIP3   OH230247   0.668   2.234   8.614 -0.5054 -0.1688 -0.3552
 2871TIP3    H130248   0.618   2.252   8.534  0.1152 -1.6820 -1.1296
 2871TIP3    H230249   0.603   2.205   8.677 -0.6087 -3.1339 -1.6649
 2872TIP3   OH230250   3.026   3.998   1.146  0.0800 -0.3040  0.2356
 2872TIP3    H130251   2.969   4.043   1.082 -0.5271 -0.9824  0.2904
 2872TIP3    H230252   3.115   4.016   1.115 -0.1519  0.6739  0.0784
 2873TIP3   OH230253   4.088   5.721   1.040  0.3635  0.4913 -0.2270
 2873TIP3    H130254   4.135   5.638   1.030 -0.7132 -0.2257  0.4517
 2873TIP3    H230255   4.154   5.782   1.073  1.9825  0.7953 -3.6130
 2874TIP3   OH230256   3.846   3.010   7.740 -0.3802 -0.2033 -0.2176
 2874TIP3    H130257   3.876   2.926   7.705 -2.5777 -1.9515  1.7684
 2874TIP3    H230258   3.908   3.031   7.809 -0.0569 -0.3879 -0.4483
 2875TIP3   OH230259   6.174   4.123   2.136 -0.0881 -0.4347 -0.2410
 2875TIP3    H130260   6.095   4.074   2.111 -0.2633 -0.1759 -0.1932
 2875TIP3    H230261   6.163   4.140   2.229  0.1973 -0.7158 -0.1531
 2876TIP3   OH230262   2.758   1.771   1.666  0.4069 -0.5632 -0.1869
 2876TIP3    H130263   2.800   1.690   1.694 -0.5819 -1.5578 -1.4359
 2876TIP3    H230264   2.690   1.742   1.605  1.1615  1.2913 -2.0280
 2877TIP3   OH230265   5.510   3.719   3.056  0.1068  0.4651 -0.7263
 2877TIP3    H130266   5.423   3.709   3.017 -0.0287  0.6979 -0.4885
 2877TIP3    H230267   5.552   3.787   3.002  0.9115 -1.0759 -2.1409
 2878TIP3   OH230268   3.338   1.069   6.869  0.7077 -0.2587 -0.1699
 2878TIP3    H130269   3.355   1.111   6.953  1.1300 -0.3733 -0.1986
 2878TIP3    H230270   3.273   1.126   6.827  1.1118  0.2472 -0.1177
 2879TIP3   OH230271   5.388   0.123   0.395 -0.2498 -0.3751  0.2703
 2879TIP3    H130272   5.346   0.058   0.338 -0.7780 -0.3702  0.6397
 2879TIP3    H230273   5.366   0.094   0.484 -0.2548  0.1522  0.4442
 2880TIP3   OH230274   3.095   2.795   0.276  0.4935 -0.6177 -0.4174
 2880TIP3    H130275   3.076   2.724   0.338 -1.5491  0.5336  0.3982
 2880TIP3    H230276   3.009   2.828   0.251  1.3337  2.1148 -0.0787
 2881TIP3   OH230277   1.094   3.935   8.832 -0.3296  0.0273  0.8611
 2881TIP3    H130278   1.106   3.957   8.924 -0.4109 -0.2891  0.9501
 2881TIP3    H230279   1.066   4.017   8.790  2.3279  0.8916  0.5845
 2882TIP3   OH230280   3.846   4.984   0.940  1.2442  0.1013 -0.2731
 2882TIP3    H130281   3.859   4.899   0.898 -1.5727  0.0962 -1.3037
 2882TIP3    H230282   3.790   5.032   0.879 -1.7769  0.6864  2.6992
 2883TIP3   OH230283   4.863   0.764   1.127  0.0263 -0.1768 -0.2330
 2883TIP3    H130284   4.852   0.692   1.188 -0.9527  0.0035 -0.1836
 2883TIP3    H230285   4.933   0.817   1.165 -0.0881 -0.4480  0.3661
 2884TIP3   OH230286   6.433   5.005   6.879 -0.1720 -0.9675  0.3608
 2884TIP3    H130287   6.497   5.020   6.948 -0.6123  1.7856  0.3128
 2884TIP3    H230288   6.385   4.927   6.906  0.8285 -0.9816  2.2437
 2885TIP3   OH230289   3.760   4.016   8.179  0.1765 -0.6474  0.0017
 2885TIP3    H130290   3.735   4.012   8.086  0.6171 -0.3021 -0.1347
 2885TIP3    H230291   3.812   3.937   8.193  1.1826 -0.0742 -0.3767
 2886TIP3   OH230292   5.220   5.745   2.448 -0.2188  0.4920 -0.3650
 2886TIP3    H130293   5.293   5.727   2.389  0.5909  0.2054  0.6790
 2886TIP3    H230294   5.227   5.838   2.468  1.1602  0.1081  1.3067
 2887TIP3   OH230295   5.202   0.605   7.911  0.3349 -0.0285 -0.1857
 2887TIP3    H130296   5.294   0.608   7.940  0.5035 -0.3096 -0.6810
 2887TIP3    H230297   5.199   0.530   7.852  0.1395  0.9139 -1.3984
 2888TIP3   OH230298   1.965   2.700   6.917  0.1687  0.1070 -0.1013
 2888TIP3    H130299   2.013   2.781   6.934  0.6410  0.3057 -2.1883
 2888TIP3    H230300   1.886   2.728   6.871 -0.3929 -0.4957  0.4744
 2889TIP3   OH230301   2.426   0.371   0.626 -0.3077  0.2990  0.2635
 2889TIP3    H130302   2.517   0.396   0.608 -0.6096  1.3886  0.1896
 2889TIP3    H230303   2.410   0.296   0.567 -0.1034  1.4379 -1.3104
 2890TIP3   OH230304   5.421   1.230   6.435  0.2091 -0.2265 -0.3520
 2890TIP3    H130305   5.366   1.216   6.513  1.1928  1.3652  0.6866
 2890TIP3    H230306   5.371   1.191   6.363 -1.2788 -0.7083  0.8891
 2891TIP3   OH230307   4.003   0.587   1.509 -0.0685  0.1651 -0.3127
 2891TIP3    H130308   3.994   0.569   1.603  0.9480 -1.2831 -0.4623
 2891TIP3    H230309   3.941   0.529   1.466 -1.4089  1.6875 -0.5112
 2892TIP3   OH230310   2.286   6.075   0.168  0.2307  0.0134 -0.3727
 2892TIP3    H130311   2.288   6.005   0.102  2.2862 -0.5850  0.2319
 2892TIP3    H230312   2.363   6.057   0.223 -0.1735  1.7795  0.8376
 2893TIP3   OH230313   2.029   4.489   1.729  0.2307  0.8468  0.3779
 2893TIP3    H130314   2.072   4.571   1.753 -1.7695  2.1212 -0.1021
 2893TIP3    H230315   2.052   4.477   1.637  1.2342  0.3728  0.6774
 2894TIP3   OH230316   6.396   4.469   0.184  0.0471  0.3725 -0.7038
 2894TIP3    H130317   6.308   4.470   0.147 -0.5315 -0.8221  0.5529
 2894TIP3    H230318   6.392   4.404   0.254  1.4700  1.5082  0.5042
 2895TIP3   OH230319   2.002   2.760   7.267 -0.0672  0.2228 -0.3056
 2895TIP3    H130320   2.000   2.801   7.181  0.0040  2.9467  0.8948
 2895TIP3    H230321   2.067   2.810   7.316 -1.0677 -0.3649  1.7252
 2896TIP3   OH230322   1.257   5.453   7.168 -0.0324 -0.5907  0.8344
 2896TIP3    H130323   1.258   5.530   7.224 -0.4668  1.5703 -1.9206
 2896TIP3    H230324   1.347   5.443   7.139 -0.4774  1.0928 -1.4450
 2897TIP3   OH230325   4.028   4.896   8.712 -0.0709  0.0865  0.5130
 2897TIP3    H130326   4.018   4.808   8.676 -1.2547  0.9167 -1.2905
 2897TIP3    H230327   3.974   4.895   8.792 -0.0691 -0.8028  0.5193
 2898TIP3   OH230328   2.881   6.448   2.033 -0.1352  0.2268  0.0488
 2898TIP3    H130329   2.796   6.488   2.012  0.6162  1.0881 -1.4772
 2898TIP3    H230330   2.889   6.458   2.128 -1.2636  1.1014  0.0760
 2899TIP3   OH230331   3.898   3.012   1.388  0.0094  0.1640 -0.1200
 2899TIP3    H130332   3.887   3.020   1.482 -0.7826  1.7322 -0.3207
 2899TIP3    H230333   3.820   2.965   1.358  0.1454 -0.1209 -0.0332
 2900TIP3   OH230334   0.684   5.049   2.012 -0.4735 -0.1800  0.1151
 2900TIP3    H130335   0.654   5.102   2.086 -1.0644  0.0878 -0.3040
 2900TIP3    H230336   0.719   4.970   2.052 -2.7117 -0.9998  0.6397
 2901TIP3   OH230337   6.044   2.049   0.222  0.4701  0.2520 -0.0338
 2901TIP3    H130338   6.003   2.135   0.233  1.7533  0.7174  1.4000
 2901TIP3    H230339   6.037   2.031   0.128 -1.8576  0.8441 -0.0389
 2902TIP3   OH230340   4.547   3.495   7.078 -0.2139  0.0429 -0.1367
 2902TIP3    H130341   4.607   3.458   7.143 -0.0696  0.4514 -0.0399
 2902TIP3    H230342   4.596   3.566   7.038 -0.2037 -0.3805 -0.8848
 2903TIP3   OH230343   1.229   0.062   2.114 -0.3996  0.2473 -0.2497
 2903TIP3    H130344   1.303   0.011   2.081 -0.3032 -0.6917  1.3044
 2903TIP3    H230345   1.257   0.153   2.108  0.8914 -0.0939  0.2673
 2904TIP3   OH230346   2.815   5.531   7.884  0.0955  0.2889 -0.1275
 2904TIP3    H130347   2.804   5.438   7.867 -0.5023  0.2036  0.6508
 2904TIP3    H230348   2.807   5.539   7.979 -0.9082  1.2543 -0.2731
 2905TIP3   OH230349   0.321   1.509   1.784 -0.3011 -0.4018 -0.4930
 2905TIP3    H130350   0.414   1.485   1.779 -0.6225 -1.8260 -0.2061
 2905TIP3    H230351   0.275   1.431   1.755 -1.4223  0.2292 -0.4514
 2906TIP3   OH230352   2.893   0.815   8.474  0.3191  0.5801  0.0002
 2906TIP3    H130353   2.942   0.896   8.465  1.6117 -0.2608 -1.0527
 2906TIP3    H230354   2.824   0.821   8.408  1.0326  0.4228 -0.7799
 2907TIP3   OH230355   3.444   2.544   1.411 -0.2679  0.1455  0.1101
 2907TIP3    H130356   3.384   2.583   1.347 -0.9501  2.1260  1.8277
 2907TIP3    H230357   3.448   2.452   1.387 -2.0115  0.4419 -1.6023
 2908TIP3   OH230358   4.045   0.025   8.577 -0.4202 -0.0721  0.3631
 2908TIP3    H130359   4.103   0.068   8.640 -0.7138 -0.0595  0.6288
 2908TIP3    H230360   4.041   0.085   8.503 -1.2641  0.6364  0.9539
 2909TIP3   OH230361   1.374   0.091   6.925  0.2274 -0.0978  0.1170
 2909TIP3    H130362   1.454   0.050   6.891  0.1566 -0.2042  0.0776
 2909TIP3    H230363   1.303   0.050   6.875  0.0173 -1.1242  1.2012
 2910TIP3   OH230364   1.790   1.756   7.822  0.9516 -0.0283 -0.3301
 2910TIP3    H130365   1.768   1.718   7.907  3.1565 -2.9721 -0.9170
 2910TIP3    H230366   1.756   1.692   7.758  0.5052  1.4657 -1.6472
 2911TIP3   OH230367   0.776   0.376   7.271  0.9507 -0.1425  0.2640
 2911TIP3    H130368   0.773   0.454   7.215  0.5668  0.2784  0.8591
 2911TIP3    H230369   0.843   0.396   7.336 -0.1697  0.3399  1.3247
 2912TIP3   OH230370   0.257   3.134   0.819 -0.2063  0.1428  0.2150
 2912TIP3    H130371   0.320   3.194   0.858 -0.6401  0.8916 -0.2196
 2912TIP3    H230372   0.272   3.051   0.864 -0.0975  0.7565  1.3424
 2913TIP3   OH230373   3.913   4.067   2.775 -0.4662  0.0995  0.1936
 2913TIP3    H130374   3.997   4.076   2.730 -0.3998  0.1986  0.3334
 2913TIP3    H230375   3.879   4.157   2.779 -0.0899  0.2246  1.0575
 2914TIP3   OH230376   0.843   0.961   7.862  0.1678 -0.4851  0.1281
 2914TIP3    H130377   0.836   1.038   7.918  1.8119  3.3589 -4.3150
 2914TIP3    H230378   0.759   0.957   7.814  1.0517  0.3528 -1.5763
 2915TIP3   OH230379   0.305   0.370   1.872  0.0715 -1.0806  0.4057
 2915TIP3    H130380   0.250   0.445   1.892 -0.1087 -0.9779 -0.4087
 2915TIP3    H230381   0.294   0.310   1.946  0.2289 -0.3039  1.0633
 2916TIP3   OH230382   6.802   4.309   8.641 -0.0453  0.0645  0.2656
 2916TIP3    H130383   6.821   4.322   8.548 -1.3738  0.6207  0.0361
 2916TIP3    H230384   6.708   4.291   8.643  0.3812 -2.4817  1.2777
 2917TIP3   OH230385   6.594   6.535   1.612  0.9740  0.5024  0.1722
 2917TIP3    H130386   6.670   6.490   1.576 -0.2468 -2.1875  0.6636
 2917TIP3    H230387   6.595   6.514   1.705 -0.3077  0.4482  0.1977
 2918TIP3   OH230388   6.251   3.405   0.031 -0.1704  0.8173  0.2663
 2918TIP3    H130389   6.218   3.425  -0.056  0.8086  0.5756 -0.1684
 2918TIP3    H230390   6.337   3.365   0.017 -0.9467 -1.3412  1.2214
 2919TIP3   OH230391   2.618   1.277   7.509  0.3387  0.1771 -0.2743
 2919TIP3    H130392   2.645   1.312   7.424 -0.1456  0.8760 -0.1592
 2919TIP3    H230393   2.698   1.246   7.550  0.4427 -1.1105 -1.3945
 2920TIP3   OH230394   2.246   4.860   7.279  1.2263 -0.6628  0.2651
 2920TIP3    H130395   2.265   4.790   7.341  1.1992 -1.3012 -0.4372
 2920TIP3    H230396   2.331   4.900   7.262  1.2297 -0.4719  0.7299
 2921TIP3   OH230397   4.069   5.326   0.509 -0.6204 -0.6221 -0.0269
 2921TIP3    H130398   4.062   5.316   0.414 -1.0544 -3.8583  0.2181
 2921TIP3    H230399   4.163   5.333   0.527 -0.4648 -1.1314 -0.6371
 2922TIP3   OH230400   3.008   4.352   8.135  0.5456  0.7310  0.2292
 2922TIP3    H130401   3.055   4.401   8.067  0.7183  0.9549  0.5043
 2922TIP3    H230402   2.916   4.378   8.124 -0.4200 -3.1395 -3.3205
 2923TIP3   OH230403   1.757   4.961   6.801  0.2108 -0.4885 -0.2657
 2923TIP3    H130404   1.840   5.009   6.810 -0.8436  1.3325  0.3655
 2923TIP3    H230405   1.781   4.869   6.813  2.1898 -0.0464 -0.4809
 2924TIP3   OH230406   6.222   4.903   8.598  0.3141 -0.0593  0.8229
 2924TIP3    H130407   6.279   4.846   8.651  0.5003 -0.0563  0.6263
 2924TIP3    H230408   6.280   4.973   8.568  0.0550  0.3220  1.1896
 2925TIP3   OH230409   2.811   0.064   2.096 -0.0442  0.0900 -0.1355
 2925TIP3    H130410   2.899   0.060   2.135  0.4524 -0.4119 -1.2624
 2925TIP3    H230411   2.752   0.069   2.171  0.8077 -1.9102  0.7475
 2926TIP3   OH230412   0.009   2.788   8.226 -0.0466 -0.6162  0.5059
 2926TIP3    H130413   0.034   2.776   8.134  0.8048 -0.7856  0.7580
 2926TIP3    H230414  -0.086   2.770   8.227 -0.2371  0.2356 -0.4890
 2927TIP3   OH230415   6.248   1.781   8.090 -0.3755 -0.5792 -0.5847
 2927TIP3    H130416   6.288   1.774   8.004 -0.3524 -0.5515 -0.5765
 2927TIP3    H230417   6.267   1.870   8.119 -0.3865 -0.5868 -0.5531
 2928TIP3   OH230418   3.547   4.382   8.125  0.1807 -0.4637 -0.1005
 2928TIP3    H130419   3.484   4.357   8.193 -1.3488  1.4673 -0.7205
 2928TIP3    H230420   3.524   4.327   8.050 -1.4972  0.8678 -0.6358
 2929TIP3   OH230421   1.537   1.536   7.288 -0.8994  0.2915 -0.4726
 2929TIP3    H130422   1.513   1.507   7.200  0.2227 -1.3881 -0.2696
 2929TIP3    H230423   1.613   1.592   7.275  0.9035 -2.0086 -0.4659
 2930TIP3   OH230424   6.547   3.741   0.553  0.5734  0.2322  0.1036
 2930TIP3    H130425   6.632   3.729   0.595  0.5144  1.0907  0.4914
 2930TIP3    H230426   6.518   3.828   0.581 -0.8299 -0.3886  0.6696
 2931TIP3   OH230427   0.671   4.598   0.671 -0.0546 -0.0983 -0.0822
 2931TIP3    H130428   0.597   4.545   0.701 -0.1028 -0.2374 -0.4435
 2931TIP3    H230429   0.631   4.673   0.627 -0.0341  1.1383  1.8448
 2932TIP3   OH230430   5.672   0.760   1.604 -0.8044 -0.3470 -0.0344
 2932TIP3    H130431   5.652   0.747   1.511 -0.4094  0.6112 -0.2565
 2932TIP3    H230432   5.587   0.751   1.648 -1.6534  2.6853 -0.8646
 2933TIP3   OH230433   1.263   5.580   1.934  0.0240 -0.1376 -0.3300
 2933TIP3    H130434   1.241   5.673   1.928 -1.7371 -0.5643 -1.0475
 2933TIP3    H230435   1.238   5.555   2.023  1.9633  0.3883  0.4078
 2934TIP3   OH230436   6.046   6.161   8.719  0.2793  0.6147  0.3225
 2934TIP3    H130437   6.119   6.100   8.729 -1.1716 -1.0359  1.3984
 2934TIP3    H230438   6.088   6.247   8.712  2.3159 -0.2701  0.7873
 2935TIP3   OH230439   6.163   2.004   7.802  0.1818 -0.5034  0.2982
 2935TIP3    H130440   6.079   2.039   7.832  1.3220  3.0779 -0.1825
 2935TIP3    H230441   6.143   1.962   7.718 -0.8886  2.5744 -1.1420
 2936TIP3   OH230442   4.335   3.495   8.497  0.6487 -0.1059  0.4213
 2936TIP3    H130443   4.413   3.530   8.540  1.0325 -1.7865  1.1558
 2936TIP3    H230444   4.288   3.573   8.466  2.3410  0.9619  0.4169
 2937TIP3   OH230445   2.761   1.328   2.108  0.0303 -0.3435  1.0337
 2937TIP3    H130446   2.808   1.249   2.081 -2.3509 -1.2224 -0.9520
 2937TIP3    H230447   2.724   1.363   2.026 -2.8857  0.1392  2.4267
 2938TIP3   OH230448   4.475   6.034   7.008  0.1200 -0.0152  0.0046
 2938TIP3    H130449   4.428   5.987   7.076  0.8323 -0.8553 -0.0677
 2938TIP3    H230450   4.423   6.020   6.928 -0.7789  1.0692  0.3615
 2939TIP3   OH230451   6.126   4.756   0.247 -0.0119  0.0743 -0.0413
 2939TIP3    H130452   6.109   4.741   0.339  1.4655 -0.5462  0.1598
 2939TIP3    H230453   6.039   4.759   0.206 -0.6414 -0.8458  1.1726
 2940TIP3   OH230454   4.644   6.451   2.058 -0.6010 -0.1677 -0.0279
 2940TIP3    H130455   4.726   6.403   2.045 -0.5406 -0.3021  0.8066
 2940TIP3    H230456   4.644   6.518   1.990 -0.2355 -0.7517 -0.6122
 2941TIP3   OH230457   6.612   5.933   7.778 -0.1845  0.2751  0.2599
 2941TIP3    H130458   6.586   5.899   7.863 -0.8511 -0.3767 -0.1935
 2941TIP3    H230459   6.556   6.010   7.765  1.1481  1.4300  1.1743
 2942TIP3   OH230460   4.893   1.082   2.461  0.4385 -0.3732  0.3448
 2942TIP3    H130461   4.968   1.068   2.519  1.5669 -0.8768 -1.1771
 2942TIP3    H230462   4.820   1.037   2.504  1.8628 -3.0589  0.1011
 2943TIP3   OH230463   5.607   1.359   2.696 -0.2959  0.2322  0.2884
 2943TIP3    H130464   5.555   1.439   2.695  0.2788  0.6063 -0.1990
 2943TIP3    H230465   5.608   1.330   2.605  1.8883  1.2568 -0.0759
 2944TIP3   OH230466   1.689   4.363   8.077  0.3517  0.1187  0.6824
 2944TIP3    H130467   1.679   4.272   8.050  1.2629  0.3893 -0.6760
 2944TIP3    H230468   1.695   4.412   7.995  2.1852  1.1183  1.3409
 2945TIP3   OH230469   1.071   5.664   2.234 -0.7287  0.3901 -0.0732
 2945TIP3    H130470   1.073   5.751   2.275 -2.5058  0.1469  0.6268
 2945TIP3    H230471   0.989   5.663   2.185 -0.4072 -0.6661 -0.6219
 2946TIP3   OH230472   1.995   0.902   0.217 -0.2270 -0.0313 -0.7203
 2946TIP3    H130473   2.020   0.866   0.302  0.4451  1.8598 -0.0540
 2946TIP3    H230474   2.024   0.837   0.153 -1.5358 -1.9079  0.5050
 2947TIP3   OH230475   3.542   3.391   8.142  0.2370 -0.1843  0.0452
 2947TIP3    H130476   3.629   3.378   8.180  0.4005 -0.0728 -0.2910
 2947TIP3    H230477   3.533   3.319   8.079 -0.0788 -0.4357  0.3736
 2948TIP3   OH230478   3.775   4.274   1.318 -0.1826 -0.2050 -0.1356
 2948TIP3    H130479   3.846   4.262   1.380 -0.5666 -1.6825  0.0539
 2948TIP3    H230480   3.711   4.328   1.365  1.0173  1.6353 -0.5162
 2949TIP3   OH230481   4.241   3.956   0.323 -0.2470  0.3575 -0.3658
 2949TIP3    H130482   4.283   3.891   0.267 -0.5581 -0.6595  0.5423
 2949TIP3    H230483   4.179   3.906   0.376  2.0414  0.6935  2.9757
 2950TIP3   OH230484   2.588   6.601   1.198  0.2364 -0.1240 -0.1301
 2950TIP3    H130485   2.637   6.545   1.258  1.4307 -0.3598 -1.2738
 2950TIP3    H230486   2.497   6.572   1.206  0.6311 -1.2965  0.3026
 2951TIP3   OH230487   3.711   3.073   1.888  0.0595 -0.4648 -0.0888
 2951TIP3    H130488   3.694   2.980   1.882 -0.0641 -0.3486 -1.9830
 2951TIP3    H230489   3.624   3.114   1.886 -0.0163 -0.3060  2.3929
 2952TIP3   OH230490   0.271   0.174   7.617 -0.1264 -0.6794  0.2499
 2952TIP3    H130491   0.284   0.269   7.620 -0.3389 -0.6717  1.1871
 2952TIP3    H230492   0.194   0.158   7.672  1.8486 -1.6988  2.9438
 2953TIP3   OH230493   1.506   4.529   8.682  0.1287 -0.1789  0.5443
 2953TIP3    H130494   1.432   4.564   8.731 -1.5150 -2.0873 -0.4667
 2953TIP3    H230495   1.555   4.607   8.654 -0.1188  1.0380  3.1893
 2954TIP3   OH230496   0.474   5.360   6.856 -1.0135 -0.3791  0.8882
 2954TIP3    H130497   0.456   5.392   6.945 -0.2441  1.4334  0.4350
 2954TIP3    H230498   0.391   5.322   6.828 -2.3950  2.2326  1.1042
 2955TIP3   OH230499   3.395   0.281   8.912  0.1068 -0.6819 -0.7198
 2955TIP3    H130500   3.406   0.371   8.941 -1.4394 -0.9386  0.8428
 2955TIP3    H230501   3.348   0.287   8.829  0.8786 -0.0538 -1.1280
 2956TIP3   OH230502   3.953   1.927   8.354 -0.0382  0.5269  1.0719
 2956TIP3    H130503   3.995   1.920   8.269  0.4500  1.2073  1.2540
 2956TIP3    H230504   3.871   1.973   8.336 -0.7890 -0.8898  0.7015
 2957TIP3   OH230505   2.850   3.720   0.418  0.4590  0.1558 -0.2335
 2957TIP3    H130506   2.792   3.770   0.476  0.4651 -0.1931  0.0711
 2957TIP3    H230507   2.931   3.710   0.468  1.3688  1.9570 -1.2153
 2958TIP3   OH230508   1.857   4.917   0.845  0.1531  0.0074  0.2463
 2958TIP3    H130509   1.905   4.984   0.895  0.9242 -1.0698  0.9997
 2958TIP3    H230510   1.768   4.951   0.839  0.6384  1.3215  0.1990
 2959TIP3   OH230511   3.856   3.576   8.416  0.2966  0.0147 -0.1120
 2959TIP3    H130512   3.929   3.531   8.375  0.0456 -0.4874 -0.0154
 2959TIP3    H230513   3.896   3.644   8.470  0.7282 -0.7486  0.5458
 2960TIP3   OH230514   1.496   6.170   8.308  0.5665 -0.4585 -0.4654
 2960TIP3    H130515   1.440   6.097   8.334 -0.8405  0.7701  0.1590
 2960TIP3    H230516   1.461   6.245   8.357 -0.3557  1.4101 -3.7194
 2961TIP3   OH230517   0.261   0.012   8.488  0.2718 -0.2516 -0.3180
 2961TIP3    H130518   0.323  -0.037   8.542  0.4508  0.1641 -0.1455
 2961TIP3    H230519   0.315   0.049   8.418 -0.2201 -2.2805 -1.8500
 2962TIP3   OH230520   1.708   4.946   1.280  0.0370 -0.3151  0.2925
 2962TIP3    H130521   1.653   5.021   1.303  2.0731  1.0657  0.9374
 2962TIP3    H230522   1.762   4.931   1.357  1.0576 -1.1598 -0.5490
 2963TIP3   OH230523   5.375   6.402   1.259 -0.4464 -0.1083 -0.0769
 2963TIP3    H130524   5.406   6.313   1.278  1.0315  0.3764 -0.0750
 2963TIP3    H230525   5.285   6.390   1.228 -0.3633 -1.5780  0.1681
 2964TIP3   OH230526   2.621   0.884   7.994  0.5427  0.1067 -0.0095
 2964TIP3    H130527   2.612   0.808   7.936  0.7080  0.6630 -0.7754
 2964TIP3    H230528   2.537   0.929   7.987  0.5926  0.2218  0.1305
 2965TIP3   OH230529   2.822   6.695   8.641 -0.4290  1.0144  0.0062
 2965TIP3    H130530   2.753   6.683   8.576  0.7496  2.1388 -1.5372
 2965TIP3    H230531   2.796   6.773   8.690 -1.1950  0.3104  0.7432
 2966TIP3   OH230532   2.515   1.783   0.459  0.3865  0.0520  0.1669
 2966TIP3    H130533   2.598   1.735   0.453 -0.1327 -0.8292 -0.1611
 2966TIP3    H230534   2.537   1.872   0.434  1.4358  0.0626  1.0602
 2967TIP3   OH230535   6.357   1.070   7.112  0.3247  0.1750  0.2999
 2967TIP3    H130536   6.408   1.103   7.038  1.0888  0.5823  0.9843
 2967TIP3    H230537   6.266   1.074   7.083  0.7049 -1.2378 -1.2187
 2968TIP3   OH230538   4.991   3.281   0.546  0.2677 -0.1083 -0.1859
 2968TIP3    H130539   5.010   3.372   0.522  1.0073  0.4770  2.3459
 2968TIP3    H230540   4.896   3.278   0.553  0.2447  0.5164 -0.1452
 2969TIP3   OH230541   0.723   1.234   1.259 -0.2008 -0.2569 -0.1918
 2969TIP3    H130542   0.675   1.271   1.333  1.1502  1.0092  0.0878
 2969TIP3    H230543   0.731   1.141   1.280 -0.5038 -0.0507  0.8903
 2970TIP3   OH230544   0.647   0.049   8.334 -0.3784  0.6521 -0.4825
 2970TIP3    H130545   0.642   0.017   8.244  0.2859 -0.2341 -0.2250
 2970TIP3    H230546   0.717  -0.003   8.374 -1.0008  0.6690  0.6881
 2971TIP3   OH230547   3.024   5.303   1.901  0.4817  0.4149 -0.3680
 2971TIP3    H130548   2.997   5.215   1.930 -1.3387  0.4399 -1.8311
 2971TIP3    H230549   3.054   5.290   1.811  0.8786  1.1842 -0.3455
 2972TIP3   OH230550   0.943   5.661   7.830 -0.1196 -0.2816  0.3242
 2972TIP3    H130551   0.949   5.570   7.800  0.4631 -0.5031  1.0763
 2972TIP3    H230552   1.023   5.675   7.881 -0.6412  0.3654  0.9932
 2973TIP3   OH230553   4.768   5.000   8.036  0.1156  0.4775 -0.2301
 2973TIP3    H130554   4.783   5.013   7.942 -0.8168 -1.0641 -0.6197
 2973TIP3    H230555   4.856   5.000   8.074  0.5616  0.2531 -1.2203
 2974TIP3   OH230556   4.222   1.692   0.174 -0.1494  0.0430  0.3934
 2974TIP3    H130557   4.305   1.644   0.178 -0.7592 -1.0702  0.0875
 2974TIP3    H230558   4.248   1.784   0.169  1.0552 -0.2275  1.0999
 2975TIP3   OH230559   5.730   1.887   0.934 -0.3503 -0.0144  0.1178
 2975TIP3    H130560   5.701   1.828   0.864 -0.0287 -0.3948  0.3010
 2975TIP3    H230561   5.701   1.844   1.015 -2.2985  1.2729  0.1833
 2976TIP3   OH230562   2.024   5.058   7.990 -0.4915 -0.0766  0.7428
 2976TIP3    H130563   2.120   5.067   7.986 -0.5029 -0.3234 -0.1876
 2976TIP3    H230564   1.994   5.143   8.024  0.1227 -0.3947  2.1394
 2977TIP3   OH230565   5.466   3.512   7.535  0.4619 -0.5808  0.0275
 2977TIP3    H130566   5.460   3.453   7.459 -0.2676 -0.6319  0.1170
 2977TIP3    H230567   5.512   3.589   7.502  1.0829 -1.0383 -0.1911
 2978TIP3   OH230568   6.528   4.580   0.796 -0.5878  0.0842  0.3294
 2978TIP3    H130569   6.450   4.615   0.754 -1.3670  0.0561  1.6958
 2978TIP3    H230570   6.580   4.657   0.819  0.6120  0.0623 -1.9808
 2979TIP3   OH230571   3.589   4.576   0.101 -0.7696  0.0628 -0.2883
 2979TIP3    H130572   3.545   4.661   0.089 -1.8882  0.2229  3.5884
 2979TIP3    H230573   3.679   4.598   0.123 -0.6169  0.1228 -0.9510
 2980TIP3   OH230574   5.306   6.140   1.036 -0.1818 -0.2063 -0.1568
 2980TIP3    H130575   5.339   6.152   1.125 -1.4228  0.2773  0.2441
 2980TIP3    H230576   5.339   6.216   0.988  1.6880 -1.1744 -0.4970
 2981TIP3   OH230577   4.758   1.544   6.827 -0.0933  0.4553 -0.4070
 2981TIP3    H130578   4.738   1.484   6.899 -0.7021 -0.2530 -1.1519
 2981TIP3    H230579   4.679   1.597   6.817  0.4940  1.5167  0.3454
 2982TIP3   OH230580   2.501   5.541   8.912 -0.3332 -0.7367 -0.1204
 2982TIP3    H130581   2.513   5.450   8.940  0.7496  0.2403  3.0498
 2982TIP3    H230582   2.407   5.557   8.924 -0.6683 -1.5941 -1.4141
 2983TIP3   OH230583   2.402   2.073   0.154 -0.1053 -0.6173  0.3420
 2983TIP3    H130584   2.470   2.008   0.173  0.3167 -0.7420 -1.4476
 2983TIP3    H230585   2.339   2.027   0.099 -1.0817 -0.1814  1.0631
 2984TIP3   OH230586   5.402   3.073   0.904  0.3498  0.1098 -0.3129
 2984TIP3    H130587   5.420   3.162   0.873 -0.2352  0.8257  1.2979
 2984TIP3    H230588   5.453   3.017   0.847  0.0730  1.4179 -1.9103
 2985TIP3   OH230589   5.888   3.462   3.047  0.0416 -0.3746 -0.3992
 2985TIP3    H130590   5.845   3.531   3.098  0.5701  0.0280 -0.4812
 2985TIP3    H230591   5.817   3.408   3.014 -0.5278  1.0906 -1.7332
 2986TIP3   OH230592   4.970   0.293   0.905 -0.1292 -0.1442 -0.0303
 2986TIP3    H130593   4.966   0.384   0.934 -1.4058 -0.1914  0.0320
 2986TIP3    H230594   4.884   0.277   0.865  0.1175 -1.2794 -0.1547
 2987TIP3   OH230595   1.958   0.904   8.525 -0.1459 -0.5784 -0.4915
 2987TIP3    H130596   1.965   0.877   8.616  1.0674  2.0105  0.2587
 2987TIP3    H230597   2.004   0.836   8.476  1.4529 -0.7135  1.1076
 2988TIP3   OH230598   1.033   6.096   0.161  0.3579  0.7327 -0.2771
 2988TIP3    H130599   1.124   6.070   0.148  0.5216  1.7199 -1.3696
 2988TIP3    H230600   1.002   6.041   0.232  1.0078 -1.5366 -1.6260
 2989TIP3   OH230601   4.212   5.305   8.352  0.1068 -0.2951  0.3055
 2989TIP3    H130602   4.140   5.366   8.371 -0.4541 -0.9878  0.4644
 2989TIP3    H230603   4.211   5.244   8.426 -0.4696 -1.5355 -0.7037
 2990TIP3   OH230604   2.638   4.822   7.366  0.3269  0.4423  0.1971
 2990TIP3    H130605   2.560   4.877   7.355  0.1226  0.0290 -0.5336
 2990TIP3    H230606   2.627   4.754   7.299 -0.1772 -1.3660  2.0429
 2991TIP3   OH230607   5.013   6.199   6.790 -0.0635 -0.5022  0.4372
 2991TIP3    H130608   5.088   6.183   6.732  0.6562  0.3838  1.1001
 2991TIP3    H230609   5.051   6.237   6.869 -1.2860  0.7486  0.4613
 2992TIP3   OH230610   3.453   1.836   0.786 -0.5949 -0.0521  0.0545
 2992TIP3    H130611   3.398   1.768   0.824 -1.2966 -0.2302 -1.2030
 2992TIP3    H230612   3.396   1.880   0.722  0.2991  0.7092 -0.2504
 2993TIP3   OH230613   0.438   6.429   1.669 -0.4645 -0.4802  0.6078
 2993TIP3    H130614   0.412   6.339   1.684 -0.7492 -0.3255  1.0513
 2993TIP3    H230615   0.519   6.440   1.720  0.7551 -1.0810 -1.0941
 2994TIP3   OH230616   4.620   6.120   1.221  0.5738 -0.3076 -0.5029
 2994TIP3    H130617   4.543   6.173   1.200  0.4544 -0.5144 -0.5891
 2994TIP3    H230618   4.640   6.074   1.140 -0.4057 -1.7656  0.0566
 2995TIP3   OH230619   5.404   1.366   7.211 -0.3249 -0.1696  0.4351
 2995TIP3    H130620   5.386   1.272   7.208  1.3291 -0.6447  2.5576
 2995TIP3    H230621   5.497   1.371   7.235  0.2388  2.0480 -1.8391
 2996TIP3   OH230622   2.132   1.467   0.966  0.6664  0.5617 -0.0563
 2996TIP3    H130623   2.205   1.529   0.971  1.9725 -0.9651  0.7119
 2996TIP3    H230624   2.085   1.478   1.049 -0.2241  1.7799 -0.6887
 2997TIP3   OH230625   4.457   6.286   6.794  0.5722  0.1511 -0.7960
 2997TIP3    H130626   4.549   6.261   6.792  0.0197 -2.0648 -1.3072
 2997TIP3    H230627   4.411   6.212   6.754 -1.5604  0.6237  0.5931
 2998TIP3   OH230628   3.834   2.559   7.323  0.3208  0.0506 -0.7195
 2998TIP3    H130629   3.757   2.613   7.303  1.1274  1.6317  0.3366
 2998TIP3    H230630   3.825   2.537   7.415  1.0865  0.1532 -0.6176
 2999TIP3   OH230631   4.691   6.223   8.286  0.0178  0.5093 -0.4449
 2999TIP3    H130632   4.741   6.151   8.245 -1.0224  0.3932 -1.5483
 2999TIP3    H230633   4.740   6.302   8.263 -0.3691  0.4136 -1.6847
 3000TIP3   OH230634   1.687   0.610   0.277 -0.3525 -0.0152 -0.1221
 3000TIP3    H130635   1.703   0.537   0.217 -1.5558 -1.5292  1.3147
 3000TIP3    H230636   1.754   0.600   0.344  0.9853  1.6719 -1.1281
 3001TIP3   OH230637   0.810   4.534   1.382  0.2133  0.3456 -0.0324
 3001TIP3    H130638   0.794   4.492   1.466 -0.9267  1.0371  0.1177
 3001TIP3    H230639   0.902   4.559   1.384  0.2813  0.0528  0.8648
 3002TIP3   OH230640   6.723   1.673   1.350 -0.3030  0.0065 -0.1465
 3002TIP3    H130641   6.797   1.729   1.323  0.2208 -1.4155 -1.8914
 3002TIP3    H230642   6.648   1.732   1.350  0.2372  0.7962 -1.8530
 3003TIP3   OH230643   4.233   2.301   8.031  0.3790  0.1984  0.0647
 3003TIP3    H130644   4.258   2.379   8.081  1.2018 -0.8830  1.4091
 3003TIP3    H230645   4.212   2.335   7.944  2.5073  1.7285  0.0525
 3004TIP3   OH230646   5.898   4.262   1.025  0.3871  0.0899  0.6160
 3004TIP3    H130647   5.818   4.291   0.982 -0.5868 -2.4673  0.5375
 3004TIP3    H230648   5.955   4.339   1.025 -1.5903  1.6259 -0.4358
 3005TIP3   OH230649   3.749   1.837   0.346  0.1555 -0.3944 -0.1521
 3005TIP3    H130650   3.756   1.914   0.291 -0.0540 -0.2269  0.0546
 3005TIP3    H230651   3.717   1.870   0.430 -2.5828 -1.0174 -0.8524
 3006TIP3   OH230652   3.087   6.111   8.769  0.3068 -0.1949 -0.5459
 3006TIP3    H130653   3.049   6.025   8.752  2.1008 -1.0358 -0.5389
 3006TIP3    H230654   3.077   6.159   8.687  0.4358 -0.8756 -0.9673
 3007TIP3   OH230655   6.527   1.313   1.218  0.3331 -0.2173 -0.1866
 3007TIP3    H130656   6.538   1.354   1.304  1.4589  0.5047 -0.6508
 3007TIP3    H230657   6.490   1.226   1.237  0.1480  0.1037  0.9812
 3008TIP3   OH230658   5.038   3.230   0.981  0.9804 -0.0781 -0.0846
 3008TIP3    H130659   4.983   3.298   1.019  1.2070 -1.1321  2.3151
 3008TIP3    H230660   5.095   3.276   0.920  0.1397  1.6321  0.3540
 3009TIP3   OH230661   2.587   5.197   8.418 -0.5811  0.0796 -0.1195
 3009TIP3    H130662   2.636   5.118   8.394  0.4944  0.0148  2.0351
 3009TIP3    H230663   2.625   5.224   8.502 -2.8433  1.2643  0.6047
 3010TIP3   OH230664   3.119   2.988   0.753 -0.4221 -0.0085 -0.1390
 3010TIP3    H130665   3.137   3.082   0.750  1.0004 -0.2955 -1.6992
 3010TIP3    H230666   3.082   2.968   0.667 -0.5978 -0.9163  0.1358
 3011TIP3   OH230667   6.476   6.087   7.152  0.9306  0.1068 -0.7028
 3011TIP3    H130668   6.555   6.129   7.117  0.7685  0.5754 -0.5160
 3011TIP3    H230669   6.505   6.048   7.234  1.2380 -0.7266 -1.1966
 3012TIP3   OH230670   2.362   3.745   2.672  0.1357 -0.3378  0.1537
 3012TIP3    H130671   2.456   3.741   2.686  0.9714  1.7991 -3.6060
 3012TIP3    H230672   2.333   3.823   2.719  1.0746  1.2593 -1.7888
 3013TIP3   OH230673   3.060   3.963   1.706 -0.2154 -0.5439  0.7714
 3013TIP3    H130674   3.148   3.943   1.673 -0.1762 -2.1614  1.7529
 3013TIP3    H230675   3.002   3.940   1.633  0.1795  1.5913 -0.3013
 3014TIP3   OH230676   0.526   6.490   0.828  0.0515 -0.0236 -0.4182
 3014TIP3    H130677   0.477   6.571   0.816 -0.5154 -0.1748  0.6752
 3014TIP3    H230678   0.492   6.431   0.761  1.5859  1.0924 -2.2753
 3015TIP3   OH230679   2.235   3.190   0.949  0.0060  0.6882  0.5858
 3015TIP3    H130680   2.230   3.285   0.937  0.7729  0.6144 -0.5248
 3015TIP3    H230681   2.297   3.161   0.882 -1.4706 -0.7998 -0.2156
 3016TIP3   OH230682   1.453   4.740   2.188 -0.0944 -0.2933  0.1213
 3016TIP3    H130683   1.524   4.736   2.125  1.0499  0.5077  1.2970
 3016TIP3    H230684   1.414   4.653   2.187  0.7054 -0.6484 -0.7743
 3017TIP3   OH230685   5.118   1.102   1.595  0.1305 -0.1272  0.2332
 3017TIP3    H130686   5.160   1.116   1.510 -0.2691  1.0324  0.2129
 3017TIP3    H230687   5.029   1.135   1.583 -0.1518 -0.6521  0.8855
 3018TIP3   OH230688   3.092   3.258   0.789  0.0081  0.3191 -0.0726
 3018TIP3    H130689   3.046   3.298   0.862  0.2908  0.0156  0.2718
 3018TIP3    H230690   3.128   3.332   0.740  0.1380  0.5043  0.3025
 3019TIP3   OH230691   4.212   4.019   2.603 -0.3775 -0.3419 -1.0254
 3019TIP3    H130692   4.304   4.016   2.574 -0.0637 -0.2782 -0.0691
 3019TIP3    H230693   4.188   3.927   2.615  0.2787 -0.3181  0.8438
 3020TIP3   OH230694   5.756   5.477   6.941 -0.8392 -0.3496  0.0320
 3020TIP3    H130695   5.820   5.518   6.882 -0.3295 -1.5152 -0.2467
 3020TIP3    H230696   5.761   5.384   6.921 -3.1589 -0.4188 -0.5032
 3021TIP3   OH230697   3.661   4.793   0.598  0.9068 -0.0880 -0.0373
 3021TIP3    H130698   3.647   4.753   0.685  1.9222  2.4486  1.3881
 3021TIP3    H230699   3.605   4.870   0.599  2.2951  0.9671 -0.8971
 3022TIP3   OH230700   4.497   0.545   1.715 -0.5823  0.4224 -0.2495
 3022TIP3    H130701   4.464   0.634   1.702 -0.6328  0.6292  1.1329
 3022TIP3    H230702   4.446   0.511   1.788  1.7600  0.5320  1.5412
 3023TIP3   OH230703   3.109   4.611   1.473  1.0761  0.4012 -0.1068
 3023TIP3    H130704   3.096   4.618   1.568  2.2525  0.2300  0.0739
 3023TIP3    H230705   3.021   4.620   1.437  0.1021 -2.7545  1.1499
 3024TIP3   OH230706   1.002   0.464   7.420  0.3755  0.0437 -0.5252
 3024TIP3    H130707   1.080   0.501   7.461 -0.1627  2.1275 -1.2554
 3024TIP3    H230708   1.007   0.371   7.437  3.2591  0.0542 -0.9261
 3025TIP3   OH230709   0.529   2.123   1.657  0.0112  0.3596 -0.2364
 3025TIP3    H130710   0.588   2.075   1.715 -1.6766 -0.6063  0.7821
 3025TIP3    H230711   0.573   2.206   1.641  1.3912 -0.1113  0.9082
 3026TIP3   OH230712   4.239   3.764   7.024  0.9464 -0.3569 -0.3779
 3026TIP3    H130713   4.182   3.765   7.101  1.1672 -1.0562 -0.1998
 3026TIP3    H230714   4.188   3.808   6.956  1.0185  0.8854  0.3508
 3027TIP3   OH230715   4.610   5.400   2.131  0.4778  0.8995 -0.1931
 3027TIP3    H130716   4.536   5.393   2.191  0.0753 -0.1875 -0.7857
 3027TIP3    H230717   4.572   5.438   2.051  0.9718  2.1666  0.1484
 3028TIP3   OH230718   4.949   1.045   0.809 -0.2251  0.4738  0.1489
 3028TIP3    H130719   4.986   0.992   0.738  1.2352  1.2655  0.2745
 3028TIP3    H230720   4.873   1.088   0.770  1.1307  1.6869 -1.3081
 3029TIP3   OH230721   6.604   3.716   8.129 -0.2535 -0.4242  0.4280
 3029TIP3    H130722   6.685   3.691   8.084 -0.4840  0.2481 -0.3895
 3029TIP3    H230723   6.556   3.769   8.065 -1.3304 -0.7851  0.9145
 3030TIP3   OH230724   3.234   0.691   8.603 -0.2306  0.2976 -0.4917
 3030TIP3    H130725   3.305   0.735   8.650 -0.6265  0.2476  0.1628
 3030TIP3    H230726   3.253   0.707   8.510  0.6586  0.2509 -0.3291
 3031TIP3   OH230727   6.611   5.524   0.556  0.1377 -0.1689  0.0622
 3031TIP3    H130728   6.555   5.558   0.626  1.8486 -4.4174  4.0149
 3031TIP3    H230729   6.550   5.489   0.492 -1.8356 -1.8227  2.6398
 3032TIP3   OH230730   5.884   3.136   2.756 -0.2804  0.5450 -0.4723
 3032TIP3    H130731   5.849   3.050   2.732 -0.6790  1.2635 -2.7287
 3032TIP3    H230732   5.977   3.130   2.736  0.1723 -0.0556  1.6068
 3033TIP3   OH230733   1.639   0.301   0.802  0.5202  0.1129 -0.0314
 3033TIP3    H130734   1.701   0.230   0.820 -0.3094 -0.0696  2.5235
 3033TIP3    H230735   1.672   0.375   0.854  0.9341  1.4126 -2.0391
 3034TIP3   OH230736   2.064   2.607   8.839  0.3908 -0.2955 -0.0558
 3034TIP3    H130737   1.969   2.612   8.845  0.3245 -2.1561  1.5520
 3034TIP3    H230738   2.096   2.685   8.885 -0.3399  0.1981 -0.3716
 3035TIP3   OH230739   2.458   2.363   8.445 -0.2845  0.5164 -0.0737
 3035TIP3    H130740   2.515   2.379   8.521  1.0539 -0.4635 -0.8291
 3035TIP3    H230741   2.419   2.277   8.462 -0.0069  0.3090 -0.4637
 3036TIP3   OH230742   1.200   5.880   1.866  0.7997 -0.2536  0.8765
 3036TIP3    H130743   1.290   5.862   1.839  0.5389 -2.5947  1.3800
 3036TIP3    H230744   1.199   5.974   1.886  3.0263 -0.1119  0.5534
 3037TIP3   OH230745   1.839   4.907   0.528  0.3855 -0.1820 -0.0721
 3037TIP3    H130746   1.813   4.917   0.619 -0.3929  2.1995 -0.4823
 3037TIP3    H230747   1.756   4.911   0.479  0.5933 -3.0296 -0.8749
 3038TIP3   OH230748   5.272   6.261   6.900  0.3480  0.5372  0.2140
 3038TIP3    H130749   5.361   6.227   6.899 -0.4218 -1.9015 -2.6500
 3038TIP3    H230750   5.270   6.324   6.828 -0.1964  0.6858  0.3536
 3039TIP3   OH230751   5.001   5.477   1.287 -0.0882 -0.3607 -0.3469
 3039TIP3    H130752   5.057   5.458   1.212 -0.8380 -1.7406 -0.5877
 3039TIP3    H230753   5.030   5.415   1.354 -0.7659 -0.5256 -0.2003
 3040TIP3   OH230754   2.234   2.796   1.509  0.0662 -0.4305 -0.4078
 3040TIP3    H130755   2.157   2.741   1.528 -0.5386  0.6119  0.2423
 3040TIP3    H230756   2.265   2.823   1.595 -0.4070  1.2539 -0.7302
 3041TIP3   OH230757   3.590   0.061   2.518  0.0445  0.0797  0.0808
 3041TIP3    H130758   3.672   0.052   2.470 -0.0077 -1.3302  0.2375
 3041TIP3    H230759   3.613   0.111   2.596  0.6338  0.1677 -0.1460
 3042TIP3   OH230760   2.333   1.705   8.489  0.2040 -0.0584 -0.4106
 3042TIP3    H130761   2.350   1.798   8.505 -1.4609  0.3093 -0.5744
 3042TIP3    H230762   2.343   1.663   8.574  2.4652 -0.0189 -0.6007
 3043TIP3   OH230763   6.718   5.085   7.907 -1.0694  0.0442 -0.2141
 3043TIP3    H130764   6.781   5.040   7.963 -0.1830 -0.0006 -1.2168
 3043TIP3    H230765   6.705   5.025   7.834 -1.1551  0.6894 -0.7355
 3044TIP3   OH230766   5.358   4.175   8.227  0.1453  0.5000  0.0496
 3044TIP3    H130767   5.345   4.132   8.311 -0.8726  1.2752  0.3070
 3044TIP3    H230768   5.271   4.182   8.188  0.6660 -0.4236 -1.3889
 3045TIP3   OH230769   5.045   1.497   0.526  0.3103 -0.1537  0.4412
 3045TIP3    H130770   5.022   1.488   0.434 -0.8964  3.3018  0.2860
 3045TIP3    H230771   5.063   1.407   0.555 -1.5824 -1.6302 -2.5195
 3046TIP3   OH230772   1.599   2.185   0.446 -0.8030 -0.3612  0.2336
 3046TIP3    H130773   1.641   2.166   0.362 -2.1198  0.7003 -0.7053
 3046TIP3    H230774   1.668   2.226   0.498  0.6905 -3.0683  0.5616
 3047TIP3   OH230775   0.449   4.831   1.178 -0.1107  0.3034 -0.3285
 3047TIP3    H130776   0.533   4.806   1.218  0.3945  0.9062 -1.0016
 3047TIP3    H230777   0.395   4.752   1.186  0.5473 -0.1230  0.0208
 3048TIP3   OH230778   2.836   1.744   1.308  0.1343  0.8437 -0.4725
 3048TIP3    H130779   2.744   1.733   1.332 -0.2070  0.2030 -1.9914
 3048TIP3    H230780   2.848   1.838   1.297 -0.6093  0.8513 -1.2593
 3049TIP3   OH230781   0.890   3.668   2.762  0.0128  0.8810  0.1434
 3049TIP3    H130782   0.932   3.643   2.680 -1.2717  0.1555 -0.3096
 3049TIP3    H230783   0.950   3.637   2.830  1.3052  1.8840 -0.5039
 3050TIP3   OH230784   1.085   4.565   1.373  0.1773 -0.3303  0.3963
 3050TIP3    H130785   1.176   4.535   1.382  0.2912 -1.1811 -2.4487
 3050TIP3    H230786   1.073   4.575   1.278 -1.9648  2.2516  0.8258
 3051TIP3   OH230787   3.595   5.923   0.732 -0.0780  0.7695  0.4692
 3051TIP3    H130788   3.583   5.834   0.699 -0.4516  0.4769  1.3650
 3051TIP3    H230789   3.678   5.952   0.694  1.1714 -0.7695  1.9010
 3052TIP3   OH230790   5.162   6.022   2.470  0.0161  0.1817 -0.5515
 3052TIP3    H130791   5.082   6.072   2.455  0.5403  0.8930 -1.0233
 3052TIP3    H230792   5.233   6.085   2.458  0.8030 -1.0431 -3.0188
 3053TIP3   OH230793   1.310   0.089   1.581  0.2191  0.0109 -0.2520
 3053TIP3    H130794   1.311   0.060   1.490  0.9473 -1.9363  0.3016
 3053TIP3    H230795   1.226   0.133   1.592 -0.7835 -1.4880 -1.3832
 3054TIP3   OH230796   0.451   3.900   0.966 -0.4385  0.0523  0.2094
 3054TIP3    H130797   0.370   3.852   0.981 -1.0058  1.1496  0.8095
 3054TIP3    H230798   0.477   3.930   1.053  1.5603 -1.7002  0.2888
 3055TIP3   OH230799   5.221   4.588   8.397  0.4543 -0.7054 -0.0893
 3055TIP3    H130800   5.137   4.621   8.429  1.7658  3.1144 -0.0119
 3055TIP3    H230801   5.265   4.555   8.475  0.3183  0.5233  0.5329
 3056TIP3   OH230802   0.942   4.400   0.213 -0.1248  0.1889 -0.1267
 3056TIP3    H130803   1.030   4.434   0.228  0.3427 -0.6904 -0.8075
 3056TIP3    H230804   0.884   4.474   0.232  0.8445  1.2820 -1.3168
 3057TIP3   OH230805   3.131   0.025   7.316 -0.2072 -0.2886  0.1430
 3057TIP3    H130806   3.159   0.070   7.396  1.2384 -1.6410  0.4565
 3057TIP3    H230807   3.211  -0.016   7.283 -1.0342 -0.7845 -1.3376
 3058TIP3   OH230808   6.049   2.215   7.423 -0.1568 -0.5080 -0.3368
 3058TIP3    H130809   6.066   2.125   7.451  1.0278 -0.1312  0.2147
 3058TIP3    H230810   5.996   2.252   7.494  0.6139 -0.3419  0.1631
 3059TIP3   OH230811   1.235   4.743   1.607  0.9046 -0.1566  0.3084
 3059TIP3    H130812   1.195   4.772   1.525 -0.1856 -3.0562 -0.2800
 3059TIP3    H230813   1.329   4.738   1.588  0.9444  1.3596 -0.0131
 3060TIP3   OH230814   3.701   1.647   0.932 -0.0703 -0.4261 -0.1782
 3060TIP3    H130815   3.790   1.670   0.908  0.0032 -1.5000 -1.0078
 3060TIP3    H230816   3.649   1.724   0.907  0.7299  0.6587  1.3215
 3061TIP3   OH230817   0.535   6.074   7.685 -0.3116  0.0133  0.0875
 3061TIP3    H130818   0.553   6.085   7.592 -0.6304 -1.5267 -0.1854
 3061TIP3    H230819   0.468   6.005   7.689  0.2067 -0.4532  1.4839
 3062TIP3   OH230820   5.758   2.048   2.191  0.0190 -0.2750 -0.0533
 3062TIP3    H130821   5.794   2.064   2.104  0.8445  0.7820  0.4554
 3062TIP3    H230822   5.676   2.098   2.193 -0.1034 -0.4641 -0.2837
 3063TIP3   OH230823   1.888   5.388   7.760 -0.7989  0.8553  0.1798
 3063TIP3    H130824   1.856   5.397   7.850  0.9909 -0.2360  0.9525
 3063TIP3    H230825   1.831   5.321   7.722 -0.1822 -0.2989  1.2076
 3064TIP3   OH230826   3.408   4.142   1.873 -0.0020 -0.1721 -0.4617
 3064TIP3    H130827   3.453   4.199   1.810 -0.5567 -1.0482 -1.6899
 3064TIP3    H230828   3.410   4.055   1.833 -2.2232 -0.3664 -0.2974
 3065TIP3   OH230829   5.806   1.459   1.376 -0.1368 -0.2057  0.0837
 3065TIP3    H130830   5.795   1.409   1.295 -1.3505  1.6618 -0.9799
 3065TIP3    H230831   5.721   1.453   1.419 -1.1527  2.8409 -1.2737
 3066TIP3   OH230832   3.817   4.468   8.526  0.4272 -0.3699 -0.4874
 3066TIP3    H130833   3.852   4.495   8.611  0.4274 -1.2139 -0.2150
 3066TIP3    H230834   3.852   4.532   8.464  0.2936  0.3504  0.1657
 3067TIP3   OH230835   1.285   4.597   8.803  0.0881  0.4935 -0.3706
 3067TIP3    H130836   1.216   4.532   8.784  0.4291 -0.1017  0.3897
 3067TIP3    H230837   1.249   4.650   8.874  0.1318  0.6251 -0.4473
 3068TIP3   OH230838   5.031   6.700   1.193 -0.5943 -0.2469 -0.0094
 3068TIP3    H130839   5.069   6.768   1.249 -1.7506  0.7734 -0.4418
 3068TIP3    H230840   5.102   6.678   1.132  0.9655 -1.9327  2.2467
 3069TIP3   OH230841   4.070   2.323   8.408  0.4740  0.2137 -0.2569
 3069TIP3    H130842   4.061   2.322   8.503  2.0546 -2.6812 -0.0258
 3069TIP3    H230843   4.143   2.264   8.390 -0.7766 -0.5891 -3.3494
 3070TIP3   OH230844   2.327   0.005   1.836 -0.3303 -0.6016 -0.0287
 3070TIP3    H130845   2.371   0.078   1.792  0.9735 -2.0513 -1.2394
 3070TIP3    H230846   2.377  -0.008   1.917 -1.3429  0.6156  0.8272
 3071TIP3   OH230847   2.956   0.241   0.819 -0.4998  0.0569  0.6742
 3071TIP3    H130848   2.862   0.259   0.821 -0.2623  1.3550  2.4177
 3071TIP3    H230849   2.996   0.322   0.788  0.0074 -1.0506 -1.8527
 3072TIP3   OH230850   6.245   2.396   7.341  0.8397 -0.1188  0.4197
 3072TIP3    H130851   6.186   2.329   7.375  1.8923 -0.7967  0.9585
 3072TIP3    H230852   6.190   2.448   7.282 -0.5250 -0.1630  1.5822
 3073TIP3   OH230853   5.806   5.344   8.038 -0.4652  0.2946  0.0593
 3073TIP3    H130854   5.850   5.265   8.004 -1.5615  0.4985 -1.9796
 3073TIP3    H230855   5.857   5.368   8.115 -0.0435 -2.3621  0.7273
 3074TIP3   OH230856   4.079   2.907   1.720  0.4492 -0.6764 -0.4180
 3074TIP3    H130857   4.029   2.852   1.780  0.4436  0.0545  0.2713
 3074TIP3    H230858   4.120   2.972   1.777 -0.7949  1.0026 -1.3569
 3075TIP3   OH230859   1.243   6.474   1.130  0.4044  0.2115  0.6025
 3075TIP3    H130860   1.197   6.553   1.103 -3.1882 -1.6959  0.5509
 3075TIP3    H230861   1.258   6.486   1.224  0.7466  1.2904  0.4254
 3076TIP3   OH230862   1.020   0.501   8.603 -0.0571 -0.3671 -0.1444
 3076TIP3    H130863   1.022   0.406   8.612 -1.1275 -0.6067 -1.8587
 3076TIP3    H230864   0.931   0.520   8.572  0.1161  1.2013  0.2362
 3077TIP3   OH230865   3.052   6.304   0.432 -0.8735  0.0294 -0.0693
 3077TIP3    H130866   3.147   6.313   0.432 -0.6357 -1.9922  0.6516
 3077TIP3    H230867   3.023   6.358   0.505 -0.2249  0.2088  0.0642
 3078TIP3   OH230868   4.290   2.512   1.503 -0.3445 -0.2473  0.7249
 3078TIP3    H130869   4.385   2.497   1.502 -0.1840  0.3151 -2.1559
 3078TIP3    H230870   4.264   2.507   1.411 -3.1642 -0.4559  1.4223
 3079TIP3   OH230871   4.921   4.304   7.292  0.4884 -0.0424  0.3383
 3079TIP3    H130872   4.847   4.298   7.354 -0.5926 -0.2477 -0.9208
 3079TIP3    H230873   4.981   4.366   7.333 -1.5791  2.1952  0.2559
 3080TIP3   OH230874   5.610   0.379   0.905 -0.2699 -1.1888  0.2399
 3080TIP3    H130875   5.548   0.363   0.835  0.5596  0.2123 -0.8780
 3080TIP3    H230876   5.687   0.328   0.881 -0.0677 -0.8871  0.2362
 3081TIP3   OH230877   4.964   1.572   1.565 -0.3982 -0.8050  0.4906
 3081TIP3    H130878   5.013   1.617   1.633  0.4506  0.7688 -1.0828
 3081TIP3    H230879   4.873   1.601   1.577  0.2273  1.9762 -0.8788
 3082TIP3   OH230880   1.336   1.043   7.992  0.2338  0.2315 -0.0816
 3082TIP3    H130881   1.323   0.978   8.061  1.3744  0.6538  0.5669
 3082TIP3    H230882   1.275   1.017   7.923 -0.2636 -0.7545  0.6953
 3083TIP3   OH230883   6.604   3.787   8.929  0.0800 -0.7027 -0.1626
 3083TIP3    H130884   6.526   3.780   8.985 -0.9605 -2.3295 -1.6946
 3083TIP3    H230885   6.622   3.881   8.924 -1.0964 -0.3737  1.1358
 3084TIP3   OH230886   5.408   1.876   8.022  0.0635  0.1065 -0.2052
 3084TIP3    H130887   5.479   1.826   7.982 -0.2580 -0.4190 -0.1329
 3084TIP3    H230888   5.329   1.826   8.001 -0.0939 -0.3205  1.2785
 3085TIP3   OH230889   3.674   4.968   7.477 -0.5799 -0.7326 -0.3878
 3085TIP3    H130890   3.671   4.874   7.494 -0.9183 -0.9153 -1.3555
 3085TIP3    H230891   3.633   4.977   7.391 -1.3263  0.3931  0.0725
 3086TIP3   OH230892   4.325   0.799   8.757  0.6820  0.1153  0.2496
 3086TIP3    H130893   4.241   0.797   8.803  0.3560 -2.5113 -0.3257
 3086TIP3    H230894   4.336   0.891   8.732 -1.4539  0.7341  1.3254
 3087TIP3   OH230895   6.608   3.762   1.836 -0.4792 -0.3006  0.0804
 3087TIP3    H130896   6.529   3.712   1.815 -0.7676  0.9724 -2.2158
 3087TIP3    H230897   6.602   3.841   1.781  2.2190 -0.0049  0.0681
 3088TIP3   OH230898   3.887   4.292   2.063  0.1748 -0.6827  0.3068
 3088TIP3    H130899   3.906   4.280   1.970  2.2058 -0.2282  0.6033
 3088TIP3    H230900   3.970   4.323   2.100 -0.8373  0.0322  2.1073
 3089TIP3   OH230901   0.272   3.398   8.180 -0.0746 -0.4721  0.1640
 3089TIP3    H130902   0.283   3.314   8.135  2.8350  1.2921 -2.8983
 3089TIP3    H230903   0.337   3.397   8.249 -0.6024 -1.0035  0.6647
 3090TIP3   OH230904   4.254   5.572   7.966  0.1064 -0.1426  0.3185
 3090TIP3    H130905   4.195   5.606   7.900  0.1781  1.5843  1.0976
 3090TIP3    H230906   4.233   5.621   8.046  2.4043  0.3800  0.6757
 3091TIP3   OH230907   0.005   1.853   1.606  0.1375 -0.1060 -0.1678
 3091TIP3    H130908  -0.022   1.872   1.517 -0.5975 -0.1153  0.0452
 3091TIP3    H230909  -0.059   1.898   1.661 -1.0860 -2.3270  0.3542
 3092TIP3   OH230910   2.650   2.930   1.911 -0.4683 -0.3928  0.1291
 3092TIP3    H130911   2.640   2.841   1.877 -0.1361 -0.5408  0.4151
 3092TIP3    H230912   2.717   2.970   1.856 -1.7505  0.2173 -1.0365
 3093TIP3   OH230913   2.212   4.148   8.259  0.2253  0.5868  0.4891
 3093TIP3    H130914   2.248   4.061   8.277  0.3706  0.8710  1.6457
 3093TIP3    H230915   2.120   4.131   8.238  0.9727 -0.1728 -2.8039
 3094TIP3   OH230916   2.264   5.676   0.922  0.1777  0.6858 -0.0668
 3094TIP3    H130917   2.283   5.732   0.997 -1.2473 -0.1087  0.9426
 3094TIP3    H230918   2.349   5.640   0.895  0.5819  0.0844  1.9024
 3095TIP3   OH230919   1.916   5.466   1.733 -0.4555 -0.0568 -0.3334
 3095TIP3    H130920   1.889   5.551   1.768 -0.9112 -0.5350  0.5066
 3095TIP3    H230921   1.884   5.402   1.797  3.0265 -0.6656  0.9911
 3096TIP3   OH230922   0.566   1.902   0.233  0.3773 -0.9364 -0.0641
 3096TIP3    H130923   0.656   1.888   0.205  1.4327  2.2607  1.3518
 3096TIP3    H230924   0.552   1.838   0.302  0.6765 -3.0374 -1.8382
 3097TIP3   OH230925   1.184   6.746   6.711 -0.1309 -0.2009  0.0735
 3097TIP3    H130926   1.106   6.771   6.761  0.5267  1.0621  0.5342
 3097TIP3    H230927   1.185   6.651   6.713 -2.5370 -0.3311 -1.3250
 3098TIP3   OH230928   4.867   4.241   8.453 -0.0005 -0.0925 -0.3210
 3098TIP3    H130929   4.828   4.326   8.430 -0.6988  0.3743  2.1939
 3098TIP3    H230930   4.824   4.179   8.395 -1.4379  0.9612 -0.4516
 3099TIP3   OH230931   0.873   2.887   7.528 -0.3056 -0.0084  0.4805
 3099TIP3    H130932   0.800   2.846   7.575 -0.3371 -0.3297  0.1505
 3099TIP3    H230933   0.935   2.911   7.597  0.0828 -1.3273  0.6206
 3100TIP3   OH230934   4.030   2.647   7.917 -0.1838 -0.1173  0.1771
 3100TIP3    H130935   4.004   2.614   7.831 -0.2662 -0.4521  0.3267
 3100TIP3    H230936   4.126   2.640   7.918 -0.1787 -0.0571  0.0898
 3101TIP3   OH230937   5.152   5.034   7.955 -0.2337 -0.6844 -0.6629
 3101TIP3    H130938   5.079   5.005   7.900 -0.0231  0.3940 -1.5538
 3101TIP3    H230939   5.227   4.984   7.924 -0.5619 -1.7411  0.2047
 3102TIP3   OH230940   4.816   0.752   8.820  0.1199  0.5733 -0.0649
 3102TIP3    H130941   4.905   0.768   8.851 -0.1368  1.9021  0.0260
 3102TIP3    H230942   4.827   0.693   8.745  0.9299 -0.6700  0.9883
 3103TIP3   OH230943   2.525   2.322   8.764 -0.3841  0.0756  0.2606
 3103TIP3    H130944   2.529   2.266   8.687 -0.4804 -0.2701  0.5055
 3103TIP3    H230945   2.439   2.304   8.803 -0.7204  0.9365 -0.0658
 3104TIP3   OH230946   0.560   1.841   1.901 -0.2151 -0.5295  0.0611
 3104TIP3    H130947   0.538   1.789   1.824 -0.8949 -0.5846  0.2852
 3104TIP3    H230948   0.634   1.894   1.873 -0.1075 -0.9417 -0.4606
 3105TIP3   OH230949   5.415   4.804   1.004 -0.2514  0.8370  0.1160
 3105TIP3    H130950   5.453   4.854   1.077  0.3756  0.6631 -0.0864
 3105TIP3    H230951   5.360   4.738   1.047  0.2719  0.6064  0.4467
 3106TIP3   OH230952   1.280   0.589   7.802 -0.2552  0.1071  0.6147
 3106TIP3    H130953   1.308   0.641   7.878  1.8785 -0.1751  0.0951
 3106TIP3    H230954   1.290   0.498   7.832  0.0768  0.0010  0.1871
 3107TIP3   OH230955   6.296   5.589   0.231  0.3031  0.0598  0.2094
 3107TIP3    H130956   6.329   5.513   0.278 -0.9062 -0.6088  0.0385
 3107TIP3    H230957   6.373   5.643   0.213  0.9525 -0.2818  1.8369
 3108TIP3   OH230958   6.305   3.674   2.193  0.4597 -0.3520 -0.0890
 3108TIP3    H130959   6.262   3.643   2.114 -0.5693  1.4389 -0.2770
 3108TIP3    H230960   6.395   3.695   2.165  0.7508 -1.7480 -0.2585
 3109TIP3   OH230961   3.477   4.237   0.325  0.4429  0.1938  0.3192
 3109TIP3    H130962   3.462   4.248   0.419  2.0138 -0.5158  0.6895
 3109TIP3    H230963   3.547   4.172   0.320  0.3599  0.1979 -1.3570
 3110TIP3   OH230964   5.144   0.375   0.168  0.5205  0.4076  0.1876
 3110TIP3    H130965   5.076   0.315   0.200  0.0863 -0.6878 -2.5447
 3110TIP3    H230966   5.209   0.318   0.127  1.1104  1.6837 -0.7148
 3111TIP3   OH230967   1.829   3.214   2.287  0.3021  0.2198 -0.1028
 3111TIP3    H130968   1.761   3.267   2.245  1.3588  1.2623 -0.5451
 3111TIP3    H230969   1.886   3.278   2.329  1.6287 -0.5600 -0.6765
 3112TIP3   OH230970   1.139   6.503   8.172  0.7019  1.0746 -0.3772
 3112TIP3    H130971   1.063   6.446   8.173  1.8942 -0.5705  0.8218
 3112TIP3    H230972   1.121   6.569   8.239  0.0055  1.1926 -0.6736
 3113TIP3   OH230973   0.813   5.262   2.894  0.2288 -1.1584  0.6490
 3113TIP3    H130974   0.908   5.270   2.903  0.4140 -0.7167 -1.3062
 3113TIP3    H230975   0.800   5.185   2.838 -0.5337 -0.7509  0.2462
 3114TIP3   OH230976   0.020   0.180   7.711 -0.0932  0.0287 -0.6979
 3114TIP3    H130977  -0.061   0.220   7.744 -0.8504 -1.7500 -0.3179
 3114TIP3    H230978   0.006   0.086   7.721  2.2563 -0.3071 -0.1070
 3115TIP3   OH230979   4.560   1.548   1.233  0.0117  0.3669  0.0432
 3115TIP3    H130980   4.609   1.588   1.162  0.7222 -0.1162  0.2544
 3115TIP3    H230981   4.623   1.492   1.277 -0.5190  0.3780  0.8316
 3116TIP3   OH230982   6.446   1.687   1.146  0.0363 -0.1592  0.3836
 3116TIP3    H130983   6.414   1.642   1.067 -1.9383  0.3870  0.8040
 3116TIP3    H230984   6.407   1.638   1.218  1.8665 -0.6836  1.0694
 3117TIP3   OH230985   6.445   5.463   1.979  0.4443  0.1437 -0.2151
 3117TIP3    H130986   6.527   5.513   1.972  0.2023  0.7256  0.9759
 3117TIP3    H230987   6.397   5.505   2.050 -2.0188  1.3798 -2.4330
 3118TIP3   OH230988   5.434   0.823   7.952  0.1826 -0.6844  0.0831
 3118TIP3    H130989   5.377   0.894   7.922  0.2144 -1.0861 -0.9943
 3118TIP3    H230990   5.474   0.856   8.032  0.7762  0.8216 -0.8001
 3119TIP3   OH230991   4.205   5.071   1.609  0.2160  0.1861  1.0380
 3119TIP3    H130992   4.286   5.025   1.628 -0.5911 -3.8710 -3.3980
 3119TIP3    H230993   4.137   5.024   1.657  0.0764  1.5605  2.2490
 3120TIP3   OH230994   6.075   4.353   8.138  0.2349  0.0583  0.6424
 3120TIP3    H130995   6.029   4.315   8.213  0.6432 -1.5171  0.1439
 3120TIP3    H230996   6.013   4.346   8.066  0.2999  0.3800  0.5554
 3121TIP3   OH230997   6.631   3.205   1.172 -0.2876  0.2602 -0.2620
 3121TIP3    H130998   6.612   3.217   1.079  1.5793 -1.4686 -0.9524
 3121TIP3    H230999   6.609   3.113   1.189  0.8461  0.1317  0.5922
 3122TIP3   OH231000   5.145   3.239   2.008  0.3579  0.0990 -0.0277
 3122TIP3    H131001   5.057   3.272   2.025  0.1528 -0.6107  0.3206
 3122TIP3    H231002   5.166   3.270   1.920 -0.3114  0.1164 -0.1855
 3123TIP3   OH231003   0.035   1.303   0.919  0.1615 -0.5535 -0.2210
 3123TIP3    H131004   0.049   1.221   0.967 -2.3792 -0.8418  0.1851
 3123TIP3    H231005   0.042   1.371   0.987 -0.8709 -0.7400  0.0909
 3124TIP3   OH231006   5.986   5.138   7.972  0.0816 -0.2224  0.5644
 3124TIP3    H131007   5.990   5.138   7.877  0.3506 -1.5043  0.5476
 3124TIP3    H231008   6.078   5.137   8.000  0.0258  1.0870  0.8763
 3125TIP3   OH231009   6.055   2.111   8.613  0.8423 -0.1814 -0.0294
 3125TIP3    H131010   6.069   2.056   8.535 -1.1729 -0.2439 -0.4005
 3125TIP3    H231011   6.108   2.189   8.597  1.9913 -1.0385 -0.5387
 3126TIP3   OH231012   2.689   6.374   7.235  0.2296  0.4343 -0.0232
 3126TIP3    H131013   2.630   6.342   7.167  0.6690  0.5684 -0.4693
 3126TIP3    H231014   2.705   6.465   7.212  1.1107  0.2305 -0.2684
 3127TIP3   OH231015   6.519   1.689   2.592  0.4143  0.3441 -0.1168
 3127TIP3    H131016   6.583   1.760   2.584 -1.2567  2.4956  3.4330
 3127TIP3    H231017   6.544   1.643   2.672  1.0425 -2.8591 -1.9606
 3128TIP3   OH231018   0.597   6.475   2.104 -0.1495 -0.0720  0.3342
 3128TIP3    H131019   0.502   6.474   2.112 -0.4131  1.7014 -1.8563
 3128TIP3    H231020   0.615   6.436   2.019  0.8798  1.7602 -0.3412
 3129TIP3   OH231021   6.618   4.052   8.227  0.5672  0.6830 -0.7042
 3129TIP3    H131022   6.539   4.009   8.260  1.3562  0.1641  0.5951
 3129TIP3    H231023   6.609   4.143   8.253  1.1057  0.3126  0.8917
 3130TIP3   OH231024   5.316   0.888   6.987 -0.9338 -0.4527  0.2614
 3130TIP3    H131025   5.403   0.895   6.947 -1.1490  0.4985 -0.0530
 3130TIP3    H231026   5.273   0.818   6.938 -0.2532 -1.1343  0.6126
 3131TIP3   OH231027   2.469   2.088   1.426 -0.3329 -0.0498  0.2565
 3131TIP3    H131028   2.460   2.079   1.331  1.2059 -1.0639  0.1722
 3131TIP3    H231029   2.562   2.075   1.443 -0.9391 -2.7582  2.1522
 3132TIP3   OH231030   4.736   4.821   1.481  0.6106  0.8421  0.3555
 3132TIP3    H131031   4.719   4.883   1.552 -0.0863 -0.9501  1.8484
 3132TIP3    H231032   4.827   4.835   1.457  0.3882  2.6012  0.4623
 3133TIP3   OH231033   1.200   2.406   0.174  0.7750 -0.1090  0.0835
 3133TIP3    H131034   1.268   2.340   0.186 -0.5641 -1.9075 -1.6982
 3133TIP3    H231035   1.122   2.368   0.214  0.0513  0.4976 -0.7203
 3134TIP3   OH231036   3.666   1.178   1.414  0.5919  0.1625 -0.5612
 3134TIP3    H131037   3.579   1.209   1.439  0.2790 -1.2783  0.2620
 3134TIP3    H231038   3.727   1.242   1.452 -0.0416  0.0829  0.6378
 3135TIP3   OH231039   3.541   5.726   8.413 -0.0179  0.2935 -0.8586
 3135TIP3    H131040   3.563   5.748   8.322 -2.1170 -2.9303 -2.3226
 3135TIP3    H231041   3.616   5.676   8.444 -0.2345 -0.5743 -1.6790
 3136TIP3   OH231042   4.567   0.228   7.544  0.3038 -0.3192  0.1843
 3136TIP3    H131043   4.573   0.197   7.634 -0.2136 -0.1505  0.2787
 3136TIP3    H231044   4.612   0.161   7.492 -1.4531 -1.6362  0.2846
 3137TIP3   OH231045   4.330   4.933   7.409  0.2444 -0.6241 -0.0002
 3137TIP3    H131046   4.343   4.902   7.320  0.3267  0.2955 -0.3167
 3137TIP3    H231047   4.262   4.876   7.445 -0.8745 -0.0650 -1.1479
 3138TIP3   OH231048   2.322   4.417   2.502  0.0208  0.3218  0.0598
 3138TIP3    H131049   2.370   4.465   2.569  0.7502 -1.0041  0.5238
 3138TIP3    H231050   2.232   4.417   2.533  0.1528  0.6912  0.4595
 3139TIP3   OH231051   3.019   4.974   7.424 -0.1883  0.1855  0.2326
 3139TIP3    H131052   2.954   5.041   7.403 -0.3668 -1.2748 -5.7593
 3139TIP3    H231053   2.968   4.899   7.455 -0.9385  0.3835 -0.4990
 3140TIP3   OH231054   2.531   5.008   1.202  0.7699  0.2506 -0.5540
 3140TIP3    H131055   2.456   5.058   1.169 -0.3677  1.2379  3.0137
 3140TIP3    H231056   2.497   4.964   1.280  4.3308  2.6340  2.7076
 3141TIP3   OH231057   1.391   2.643   8.219  0.4080  0.1536  0.5014
 3141TIP3    H131058   1.435   2.633   8.304 -0.5031  0.1520  0.9803
 3141TIP3    H231059   1.357   2.732   8.220 -2.8644 -0.9743  1.7550
 3142TIP3   OH231060   1.440   6.653   2.040  0.2029 -0.6924  0.3888
 3142TIP3    H131061   1.421   6.672   2.132 -0.9133 -2.6138  0.6135
 3142TIP3    H231062   1.530   6.620   2.041  0.3453 -0.3024  0.7262
 3143TIP3   OH231063   0.630   3.649   1.065 -0.2287 -1.0118 -0.3805
 3143TIP3    H131064   0.692   3.579   1.044 -1.0852 -1.9769  0.2345
 3143TIP3    H231065   0.666   3.726   1.020  1.3477 -1.5565 -0.1340
 3144TIP3   OH231066   5.263   5.036   8.213  0.5343  0.7353 -0.0583
 3144TIP3    H131067   5.340   5.028   8.156  0.8352 -1.1249  0.5163
 3144TIP3    H231068   5.189   5.029   8.153  0.7920  2.1236 -0.5716
 3145TIP3   OH231069   4.334   0.910   1.243 -0.1245 -0.0554  0.2095
 3145TIP3    H131070   4.316   0.984   1.184 -1.4824  0.1432  0.8274
 3145TIP3    H231071   4.251   0.896   1.289  0.8467 -0.3050  1.9723
 3146TIP3   OH231072   2.388   1.047   8.021  0.0823  0.1822 -0.0558
 3146TIP3    H131073   2.316   1.063   7.960  1.3910  0.5453 -1.5480
 3146TIP3    H231074   2.430   1.132   8.033  0.3229 -0.0382  0.7525
 3147TIP3   OH231075   2.815   1.532   1.788  0.3208 -0.3361 -0.1937
 3147TIP3    H131076   2.733   1.536   1.838 -0.5433 -0.1549 -1.5919
 3147TIP3    H231077   2.872   1.476   1.841  0.2316  1.5414  2.1091
 3148TIP3   OH231078   4.651   6.191   7.153 -0.1785  0.8682 -0.2574
 3148TIP3    H131079   4.593   6.262   7.179 -0.2459  1.1238 -1.0889
 3148TIP3    H231080   4.593   6.126   7.113  0.2203  1.7858 -2.5164
 3149TIP3   OH231081   3.407   5.556   1.033 -0.2199 -0.1153 -0.1550
 3149TIP3    H131082   3.396   5.495   0.961 -0.1000  0.1617 -0.4120
 3149TIP3    H231083   3.320   5.595   1.046  0.0757  0.9563 -1.1748
 3150TIP3   OH231084   5.233   2.407   1.314 -0.2378 -0.5075 -0.3058
 3150TIP3    H131085   5.309   2.466   1.308 -1.6409  1.2824 -2.4180
 3150TIP3    H231086   5.157   2.466   1.317 -1.6178 -2.2227  2.1487
 3151TIP3   OH231087   6.219   0.124   8.063 -0.0307  0.4292 -0.2132
 3151TIP3    H131088   6.160   0.199   8.072  0.5533  0.6192  3.0807
 3151TIP3    H231089   6.161   0.048   8.065 -0.3347  0.6745  1.0495
 3152TIP3   OH231090   5.429   2.802   8.862 -0.3683 -0.2597  0.7502
 3152TIP3    H131091   5.494   2.792   8.932 -0.5095  0.8308  1.0678
 3152TIP3    H231092   5.356   2.849   8.904 -2.2783 -3.1222  0.9470
 3153TIP3   OH231093   5.277   6.711   0.263 -0.2419  0.1197 -0.3376
 3153TIP3    H131094   5.292   6.623   0.229  1.8187 -0.2356  1.2058
 3153TIP3    H231095   5.187   6.710   0.295 -0.3492 -1.3448 -0.6186
 3154TIP3   OH231096   1.023   2.056   0.052  0.4735  0.2197  0.1306
 3154TIP3    H131097   1.031   2.014  -0.033  0.2813 -0.4296  0.4236
 3154TIP3    H231098   1.042   2.148   0.036  0.4859  0.0919 -0.6009
 3155TIP3   OH231099   2.245   4.038   7.263 -0.4648  0.4192 -0.0294
 3155TIP3    H131100   2.250   3.959   7.316  1.0463  0.1813 -0.4795
 3155TIP3    H231101   2.240   4.006   7.173  0.5189  0.8077 -0.2373
 3156TIP3   OH231102   2.898   2.891   0.932 -0.4316  0.2300  0.8030
 3156TIP3    H131103   2.938   2.943   0.862  0.4347 -0.6489  0.6176
 3156TIP3    H231104   2.959   2.898   1.005 -0.6825  0.0807  1.0280
 3157TIP3   OH231105   4.276   3.053   0.503 -0.4193  0.3877 -0.0125
 3157TIP3    H131106   4.354   3.004   0.477 -0.3277  0.8926 -0.6841
 3157TIP3    H231107   4.225   2.989   0.554 -0.0391 -0.2374 -0.3982
 3158TIP3   OH231108   6.508   2.322   0.307  0.2472 -0.3781  0.1797
 3158TIP3    H131109   6.448   2.391   0.335  0.0223 -0.6576  0.3912
 3158TIP3    H231110   6.562   2.305   0.384 -0.0521 -0.8112  0.2937
 3159TIP3   OH231111   0.613   2.951   2.414  0.0987 -0.0001  0.4810
 3159TIP3    H131112   0.603   2.952   2.319 -0.9916 -0.9171  0.5619
 3159TIP3    H231113   0.618   2.858   2.437  1.1643  0.2311  1.2575
 3160TIP3   OH231114   4.422   4.284   7.028  0.3778  0.6237  0.5871
 3160TIP3    H131115   4.359   4.219   7.059  0.8095 -0.8952 -1.5113
 3160TIP3    H231116   4.369   4.359   7.002 -0.5140 -0.3005 -0.3265
 3161TIP3   OH231117   1.063   5.727   0.445 -0.7213 -0.1642  0.5408
 3161TIP3    H131118   0.999   5.767   0.386  0.4057  0.5561 -0.2520
 3161TIP3    H231119   1.147   5.767   0.419  0.0645 -1.1622  1.4584
 3162TIP3   OH231120   3.295   3.802   7.751 -0.2260  0.2964 -0.5738
 3162TIP3    H131121   3.253   3.804   7.665 -0.2265 -0.8133 -0.6118
 3162TIP3    H231122   3.358   3.730   7.746 -2.4088 -1.9280  1.3044
 3163TIP3   OH231123   2.245   1.565   0.360 -0.6135  0.2861  0.1028
 3163TIP3    H131124   2.200   1.600   0.283  0.5662  1.6527 -0.0059
 3163TIP3    H231125   2.204   1.480   0.375 -0.8582 -0.0305 -2.0563
 3164TIP3   OH231126   1.711   0.027   7.175 -0.2035  0.0390  0.0621
 3164TIP3    H131127   1.618   0.044   7.160 -0.3919  1.3949  2.3345
 3164TIP3    H231128   1.756   0.092   7.121 -0.5782 -0.2107 -0.5633
 3165TIP3   OH231129   6.135   2.545   0.953  0.3471 -0.9406  0.1316
 3165TIP3    H131130   6.159   2.625   0.906 -1.3266 -1.1800 -1.2221
 3165TIP3    H231131   6.120   2.574   1.043 -1.3211  0.5242 -0.5609
 3166TIP3   OH231132   3.830   3.552   2.339 -0.5279 -0.4721  0.1220
 3166TIP3    H131133   3.881   3.610   2.282 -0.7826 -0.2998  0.0674
 3166TIP3    H231134   3.793   3.610   2.406  0.4339 -0.7950  0.9513
 3167TIP3   OH231135   2.189   0.795   1.257  0.3411 -0.3273 -0.9055
 3167TIP3    H131136   2.243   0.834   1.188  1.4802 -2.5408 -1.3370
 3167TIP3    H231137   2.169   0.707   1.225  2.2630 -2.0771  2.1929
 3168TIP3   OH231138   6.745   6.699   8.569  0.3341 -0.0682  0.8680
 3168TIP3    H131139   6.823   6.750   8.592 -0.4506  1.1292  0.9333
 3168TIP3    H231140   6.734   6.714   8.475 -1.7026  2.5423  1.4164
 3169TIP3   OH231141   3.515   6.341   8.276  0.8529 -0.6492  0.0294
 3169TIP3    H131142   3.457   6.264   8.274  0.6957 -0.5237 -2.1971
 3169TIP3    H231143   3.570   6.332   8.198  2.8233  0.0430  1.2646
 3170TIP3   OH231144   4.772   4.972   8.749 -0.1547 -0.1537  0.0458
 3170TIP3    H131145   4.796   4.901   8.690  0.6684 -0.3463  0.5991
 3170TIP3    H231146   4.778   5.051   8.696 -3.7281 -0.6471 -1.3851
 3171TIP3   OH231147   1.176   1.398   8.825 -0.4492 -0.1896  0.2484
 3171TIP3    H131148   1.203   1.420   8.736  0.2005 -0.4308  0.3835
 3171TIP3    H231149   1.210   1.310   8.840 -1.3934 -0.5425  0.3906
 3172TIP3   OH231150   2.530   0.047   1.121 -0.0264 -0.2758  0.2991
 3172TIP3    H131151   2.575   0.049   1.036 -0.0742 -0.2535  0.2743
 3172TIP3    H231152   2.551  -0.039   1.157 -1.5544 -1.0675 -0.5759
 3173TIP3   OH231153   0.241   1.195   1.875 -0.4146 -0.0476 -0.1040
 3173TIP3    H131154   0.190   1.240   1.807 -0.0272 -0.3251 -0.5858
 3173TIP3    H231155   0.228   1.249   1.953  3.0880  3.2741 -1.4503
 3174TIP3   OH231156   6.773   3.224   0.434  0.2501  0.0781 -0.5674
 3174TIP3    H131157   6.737   3.235   0.522 -1.4253  0.8820 -1.3056
 3174TIP3    H231158   6.863   3.257   0.441 -0.2294  1.2737  0.5775
 3175TIP3   OH231159   2.433   0.344   2.368 -0.0175 -0.7008  0.5183
 3175TIP3    H131160   2.430   0.440   2.375 -0.8532 -0.6859  0.1717
 3175TIP3    H231161   2.372   0.324   2.297  0.2295 -1.4878  0.5188
 3176TIP3   OH231162   5.007   4.005   7.241  0.0514  0.2332  1.0515
 3176TIP3    H131163   5.098   3.995   7.269 -0.1911  0.2316  1.8884
 3176TIP3    H231164   4.972   3.916   7.243  0.1622  0.1720  0.2569
 3177TIP3   OH231165   5.256   1.868   7.488  0.5233 -0.1910 -0.2310
 3177TIP3    H131166   5.290   1.891   7.401  1.3655 -1.5708 -0.2974
 3177TIP3    H231167   5.262   1.772   7.491  0.4371 -0.1668  1.3215
 3178TIP3   OH231168   5.565   1.421   8.688  0.1651 -0.2985 -0.0468
 3178TIP3    H131169   5.482   1.450   8.726 -0.2213  0.5194 -1.4705
 3178TIP3    H231170   5.631   1.461   8.745 -0.3921  1.7235 -0.7177
 3179TIP3   OH231171   1.296   3.322   7.473  0.3221 -0.5649 -0.1194
 3179TIP3    H131172   1.205   3.309   7.498  0.1432  2.5194  1.1865
 3179TIP3    H231173   1.292   3.366   7.388  0.5358  0.2396  0.2777
 3180TIP3   OH231174   1.995   4.519   0.539  0.2566 -0.1547 -0.0452
 3180TIP3    H131175   1.952   4.434   0.544  0.9440 -0.7110 -2.3644
 3180TIP3    H231176   1.924   4.581   0.525 -0.0630 -0.6235 -0.5246
 3181TIP3   OH231177   2.606   4.992   7.899  0.6751 -0.3075 -0.3663
 3181TIP3    H131178   2.654   4.981   7.817  0.3133  0.1996 -0.6478
 3181TIP3    H231179   2.549   5.067   7.884  0.3782 -0.4057  0.2434
 3182TIP3   OH231180   2.684   6.330   7.640  0.2406 -0.2312  1.1858
 3182TIP3    H131181   2.656   6.277   7.565  0.4556 -0.7850  1.4926
 3182TIP3    H231182   2.695   6.267   7.711 -1.0236  0.4250  1.9971
 3183TIP3   OH231183   3.363   0.336   0.846 -0.0044  0.0782 -0.1946
 3183TIP3    H131184   3.343   0.253   0.803  1.8948 -0.2928 -0.4277
 3183TIP3    H231185   3.284   0.356   0.896 -0.0754 -2.5431  0.9122
 3184TIP3   OH231186   1.424   5.387   8.639  0.0011  0.0525 -0.2393
 3184TIP3    H131187   1.342   5.341   8.620  0.3375 -0.9091  0.5254
 3184TIP3    H231188   1.468   5.395   8.554  0.2046 -1.6172 -0.3284
 3185TIP3   OH231189   2.155   1.556   1.608  0.2587  0.0339  0.1660
 3185TIP3    H131190   2.098   1.595   1.674 -1.7460 -1.3072 -0.6910
 3185TIP3    H231191   2.140   1.462   1.616  0.2243 -0.1878 -1.9421
 3186TIP3   OH231192   3.308   3.257   7.030  0.0789 -0.3109 -0.5341
 3186TIP3    H131193   3.388   3.213   7.000 -0.4205 -0.9723 -0.9246
 3186TIP3    H231194   3.318   3.348   7.001  1.3153 -0.0341  0.6455
 3187TIP3   OH231195   2.920   3.821   1.511 -0.3472 -0.4697 -0.3251
 3187TIP3    H131196   2.854   3.845   1.445  0.2525  0.0902 -0.7335
 3187TIP3    H231197   2.938   3.729   1.495 -0.0308 -0.2771 -1.1084
 3188TIP3   OH231198   6.757   0.004   1.853 -0.4918 -0.6113  0.3191
 3188TIP3    H131199   6.785   0.093   1.830 -0.2694 -0.8638 -0.4077
 3188TIP3    H231200   6.663   0.003   1.833 -0.2671 -0.8869 -0.8338
 3189TIP3   OH231201   4.348   0.428   1.922 -0.5576  0.0062  0.6885
 3189TIP3    H131202   4.406   0.353   1.931  0.0549  0.5184  1.0126
 3189TIP3    H231203   4.266   0.390   1.890  0.2931 -0.5916 -0.9231
 3190TIP3   OH231204   4.539   4.566   2.585  0.1928  0.5254  0.4198
 3190TIP3    H131205   4.547   4.568   2.680  0.9199 -0.3669  0.3908
 3190TIP3    H231206   4.608   4.507   2.556  0.1647  1.0083 -0.6913
 3191TIP3   OH231207   6.773   5.753   8.322  0.0505  0.0376 -0.6451
 3191TIP3    H131208   6.847   5.804   8.289  1.7457 -2.1292 -0.4258
 3191TIP3    H231209   6.748   5.698   8.248 -0.5436 -0.1221 -0.3271
 3192TIP3   OH231210   3.939   6.190   8.205  0.2582  0.3421 -0.0827
 3192TIP3    H131211   3.846   6.173   8.221 -0.0608  0.4600 -1.6871
 3192TIP3    H231212   3.944   6.213   8.112  1.9374  0.0614 -0.0915
 3193TIP3   OH231213   3.924   1.814   8.820  0.0279 -0.3188  0.6699
 3193TIP3    H131214   3.932   1.724   8.788 -0.6937 -0.2788  0.3667
 3193TIP3    H231215   3.843   1.814   8.871 -0.5301  0.3941 -0.1824
 3194TIP3   OH231216   4.205   5.617   7.322 -0.2031  0.3418  0.0669
 3194TIP3    H131217   4.296   5.595   7.304  0.0928  1.1268  0.5765
 3194TIP3    H231218   4.162   5.615   7.236  0.1903 -0.4562 -0.1188
 3195TIP3   OH231219   0.447   1.979   1.183  0.4419 -0.8842  0.4675
 3195TIP3    H131220   0.383   1.990   1.113 -1.0990 -0.5365  1.8661
 3195TIP3    H231221   0.529   2.013   1.147 -1.2797  3.8271  0.3375
 3196TIP3   OH231222   2.253   3.111   1.388  0.0422 -0.8014 -0.0089
 3196TIP3    H131223   2.310   3.034   1.389  0.9320 -0.1661  1.3546
 3196TIP3    H231224   2.278   3.160   1.466  0.8035  1.8420 -1.8067
 3197TIP3   OH231225   1.283   0.473   7.500 -0.3779  0.2511  0.2172
 3197TIP3    H131226   1.345   0.536   7.538 -0.6300  0.6942 -0.0913
 3197TIP3    H231227   1.303   0.390   7.544 -0.3217  0.6387  0.9449
 3198TIP3   OH231228   3.557   2.634   7.207  0.2560 -0.3997  0.1980
 3198TIP3    H131229   3.501   2.655   7.133  0.7335 -0.0604 -0.0768
 3198TIP3    H231230   3.508   2.664   7.284 -0.7259 -1.7669  0.1285
 3199TIP3   OH231231   5.923   0.175   0.120  0.1128  0.0034 -0.0702
 3199TIP3    H131232   5.909   0.270   0.120  0.7893  0.1096  0.1056
 3199TIP3    H231233   6.009   0.163   0.162 -0.1992 -0.7222  0.3906
 3200TIP3   OH231234   3.457   4.022   8.622  0.7406  0.4874 -0.4608
 3200TIP3    H131235   3.451   3.943   8.676  0.3304 -0.0925 -1.3430
 3200TIP3    H231236   3.481   3.991   8.535  4.2385  1.6294 -0.0495
 3201TIP3   OH231237   0.034   2.607   0.014 -0.1192  0.7549 -0.2245
 3201TIP3    H131238   0.065   2.521  -0.013  0.0460  1.4698 -2.4736
 3201TIP3    H231239  -0.061   2.604  -0.000 -0.6814 -0.0857  2.8655
 3202TIP3   OH231240   3.703   2.052   8.310  0.3508 -0.0663  0.0542
 3202TIP3    H131241   3.652   2.047   8.392  0.7213 -2.2784  0.2145
 3202TIP3    H231242   3.639   2.081   8.244 -0.9703 -1.9606  0.4111
 3203TIP3   OH231243   1.831   1.415   0.035 -0.4506  0.4711 -0.0556
 3203TIP3    H131244   1.904   1.354   0.046 -1.6159 -0.7959  1.1119
 3203TIP3    H231245   1.860   1.476  -0.032  1.5150 -0.2326  0.0969
 3204TIP3   OH231246   0.895   1.586   2.106 -0.4625 -0.4961  0.6380
 3204TIP3    H131247   0.866   1.501   2.074  1.7466 -0.7524 -0.8835
 3204TIP3    H231248   0.980   1.600   2.065 -0.3386  2.0567  1.5569
 3205TIP3   OH231249   1.542   2.321   0.904  0.2759 -0.0784 -0.2800
 3205TIP3    H131250   1.487   2.271   0.844  0.7546 -2.4077  1.0901
 3205TIP3    H231251   1.585   2.386   0.848 -0.3811 -1.1871 -2.1800
 3206TIP3   OH231252   2.619   0.478   0.446 -0.0827 -0.2026  0.0901
 3206TIP3    H131253   2.697   0.509   0.401 -0.8753  3.0298  0.7224
 3206TIP3    H231254   2.551   0.477   0.378 -0.5019  1.4431  0.4494
 3207TIP3   OH231255   6.307   6.188   6.972 -0.4463 -0.1694  0.1943
 3207TIP3    H131256   6.275   6.271   7.009  1.1840  0.3898  0.4325
 3207TIP3    H231257   6.363   6.152   7.041  0.1953 -0.6351 -0.5603
 3208TIP3   OH231258   1.011   5.323   8.296 -0.1049  0.3601  0.3227
 3208TIP3    H131259   1.014   5.405   8.246  1.4448 -1.1241 -2.2764
 3208TIP3    H231260   1.103   5.299   8.309 -0.4262 -2.1260 -1.2092
 3209TIP3   OH231261   0.159   1.767   6.979 -0.0986 -0.3307  0.7091
 3209TIP3    H131262   0.237   1.761   7.034  1.5808  1.2655 -1.3134
 3209TIP3    H231263   0.127   1.857   6.993 -0.1900 -0.2142 -0.2176
 3210TIP3   OH231264   0.667   3.636   7.977  0.6113 -0.6003  0.2525
 3210TIP3    H131265   0.637   3.726   7.965 -0.5578 -1.0091  0.0126
 3210TIP3    H231266   0.667   3.624   8.072  0.7439 -0.3664  0.2839
 3211TIP3   OH231267   5.073   4.561   2.006  0.1479  0.1606 -0.0800
 3211TIP3    H131268   5.135   4.634   2.015  1.7942 -1.2547  0.5517
 3211TIP3    H231269   5.064   4.527   2.095 -2.1786  0.7886 -0.0273
 3212TIP3   OH231270   4.130   4.253   0.672  0.0711 -0.2968 -0.2822
 3212TIP3    H131271   4.067   4.263   0.744 -1.1115 -0.3141 -1.2690
 3212TIP3    H231272   4.168   4.340   0.660 -0.5700 -0.0238 -0.3676
 3213TIP3   OH231273   6.431   0.880   1.908 -0.2905  0.1217 -0.0664
 3213TIP3    H131274   6.447   0.913   1.997  1.9132  0.5273 -0.5515
 3213TIP3    H231275   6.370   0.942   1.870 -1.3223 -0.1026  1.1786
 3214TIP3   OH231276   4.061   4.588   7.910  0.0507 -0.1989 -0.1680
 3214TIP3    H131277   4.008   4.640   7.848 -0.4164 -0.4108  0.0507
 3214TIP3    H231278   3.997   4.533   7.955  0.6495 -1.8440 -1.2270
 3215TIP3   OH231279   2.546   6.199   8.888  0.6156  0.2637 -0.8063
 3215TIP3    H131280   2.562   6.229   8.799  1.5893  0.4248 -0.5905
 3215TIP3    H231281   2.567   6.105   8.886  1.2978  0.4079 -0.5959
 3216TIP3   OH231282   0.315   4.354   8.238 -0.4851  0.0977 -0.1832
 3216TIP3    H131283   0.339   4.269   8.277 -1.5426 -0.4682 -0.7218
 3216TIP3    H231284   0.377   4.416   8.276  0.2339 -0.8988  0.3174
 3217TIP3   OH231285   5.347   4.191   1.919  0.0538 -0.0836  0.1734
 3217TIP3    H131286   5.419   4.197   1.856 -0.0420  0.6832  0.1268
 3217TIP3    H231287   5.336   4.097   1.935  0.9363 -0.2134  0.0371
 3218TIP3   OH231288   2.318   1.601   2.777  0.2793 -0.2669  0.0953
 3218TIP3    H131289   2.376   1.554   2.837  0.0209  0.9486  1.3645
 3218TIP3    H231290   2.234   1.557   2.786  0.6769 -1.2450 -0.7988
 3219TIP3   OH231291   4.840   1.282   2.281 -0.4612 -0.3395 -0.0416
 3219TIP3    H131292   4.885   1.237   2.353  0.0209  0.1059 -0.0576
 3219TIP3    H231293   4.808   1.363   2.320 -0.1636 -0.0770 -0.3396
 3220TIP3   OH231294   3.328   1.431   1.665  0.2957 -0.7082  0.2161
 3220TIP3    H131295   3.361   1.489   1.734 -1.5491  1.0342 -0.2914
 3220TIP3    H231296   3.243   1.467   1.642  0.4441 -1.8095 -2.3489
 3221TIP3   OH231297   0.095   0.230   8.375  0.6764  0.3646 -0.4509
 3221TIP3    H131298  -0.000   0.234   8.381  0.6889  0.7400 -0.4274
 3221TIP3    H231299   0.116   0.137   8.375  0.4973  0.1844  2.8522
 3222TIP3   OH231300   6.437   2.327   8.147 -0.5471  0.0016  0.5431
 3222TIP3    H131301   6.421   2.311   8.054 -0.3442  1.9650  0.1259
 3222TIP3    H231302   6.362   2.287   8.192 -2.0051  1.2415 -0.6774
 3223TIP3   OH231303   3.246   3.947   1.511  0.2116 -0.7730  0.0408
 3223TIP3    H131304   3.244   3.856   1.481 -1.0635 -0.3688 -1.2339
 3223TIP3    H231305   3.298   3.993   1.445  0.2839 -0.4618  0.3133
 3224TIP3   OH231306   1.484   5.983   0.589 -0.0560 -0.2737  0.0459
 3224TIP3    H131307   1.534   5.906   0.615 -0.2742 -0.1625  0.8146
 3224TIP3    H231308   1.538   6.025   0.521  0.3505 -0.7645  0.0610
 3225TIP3   OH231309   1.470   1.391   7.514  0.7175 -0.0034 -0.1909
 3225TIP3    H131310   1.493   1.440   7.435  1.2501  0.2000  0.0867
 3225TIP3    H231311   1.492   1.300   7.493  1.6324  0.1618  0.0049
 3226TIP3   OH231312   3.429   0.931   7.209 -0.5362 -0.6423 -0.4390
 3226TIP3    H131313   3.411   1.024   7.196  0.1845 -0.2553  1.0853
 3226TIP3    H231314   3.356   0.886   7.166 -1.1714  0.6399 -0.7463
 3227TIP3   OH231315   3.099   4.822   0.200  0.2765  0.2158  0.5359
 3227TIP3    H131316   3.083   4.829   0.106  3.6268  0.9075 -0.1138
 3227TIP3    H231317   3.057   4.740   0.225 -2.5974  1.0904 -1.0436
 3228TIP3   OH231318   6.311   2.643   8.855  0.1350  0.0714  0.7096
 3228TIP3    H131319   6.241   2.636   8.920 -1.2121  0.1125 -0.6824
 3228TIP3    H231320   6.281   2.590   8.782  0.5645  1.7353 -0.7565
 3229TIP3   OH231321   1.510   6.345   7.531  0.2525 -0.0431  0.3375
 3229TIP3    H131322   1.494   6.284   7.604  0.8545  0.5209  0.9463
 3229TIP3    H231323   1.557   6.418   7.570  1.1522 -0.0209 -0.7480
 3230TIP3   OH231324   0.028   0.268   0.718 -0.5736 -0.1220 -0.4170
 3230TIP3    H131325   0.108   0.245   0.671 -0.0120  2.0014 -0.6046
 3230TIP3    H231326   0.020   0.363   0.707 -2.5040 -0.1182  0.5721
 3231TIP3   OH231327   5.932   6.069   8.189 -0.5803 -0.0986 -0.4238
 3231TIP3    H131328   5.884   6.041   8.266  0.0452 -2.0282 -0.6809
 3231TIP3    H231329   5.995   5.999   8.172  2.3192  2.2062 -0.1609
 3232TIP3   OH231330   4.554   2.007   7.829 -0.1624 -0.3555  0.5873
 3232TIP3    H131331   4.592   2.006   7.741 -0.7795  1.8809  0.2492
 3232TIP3    H231332   4.588   2.087   7.869  1.4178 -2.1110  3.0506
 3233TIP3   OH231333   1.339   2.662   2.340  1.0922 -0.5799  0.0942
 3233TIP3    H131334   1.358   2.713   2.418 -0.3970  0.0654  0.0643
 3233TIP3    H231335   1.355   2.571   2.367  1.8925 -0.2690  0.7200
 3234TIP3   OH231336   6.731   2.125   8.466  0.9482 -0.3930 -0.2859
 3234TIP3    H131337   6.787   2.198   8.493  0.2783  0.9520 -2.2747
 3234TIP3    H231338   6.664   2.121   8.534 -0.6094  2.7855 -1.4042
 3235TIP3   OH231339   6.466   2.748   6.795  0.1068 -0.5230 -0.5047
 3235TIP3    H131340   6.404   2.696   6.846  1.1188 -1.3186 -0.0388
 3235TIP3    H231341   6.519   2.683   6.748 -0.0160  0.1617 -1.6496
 3236TIP3   OH231342   2.948   0.745   1.042 -0.6088  0.2292  0.0507
 3236TIP3    H131343   2.934   0.834   1.010  0.0521  0.7142  1.0717
 3236TIP3    H231344   2.912   0.745   1.130 -0.3285 -0.4337  0.1722
 3237TIP3   OH231345   2.421   0.724   8.321  0.4744 -0.0682 -0.0620
 3237TIP3    H131346   2.349   0.787   8.313  0.4655  0.1627  1.4941
 3237TIP3    H231347   2.498   0.778   8.338  0.3357 -0.4589  2.0634
 3238TIP3   OH231348   4.151   0.390   0.229  0.1901  0.6383 -0.5262
 3238TIP3    H131349   4.197   0.358   0.151  1.9929  1.3958  0.1778
 3238TIP3    H231350   4.112   0.473   0.201  1.4238  1.2641 -0.4859
 3239TIP3   OH231351   4.783   4.789   2.104  0.0617  0.5965  0.3340
 3239TIP3    H131352   4.791   4.702   2.143  1.2399  0.4586 -0.1882
 3239TIP3    H231353   4.708   4.829   2.149 -1.8188 -1.4184 -0.8044
 3240TIP3   OH231354   0.520   2.612   2.125  0.1280  0.7055  0.0536
 3240TIP3    H131355   0.515   2.613   2.029  3.7546 -1.5314 -0.3608
 3240TIP3    H231356   0.459   2.542   2.151 -0.7415  1.1987 -0.5880
 3241TIP3   OH231357   2.337   1.259   0.134 -0.1674  0.0362 -0.1452
 3241TIP3    H131358   2.252   1.274   0.175 -0.8013 -1.1368 -0.9668
 3241TIP3    H231359   2.328   1.174   0.090  0.6353  0.9776 -2.2752
 3242TIP3   OH231360   4.297   4.504   1.096 -0.0525 -0.0518 -0.1445
 3242TIP3    H131361   4.377   4.499   1.149  0.2192 -0.2185 -0.5639
 3242TIP3    H231362   4.276   4.413   1.076 -0.9295 -0.0722  0.8111
 3243TIP3   OH231363   5.062   2.500   0.469  0.3369 -0.5822 -0.1218
 3243TIP3    H131364   5.072   2.523   0.561 -0.5799  0.4907 -0.2647
 3243TIP3    H231365   5.126   2.554   0.423 -0.3062  0.0862 -0.2513
 3244TIP3   OH231366   6.054   5.724   8.809  0.4308  0.4662  0.1120
 3244TIP3    H131367   6.106   5.709   8.729 -1.9788  1.4429 -1.7536
 3244TIP3    H231368   6.013   5.640   8.827 -0.6027  0.7099 -0.9480
 3245TIP3   OH231369   1.097   2.676   1.048 -0.1079 -0.1146 -0.0370
 3245TIP3    H131370   1.156   2.601   1.052  1.1446  0.8912  0.8925
 3245TIP3    H231371   1.022   2.650   1.101  0.8211 -0.3037  1.2215
 3246TIP3   OH231372   2.505   4.425   7.404  0.0842  0.0650  0.0611
 3246TIP3    H131373   2.514   4.359   7.473 -2.8013 -0.1938  0.3029
 3246TIP3    H231374   2.452   4.383   7.337  2.2732  0.5547 -2.1008
 3247TIP3   OH231375   5.547   2.471   7.684  0.4773  0.1642 -0.2297
 3247TIP3    H131376   5.520   2.489   7.593  2.0646  1.7721 -0.4481
 3247TIP3    H231377   5.598   2.390   7.678  1.4810  0.8217 -1.0031
 3248TIP3   OH231378   5.401   6.382   0.878  0.4029  0.0242 -0.0101
 3248TIP3    H131379   5.367   6.337   0.801 -0.0626 -2.9370  1.7738
 3248TIP3    H231380   5.343   6.457   0.890 -3.4582 -2.7741  0.7707
 3249TIP3   OH231381   0.186   2.503   1.022  0.1500 -0.3233 -0.8335
 3249TIP3    H131382   0.144   2.418   1.025  0.5742 -0.5818 -1.8114
 3249TIP3    H231383   0.205   2.524   1.113 -1.9476 -0.2488 -0.3694
 3250TIP3   OH231384   0.037   5.372   8.552 -0.5211  0.0860 -0.2630
 3250TIP3    H131385  -0.026   5.312   8.512 -0.1137 -0.1461 -0.5630
 3250TIP3    H231386   0.093   5.399   8.479  1.9217 -2.3930  0.5350
 3251TIP3   OH231387   0.868   0.607   1.191  0.1141 -0.0300 -0.0613
 3251TIP3    H131388   0.883   0.626   1.099  0.1467  0.7477  0.0992
 3251TIP3    H231389   0.818   0.681   1.223 -0.3816 -0.5600  0.4201
 3252TIP3   OH231390   0.686   2.835   2.140 -0.1949  0.1692 -0.3042
 3252TIP3    H131391   0.638   2.755   2.161 -1.0149  1.0099  1.1712
 3252TIP3    H231392   0.619   2.899   2.121  0.3418  1.1750  1.0598
 3253TIP3   OH231393   2.037   4.238   7.726  0.2689  0.1706 -0.6467
 3253TIP3    H131394   2.023   4.271   7.637  0.1069  0.1797 -0.6186
 3253TIP3    H231395   2.097   4.301   7.765  0.1056  0.3337 -0.6542
 3254TIP3   OH231396   1.011   1.191   0.880  0.1981 -0.4432  0.2055
 3254TIP3    H131397   1.003   1.284   0.905  1.7335 -0.2106 -0.0805
 3254TIP3    H231398   1.105   1.175   0.876 -0.0276 -1.6724 -1.0591
 3255TIP3   OH231399   5.568   1.217   1.375  0.9667 -0.2154 -0.3334
 3255TIP3    H131400   5.622   1.140   1.395  0.8386 -0.2651 -0.1766
 3255TIP3    H231401   5.582   1.276   1.450  0.2548 -0.5283  0.0524
 3256TIP3   OH231402   0.336   3.984   8.024 -0.3994 -0.2667 -0.1481
 3256TIP3    H131403   0.330   4.034   8.106 -0.7651  0.3973 -0.5744
 3256TIP3    H231404   0.426   3.950   8.024 -0.2831  0.0246  0.3608
 3257TIP3   OH231405   1.960   4.726   1.114 -0.3086 -0.4643 -0.1520
 3257TIP3    H131406   1.925   4.758   1.031  3.1009  0.1200 -1.5475
 3257TIP3    H231407   1.970   4.804   1.167 -2.4076 -0.8289  0.8842
 3258TIP3   OH231408   0.338   5.911   1.247  0.4810  0.3609  0.0677
 3258TIP3    H131409   0.425   5.874   1.264  0.3103  0.6094  1.6226
 3258TIP3    H231410   0.349   5.962   1.167  1.5627 -0.2959 -0.2180
 3259TIP3   OH231411   2.477   5.789   7.756  0.3360  0.0351  0.0961
 3259TIP3    H131412   2.493   5.739   7.836  1.4081  0.4848  0.1820
 3259TIP3    H231413   2.564   5.820   7.729 -0.0307  0.0646 -1.1281
 3260TIP3   OH231414   6.066   3.781   8.356 -0.4440  0.0934  0.0840
 3260TIP3    H131415   6.088   3.868   8.390  0.3570 -0.4691  1.0933
 3260TIP3    H231416   5.971   3.776   8.361 -0.5516  1.1340 -0.5934
 3261TIP3   OH231417   4.479   5.040   0.839  0.2154 -0.3337  0.4236
 3261TIP3    H131418   4.481   4.948   0.865  1.4757 -0.4700 -0.0533
 3261TIP3    H231419   4.389   5.068   0.854 -0.8244 -2.2940 -1.5962
 3262TIP3   OH231420   2.170   0.044   0.412  0.5783  0.0559 -0.7616
 3262TIP3    H131421   2.132   0.123   0.373  0.3535 -1.1788 -3.2286
 3262TIP3    H231422   2.255   0.072   0.444  0.7536  1.2104 -2.1292
 3263TIP3   OH231423   5.443   2.885   8.079 -0.1046 -0.3055  0.6174
 3263TIP3    H131424   5.429   2.795   8.050  1.1597 -0.1602 -0.5212
 3263TIP3    H231425   5.423   2.884   8.173 -0.2310 -1.7348  0.5888
 3264TIP3   OH231426   3.628   4.962   1.129 -0.2846 -0.6269  0.0966
 3264TIP3    H131427   3.710   4.976   1.082  0.8606  0.0124  2.1658
 3264TIP3    H231428   3.570   5.032   1.097  0.2864 -0.5146 -0.7140
 3265TIP3   OH231429   6.339   2.871   1.369 -0.0630  0.4217 -0.2670
 3265TIP3    H131430   6.314   2.830   1.452 -0.5618  1.0061 -0.1188
 3265TIP3    H231431   6.261   2.920   1.342  0.1234  0.2984 -1.0446
 3266TIP3   OH231432   4.851   6.287   1.991 -0.2464  0.0827  0.5460
 3266TIP3    H131433   4.892   6.307   1.906 -0.9339 -1.0776 -0.0823
 3266TIP3    H231434   4.905   6.217   2.027  0.3534  0.9203  1.3397
 3267TIP3   OH231435   6.409   6.551   0.903  0.1709 -0.1630 -0.9067
 3267TIP3    H131436   6.394   6.512   0.989 -2.2059 -0.7290 -1.5053
 3267TIP3    H231437   6.422   6.476   0.845 -0.5423  0.0829 -1.4025
 3268TIP3   OH231438   4.102   1.988   0.452  0.0603 -0.5861 -0.1006
 3268TIP3    H131439   4.161   1.986   0.376 -0.5791 -1.5642 -0.5975
 3268TIP3    H231440   4.068   2.078   0.453  0.4572 -0.4220 -0.6781
 3269TIP3   OH231441   5.416   3.931   1.929  0.4825 -0.2142  0.2545
 3269TIP3    H131442   5.396   3.852   1.980  0.6165  0.0586  0.7338
 3269TIP3    H231443   5.510   3.942   1.937  0.5443 -0.3254 -0.2905
 3270TIP3   OH231444   0.027   5.143   0.895 -0.4593 -0.2663  0.6950
 3270TIP3    H131445   0.030   5.048   0.907  1.4042 -0.5169 -1.1004
 3270TIP3    H231446  -0.049   5.158   0.838 -0.1984 -0.8309  0.1773
 3271TIP3   OH231447   4.251   6.786   0.123 -0.3373 -0.0023  0.4740
 3271TIP3    H131448   4.233   6.805   0.215 -0.6164  0.4400  0.3287
 3271TIP3    H231449   4.344   6.765   0.121 -0.4395 -0.5430  0.9423
 3272TIP3   OH231450   2.225   3.417   2.372 -0.4831  0.4980  0.1774
 3272TIP3    H131451   2.132   3.402   2.389 -0.2356 -0.1647  0.9616
 3272TIP3    H231452   2.266   3.421   2.459  0.2462  0.6616 -0.1623
 3273TIP3   OH231453   6.439   5.445   2.471 -0.2177  0.2482  0.0673
 3273TIP3    H131454   6.475   5.530   2.444 -0.4238  0.8820  1.6188
 3273TIP3    H231455   6.478   5.430   2.557 -2.1051  0.0150  0.9389
 3274TIP3   OH231456   5.138   5.127   0.468  0.3468 -0.2110  0.3469
 3274TIP3    H131457   5.231   5.112   0.452  0.2906 -1.0599  0.7516
 3274TIP3    H231458   5.103   5.041   0.491 -0.7660 -0.1084 -0.8392
 3275TIP3   OH231459   4.407   2.347   8.630 -0.1757 -0.2093  0.1192
 3275TIP3    H131460   4.379   2.317   8.716 -2.2879  1.1453 -0.0222
 3275TIP3    H231461   4.390   2.273   8.571 -0.0883 -0.6332  0.6240
 3276TIP3   OH231462   3.516   0.593   8.452  0.2257  0.5067 -0.4112
 3276TIP3    H131463   3.553   0.574   8.539 -2.4567 -0.9731  0.4986
 3276TIP3    H231464   3.517   0.509   8.407  0.7656  1.0898 -1.5218
 3277TIP3   OH231465   5.406   2.032   8.509 -0.0554 -0.1040  0.1756
 3277TIP3    H131466   5.453   2.038   8.592 -0.0959 -0.6831  0.2415
 3277TIP3    H231467   5.468   2.066   8.445 -0.2712  0.9959  0.5242
 3278TIP3   OH231468   5.568   6.100   0.296 -0.4730  0.0399  0.3265
 3278TIP3    H131469   5.503   6.036   0.328 -0.2748  0.2170  1.1121
 3278TIP3    H231470   5.532   6.185   0.323 -0.3005  0.1981  0.0594
 3279TIP3   OH231471   3.705   2.481   1.234  0.3660  0.1429 -0.0233
 3279TIP3    H131472   3.730   2.418   1.301  2.1465  1.9809  1.1571
 3279TIP3    H231473   3.724   2.437   1.151  1.3491 -0.9511  0.7576
 3280TIP3   OH231474   3.726   4.342   2.281 -0.0802 -0.1140 -0.3428
 3280TIP3    H131475   3.768   4.331   2.196 -1.9725  0.4396 -1.4242
 3280TIP3    H231476   3.797   4.340   2.344  1.4350 -0.0959 -1.9824
 3281TIP3   OH231477   2.133   1.252   7.176  0.3793 -0.6957 -0.1618
 3281TIP3    H131478   2.130   1.305   7.096 -0.2324  2.3102  1.7053
 3281TIP3    H231479   2.102   1.166   7.148 -1.9252  0.8025 -2.7892
 3282TIP3   OH231480   3.679   1.723   8.584 -0.0085 -0.3863 -0.4415
 3282TIP3    H131481   3.633   1.715   8.500  1.2156  0.4491 -1.2276
 3282TIP3    H231482   3.768   1.692   8.566 -0.7252 -4.4153  1.6546
 3283TIP3   OH231483   4.450   0.375   0.316  0.3465 -0.1794 -0.0728
 3283TIP3    H131484   4.451   0.419   0.401  0.6765  1.4049 -0.8581
 3283TIP3    H231485   4.358   0.377   0.289  0.3290 -0.1564 -0.0125
 3284TIP3   OH231486   1.512   4.383   1.684  0.3964 -0.3326  0.3972
 3284TIP3    H131487   1.499   4.343   1.770  0.8838 -0.8335  0.2445
 3284TIP3    H231488   1.604   4.367   1.664  0.4973  0.5294  0.1556
 3285TIP3   OH231489   4.902   5.745   1.121 -0.1608 -0.3622 -0.1025
 3285TIP3    H131490   4.974   5.806   1.137  0.1775 -0.6910 -0.3638
 3285TIP3    H231491   4.906   5.682   1.192 -2.4040  1.6269  1.9820
 3286TIP3   OH231492   2.387   0.444   0.299  1.0728  0.2417 -0.3142
 3286TIP3    H131493   2.381   0.502   0.223  1.4868  0.6741 -0.0229
 3286TIP3    H231494   2.299   0.445   0.337  1.5001  2.1581  0.7491
 3287TIP3   OH231495   0.868   0.436   0.269 -0.4005  0.0814 -0.4635
 3287TIP3    H131496   0.779   0.402   0.259  0.2998 -1.4736 -1.7604
 3287TIP3    H231497   0.924   0.368   0.233  1.3918  0.7203  0.9997
 3288TIP3   OH231498   6.108   3.752   7.086 -0.4698  0.2587 -0.1178
 3288TIP3    H131499   6.040   3.702   7.042 -1.5806  0.3054  1.4695
 3288TIP3    H231500   6.098   3.841   7.052 -0.0095 -0.0781 -1.1997
 3289TIP3   OH231501   5.844   2.706   1.948  0.7138  0.0591 -0.5492
 3289TIP3    H131502   5.794   2.628   1.971  0.9416  0.6664  2.4189
 3289TIP3    H231503   5.934   2.686   1.972  1.3489  0.2212 -2.5906
 3290TIP3   OH231504   2.076   3.080   2.308 -0.3620 -0.5837  0.2902
 3290TIP3    H131505   2.110   3.100   2.395  1.6650 -0.9564 -0.3742
 3290TIP3    H231506   1.987   3.117   2.309  0.5298  1.7889  1.6060
 3291TIP3   OH231507   1.327   5.997   7.588  0.2423  0.1112 -0.0983
 3291TIP3    H131508   1.282   6.077   7.615 -0.1309 -0.5645  1.4293
 3291TIP3    H231509   1.307   5.988   7.495 -0.4764  1.2888 -0.0840
 3292TIP3   OH231510   4.234   2.169   1.778 -0.6503 -0.2647  0.0511
 3292TIP3    H131511   4.287   2.186   1.701 -0.9116  1.2092  0.1565
 3292TIP3    H231512   4.237   2.251   1.828 -1.8011 -0.6442  0.7934
 3293TIP3   OH231513   4.851   6.579   0.562 -0.1266 -0.6778 -0.9060
 3293TIP3    H131514   4.904   6.603   0.638  0.3191 -0.6092 -1.2367
 3293TIP3    H231515   4.762   6.608   0.584 -0.0402 -0.8491 -0.3274
 3294TIP3   OH231516   3.469   0.989   0.188  0.2506  0.0949 -0.4069
 3294TIP3    H131517   3.462   1.060   0.251 -0.0352  1.8923 -2.3578
 3294TIP3    H231518   3.414   0.919   0.224  2.2423 -0.0963  2.6481
 3295TIP3   OH231519   3.286   1.130   8.923 -0.4520  0.0024  0.0579
 3295TIP3    H131520   3.276   1.072   8.848 -0.1492 -0.7675  0.5992
 3295TIP3    H231521   3.368   1.177   8.906  0.1807 -0.9486  0.4087
 3296TIP3   OH231522   1.370   5.114   2.862  0.2028 -0.2131  0.2859
 3296TIP3    H131523   1.441   5.086   2.804 -0.4623  0.0249 -0.6738
 3296TIP3    H231524   1.385   5.208   2.874  1.0067 -0.4787  1.4688
 3297TIP3   OH231525   0.788   4.734   7.699 -0.1044 -0.3558 -0.0264
 3297TIP3    H131526   0.762   4.788   7.625  0.4105  2.5971  1.7665
 3297TIP3    H231527   0.732   4.656   7.694 -2.5270  1.3622 -1.5635
 3298TIP3   OH231528   4.164   3.479   0.830 -0.2032 -0.0050 -0.4911
 3298TIP3    H131529   4.155   3.408   0.893  1.0205  0.1663 -0.1129
 3298TIP3    H231530   4.224   3.541   0.871 -2.6536  2.1942  0.0044
 3299TIP3   OH231531   0.565   2.176   7.531 -0.0015  0.1718  0.3163
 3299TIP3    H131532   0.490   2.138   7.486 -1.5407  2.0276  1.1671
 3299TIP3    H231533   0.619   2.213   7.462 -0.1796 -0.6225 -0.2628
 3300TIP3   OH231534   0.411   2.334   2.125 -0.0596  0.2635  0.7552
 3300TIP3    H131535   0.469   2.300   2.057 -3.9170  0.6481 -3.1145
 3300TIP3    H231536   0.353   2.261   2.146 -2.3777  1.6144 -0.5873
 3301TIP3   OH231537   5.279   5.522   8.843 -0.3514  0.1237  0.2461
 3301TIP3    H131538   5.359   5.480   8.876 -0.0903 -0.9470 -1.5652
 3301TIP3    H231539   5.311   5.587   8.780 -0.8857  0.0705 -0.0878
 3302TIP3   OH231540   3.638   4.167   8.370  0.2630 -0.4294  0.3827
 3302TIP3    H131541   3.556   4.122   8.350 -0.0911  1.0966 -2.0016
 3302TIP3    H231542   3.703   4.121   8.316 -0.1528  1.8820 -2.3108
 3303TIP3   OH231543   2.027   5.783   1.611 -0.6996 -0.7866 -0.0934
 3303TIP3    H131544   2.093   5.746   1.670 -1.2341  0.8407  1.6179
 3303TIP3    H231545   1.966   5.828   1.669 -1.3055  0.8417 -1.9148
 3304TIP3   OH231546   0.505   4.913   8.041 -0.1478 -0.6260  0.4931
 3304TIP3    H131547   0.589   4.868   8.034 -1.3626 -3.5709  2.5677
 3304TIP3    H231548   0.487   4.916   8.135 -1.9945  0.6575  0.1519
 3305TIP3   OH231549   2.482   5.728   8.693  0.2594  0.3234  0.1826
 3305TIP3    H131550   2.449   5.643   8.662  0.7570  0.2404 -0.1450
 3305TIP3    H231551   2.574   5.728   8.666  1.0479 -0.2040  2.5920
 3306TIP3   OH231552   4.684   0.672   7.303 -0.0189 -0.3160 -0.2173
 3306TIP3    H131553   4.632   0.729   7.359  0.3173 -1.2785  1.1084
 3306TIP3    H231554   4.704   0.726   7.226 -2.2641  0.3442 -0.4137
 3307TIP3   OH231555   4.609   4.014   0.884 -0.1307  0.1265  0.5470
 3307TIP3    H131556   4.577   4.021   0.794 -1.5684 -1.0563  0.9336
 3307TIP3    H231557   4.619   4.105   0.913 -0.8242  0.5217 -0.4060
 3308TIP3   OH231558   3.695   6.715   1.704 -0.6705 -0.1797  0.1716
 3308TIP3    H131559   3.615   6.766   1.692  0.2614  1.8172  1.7783
 3308TIP3    H231560   3.725   6.739   1.792  1.9584 -0.4407 -0.5643
 3309TIP3   OH231561   2.772   2.616   0.903  0.1819 -0.3104  0.3417
 3309TIP3    H131562   2.730   2.645   0.984 -0.1672 -0.0415  0.0712
 3309TIP3    H231563   2.842   2.679   0.888  2.0564 -1.9277  1.8844
 3310TIP3   OH231564   4.821   4.560   1.501  0.2382 -0.6422  0.2645
 3310TIP3    H131565   4.787   4.527   1.584 -0.7235  0.6355  0.4136
 3310TIP3    H231566   4.770   4.639   1.484  2.1168  0.5406 -0.2748
 3311TIP3   OH231567   3.853   5.974   8.885  0.4010  0.0684  0.9611
 3311TIP3    H131568   3.884   5.998   8.797 -0.0413  0.0302  0.7902
 3311TIP3    H231569   3.931   5.978   8.940  0.2006  3.1350  1.2071
 3312TIP3   OH231570   0.375   3.342   2.313 -0.6359  0.0007  0.0639
 3312TIP3    H131571   0.440   3.322   2.247  0.2085 -2.0064  1.4249
 3312TIP3    H231572   0.340   3.257   2.340 -2.7757  0.9252  0.4312
 3313TIP3   OH231573   2.824   5.253   7.872  0.0802 -0.4409  0.6055
 3313TIP3    H131574   2.791   5.217   7.955  0.4152 -0.2202  0.8391
 3313TIP3    H231575   2.835   5.177   7.815 -2.3000 -0.3804 -0.0162
 3314TIP3   OH231576   4.540   6.476   1.724  0.4614  0.4537  0.1869
 3314TIP3    H131577   4.478   6.403   1.727  1.3516 -0.3354 -0.2710
 3314TIP3    H231578   4.487   6.553   1.746 -1.7829  0.5460 -4.4145
 3315TIP3   OH231579   1.131   1.424   1.933 -0.4564  0.0399 -0.4035
 3315TIP3    H131580   1.149   1.517   1.949 -1.7878  0.1461  0.6296
 3315TIP3    H231581   1.140   1.383   2.019  1.8835 -1.1631 -1.1228
 3316TIP3   OH231582   1.056   1.242   7.819 -0.4028 -0.5553 -0.6301
 3316TIP3    H131583   1.065   1.152   7.850 -0.7779  0.0103  1.2850
 3316TIP3    H231584   1.138   1.259   7.772  1.0170 -1.0073  1.5025
 3317TIP3   OH231585   4.280   2.011   7.778 -0.4298  0.3137  0.1670
 3317TIP3    H131586   4.350   2.058   7.823  0.9992  0.0091 -1.6362
 3317TIP3    H231587   4.215   1.994   7.846  1.0480  0.9690  1.8105
 3318TIP3   OH231588   0.996   5.042   2.052  0.1160  0.2813  0.6498
 3318TIP3    H131589   0.975   4.973   1.988 -0.7138  0.8387  0.3031
 3318TIP3    H231590   1.092   5.044   2.054  0.1517 -0.1929 -0.0877
 3319TIP3   OH231591   5.228   6.119   8.353 -0.3285 -0.6630  0.5580
 3319TIP3    H131592   5.154   6.174   8.325 -0.5880 -0.9751  0.6305
 3319TIP3    H231593   5.283   6.178   8.405  0.6200  0.1926 -1.2969
 3320TIP3   OH231594   4.622   3.383   0.796 -0.3660 -0.1485 -0.2898
 3320TIP3    H131595   4.627   3.352   0.887 -0.9682  0.4533 -0.0371
 3320TIP3    H231596   4.528   3.393   0.780 -0.2836 -0.7404 -1.1554
 3321TIP3   OH231597   6.641   5.834   1.147 -0.1307  0.3033  0.3697
 3321TIP3    H131598   6.622   5.885   1.068  2.9266  0.1486 -0.5710
 3321TIP3    H231599   6.626   5.743   1.120  1.0287  0.2393 -0.1421
 3322TIP3   OH231600   6.144   2.657   1.220 -0.0008 -0.0120 -0.5996
 3322TIP3    H131601   6.171   2.744   1.250  2.6892 -2.0355  3.8195
 3322TIP3    H231602   6.076   2.631   1.281 -1.0576 -0.9141 -2.1168
 3323TIP3   OH231603   6.300   2.031   0.598  0.3292  0.0625 -0.3673
 3323TIP3    H131604   6.226   2.005   0.544  0.9978 -0.0168 -1.2784
 3323TIP3    H231605   6.274   2.009   0.688 -1.1926  1.0883 -0.5210
 3324TIP3   OH231606   0.895   1.864   2.097 -0.5353 -0.4237 -0.2205
 3324TIP3    H131607   0.887   1.875   2.002 -0.8854 -0.0470 -0.1500
 3324TIP3    H231608   0.880   1.770   2.111 -0.2457 -0.5220 -0.5612
 3325TIP3   OH231609   1.930   2.617   0.541 -0.2226 -0.2383  0.2611
 3325TIP3    H131610   1.964   2.575   0.620 -1.7515  0.1101  1.1442
 3325TIP3    H231611   1.956   2.709   0.550  1.5628 -0.6057 -0.7870
 3326TIP3   OH231612   1.111   5.399   2.433  0.2273 -0.3626 -0.5128
 3326TIP3    H131613   1.067   5.318   2.411 -0.6985  0.1644 -0.6507
 3326TIP3    H231614   1.204   5.378   2.428  0.0086 -1.6257  0.2846
 3327TIP3   OH231615   3.427   0.817   0.718 -0.3817 -0.2364  0.0615
 3327TIP3    H131616   3.425   0.852   0.807  1.8550  1.4264 -0.4644
 3327TIP3    H231617   3.477   0.735   0.725 -1.3948 -0.8267  0.5255
 3328TIP3   OH231618   2.204   4.431   7.818 -0.1906 -0.4487 -0.3369
 3328TIP3    H131619   2.272   4.403   7.757  1.3425  0.7605  0.7537
 3328TIP3    H231620   2.237   4.406   7.904 -1.1005  0.2203  0.2208
 3329TIP3   OH231621   5.494   6.369   7.331  0.1270  0.1683  0.0852
 3329TIP3    H131622   5.475   6.285   7.290  0.8218 -0.0780  0.2562
 3329TIP3    H231623   5.453   6.434   7.273  0.3812 -0.2296 -0.5553
 3330TIP3   OH231624   1.482   3.752   2.030  0.1806  0.5989 -0.1653
 3330TIP3    H131625   1.514   3.820   1.971 -0.0660  0.2565 -0.7022
 3330TIP3    H231626   1.468   3.797   2.113  2.1344  0.7508  0.1385
 3331TIP3   OH231627   5.289   1.479   1.083 -0.3956 -0.0476 -0.2525
 3331TIP3    H131628   5.374   1.516   1.059 -0.8790  0.9894 -0.4297
 3331TIP3    H231629   5.260   1.532   1.157 -0.7028 -0.6683  0.0769
 3332TIP3   OH231630   5.475   4.341   8.925 -0.0810 -0.0223  0.2936
 3332TIP3    H131631   5.393   4.291   8.926  0.2330 -0.6802 -1.5768
 3332TIP3    H231632   5.485   4.367   8.833  1.2706  0.9619  0.7007
 3333TIP3   OH231633   0.032   6.435   7.149  0.4704  0.2089 -0.2281
 3333TIP3    H131634  -0.024   6.364   7.118 -0.9169  0.6324  1.1862
 3333TIP3    H231635  -0.029   6.504   7.174  1.6501  0.8624  0.9619
 3334TIP3   OH231636   2.730   5.682   7.109 -0.2600  0.2102  0.1443
 3334TIP3    H131637   2.746   5.591   7.084 -0.3432 -0.2510  1.6695
 3334TIP3    H231638   2.812   5.711   7.148 -0.8829  0.1089  1.5628
 3335TIP3   OH231639   2.191   3.807   1.350  0.4404  0.0943 -0.3592
 3335TIP3    H131640   2.181   3.840   1.260 -0.1305  0.4136 -0.1865
 3335TIP3    H231641   2.232   3.721   1.340 -1.5876 -0.8540 -1.0956
 3336TIP3   OH231642   2.759   6.121   2.102  0.0747  0.1597  0.2950
 3336TIP3    H131643   2.683   6.135   2.046 -0.2171 -1.7773  0.1269
 3336TIP3    H231644   2.724   6.125   2.192 -0.1306 -0.1516  0.2320
 3337TIP3   OH231645   4.325   2.527   8.163 -0.1977  0.2792 -0.0322
 3337TIP3    H131646   4.353   2.542   8.254  1.1500  1.3361 -0.6002
 3337TIP3    H231647   4.297   2.613   8.132  0.6954  0.2276 -1.0487
 3338TIP3   OH231648   2.986   2.256   7.563 -0.7702  0.4210 -0.2887
 3338TIP3    H131649   3.048   2.299   7.503  1.0911 -1.5142  0.1410
 3338TIP3    H231650   2.900   2.281   7.530  0.2095  2.1212 -1.7387
 3339TIP3   OH231651   4.024   0.371   8.821  0.0306  0.6469 -0.5566
 3339TIP3    H131652   4.115   0.400   8.833 -0.1559  1.2995 -0.6667
 3339TIP3    H231653   4.026   0.277   8.840  0.5569  0.8296  0.3951
 3340TIP3   OH231654   3.974   1.654   0.287 -0.0088  0.0435  0.0202
 3340TIP3    H131655   3.938   1.742   0.273  1.2380  0.7190  0.8751
 3340TIP3    H231656   4.063   1.658   0.252 -0.0311 -0.9710 -0.1936
 3341TIP3   OH231657   5.394   5.046   2.137  0.3116  0.0406 -0.3305
 3341TIP3    H131658   5.383   5.126   2.085  1.0739 -0.0884 -0.6963
 3341TIP3    H231659   5.438   4.985   2.078  0.4215 -0.3915  0.1945
 3342TIP3   OH231660   5.110   2.973   2.345  0.2598 -0.1846 -0.5035
 3342TIP3    H131661   5.190   2.959   2.295  0.4686  0.2770 -0.3016
 3342TIP3    H231662   5.043   2.989   2.279  0.6586  1.0758 -0.6390
 3343TIP3   OH231663   0.297   6.354   0.713  0.5359  0.6621  0.8242
 3343TIP3    H131664   0.257   6.434   0.679  0.4290  0.4112  0.3616
 3343TIP3    H231665   0.338   6.312   0.638 -0.1690 -0.1721  0.8829
 3344TIP3   OH231666   2.186   2.809   2.450 -0.4752  0.1234  0.4253
 3344TIP3    H131667   2.240   2.884   2.477  0.2439  0.0141 -0.6443
 3344TIP3    H231668   2.141   2.782   2.530  1.7688 -0.3787  1.5918
 3345TIP3   OH231669   5.372   5.943   7.922 -0.2756 -0.6064 -0.0902
 3345TIP3    H131670   5.385   5.960   8.015  1.4251 -1.3793 -0.1468
 3345TIP3    H231671   5.307   5.873   7.919 -0.1209 -0.7792  0.5217
 3346TIP3   OH231672   0.356   5.653   2.772 -0.4587  0.1293  0.1549
 3346TIP3    H131673   0.402   5.652   2.856  4.0071 -0.0554 -2.0129
 3346TIP3    H231674   0.360   5.745   2.744 -0.8870 -0.0210 -0.4163
 3347TIP3   OH231675   6.524   1.061   1.380 -0.0709  0.3632 -0.3735
 3347TIP3    H131676   6.463   0.987   1.372  1.9540 -1.3720 -0.7039
 3347TIP3    H231677   6.532   1.075   1.474 -0.3739  0.0604 -0.2990
 3348TIP3   OH231678   0.396   3.940   0.714 -0.5032  0.1599 -0.7043
 3348TIP3    H131679   0.346   3.868   0.674 -0.9055  1.1256 -2.0147
 3348TIP3    H231680   0.410   3.912   0.805 -1.7701 -0.9892 -0.8278
 3349TIP3   OH231681   0.979   2.614   7.458 -0.4110  0.0820  0.1128
 3349TIP3    H131682   0.943   2.593   7.545  0.4191  0.6492  0.6032
 3349TIP3    H231683   0.948   2.703   7.440  0.1160  0.2886  0.2075
 3350TIP3   OH231684   3.346   4.584   7.831 -0.2521 -0.1967 -0.0544
 3350TIP3    H131685   3.329   4.643   7.757  0.9656 -0.9461 -0.9770
 3350TIP3    H231686   3.357   4.643   7.906  1.7691  0.8917 -1.1010
 3351TIP3   OH231687   6.433   5.674   0.711  0.0501 -0.1740 -0.3302
 3351TIP3    H131688   6.501   5.669   0.778  0.6688 -1.3341 -1.0163
 3351TIP3    H231689   6.394   5.761   0.724  0.3424 -0.2478  1.3244
 3352TIP3   OH231690   6.336   4.883   1.162  0.0350 -0.1814 -0.4581
 3352TIP3    H131691   6.398   4.930   1.106  0.1174 -1.4111 -1.4296
 3352TIP3    H231692   6.350   4.920   1.249  0.1084  1.5661 -1.1656
 3353TIP3   OH231693   2.875   4.724   1.413  0.2898  0.0985 -0.9938
 3353TIP3    H131694   2.821   4.799   1.387 -0.0265  0.0432 -0.5040
 3353TIP3    H231695   2.819   4.673   1.471  1.1883  0.5620  0.3465
 3354TIP3   OH231696   3.664   6.401   0.388  0.6920 -0.2897  0.3744
 3354TIP3    H131697   3.743   6.452   0.370  1.0036 -0.9191 -0.0852
 3354TIP3    H231698   3.637   6.367   0.302  1.0033 -1.6319  0.7757
 3355TIP3   OH231699   5.364   1.575   8.899 -0.3906  0.0873  0.3317
 3355TIP3    H131700   5.384   1.579   8.992 -0.7461  1.5570  0.3670
 3355TIP3    H231701   5.283   1.524   8.893  0.1844 -0.9018  0.7080
 3356TIP3   OH231702   3.205   6.535   8.334  0.1944  0.3787 -0.2271
 3356TIP3    H131703   3.224   6.493   8.250  1.6437 -0.8156  0.6440
 3356TIP3    H231704   3.126   6.586   8.318  0.6265  0.4592 -2.3961
 3357TIP3   OH231705   0.535   2.008   8.483  0.4162  0.5004  0.2606
 3357TIP3    H131706   0.564   1.966   8.564 -0.4229  0.1110  0.3712
 3357TIP3    H231707   0.531   2.101   8.504  1.1145  0.5165  0.3743
 3358TIP3   OH231708   5.550   3.341   1.221  0.4097 -0.8808 -0.3717
 3358TIP3    H131709   5.457   3.334   1.201  0.3710  0.0888 -0.6011
 3358TIP3    H231710   5.554   3.400   1.297  0.7222 -2.5131  0.9476
 3359TIP3   OH231711   1.179   3.714   8.627  0.4985  0.1650  0.6281
 3359TIP3    H131712   1.269   3.682   8.614  1.3321  2.5021  0.2454
 3359TIP3    H231713   1.185   3.771   8.703 -1.0870 -1.0240  1.7034
 3360TIP3   OH231714   0.477   5.824   8.259  0.3382  0.0876  0.1480
 3360TIP3    H131715   0.466   5.822   8.354 -0.5208 -1.8030  0.0715
 3360TIP3    H231716   0.567   5.795   8.244  0.5966  0.7527  0.3789
 3361TIP3   OH231717   2.106   6.275   7.731 -0.5100 -0.0643 -0.3656
 3361TIP3    H131718   2.120   6.180   7.727  0.0752  0.0100 -0.1196
 3361TIP3    H231719   2.118   6.305   7.641 -0.5797 -0.2035 -0.4232
 3362TIP3   OH231720   2.611   1.279   7.206  0.1323 -0.0130 -0.7959
 3362TIP3    H131721   2.540   1.234   7.160 -0.5731  0.6890 -0.4316
 3362TIP3    H231722   2.681   1.287   7.141  0.0450 -1.0869 -1.0389
 3363TIP3   OH231723   4.337   0.087   7.402 -0.6410  0.3454 -0.2824
 3363TIP3    H131724   4.388   0.131   7.469 -1.5627 -0.0406  0.7155
 3363TIP3    H231725   4.275   0.153   7.371  0.0719  0.6557 -1.1087
 3364TIP3   OH231726   6.155   1.063   2.334  0.5386  0.3641 -0.1503
 3364TIP3    H131727   6.100   1.071   2.412  1.1110  0.2440  0.2665
 3364TIP3    H231728   6.109   1.000   2.279  0.6834 -0.3923  0.5698
 3365TIP3   OH231729   3.954   0.753   7.388  0.3090  0.2195 -0.4513
 3365TIP3    H131730   4.020   0.724   7.324  0.8943  0.8747 -0.1716
 3365TIP3    H231731   3.871   0.719   7.355  0.5989  0.5693 -1.5842
 3366TIP3   OH231732   5.118   2.259   2.185 -0.1927  0.0142  0.2906
 3366TIP3    H131733   5.054   2.189   2.169 -2.8328  2.3242  0.0412
 3366TIP3    H231734   5.185   2.217   2.239 -2.2482 -2.4048  1.1875
 3367TIP3   OH231735   2.250   6.273   8.703  0.2937 -0.0166 -0.0168
 3367TIP3    H131736   2.306   6.250   8.630  0.0012  0.4932 -0.4011
 3367TIP3    H231737   2.229   6.365   8.691  0.9566  0.3190  1.1923
 3368TIP3   OH231738   4.710   4.380   2.473  0.0699 -0.2265  0.2662
 3368TIP3    H131739   4.784   4.332   2.512 -0.0941 -0.8693 -0.1976
 3368TIP3    H231740   4.691   4.333   2.392  0.4005  1.0885 -0.6153
 3369TIP3   OH231741   2.528   0.435   1.297 -0.2437 -0.0990 -0.2489
 3369TIP3    H131742   2.463   0.456   1.230 -0.6275  0.6204  0.3391
 3369TIP3    H231743   2.479   0.386   1.364 -0.4176  1.2856  0.6613
 3370TIP3   OH231744   1.185   3.025   1.114  0.1184  0.3163 -0.0600
 3370TIP3    H131745   1.224   2.954   1.164 -1.8859 -0.1542  0.9288
 3370TIP3    H231746   1.133   3.074   1.177  0.9963  2.4007 -0.8260
 3371TIP3   OH231747   4.515   5.020   8.142 -0.0504 -0.3456  0.8327
 3371TIP3    H131748   4.597   4.993   8.101 -0.4681 -0.6234  0.1816
 3371TIP3    H231749   4.470   5.071   8.075 -0.3080  0.0140  1.2695
 3372TIP3   OH231750   0.591   4.462   7.946 -0.0960 -0.0061  0.6101
 3372TIP3    H131751   0.641   4.497   8.020 -0.8080  1.2925  0.5142
 3372TIP3    H231752   0.653   4.462   7.873  0.1533  0.2701  0.8174
 3373TIP3   OH231753   4.559   3.797   1.039  0.5611 -0.3131  0.1959
 3373TIP3    H131754   4.585   3.870   0.983  0.2355  0.3262  0.8714
 3373TIP3    H231755   4.570   3.829   1.128 -1.0184 -0.5750  0.5074
 3374TIP3   OH231756   6.433   4.700   7.529  0.1939 -0.0561 -0.5096
 3374TIP3    H131757   6.510   4.654   7.562  1.2603  2.3367  0.5775
 3374TIP3    H231758   6.360   4.663   7.579  0.8086 -1.3994 -0.5635
 3375TIP3   OH231759   4.654   3.846   8.582 -0.0108 -0.0263 -0.4282
 3375TIP3    H131760   4.716   3.802   8.524  0.2943  0.7863 -0.7351
 3375TIP3    H231761   4.682   3.938   8.582 -0.6339  0.1737  0.1904
 3376TIP3   OH231762   3.549   4.881   1.910  0.2077 -0.1325  0.0751
 3376TIP3    H131763   3.507   4.900   1.994  0.0186  1.4052 -0.3338
 3376TIP3    H231764   3.504   4.803   1.878 -0.9197  0.2718  0.6140
 3377TIP3   OH231765   3.745   5.790   8.169 -0.0596  0.5432 -0.4812
 3377TIP3    H131766   3.711   5.713   8.123 -1.0261  1.1996 -0.8910
 3377TIP3    H231767   3.813   5.824   8.111 -0.5168  0.7370 -0.9021
 3378TIP3   OH231768   0.946   4.629   1.758 -0.4135  0.1751 -0.3705
 3378TIP3    H131769   0.970   4.544   1.796  2.6491  0.9916 -0.2152
 3378TIP3    H231770   0.930   4.685   1.834  2.0830  0.8473 -0.2621
 3379TIP3   OH231771   5.675   4.430   2.253 -0.8736 -0.8351 -0.1829
 3379TIP3    H131772   5.759   4.399   2.218 -1.5433 -1.0690 -1.6351
 3379TIP3    H231773   5.614   4.358   2.239 -0.9806 -1.3850  2.5047
 3380TIP3   OH231774   4.055   1.706   1.038 -0.1402 -0.2211  0.1794
 3380TIP3    H131775   4.018   1.678   0.955  0.6017  0.8233 -0.5234
 3380TIP3    H231776   4.086   1.795   1.022  1.6695 -0.6578  1.0356
 3381TIP3   OH231777   4.851   0.711   8.185 -0.0311 -0.1511 -0.5305
 3381TIP3    H131778   4.896   0.721   8.102 -0.9876  0.9738 -0.9510
 3381TIP3    H231779   4.780   0.776   8.182  1.2960  1.6361  2.0940
 3382TIP3   OH231780   6.570   6.532   7.550  0.3243  0.1048 -0.3282
 3382TIP3    H131781   6.626   6.578   7.612  0.0861  0.4262 -0.3456
 3382TIP3    H231782   6.514   6.601   7.513 -0.4289 -0.2833  0.0683
 3383TIP3   OH231783   2.408   1.789   1.014 -0.5952 -0.2667 -0.0450
 3383TIP3    H131784   2.379   1.877   0.989  1.1393  0.6641  1.0046
 3383TIP3    H231785   2.457   1.757   0.938  0.3677  0.4741  0.2417
 3384TIP3   OH231786   2.024   6.241   8.387  0.4739 -0.3071  0.1518
 3384TIP3    H131787   2.037   6.336   8.392  0.8372 -0.3474  0.0426
 3384TIP3    H231788   1.933   6.231   8.360  0.8026  0.0428 -1.1670
 3385TIP3   OH231789   1.332   0.434   1.355 -0.2663  0.5089 -0.4679
 3385TIP3    H131790   1.369   0.399   1.274  0.5627 -2.0604  0.9138
 3385TIP3    H231791   1.277   0.363   1.389 -1.5121  1.9549  0.6843
 3386TIP3   OH231792   1.421   5.232   8.182  0.1022  0.0802  0.0396
 3386TIP3    H131793   1.375   5.288   8.119  0.1457  0.0448 -0.0236
 3386TIP3    H231794   1.513   5.240   8.159  0.2071  0.8052  0.7024
 3387TIP3   OH231795   2.352   1.472   1.781  0.3555  0.4602  0.1557
 3387TIP3    H131796   2.302   1.472   1.699  0.6875 -1.6014 -0.1019
 3387TIP3    H231797   2.327   1.553   1.825 -0.5757  1.1335 -1.5325
 3388TIP3   OH231798   6.030   3.609   0.201 -0.2384 -0.2258 -0.7037
 3388TIP3    H131799   5.990   3.527   0.228 -0.3833  0.5468  1.6399
 3388TIP3    H231800   6.028   3.664   0.279  4.8032  0.1327 -0.4773
 3389TIP3   OH231801   3.361   4.088   1.306  0.3601 -0.7624 -0.1372
 3389TIP3    H131802   3.317   4.093   1.221  1.9896  1.7639 -0.9281
 3389TIP3    H231803   3.452   4.067   1.285  0.5792 -1.1154  1.0864
 3390TIP3   OH231804   5.470   1.185   2.012 -0.7131  0.5967  0.3770
 3390TIP3    H131805   5.452   1.126   1.938  0.1768  1.1563 -0.2999
 3390TIP3    H231806   5.516   1.130   2.075  0.1513  0.5517 -0.2695
 3391TIP3   OH231807   4.920   2.074   8.442  0.5071 -0.5958  0.0863
 3391TIP3    H131808   4.986   2.144   8.437 -0.3813  0.2079 -2.9668
 3391TIP3    H231809   4.875   2.089   8.525  2.7068  0.1728  1.2285
 3392TIP3   OH231810   4.349   2.838   7.718  0.5439 -0.0656 -0.9446
 3392TIP3    H131811   4.423   2.897   7.730 -0.6807  1.6513 -1.3963
 3392TIP3    H231812   4.350   2.817   7.624  0.2478  0.2912 -1.0323
 3393TIP3   OH231813   5.577   1.102   0.763  0.8147  0.3764  0.1239
 3393TIP3    H131814   5.655   1.083   0.711  0.4513  0.1943 -0.3552
 3393TIP3    H231815   5.505   1.102   0.700  0.6091  2.0058  0.3161
 3394TIP3   OH231816   4.653   0.197   0.507  0.8138 -0.1435 -0.0208
 3394TIP3    H131817   4.655   0.206   0.412  1.4930  1.9907  0.1449
 3394TIP3    H231818   4.570   0.237   0.533  0.9865 -0.0104  0.3359
 3395TIP3   OH231819   2.488   4.803   0.722  0.8818  0.0344 -0.0587
 3395TIP3    H131820   2.429   4.732   0.744  1.4178 -0.2743  0.4036
 3395TIP3    H231821   2.462   4.875   0.778  0.6310  0.0566 -0.2042
 3396TIP3   OH231822   0.133   6.406   0.965  0.3032  0.1443 -0.5398
 3396TIP3    H131823   0.126   6.501   0.975  0.5908  0.3370 -1.9124
 3396TIP3    H231824   0.202   6.394   0.900 -1.0342 -0.9132 -1.8310
 3397TIP3   OH231825   0.535   1.905   2.695 -0.4505  0.7975  0.0690
 3397TIP3    H131826   0.499   1.831   2.743 -1.1937  0.7933 -0.4727
 3397TIP3    H231827   0.602   1.942   2.753  0.9334 -1.1271 -0.2329
 3398TIP3   OH231828   0.544   4.099   7.320  0.5167 -0.0263  0.1190
 3398TIP3    H131829   0.550   4.175   7.378  2.0373 -0.4551  0.5632
 3398TIP3    H231830   0.633   4.065   7.315  0.2269 -0.6193 -1.6684
 3399TIP3   OH231831   6.611   5.185   1.340 -0.0804 -0.3046  0.0256
 3399TIP3    H131832   6.617   5.189   1.436 -2.9204  1.2668  0.2685
 3399TIP3    H231833   6.702   5.184   1.310  0.9085  0.2097  2.7087
 3400TIP3   OH231834   5.618   3.194   8.568  0.0589 -0.0393 -0.0512
 3400TIP3    H131835   5.577   3.113   8.537 -3.2782  1.7154 -0.7658
 3400TIP3    H231836   5.586   3.203   8.658  0.4685  0.4376  0.0488
 3401TIP3   OH231837   0.244   4.144   0.476  0.2248  0.0849 -0.3412
 3401TIP3    H131838   0.335   4.156   0.503 -0.4590  3.1166  1.1198
 3401TIP3    H231839   0.222   4.225   0.428 -1.9753 -0.0264  0.3441
 3402TIP3   OH231840   4.961   4.560   0.112  0.0828 -0.1501  0.1017
 3402TIP3    H131841   4.924   4.583   0.026  0.5086 -1.8328 -0.5631
 3402TIP3    H231842   4.981   4.645   0.152 -1.1337  0.7056 -0.9917
 3403TIP3   OH231843   6.732   2.425   0.462  0.1991 -0.4033  0.3748
 3403TIP3    H131844   6.696   2.499   0.412 -0.1465 -1.3191 -0.7779
 3403TIP3    H231845   6.801   2.464   0.515  1.1706  0.5152 -1.4443
 3404TIP3   OH231846   6.446   2.831   0.688 -0.6134 -0.2825  0.5129
 3404TIP3    H131847   6.523   2.835   0.745 -0.0986  0.7668 -0.2002
 3404TIP3    H231848   6.474   2.777   0.614 -1.3336 -1.7819  1.2980
 3405TIP3   OH231849   4.524   0.514   1.109 -0.1076  0.1707 -0.0909
 3405TIP3    H131850   4.581   0.445   1.141  1.2755  1.4118  0.2605
 3405TIP3    H231851   4.512   0.572   1.184  0.1165  1.1645 -0.8029
 3406TIP3   OH231852   6.713   4.196   7.072 -0.0514 -0.5716 -0.0748
 3406TIP3    H131853   6.802   4.185   7.038 -0.6337  0.9701 -2.3020
 3406TIP3    H231854   6.712   4.284   7.109 -0.8940 -0.2010 -0.9473
 3407TIP3   OH231855   5.845   1.905   2.402 -0.1436 -0.0673 -0.4738
 3407TIP3    H131856   5.839   1.956   2.322  3.5294  1.5099  0.0645
 3407TIP3    H231857   5.797   1.956   2.467  0.0546  0.6255 -0.8638
 3408TIP3   OH231858   1.411   6.603   2.685 -0.1631  0.2548  0.1201
 3408TIP3    H131859   1.477   6.537   2.664 -1.2694 -1.0376  0.5545
 3408TIP3    H231860   1.361   6.613   2.604  0.3845  1.0587 -0.1367
 3409TIP3   OH231861   2.995   1.249   1.415 -0.1587 -0.4304  0.4208
 3409TIP3    H131862   3.075   1.280   1.457 -0.7408 -0.1954  1.4101
 3409TIP3    H231863   2.978   1.311   1.345 -1.7410  2.1079  2.8491
 3410TIP3   OH231864   3.343   4.802   7.640  1.2404  0.2373 -0.0209
 3410TIP3    H131865   3.341   4.880   7.585  1.4956  0.1100 -0.2122
 3410TIP3    H231866   3.250   4.780   7.654  1.0463  2.1250  2.2650
 3411TIP3   OH231867   3.811   6.365   2.290  0.6625 -0.6677 -0.1649
 3411TIP3    H131868   3.892   6.370   2.341 -0.5442  0.9645  1.7514
 3411TIP3    H231869   3.810   6.446   2.239 -0.2790 -0.1015  0.7184
 3412TIP3   OH231870   1.833   5.636   2.921  0.2888  0.2281  0.2636
 3412TIP3    H131871   1.869   5.629   2.833 -2.2368  0.6980 -0.8826
 3412TIP3    H231872   1.880   5.569   2.971  0.1488 -1.7157 -2.0225
 3413TIP3   OH231873   4.561   1.656   7.760  0.3222 -0.3726  0.1759
 3413TIP3    H131874   4.618   1.678   7.833 -1.8011 -0.2590  1.9022
 3413TIP3    H231875   4.477   1.634   7.801 -1.4418  1.2327 -2.3160
 3414TIP3   OH231876   2.430   6.534   8.668 -0.2488  0.9186  0.2274
 3414TIP3    H131877   2.440   6.444   8.636 -0.4569  0.8389  0.3901
 3414TIP3    H231878   2.511   6.577   8.641 -0.0749  0.6390  0.2968
 3415TIP3   OH231879   4.114   6.339   0.992 -0.7844  0.2487  0.4327
 3415TIP3    H131880   4.187   6.303   0.941 -2.5762 -0.2557 -1.9224
 3415TIP3    H231881   4.152   6.357   1.078  1.3830 -2.7965  0.2556
 3416TIP3   OH231882   1.271   6.412   0.808 -0.1472  0.4436  0.1087
 3416TIP3    H131883   1.290   6.409   0.902  1.4481  0.0378 -0.1892
 3416TIP3    H231884   1.209   6.484   0.798  0.6340  1.3274  1.3272
 3417TIP3   OH231885   2.164   4.969   0.712 -0.0183 -0.6919 -0.6598
 3417TIP3    H131886   2.128   4.985   0.799  1.5731 -1.1111  0.1116
 3417TIP3    H231887   2.134   4.881   0.689 -0.6928 -0.4614 -0.6810
 3418TIP3   OH231888   2.476   3.277   0.167 -0.3159 -0.0996  0.3520
 3418TIP3    H131889   2.450   3.199   0.117 -0.5997  1.1594 -1.5502
 3418TIP3    H231890   2.434   3.350   0.121 -0.6574  1.1394  2.5163
 3419TIP3   OH231891   2.740   0.753   0.626 -0.0110  0.0319  0.1999
 3419TIP3    H131892   2.742   0.846   0.606  0.1936  0.3082  1.4368
 3419TIP3    H231893   2.654   0.724   0.596  0.3814  0.3395 -1.3016
 3420TIP3   OH231894   5.703   1.735   1.756  0.5607 -0.6195 -0.1212
 3420TIP3    H131895   5.674   1.799   1.691  2.3242 -0.0425 -0.3783
 3420TIP3    H231896   5.680   1.775   1.840  0.7124 -0.1178 -0.3133
 3421TIP3   OH231897   3.579   2.530   8.906 -0.2500 -0.0469  0.1456
 3421TIP3    H131898   3.633   2.535   8.827  1.0134 -2.6415  0.7256
 3421TIP3    H231899   3.507   2.471   8.883  0.1331 -0.8313  0.8643
 3422TIP3   OH231900   3.886   4.256   0.409 -0.0702 -0.1471 -0.1045
 3422TIP3    H131901   3.896   4.222   0.320 -1.3949 -0.8326 -0.0208
 3422TIP3    H231902   3.888   4.178   0.465  0.5600  0.2624  0.4669
 3423TIP3   OH231903   1.231   0.062   8.004  0.0548 -0.0005  0.3553
 3423TIP3    H131904   1.296   0.086   8.070  1.5575 -0.7717 -0.7824
 3423TIP3    H231905   1.151   0.106   8.032  1.6436  3.0533  0.5393
 3424TIP3   OH231906   6.126   3.363   0.499  0.3999 -0.3620  0.0253
 3424TIP3    H131907   6.140   3.446   0.544  0.7198 -1.1091  1.3647
 3424TIP3    H231908   6.213   3.324   0.492  0.3917 -0.1484 -1.5147
 3425TIP3   OH231909   1.561   2.369   2.571  0.4382 -0.3877 -0.5203
 3425TIP3    H131910   1.557   2.283   2.612  1.3568 -0.4472 -0.5451
 3425TIP3    H231911   1.650   2.375   2.535 -0.4053 -0.4750 -2.8130
 3426TIP3   OH231912   4.057   6.638   0.029 -0.0922 -0.3586  0.1427
 3426TIP3    H131913   4.092   6.550   0.044  0.0028 -0.9242 -2.9244
 3426TIP3    H231914   4.132   6.696   0.044  0.5398 -1.0318 -0.3294
 3427TIP3   OH231915   2.111   1.166   1.262 -0.6290 -0.1460 -0.1191
 3427TIP3    H131916   2.076   1.090   1.309  1.2607 -0.7031  0.4815
 3427TIP3    H231917   2.066   1.165   1.177 -0.2890 -2.2399 -0.3169
 3428TIP3   OH231918   1.253   3.809   2.756  0.1494 -0.3935  0.1643
 3428TIP3    H131919   1.209   3.820   2.841  0.3554  0.0780  0.2159
 3428TIP3    H231920   1.330   3.756   2.776 -0.0760 -0.7226  0.1770
 3429TIP3   OH231921   6.158   3.605   7.325 -0.3236  0.0049  0.6193
 3429TIP3    H131922   6.204   3.668   7.380  1.8295 -1.0748  0.1721
 3429TIP3    H231923   6.143   3.651   7.243 -0.0850  0.4001  0.7946
 3430TIP3   OH231924   4.379   5.686   8.312  0.2077  0.0544 -0.3795
 3430TIP3    H131925   4.444   5.661   8.247  0.0366 -0.4548 -0.3533
 3430TIP3    H231926   4.407   5.642   8.392  0.1293  0.2666 -0.2319
 3431TIP3   OH231927   5.059   0.188   7.958  0.1236  0.4866  0.1432
 3431TIP3    H131928   5.067   0.260   8.020  0.4400  0.9190 -0.3967
 3431TIP3    H231929   5.070   0.228   7.872  0.0912 -0.1711 -0.1773
 3432TIP3   OH231930   3.793   2.304   8.388 -0.7655 -0.3767  0.3860
 3432TIP3    H131931   3.802   2.213   8.360 -1.4964 -0.3702  0.1040
 3432TIP3    H231932   3.882   2.335   8.399 -0.5056 -1.3709  1.2707
 3433TIP3   OH231933   3.997   0.777   2.024 -0.3865 -0.0578 -0.1236
 3433TIP3    H131934   3.982   0.747   2.114 -0.4399  0.0211 -0.1063
 3433TIP3    H231935   3.943   0.856   2.016  1.4619  1.3448  0.5359
 3434TIP3   OH231936   5.651   0.039   1.006  0.0903 -0.8893 -0.1461
 3434TIP3    H131937   5.611  -0.009   0.934 -0.7693  0.4799 -0.6305
 3434TIP3    H231938   5.720   0.091   0.965  0.0736 -0.6409  0.1318
 3435TIP3   OH231939   5.052   4.339   0.220  0.2827 -0.0498  0.2182
 3435TIP3    H131940   5.009   4.418   0.187 -1.2201 -0.3484  1.2933
 3435TIP3    H231941   4.982   4.293   0.268  0.2518 -3.5146 -2.7146
 3436TIP3   OH231942   1.381   1.185   0.137  0.4457  0.5726 -0.5450
 3436TIP3    H131943   1.291   1.211   0.155  0.0536 -0.1029 -1.4411
 3436TIP3    H231944   1.376   1.091   0.123  1.3273  0.5008 -0.4228
 3437TIP3   OH231945   3.852   2.597   1.669 -0.3286 -0.7325 -0.3036
 3437TIP3    H131946   3.886   2.631   1.751  0.9046 -0.5267 -0.8722
 3437TIP3    H231947   3.925   2.605   1.607  0.0799 -4.2637 -0.5290
 3438TIP3   OH231948   3.851   1.233   8.502 -0.5095  0.1779 -0.3828
 3438TIP3    H131949   3.760   1.264   8.502 -0.7464 -0.4691 -1.2727
 3438TIP3    H231950   3.856   1.172   8.575 -1.3574 -1.2965 -1.4885
 3439TIP3   OH231951   2.939   5.011   7.746  0.0761  0.7312  0.2779
 3439TIP3    H131952   2.891   5.032   7.666  1.3222 -0.3700 -0.8239
 3439TIP3    H231953   3.022   5.058   7.737  0.3207  0.4163  0.8213
 3440TIP3   OH231954   6.134   1.147   1.505 -0.6315  0.0104 -0.5805
 3440TIP3    H131955   6.090   1.137   1.589  0.5431 -1.4683 -0.0860
 3440TIP3    H231956   6.123   1.240   1.483 -2.0731  0.1448  0.5495
 3441TIP3   OH231957   2.427   3.208   0.451  0.0201 -0.3837 -0.5605
 3441TIP3    H131958   2.394   3.125   0.419  0.5520  0.1681 -2.6450
 3441TIP3    H231959   2.427   3.266   0.375  1.9467  0.8057  0.2545
 3442TIP3   OH231960   0.430   4.018   2.668  0.2806  0.2195  0.9271
 3442TIP3    H131961   0.428   4.113   2.679 -0.0641  0.3820 -0.3884
 3442TIP3    H231962   0.349   3.997   2.622  0.9615 -0.5310  0.0089
 3443TIP3   OH231963   0.206   2.032   8.656 -0.0878  0.0258  0.1333
 3443TIP3    H131964   0.161   1.951   8.680 -0.2427  0.1619  0.3090
 3443TIP3    H231965   0.151   2.101   8.693  0.4485  0.1818  0.6494
 3444TIP3   OH231966   0.116   6.569   0.710 -0.2283 -0.1040  0.3181
 3444TIP3    H131967   0.077   6.655   0.698 -1.3989 -0.6095  0.3666
 3444TIP3    H231968   0.095   6.545   0.801 -1.9698 -1.3919 -0.3523
 3445TIP3   OH231969   1.896   6.706   7.670  0.6281  0.1962  0.2470
 3445TIP3    H131970   1.956   6.775   7.643 -0.8225  1.6783  0.6488
 3445TIP3    H231971   1.841   6.746   7.737 -0.2827 -1.3532  0.4971
 3446TIP3   OH231972   1.746   1.543   1.444 -0.1873 -0.8355 -0.5286
 3446TIP3    H131973   1.694   1.541   1.364  0.9741  0.5097 -1.3542
 3446TIP3    H231974   1.793   1.459   1.445 -0.9099 -1.2530 -0.7432
 3447TIP3   OH231975   0.983   2.971   0.482  0.0405  0.4702  0.1958
 3447TIP3    H131976   0.960   2.880   0.501  0.5518  0.0333 -1.1183
 3447TIP3    H231977   0.971   3.017   0.565 -1.6697 -0.4923  0.5283
 3448TIP3   OH231978   6.752   2.511   3.031  0.3911 -0.0668  0.7026
 3448TIP3    H131979   6.709   2.455   2.966 -0.1638  1.0596  0.0665
 3448TIP3    H231980   6.784   2.586   2.980 -0.2299  0.9370  1.7310
 3449TIP3   OH231981   5.759   2.842   1.723  0.9616  0.7749 -0.2605
 3449TIP3    H131982   5.805   2.782   1.783  1.1990 -0.7336 -1.8491
 3449TIP3    H231983   5.675   2.857   1.765  0.2424 -2.0055 -0.4795
 3450TIP3   OH231984   4.453   2.727   0.565  0.5266 -0.2708  0.0112
 3450TIP3    H131985   4.479   2.805   0.516  1.7737 -0.3857  0.4518
 3450TIP3    H231986   4.462   2.752   0.657 -1.1913 -0.2557  0.2060
 3451TIP3   OH231987   0.000   6.730   0.484  0.7012  0.1513 -0.0697
 3451TIP3    H131988  -0.058   6.686   0.547 -0.3202  0.3028 -0.8848
 3451TIP3    H231989  -0.058   6.782   0.429  1.5123 -0.2585 -1.3822
 3452TIP3   OH231990   5.323   2.205   7.436 -0.1980  0.0962  0.6106
 3452TIP3    H131991   5.417   2.199   7.456 -0.0663 -1.0439 -0.2306
 3452TIP3    H231992   5.281   2.205   7.522  0.5912  1.3253  1.0177
 3453TIP3   OH231993   6.690   2.890   1.648 -0.6132  0.4615  0.4274
 3453TIP3    H131994   6.750   2.858   1.580 -0.0607 -1.1739  1.6019
 3453TIP3    H231995   6.738   2.960   1.691 -0.9142  1.4176 -0.7466
 3454TIP3   OH231996   2.553   3.447   8.648 -0.0017  0.1861 -0.7995
 3454TIP3    H131997   2.570   3.535   8.616  0.6564  0.2053 -0.4049
 3454TIP3    H231998   2.588   3.389   8.580 -0.1158  0.2245 -0.8929
 3455TIP3   OH231999   3.961   2.016   8.620  0.0004 -0.1741  0.1005
 3455TIP3    H132000   3.981   1.939   8.673 -0.0256 -0.5478 -0.4177
 3455TIP3    H232001   3.985   1.990   8.531  0.0872  0.4546 -0.0644
 3456TIP3   OH232002   0.235   5.185   1.530  1.0354  0.4146  0.2539
 3456TIP3    H132003   0.307   5.124   1.511  1.3548  0.3893  1.4797
 3456TIP3    H232004   0.170   5.131   1.575 -0.6026 -0.0001 -2.3575
 3457TIP3   OH232005   3.029   6.521   8.650 -0.4819  0.4331  0.3061
 3457TIP3    H132006   2.945   6.568   8.655 -0.1340  1.3356 -1.6013
 3457TIP3    H232007   3.027   6.463   8.726 -3.3661 -0.4312 -0.2730
 3458TIP3   OH232008   5.246   6.223   0.717 -0.0296 -0.2113  0.2681
 3458TIP3    H132009   5.200   6.247   0.636 -0.3646 -0.0784  0.4976
 3458TIP3    H232010   5.242   6.128   0.719  0.0883 -0.2228  0.0671
 3459TIP3   OH232011   0.496   3.104   8.504  0.2671  0.5861 -0.5243
 3459TIP3    H132012   0.562   3.100   8.573  0.1978 -1.3159 -0.5121
 3459TIP3    H232013   0.524   3.176   8.448  2.1252  0.1147 -0.2788
 3460TIP3   OH232014   3.900   0.775   0.618 -0.6699  0.5335  0.4756
 3460TIP3    H132015   3.895   0.721   0.539  1.6154 -0.7040  1.0778
 3460TIP3    H232016   3.840   0.734   0.679 -1.6024  0.8255 -0.2242
 3461TIP3   OH232017   5.493   5.570   0.762  0.3419  0.3735  0.4547
 3461TIP3    H132018   5.479   5.663   0.745  0.6460  0.4957  0.8284
 3461TIP3    H232019   5.572   5.568   0.818  1.4931 -0.2235 -1.1161
 3462TIP3   OH232020   2.789   5.312   0.082  0.2947  0.1951 -0.0730
 3462TIP3    H132021   2.853   5.246   0.109  0.6330  0.5517  0.0077
 3462TIP3    H232022   2.810   5.330  -0.009 -0.9708 -1.1479 -0.6591
 3463TIP3   OH232023   2.774   4.916   1.764 -0.0176  0.1823  0.0103
 3463TIP3    H132024   2.827   4.855   1.815  0.5217  0.5134 -0.1382
 3463TIP3    H232025   2.803   5.003   1.792 -0.4066  0.3704 -0.1540
 3464TIP3   OH232026   6.333   1.514   2.855 -0.1591  0.4129  0.3369
 3464TIP3    H132027   6.238   1.498   2.852 -0.3902  1.8070 -1.2256
 3464TIP3    H232028   6.341   1.609   2.852  1.3037  0.2835 -2.6296
 3465TIP3   OH232029   5.360   6.633   0.565 -0.1529 -0.6518  0.2434
 3465TIP3    H132030   5.448   6.599   0.581  0.8671  2.3671  1.6541
 3465TIP3    H232031   5.349   6.627   0.470  2.1235  0.1192 -0.1131
 3466TIP3   OH232032   4.998   2.373   8.432  0.5225 -0.3192 -0.2654
 3466TIP3    H132033   4.913   2.413   8.414  0.1162 -1.1251 -0.1603
 3466TIP3    H232034   4.987   2.330   8.517  1.4167  0.6018  0.3558
 3467TIP3   OH232035   0.717   3.247   1.493  0.9988  0.1316  0.0514
 3467TIP3    H132036   0.684   3.333   1.517  0.9907 -0.0749  0.8280
 3467TIP3    H232037   0.664   3.220   1.418 -0.7716 -0.2872  1.4015
 3468TIP3   OH232038   0.368   0.563   7.798 -0.1960 -0.2348  0.3265
 3468TIP3    H132039   0.280   0.542   7.767  0.3165 -0.9030 -0.7223
 3468TIP3    H232040   0.407   0.615   7.728 -0.2414  1.3146  1.4168
 3469TIP3   OH232041   0.145   2.370   8.905  0.0398 -0.1102  0.9388
 3469TIP3    H132042   0.107   2.293   8.947  2.0808 -1.0673  1.1660
 3469TIP3    H232043   0.203   2.334   8.838 -1.2589  1.3273 -1.0815
 3470TIP3   OH232044   5.823   0.670   8.115  0.3864  0.1691  0.1591
 3470TIP3    H132045   5.864   0.610   8.053  1.9655  2.0211 -0.7073
 3470TIP3    H232046   5.739   0.629   8.137  0.7278 -1.5785 -1.5438
 3471TIP3   OH232047   5.354   5.121   7.374  0.0110 -0.1260  0.1844
 3471TIP3    H132048   5.352   5.030   7.404  2.0018 -1.3480 -2.8474
 3471TIP3    H232049   5.445   5.148   7.384 -0.5370  1.5605  0.9584
 3472TIP3   OH232050   6.794   2.312   1.119  0.1245  0.5501 -0.1749
 3472TIP3    H132051   6.867   2.321   1.181  1.5246  0.6826 -1.7806
 3472TIP3    H232052   6.722   2.278   1.173  1.6191 -0.4986  1.3057
 3473TIP3   OH232053   4.418   1.647   2.475  0.0208  0.7418 -0.1563
 3473TIP3    H132054   4.394   1.731   2.435  1.0956  1.6538  1.0611
 3473TIP3    H232055   4.416   1.663   2.569 -1.7874 -1.1793  0.2333
 3474TIP3   OH232056   5.581   2.912   2.013  0.0249 -0.3776  0.2688
 3474TIP3    H132057   5.591   2.820   1.986 -1.3239 -0.3331 -0.4960
 3474TIP3    H232058   5.576   2.908   2.108 -1.3361 -1.2771  0.1894
 3475TIP3   OH232059   1.626   6.517   1.743 -0.0685 -0.4192 -0.0318
 3475TIP3    H132060   1.597   6.585   1.682  0.5544  0.4451  0.5971
 3475TIP3    H232061   1.581   6.438   1.715 -1.5442  0.4510 -0.2350
 3476TIP3   OH232062   3.341   6.090   7.902  0.2180 -0.4241 -0.0797
 3476TIP3    H132063   3.436   6.087   7.909  0.2986 -0.4692 -1.0506
 3476TIP3    H232064   3.313   5.998   7.906  0.2453 -0.4335 -0.1038
 3477TIP3   OH232065   4.211   2.447   1.244 -0.3877  0.3421  0.1597
 3477TIP3    H132066   4.126   2.418   1.277 -0.2817 -1.0655 -0.7105
 3477TIP3    H232067   4.198   2.457   1.150  0.7805 -1.5554 -0.2686
 3478TIP3   OH232068   6.277   1.117   8.730 -0.3544  0.6313  0.4898
 3478TIP3    H132069   6.182   1.128   8.726 -0.4758 -0.6656 -1.1887
 3478TIP3    H232070   6.312   1.181   8.669 -0.2904 -0.1270 -0.2853
 3479TIP3   OH232071   3.803   5.301   8.484  0.5743 -0.4346  0.1891
 3479TIP3    H132072   3.880   5.340   8.526  0.2377 -1.0072  1.3993
 3479TIP3    H232073   3.833   5.218   8.448  0.4930 -0.7541  0.8418
 3480TIP3   OH232074   1.669   3.425   1.367 -0.6604  0.1367 -0.2346
 3480TIP3    H132075   1.684   3.488   1.438 -0.9533 -0.5162  0.4190
 3480TIP3    H232076   1.622   3.353   1.409  1.0502 -1.2590 -0.6103
 3481TIP3   OH232077   5.384   3.114   0.583 -0.1833 -0.1647 -0.2432
 3481TIP3    H132078   5.358   3.022   0.580  1.3279 -0.6599  0.9140
 3481TIP3    H232079   5.457   3.117   0.645 -1.1789  2.0701  0.9339
 3482TIP3   OH232080   0.156   2.780   1.904  0.3367 -0.3192 -0.0021
 3482TIP3    H132081   0.211   2.717   1.952  1.2689  0.5740  0.1425
 3482TIP3    H232082   0.087   2.726   1.865 -0.2558 -1.1350  2.0241
 3483TIP3   OH232083   3.354   1.541   8.536 -0.2728 -0.4828 -0.1260
 3483TIP3    H132084   3.393   1.531   8.449 -0.5126  0.7830 -0.3943
 3483TIP3    H232085   3.332   1.634   8.542  0.5005 -0.3682  1.6057
 3484TIP3   OH232086   4.114   6.072   0.468 -0.4648 -0.0670 -0.2744
 3484TIP3    H132087   4.128   6.165   0.484 -0.3601  0.1653 -1.6175
 3484TIP3    H232088   4.202   6.037   0.452 -0.5755 -0.2637 -0.4566
 3485TIP3   OH232089   2.847   5.904   7.999  0.5976 -0.7024 -0.1025
 3485TIP3    H132090   2.899   5.826   7.979  1.0612  0.0180 -1.8684
 3485TIP3    H232091   2.908   5.977   7.990  0.4163 -0.1285  2.4337
 3486TIP3   OH232092   0.230   2.949   8.283 -0.7490  0.2014  0.3504
 3486TIP3    H132093   0.148   2.900   8.277 -0.8025  0.0140  1.9662
 3486TIP3    H232094   0.250   2.950   8.377 -0.6141  3.0567  0.3882
 3487TIP3   OH232095   2.105   4.071   1.694  0.7806 -0.0473 -0.3805
 3487TIP3    H132096   2.099   4.099   1.603  1.7718  0.6421 -0.2558
 3487TIP3    H232097   2.178   4.009   1.695  1.7422  1.0314  0.1565
 3488TIP3   OH232098   2.763   1.334   1.580  0.6089 -0.0030  0.1365
 3488TIP3    H132099   2.848   1.290   1.582  1.2059  1.1273  0.3171
 3488TIP3    H232100   2.758   1.382   1.663 -1.2675 -1.9300  1.2375
 3489TIP3   OH232101   1.984   2.832   0.934  0.1552  1.3887  0.7774
 3489TIP3    H132102   1.972   2.926   0.920 -0.8971  1.0813 -0.6396
 3489TIP3    H232103   2.043   2.805   0.863  1.5634  1.1795  1.9737
 3490TIP3   OH232104   5.992   2.881   2.998 -0.3721  0.6907  0.0754
 3490TIP3    H132105   6.018   2.795   3.032  0.1091  0.8360  0.0844
 3490TIP3    H232106   5.904   2.867   2.963  0.0744 -0.0513 -0.8088
 3491TIP3   OH232107   1.041   1.009   8.814 -0.7496  0.9261 -0.5267
 3491TIP3    H132108   1.035   1.070   8.741 -0.9268  0.1126 -1.2076
 3491TIP3    H232109   1.130   0.974   8.809 -0.3022  1.8676  0.4815
 3492TIP3   OH232110   1.350   4.440   1.471  0.5734  0.2031 -0.3034
 3492TIP3    H132111   1.332   4.489   1.552  0.1391 -0.6516  0.1220
 3492TIP3    H232112   1.396   4.361   1.500 -1.9046 -1.4386 -0.5658
 3493TIP3   OH232113   2.104   3.178   7.968  0.3081 -0.1115  0.2911
 3493TIP3    H132114   2.140   3.182   8.056  0.2063  0.4822  0.3101
 3493TIP3    H232115   2.025   3.232   7.971 -0.9759 -1.9017  0.4153
 3494TIP3   OH232116   5.817   1.755   7.754 -0.0005  0.1520  0.1329
 3494TIP3    H132117   5.770   1.694   7.697 -1.4091  0.5908  0.7604
 3494TIP3    H232118   5.906   1.722   7.758  0.2451  0.3115 -2.5826
 3495TIP3   OH232119   5.544   4.603   0.670 -0.0636 -0.2440  0.2710
 3495TIP3    H132120   5.564   4.510   0.685 -0.4240  0.0681  3.3440
 3495TIP3    H232121   5.449   4.608   0.675 -0.0002  0.3863  1.2106
 3496TIP3   OH232122   5.017   3.778   1.009  0.3705 -0.1777 -0.3458
 3496TIP3    H132123   5.092   3.769   0.951  0.0164 -0.9992 -0.6772
 3496TIP3    H232124   5.015   3.872   1.029  1.7391 -0.1939  0.0178
 3497TIP3   OH232125   5.522   4.550   7.092  0.4617 -0.0537  0.3121
 3497TIP3    H132126   5.589   4.585   7.150  0.3482 -0.7381  0.8746
 3497TIP3    H232127   5.445   4.540   7.147  0.0162  0.3310 -0.2305
 3498TIP3   OH232128   0.177   1.342   7.432  0.3633 -0.4786  0.2176
 3498TIP3    H132129   0.120   1.388   7.371  0.2660  1.0497  1.4151
 3498TIP3    H232130   0.117   1.287   7.483  0.2683 -0.6218 -0.0406
 3499TIP3   OH232131   6.201   6.404   7.181  0.1963  0.3060  0.0822
 3499TIP3    H132132   6.295   6.387   7.180 -0.0472 -1.2786  0.8664
 3499TIP3    H232133   6.191   6.479   7.241  1.0041  1.0234 -0.6515
 3500TIP3   OH232134   1.267   5.057   2.130 -0.7544  0.4135  0.2167
 3500TIP3    H132135   1.221   5.063   2.213  1.3496  0.2896  1.4447
 3500TIP3    H232136   1.315   5.140   2.123 -3.2317  1.8084 -2.4120
 3501TIP3   OH232137   0.443   3.281   1.022 -0.2815 -0.5755  0.0819
 3501TIP3    H132138   0.457   3.370   1.054  1.0941 -0.4916 -0.6996
 3501TIP3    H232139   0.438   3.227   1.101 -0.1890  0.0630  0.5291
 3502TIP3   OH232140   5.350   6.179   2.291  0.1376  0.1808  0.3686
 3502TIP3    H132141   5.263   6.217   2.279 -0.6697 -0.9683  2.2312
 3502TIP3    H232142   5.366   6.131   2.210 -0.6834  0.9244 -0.2554
 3503TIP3   OH232143   2.807   1.022   1.125  0.3475 -0.4923 -0.9303
 3503TIP3    H132144   2.838   1.028   1.216 -2.4040 -3.3862  0.4083
 3503TIP3    H232145   2.847   1.097   1.081  1.4982  1.3117  2.7512
 3504TIP3   OH232146   0.865   6.575   1.951  0.6090  0.1881 -0.3578
 3504TIP3    H132147   0.946   6.584   2.003  0.4112 -1.8211  0.3808
 3504TIP3    H232148   0.804   6.636   1.992  0.4736 -1.3075  1.8430
 3505TIP3   OH232149   5.215   5.592   0.661 -0.7399  0.0090 -0.0701
 3505TIP3    H132150   5.212   5.566   0.569 -0.4735 -0.8131  0.1482
 3505TIP3    H232151   5.308   5.589   0.684 -1.0331 -3.5032  1.2319
 3506TIP3   OH232152   0.194   3.852   2.224  0.0190 -0.4666 -0.2682
 3506TIP3    H132153   0.197   3.945   2.246  1.3703 -0.2341 -1.2430
 3506TIP3    H232154   0.173   3.808   2.306 -0.2080  0.6686  0.3046
 3507TIP3   OH232155   0.002   2.055   8.203 -0.1002  0.6761  0.2484
 3507TIP3    H132156   0.072   2.002   8.241 -1.2324 -0.5363  0.7478
 3507TIP3    H232157  -0.044   2.092   8.278  0.0288  1.5094 -0.0728
 3508TIP3   OH232158   5.285   3.374   1.082 -0.1433  0.0543  0.0227
 3508TIP3    H132159   5.335   3.416   1.013 -0.5346  0.8973  0.2469
 3508TIP3    H232160   5.217   3.437   1.104 -0.1653 -0.3105  1.0169
 3509TIP3   OH232161   5.358   2.153   6.987 -0.4689 -0.6751 -0.3584
 3509TIP3    H132162   5.287   2.093   6.968 -0.4399 -0.1293 -2.4604
 3509TIP3    H232163   5.344   2.226   6.927  1.0827  0.0916  0.1578
 3510TIP3   OH232164   6.023   2.822   2.543  0.1578  0.0674 -0.2588
 3510TIP3    H132165   5.934   2.837   2.574 -0.1378 -1.2986 -0.3836
 3510TIP3    H232166   6.059   2.910   2.531 -0.5314  0.6477  1.5741
 3511TIP3   OH232167   3.796   5.332   0.074 -0.0618 -0.3558  0.2361
 3511TIP3    H132168   3.723   5.394   0.067  0.7620  0.6066 -0.2146
 3511TIP3    H232169   3.841   5.357   0.155  2.0029  1.6664 -1.4014
 3512TIP3   OH232170   4.076   2.742   7.211 -0.3729 -0.0253 -0.4444
 3512TIP3    H132171   4.141   2.773   7.274  0.6085 -1.3793 -0.7419
 3512TIP3    H232172   3.998   2.723   7.264  0.8937 -2.5503  0.6947
 3513TIP3   OH232173   4.860   4.635   7.339  0.6018 -0.4586 -0.5385
 3513TIP3    H132174   4.935   4.576   7.349  1.1238  0.5670  3.3219
 3513TIP3    H232175   4.897   4.713   7.299  1.7042 -0.0126  1.2102
 3514TIP3   OH232176   0.876   1.185   8.379 -0.3804 -0.2135  0.0098
 3514TIP3    H132177   0.878   1.195   8.474 -0.8535  0.4205 -0.0405
 3514TIP3    H232178   0.915   1.266   8.346  0.0904 -0.5794 -0.3285
 3515TIP3   OH232179   5.063   1.007   8.847 -0.1397 -0.1554 -0.7001
 3515TIP3    H132180   4.999   1.064   8.804 -0.4135 -0.5898 -0.8662
 3515TIP3    H232181   5.131   0.994   8.781  0.6219  1.0899 -0.2095
 3516TIP3   OH232182   5.571   4.188   1.728 -0.1023 -0.5576  0.5496
 3516TIP3    H132183   5.512   4.176   1.654 -1.2171 -0.4734  1.4013
 3516TIP3    H232184   5.656   4.206   1.688 -0.7861  0.0174 -0.7060
 3517TIP3   OH232185   2.064   5.095   0.956  0.6179  0.0009 -0.1232
 3517TIP3    H132186   2.071   5.159   0.884  2.7616  0.3735  0.3617
 3517TIP3    H232187   2.113   5.134   1.028 -0.8798 -0.7066  1.3429
 3518TIP3   OH232188   2.198   2.885   2.159  0.8386  0.1871  0.2682
 3518TIP3    H132189   2.160   2.936   2.230 -0.9494 -1.4320  0.5483
 3518TIP3    H232190   2.204   2.947   2.086  0.2535  1.2048  1.0545
 3519TIP3   OH232191   4.667   1.573   0.490  0.5303  0.1221  0.5574
 3519TIP3    H132192   4.748   1.549   0.445  0.6189  1.4152  0.0066
 3519TIP3    H232193   4.642   1.657   0.453 -0.1995  0.5236  1.8904
 3520TIP3   OH232194   6.367   4.745   0.128  0.2789  0.0524  0.3440
 3520TIP3    H132195   6.276   4.741   0.157 -0.5194 -2.0034 -2.0223
 3520TIP3    H232196   6.401   4.657   0.143  1.6648  0.5822  0.5145
 3521TIP3   OH232197   6.641   2.485   6.943 -0.1715 -0.0031  0.6294
 3521TIP3    H132198   6.709   2.419   6.959 -0.8975 -1.8839 -3.0502
 3521TIP3    H232199   6.559   2.441   6.964 -0.5970  0.0571 -0.8396
 3522TIP3   OH232200   3.822   1.722   7.727 -0.5235 -0.6571  0.0184
 3522TIP3    H132201   3.787   1.685   7.808 -0.1951 -1.4544 -0.1934
 3522TIP3    H232202   3.756   1.702   7.661  0.0879 -1.7739 -0.2925
 3523TIP3   OH232203   4.665   1.262   1.777  0.6827 -0.5246  0.2047
 3523TIP3    H132204   4.691   1.220   1.859  0.3146  0.0755  0.6348
 3523TIP3    H232205   4.680   1.195   1.711  0.4807 -1.2088  0.8307
 3524TIP3   OH232206   4.937   6.497   2.234  0.0251 -0.2696  0.4576
 3524TIP3    H132207   4.872   6.456   2.292 -2.2470 -1.0271 -2.3651
 3524TIP3    H232208   4.895   6.578   2.204  0.9023 -0.1590 -0.5314
 3525TIP3   OH232209   1.450   3.876   8.548  0.4715  0.3828 -0.0099
 3525TIP3    H132210   1.518   3.893   8.612  0.3590  1.8872 -0.2644
 3525TIP3    H232211   1.457   3.782   8.530  1.3001  0.1739  1.2734
 3526TIP3   OH232212   5.584   6.465   0.565 -0.6110 -0.7118  0.2448
 3526TIP3    H132213   5.607   6.387   0.615  0.0575 -0.3271  0.5491
 3526TIP3    H232214   5.650   6.468   0.495  1.4718  1.3680  2.1425
 3527TIP3   OH232215   2.317   4.004   0.763 -0.3760  0.4985 -0.7222
 3527TIP3    H132216   2.222   3.999   0.754 -1.1643  2.7166  3.4445
 3527TIP3    H232217   2.335   4.098   0.769  1.7535  0.0857  0.5798
 3528TIP3   OH232218   2.666   1.298   0.120 -0.0101 -0.2243  0.3555
 3528TIP3    H132219   2.612   1.361   0.168 -0.9995 -0.7300 -0.0615
 3528TIP3    H232220   2.704   1.242   0.188 -0.6587 -0.3572  0.6143
 3529TIP3   OH232221   3.429   1.743   1.501 -0.4447  0.0865  0.9852
 3529TIP3    H132222   3.375   1.785   1.568 -1.0493  0.3020  0.3701
 3529TIP3    H232223   3.367   1.711   1.436  0.1261 -0.2770  0.6063
 3530TIP3   OH232224   5.689   5.334   1.092  0.1264 -0.5248  0.3247
 3530TIP3    H132225   5.711   5.403   1.030 -0.0713  0.6991  1.5727
 3530TIP3    H232226   5.620   5.372   1.147 -1.0634 -2.2468  0.1154
 3531TIP3   OH232227   1.127   0.924   7.825 -0.2921  0.0304 -0.6816
 3531TIP3    H132228   1.034   0.920   7.847 -0.4485  0.5825 -1.1874
 3531TIP3    H232229   1.130   0.902   7.732  0.0450  0.3129 -0.7403
 3532TIP3   OH232230   2.872   3.980   7.417  0.5127  0.7779 -0.7119
 3532TIP3    H132231   2.923   3.992   7.337  1.0229 -1.8822 -0.8755
 3532TIP3    H232232   2.936   3.960   7.485 -0.1077 -1.9114 -0.7756
 3533TIP3   OH232233   5.096   4.661   2.351  0.3962  0.6808 -0.3280
 3533TIP3    H132234   5.151   4.728   2.394  1.8174 -1.2447  1.0374
 3533TIP3    H232235   5.021   4.650   2.410  1.2872 -0.4505  0.6526
 3534TIP3   OH232236   1.623   4.795   8.683 -0.0943 -0.1642 -0.1112
 3534TIP3    H132237   1.712   4.763   8.698  0.8858  1.5889 -1.7360
 3534TIP3    H232238   1.612   4.867   8.744 -0.6811 -0.7961  0.5501
 3535TIP3   OH232239   3.638   3.194   1.443 -0.9910 -0.1180  0.2288
 3535TIP3    H132240   3.731   3.187   1.465 -1.0006 -0.2968  0.2148
 3535TIP3    H232241   3.603   3.106   1.459 -1.3377  0.1613  1.0492
 3536TIP3   OH232242   1.770   4.811   0.057 -0.5006 -0.0723  0.0343
 3536TIP3    H132243   1.823   4.766  -0.008 -0.5291 -2.0276  1.2905
 3536TIP3    H232244   1.821   4.804   0.138 -1.7896 -0.2672  0.8508
 3537TIP3   OH232245   2.549   6.208   7.440 -0.2617  0.7452  0.3566
 3537TIP3    H132246   2.465   6.218   7.395 -0.9240  1.6734  1.7319
 3537TIP3    H232247   2.613   6.202   7.369 -1.2189  2.4863 -0.7342
 3538TIP3   OH232248   0.507   6.047   2.047  0.6579  0.2503 -0.5826
 3538TIP3    H132249   0.541   6.096   1.972 -0.9228 -0.4295 -1.7914
 3538TIP3    H232250   0.413   6.064   2.047  0.5765 -0.0980  1.0083
 3539TIP3   OH232251   6.074   3.813   0.377 -0.3879  0.2895 -0.1673
 3539TIP3    H132252   6.108   3.897   0.405 -0.2073  0.3448 -0.5383
 3539TIP3    H232253   6.033   3.776   0.455  0.8092  0.0706  0.3756
 3540TIP3   OH232254   6.393   2.351   7.083  0.0687  0.3312  0.6900
 3540TIP3    H132255   6.325   2.289   7.059  1.2079 -0.5045 -0.5338
 3540TIP3    H232256   6.392   2.352   7.179  0.1673 -1.7829  0.7590
 3541TIP3   OH232257   2.427   3.464   8.891  0.6927  0.6106  0.2001
 3541TIP3    H132258   2.474   3.433   8.813 -0.8792  0.8567 -0.9019
 3541TIP3    H232259   2.392   3.549   8.865  1.2040  1.2933  1.6500
 3542TIP3   OH232260   4.802   4.660   2.777 -0.0182 -0.2835 -0.2588
 3542TIP3    H132261   4.813   4.746   2.818  0.3876  0.8086 -2.4936
 3542TIP3    H232262   4.717   4.628   2.810  0.3072  0.4628  1.4058
 3543TIP3   OH232263   6.521   2.374   7.858 -0.5415 -0.3550 -0.5353
 3543TIP3    H132264   6.441   2.321   7.854  0.5449 -2.3882  1.8963
 3543TIP3    H232265   6.589   2.313   7.884  1.2169  1.8842  0.4581
 3544TIP3   OH232266   4.072   5.056   8.140  0.3413 -0.2578 -0.3621
 3544TIP3    H132267   4.073   5.126   8.076 -0.4737  1.1961  1.1288
 3544TIP3    H232268   4.162   5.050   8.172  0.0211  1.7884  1.1442
 3545TIP3   OH232269   0.081   2.989   0.165 -0.3094  0.0994 -0.7947
 3545TIP3    H132270   0.120   2.917   0.115 -1.4151 -0.0013 -1.5591
 3545TIP3    H232271  -0.002   3.007   0.120 -0.6760  0.9587  0.1835
 3546TIP3   OH232272   5.718   3.880   7.162  0.0054 -0.0973  0.0302
 3546TIP3    H132273   5.788   3.941   7.137 -0.1064 -0.4540 -1.2183
 3546TIP3    H232274   5.703   3.828   7.083 -0.5369 -1.1285  0.7945
 3547TIP3   OH232275   3.377   0.813   1.638 -0.4889 -0.0535  0.2579
 3547TIP3    H132276   3.391   0.868   1.715 -1.2681 -1.0760  1.1711
 3547TIP3    H232277   3.459   0.764   1.627 -0.1236  0.6123  0.0005
 3548TIP3   OH232278   1.337   5.133   7.744  0.2154  0.1273 -0.0528
 3548TIP3    H132279   1.309   5.165   7.830 -0.3876 -0.5125 -0.0045
 3548TIP3    H232280   1.389   5.055   7.764 -0.3274 -0.3000 -0.2879
 3549TIP3   OH232281   2.350   6.218   0.586 -0.1644  1.0573  0.0477
 3549TIP3    H132282   2.328   6.307   0.559  2.2028  1.3790 -1.0924
 3549TIP3    H232283   2.439   6.204   0.553 -1.2360 -2.5506 -1.8281
 3550TIP3   OH232284   0.901   5.875   0.276 -0.5108  0.6065  0.3875
 3550TIP3    H132285   0.853   5.907   0.353  0.3664  2.8767  0.0760
 3550TIP3    H232286   0.840   5.884   0.204 -0.1722  1.9884  0.2504
 3551TIP3   OH232287   2.309   4.627   0.890  0.1129 -0.4628 -0.4776
 3551TIP3    H132288   2.305   4.714   0.930  0.5488 -0.5295 -0.2931
 3551TIP3    H232289   2.226   4.620   0.842 -0.0796 -0.0857 -0.2090
 3552TIP3   OH232290   5.943   0.292   1.293  0.8214 -0.2641 -0.4421
 3552TIP3    H132291   5.903   0.210   1.323 -0.3160  0.6071  0.4938
 3552TIP3    H232292   5.913   0.302   1.203 -1.1945  0.4078  0.2609
 3553TIP3   OH232293   2.694   3.810   2.190  0.9432 -0.3238 -0.4093
 3553TIP3    H132294   2.612   3.858   2.174  1.7831  1.2293 -0.2276
 3553TIP3    H232295   2.693   3.793   2.284  0.2772 -1.4096 -0.5903
 3554TIP3   OH232296   3.508   6.354   2.385 -0.6792 -0.1515  0.1110
 3554TIP3    H132297   3.551   6.282   2.431  0.8571 -0.0382 -1.0826
 3554TIP3    H232298   3.513   6.330   2.292 -1.5153  0.7739 -0.1903
 3555TIP3   OH232299   0.970   1.435   0.632  0.5112  0.1157 -0.4596
 3555TIP3    H132300   0.938   1.525   0.631 -0.5311 -0.2353 -0.9730
 3555TIP3    H232301   1.064   1.442   0.614  0.6648  1.1617  0.6158
 3556TIP3   OH232302   1.998   3.086   1.209 -0.3722 -0.1289 -0.0388
 3556TIP3    H132303   1.946   3.081   1.289  0.4039 -1.9003  0.4057
 3556TIP3    H232304   1.934   3.102   1.140 -1.0818  1.1964  0.8696
 3557TIP3   OH232305   1.697   2.766   0.826 -0.8947 -0.3622  0.2212
 3557TIP3    H132306   1.672   2.785   0.917  1.9454 -1.5634  1.3859
 3557TIP3    H232307   1.754   2.838   0.802 -1.5495 -0.1108 -0.6029
 3558TIP3   OH232308   5.568   4.915   7.200 -0.0680  0.3160  0.0428
 3558TIP3    H132309   5.641   4.856   7.215 -1.3212 -1.2441  0.2284
 3558TIP3    H232310   5.591   4.995   7.247  0.9295 -0.6108  1.1880
 3559TIP3   OH232311   0.227   2.839   2.454 -0.2394 -0.3202 -0.4594
 3559TIP3    H132312   0.150   2.838   2.512 -1.0145  0.6104 -1.4241
 3559TIP3    H232313   0.251   2.747   2.444  0.2659 -0.4742  1.7771
 3560TIP3   OH232314   0.999   1.653   8.171  0.1326  0.1649 -0.2523
 3560TIP3    H132315   1.032   1.690   8.089  0.0672 -0.8561 -0.7517
 3560TIP3    H232316   1.051   1.697   8.239  1.4007 -0.2307 -0.9336
 3561TIP3   OH232317   5.302   2.155   2.366 -0.3642  0.5547  0.0305
 3561TIP3    H132318   5.248   2.088   2.409 -1.2904  1.9413  1.1122
 3561TIP3    H232319   5.347   2.199   2.438 -0.1940  1.4534 -0.6136
 3562TIP3   OH232320   6.702   4.810   0.165  0.3437 -0.0152  0.4886
 3562TIP3    H132321   6.631   4.808   0.229 -0.5365 -1.3548 -0.4576
 3562TIP3    H232322   6.743   4.896   0.176 -2.5364  1.5755 -0.0864
 3563TIP3   OH232323   4.536   2.092   0.629  0.0840  0.2147 -0.2053
 3563TIP3    H132324   4.570   2.003   0.640  0.0870 -0.0530 -2.0534
 3563TIP3    H232325   4.545   2.110   0.535 -2.8158  0.9645 -0.4497
 3564TIP3   OH232326   5.690   5.753   7.054  0.2971 -0.0594  0.3693
 3564TIP3    H132327   5.669   5.819   6.989  1.3786  0.5635  0.6330
 3564TIP3    H232328   5.740   5.687   7.006  1.0588  0.3797  0.5415
 3565TIP3   OH232329   1.325   4.784   0.528  0.1494 -0.3199 -0.2187
 3565TIP3    H132330   1.311   4.736   0.447  2.6237 -0.5340 -0.6109
 3565TIP3    H232331   1.272   4.739   0.593 -0.9744 -0.8534 -1.4693
 3566TIP3   OH232332   0.521   3.161   1.332 -0.0786  0.2244 -0.0376
 3566TIP3    H132333   0.484   3.073   1.338  1.4643 -0.4227  0.6292
 3566TIP3    H232334   0.467   3.213   1.392  0.5826 -0.8959  1.6125
 3567TIP3   OH232335   4.137   0.825   1.799  0.1892 -0.2394  0.3136
 3567TIP3    H132336   4.102   0.777   1.873  0.5744  0.7402  1.1551
 3567TIP3    H232337   4.114   0.916   1.817 -1.3531 -0.1533 -1.6967
 3568TIP3   OH232338   4.360   3.284   0.702 -0.4197 -0.0963  0.1647
 3568TIP3    H132339   4.357   3.215   0.769 -1.2008  1.3305  1.6694
 3568TIP3    H232340   4.336   3.239   0.621  0.0661 -1.7825  0.9048
 3569TIP3   OH232341   1.176   2.339   2.556  0.3362 -0.0036 -0.1974
 3569TIP3    H132342   1.122   2.267   2.522 -0.5156  1.0064 -1.0550
 3569TIP3    H232343   1.178   2.325   2.650  0.4213 -1.3096 -0.3792
 3570TIP3   OH232344   2.075   1.436   1.232  0.4445  0.2559 -0.3223
 3570TIP3    H132345   2.167   1.462   1.240  0.6204  0.0681 -1.5412
 3570TIP3    H232346   2.074   1.343   1.253  0.2575  0.6029  1.2998
 3571TIP3   OH232347   4.729   4.261   1.643 -0.1917 -0.5528 -0.2078
 3571TIP3    H132348   4.692   4.291   1.726 -0.0790 -0.3116 -0.2449
 3571TIP3    H232349   4.822   4.284   1.648 -0.2893 -0.0404 -0.6227
 3572TIP3   OH232350   5.452   6.287   7.867 -0.3060 -0.8801 -0.5589
 3572TIP3    H132351   5.522   6.323   7.813 -0.3335 -0.7764 -0.5256
 3572TIP3    H232352   5.451   6.193   7.846  0.3906 -1.0357  0.0463
 3573TIP3   OH232353   3.461   1.902   0.033 -0.2401  0.4041  0.0469
 3573TIP3    H132354   3.406   1.869  -0.038 -2.2941  1.7833  0.9097
 3573TIP3    H232355   3.411   1.886   0.113  1.9118 -0.8686  1.2379
 3574TIP3   OH232356   4.466   1.881   6.721 -0.3896 -0.4394  0.4238
 3574TIP3    H132357   4.536   1.935   6.684 -0.0161 -0.3043  1.2950
 3574TIP3    H232358   4.512   1.822   6.782 -0.8113 -1.5772 -0.3144
 3575TIP3   OH232359   4.702   3.254   7.514 -0.4885 -0.7931 -0.0257
 3575TIP3    H132360   4.668   3.298   7.593  0.0043 -0.7936  0.1885
 3575TIP3    H232361   4.666   3.165   7.520  0.2714 -1.0654  0.6731
 3576TIP3   OH232362   4.051   1.000   7.492 -0.3248 -0.1150 -0.7776
 3576TIP3    H132363   3.986   1.016   7.561 -0.3558 -0.3149 -0.7621
 3576TIP3    H232364   4.043   0.907   7.472 -0.1498 -0.1071 -0.8850
 3577TIP3   OH232365   1.149   1.393   0.271  0.6775 -0.2833  0.1029
 3577TIP3    H132366   1.139   1.371   0.363 -2.0903  1.3028  0.2856
 3577TIP3    H232367   1.130   1.311   0.225  2.7925 -1.2794  0.8593
 3578TIP3   OH232368   4.370   2.104   8.473 -0.8312  0.2060  0.4964
 3578TIP3    H132369   4.392   2.086   8.381  0.6288  1.3332  0.5820
 3578TIP3    H232370   4.330   2.023   8.504  1.6975 -1.4604 -0.2242
 3579TIP3   OH232371   6.538   4.316   7.640 -0.0018 -0.5741 -0.3555
 3579TIP3    H132372   6.560   4.288   7.729  0.2565 -2.2847 -0.9252
 3579TIP3    H232373   6.580   4.402   7.631 -1.9743  0.7407  1.9314
 3580TIP3   OH232374   3.277   5.601   7.922 -0.0618 -0.0048 -0.0713
 3580TIP3    H132375   3.250   5.532   7.861 -3.5562  1.0401  0.0936
 3580TIP3    H232376   3.264   5.564   8.009 -0.8149  0.4196  0.0097
 3581TIP3   OH232377   4.681   1.094   1.991  0.0219  0.4844 -0.1238
 3581TIP3    H132378   4.698   1.009   2.031 -0.2232  0.5280  0.0716
 3581TIP3    H232379   4.615   1.134   2.046  0.9769  1.2902  0.4703
 3582TIP3   OH232380   3.563   2.201   8.048  0.4639 -0.6321  0.1429
 3582TIP3    H132381   3.504   2.237   7.982  1.3162 -1.3324 -1.0523
 3582TIP3    H232382   3.527   2.230   8.131 -1.2895 -0.6406 -0.5647
 3583TIP3   OH232383   3.055   3.604   8.340  0.6396  0.6346 -0.1777
 3583TIP3    H132384   3.150   3.596   8.327  0.7201  0.9056  0.2099
 3583TIP3    H232385   3.042   3.580   8.432  0.4740  1.6671  0.0750
 3584TIP3   OH232386   3.165   4.934   0.470 -0.2800 -0.1263  0.3681
 3584TIP3    H132387   3.181   4.891   0.554 -0.7459 -0.5051  0.2660
 3584TIP3    H232388   3.181   4.865   0.405  3.0654  0.8734 -0.0852
 3585TIP3   OH232389   3.957   1.564   8.697 -0.0105 -0.2431  0.1903
 3585TIP3    H132390   3.936   1.494   8.759 -0.3617 -0.2030  0.1188
 3585TIP3    H232391   3.955   1.521   8.611 -2.1077  0.2249 -0.0484
 3586TIP3   OH232392   3.603   4.694   0.892 -0.0351 -0.3475 -0.3356
 3586TIP3    H132393   3.689   4.671   0.928  0.5711  0.0822 -1.4849
 3586TIP3    H232394   3.552   4.720   0.969  0.2963 -2.2569  0.5911
 3587TIP3   OH232395   3.873   5.178   7.882 -0.1727  0.4951  0.3095
 3587TIP3    H132396   3.803   5.219   7.831  0.5015  0.3322 -0.7651
 3587TIP3    H232397   3.952   5.227   7.858 -0.0780  1.6081  2.5363
 3588TIP3   OH232398   4.669   6.727   1.623 -0.3539 -0.3253  0.4042
 3588TIP3    H132399   4.679   6.699   1.714  1.9523  0.0206  0.3001
 3588TIP3    H232400   4.638   6.817   1.629 -2.2693 -0.9643  0.7824
 3589TIP3   OH232401   2.259   2.246   8.278  0.4435  0.1446  0.1056
 3589TIP3    H132402   2.284   2.328   8.322  1.5234  0.1982 -0.5811
 3589TIP3    H232403   2.167   2.234   8.302  0.3484  1.3972  0.4709
 3590TIP3   OH232404   1.820   4.205   0.791 -0.4895 -0.1062  0.4230
 3590TIP3    H132405   1.819   4.111   0.809 -0.0492  0.0907  1.5502
 3590TIP3    H232406   1.867   4.213   0.708 -0.4969 -0.8735  0.3398
 3591TIP3   OH232407   0.074   4.593   0.241  0.1222  0.4730  0.6539
 3591TIP3    H132408   0.087   4.543   0.322 -0.4018 -2.7262 -1.0811
 3591TIP3    H232409  -0.017   4.621   0.245 -0.0149 -0.0079  0.9872
 3592TIP3   OH232410   5.088   4.780   1.742  0.1733  0.4618 -0.0179
 3592TIP3    H132411   5.168   4.771   1.691 -0.3239 -1.8567 -0.4892
 3592TIP3    H232412   5.111   4.751   1.830 -0.1698 -0.3920 -0.2013
 3593TIP3   OH232413   5.752   1.022   2.933  0.0984 -0.1412  0.2259
 3593TIP3    H132414   5.797   0.998   3.015 -0.3070 -0.6483  0.3011
 3593TIP3    H232415   5.815   1.078   2.888  0.2678  0.2821  0.9593
 3594TIP3   OH232416   3.948   5.588   0.648 -0.1294 -0.1545  0.1852
 3594TIP3    H132417   3.987   5.674   0.657  2.0248 -0.9765 -0.5724
 3594TIP3    H232418   4.017   5.534   0.608 -1.4491 -2.1770  0.4566
 3595TIP3   OH232419   0.970   5.185   7.885  0.0403  0.2303  0.4593
 3595TIP3    H132420   1.052   5.225   7.914  0.7050 -1.3082  0.7609
 3595TIP3    H232421   0.927   5.158   7.966  0.2891 -0.9652  0.2091
 3596TIP3   OH232422   2.874   3.462   0.590 -0.1052  0.4177  0.2602
 3596TIP3    H132423   2.877   3.385   0.533 -0.6697 -0.0092  0.7921
 3596TIP3    H232424   2.807   3.519   0.550  0.5503  0.7908 -0.3198
 3597TIP3   OH232425   5.167   2.846   7.870 -0.0388  0.2059  0.2227
 3597TIP3    H132426   5.221   2.805   7.937  1.2724  0.9207 -0.3550
 3597TIP3    H232427   5.121   2.916   7.915 -0.4121 -0.3397  0.6997
 3598TIP3   OH232428   4.927   2.804   0.760  0.6009  1.1048 -0.9450
 3598TIP3    H132429   4.863   2.852   0.812 -0.0553  1.5131 -2.1046
 3598TIP3    H232430   4.988   2.872   0.730 -0.9540  1.4945 -3.5223
 3599TIP3   OH232431   4.155   1.258   0.116  0.3625  0.3679 -0.4145
 3599TIP3    H132432   4.157   1.200   0.192 -1.6703  0.0632 -0.5488
 3599TIP3    H232433   4.242   1.248   0.076  1.1234 -0.2052  1.2893
 3600TIP3   OH232434   5.252   4.751   2.020 -0.3871 -0.0288 -0.2015
 3600TIP3    H132435   5.346   4.769   2.021 -0.5457  1.0245 -1.3465
 3600TIP3    H232436   5.212   4.829   2.059 -0.7818 -0.6309  0.6249
 3601TIP3   OH232437   2.914   6.634   0.136  0.0146 -0.5329 -0.4271
 3601TIP3    H132438   3.002   6.619   0.102 -0.0243 -0.9663 -0.3364
 3601TIP3    H232439   2.920   6.717   0.184  0.6547 -1.1507  0.5904
 3602TIP3   OH232440   1.823   5.790   2.370  0.3375 -0.1198  0.0514
 3602TIP3    H132441   1.862   5.739   2.441 -0.7140 -2.0030 -0.6456
 3602TIP3    H232442   1.769   5.727   2.322 -1.4890  1.7981 -0.5532
 3603TIP3   OH232443   5.586   3.527   1.425  0.5443 -0.5315 -0.3185
 3603TIP3    H132444   5.659   3.470   1.449  0.5662  0.1266  1.3284
 3603TIP3    H232445   5.564   3.573   1.506 -1.2584 -0.2065 -0.9466
 3604TIP3   OH232446   1.454   3.684   0.276  0.5315 -0.8629 -0.0565
 3604TIP3    H132447   1.531   3.724   0.236 -0.0895  1.4248  0.8829
 3604TIP3    H232448   1.490   3.618   0.336  1.6050 -1.5342 -1.3731
 3605TIP3   OH232449   3.148   5.468   1.072 -0.2955  0.2512  0.4271
 3605TIP3    H132450   3.181   5.380   1.088 -2.3055 -0.5235  0.5051
 3605TIP3    H232451   3.074   5.477   1.132  0.2299  2.2482  0.8758
 3606TIP3   OH232452   3.001   5.695   2.356  0.0902 -0.0527  0.6884
 3606TIP3    H132453   2.992   5.768   2.417 -1.4090  0.2000  0.2044
 3606TIP3    H232454   3.040   5.625   2.408 -0.0634  0.5357  1.6241
 3607TIP3   OH232455   5.939   4.378   2.214 -0.3514  0.5834 -0.0346
 3607TIP3    H132456   6.003   4.431   2.167 -0.8172  0.6914 -0.5517
 3607TIP3    H232457   5.980   4.361   2.299 -0.0897  1.5432  0.0353
 3608TIP3   OH232458   1.384   2.186   8.900  0.5281 -0.2044  0.2598
 3608TIP3    H132459   1.300   2.195   8.856 -0.3256  0.6795  1.9952
 3608TIP3    H232460   1.447   2.227   8.840 -0.7487  1.9212  0.2826
 3609TIP3   OH232461   3.809   6.563   8.646 -0.0634 -0.0686 -0.0391
 3609TIP3    H132462   3.894   6.603   8.628  0.3859 -1.5250 -1.4028
 3609TIP3    H232463   3.831   6.480   8.689 -0.7157 -1.0381 -1.5277
 3610TIP3   OH232464   0.397   2.291   1.243  0.2554 -0.2370  0.1941
 3610TIP3    H132465   0.477   2.242   1.263  0.5089  0.8316  2.0268
 3610TIP3    H232466   0.371   2.330   1.326 -2.1316 -0.4384 -0.3651
 3611TIP3   OH232467   4.219   3.507   0.537  0.0237  0.4604  0.1355
 3611TIP3    H132468   4.237   3.594   0.500  0.5029 -0.0802 -0.9416
 3611TIP3    H232469   4.247   3.513   0.628 -0.5005  1.6095  0.2407
 3612TIP3   OH232470   5.243   0.285   7.487 -0.5772  0.3416 -0.2133
 3612TIP3    H132471   5.209   0.359   7.435 -0.1652 -0.8105 -2.2401
 3612TIP3    H232472   5.287   0.229   7.423  2.1529  0.0205  1.7717
 3613TIP3   OH232473   6.440   0.650   7.739  0.5272  0.4752 -0.1483
 3613TIP3    H132474   6.360   0.624   7.693  0.4723  1.7892 -0.8657
 3613TIP3    H232475   6.509   0.596   7.701 -0.0005 -0.6337  0.4402
 3614TIP3   OH232476   3.009   0.365   1.348  0.4388  0.6840 -0.2142
 3614TIP3    H132477   3.003   0.273   1.375  0.4760  0.9034  0.5694
 3614TIP3    H232478   2.932   0.379   1.293  0.8530 -0.0262 -0.9872
 3615TIP3   OH232479   4.775   4.805   8.458 -0.3012  0.3085  0.3736
 3615TIP3    H132480   4.821   4.858   8.394  0.1643  0.5866  0.9219
 3615TIP3    H232481   4.735   4.734   8.407  0.4398  0.2659 -0.1624
 3616TIP3   OH232482   5.725   4.861   8.277 -0.2206  0.1690 -0.4391
 3616TIP3    H132483   5.720   4.920   8.353 -0.9901  1.3404 -1.3612
 3616TIP3    H232484   5.817   4.863   8.252 -0.1116  0.4441 -0.0341
 3617TIP3   OH232485   1.380   0.790   8.526 -0.1933  0.0594 -0.3109
 3617TIP3    H132486   1.474   0.807   8.532 -0.1559 -0.5419  1.1287
 3617TIP3    H232487   1.355   0.761   8.614 -1.8885  0.9897 -0.4383
 3618TIP3   OH232488   2.599   3.408   2.784  0.4168  0.5737 -0.5221
 3618TIP3    H132489   2.692   3.424   2.803  0.4934 -0.5298  0.1655
 3618TIP3    H232490   2.552   3.467   2.843  0.6865 -0.7558  1.0887
 3619TIP3   OH232491   1.603   2.791   0.121  1.4927 -0.0394  0.5809
 3619TIP3    H132492   1.623   2.700   0.099  1.0729  0.2250 -1.0735
 3619TIP3    H232493   1.522   2.809   0.073  1.0278  0.9221  1.6877
 3620TIP3   OH232494   3.581   5.965   8.841  0.1946 -0.0547 -0.3474
 3620TIP3    H132495   3.676   5.954   8.854 -0.1573 -1.7256  1.2946
 3620TIP3    H232496   3.571   6.056   8.814  2.5428 -0.6591 -4.0394
 3621TIP3   OH232497   5.550   5.704   0.447  0.4269 -0.1284 -0.2668
 3621TIP3    H132498   5.473   5.707   0.389  0.3912 -1.4148 -0.3314
 3621TIP3    H232499   5.573   5.795   0.462 -0.8944  0.2721 -0.5491
 3622TIP3   OH232500   4.697   3.454   1.894 -0.1489 -0.1495  0.5476
 3622TIP3    H132501   4.607   3.426   1.880 -0.2479  0.9063 -1.4314
 3622TIP3    H232502   4.706   3.532   1.838  3.3509 -2.9491 -3.4142
 3623TIP3   OH232503   0.879   6.196   1.329  0.2211 -0.2743 -0.3607
 3623TIP3    H132504   0.920   6.275   1.363  2.5565 -2.0343  1.1975
 3623TIP3    H232505   0.786   6.204   1.353  0.1882  2.3735 -1.1416
 3624TIP3   OH232506   5.159   5.365   0.875  0.1096 -0.5091 -0.4878
 3624TIP3    H132507   5.069   5.372   0.845 -0.2469 -4.3105 -0.8541
 3624TIP3    H232508   5.202   5.444   0.844 -2.2281 -0.3063 -3.6511
 3625TIP3   OH232509   4.146   5.144   7.516 -0.2798  0.0894  0.7412
 3625TIP3    H132510   4.148   5.197   7.436 -0.8456 -0.5472  0.2944
 3625TIP3    H232511   4.218   5.082   7.506 -1.4427 -1.1619 -0.1139
 3626TIP3   OH232512   1.717   0.147   8.011  0.3762  0.2603  0.2025
 3626TIP3    H132513   1.801   0.133   7.967  0.3773  1.5029 -0.2536
 3626TIP3    H232514   1.651   0.130   7.943  0.2582 -0.5989  0.5267
 3627TIP3   OH232515   2.249   6.612   2.344  0.0114 -0.8382  0.9333
 3627TIP3    H132516   2.326   6.597   2.290 -0.8248 -2.0910  0.0553
 3627TIP3    H232517   2.242   6.708   2.350 -0.0155 -0.6605 -1.3735
 3628TIP3   OH232518   3.607   4.045   1.226 -0.3830  0.0425 -0.1413
 3628TIP3    H132519   3.675   4.103   1.260 -0.4981 -0.6186  1.3044
 3628TIP3    H232520   3.651   3.961   1.214 -0.5976  0.0001 -0.6603
 3629TIP3   OH232521   2.354   4.212   2.710 -0.3095  0.2852 -0.1600
 3629TIP3    H132522   2.308   4.295   2.698 -1.0381 -0.5287 -4.6903
 3629TIP3    H232523   2.443   4.230   2.680 -0.2468 -0.3661 -0.3721
 3630TIP3   OH232524   2.446   6.704   6.923 -0.0535  0.4990  0.0283
 3630TIP3    H132525   2.515   6.639   6.936  0.6226  1.1674 -0.1391
 3630TIP3    H232526   2.426   6.699   6.830 -1.2720 -0.6986  0.3184
 3631TIP3   OH232527   1.629   2.509   2.886  0.1521 -0.4133  0.0841
 3631TIP3    H132528   1.548   2.462   2.866  0.9425 -0.9785 -2.1316
 3631TIP3    H232529   1.618   2.595   2.847 -0.8615  0.9907  3.2100
 3632TIP3   OH232530   5.425   2.518   7.438  0.5799  0.2176 -0.0979
 3632TIP3    H132531   5.387   2.432   7.421 -3.6134  1.6088  0.9682
 3632TIP3    H232532   5.409   2.568   7.358 -0.5052  1.0220  0.6010
 3633TIP3   OH232533   1.720   4.253   8.623  0.0586  0.7260 -0.3777
 3633TIP3    H132534   1.747   4.300   8.702  0.9106  0.9166 -0.7722
 3633TIP3    H232535   1.760   4.167   8.632 -1.5770  0.0099  0.3885
 3634TIP3   OH232536   2.959   1.112   8.919 -0.1756  0.1930 -0.4692
 3634TIP3    H132537   3.031   1.070   8.873  0.5385  0.8586  0.0062
 3634TIP3    H232538   2.940   1.190   8.866  1.0786  1.3116  0.6407
 3635TIP3   OH232539   4.720   3.742   0.666  0.3442  0.1464 -0.3765
 3635TIP3    H132540   4.785   3.680   0.700  0.4262  0.0131 -0.7740
 3635TIP3    H232541   4.648   3.738   0.729  1.6578  2.0175  1.3901
 3636TIP3   OH232542   5.184   6.772   8.797  0.1168 -0.7600 -0.5877
 3636TIP3    H132543   5.165   6.863   8.820 -2.7800 -1.6201  0.8505
 3636TIP3    H232544   5.279   6.763   8.811  0.3288  1.7775  0.0680
 3637TIP3   OH232545   4.431   0.960   7.768 -0.4747  0.8336 -0.2235
 3637TIP3    H132546   4.524   0.955   7.789 -0.6558  0.9591  0.6615
 3637TIP3    H232547   4.395   0.875   7.793 -0.8331  1.2488  0.7248
 3638TIP3   OH232548   1.495   5.339   7.891 -0.0093  0.5193  0.0681
 3638TIP3    H132549   1.460   5.326   7.803 -2.4281  1.5093  0.8225
 3638TIP3    H232550   1.499   5.434   7.902  2.3604  0.4671  0.3200
 3639TIP3   OH232551   5.656   3.171   7.045 -0.1858 -0.0390 -0.2165
 3639TIP3    H132552   5.751   3.181   7.051 -0.3878  1.6050  1.2108
 3639TIP3    H232553   5.643   3.081   7.018  1.8018  0.1397 -2.0167
 3640TIP3   OH232554   4.277   6.332   8.555 -0.0088  0.7313 -0.1925
 3640TIP3    H132555   4.218   6.407   8.554  0.0269  0.7568 -0.6535
 3640TIP3    H232556   4.252   6.280   8.479 -0.6675 -0.2318  0.6666
 3641TIP3   OH232557   2.739   5.775   8.558 -0.3830 -0.2557 -0.2507
 3641TIP3    H132558   2.778   5.836   8.496  1.7006  0.3670  1.5499
 3641TIP3    H232559   2.811   5.714   8.580 -1.1481 -0.6729  1.2470
 3642TIP3   OH232560   6.254   0.508   1.113  0.4218 -0.2629  0.2706
 3642TIP3    H132561   6.203   0.493   1.192 -0.6513  0.3169 -0.2954
 3642TIP3    H232562   6.294   0.423   1.094 -1.2827 -1.0649  0.0906
 3643TIP3   OH232563   3.074   0.015   0.352  0.0293 -0.4272 -0.2261
 3643TIP3    H132564   3.078   0.082   0.421 -0.5130  1.7611 -2.1967
 3643TIP3    H232565   3.146   0.037   0.293  0.0039 -1.7703 -0.7904
 3644TIP3   OH232566   5.599   4.970   2.579  0.0366 -0.4124 -0.1755
 3644TIP3    H132567   5.585   4.993   2.671 -1.0418 -0.2019 -0.3816
 3644TIP3    H232568   5.534   5.021   2.531  0.3269 -0.8188 -1.0267
 3645TIP3   OH232569   4.069   2.867   1.125  0.0015  0.2740  0.3820
 3645TIP3    H132570   4.023   2.835   1.202 -0.5408 -1.1196 -0.4834
 3645TIP3    H232571   4.014   2.841   1.051  0.0176  2.4197 -0.4553
 3646TIP3   OH232572   6.287   3.299   0.997  0.0348 -0.1404 -0.1880
 3646TIP3    H132573   6.374   3.339   0.988 -0.5550  0.9098 -1.5043
 3646TIP3    H232574   6.289   3.225   0.937  0.1424 -0.3477  0.0691
 3647TIP3   OH232575   4.407   1.267   1.890  0.2253  0.2534 -0.4605
 3647TIP3    H132576   4.482   1.275   1.831  0.9904  0.1293  0.4905
 3647TIP3    H232577   4.359   1.349   1.878  1.1278  0.8244 -0.2394
 3648TIP3   OH232578   2.581   4.598   0.035  0.0096 -0.0216  0.5463
 3648TIP3    H132579   2.612   4.609   0.125  0.4287 -2.7597  0.8102
 3648TIP3    H232580   2.649   4.640  -0.019  0.3196  0.6474  1.4202
 3649TIP3   OH232581   6.131   1.702   2.175  0.6660 -0.3235  0.2311
 3649TIP3    H132582   6.102   1.733   2.260 -0.1254 -0.9171  0.1863
 3649TIP3    H232583   6.151   1.782   2.126  0.7143  0.0322  0.8215
 3650TIP3   OH232584   2.978   6.494   7.325 -0.1389  0.0089 -0.2808
 3650TIP3    H132585   2.996   6.533   7.410  0.3897 -1.0383  0.1099
 3650TIP3    H232586   2.956   6.403   7.344 -0.3306 -0.1599 -1.2337
 3651TIP3   OH232587   5.589   0.966   8.817 -0.1714  0.0643 -0.0501
 3651TIP3    H132588   5.590   0.920   8.901  1.6864  1.9736  1.0608
 3651TIP3    H232589   5.654   0.920   8.763  0.7537  0.5849  0.6048
 3652TIP3   OH232590   1.657   4.877   7.100 -0.2415 -0.1914 -0.2051
 3652TIP3    H132591   1.619   4.929   7.171 -0.1273 -0.6180  0.1786
 3652TIP3    H232592   1.752   4.886   7.112 -0.1740 -1.7721  0.8810
 3653TIP3   OH232593   1.970   4.557   8.620  0.3682 -0.8205 -0.8350
 3653TIP3    H132594   1.945   4.532   8.531  0.7486  1.7833 -1.7774
 3653TIP3    H232595   2.056   4.517   8.632  0.4296 -1.0036 -1.7623
 3654TIP3   OH232596   3.722   3.283   2.599  0.3290 -0.4013  0.1919
 3654TIP3    H132597   3.790   3.298   2.664  0.1508  0.0578  0.2751
 3654TIP3    H232598   3.666   3.361   2.603  0.4580 -0.2467 -0.6826
 3655TIP3   OH232599   3.645   0.415   8.100 -0.2830 -0.0530  0.5709
 3655TIP3    H132600   3.555   0.445   8.087 -0.1915 -0.4516 -1.1596
 3655TIP3    H232601   3.699   0.493   8.091 -0.3081 -0.1510 -0.5683
 3656TIP3   OH232602   5.258   4.405   1.545  0.0989 -0.2865 -0.0695
 3656TIP3    H132603   5.312   4.329   1.524  1.7954  0.1760  2.2583
 3656TIP3    H232604   5.223   4.386   1.632 -1.6045  0.4953 -0.5421
 3657TIP3   OH232605   4.691   1.568   8.167 -0.6469 -0.2017  0.1247
 3657TIP3    H132606   4.623   1.510   8.202 -0.1616 -2.4174 -2.2996
 3657TIP3    H232607   4.644   1.629   8.111 -0.8909 -0.0187  0.5264
 3658TIP3   OH232608   4.337   4.930   1.167  0.1842 -0.1729  0.5550
 3658TIP3    H132609   4.325   5.024   1.153 -0.4745 -0.3304 -0.0479
 3658TIP3    H232610   4.405   4.905   1.104  0.8535  0.0115  1.1896
 3659TIP3   OH232611   2.135   2.276   2.067 -0.1383 -0.8827 -0.2670
 3659TIP3    H132612   2.142   2.340   1.996 -3.2976 -2.0533 -1.8188
 3659TIP3    H232613   2.149   2.191   2.024 -1.0142 -1.5405  0.6920
 3660TIP3   OH232614   0.807   3.492   1.973 -0.3627 -0.4360 -0.6209
 3660TIP3    H132615   0.720   3.522   1.949 -0.8649 -0.0964  1.4029
 3660TIP3    H232616   0.833   3.433   1.902 -2.7405 -1.4680 -0.7394
 3661TIP3   OH232617   5.412   5.229   0.906 -0.0013 -0.0013  0.5121
 3661TIP3    H132618   5.419   5.159   0.841  0.0897 -0.9335  1.4960
 3661TIP3    H232619   5.318   5.248   0.911  0.0422  0.4518 -0.2656
 3662TIP3   OH232620   0.095   3.842   1.740 -0.3618 -0.3459 -0.2175
 3662TIP3    H132621   0.071   3.896   1.665  0.4039  3.4250  2.0413
 3662TIP3    H232622   0.070   3.893   1.817  0.2174 -3.3464  2.1709
 3663TIP3   OH232623   3.891   2.739   7.660 -0.0892 -0.8124 -0.2652
 3663TIP3    H132624   3.804   2.742   7.620  0.0510 -0.4100 -0.5402
 3663TIP3    H232625   3.904   2.646   7.680 -0.2126 -1.0045 -1.0371
 3664TIP3   OH232626   1.558   6.676   1.503 -0.0606  0.2202 -0.5257
 3664TIP3    H132627   1.486   6.651   1.445 -0.4407  0.5432 -0.2102
 3664TIP3    H232628   1.584   6.763   1.472  0.2981  0.0374 -0.7351
 3665TIP3   OH232629   2.065   2.520   0.744  0.8666 -0.1573  0.1138
 3665TIP3    H132630   2.119   2.569   0.806  1.2993 -0.8920  0.3364
 3665TIP3    H232631   2.073   2.429   0.773 -0.4211 -0.2943  0.0903
 3666TIP3   OH232632   1.065   6.110   8.231 -0.6729  0.2135 -0.0409
 3666TIP3    H132633   1.139   6.049   8.230  0.0780  1.0897  0.8346
 3666TIP3    H232634   1.053   6.132   8.323  0.0842  2.5820 -0.4485
 3667TIP3   OH232635   0.201   4.223   0.753  0.0735  0.4235  0.0189
 3667TIP3    H132636   0.270   4.188   0.808  0.0130  0.8903  0.3991
 3667TIP3    H232637   0.215   4.183   0.667  0.3781 -0.0350  0.2824
 3668TIP3   OH232638   4.015   0.267   0.429  0.5489 -0.1223 -0.0250
 3668TIP3    H132639   3.931   0.274   0.383  1.0530  0.7247 -0.8662
 3668TIP3    H232640   4.076   0.315   0.373  1.1532  1.1611  1.6381
 3669TIP3   OH232641   0.809   1.021   1.448 -0.3103 -0.2862 -0.1188
 3669TIP3    H132642   0.874   1.092   1.451  2.3917 -2.5478 -0.7506
 3669TIP3    H232643   0.827   0.969   1.526 -2.2791 -0.3171  0.3605
 3670TIP3   OH232644   4.123   0.668   0.181 -0.6606  0.3865  0.1539
 3670TIP3    H132645   4.208   0.701   0.211  0.2218 -1.1737 -0.5116
 3670TIP3    H232646   4.110   0.710   0.096 -0.0349 -0.1742 -0.2261
 3671TIP3   OH232647   0.675   3.885   6.931  0.1539 -0.3152  0.1382
 3671TIP3    H132648   0.604   3.877   6.994 -1.2868 -0.8350 -1.4882
 3671TIP3    H232649   0.691   3.979   6.924 -1.8995 -0.0221 -1.0835
 3672TIP3   OH232650   5.228   3.667   1.434 -0.9202 -0.3742  0.1473
 3672TIP3    H132651   5.235   3.649   1.528 -0.2133 -2.2749 -0.2250
 3672TIP3    H232652   5.280   3.747   1.421  0.8307 -1.3010  1.0823
 3673TIP3   OH232653   1.869   0.762   8.750  0.0480 -0.3246  0.2640
 3673TIP3    H132654   1.888   0.706   8.825 -2.7737  1.9859  2.9514
 3673TIP3    H232655   1.829   0.703   8.686 -2.0495 -1.6624  2.6259
 3674TIP3   OH232656   3.832   5.784   0.163 -0.1303  0.2554  0.1130
 3674TIP3    H132657   3.857   5.871   0.194  0.4509  0.5545 -1.1446
 3674TIP3    H232658   3.844   5.787   0.069 -1.0335 -0.8950 -0.0727
 3675TIP3   OH232659   3.591   1.603   0.254  0.1392  0.6122  0.1703
 3675TIP3    H132660   3.634   1.689   0.262 -0.3736  0.9466 -0.5021
 3675TIP3    H232661   3.500   1.621   0.277  0.0498  0.2242  0.1082
 3676TIP3   OH232662   0.870   4.281   7.577 -0.4223  0.2601 -0.1080
 3676TIP3    H132663   0.864   4.326   7.493  1.5348 -0.7779 -0.8647
 3676TIP3    H232664   0.918   4.200   7.558  2.4262  1.1592  2.4141
 3677TIP3   OH232665   1.692   6.542   7.600  0.1894 -0.1092  0.5364
 3677TIP3    H132666   1.760   6.586   7.651  0.8722 -0.2031 -0.2840
 3677TIP3    H232667   1.685   6.593   7.519 -0.4167 -0.3504  0.4317
 3678TIP3   OH232668   5.035   2.350   7.324 -0.8782 -0.1771  0.2881
 3678TIP3    H132669   5.052   2.292   7.249 -2.2099  0.4304 -0.5283
 3678TIP3    H232670   5.008   2.291   7.394  1.0668 -0.8251  0.5523
 3679TIP3   OH232671   4.071   4.005   7.874 -0.0175 -0.3955  0.7415
 3679TIP3    H132672   4.110   3.978   7.791  0.7229 -0.5038  1.1078
 3679TIP3    H232673   4.049   4.097   7.862 -0.3500 -0.5318  0.2728
 3680TIP3   OH232674   5.354   3.989   1.655 -0.7233  0.2462 -0.0487
 3680TIP3    H132675   5.363   3.962   1.746  0.1465  1.8661  0.3923
 3680TIP3    H232676   5.268   4.032   1.651  0.1381  2.1410  0.6028
 3681TIP3   OH232677   4.196   6.428   1.771 -0.0065 -0.3445  0.0171
 3681TIP3    H132678   4.229   6.518   1.780 -1.1330  0.0301  0.6619
 3681TIP3    H232679   4.106   6.433   1.802  0.0925 -1.8305  0.6164
 3682TIP3   OH232680   1.252   0.977   0.386 -0.9236 -0.1687 -0.2401
 3682TIP3    H132681   1.281   0.906   0.329 -0.7303 -0.2126 -0.0877
 3682TIP3    H232682   1.207   0.933   0.459  0.3721 -0.2242  0.5532
 3683TIP3   OH232683   1.514   5.135   1.297  0.2133  0.2861  0.1247
 3683TIP3    H132684   1.515   5.219   1.252 -0.5526  1.0477  1.4603
 3683TIP3    H232685   1.430   5.095   1.271 -0.0082  0.5118  0.4843
 3684TIP3   OH232686   4.711   2.521   8.868  0.4321 -0.1696 -0.1433
 3684TIP3    H132687   4.716   2.602   8.818 -1.6380  1.4897  2.0997
 3684TIP3    H232688   4.803   2.498   8.886  1.0703  1.2025 -1.4976
 3685TIP3   OH232689   0.455   4.911   2.044 -0.5545 -0.5029 -0.3521
 3685TIP3    H132690   0.396   4.889   1.971  0.2807 -0.3473 -1.0833
 3685TIP3    H232691   0.524   4.964   2.004 -1.4085  1.7406  0.9980
 3686TIP3   OH232692   6.478   4.569   8.491 -0.0450 -0.3795  0.2172
 3686TIP3    H132693   6.572   4.572   8.509  0.2833 -1.5982 -1.0886
 3686TIP3    H232694   6.465   4.486   8.446 -1.9794 -0.8460  1.5121
 3687TIP3   OH232695   1.880   1.862   1.563 -0.7988  0.2896  0.2446
 3687TIP3    H132696   1.794   1.824   1.550 -0.1316 -0.6872 -1.6009
 3687TIP3    H232697   1.930   1.838   1.485  0.9697  1.3399  0.9784
 3688TIP3   OH232698   6.130   6.646   7.722 -0.7522  0.3722 -0.0263
 3688TIP3    H132699   6.038   6.640   7.748 -0.9804 -0.5435 -0.9871
 3688TIP3    H232700   6.179   6.612   7.797 -1.2362  0.1906  0.2126
 3689TIP3   OH232701   2.030   5.307   8.156  0.4569 -1.0675  0.2429
 3689TIP3    H132702   1.991   5.267   8.234 -0.0217 -0.3480  0.3815
 3689TIP3    H232703   1.959   5.357   8.117  0.6320 -1.6074 -0.7962
 3690TIP3   OH232704   5.117   3.797   2.020 -0.2868  0.3891  0.3603
 3690TIP3    H132705   5.122   3.890   2.045 -0.2515  0.8919 -1.3805
 3690TIP3    H232706   5.208   3.767   2.024 -0.1693  0.6898  0.0151
 3691TIP3   OH232707   2.932   1.171   0.273  0.0374 -0.0056 -0.2768
 3691TIP3    H132708   3.008   1.141   0.322 -0.0851 -0.3923 -0.3197
 3691TIP3    H232709   2.958   1.167   0.181  0.3110  0.8437 -0.2449
 3692TIP3   OH232710   2.959   2.733   1.638 -0.1122 -0.1764 -0.0414
 3692TIP3    H132711   3.050   2.705   1.628 -0.2284  0.2022 -2.8577
 3692TIP3    H232712   2.921   2.723   1.551 -2.1135  1.9265  0.5003
 3693TIP3   OH232713   2.755   3.031   7.292  0.4932 -0.4409  0.0727
 3693TIP3    H132714   2.804   2.988   7.221 -0.8691 -2.6357  0.3685
 3693TIP3    H232715   2.665   3.001   7.280 -0.3176  1.4243  1.0837
 3694TIP3   OH232716   2.872   0.801   7.020  0.2370  0.1807  0.1162
 3694TIP3    H132717   2.932   0.868   7.053 -0.4329 -0.7405  3.6189
 3694TIP3    H232718   2.786   0.844   7.020 -0.6687 -1.0223  4.8067
 3695TIP3   OH232719   6.506   1.374   0.774  0.4802 -0.0012 -0.1187
 3695TIP3    H132720   6.538   1.310   0.711 -0.2044  0.3515 -0.8347
 3695TIP3    H232721   6.550   1.351   0.856  2.7388  0.5902 -1.0915
 3696TIP3   OH232722   0.143   6.400   8.139 -0.6506 -0.0676 -0.2302
 3696TIP3    H132723   0.197   6.425   8.214 -1.5286 -1.4024  0.8891
 3696TIP3    H232724   0.203   6.402   8.064  1.1590 -2.2260  1.0678
 3697TIP3   OH232725   2.449   1.386   8.539  0.2832  0.3195  0.0974
 3697TIP3    H132726   2.504   1.454   8.499 -0.1043 -0.0591 -1.1165
 3697TIP3    H232727   2.510   1.314   8.557  0.8051  1.1505  1.8980
 3698TIP3   OH232728   1.070   4.655   2.126 -0.0052  0.1879 -0.0318
 3698TIP3    H132729   1.044   4.574   2.170 -1.6908 -0.1429 -1.5176
 3698TIP3    H232730   1.138   4.629   2.065 -0.3988 -0.0846 -0.3583
 3699TIP3   OH232731   0.586   4.758   1.609  0.1134  0.4682 -0.6517
 3699TIP3    H132732   0.499   4.798   1.607  0.6292  1.8599  1.2584
 3699TIP3    H232733   0.582   4.696   1.682  0.2723 -0.7177 -1.6133
 3700TIP3   OH232734   0.041   0.493   8.288  0.3147  0.4366  0.2113
 3700TIP3    H132735  -0.028   0.452   8.340  0.7710  0.2584  0.6824
 3700TIP3    H232736   0.012   0.584   8.277 -0.7159  0.0055 -0.8636
 3701TIP3   OH232737   2.380   3.493   0.506  0.1209 -0.1587  0.1521
 3701TIP3    H132738   2.377   3.403   0.538 -1.5421  0.2109  1.1531
 3701TIP3    H232739   2.409   3.544   0.581 -1.0763  0.3794  0.2659
 3702TIP3   OH232740   4.209   4.344   7.369 -0.0269  0.0852  0.1146
 3702TIP3    H132741   4.118   4.332   7.395 -0.2202  1.9918  0.4601
 3702TIP3    H232742   4.257   4.351   7.452  0.9070 -3.4431  0.0121
 3703TIP3   OH232743   4.462   6.364   7.047 -0.5431 -0.7544 -0.0029
 3703TIP3    H132744   4.523   6.436   7.033 -0.1850 -0.5220  2.3412
 3703TIP3    H232745   4.437   6.337   6.959  1.9602 -0.0478 -1.0291
 3704TIP3   OH232746   5.032   1.502   6.785  0.2265 -0.5141 -0.3230
 3704TIP3    H132747   4.942   1.530   6.800  0.4029  0.2998 -0.7178
 3704TIP3    H232748   5.047   1.518   6.691  0.4112 -1.7507 -0.5247
 3705TIP3   OH232749   0.112   5.897   0.124  0.0405  0.2379 -0.0937
 3705TIP3    H132750   0.143   5.898   0.215 -2.4343  0.1992  0.8354
 3705TIP3    H232751   0.086   5.987   0.107 -2.8140 -0.3737  0.5611
 3706TIP3   OH232752   1.121   4.096   1.739  0.0636 -0.3747 -0.0864
 3706TIP3    H132753   1.119   4.013   1.691  1.3802 -0.6637  0.3086
 3706TIP3    H232754   1.091   4.074   1.827  1.4194 -0.6818  0.3248
 3707TIP3   OH232755   6.569   2.338   1.732 -0.7849  0.8815 -0.6112
 3707TIP3    H132756   6.650   2.372   1.692 -2.5032  1.9054 -3.5517
 3707TIP3    H232757   6.595   2.313   1.821  3.4607 -1.5410 -2.1972
 3708TIP3   OH232758   6.495   4.734   1.604  0.1161  0.2909 -0.5031
 3708TIP3    H132759   6.500   4.772   1.516  1.0325  1.1379 -0.0964
 3708TIP3    H232760   6.487   4.809   1.662  0.7739 -0.1904  0.2260
 3709TIP3   OH232761   4.445   2.545   8.401  0.1551  0.0560 -0.0424
 3709TIP3    H132762   4.454   2.482   8.473  0.0680 -0.3542 -0.3845
 3709TIP3    H232763   4.535   2.559   8.371  0.3963  1.5670  1.2574
 3710TIP3   OH232764   6.800   1.031   1.299 -0.1830 -0.8493 -0.0173
 3710TIP3    H132765   6.707   1.031   1.320  0.0017  0.3603  0.9488
 3710TIP3    H232766   6.844   1.026   1.384  0.6374 -0.8299 -0.4275
 3711TIP3   OH232767   4.972   0.351   8.573 -0.5735 -0.0117  0.0019
 3711TIP3    H132768   4.939   0.391   8.653 -0.1131  0.8078 -0.2035
 3711TIP3    H232769   5.040   0.411   8.542  0.2793 -1.0416 -0.2202
 3712TIP3   OH232770   4.732   6.243   6.721  0.2675 -0.5995 -0.1498
 3712TIP3    H132771   4.824   6.222   6.736  0.4746  0.4265  0.0777
 3712TIP3    H232772   4.732   6.335   6.695 -0.8977  0.2566  2.4872
 3713TIP3   OH232773   1.392   3.174   8.931  0.3783  0.5800 -0.3935
 3713TIP3    H132774   1.415   3.211   9.016  0.4428 -0.6713  0.1593
 3713TIP3    H232775   1.473   3.133   8.900 -0.2279 -1.0256  0.0564
 3714TIP3   OH232776   1.856   6.215   1.553  0.0393 -0.5581  0.0183
 3714TIP3    H132777   1.815   6.225   1.467  0.6634 -0.7147 -0.3043
 3714TIP3    H232778   1.943   6.181   1.534  0.1851 -0.5872  0.7160
 3715TIP3   OH232779   0.352   4.091   8.314  0.0964  0.2988  0.6603
 3715TIP3    H132780   0.425   4.032   8.333 -0.2844 -0.6137 -0.6018
 3715TIP3    H232781   0.297   4.087   8.392  0.6550 -0.1139  1.0435
 3716TIP3   OH232782   0.754   1.512   8.492 -0.8056  0.1886  0.3790
 3716TIP3    H132783   0.836   1.549   8.524  1.4587 -2.6318 -1.6048
 3716TIP3    H232784   0.724   1.456   8.563  0.7984 -1.2219  0.0118
 3717TIP3   OH232785   5.687   0.697   0.040 -0.0975  0.0159  0.8693
 3717TIP3    H132786   5.647   0.638  -0.023 -1.0077  0.2281  1.2407
 3717TIP3    H232787   5.639   0.682   0.121  2.1028 -1.4692  2.0072
 3718TIP3   OH232788   3.883   3.759   7.528  0.6483  0.8544  0.9189
 3718TIP3    H132789   3.794   3.752   7.562  0.2306 -0.1971 -0.3187
 3718TIP3    H232790   3.890   3.850   7.498 -0.5313  0.5505 -0.3454
 3719TIP3   OH232791   4.393   5.977   8.881 -0.5702 -0.8181  0.0050
 3719TIP3    H132792   4.447   5.941   8.951 -1.1564 -3.8162 -0.9463
 3719TIP3    H232793   4.379   6.068   8.906  0.9129 -1.2299  2.7181
 3720TIP3   OH232794   2.103   6.726   1.653  0.5676 -0.0540  0.4610
 3720TIP3    H132795   2.026   6.781   1.665  0.2787  0.2399 -2.1734
 3720TIP3    H232796   2.166   6.757   1.719  0.3348  3.3159 -0.7574
 3721TIP3   OH232797   3.354   6.100   8.581  0.0027 -0.4365  0.8212
 3721TIP3    H132798   3.294   6.175   8.574 -0.0088 -0.5697 -0.8687
 3721TIP3    H232799   3.304   6.034   8.629 -0.6706 -0.0089  0.7335
 3722TIP3   OH232800   4.842   5.948   0.075 -0.2421 -0.1810 -0.4602
 3722TIP3    H132801   4.904   5.933   0.147  0.6904 -0.2936 -1.2672
 3722TIP3    H232802   4.828   5.862   0.037 -0.1338 -0.0206 -0.8763
 3723TIP3   OH232803   5.619   5.950   6.850 -0.3868  0.5194 -0.9672
 3723TIP3    H132804   5.608   6.035   6.807 -1.1374 -0.4449 -2.7923
 3723TIP3    H232805   5.675   5.900   6.791  0.8088  0.0127  0.5374
 3724TIP3   OH232806   3.752   0.225   1.860  0.1226  0.3974  0.3273
 3724TIP3    H132807   3.813   0.185   1.798  0.9552  1.3738  0.4950
 3724TIP3    H232808   3.801   0.298   1.898 -1.1359  1.1666  0.5112
 3725TIP3   OH232809   2.775   1.943   8.245  0.0906  0.4760  0.2560
 3725TIP3    H132810   2.831   1.948   8.167 -0.0464 -1.2010  0.0116
 3725TIP3    H232811   2.710   2.012   8.231  1.0639  1.3159 -0.2852
 3726TIP3   OH232812   3.720   1.017   0.399 -0.0419 -0.6315  0.0030
 3726TIP3    H132813   3.725   0.940   0.343 -0.3599 -0.0466 -0.8350
 3726TIP3    H232814   3.628   1.024   0.424 -0.9002  1.6920 -3.1482
 3727TIP3   OH232815   1.604   3.769   0.038 -0.5477  0.1894 -0.3533
 3727TIP3    H132816   1.610   3.697  -0.025  0.8407 -0.0258 -0.0224
 3727TIP3    H232817   1.633   3.846  -0.011 -2.3862  0.6251 -0.8117
 3728TIP3   OH232818   1.349   3.623   0.006 -0.4029  0.2758 -0.2630
 3728TIP3    H132819   1.411   3.665   0.066 -1.2501  0.8520  0.2205
 3728TIP3    H232820   1.264   3.635   0.047 -0.9702  0.4825 -1.4637
 3729TIP3   OH232821   3.532   6.175   7.514 -0.1265  0.5926 -0.1696
 3729TIP3    H132822   3.542   6.172   7.419 -0.9911 -0.5798 -0.2415
 3729TIP3    H232823   3.617   6.148   7.548 -0.4093 -0.9957 -0.6511
 3730TIP3   OH232824   0.729   0.104   7.313 -0.1921 -0.3703  0.4426
 3730TIP3    H132825   0.814   0.104   7.357  0.5098 -0.7761 -0.8697
 3730TIP3    H232826   0.724   0.189   7.269  0.7485 -1.3498 -1.6787
 3731TIP3   OH232827   5.719   5.096   0.933  0.0189 -0.6364  0.5115
 3731TIP3    H132828   5.700   5.124   1.023  4.0910  0.1169  1.3388
 3731TIP3    H232829   5.718   5.177   0.882 -0.9841 -0.8788  0.1360
 3732TIP3   OH232830   2.152   2.897   8.801 -0.5796  0.7665  0.2700
 3732TIP3    H132831   2.119   2.983   8.829  0.0196  1.2362 -0.4352
 3732TIP3    H232832   2.108   2.880   8.718 -2.6593 -0.8097  1.6079
 3733TIP3   OH232833   4.699   1.883   0.674 -0.0975 -0.0278 -0.0874
 3733TIP3    H132834   4.751   1.897   0.753 -0.4491 -0.1621  0.1716
 3733TIP3    H232835   4.758   1.837   0.614  0.8991  2.0330 -0.7592
 3734TIP3   OH232836   6.334   2.675   7.366  0.2309 -0.0880 -0.1446
 3734TIP3    H132837   6.285   2.614   7.311 -0.4191  0.1272  0.1833
 3734TIP3    H232838   6.341   2.755   7.314 -0.7220  0.2480  0.2193
 3735TIP3   OH232839   2.970   0.399   6.929  0.5058 -0.4535 -0.5087
 3735TIP3    H132840   2.890   0.374   6.975  0.7897 -0.6171 -0.0917
 3735TIP3    H232841   2.940   0.431   6.844 -0.0632  0.2845 -0.0412
 3736TIP3   OH232842   5.878   1.905   6.765  0.7237  0.6801  0.0496
 3736TIP3    H132843   5.969   1.875   6.757 -0.3227 -2.3773 -2.3647
 3736TIP3    H232844   5.827   1.825   6.778 -1.9512  1.6880 -2.8249
 3737TIP3   OH232845   4.119   0.554   0.783  0.3267 -0.3197 -0.0762
 3737TIP3    H132846   4.042   0.523   0.831  1.0002 -2.8373 -0.5070
 3737TIP3    H232847   4.193   0.527   0.837  0.9955  0.0094 -0.8069
 3738TIP3   OH232848   1.728   4.620   1.583  0.3359 -0.0109  0.2346
 3738TIP3    H132849   1.745   4.538   1.537  0.2403  0.5115 -0.7622
 3738TIP3    H232850   1.724   4.596   1.675 -0.3793 -1.2509 -0.0964
 3739TIP3   OH232851   1.437   3.927   2.265 -0.5004 -0.1440 -0.0518
 3739TIP3    H132852   1.525   3.949   2.298 -0.7828  0.2994  0.4136
 3739TIP3    H232853   1.433   3.971   2.180 -0.2511 -0.2087 -0.0998
 3740TIP3   OH232854   6.031   0.361   8.369  0.3803 -0.4212 -0.1171
 3740TIP3    H132855   6.065   0.415   8.441  1.7340 -0.3756 -0.7497
 3740TIP3    H232856   6.042   0.271   8.400 -0.5264 -0.3811  0.3555
 3741TIP3   OH232857   0.848   5.580   1.083 -0.3073  0.8842 -0.0238
 3741TIP3    H132858   0.925   5.607   1.032 -0.9871  1.6119 -0.6929
 3741TIP3    H232859   0.884   5.545   1.165  0.7525  0.7473 -0.5367
 3742TIP3   OH232860   2.528   1.281   8.153 -0.7551  0.5733  0.1833
 3742TIP3    H132861   2.584   1.331   8.212  0.9780 -0.2385 -0.6694
 3742TIP3    H232862   2.521   1.336   8.075 -0.0034  0.1305 -0.2155
 3743TIP3   OH232863   2.726   0.835   8.243  0.2285  0.0283 -0.1741
 3743TIP3    H132864   2.709   0.824   8.149  1.4183  0.4762 -0.4544
 3743TIP3    H232865   2.674   0.911   8.268 -2.6484 -1.9031  0.2826
 3744TIP3   OH232866   6.193   1.497   0.601 -0.6646 -0.1882  0.0497
 3744TIP3    H132867   6.133   1.449   0.546 -2.0100  1.3073  0.1386
 3744TIP3    H232868   6.165   1.588   0.595  1.6455  0.6050  0.0386
 3745TIP3   OH232869   2.538   3.532   1.178 -0.7179 -0.8065 -0.4223
 3745TIP3    H132870   2.530   3.488   1.262 -1.6982  0.0879 -0.0272
 3745TIP3    H232871   2.600   3.603   1.193  0.5788 -1.7771 -0.9673
 3746TIP3   OH232872   0.372   6.683   0.325  0.6054 -0.3577  0.2212
 3746TIP3    H132873   0.392   6.759   0.381 -0.1665 -0.0198  0.0585
 3746TIP3    H232874   0.390   6.714   0.236  0.6358 -0.4808  0.1855
 3747TIP3   OH232875   0.744   0.541   8.565 -0.4874  0.3189 -0.1064
 3747TIP3    H132876   0.669   0.586   8.525 -1.1391  0.7472  1.5073
 3747TIP3    H232877   0.763   0.592   8.644  2.2660  0.8899 -1.0376
 3748TIP3   OH232878   2.822   1.147   7.680  0.0414  0.0078  0.1433
 3748TIP3    H132879   2.825   1.060   7.639 -0.7498  0.5123 -1.0478
 3748TIP3    H232880   2.815   1.130   7.773 -1.2282 -1.2281 -0.1478
 3749TIP3   OH232881   2.536   1.422   0.335  0.1713 -0.3430  0.2230
 3749TIP3    H132882   2.581   1.369   0.400  0.0238 -0.2056  0.4381
 3749TIP3    H232883   2.444   1.418   0.361  0.1684  0.0815  0.2856
 3750TIP3   OH232884   5.710   1.215   2.383  0.1239 -0.3532 -0.0892
 3750TIP3    H132885   5.701   1.123   2.356  0.0402  0.1460 -1.9230
 3750TIP3    H232886   5.623   1.253   2.367  0.1112  0.0129  0.8242
 3751TIP3   OH232887   4.154   3.666   8.365 -0.8266  0.3719  0.2349
 3751TIP3    H132888   4.211   3.728   8.319  0.6198 -1.1500 -0.1553
 3751TIP3    H232889   4.111   3.617   8.295  1.6445 -2.1908  0.3280
 3752TIP3   OH232890   4.122   1.343   7.319 -0.0354  0.1277 -0.0330
 3752TIP3    H132891   4.070   1.327   7.239 -0.6096 -0.8367  0.5113
 3752TIP3    H232892   4.187   1.273   7.320  0.5133  0.6276 -0.0759
 3753TIP3   OH232893   2.609   6.176   0.521  0.0855  0.4141  0.2100
 3753TIP3    H132894   2.630   6.263   0.487  2.5684  0.5194  1.7525
 3753TIP3    H232895   2.680   6.120   0.490  0.1536 -0.3768  1.6940
 3754TIP3   OH232896   5.935   0.477   7.642 -0.3967 -0.1839 -0.3576
 3754TIP3    H132897   5.930   0.499   7.735  0.9832 -1.1968 -0.0088
 3754TIP3    H232898   5.883   0.397   7.633  0.6737 -0.9316 -0.1327
 3755TIP3   OH232899   5.776   5.089   1.534  0.1381  0.1298 -0.1651
 3755TIP3    H132900   5.698   5.141   1.515  0.2805  0.3108 -0.2455
 3755TIP3    H232901   5.761   5.055   1.623  0.3933  0.9254  0.1847
 3756TIP3   OH232902   0.774   3.514   0.468  0.2451 -0.3357 -0.8669
 3756TIP3    H132903   0.840   3.540   0.403  0.6303  0.7468 -0.0516
 3756TIP3    H232904   0.786   3.419   0.476  1.7628 -0.1500 -0.6751
 3757TIP3   OH232905   6.144   3.741   1.936  0.0275  0.2418  0.6956
 3757TIP3    H132906   6.156   3.806   1.866 -0.1319 -0.6025 -0.1315
 3757TIP3    H232907   6.208   3.673   1.917 -0.5294 -0.3574  0.9332
 3758TIP3   OH232908   4.803   5.645   0.222 -0.4267  0.7606  0.9463
 3758TIP3    H132909   4.784   5.674   0.132  3.5320  2.6590  0.5015
 3758TIP3    H232910   4.820   5.551   0.214 -2.0840  0.5016  0.1369
 3759TIP3   OH232911   4.950   3.951   8.892  0.7322 -0.0738 -0.3264
 3759TIP3    H132912   4.887   4.022   8.903  1.1846  0.0967  1.4169
 3759TIP3    H232913   5.013   3.985   8.828 -0.2228  0.2276 -1.1429
 3760TIP3   OH232914   5.181   5.325   1.148  0.0376 -0.2025 -0.1778
 3760TIP3    H132915   5.187   5.328   1.052  1.4429 -0.5408 -0.1231
 3760TIP3    H232916   5.120   5.254   1.166 -0.0336 -0.3121 -0.8185
 3761TIP3   OH232917   4.216   5.809   0.127  0.2169 -0.3734  0.1200
 3761TIP3    H132918   4.221   5.899   0.158 -1.4877 -0.1517 -0.1693
 3761TIP3    H232919   4.212   5.756   0.208  0.0949 -0.1018  0.2924
 3762TIP3   OH232920   3.671   1.644   1.601  0.2856 -0.1137 -0.3350
 3762TIP3    H132921   3.740   1.679   1.544  0.1173  0.0670 -0.4303
 3762TIP3    H232922   3.590   1.666   1.555  0.1541 -0.0779 -0.0838
 3763TIP3   OH232923   0.036   0.412   8.637 -0.2024 -0.5863  0.0386
 3763TIP3    H132924  -0.004   0.494   8.666 -2.1201 -1.6410  0.5307
 3763TIP3    H232925   0.130   0.427   8.643 -0.5086  0.6484  2.8352
 3764TIP3   OH232926   5.982   0.709   8.374  0.2983  0.5513  0.4320
 3764TIP3    H132927   5.939   0.672   8.297 -0.4004  3.0446 -0.4730
 3764TIP3    H232928   6.048   0.644   8.398  0.1342 -0.5730 -1.8799
 3765TIP3   OH232929   5.745   0.448   8.364 -0.0183 -0.4320 -0.3040
 3765TIP3    H132930   5.763   0.499   8.443 -0.2613 -0.1531 -0.4245
 3765TIP3    H232931   5.821   0.390   8.354  0.7394  0.5987 -0.7136
 3766TIP3   OH232932   0.640   6.063   0.919 -0.0768  0.2284 -0.2566
 3766TIP3    H132933   0.727   6.023   0.919 -0.6760 -1.1227 -0.6137
 3766TIP3    H232934   0.625   6.089   1.010  0.7299  0.5346 -0.2095
 3767TIP3   OH232935   0.075   4.627   6.939 -0.8823 -0.0361 -0.2043
 3767TIP3    H132936   0.151   4.662   6.986 -1.1497  0.5450 -0.1946
 3767TIP3    H232937  -0.001   4.665   6.984 -1.1523  0.1682 -0.8149
 3768TIP3   OH232938   1.208   6.629   8.684 -0.1813  0.0552  0.2683
 3768TIP3    H132939   1.287   6.678   8.661 -0.9217  1.9652  1.5655
 3768TIP3    H232940   1.216   6.614   8.778 -0.7747 -0.8911  0.1751
 3769TIP3   OH232941   0.757   0.364   2.061 -0.4991 -0.0470 -0.4076
 3769TIP3    H132942   0.811   0.436   2.027  0.5111  0.7917  2.6880
 3769TIP3    H232943   0.798   0.286   2.025 -0.5078  0.7720 -2.3617
 3770TIP3   OH232944   5.379   0.834   8.405 -0.2440  0.1813  0.1093
 3770TIP3    H132945   5.469   0.864   8.412 -0.6417  1.8158 -1.0772
 3770TIP3    H232946   5.381   0.743   8.435  2.1253 -0.4180 -1.6007
 3771TIP3   OH232947   2.373   5.863   8.920 -0.1746  0.4000 -0.4191
 3771TIP3    H132948   2.408   5.797   8.859 -0.6646  0.6548 -0.9846
 3771TIP3    H232949   2.298   5.901   8.874 -1.5020 -0.4462  0.9337
 3772TIP3   OH232950   3.932   0.655   6.979 -0.3222  0.7962 -0.3027
 3772TIP3    H132951   3.928   0.608   6.895 -1.4030 -0.3234  0.3460
 3772TIP3    H232952   3.841   0.678   6.998 -0.6575 -1.9282  2.1391
 3773TIP3   OH232953   3.896   2.677   1.267  0.8996 -0.2679  0.1409
 3773TIP3    H132954   3.948   2.668   1.347  0.5937 -1.3014  0.2375
 3773TIP3    H232955   3.818   2.625   1.283  0.5714 -0.0248 -0.6167
 3774TIP3   OH232956   4.899   0.155   1.500 -0.8579  0.3477  0.2946
 3774TIP3    H132957   4.865   0.122   1.583 -1.7962 -0.6745 -0.4710
 3774TIP3    H232958   4.821   0.180   1.450 -0.2305  2.5680  0.3466
 3775TIP3   OH232959   4.016   4.280   8.177 -0.5097 -0.1644  0.5557
 3775TIP3    H132960   3.955   4.207   8.169 -2.0552  1.0374  0.8049
 3775TIP3    H232961   3.971   4.353   8.135  1.0387  0.6370  0.2115
 3776TIP3   OH232962   0.860   4.128   8.477 -0.1975 -0.3369 -0.0152
 3776TIP3    H132963   0.945   4.100   8.443  0.4424  1.2979  0.1349
 3776TIP3    H232964   0.868   4.117   8.572 -0.3550 -0.6877 -0.0416
 3777TIP3   OH232965   5.794   1.082   1.425  0.3628  0.6548  0.0411
 3777TIP3    H132966   5.849   1.091   1.503 -0.6396 -0.5843  0.9429
 3777TIP3    H232967   5.853   1.048   1.358  0.7051 -0.8071  1.0326
 3778TIP3   OH232968   0.653   1.159   2.217 -0.1457  0.1015  0.2165
 3778TIP3    H132969   0.559   1.139   2.216 -0.1212 -0.2343 -2.7037
 3778TIP3    H232970   0.692   1.089   2.270 -1.4180 -0.3356  0.6137
 3779TIP3   OH232971   3.664   4.054   0.256  0.0132  0.2717  0.5478
 3779TIP3    H132972   3.681   3.966   0.290  0.4760  0.1068 -0.0983
 3779TIP3    H232973   3.705   4.055   0.170 -3.1559 -0.1547 -1.1517
 3780TIP3   OH232974   2.913   6.270   1.822  0.1786  0.3136 -0.0707
 3780TIP3    H132975   2.830   6.247   1.781  1.3572  1.8753 -3.7262
 3780TIP3    H232976   2.901   6.359   1.854  0.8250  1.2372 -2.1994
 3781TIP3   OH232977   1.905   6.447   1.693 -0.4135  0.1248  0.1448
 3781TIP3    H132978   1.892   6.365   1.645 -0.1844  0.9987 -1.4802
 3781TIP3    H232979   1.816   6.477   1.713 -0.6433  0.8486 -1.7394
 3782TIP3   OH232980   1.388   3.090   0.461 -0.2089  0.0245 -0.8863
 3782TIP3    H132981   1.327   3.052   0.397 -1.6273  0.9527 -0.1418
 3782TIP3    H232982   1.448   3.142   0.409 -1.1694  0.5446 -1.5053
 3783TIP3   OH232983   0.574   0.458   0.541  0.2841  0.2641  0.3516
 3783TIP3    H132984   0.610   0.424   0.623  1.1520  0.8165  0.2088
 3783TIP3    H232985   0.490   0.496   0.566  1.7731  3.0103  1.5701
 3784TIP3   OH232986   5.919   5.295   7.324  0.0956 -0.1431  0.1198
 3784TIP3    H132987   5.860   5.304   7.399 -0.7594 -1.9020 -0.2655
 3784TIP3    H232988   5.909   5.376   7.275 -2.1018 -0.3803  0.0567
 3785TIP3   OH232989   6.382   5.142   1.676  0.1363 -0.2315 -0.1959
 3785TIP3    H132990   6.381   5.237   1.674 -1.5419 -0.1682  1.2926
 3785TIP3    H232991   6.294   5.117   1.704  0.7012 -2.2011  0.0161
 3786TIP3   OH232992   5.655   6.447   7.568  0.1981  0.1735  0.1439
 3786TIP3    H132993   5.594   6.375   7.549 -1.0786  1.3483 -0.3359
 3786TIP3    H232994   5.742   6.406   7.562 -0.5134 -1.8758  2.2195
 3787TIP3   OH232995   4.578   2.471   1.530 -0.0325  0.4494  0.1597
 3787TIP3    H132996   4.589   2.551   1.581 -1.5325  1.1503 -0.5656
 3787TIP3    H232997   4.581   2.400   1.594  1.8659  1.0155  0.7529
 3788TIP3   OH232998   2.446   3.588   0.754 -0.6782  0.2926  0.1545
 3788TIP3    H132999   2.523   3.549   0.795 -0.5318 -0.7315 -1.0337
 3788TIP3    H233000   2.373   3.562   0.810 -0.0957  2.2653  1.9755
 3789TIP3   OH233001   2.787   1.044   0.529 -0.0940 -0.2361 -0.1925
 3789TIP3    H133002   2.758   1.108   0.593  2.1337  0.6093  0.0734
 3789TIP3    H233003   2.803   1.096   0.449 -0.1006 -0.7819 -0.5547
 3790TIP3   OH233004   6.301   3.593   0.812  0.1697  0.3844  0.1447
 3790TIP3    H133005   6.265   3.592   0.723 -0.3579  1.2963  0.3348
 3790TIP3    H233006   6.305   3.500   0.837  0.8993  0.0793 -1.0478
 3791TIP3   OH233007   4.547   0.385   7.989  0.1412 -0.6798 -0.4836
 3791TIP3    H133008   4.558   0.303   7.942  0.7708 -2.0730  1.9192
 3791TIP3    H233009   4.504   0.360   8.071  1.8475  1.1039  1.0626
 3792TIP3   OH233010   2.350   0.445   1.818 -0.1965 -0.3829 -0.2925
 3792TIP3    H133011   2.311   0.518   1.866 -1.7155 -0.9774 -0.5710
 3792TIP3    H233012   2.422   0.416   1.874  0.2758  1.1422 -0.0640
 3793TIP3   OH233013   2.713   3.939   1.920  0.5811 -0.1634  0.0460
 3793TIP3    H133014   2.774   4.012   1.930  0.4711 -0.3067  2.6823
 3793TIP3    H233015   2.740   3.877   1.988 -1.8088 -0.7003  0.5948
 3794TIP3   OH233016   5.540   1.730   1.187 -0.6836  0.2293 -0.2290
 3794TIP3    H133017   5.484   1.771   1.252 -0.0863  1.8696 -0.7022
 3794TIP3    H233018   5.480   1.694   1.122 -1.3203 -1.8841  1.3871
 3795TIP3   OH233019   4.424   2.723   1.694 -0.0668  0.3225  0.3281
 3795TIP3    H133020   4.476   2.700   1.771 -1.1225 -0.4493  0.8363
 3795TIP3    H233021   4.338   2.685   1.711 -0.3722  0.2795 -1.1554
 3796TIP3   OH233022   4.008   1.038   8.691  0.2812 -0.3123 -0.6024
 3796TIP3    H133023   4.036   0.982   8.619  0.2795  0.5630 -1.2945
 3796TIP3    H233024   4.080   1.100   8.703  0.6853 -0.9903  0.7541
 3797TIP3   OH233025   5.299   2.018   0.816 -0.6568  0.2864  0.1824
 3797TIP3    H133026   5.229   2.002   0.752 -1.7839  1.4487  1.0667
 3797TIP3    H233027   5.299   2.113   0.829  0.4046  0.1994  0.9539
 3798TIP3   OH233028   0.091   1.475   2.570 -0.6764  0.2102 -0.1679
 3798TIP3    H133029   0.121   1.565   2.576  0.9260 -0.2517 -0.8822
 3798TIP3    H233030   0.085   1.446   2.661  0.1450  0.6083  0.0195
 3799TIP3   OH233031   1.084   0.932   7.090  0.4962 -0.2654 -0.0071
 3799TIP3    H133032   0.988   0.940   7.094  0.4934 -0.7856  1.6239
 3799TIP3    H233033   1.101   0.898   7.002 -0.9109 -1.0843 -0.0033
 3800TIP3   OH233034   5.096   1.102   1.048 -0.3327 -0.3510 -0.1636
 3800TIP3    H133035   5.171   1.149   1.012 -0.2566 -0.8891 -0.7408
 3800TIP3    H233036   5.030   1.106   0.978 -0.8656  0.1658  0.3573
 3801TIP3   OH233037   4.256   5.696   0.646  0.5129  0.8119  0.2885
 3801TIP3    H133038   4.291   5.646   0.719 -0.5919 -0.9591 -0.3387
 3801TIP3    H233039   4.275   5.787   0.668  0.7275  0.2848  2.4953
 3802TIP3   OH233040   5.165   0.723   2.590  0.2043  0.1058 -0.1374
 3802TIP3    H133041   5.261   0.732   2.588  0.2522 -0.5087 -0.6199
 3802TIP3    H233042   5.150   0.629   2.600 -0.3199  0.4219  3.3219
 3803TIP3   OH233043   6.164   0.037   0.782 -0.5377 -0.0592  0.0292
 3803TIP3    H133044   6.202   0.075   0.703  0.8336 -1.2951  0.0557
 3803TIP3    H233045   6.084  -0.008   0.752 -1.0060  0.9911 -0.3310
 3804TIP3   OH233046   5.348   0.429   8.124 -0.4870  0.4306 -0.4451
 3804TIP3    H133047   5.291   0.499   8.156 -1.3465 -0.1670 -0.6248
 3804TIP3    H233048   5.433   0.447   8.164 -0.8143  1.3002 -0.1096
 3805TIP3   OH233049   3.433   1.046   0.576  0.8375  0.4598 -0.0186
 3805TIP3    H133050   3.358   1.068   0.521  0.7622  1.7540  0.5485
 3805TIP3    H233051   3.427   0.951   0.588  1.1576  0.0455 -2.6234
 3806TIP3   OH233052   6.496   4.353   7.344  0.1546  0.8102  0.0478
 3806TIP3    H133053   6.588   4.368   7.319  0.9441 -1.5027  1.2292
 3806TIP3    H233054   6.495   4.362   7.439 -0.0487 -2.1933  0.4441
 3807TIP3   OH233055   0.031   5.672   0.543  0.5069  0.0450 -0.1991
 3807TIP3    H133056   0.096   5.634   0.603  0.1567 -0.0436  0.1321
 3807TIP3    H233057  -0.051   5.627   0.566  0.3435  0.1089 -0.6568
 3808TIP3   OH233058   4.309   6.368   1.537 -0.3021 -0.1597  0.0325
 3808TIP3    H133059   4.285   6.395   1.625 -0.3493 -0.1236  0.0082
 3808TIP3    H233060   4.226   6.351   1.492 -0.3354  0.8501 -0.3338
 3809TIP3   OH233061   4.907   1.178   8.688  0.3307  0.1287  0.1365
 3809TIP3    H133062   4.848   1.116   8.646 -1.3211  1.8193 -0.1455
 3809TIP3    H233063   4.927   1.243   8.621  0.0238  1.2565  1.1076
 3810TIP3   OH233064   4.725   0.790   1.982  0.1049  0.3196 -0.2194
 3810TIP3    H133065   4.744   0.697   1.974 -1.4887 -0.0178 -0.4596
 3810TIP3    H233066   4.732   0.808   2.076 -1.1255 -0.4267  0.0359
 3811TIP3   OH233067   0.901   2.096   0.905 -0.1247 -0.2607  0.5988
 3811TIP3    H133068   0.891   2.187   0.932  0.8276  0.0351 -0.0051
 3811TIP3    H233069   0.996   2.081   0.904 -0.2275 -0.9773 -0.1969
 3812TIP3   OH233070   1.764   3.377   0.541 -0.1482  0.4027 -0.4118
 3812TIP3    H133071   1.811   3.442   0.593  1.2963 -1.5879  0.8996
 3812TIP3    H233072   1.741   3.308   0.603  1.2441 -1.8585 -2.2428
 3813TIP3   OH233073   0.684   3.192   7.890  0.3513  0.3620  0.0096
 3813TIP3    H133074   0.654   3.181   7.980 -1.3304 -0.8211 -0.6246
 3813TIP3    H233075   0.656   3.111   7.846 -0.8834  1.8226 -2.0695
 3814TIP3   OH233076   1.290   4.128   8.572 -0.2257 -0.3131 -0.4956
 3814TIP3    H133077   1.361   4.066   8.559 -0.0256 -0.3403  0.6641
 3814TIP3    H233078   1.235   4.088   8.640  0.4698  1.2246  1.0485
 3815TIP3   OH233079   1.520   5.746   8.304  0.2219 -0.2378  0.4359
 3815TIP3    H133080   1.561   5.743   8.391 -0.4431  0.8394  0.8014
 3815TIP3    H233081   1.428   5.725   8.321 -0.2261  1.4589  0.2164
 3816TIP3   OH233082   4.804   3.824   8.101  0.4044  0.7022 -0.1890
 3816TIP3    H133083   4.835   3.815   8.011  1.6858 -0.6620  0.3462
 3816TIP3    H233084   4.860   3.766   8.152  0.2048  2.0014  1.6235
 3817TIP3   OH233085   2.704   3.792   0.930  0.4767  0.2582 -0.2039
 3817TIP3    H133086   2.755   3.728   0.979  0.2787 -0.6784 -1.1863
 3817TIP3    H233087   2.625   3.806   0.983  0.6797 -0.0547  0.1842
 3818TIP3   OH233088   0.041   2.705   2.145  0.7839  0.0999 -0.2865
 3818TIP3    H133089  -0.034   2.750   2.184  0.8002 -0.1855  0.0823
 3818TIP3    H233090   0.011   2.678   2.058  0.5525  0.2291 -0.2459
 3819TIP3   OH233091   4.083   4.628   8.546  0.8172 -0.3258 -0.0537
 3819TIP3    H133092   4.155   4.668   8.497 -0.2480 -1.2674 -2.5844
 3819TIP3    H233093   4.004   4.661   8.502 -0.2248 -1.1674  1.1212
 3820TIP3   OH233094   0.780   2.835   1.263 -0.1117 -0.0722 -0.2605
 3820TIP3    H133095   0.799   2.917   1.217  0.9311 -0.2444 -0.1716
 3820TIP3    H233096   0.752   2.862   1.350 -0.6177  0.2087 -0.5034
 3821TIP3   OH233097   4.246   1.513   8.246 -0.6508 -0.0608 -0.0853
 3821TIP3    H133098   4.211   1.427   8.268 -1.1243  0.4673  1.2900
 3821TIP3    H233099   4.207   1.572   8.310 -0.0301  1.1260 -0.7697
 3822TIP3   OH233100   1.333   3.600   2.982  0.1365 -0.1003  0.2301
 3822TIP3    H133101   1.356   3.550   2.904 -2.1883 -0.1989 -0.4793
 3822TIP3    H233102   1.359   3.545   3.055  2.6654  0.1300 -0.4101
 3823TIP3   OH233103   5.129   6.717   2.164  0.0740 -0.8553 -0.3985
 3823TIP3    H133104   5.053   6.771   2.183  1.6804  0.8055  1.8520
 3823TIP3    H233105   5.139   6.661   2.241  0.1276 -2.3685 -1.4525
 3824TIP3   OH233106   3.403   6.771   7.295 -1.0109 -0.8110  0.2531
 3824TIP3    H133107   3.463   6.736   7.361  1.7370  3.3405  0.3690
 3824TIP3    H233108   3.426   6.725   7.215  1.6630 -0.1779  0.5601
 3825TIP3   OH233109   0.768   4.306   8.885 -0.2303  0.0345  0.5197
 3825TIP3    H133110   0.735   4.243   8.820  0.4873  0.7411 -0.5760
 3825TIP3    H233111   0.822   4.253   8.944  0.6063 -0.3709 -0.5553
 3826TIP3   OH233112   5.433   1.117   6.770  0.1096  0.3893  0.4397
 3826TIP3    H133113   5.373   1.063   6.718  2.0406 -0.2820 -1.2382
 3826TIP3    H233114   5.495   1.152   6.707  1.5903  0.9251  2.0990
 3827TIP3   OH233115   3.829   3.526   8.014 -0.3221  0.8596 -0.7827
 3827TIP3    H133116   3.863   3.601   7.965  0.6066  1.3332  0.5505
 3827TIP3    H233117   3.836   3.452   7.953  0.8862  1.4224 -1.3373
 3828TIP3   OH233118   0.204   0.217   8.017 -0.0339  0.1397  0.1421
 3828TIP3    H133119   0.117   0.244   7.986  0.3029  0.9194 -0.1646
 3828TIP3    H233120   0.259   0.223   7.939  0.2798 -0.4662  0.3090
 3829TIP3   OH233121   5.371   5.952   6.964 -0.1097 -0.5797  0.4569
 3829TIP3    H133122   5.463   5.941   6.942  0.4266  0.1031  2.1650
 3829TIP3    H233123   5.325   5.944   6.881  1.6315  0.8442 -0.7067
 3830TIP3   OH233124   6.106   0.025   2.505 -1.0823 -0.0146 -0.3536
 3830TIP3    H133125   6.159   0.063   2.576 -0.7558 -2.3646  0.7774
 3830TIP3    H233126   6.161   0.033   2.427 -0.1020 -0.1434  0.2986
 3831TIP3   OH233127   3.168   0.855   2.250 -0.5203  0.7314  0.7897
 3831TIP3    H133128   3.244   0.866   2.307  0.8272  1.3579 -1.0184
 3831TIP3    H233129   3.148   0.761   2.253  0.8307  0.4302  0.6860
 3832TIP3   OH233130   0.257   3.182   7.646  0.4202  0.2005 -0.7500
 3832TIP3    H133131   0.185   3.206   7.587  0.2463  1.3277 -0.1206
 3832TIP3    H233132   0.217   3.183   7.733  0.6989 -1.3270 -0.5892
 3833TIP3   OH233133   3.360   4.191   8.355  0.1340  0.4083 -0.0713
 3833TIP3    H133134   3.284   4.144   8.322  1.8243 -2.4641 -0.2283
 3833TIP3    H233135   3.349   4.192   8.450 -0.0979 -0.0541 -0.0906
 3834TIP3   OH233136   3.365   6.400   0.333  0.1538  0.4400 -0.1436
 3834TIP3    H133137   3.387   6.468   0.268  0.6277  0.6118  0.1940
 3834TIP3    H233138   3.404   6.432   0.414 -0.2994  0.1421  0.1916
 3835TIP3   OH233139   6.131   5.143   0.497 -0.0266 -0.1594  0.3693
 3835TIP3    H133140   6.175   5.074   0.548 -0.8813 -1.0616 -0.0743
 3835TIP3    H233141   6.122   5.216   0.559  0.1070 -0.7641  1.1237
 3836TIP3   OH233142   5.995   0.854   0.629 -0.0504  0.2204  0.0616
 3836TIP3    H133143   5.968   0.817   0.545  0.5684  0.8604 -0.4269
 3836TIP3    H233144   6.073   0.804   0.654 -1.0828 -0.9786  1.0032
 3837TIP3   OH233145   0.148   0.180   8.753  0.2506  0.4146 -0.6661
 3837TIP3    H133146   0.118   0.255   8.701  1.1556  0.5157 -1.0684
 3837TIP3    H233147   0.239   0.201   8.776  0.7885 -0.8965 -1.4537
 3838TIP3   OH233148   2.086   6.748   0.971  0.3778  0.7530  0.3561
 3838TIP3    H133149   2.140   6.795   0.907  0.1121 -0.3475 -0.7084
 3838TIP3    H233150   2.136   6.669   0.991  1.4117  1.9643  3.0732
 3839TIP3   OH233151   4.505   0.544   0.508  0.1625  0.3357 -0.2448
 3839TIP3    H133152   4.578   0.542   0.571  0.5553  2.6955 -0.5427
 3839TIP3    H233153   4.447   0.612   0.541 -0.1266  0.9145 -1.8778
 3840TIP3   OH233154   4.949   6.765   8.667  0.8062 -0.1967  0.1919
 3840TIP3    H133155   4.989   6.811   8.593 -0.4404  1.0097  0.2443
 3840TIP3    H233156   5.024   6.735   8.719  1.6718  0.5022 -0.6108
 3841TIP3   OH233157   3.740   5.565   2.635  0.9636  0.5737 -0.0230
 3841TIP3    H133158   3.714   5.546   2.545 -1.0630  1.3204  0.3759
 3841TIP3    H233159   3.759   5.479   2.672  0.4138  0.1272 -0.7423
 3842TIP3   OH233160   6.365   5.255   1.243  0.6623 -0.6083 -0.1212
 3842TIP3    H133161   6.449   5.222   1.275  0.3791 -1.9744 -0.7059
 3842TIP3    H233162   6.378   5.262   1.148 -0.2777 -2.1277 -0.3897
 3843TIP3   OH233163   1.914   0.576   0.057 -0.2696 -0.7283 -0.6696
 3843TIP3    H133164   1.909   0.607   0.148 -1.2443 -0.1460 -0.9093
 3843TIP3    H233165   1.928   0.482   0.064 -1.7653 -0.9141  0.0978
 3844TIP3   OH233166   4.726   0.850   1.372  0.2594 -0.5249  0.0787
 3844TIP3    H133167   4.683   0.765   1.385  0.5531 -0.5945  0.6306
 3844TIP3    H233168   4.799   0.850   1.434  0.5293 -0.0471 -0.2306
 3845TIP3   OH233169   2.917   4.615   0.185 -0.5113 -0.9971  0.0323
 3845TIP3    H133170   2.837   4.622   0.238  0.0542 -0.7842  0.8785
 3845TIP3    H233171   2.888   4.574   0.103 -1.7829  0.4969 -0.3205
 3846TIP3   OH233172   6.040   3.747   7.940  0.2730 -0.0557  0.4579
 3846TIP3    H133173   5.978   3.705   7.998  0.4351 -0.4934  0.3155
 3846TIP3    H233174   5.988   3.813   7.893  0.3535  1.0143  1.8225
 3847TIP3   OH233175   0.801   3.283   1.765 -0.7884 -0.2841 -0.1130
 3847TIP3    H133176   0.764   3.200   1.797 -1.2263 -0.7274 -1.6309
 3847TIP3    H233177   0.801   3.273   1.669  1.1469  0.6338 -0.2559
 3848TIP3   OH233178   1.380   4.082   2.010 -0.1279 -0.0023  0.2618
 3848TIP3    H133179   1.416   4.162   1.972  1.4981 -0.1027  1.4921
 3848TIP3    H233180   1.379   4.019   1.938  0.1787  0.6290 -0.2986
 3849TIP3   OH233181   4.549   6.531   7.796 -0.1126  0.6248 -0.1137
 3849TIP3    H133182   4.472   6.562   7.748 -0.2816  0.4650  0.0516
 3849TIP3    H233183   4.527   6.543   7.888 -0.8892 -1.5540  0.0401
 3850TIP3   OH233184   2.790   4.474   7.880  0.2655  0.8140  0.1165
 3850TIP3    H133185   2.753   4.474   7.792 -0.4187 -0.4449  0.3906
 3850TIP3    H233186   2.876   4.434   7.870 -0.9309 -2.0844  0.4092
 3851TIP3   OH233187   3.128   5.104   0.874 -0.1175  0.3482 -0.4672
 3851TIP3    H133188   3.143   5.171   0.941  0.8926 -0.1860 -0.1302
 3851TIP3    H233189   3.197   5.039   0.890 -1.3155 -0.9827 -0.5353
 3852TIP3   OH233190   0.071   2.002   7.097 -0.4490  0.4387  0.0497
 3852TIP3    H133191   0.150   1.999   7.150 -0.0131  3.5272 -0.2604
 3852TIP3    H233192   0.000   1.980   7.159  0.4276 -0.3428  0.8094
 3853TIP3   OH233193   3.866   6.546   7.590  0.1373 -0.2702  0.2597
 3853TIP3    H133194   3.947   6.590   7.563  0.7385 -0.1286  2.1165
 3853TIP3    H233195   3.827   6.516   7.509  1.7251  0.2484 -0.7503
 3854TIP3   OH233196   6.084   1.728   1.177  0.2257  0.4060 -0.2118
 3854TIP3    H133197   6.140   1.804   1.189  1.3518 -0.6152  1.3790
 3854TIP3    H233198   6.017   1.737   1.245  0.6023 -0.1979  0.2538
 3855TIP3   OH233199   3.582   1.316   2.773 -0.2091 -0.7034 -0.4391
 3855TIP3    H133200   3.621   1.304   2.860 -0.1981  2.9386  0.2285
 3855TIP3    H233201   3.654   1.347   2.718 -0.7481 -0.4545 -1.0126
 3856TIP3   OH233202   6.582   6.329   2.170 -1.0159 -0.0098  0.0457
 3856TIP3    H133203   6.559   6.337   2.263 -1.9215 -2.3020  0.0990
 3856TIP3    H233204   6.523   6.261   2.137  0.0237 -0.0124 -1.9565
 3857TIP3   OH233205   6.507   2.716   2.232 -0.0975 -0.2675 -0.2820
 3857TIP3    H133206   6.468   2.736   2.147  1.3013 -0.0824 -0.9076
 3857TIP3    H233207   6.510   2.801   2.276 -0.7284 -0.3460 -0.0735
 3858TIP3   OH233208   6.711   2.601   2.692  0.1448 -0.0406  0.1506
 3858TIP3    H133209   6.669   2.530   2.741 -1.7040  0.7424 -0.2147
 3858TIP3    H233210   6.761   2.650   2.757 -1.7359  0.5970  1.1951
 3859TIP3   OH233211   4.232   6.427   8.924 -0.1113 -0.7171  0.1120
 3859TIP3    H133212   4.287   6.418   8.846  1.4225  0.0340  1.0609
 3859TIP3    H233213   4.278   6.378   8.992  0.6343  1.7850  1.5194
 3860TIP3   OH233214   0.285   4.361   2.162 -0.2596  0.3815 -0.2040
 3860TIP3    H133215   0.284   4.287   2.101  0.3895  0.7904 -0.7251
 3860TIP3    H233216   0.194   4.390   2.167 -0.8706 -1.5559  1.4032
 3861TIP3   OH233217   5.087   1.502   8.118 -0.1433  0.5493  0.6585
 3861TIP3    H133218   5.017   1.443   8.145 -0.7275  1.1893  0.5705
 3861TIP3    H233219   5.103   1.556   8.195  1.3978 -0.6456  1.2345
 3862TIP3   OH233220   0.159   6.056   2.610  0.7234  0.0244  0.4979
 3862TIP3    H133221   0.068   6.073   2.634  0.5782  1.0148 -0.6221
 3862TIP3    H233222   0.181   6.126   2.548  0.6581 -2.8554 -3.1151
 3863TIP3   OH233223   6.519   5.311   1.029  0.1616  0.4633  0.1012
 3863TIP3    H133224   6.479   5.385   0.984  0.5697 -0.2189 -1.4335
 3863TIP3    H233225   6.613   5.323   1.016  0.2370 -0.2922 -0.1116
 3864TIP3   OH233226   2.199   5.465   8.388 -0.1191 -0.7901  0.0503
 3864TIP3    H133227   2.107   5.489   8.391  0.1853  0.4025  0.7383
 3864TIP3    H233228   2.201   5.372   8.408 -1.1186 -0.6387  0.9551
 3865TIP3   OH233229   0.266   6.562   7.067 -0.3930 -0.8673  0.4482
 3865TIP3    H133230   0.243   6.656   7.064 -0.4101 -0.8882 -0.2850
 3865TIP3    H233231   0.182   6.518   7.077 -0.4328 -0.8279  0.2880
 3866TIP3   OH233232   4.955   5.493   2.980  0.6584  0.0116  0.3600
 3866TIP3    H133233   4.952   5.587   2.999 -1.1010  0.4229 -1.5606
 3866TIP3    H233234   4.940   5.488   2.885 -0.9394 -2.2504  0.6649
 3867TIP3   OH233235   6.614   2.233   1.992  0.1286  0.0151 -0.1744
 3867TIP3    H133236   6.668   2.180   2.051  2.5954  2.1248 -0.3686
 3867TIP3    H233237   6.607   2.317   2.036 -0.0204  0.8756 -1.8004
 3868TIP3   OH233238   6.645   5.240   1.603  0.3033 -0.5170 -0.5807
 3868TIP3    H133239   6.572   5.287   1.644  0.9583  0.2723 -0.2887
 3868TIP3    H233240   6.719   5.252   1.664  1.2112  0.3887 -1.8224
 3869TIP3   OH233241   2.941   3.295   0.389 -0.3844  0.3603 -0.2964
 3869TIP3    H133242   2.947   3.201   0.402 -1.4398  0.2771 -0.3358
 3869TIP3    H233243   2.865   3.307   0.331 -1.0992  1.3115  0.7907
 3870TIP3   OH233244   6.578   5.080   1.849  0.2214 -0.4055  0.6293
 3870TIP3    H133245   6.505   5.127   1.808  0.1722 -1.0405 -0.0382
 3870TIP3    H233246   6.582   5.114   1.938  0.0188  0.6638  0.2407
 3871TIP3   OH233247   0.540   1.133   8.543 -0.2275 -0.0123  0.0548
 3871TIP3    H133248   0.465   1.096   8.590  0.1015 -0.2688  0.3798
 3871TIP3    H233249   0.559   1.215   8.588 -1.4076  0.9490 -1.1002
 3872TIP3   OH233250   1.502   1.258   0.827  0.1963 -0.0327  0.5281
 3872TIP3    H133251   1.488   1.248   0.733 -0.3377 -1.6242  0.7425
 3872TIP3    H233252   1.593   1.234   0.841  0.5519  1.1485  0.3103
 3873TIP3   OH233253   2.156   0.403   7.894  0.0960  0.0450  0.3424
 3873TIP3    H133254   2.216   0.333   7.921 -0.3428 -0.0920  0.9950
 3873TIP3    H233255   2.071   0.375   7.927  0.2046  1.7153  2.1968
 3874TIP3   OH233256   4.785   6.608   7.643  0.0451 -0.5520 -0.1269
 3874TIP3    H133257   4.861   6.551   7.632 -0.9121 -1.8478 -0.2821
 3874TIP3    H233258   4.716   6.550   7.674 -2.0236 -0.3010 -3.7255
 3875TIP3   OH233259   6.018   6.753   1.246 -0.0546  0.5636 -0.2124
 3875TIP3    H133260   5.977   6.797   1.319  1.5435  2.1263 -0.1979
 3875TIP3    H233261   5.945   6.716   1.196 -1.3618  1.9381  0.6026
 3876TIP3   OH233262   0.201   2.280   1.841 -0.4459  0.3175  0.5646
 3876TIP3    H133263   0.182   2.274   1.934 -1.0228  0.7872  0.4845
 3876TIP3    H233264   0.252   2.201   1.822  0.5967  0.7554  1.4801
 3877TIP3   OH233265   5.984   6.619   0.072  0.6697 -0.6752  0.5913
 3877TIP3    H133266   6.011   6.594  -0.016  2.5150  0.2158  0.8515
 3877TIP3    H233267   5.952   6.539   0.112  0.9510 -1.3386 -0.4874
 3878TIP3   OH233268   6.020   0.975   0.004 -0.1126  0.2133 -0.5839
 3878TIP3    H133269   6.101   0.973   0.055  0.7472  0.3470 -1.8855
 3878TIP3    H233270   6.028   1.053  -0.051 -1.3642  0.5045 -0.3907
 3879TIP3   OH233271   4.264   3.176   1.975  0.5690  0.1822  0.1400
 3879TIP3    H133272   4.184   3.136   1.942  0.7031  0.7810 -0.9537
 3879TIP3    H233273   4.271   3.144   2.065 -0.4034 -0.6043 -0.0414
 3880TIP3   OH233274   5.560   4.083   8.932  0.1948 -0.5860  0.2366
 3880TIP3    H133275   5.582   4.095   8.839  0.5335  0.9943  0.4777
 3880TIP3    H233276   5.534   4.171   8.961 -3.9773 -1.7844  0.6635
 3881TIP3   OH233277   3.898   1.736   1.778 -0.3802 -0.3096 -0.3400
 3881TIP3    H133278   3.916   1.820   1.736 -0.2975  0.8779  1.9000
 3881TIP3    H233279   3.956   1.674   1.734  1.8131  1.4334 -0.1056
 3882TIP3   OH233280   5.764   1.508   0.522  0.0868  0.5811  0.1272
 3882TIP3    H133281   5.672   1.530   0.536 -0.1761 -0.7810  0.7339
 3882TIP3    H233282   5.811   1.553   0.593 -0.1757  0.8877  0.1064
 3883TIP3   OH233283   3.621   1.823   8.061 -0.2356  0.4463 -0.1806
 3883TIP3    H133284   3.542   1.857   8.019  0.2243  2.5519  0.5451
 3883TIP3    H233285   3.686   1.892   8.049  2.2019 -2.0318 -2.5091
 3884TIP3   OH233286   6.557   2.728   8.177  0.2693  0.3606  0.6047
 3884TIP3    H133287   6.549   2.666   8.104  0.4596 -2.4932  2.8156
 3884TIP3    H233288   6.469   2.729   8.217  0.9405 -0.7544  2.2184
 3885TIP3   OH233289   4.196   3.291   7.165  0.1761  0.3100  0.0867
 3885TIP3    H133290   4.144   3.227   7.117 -0.1451  0.0549  0.7643
 3885TIP3    H233291   4.194   3.370   7.110  0.6811 -0.2948 -0.8093
 3886TIP3   OH233292   6.110   4.034   0.543  0.8161 -0.1108 -0.4561
 3886TIP3    H133293   6.038   4.096   0.555  0.2034 -0.5595 -1.6783
 3886TIP3    H233294   6.115   3.985   0.626  2.2511  2.4611  1.1355
 3887TIP3   OH233295   4.612   5.798   1.870 -0.4249  0.1861  0.0644
 3887TIP3    H133296   4.660   5.857   1.812  0.9715 -2.7035 -1.9875
 3887TIP3    H233297   4.529   5.842   1.886 -0.0724  2.0197 -2.5927
 3888TIP3   OH233298   5.616   2.706   0.114  0.2469  0.3535  0.5258
 3888TIP3    H133299   5.695   2.729   0.163  0.3361 -2.6117  1.9959
 3888TIP3    H233300   5.648   2.684   0.026  0.6961  1.4438  0.4010
 3889TIP3   OH233301   1.928   6.500   0.804  0.5361 -0.7396  0.1559
 3889TIP3    H133302   1.878   6.505   0.886 -1.6377 -1.2070 -1.0590
 3889TIP3    H233303   2.018   6.519   0.830 -0.3222  0.7240  2.4003
 3890TIP3   OH233304   0.357   0.854   8.574 -0.5857 -0.2720 -0.0661
 3890TIP3    H133305   0.301   0.823   8.503 -0.3716  2.3491 -1.5040
 3890TIP3    H233306   0.314   0.933   8.605  0.7191  0.0813  0.9175
 3891TIP3   OH233307   4.175   1.649   8.846 -0.1628 -0.1267 -0.5920
 3891TIP3    H133308   4.187   1.663   8.940  1.1773 -0.3676 -0.7058
 3891TIP3    H233309   4.086   1.615   8.837 -1.0611  1.8139  0.3720
 3892TIP3   OH233310   0.604   0.386   0.268 -0.4953  0.4737 -0.3510
 3892TIP3    H133311   0.512   0.404   0.249 -1.2522 -1.1805  1.4437
 3892TIP3    H233312   0.615   0.410   0.360  0.5685 -0.3618 -0.2423
 3893TIP3   OH233313   0.157   6.542   8.399 -0.1648 -0.1443 -0.0645
 3893TIP3    H133314   0.176   6.614   8.459  1.7554 -0.2342 -0.4942
 3893TIP3    H233315   0.183   6.463   8.446  2.8643 -0.1156 -1.4230
 3894TIP3   OH233316   0.262   3.165   8.815 -0.3827  0.1985  0.4761
 3894TIP3    H133317   0.301   3.253   8.818  0.8432 -0.1333 -2.1275
 3894TIP3    H233318   0.337   3.106   8.817 -0.9405 -0.6165 -1.0521
 3895TIP3   OH233319   5.994   6.467   2.039  0.2320 -0.0730  0.0430
 3895TIP3    H133320   6.045   6.510   2.108  1.3697 -0.5135 -0.4893
 3895TIP3    H233321   5.946   6.539   1.998 -0.7236  0.1487  1.4748
 3896TIP3   OH233322   0.613   6.595   8.888  0.4780  0.4353 -0.0625
 3896TIP3    H133323   0.562   6.527   8.845 -0.6203  0.7000  0.7647
 3896TIP3    H233324   0.698   6.593   8.845 -0.3612  0.2602 -1.7703
 3897TIP3   OH233325   2.909   4.135   0.473  0.5466 -0.4116  0.1255
 3897TIP3    H133326   2.834   4.137   0.413  0.2562 -1.6222  0.4241
 3897TIP3    H233327   2.954   4.218   0.457 -0.5170  0.0754 -0.4912
 3898TIP3   OH233328   0.969   5.772   0.695 -0.1278 -0.2251 -0.2653
 3898TIP3    H133329   1.015   5.730   0.768 -0.9096  0.0548  0.4088
 3898TIP3    H233330   1.017   5.744   0.617  2.0702  1.2005  0.4848
 3899TIP3   OH233331   0.373   2.164   0.991  0.2324 -0.1875  0.0682
 3899TIP3    H133332   0.414   2.195   1.072  0.8794 -0.5538 -0.1095
 3899TIP3    H233333   0.412   2.218   0.922 -0.5053  0.2960  0.0179
 3900TIP3   OH233334   6.670   6.702   1.250  0.3588 -0.4867  0.4267
 3900TIP3    H133335   6.577   6.693   1.272  0.7025 -0.7516  1.8653
 3900TIP3    H233336   6.686   6.796   1.252 -0.2393 -0.3041 -1.5174
 3901TIP3   OH233337   1.821   0.986   8.163  1.2383 -0.0913 -0.3195
 3901TIP3    H133338   1.896   0.977   8.222  0.6443  1.0568  0.6314
 3901TIP3    H233339   1.859   0.979   8.075  2.6775  1.8213  0.1002
 3902TIP3   OH233340   2.248   4.922   8.367  0.1595  0.6281  0.3698
 3902TIP3    H133341   2.262   4.867   8.444 -0.7883  1.1156  0.8977
 3902TIP3    H233342   2.234   5.010   8.401 -1.4520  0.6479 -0.2627
 3903TIP3   OH233343   6.164   6.169   0.126 -0.1526 -0.2331  0.5420
 3903TIP3    H133344   6.248   6.136   0.093 -0.3093 -0.0302 -0.0546
 3903TIP3    H233345   6.117   6.090   0.154  0.4650 -0.3073  1.4478
 3904TIP3   OH233346   0.173   3.400   1.197 -0.4846 -0.3033 -0.5235
 3904TIP3    H133347   0.110   3.465   1.166  0.6020 -0.6094 -3.7106
 3904TIP3    H233348   0.259   3.440   1.181  0.2216 -0.7437  1.7544
 3905TIP3   OH233349   1.562   5.698   2.256  0.3327  0.1173 -0.1470
 3905TIP3    H133350   1.484   5.698   2.312 -0.2419 -0.4213 -0.9280
 3905TIP3    H233351   1.594   5.608   2.260  2.1207  0.7516  1.7615
 3906TIP3   OH233352   1.426   1.939   0.149  0.2133 -0.0226  0.0005
 3906TIP3    H133353   1.469   1.884   0.214 -0.5322 -2.6529 -1.5777
 3906TIP3    H233354   1.391   1.878   0.084 -0.1664  2.3600 -2.2442
 3907TIP3   OH233355   3.380   4.603   1.089  0.1197  0.2719  0.1276
 3907TIP3    H133356   3.437   4.668   1.130  1.1085  0.0126 -0.8156
 3907TIP3    H233357   3.304   4.654   1.061  1.3062  1.2446 -1.4730
 3908TIP3   OH233358   3.307   0.153   1.397  0.1762 -0.4085  0.4165
 3908TIP3    H133359   3.331   0.133   1.306 -0.4479  0.9407 -0.0625
 3908TIP3    H233360   3.226   0.104   1.412  1.4106 -2.3989  0.9995
 3909TIP3   OH233361   2.518   5.452   8.274 -0.1501  0.2964 -0.4043
 3909TIP3    H133362   2.576   5.459   8.198 -0.7187 -0.7854 -0.9566
 3909TIP3    H233363   2.533   5.364   8.307 -2.5607 -0.6151 -1.4906
 3910TIP3   OH233364   4.547   2.371   8.099 -0.5291 -0.5108  0.1292
 3910TIP3    H133365   4.468   2.413   8.132 -0.5907 -0.1634 -0.4433
 3910TIP3    H233366   4.600   2.443   8.065 -0.6563 -0.8869 -0.9079
 3911TIP3   OH233367   2.968   1.020   0.758 -0.4503 -0.3762 -0.1041
 3911TIP3    H133368   3.063   1.021   0.747 -0.5084 -0.0166 -0.6644
 3911TIP3    H233369   2.935   0.977   0.679 -0.8899  2.1231 -1.4054
 3912TIP3   OH233370   4.597   4.287   0.918  0.5650 -0.1414 -0.2016
 3912TIP3    H133371   4.505   4.303   0.941 -0.0373  1.0448 -2.9308
 3912TIP3    H233372   4.632   4.374   0.899  1.5570 -0.7680 -1.4112
 3913TIP3   OH233373   3.259   5.792   0.092  0.2786  0.2476  0.1537
 3913TIP3    H133374   3.276   5.815   0.183  2.1780 -0.3599  0.0063
 3913TIP3    H233375   3.276   5.698   0.087 -0.6238  0.1132 -0.6625
 3914TIP3   OH233376   4.300   6.529   7.646  0.4343  0.1981  0.5074
 3914TIP3    H133377   4.279   6.449   7.599  1.5890 -0.2900  0.7936
 3914TIP3    H233378   4.230   6.590   7.622  0.4594 -0.3421 -1.0553
 3915TIP3   OH233379   0.399   5.444   8.258 -0.0590 -0.1103 -0.3389
 3915TIP3    H133380   0.373   5.526   8.217 -1.2138 -1.1590 -1.7850
 3915TIP3    H233381   0.480   5.465   8.304  0.0854  1.6445 -1.3220
 3916TIP3   OH233382   5.124   1.414   7.706 -0.0465 -0.1946  0.5088
 3916TIP3    H133383   5.040   1.374   7.728 -1.0126  1.5724  0.2649
 3916TIP3    H233384   5.174   1.411   7.788 -0.9580  0.1272  1.0972
 3917TIP3   OH233385   6.680   1.089   2.019 -0.3035  0.0701  0.1106
 3917TIP3    H133386   6.644   1.117   1.935  0.5618  2.0348  0.3461
 3917TIP3    H233387   6.640   1.148   2.083 -1.2208 -1.6163  1.1784
 3918TIP3   OH233388   6.334   2.929   2.361  0.3302 -0.1425 -0.3353
 3918TIP3    H133389   6.351   3.009   2.411 -0.4022 -0.3716  0.3074
 3918TIP3    H233390   6.251   2.945   2.317  0.8989 -0.0048 -1.3757
 3919TIP3   OH233391   0.695   3.818   0.037  0.1802  0.3182  0.1199
 3919TIP3    H133392   0.780   3.842   0.075  0.7745 -0.1500 -0.8711
 3919TIP3    H233393   0.632   3.873   0.083  1.1859  1.7532 -0.1268
 3920TIP3   OH233394   3.992   1.076   1.234  0.3758 -0.2525 -0.2315
 3920TIP3    H133395   4.030   1.101   1.150  0.5524 -0.2676 -0.1576
 3920TIP3    H233396   3.947   0.993   1.217  0.9446 -0.5821 -0.1724
 3921TIP3   OH233397   2.410   0.034   2.092  0.0512  0.0430 -0.5652
 3921TIP3    H133398   2.477   0.012   2.157 -0.7873 -1.8354 -0.2621
 3921TIP3    H233399   2.328   0.039   2.142 -0.1890  1.5304 -1.0513
 3922TIP3   OH233400   3.114   0.988   8.739  0.1360 -0.2172 -0.0584
 3922TIP3    H133401   3.144   0.998   8.649 -0.1865  0.2940 -0.1141
 3922TIP3    H233402   3.055   0.913   8.737  0.0654 -0.1561 -0.2897
 3923TIP3   OH233403   2.981   4.184   1.850  0.2334 -0.6158 -0.1990
 3923TIP3    H133404   2.948   4.261   1.805  1.4367  0.3948  0.5894
 3923TIP3    H233405   2.985   4.116   1.783 -0.9359 -0.0373 -0.8803
 3924TIP3   OH233406   1.780   0.580   8.219  0.4331  0.0806 -0.8211
 3924TIP3    H133407   1.715   0.649   8.202  1.0158  0.7077 -0.5187
 3924TIP3    H233408   1.856   0.627   8.253  0.6497 -0.7651 -0.1150
 3925TIP3   OH233409   3.506   2.650   8.492 -0.5823  0.4856 -0.4480
 3925TIP3    H133410   3.437   2.692   8.441 -2.0810  1.3249  2.0741
 3925TIP3    H233411   3.495   2.684   8.581  1.1637 -1.6718  0.7224
 3926TIP3   OH233412   4.544   4.870   8.603  0.1369 -0.0741  0.6375
 3926TIP3    H133413   4.509   4.950   8.566  0.6435  0.1218  0.5702
 3926TIP3    H233414   4.616   4.846   8.545 -0.4303 -0.9465  0.2726
 3927TIP3   OH233415   0.724   3.649   0.685 -0.2032  0.0182 -0.2463
 3927TIP3    H133416   0.743   3.589   0.613  0.0428  0.0418 -0.2044
 3927TIP3    H233417   0.799   3.639   0.744  0.0696  0.7078 -0.4659
 3928TIP3   OH233418   4.901   1.562   8.749  0.4228 -0.4374  0.1028
 3928TIP3    H133419   4.901   1.652   8.718  1.4204 -0.0407  1.2139
 3928TIP3    H233420   4.993   1.541   8.764  0.2354 -1.7533 -0.4189
 3929TIP3   OH233421   5.882   2.435   1.559 -0.0071  0.3847 -0.5791
 3929TIP3    H133422   5.814   2.420   1.494 -0.0475  0.5613 -0.5794
 3929TIP3    H233423   5.856   2.383   1.635 -1.7546  2.7107  0.5689
 3930TIP3   OH233424   1.619   4.669   0.263  0.6577  0.2196 -0.2592
 3930TIP3    H133425   1.676   4.643   0.190  1.8417  0.3224  0.6102
 3930TIP3    H233426   1.536   4.623   0.246  1.7121 -1.7226 -0.3825
 3931TIP3   OH233427   4.536   6.165   2.084 -0.2808  0.0085 -0.3461
 3931TIP3    H133428   4.600   6.193   2.018  0.0914  0.5818  0.2459
 3931TIP3    H233429   4.546   6.228   2.155 -0.0777 -1.0911  0.6342
 3932TIP3   OH233430   3.997   1.991   6.823  0.2549 -0.1983 -0.1899
 3932TIP3    H133431   3.953   2.050   6.761  0.5715 -0.0715 -0.2973
 3932TIP3    H233432   4.090   2.000   6.802  0.6164  1.7074  1.9053
 3933TIP3   OH233433   2.770   6.598   0.945  0.2260 -0.2868 -0.0564
 3933TIP3    H133434   2.728   6.592   1.031 -0.5010 -0.8349 -0.4310
 3933TIP3    H233435   2.744   6.517   0.900  1.4586 -0.5019 -0.4169
 3934TIP3   OH233436   6.069   4.583   2.077  0.1688  0.0096 -0.1205
 3934TIP3    H133437   6.140   4.581   2.012 -0.5494  0.9256 -0.9553
 3934TIP3    H233438   6.072   4.672   2.112 -0.2731 -0.0960  0.1789
 3935TIP3   OH233439   5.351   1.269   8.301 -0.1589 -0.6727 -0.0593
 3935TIP3    H133440   5.377   1.233   8.385  0.3729 -2.0788 -0.7957
 3935TIP3    H233441   5.351   1.364   8.314 -0.2293 -0.8717  1.5468
 3936TIP3   OH233442   5.680   5.928   0.527 -0.4889  0.3497 -0.4235
 3936TIP3    H133443   5.728   5.998   0.571 -0.2054  0.0152 -0.1888
 3936TIP3    H233444   5.738   5.900   0.456 -1.0801  1.1009 -1.2184
 3937TIP3   OH233445   4.039   4.518   0.070  0.1790 -0.8477 -0.2611
 3937TIP3    H133446   4.051   4.434   0.115  1.0797 -0.0587  1.0558
 3937TIP3    H233447   4.128   4.550   0.056 -0.1600  0.4993  0.4917
 3938TIP3   OH233448   4.915   4.886   7.808 -0.1443  0.5942 -0.2844
 3938TIP3    H133449   4.924   4.897   7.714  0.5503 -0.2987 -0.3358
 3938TIP3    H233450   4.825   4.855   7.820 -0.1364  0.4232 -0.6777
 3939TIP3   OH233451   0.484   6.740   7.706  0.0287  0.1261  0.0830
 3939TIP3    H133452   0.493   6.832   7.731 -1.8410 -0.0910  1.8581
 3939TIP3    H233453   0.407   6.738   7.650 -0.8532 -0.4903  1.2568
 3940TIP3   OH233454   3.340   1.724   7.396 -0.0611 -0.1464  0.2845
 3940TIP3    H133455   3.339   1.657   7.328 -1.1691 -1.4123  1.4912
 3940TIP3    H233456   3.248   1.740   7.416  0.2036  1.3171  0.4540
 3941TIP3   OH233457   1.474   1.793   2.086  0.1939  0.2149 -0.1796
 3941TIP3    H133458   1.435   1.867   2.133 -0.6373  0.5965 -1.3948
 3941TIP3    H233459   1.566   1.816   2.077  0.0968  0.7481  0.1216
 3942TIP3   OH233460   4.074   2.697   1.505  0.6143 -1.0293  0.2118
 3942TIP3    H133461   4.080   2.791   1.523  2.4165 -1.1321  0.2824
 3942TIP3    H233462   4.162   2.663   1.520  0.2611 -2.5569 -0.8428
 3943TIP3   OH233463   0.886   3.069   8.354 -0.2274 -0.2143  0.2907
 3943TIP3    H133464   0.848   3.056   8.267 -2.6079  2.8649  0.6921
 3943TIP3    H233465   0.980   3.073   8.338 -0.5277 -0.7319 -1.9817
 3944TIP3   OH233466   2.016   1.704   2.460  0.2846 -0.0121  0.2570
 3944TIP3    H133467   2.031   1.796   2.443 -0.8532 -0.0304 -1.0361
 3944TIP3    H233468   2.103   1.663   2.451  0.6598  0.8125  0.0456
 3945TIP3   OH233469   1.982   2.244   2.307 -0.4615 -1.2977  0.1124
 3945TIP3    H133470   2.019   2.291   2.232  0.5405  0.0220  1.3959
 3945TIP3    H233471   2.058   2.222   2.361 -1.1781 -2.2582  0.7534
 3946TIP3   OH233472   1.413   2.585   2.677  0.3787  0.1504 -0.0821
 3946TIP3    H133473   1.477   2.648   2.709  0.3610  0.2742 -0.2947
 3946TIP3    H233474   1.463   2.529   2.617 -0.2013  1.6223 -2.0105
 3947TIP3   OH233475   2.654   1.458   8.736 -0.0987  0.4419 -0.0221
 3947TIP3    H133476   2.727   1.397   8.749 -0.8684 -0.1204  2.2514
 3947TIP3    H233477   2.601   1.417   8.667 -0.3470 -1.2922  1.1191
 3948TIP3   OH233478   5.125   4.843   0.497 -0.4138 -0.2669 -0.0570
 3948TIP3    H133479   5.047   4.793   0.472 -0.3061 -1.0374  1.0389
 3948TIP3    H233480   5.198   4.785   0.475 -0.1799  0.1851 -0.4780
 3949TIP3   OH233481   1.828   0.909   7.870  0.0964  0.1457  0.2357
 3949TIP3    H133482   1.823   1.004   7.859 -0.5552  0.0992  0.0592
 3949TIP3    H233483   1.755   0.875   7.818  1.2804 -0.5691 -1.0238
 3950TIP3   OH233484   0.112   3.483   0.351  0.2230 -0.3996  0.3795
 3950TIP3    H133485   0.081   3.562   0.306 -3.7823 -0.3153  2.8030
 3950TIP3    H233486   0.073   3.411   0.302 -1.2936 -0.4666  1.6113
 3951TIP3   OH233487   1.992   1.556   7.244 -0.3249 -0.2373  0.4927
 3951TIP3    H133488   1.994   1.573   7.149 -0.1364 -0.9348  0.3646
 3951TIP3    H233489   2.077   1.515   7.263 -0.0570  0.5872  1.1029
 3952TIP3   OH233490   5.953   6.350   0.106  0.2667 -0.2512  0.0162
 3952TIP3    H133491   6.043   6.320   0.094  1.2158  2.7603 -1.3690
 3952TIP3    H233492   5.900   6.270   0.104  2.3803 -1.8529 -4.4489
 3953TIP3   OH233493   2.774   0.483   1.850  0.1852 -0.3195 -0.2063
 3953TIP3    H133494   2.695   0.525   1.884 -0.9349 -0.4302 -2.5061
 3953TIP3    H233495   2.784   0.405   1.904  0.0448  0.8339  1.5664
 3954TIP3   OH233496   3.879   4.866   1.593 -0.2105 -0.2802 -0.4449
 3954TIP3    H133497   3.922   4.921   1.660 -0.0139 -1.5484  0.5030
 3954TIP3    H233498   3.816   4.925   1.552 -0.5713  0.4711  1.0877
 3955TIP3   OH233499   4.545   1.299   0.445 -0.8066 -0.1516  0.0779
 3955TIP3    H133500   4.450   1.307   0.437 -0.6844 -0.0481 -1.7877
 3955TIP3    H233501   4.577   1.388   0.428 -0.3851 -0.0507  1.3248
 3956TIP3   OH233502   2.702   3.837   0.228 -0.6480  0.2008 -1.2671
 3956TIP3    H133503   2.727   3.756   0.273  2.1361  1.6481  0.0642
 3956TIP3    H233504   2.725   3.821   0.136  0.4235 -0.3738 -0.9259
 3957TIP3   OH233505   0.387   1.295   0.091 -0.0219  0.3806 -0.4068
 3957TIP3    H133506   0.313   1.317   0.034 -0.0769  0.0705 -0.4596
 3957TIP3    H233507   0.391   1.199   0.088 -0.3149  0.3358  0.4759
 3958TIP3   OH233508   4.534   1.522   2.090 -0.2341 -0.3188 -0.5933
 3958TIP3    H133509   4.578   1.470   2.157 -1.3045 -0.5510 -0.0438
 3958TIP3    H233510   4.599   1.532   2.021  0.5748 -0.8923  0.0591
 3959TIP3   OH233511   3.327   4.687   0.391  0.5780  0.3743  0.3557
 3959TIP3    H133512   3.401   4.636   0.422 -0.6597 -0.1970  2.5721
 3959TIP3    H233513   3.284   4.630   0.327  0.8734 -0.1520  0.6176
 3960TIP3   OH233514   6.169   0.752   8.134  0.0324 -0.0585  0.5033
 3960TIP3    H133515   6.249   0.794   8.104  1.6954 -1.5204  2.5701
 3960TIP3    H233516   6.099   0.813   8.110  1.7005  1.1660 -1.5549
 3961TIP3   OH233517   5.881   2.289   0.606 -0.5170 -0.2422 -0.1019
 3961TIP3    H133518   5.920   2.346   0.673  0.1398 -1.3669  0.4969
 3961TIP3    H233519   5.897   2.200   0.638 -0.6947 -0.7892 -1.4879
 3962TIP3   OH233520   0.918   2.218   8.716  0.5354  0.0472 -0.5409
 3962TIP3    H133521   0.945   2.136   8.674 -0.4554 -0.3918 -0.3395
 3962TIP3    H233522   0.845   2.249   8.663  2.1746  1.9126 -1.8539
 3963TIP3   OH233523   4.767   3.382   2.825  0.1132  0.2595  0.2882
 3963TIP3    H133524   4.797   3.291   2.823  0.1211  0.2472 -2.0620
 3963TIP3    H233525   4.681   3.379   2.783 -1.1371  0.9904  2.6359
 3964TIP3   OH233526   1.458   3.803   7.402  0.4172  0.1818  0.0658
 3964TIP3    H133527   1.416   3.823   7.318  0.1101 -0.6665  0.0077
 3964TIP3    H233528   1.477   3.709   7.397  1.8204  0.4257  0.3184
 3965TIP3   OH233529   0.361   1.384   7.636  0.2732 -0.0403 -0.4641
 3965TIP3    H133530   0.349   1.479   7.648 -0.9855 -0.3981  1.5085
 3965TIP3    H233531   0.290   1.359   7.577 -0.2724  0.0526  0.1366
 3966TIP3   OH233532   3.873   6.101   0.823  0.2277 -0.2721 -0.2277
 3966TIP3    H133533   3.818   6.083   0.747 -2.1527  0.9635  1.0878
 3966TIP3    H233534   3.873   6.019   0.872 -0.0657 -0.4239 -0.4788
 3967TIP3   OH233535   3.505   6.569   1.181 -0.3291  0.7193 -0.0363
 3967TIP3    H133536   3.533   6.614   1.101  0.4290 -0.1822 -0.2978
 3967TIP3    H233537   3.578   6.512   1.204 -1.4099 -0.7183  0.0120
 3968TIP3   OH233538   5.670   1.514   8.415  0.3530  0.4164  0.1464
 3968TIP3    H133539   5.585   1.553   8.434  0.5123  0.6536  0.3691
 3968TIP3    H233540   5.691   1.462   8.493 -0.1193 -0.5762 -0.3684
 3969TIP3   OH233541   3.954   2.992   2.349 -0.2058 -0.5073  0.5129
 3969TIP3    H133542   4.025   3.009   2.412  0.0428  0.0116  0.1019
 3969TIP3    H233543   3.964   2.900   2.326 -0.5830 -0.8363  1.5757
 3970TIP3   OH233544   3.794   5.056   1.395  0.6446 -0.2046  0.1871
 3970TIP3    H133545   3.703   5.026   1.386  0.8601 -0.6559 -0.6059
 3970TIP3    H233546   3.793   5.147   1.365  0.2546  0.1573  1.2469
 3971TIP3   OH233547   2.330   3.705   8.801  0.0355 -0.5082 -0.0094
 3971TIP3    H133548   2.311   3.727   8.892 -0.4771 -0.5729 -0.1002
 3971TIP3    H233549   2.410   3.754   8.781 -0.3840  0.2840  0.1821
 3972TIP3   OH233550   1.709   5.191   0.985  0.2258 -0.8454 -0.0487
 3972TIP3    H133551   1.704   5.238   1.068  0.4828 -0.2726 -0.3502
 3972TIP3    H233552   1.621   5.156   0.972  0.2758 -1.2304  0.6314
 3973TIP3   OH233553   1.863   1.201   1.824  0.3814 -0.2476  0.0316
 3973TIP3    H133554   1.807   1.278   1.838  0.0134 -0.7593  1.6045
 3973TIP3    H233555   1.908   1.188   1.908  0.3206 -1.8282 -0.1471
 3974TIP3   OH233556   3.480   2.971   0.773 -0.3532 -0.5113  0.0407
 3974TIP3    H133557   3.390   2.939   0.763 -0.5263 -0.1845  0.5091
 3974TIP3    H233558   3.520   2.912   0.837 -0.9565  0.7212  1.6207
 3975TIP3   OH233559   0.286   4.502   2.549  0.7032 -0.1404 -0.4010
 3975TIP3    H133560   0.345   4.517   2.623  0.8590 -0.0739 -0.5359
 3975TIP3    H233561   0.323   4.557   2.479 -0.1873  0.8161 -0.1373
 3976TIP3   OH233562   2.823   2.095   0.272 -0.0579  0.3350 -0.1529
 3976TIP3    H133563   2.745   2.120   0.224 -0.2783 -1.0754 -0.5883
 3976TIP3    H233564   2.801   2.009   0.309  1.3183 -0.1286 -0.3745
 3977TIP3   OH233565   2.887   3.020   1.739 -0.0606  0.1751  0.4812
 3977TIP3    H133566   2.816   3.028   1.675 -1.2212 -0.5157  1.6177
 3977TIP3    H233567   2.912   2.928   1.735 -1.1669 -0.2405  1.9951
 3978TIP3   OH233568   0.527   6.316   7.486 -0.2315 -0.3196  0.0150
 3978TIP3    H133569   0.460   6.370   7.445  1.2040  1.1292 -0.5638
 3978TIP3    H233570   0.564   6.265   7.414  0.5366  0.3101 -0.0606
 3979TIP3   OH233571   0.680   3.986   2.157 -0.4304 -0.3845 -0.5325
 3979TIP3    H133572   0.733   3.913   2.127 -0.3559 -0.3418 -0.5056
 3979TIP3    H233573   0.728   4.064   2.129 -0.3612 -0.3446 -0.3057
 3980TIP3   OH233574   2.142   2.265   0.177 -0.0833  0.6805 -0.1642
 3980TIP3    H133575   2.149   2.282   0.084  0.7056 -0.2136 -0.2722
 3980TIP3    H233576   2.053   2.229   0.188 -0.0179  0.3732 -0.6314
 3981TIP3   OH233577   1.401   1.179   7.174  0.0756  0.2862  0.8128
 3981TIP3    H133578   1.393   1.264   7.131 -0.4566  0.0790  0.4867
 3981TIP3    H233579   1.451   1.197   7.254  1.2954  0.6258 -0.0051
 3982TIP3   OH233580   5.273   4.831   7.260  0.1085  0.0505  0.5800
 3982TIP3    H133581   5.353   4.850   7.211 -1.6937 -2.2228 -3.8262
 3982TIP3    H233582   5.292   4.750   7.307  0.4857 -0.4602 -0.4164
 3983TIP3   OH233583   6.139   5.775   1.710  0.5978 -0.0445  0.6733
 3983TIP3    H133584   6.134   5.761   1.804 -0.7336  2.7107  1.1166
 3983TIP3    H233585   6.233   5.773   1.689  0.8570 -1.4848  1.8757
 3984TIP3   OH233586   2.901   1.338   8.769  0.0459  0.1401  0.2987
 3984TIP3    H133587   2.907   1.308   8.678 -0.2862  0.7774  0.0618
 3984TIP3    H233588   2.939   1.425   8.768 -1.2481  0.7303  0.4838
 3985TIP3   OH233589   1.151   1.246   2.550  0.0360  0.4828 -0.0212
 3985TIP3    H133590   1.109   1.318   2.501  0.2748  0.4617 -0.2598
 3985TIP3    H233591   1.219   1.289   2.602  1.4538  0.2241 -1.5882
 3986TIP3   OH233592   1.285   6.563   1.653 -0.1016  0.0267 -0.7715
 3986TIP3    H133593   1.211   6.516   1.692  0.7029 -0.1559  0.6112
 3986TIP3    H233594   1.266   6.656   1.671  0.4089 -0.0724  0.3901
 3987TIP3   OH233595   5.990   5.287   1.036 -0.1225  0.0612  0.4420
 3987TIP3    H133596   6.000   5.353   1.104  0.0525  1.3186 -0.7692
 3987TIP3    H233597   5.901   5.252   1.050 -1.2255  2.3422 -0.3892
 3988TIP3   OH233598   4.985   5.836   7.461  0.0125 -0.2975  0.2710
 3988TIP3    H133599   4.940   5.895   7.400 -2.4604 -0.9084  1.3670
 3988TIP3    H233600   4.989   5.752   7.414 -0.4519 -0.3562  0.3278
 3989TIP3   OH233601   2.782   2.772   8.855  0.1318  0.1093 -0.7706
 3989TIP3    H133602   2.752   2.748   8.767 -0.2730  2.1125 -1.2366
 3989TIP3    H233603   2.876   2.752   8.854  0.0603 -0.2466 -1.5228
 3990TIP3   OH233604   1.197   0.162   8.647  0.1425  0.2887 -0.3316
 3990TIP3    H133605   1.187   0.146   8.741  1.0624 -1.8628 -0.5576
 3990TIP3    H233606   1.127   0.111   8.606  1.1062 -0.6086 -0.9126
 3991TIP3   OH233607   6.018   0.629   0.412  0.0595  0.3212  0.5903
 3991TIP3    H133608   6.109   0.636   0.439  0.2459  1.5084 -0.2743
 3991TIP3    H233609   6.020   0.634   0.317 -0.6564 -3.0052  0.2704
 3992TIP3   OH233610   5.901   3.630   7.649 -0.2656  0.0293 -0.8821
 3992TIP3    H133611   5.830   3.694   7.661  0.1882  0.1162  1.9253
 3992TIP3    H233612   5.921   3.600   7.738  2.0168 -1.3200 -1.7888
 3993TIP3   OH233613   4.351   3.210   7.971  0.1126  0.4430  0.1166
 3993TIP3    H133614   4.294   3.253   7.907 -0.0820  4.0268  2.4707
 3993TIP3    H233615   4.291   3.177   8.038  0.5777  2.5543  1.6534
 3994TIP3   OH233616   4.375   4.390   7.609  0.2681 -0.0677 -0.4394
 3994TIP3    H133617   4.409   4.315   7.659  0.5204  1.9806  2.7241
 3994TIP3    H233618   4.453   4.432   7.573  0.7046  1.4782  2.1238
 3995TIP3   OH233619   4.610   5.670   8.120 -0.2006 -0.5555  0.0836
 3995TIP3    H133620   4.660   5.590   8.103 -0.6685 -1.0221  0.8356
 3995TIP3    H233621   4.640   5.732   8.053  0.9419 -1.0122  0.1519
 3996TIP3   OH233622   4.282   4.714   6.516  0.1797 -0.0603 -0.0144
 3996TIP3    H133623   4.239   4.752   6.593 -0.8834 -0.3727 -0.4343
 3996TIP3    H233624   4.225   4.739   6.442  0.9101 -0.1950 -0.6334
 3997TIP3   OH233625   5.935   2.567   8.277 -0.2715 -0.3546 -0.1599
 3997TIP3    H133626   6.009   2.556   8.217  0.3437 -0.7447  0.6506
 3997TIP3    H233627   5.895   2.650   8.250  1.5189  0.7752  0.4877
 3998TIP3   OH233628   4.878   4.599   1.791  0.1935 -0.2739  0.1615
 3998TIP3    H133629   4.936   4.667   1.757  0.3600 -0.3312  0.3315
 3998TIP3    H233630   4.920   4.569   1.871 -0.4472  0.2108  0.6962
 3999TIP3   OH233631   2.810   3.110   8.124 -0.0014 -0.2371 -0.3752
 3999TIP3    H133632   2.898   3.136   8.096  0.8243 -2.5497 -0.1101
 3999TIP3    H233633   2.794   3.027   8.079 -2.0280  0.0819 -0.3349
 4000TIP3   OH233634   0.748   3.105   1.177  0.3559 -0.2649 -0.2081
 4000TIP3    H133635   0.671   3.138   1.225  2.2692  1.9469  1.6136
 4000TIP3    H233636   0.736   3.137   1.088 -1.2748 -0.7747 -0.1985
 4001TIP3   OH233637   3.567   4.466   0.765 -0.0451  0.2456  0.0436
 4001TIP3    H133638   3.660   4.443   0.765  0.1205  0.5175 -2.9898
 4001TIP3    H233639   3.564   4.552   0.806  1.1321  0.4779 -0.3144
 4002TIP3   OH233640   0.653   0.788   0.532 -0.3934 -0.4290  0.0897
 4002TIP3    H133641   0.649   0.726   0.459 -1.5409  1.7021 -1.8191
 4002TIP3    H233642   0.594   0.859   0.506 -0.9893  0.3793  3.2392
 4003TIP3   OH233643   4.851   6.381   2.458  0.3803 -0.1835 -0.1946
 4003TIP3    H133644   4.918   6.413   2.519  0.5524  1.2336 -1.0967
 4003TIP3    H233645   4.775   6.363   2.514  0.8623  0.1077  0.5694
 4004TIP3   OH233646   5.182   5.046   2.703 -0.2594 -0.1780 -0.4290
 4004TIP3    H133647   5.155   4.954   2.695 -0.9864 -0.0986  0.8157
 4004TIP3    H233648   5.269   5.042   2.742  0.3102 -0.3532 -1.6568
 4005TIP3   OH233649   1.456   1.068   8.444  0.0095 -0.1678  0.0201
 4005TIP3    H133650   1.527   1.102   8.390  0.4477  0.0847  0.7329
 4005TIP3    H233651   1.498   0.999   8.496 -0.6183 -1.0606 -0.6285
 4006TIP3   OH233652   1.725   1.470   6.782  0.1141 -0.2954  0.5700
 4006TIP3    H133653   1.633   1.494   6.777  0.4090  0.7024 -0.9185
 4006TIP3    H233654   1.730   1.382   6.746 -0.4642 -1.1398  2.4099
 4007TIP3   OH233655   4.410   5.956   1.978 -0.1104  0.3860  0.3118
 4007TIP3    H133656   4.457   6.032   2.013  0.3805  0.3042 -0.1584
 4007TIP3    H233657   4.379   5.910   2.056 -0.3218  1.0066  0.6082
 4008TIP3   OH233658   2.633   2.982   0.967 -0.9715 -0.3577  0.1524
 4008TIP3    H133659   2.724   2.954   0.956 -0.9812 -0.2055 -0.3573
 4008TIP3    H233660   2.595   2.978   0.879 -1.3079  0.0818  0.2679
 4009TIP3   OH233661   3.242   3.330   8.733 -0.2433 -0.0615  0.3804
 4009TIP3    H133662   3.322   3.364   8.694 -0.3605  0.2469  0.4087
 4009TIP3    H233663   3.271   3.258   8.788  0.4692  2.2257  3.2358
 4010TIP3   OH233664   3.861   4.194   1.690 -0.2555  0.1578  0.4382
 4010TIP3    H133665   3.779   4.241   1.681 -0.4108 -0.2498 -0.3398
 4010TIP3    H233666   3.925   4.247   1.642  0.1869  1.0477  1.9581
 4011TIP3   OH233667   1.435   4.205   8.219 -0.4901  0.1883 -0.2051
 4011TIP3    H133668   1.513   4.231   8.268  0.4117  0.1731 -1.5690
 4011TIP3    H233669   1.362   4.238   8.271  0.4348  0.5476  0.9092
 4012TIP3   OH233670   5.793   3.178   0.177  0.2303 -0.2750 -0.0909
 4012TIP3    H133671   5.878   3.223   0.179 -0.2618  0.7051 -0.8817
 4012TIP3    H233672   5.745   3.214   0.252  0.2731 -0.3597 -0.0224
 4013TIP3   OH233673   0.143   5.477   8.785 -0.2353  0.5308 -0.3512
 4013TIP3    H133674   0.177   5.558   8.746  0.2569  1.3395  1.6351
 4013TIP3    H233675   0.121   5.422   8.710  1.5829  1.6002 -1.7539
 4014TIP3   OH233676   2.896   5.768   1.652 -0.0565 -0.0726 -0.0030
 4014TIP3    H133677   2.982   5.808   1.666 -0.7240  1.2653  0.4131
 4014TIP3    H233678   2.839   5.841   1.630 -1.3744 -0.7614  0.9944
 4015TIP3   OH233679   3.730   5.039   0.122  0.1633  0.3397 -0.5385
 4015TIP3    H133680   3.717   5.128   0.088 -1.3880 -0.3525 -1.9145
 4015TIP3    H233681   3.825   5.026   0.120  0.5744  2.4339  1.0719
 4016TIP3   OH233682   0.298   1.941   7.761 -0.5454  0.4471  0.2969
 4016TIP3    H133683   0.221   1.944   7.817 -1.6863  0.0258 -1.1714
 4016TIP3    H233684   0.284   2.011   7.697  0.7127  0.9214  0.5242
 4017TIP3   OH233685   4.033   4.352   7.096 -0.3426 -0.1299  0.8762
 4017TIP3    H133686   3.972   4.304   7.151 -0.4134 -1.0479  0.0371
 4017TIP3    H233687   4.118   4.309   7.111  0.0019  0.7693  1.6064
 4018TIP3   OH233688   5.904   1.361   2.999  0.9486  0.1821  0.9489
 4018TIP3    H133689   5.861   1.305   2.934  1.4799  1.7809 -0.8971
 4018TIP3    H233690   5.960   1.302   3.049  2.5544 -0.8393 -1.8377
 4019TIP3   OH233691   3.542   1.476   7.426 -0.0010 -0.4424 -0.4708
 4019TIP3    H133692   3.604   1.546   7.403 -0.2715  0.5394  1.6295
 4019TIP3    H233693   3.593   1.395   7.416  1.4641  0.3041  0.6257
 4020TIP3   OH233694   1.461   1.521   2.060 -0.7011 -0.1397  0.0332
 4020TIP3    H133695   1.473   1.614   2.041 -0.6295  0.2102  1.6441
 4020TIP3    H233696   1.482   1.513   2.153 -3.2328 -1.2962  0.5865
 4021TIP3   OH233697   4.939   0.728   7.660 -0.3070 -0.4014  0.3406
 4021TIP3    H133698   4.970   0.811   7.697 -0.9477  0.5071 -1.0911
 4021TIP3    H233699   4.918   0.674   7.737  2.1236 -0.0785  1.3508
 4022TIP3   OH233700   1.799   1.935   2.433  0.0982 -0.0636 -0.4446
 4022TIP3    H133701   1.793   1.868   2.501 -0.8812  0.8322  0.3927
 4022TIP3    H233702   1.887   1.973   2.445 -0.1772  0.2946  0.5547
 4023TIP3   OH233703   6.134   3.529   2.953  0.1126  0.0134 -0.0860
 4023TIP3    H133704   6.050   3.501   2.989  0.6170  0.3172  1.3843
 4023TIP3    H233705   6.116   3.611   2.908 -0.3057  0.3346  0.6496
 4024TIP3   OH233706   1.036   5.218   7.040 -0.2746  0.1050 -0.1716
 4024TIP3    H133707   1.070   5.156   6.976 -1.8607  0.9619 -1.9439
 4024TIP3    H233708   0.952   5.183   7.066  0.7426 -0.7358  2.3015
 4025TIP3   OH233709   0.658   4.190   3.181  0.6788  0.5144 -0.0456
 4025TIP3    H133710   0.654   4.196   3.085 -2.2925 -1.2573 -0.1691
 4025TIP3    H233711   0.701   4.271   3.208 -0.4140  2.1885 -2.8218
 4026TIP3   OH233712   5.879   2.968   2.073  0.3311  0.0768  0.3287
 4026TIP3    H133713   5.851   2.896   2.016  0.8861  0.9742 -1.1393
 4026TIP3    H233714   5.815   2.969   2.144 -0.5635 -0.8962 -0.4353
 4027TIP3   OH233715   4.418   5.866   1.378  0.5477 -0.3308 -0.3538
 4027TIP3    H133716   4.433   5.935   1.442 -0.8172 -1.6872  1.5247
 4027TIP3    H233717   4.421   5.785   1.428 -0.6062 -1.4656 -1.9942
 4028TIP3   OH233718   5.881   6.683   2.533  0.0706  0.0184 -0.3715
 4028TIP3    H133719   5.957   6.741   2.525  0.0803 -0.0828 -1.0520
 4028TIP3    H233720   5.917   6.595   2.531 -0.1154 -0.0459 -1.4205
 4029TIP3   OH233721   2.977   3.240   1.452  0.6428 -0.1068  0.4720
 4029TIP3    H133722   3.047   3.305   1.459 -0.3506  1.0334  0.1906
 4029TIP3    H233723   3.011   3.163   1.497  1.5790  0.8409  1.4427
 4030TIP3   OH233724   3.249   2.678   1.287 -0.2851 -0.2390  0.0871
 4030TIP3    H133725   3.242   2.717   1.200 -1.1106  0.6358  0.5316
 4030TIP3    H233726   3.161   2.646   1.306 -0.3232  0.3347  0.9384
 4031TIP3   OH233727   3.266   0.119   0.159  0.3316  0.0209 -0.3064
 4031TIP3    H133728   3.182   0.102   0.115  0.0524 -1.2860  0.6733
 4031TIP3    H233729   3.320   0.160   0.091 -0.6193 -0.4478 -1.3900
 4032TIP3   OH233730   1.368   2.016   2.198 -0.0115  0.1154 -0.0405
 4032TIP3    H133731   1.412   2.036   2.280  0.3829 -2.1333  0.3467
 4032TIP3    H233732   1.276   2.034   2.215 -0.1334 -1.6047  1.3747
 4033TIP3   OH233733   5.847   4.217   1.717  0.1016 -0.0828 -0.3708
 4033TIP3    H133734   5.869   4.309   1.704  1.1977 -0.0872  1.2141
 4033TIP3    H233735   5.923   4.169   1.685  0.7847 -0.2774  1.4250
 4034TIP3   OH233736   2.907   0.461   8.860 -1.1678  0.5947 -0.3257
 4034TIP3    H133737   2.829   0.497   8.817 -0.4052 -0.1247 -2.3969
 4034TIP3    H233738   2.908   0.369   8.835  0.1997  0.5327 -0.1143
 4035TIP3   OH233739   4.008   5.106   0.705 -0.2513  0.3956 -0.3543
 4035TIP3    H133740   3.918   5.099   0.735 -0.2016  1.6061  0.1005
 4035TIP3    H233741   4.008   5.177   0.642  0.7040  1.6574  0.9929
 4036TIP3   OH233742   4.243   0.194   0.973  0.2194  0.1957 -0.2614
 4036TIP3    H133743   4.182   0.171   1.043  0.0292  1.2350 -0.0681
 4036TIP3    H233744   4.189   0.196   0.894  0.4607 -1.1124 -0.4751
 4037TIP3   OH233745   5.869   0.752   1.191  0.1258  0.0293  0.0922
 4037TIP3    H133746   5.818   0.794   1.122 -1.8026 -0.2728  1.2494
 4037TIP3    H233747   5.816   0.676   1.217  1.0756 -0.1866  1.5029
 4038TIP3   OH233748   2.301   1.267   8.776  0.2114  0.2568 -0.4365
 4038TIP3    H133749   2.328   1.326   8.705  0.8667  2.3041  1.4045
 4038TIP3    H233750   2.381   1.223   8.803 -0.5193 -2.9421 -2.8820
 4039TIP3   OH233751   5.477   5.019   8.034  0.1879 -0.4156  0.1944
 4039TIP3    H133752   5.571   5.030   8.017 -0.0420  0.1364 -0.7514
 4039TIP3    H233753   5.439   5.002   7.948 -0.2329 -3.3921  0.8566
 4040TIP3   OH233754   5.150   5.303   8.050 -0.5469  0.4409  0.1816
 4040TIP3    H133755   5.132   5.212   8.029 -2.0484  0.4141  1.3818
 4040TIP3    H233756   5.179   5.341   7.967  0.1231 -1.1143 -0.3265
 4041TIP3   OH233757   4.896   2.129   8.155 -0.1204  0.0243  0.7429
 4041TIP3    H133758   4.958   2.202   8.147  0.2628 -0.2884  0.8157
 4041TIP3    H233759   4.875   2.125   8.248  0.7007 -0.6409  0.9065
 4042TIP3   OH233760   2.832   5.465   1.708  0.2828 -0.1967  0.2704
 4042TIP3    H133761   2.832   5.554   1.744 -0.2385 -0.4614  0.9534
 4042TIP3    H233762   2.923   5.435   1.720  0.9753  0.9363 -1.8004
 4043TIP3   OH233763   3.038   0.092   1.423 -0.1009 -0.3995  0.0147
 4043TIP3    H133764   2.985   0.078   1.502 -0.2714  0.0308 -0.0219
 4043TIP3    H233765   3.020   0.015   1.369 -3.2635  1.1426 -1.4255
 4044TIP3   OH233766   5.084   0.167   0.531 -0.0322  0.0960  0.0799
 4044TIP3    H133767   5.069   0.159   0.437  2.5276 -1.3716 -0.3139
 4044TIP3    H233768   5.132   0.250   0.540  0.8346 -0.3660 -0.1254
 4045TIP3   OH233769   2.160   5.361   8.688 -0.0101 -0.3415  0.1617
 4045TIP3    H133770   2.175   5.331   8.777  0.3110  1.1771  0.6458
 4045TIP3    H233771   2.068   5.389   8.687  0.3436  0.8825  0.4162
 4046TIP3   OH233772   6.380   1.554   8.442  0.5137  0.1672  0.9699
 4046TIP3    H133773   6.317   1.546   8.514  0.8163  0.5199  1.2768
 4046TIP3    H233774   6.331   1.526   8.365  0.5597 -1.4824  1.4931
 4047TIP3   OH233775   4.906   2.316   7.771  0.0338  0.2313  0.2274
 4047TIP3    H133776   4.869   2.264   7.843  0.8003  0.0742  0.5130
 4047TIP3    H233777   4.976   2.367   7.811 -0.6791  1.4743 -0.0612
 4048TIP3   OH233778   0.618   1.855   8.719  0.1588 -0.2226 -0.0227
 4048TIP3    H133779   0.713   1.846   8.720  0.2034  0.2748  0.5101
 4048TIP3    H233780   0.588   1.786   8.660  0.8154 -0.6917  0.1847
 4049TIP3   OH233781   2.551   3.881   8.705 -0.5961 -0.3896 -0.1490
 4049TIP3    H133782   2.609   3.809   8.681 -1.0515 -0.1608 -2.1742
 4049TIP3    H233783   2.602   3.935   8.765  0.8142 -0.8811 -0.8726
 4050TIP3   OH233784   1.926   3.597   8.741 -0.2908  0.2259  0.0992
 4050TIP3    H133785   1.938   3.634   8.653  1.1039 -0.2448  0.0584
 4050TIP3    H233786   1.952   3.667   8.800 -1.1264  0.5068  0.1377
 4051TIP3   OH233787   5.784   5.750   1.140 -0.2115 -0.1306  0.2484
 4051TIP3    H133788   5.752   5.777   1.226 -0.1835  1.9818 -0.3398
 4051TIP3    H233789   5.877   5.774   1.141  0.0935 -1.2580  0.0553
 4052TIP3   OH233790   4.957   4.207   7.877  0.7221 -0.8991 -0.2535
 4052TIP3    H133791   5.050   4.196   7.893  1.3030  2.6651 -0.2635
 4052TIP3    H233792   4.952   4.240   7.788 -0.1656  1.7078  0.6677
 4053TIP3   OH233793   3.380   0.046   8.716 -0.1643 -0.5027 -0.1088
 4053TIP3    H133794   3.351   0.136   8.725  1.5292  0.0372  0.4318
 4053TIP3    H233795   3.327   0.010   8.645 -1.7167  0.5264  0.4841
 4054TIP3   OH233796   0.890   5.109   8.144 -0.0640 -0.1253  0.1179
 4054TIP3    H133797   0.881   5.050   8.218 -3.0914  0.4436  0.3154
 4054TIP3    H233798   0.911   5.194   8.183  0.0669 -0.1766  0.1614
 4055TIP3   OH233799   6.612   4.910   8.560 -0.2557 -0.5017 -0.4443
 4055TIP3    H133800   6.547   4.859   8.510  2.8605 -2.1232 -3.2427
 4055TIP3    H233801   6.674   4.844   8.592  0.4097  1.0310  1.6159
 4056TIP3   OH233802   3.214   6.445   7.050  0.0585  0.4111  0.4662
 4056TIP3    H133803   3.197   6.420   7.141 -0.6317 -2.0550 -0.2748
 4056TIP3    H233804   3.290   6.392   7.025 -1.3961 -0.9709 -1.1689
 4057TIP3   OH233805   4.225   4.184   1.583  0.3634  0.3773  0.1312
 4057TIP3    H133806   4.201   4.195   1.675  0.4066 -0.3294  0.2269
 4057TIP3    H233807   4.148   4.212   1.534  0.2045  0.3830  0.3851
 4058TIP3   OH233808   3.057   3.854   7.604  0.4163  0.2271  0.3321
 4058TIP3    H133809   3.093   3.861   7.692  1.0296  0.6971  0.0524
 4058TIP3    H233810   2.994   3.782   7.609  0.7079  0.0174  1.0611
 4059TIP3   OH233811   4.682   6.564   7.271 -0.2792 -0.2494 -0.2015
 4059TIP3    H133812   4.590   6.567   7.295 -0.5876 -0.8884 -1.2627
 4059TIP3    H233813   4.685   6.586   7.178  0.6238 -0.3557 -0.2149
 4060TIP3   OH233814   0.435   0.295   7.837  0.6886 -0.5623 -0.6426
 4060TIP3    H133815   0.479   0.260   7.759  0.8425  1.0000 -1.3043
 4060TIP3    H233816   0.434   0.390   7.822 -1.5751 -0.4284  0.0572
 4061TIP3   OH233817   3.084   5.752   0.543  0.0082 -0.1481 -0.1215
 4061TIP3    H133818   3.075   5.836   0.586 -1.4813 -0.1815 -0.3038
 4061TIP3    H233819   3.047   5.689   0.605  1.3418 -0.7287  0.1234
 4062TIP3   OH233820   1.375   2.940   2.002  0.0044 -0.1870  0.0609
 4062TIP3    H133821   1.339   2.853   2.019  1.7169 -1.2095 -1.1482
 4062TIP3    H233822   1.300   2.993   1.977 -1.0216 -1.4624  0.3321
 4063TIP3   OH233823   0.980   1.913   8.720  0.8415 -0.2694 -0.0873
 4063TIP3    H133824   1.038   1.838   8.732 -0.4671 -1.1375  1.0326
 4063TIP3    H233825   0.976   1.925   8.625 -1.0655 -3.3706 -0.5134
 4064TIP3   OH233826   2.871   1.830   8.665  0.1347 -0.1008 -0.0504
 4064TIP3    H133827   2.938   1.769   8.635  1.6481  1.2816  0.4106
 4064TIP3    H233828   2.901   1.858   8.752  0.3641  2.4823 -0.8701
 4065TIP3   OH233829   2.889   3.248   1.915  0.5427 -0.2683 -0.3693
 4065TIP3    H133830   2.909   3.196   1.993  2.4984 -1.8761 -1.8369
 4065TIP3    H233831   2.837   3.189   1.860  1.9586 -0.3862 -1.6389
 4066TIP3   OH233832   1.220   5.387   6.868 -0.0034 -0.9325 -0.4931
 4066TIP3    H133833   1.303   5.340   6.874  1.0022  0.7237 -0.7130
 4066TIP3    H233834   1.189   5.393   6.959  1.4556  0.6345 -0.0340
 4067TIP3   OH233835   1.200   6.502   7.894 -0.5531  0.0438 -0.5595
 4067TIP3    H133836   1.148   6.583   7.889  0.4822  0.7154 -0.8684
 4067TIP3    H233837   1.201   6.480   7.987 -3.5607 -1.4772 -0.7928
 4068TIP3   OH233838   2.133   2.521   1.075  0.4616  0.3096 -0.0744
 4068TIP3    H133839   2.152   2.438   1.119  0.6734 -1.1021 -2.6209
 4068TIP3    H233840   2.206   2.533   1.014 -1.2497  0.5091 -2.2214
 4069TIP3   OH233841   3.910   2.274   1.855  0.0595 -0.3271  0.5626
 4069TIP3    H133842   3.919   2.260   1.949 -0.3498 -1.0132  0.5131
 4069TIP3    H233843   3.830   2.327   1.846  1.6153  2.1807  0.7512
 4070TIP3   OH233844   3.092   2.706   0.663 -0.0485 -0.1283 -0.3242
 4070TIP3    H133845   3.076   2.778   0.724  1.6200  1.7733 -1.9912
 4070TIP3    H233846   3.177   2.671   0.688  0.4085  0.3260 -1.2150
 4071TIP3   OH233847   3.135   4.359   1.563 -0.3509 -0.3754  0.8349
 4071TIP3    H133848   3.139   4.443   1.518  3.2243 -0.4883  0.6299
 4071TIP3    H233849   3.079   4.305   1.507  1.1625  0.5006 -1.7017
 4072TIP3   OH233850   4.783   5.466   7.308 -0.0693 -0.4591 -0.3114
 4072TIP3    H133851   4.850   5.458   7.240  0.3752 -1.3484  0.2158
 4072TIP3    H233852   4.750   5.556   7.299  1.1494 -0.0252 -0.6094
 4073TIP3   OH233853   2.777   2.756   8.537 -0.0809 -0.1676  0.0868
 4073TIP3    H133854   2.836   2.831   8.541 -0.4393  0.0920  2.7311
 4073TIP3    H233855   2.708   2.782   8.476  0.4141  1.1732  0.0731
 4074TIP3   OH233856   5.344   2.224   1.597  0.8123  0.3305 -0.6064
 4074TIP3    H133857   5.436   2.205   1.578  0.6972  0.8649 -1.7938
 4074TIP3    H233858   5.305   2.241   1.511 -0.5574 -0.5557 -0.1871
 4075TIP3   OH233859   4.859   1.271   1.255 -0.4615  0.2702  0.4207
 4075TIP3    H133860   4.857   1.178   1.275  0.8020  0.1742  0.1620
 4075TIP3    H233861   4.874   1.276   1.161  3.5376  0.6525  0.8979
 4076TIP3   OH233862   0.718   4.152   2.908 -0.2582  0.3306  0.0518
 4076TIP3    H133863   0.728   4.061   2.880  0.5779  1.0569 -2.2497
 4076TIP3    H233864   0.807   4.187   2.906 -0.6036  1.2835  0.6510
 4077TIP3   OH233865   6.241   4.669   1.511  0.2276  0.6153 -0.2670
 4077TIP3    H133866   6.173   4.635   1.569 -0.3258 -0.0104 -1.2525
 4077TIP3    H233867   6.322   4.656   1.560  0.1919 -3.1029 -0.9203
 4078TIP3   OH233868   4.798   5.985   1.383 -0.0998  0.3264 -0.4577
 4078TIP3    H133869   4.838   6.071   1.392 -0.1122  0.3686 -0.8161
 4078TIP3    H233870   4.736   5.994   1.310  1.3050 -0.4953 -1.8039
 4079TIP3   OH233871   4.602   2.495   0.491 -0.5946 -0.0696  0.1932
 4079TIP3    H133872   4.549   2.480   0.413  0.0922  2.0251 -0.7541
 4079TIP3    H233873   4.586   2.587   0.514  1.1313  0.0708  1.0253
 4080TIP3   OH233874   3.330   1.535   8.807  0.1159  0.3012 -0.7258
 4080TIP3    H133875   3.360   1.527   8.716  0.9442 -1.9831 -0.3191
 4080TIP3    H233876   3.410   1.537   8.859 -0.3659  0.6001  0.0220
 4081TIP3   OH233877   5.788   0.458   1.455 -0.4274 -0.2673  0.4361
 4081TIP3    H133878   5.856   0.420   1.400 -0.5710  0.0558  0.0328
 4081TIP3    H233879   5.803   0.419   1.541  0.5810  0.1925  0.4827
 4082TIP3   OH233880   4.592   6.707   0.929  0.2270 -0.4034  0.0678
 4082TIP3    H133881   4.541   6.787   0.919  0.3557 -0.3758 -0.3960
 4082TIP3    H233882   4.616   6.705   1.022  1.8131  1.0908 -0.2471
 4083TIP3   OH233883   2.705   3.696   8.585  0.0217 -0.2429  0.7154
 4083TIP3    H133884   2.794   3.723   8.608  0.8827 -2.6974  0.5557
 4083TIP3    H233885   2.696   3.720   8.493  0.0314  1.1012  1.0382
 4084TIP3   OH233886   1.392   3.731   2.473 -0.1715 -0.8055 -0.3659
 4084TIP3    H133887   1.428   3.807   2.427  0.5009 -1.0874 -0.3200
 4084TIP3    H233888   1.342   3.768   2.546  0.1553 -0.4071 -0.3418
 4085TIP3   OH233889   1.297   0.839   8.783  0.6954  0.0174 -0.2252
 4085TIP3    H133890   1.341   0.886   8.854  0.4301  1.4445 -0.9604
 4085TIP3    H233891   1.255   0.764   8.826  2.1090 -0.2267  0.8019
 4086TIP3   OH233892   2.466   6.002   0.368  0.5509  0.0354 -0.1554
 4086TIP3    H133893   2.435   5.927   0.417  0.1118  0.2874 -0.0421
 4086TIP3    H233894   2.515   6.054   0.432 -0.5041  0.6535  0.1732
 4087TIP3   OH233895   2.923   0.224   2.517 -0.2321  0.0796 -0.0106
 4087TIP3    H133896   2.878   0.150   2.476 -0.5757  0.5932 -0.5627
 4087TIP3    H233897   2.879   0.302   2.482  0.7140  0.5724 -0.1322
 4088TIP3   OH233898   0.305   5.660   8.125 -0.0322 -0.0865 -0.0203
 4088TIP3    H133899   0.352   5.717   8.186 -0.7169  1.6617 -1.0629
 4088TIP3    H233900   0.355   5.666   8.043 -0.0947 -1.0226 -0.1367
 4089TIP3   OH233901   2.094   0.330   1.427  0.8428  0.1717 -0.1180
 4089TIP3    H133902   2.137   0.413   1.403  2.5182 -0.0303  1.9871
 4089TIP3    H233903   2.117   0.316   1.518  0.3828 -2.5203 -0.3369
 4090TIP3   OH233904   0.913   5.816   1.824  0.0974  0.5399 -0.0475
 4090TIP3    H133905   0.989   5.822   1.767  0.5500  0.5837  0.5495
 4090TIP3    H233906   0.937   5.752   1.891 -1.0978 -0.8599 -0.8891
 4091TIP3   OH233907   4.175   6.348   7.471 -0.0674 -0.1926 -0.5281
 4091TIP3    H133908   4.165   6.349   7.376 -0.6362  1.0361 -0.4815
 4091TIP3    H233909   4.099   6.301   7.503 -1.5092  1.9324 -0.5818
 4092TIP3   OH233910   2.799   1.083   7.945  0.6752  0.0442 -0.4712
 4092TIP3    H133911   2.880   1.043   7.914  0.1776 -0.9061 -0.5666
 4092TIP3    H233912   2.746   1.010   7.975 -0.2757  0.6250 -0.6986
 4093TIP3   OH233913   0.002   2.265   7.001 -0.2721  0.2754  0.3110
 4093TIP3    H133914   0.022   2.171   7.005 -0.4265  0.2949  1.9214
 4093TIP3    H233915   0.085   2.306   6.978 -0.3898 -0.2959 -1.3001
 4094TIP3   OH233916   1.528   2.261   1.195 -0.6540  0.8206 -0.1120
 4094TIP3    H133917   1.530   2.296   1.106  0.5815 -2.1885 -1.4074
 4094TIP3    H233918   1.544   2.167   1.185 -0.6157  0.3129  3.2943
 4095TIP3   OH233919   2.088   5.991   7.678 -0.2130 -0.1733 -0.3558
 4095TIP3    H133920   2.120   6.002   7.588 -0.7485 -0.2973 -0.5616
 4095TIP3    H233921   2.013   5.932   7.670 -1.2847  1.0919 -0.0402
 4096TIP3   OH233922   4.940   2.904   8.775 -0.1110 -0.1969 -0.2517
 4096TIP3    H133923   5.029   2.936   8.758  0.9287 -1.7141  1.9123
 4096TIP3    H233924   4.928   2.833   8.712 -0.0957  0.4767 -1.0336
 4097TIP3   OH233925   6.131   1.821   7.547 -0.0517 -0.0136  0.3552
 4097TIP3    H133926   6.076   1.756   7.590  0.2730 -0.2691  0.3869
 4097TIP3    H233927   6.084   1.843   7.467  0.4830 -1.3030 -0.3479
 4098TIP3   OH233928   2.174   2.028   0.680 -0.4082  0.9389 -0.2952
 4098TIP3    H133929   2.203   1.975   0.606 -0.1050  0.4161  0.1841
 4098TIP3    H233930   2.194   2.118   0.655  0.3666  0.7066 -0.5541
 4099TIP3   OH233931   3.239   1.821   0.176 -0.4507 -0.6991 -0.2639
 4099TIP3    H133932   3.302   1.856   0.240  0.0397  0.5960 -1.3998
 4099TIP3    H233933   3.217   1.735   0.210  1.2499 -0.8288  0.6567
 4100TIP3   OH233934   4.120   0.691   1.129  0.1341 -0.4516 -0.0210
 4100TIP3    H133935   4.158   0.611   1.163  0.0962 -0.6685 -0.4816
 4100TIP3    H233936   4.183   0.723   1.064 -0.6184 -1.0208 -1.0694
 4101TIP3   OH233937   4.746   2.594   1.753 -0.2105 -0.0082  0.7165
 4101TIP3    H133938   4.813   2.663   1.759 -1.6272  1.8651 -2.4304
 4101TIP3    H233939   4.679   2.621   1.816 -0.3071  1.0193  0.1977
 4102TIP3   OH233940   5.493   4.017   7.295 -0.4023 -0.6743 -0.3175
 4102TIP3    H133941   5.571   3.982   7.252 -0.5257  0.8657 -1.9179
 4102TIP3    H233942   5.423   3.954   7.274  0.3858 -2.1953  1.3399
 4103TIP3   OH233943   3.972   1.279   7.840  0.8577  0.2442  0.5310
 4103TIP3    H133944   4.049   1.286   7.783 -0.0937  0.0016 -0.8596
 4103TIP3    H233945   3.927   1.200   7.809  0.1936  0.2392  1.4890
 4104TIP3   OH233946   1.463   0.076   1.109 -0.8292  0.5607 -0.2837
 4104TIP3    H133947   1.450  -0.002   1.056 -0.5186  1.2690 -1.4203
 4104TIP3    H233948   1.553   0.067   1.143 -1.4220 -0.4662  1.1391
 4105TIP3   OH233949   1.675   1.764   2.665 -0.7735  0.3055  0.2445
 4105TIP3    H133950   1.737   1.824   2.707 -1.6760  0.9358  0.7069
 4105TIP3    H233951   1.655   1.699   2.732 -0.8662  0.2932  0.2051
 4106TIP3   OH233952   2.738   2.308   1.034  0.0059  0.2585 -0.3423
 4106TIP3    H133953   2.804   2.364   1.075  0.3851  0.9260 -1.8247
 4106TIP3    H233954   2.658   2.359   1.035 -0.0901  0.1078 -0.0760
 4107TIP3   OH233955   5.851   5.174   8.758 -0.7681  0.0717 -0.2611
 4107TIP3    H133956   5.929   5.136   8.798 -0.6175  0.0796 -0.5400
 4107TIP3    H233957   5.885   5.227   8.685 -0.9535  0.9645  0.2880
 4108TIP3   OH233958   4.215   5.129   0.904  0.7409 -0.1694  0.0110
 4108TIP3    H133959   4.177   5.156   0.988  1.3028 -2.1437  0.9754
 4108TIP3    H233960   4.139   5.113   0.847  0.3540  1.2067  0.1143
 4109TIP3   OH233961   0.989   2.474   7.712  0.5197 -0.0259 -0.0008
 4109TIP3    H133962   1.016   2.446   7.800  0.2669  2.1986  0.8324
 4109TIP3    H233963   0.898   2.446   7.705  0.8865 -1.2698 -0.0498
 4110TIP3   OH233964   5.092   6.350   1.081  0.6919  0.0990  0.1693
 4110TIP3    H133965   5.033   6.380   1.012 -0.7415 -3.1932 -0.2136
 4110TIP3    H233966   5.155   6.293   1.036 -1.2858 -3.5041  1.5740
 4111TIP3   OH233967   3.015   2.747   8.329 -0.3295  0.0862  0.0259
 4111TIP3    H133968   2.976   2.812   8.386 -2.3874 -0.1773 -0.9893
 4111TIP3    H233969   2.979   2.664   8.359 -1.0210 -0.1100 -1.2643
 4112TIP3   OH233970   5.638   5.139   7.379  0.3960 -0.6181 -0.3505
 4112TIP3    H133971   5.693   5.079   7.430  0.7447  1.1305  1.4552
 4112TIP3    H233972   5.646   5.223   7.424 -0.8945  0.5606 -2.1812
 4113TIP3   OH233973   0.894   1.510   1.413 -0.5655 -0.0663  0.1232
 4113TIP3    H133974   0.878   1.549   1.327  0.9776 -0.1184 -0.2176
 4113TIP3    H233975   0.862   1.575   1.475 -0.0263  0.7817 -0.4691
 4114TIP3   OH233976   6.436   3.594   1.712 -0.0844  0.0102 -0.0945
 4114TIP3    H133977   6.455   3.503   1.734 -0.8222 -0.0943  0.1363
 4114TIP3    H233978   6.343   3.594   1.691 -0.0644  0.6974 -0.1966
 4115TIP3   OH233979   6.781   3.305   2.240  0.3120  0.1717  0.0675
 4115TIP3    H133980   6.827   3.237   2.191  0.6936  0.5707 -0.1382
 4115TIP3    H233981   6.728   3.257   2.303 -0.6894 -0.3897 -1.1446
 4116TIP3   OH233982   6.121   6.728   1.583  0.2204  0.2419  0.0380
 4116TIP3    H133983   6.210   6.743   1.614  0.1476  3.2529 -0.8316
 4116TIP3    H233984   6.118   6.770   1.497 -2.4397  1.7688  0.7523
 4117TIP3   OH233985   4.582   1.199   2.245  0.7227 -0.4567  0.8002
 4117TIP3    H133986   4.676   1.206   2.261  0.7287 -3.2763  2.7364
 4117TIP3    H233987   4.542   1.258   2.308  1.1611  0.2499  0.4253
 4118TIP3   OH233988   5.959   4.769   8.590 -0.1674 -0.8515  0.4345
 4118TIP3    H133989   6.002   4.850   8.561  0.0674 -0.6503  1.3173
 4118TIP3    H233990   5.876   4.798   8.628 -0.7596 -1.1735 -0.5761
 4119TIP3   OH233991   3.134   3.115   7.415  0.5804 -0.3152  0.1370
 4119TIP3    H133992   3.136   3.098   7.320 -0.4235  3.0581 -0.6240
 4119TIP3    H233993   3.047   3.154   7.430  1.5196  1.2214  2.0027
 4120TIP3   OH233994   4.900   0.863   1.625 -0.6327 -0.4819  0.0338
 4120TIP3    H133995   4.912   0.770   1.646 -0.1100 -0.1465  1.2976
 4120TIP3    H233996   4.987   0.892   1.597 -0.0882  0.2483  2.2809
 4121TIP3   OH233997   0.954   3.134   0.715 -0.7081 -0.0755 -0.1517
 4121TIP3    H133998   0.931   3.220   0.680 -0.5443  0.1153  0.2041
 4121TIP3    H233999   0.994   3.153   0.800 -0.6129 -0.5000 -0.1017
 4122TIP3   OH234000   4.384   2.539   7.416 -0.1814  0.3609 -0.1689
 4122TIP3    H134001   4.308   2.574   7.462 -0.5002 -0.2864 -0.2082
 4122TIP3    H234002   4.429   2.485   7.481  1.4727  2.4423  0.5623
 4123TIP3   OH234003   4.352   5.975   8.351  0.1940  0.2302 -0.1769
 4123TIP3    H134004   4.442   5.978   8.382 -0.1591  0.1680  0.9052
 4123TIP3    H234005   4.325   5.884   8.364  0.0058  0.2220 -0.5989
 4124TIP3   OH234006   2.777   3.193   8.422 -0.1151  0.0653  0.1479
 4124TIP3    H134007   2.763   3.287   8.410  1.7784  0.3227 -0.3098
 4124TIP3    H234008   2.760   3.155   8.336  2.6080  0.4907 -0.6499
 4125TIP3   OH234009   2.757   2.369   1.799  0.0037 -0.5025  0.3122
 4125TIP3    H134010   2.809   2.440   1.836  0.6957 -0.3740 -0.8379
 4125TIP3    H234011   2.690   2.413   1.746  0.8608 -0.6899 -0.9608
 4126TIP3   OH234012   1.297   3.451   7.733  0.2806  0.0470  0.4224
 4126TIP3    H134013   1.270   3.537   7.765 -0.0536 -0.2334  0.9204
 4126TIP3    H234014   1.268   3.448   7.642  2.7456  1.5342 -0.5371
 4127TIP3   OH234015   2.768   6.524   1.745  0.1951  0.2359  0.5611
 4127TIP3    H134016   2.712   6.556   1.815 -1.2865 -0.4297 -0.2793
 4127TIP3    H234017   2.785   6.601   1.691 -0.8065  0.2321  0.2334
 4128TIP3   OH234018   3.689   3.430   6.888  0.2352  0.1452 -0.2324
 4128TIP3    H134019   3.758   3.389   6.940  0.2101  0.7342  0.2818
 4128TIP3    H234020   3.608   3.409   6.935  0.3805  2.3203  1.1112
 4129TIP3   OH234021   4.818   5.224   1.366  0.2458 -0.1265 -0.1382
 4129TIP3    H134022   4.904   5.204   1.330 -0.1385 -0.0976 -1.0958
 4129TIP3    H234023   4.813   5.172   1.447  0.3568 -1.7537 -1.1447
 4130TIP3   OH234024   3.618   3.640   8.742 -0.2137 -0.5813 -0.0331
 4130TIP3    H134025   3.645   3.706   8.806 -0.5691  0.3960 -0.8523
 4130TIP3    H234026   3.693   3.581   8.735  0.8466  0.7586 -0.5741
 4131TIP3   OH234027   6.302   6.274   6.524  0.2139  0.2333  0.2274
 4131TIP3    H134028   6.311   6.357   6.477  0.5331  1.2666  2.0409
 4131TIP3    H234029   6.284   6.210   6.455 -0.1285  1.8007 -1.2100
 4132TIP3   OH234030   4.565   1.814   0.384 -0.7861  0.3020 -0.1057
 4132TIP3    H134031   4.607   1.897   0.407 -0.2622  0.2797 -0.9278
 4132TIP3    H234032   4.520   1.832   0.302 -0.0192 -0.4148 -0.7057
 4133TIP3   OH234033   3.003   3.785   0.850  0.0912 -0.1573 -0.1378
 4133TIP3    H134034   2.921   3.834   0.856  0.8525  1.0594  1.0133
 4133TIP3    H234035   3.013   3.744   0.936 -0.4713 -2.3156 -1.0437
 4134TIP3   OH234036   2.808   3.677   1.160 -0.0609 -0.2554 -0.8714
 4134TIP3    H134037   2.889   3.632   1.184  0.9602  1.4838 -0.8808
 4134TIP3    H234038   2.819   3.766   1.193 -1.4261  0.3938 -2.0302
 4135TIP3   OH234039   0.557   0.792   1.700 -0.4434  0.2793  0.5730
 4135TIP3    H134040   0.530   0.869   1.750 -0.4332  0.6740 -0.0138
 4135TIP3    H234041   0.479   0.768   1.650 -0.4771 -0.1567  0.8327
 4136TIP3   OH234042   2.647   2.555   7.629 -0.4097  0.0014 -0.1858
 4136TIP3    H134043   2.562   2.536   7.669 -0.4591  0.8100  0.1208
 4136TIP3    H234044   2.630   2.632   7.574 -0.3854 -1.1829 -1.9338
 4137TIP3   OH234045   0.098   0.481   7.681  0.2312 -0.2999  0.0897
 4137TIP3    H134046   0.034   0.535   7.635  3.0214 -0.4122 -4.5625
 4137TIP3    H234047   0.072   0.391   7.662  1.2281 -0.3507 -1.1902
 4138TIP3   OH234048   0.272   5.446   1.252  0.2551  0.5046  0.3799
 4138TIP3    H134049   0.320   5.519   1.290  1.3505  0.7916 -1.4261
 4138TIP3    H234050   0.186   5.448   1.295 -0.2464  3.6597 -0.5188
 4139TIP3   OH234051   3.924   6.227   7.564 -0.1272  0.1904  0.2899
 4139TIP3    H134052   3.894   6.137   7.556  1.2143 -0.3494  0.9306
 4139TIP3    H234053   3.852   6.273   7.608 -1.5231 -0.1298 -1.5421
 4140TIP3   OH234054   2.877   2.718   1.342 -0.6803 -0.4187  0.0467
 4140TIP3    H134055   2.795   2.680   1.372 -0.7013 -0.2955  0.1482
 4140TIP3    H234056   2.909   2.658   1.275  0.6175 -2.0636  2.0055
 4141TIP3   OH234057   3.568   3.174   0.249  0.3519 -0.0119 -0.6073
 4141TIP3    H134058   3.573   3.131   0.164  1.5531 -0.2189 -0.4507
 4141TIP3    H234059   3.563   3.267   0.229 -0.2262 -0.1000 -0.9080
 4142TIP3   OH234060   2.442   6.598   0.622 -0.3318  0.1070 -0.3791
 4142TIP3    H134061   2.524   6.555   0.598 -0.7377 -1.2659  0.5849
 4142TIP3    H234062   2.383   6.579   0.550 -0.3108 -0.4030 -0.2657
 4143TIP3   OH234063   2.165   5.711   7.350  0.4532  0.6705  0.5266
 4143TIP3    H134064   2.173   5.656   7.272  1.1904  1.2270  0.1960
 4143TIP3    H234065   2.080   5.753   7.341  0.4896  0.6508  0.0663
 4144TIP3   OH234066   1.596   0.760   7.732 -0.4036 -0.7771 -0.1931
 4144TIP3    H134067   1.535   0.763   7.658  0.3292  1.4805 -0.7934
 4144TIP3    H234068   1.660   0.694   7.708 -1.5459 -1.8625 -0.3894
 4145TIP3   OH234069   4.162   2.162   8.757  0.5479 -0.0062 -0.0723
 4145TIP3    H134070   4.081   2.137   8.712  0.4295 -1.3486  0.8526
 4145TIP3    H234071   4.194   2.081   8.796 -0.1693  1.2638  3.5701
 4146TIP3   OH234072   3.785   0.835   1.795 -0.5296 -0.0181  0.6150
 4146TIP3    H134073   3.783   0.892   1.718 -0.1675  0.2065  0.7701
 4146TIP3    H234074   3.869   0.791   1.790 -1.6081 -2.1063 -0.6157
 4147TIP3   OH234075   0.937   2.285   0.305  0.0164  0.0053 -0.1236
 4147TIP3    H134076   0.860   2.320   0.259 -0.4357 -2.0007 -1.0063
 4147TIP3    H234077   0.912   2.196   0.328  1.4718 -0.1136  1.1393
 4148TIP3   OH234078   1.063   6.287   1.002  0.2923  0.4051  0.1515
 4148TIP3    H134079   1.118   6.343   1.057  0.8410 -1.2416  1.3646
 4148TIP3    H234080   0.974   6.314   1.021  0.4795 -0.0356  1.8195
 4149TIP3   OH234081   0.679   4.450   7.663  0.1801  0.7152  0.1400
 4149TIP3    H134082   0.763   4.405   7.653 -0.0152  0.3264  0.2577
 4149TIP3    H234083   0.663   4.490   7.577  0.1636  0.2322 -0.0824
 4150TIP3   OH234084   0.643   5.820   1.786  0.0505  0.8713  0.3041
 4150TIP3    H134085   0.732   5.844   1.813  0.6091 -0.8181  0.0610
 4150TIP3    H234086   0.649   5.728   1.760 -1.3907  1.2101 -1.4591
 4151TIP3   OH234087   2.615   1.987   7.723 -0.4302 -0.2845  0.5360
 4151TIP3    H134088   2.614   2.056   7.790  2.4750  0.8099 -0.4071
 4151TIP3    H234089   2.566   2.024   7.649  0.8542  0.6864  0.1468
 4152TIP3   OH234090   5.229   0.220   1.051 -0.1398 -0.3278 -0.0273
 4152TIP3    H134091   5.194   0.220   1.140 -0.5947 -0.8315 -0.1986
 4152TIP3    H234092   5.151   0.220   0.995  0.1319 -0.7076 -0.4164
 4153TIP3   OH234093   0.482   4.259   2.782  0.0279  0.6008 -0.4186
 4153TIP3    H134094   0.507   4.350   2.763  1.0465 -0.0039 -2.1372
 4153TIP3    H234095   0.556   4.224   2.832  0.6201  0.1135 -1.6125
 4154TIP3   OH234096   6.408   2.404   6.686  0.1947  0.0588  0.2046
 4154TIP3    H134097   6.323   2.436   6.715  0.5101  0.3637  0.7939
 4154TIP3    H234098   6.397   2.309   6.682 -0.3617  0.1360 -0.3474
 4155TIP3   OH234099   1.442   6.463   8.332  0.1425  0.0329 -0.2279
 4155TIP3    H134100   1.442   6.542   8.386  0.8121 -0.3368  0.3311
 4155TIP3    H234101   1.357   6.464   8.288 -0.1583  0.6770  0.3483
 4156TIP3   OH234102   0.253   6.636   1.691 -0.1963 -0.0427 -0.4472
 4156TIP3    H134103   0.289   6.670   1.773 -0.1953 -0.1934 -0.3846
 4156TIP3    H234104   0.316   6.570   1.662 -1.3445 -1.7353  0.6838
 4157TIP3   OH234105   6.094   1.161   8.176  0.6818  0.2406  0.3479
 4157TIP3    H134106   6.189   1.172   8.168  0.4173  1.5332 -1.7289
 4157TIP3    H234107   6.067   1.126   8.090 -0.4207 -2.9623  1.8367
 4158TIP3   OH234108   3.688   0.374   0.003 -0.2183 -0.4451 -0.2692
 4158TIP3    H134109   3.637   0.321  -0.058 -0.0908  0.1777 -0.9235
 4158TIP3    H234110   3.759   0.410  -0.050 -1.1764  1.6459 -0.2128
 4159TIP3   OH234111   4.276   2.171   0.744 -0.0507 -0.7465  0.5934
 4159TIP3    H134112   4.235   2.222   0.674 -0.3424  0.1689  1.4123
 4159TIP3    H234113   4.359   2.142   0.706 -1.2841 -2.4155 -0.9947
 4160TIP3   OH234114   1.167   2.440   3.051 -0.2379  0.2999 -0.0407
 4160TIP3    H134115   1.259   2.435   3.079 -0.4813  0.2087  0.7816
 4160TIP3    H234116   1.120   2.472   3.128 -0.9599 -0.0629 -0.3147
 4161TIP3   OH234117   4.068   4.524   1.704  0.3205 -0.1955  0.4409
 4161TIP3    H134118   3.981   4.557   1.728 -0.2165 -1.1504 -0.1367
 4161TIP3    H234119   4.112   4.600   1.664 -1.0674 -0.2577 -1.3135
 4162TIP3   OH234120   6.744   2.148   0.868 -0.2245  0.4975  0.2216
 4162TIP3    H134121   6.728   2.170   0.776  0.7766  0.0023 -0.0873
 4162TIP3    H234122   6.735   2.231   0.915 -1.6839  0.5915 -0.1745
 4163TIP3   OH234123   0.941   0.343   8.250  0.0650  0.5706  0.4006
 4163TIP3    H134124   0.924   0.258   8.291  1.0312  0.7664  1.2449
 4163TIP3    H234125   0.964   0.322   8.160  1.8653 -0.2236  1.0019
 4164TIP3   OH234126   5.233   6.738   2.778  0.7417  0.4040  0.0693
 4164TIP3    H134127   5.301   6.747   2.845 -0.3270  0.4155  1.1875
 4164TIP3    H234128   5.243   6.815   2.723  1.8441  0.2380  0.0037
 4165TIP3   OH234129   4.124   4.803   1.342 -0.0119 -0.3044 -0.1639
 4165TIP3    H134130   4.160   4.871   1.284 -1.6425  1.1341  0.3989
 4165TIP3    H234131   4.035   4.789   1.308  0.2212 -2.0346 -0.1260
 4166TIP3   OH234132   3.038   5.486   7.456  0.0011 -0.2779 -0.3957
 4166TIP3    H134133   3.070   5.569   7.491 -0.0120 -0.9887  1.3892
 4166TIP3    H234134   2.949   5.505   7.425 -0.0094  0.3645  0.0174
 4167TIP3   OH234135   4.566   5.484   0.369 -0.1210 -0.8548 -0.6308
 4167TIP3    H134136   4.494   5.439   0.325  1.3004 -2.5267 -1.3530
 4167TIP3    H234137   4.638   5.422   0.368  2.3470  1.7715 -2.6643
 4168TIP3   OH234138   0.971   0.682   0.229  0.3495 -0.0126  0.1087
 4168TIP3    H134139   0.988   0.739   0.304 -0.0490  0.6639 -0.3045
 4168TIP3    H234140   0.920   0.609   0.266  1.0909 -0.2453  0.6896
 4169TIP3   OH234141   5.896   0.956   2.425  0.5583 -0.6120 -0.6577
 4169TIP3    H134142   5.812   0.910   2.416 -0.0027  0.1923  0.2251
 4169TIP3    H234143   5.927   0.932   2.513  1.3469 -1.0375 -1.0459
 4170TIP3   OH234144   3.124   4.577   2.538 -0.3688 -0.3478  0.0282
 4170TIP3    H134145   3.086   4.646   2.592 -1.4580 -0.3061 -0.7467
 4170TIP3    H234146   3.154   4.511   2.600 -0.1789  0.3850  0.7354
 4171TIP3   OH234147   1.779   1.157   7.778  0.2534  0.8742  0.9543
 4171TIP3    H134148   1.687   1.145   7.800  0.5056 -3.3016  0.4989
 4171TIP3    H234149   1.781   1.235   7.722 -3.3445 -0.0255 -0.6844
 4172TIP3   OH234150   2.242   2.002   1.511  0.4928 -0.0546  0.3682
 4172TIP3    H134151   2.273   1.913   1.526  0.3053 -0.3415 -0.8273
 4172TIP3    H234152   2.318   2.048   1.474  0.2058 -0.0949 -0.2817
 4173TIP3   OH234153   1.310   3.324   1.310 -0.4661  0.1180  0.5731
 4173TIP3    H134154   1.380   3.334   1.375  0.4837  0.2984 -0.4523
 4173TIP3    H234155   1.257   3.252   1.344  1.5296 -1.6086  0.2643
 4174TIP3   OH234156   6.580   2.877   7.672 -0.0395  0.1727  0.2823
 4174TIP3    H134157   6.635   2.820   7.618 -1.2298 -0.1113 -0.6819
 4174TIP3    H234158   6.568   2.956   7.620  3.5223  2.5109  2.5258
 4175TIP3   OH234159   4.811   2.666   2.373 -0.1321  0.2392  0.6380
 4175TIP3    H134160   4.772   2.604   2.313  1.1256 -0.7086  0.7491
 4175TIP3    H234161   4.748   2.674   2.444 -0.3444 -0.8871  0.5926
 4176TIP3   OH234162   0.848   5.184   0.816  0.4660 -0.1167 -0.1988
 4176TIP3    H134163   0.835   5.277   0.799 -2.2745 -0.0520  1.6358
 4176TIP3    H234164   0.875   5.147   0.732 -3.5354  1.5345 -2.4535
 4177TIP3   OH234165   1.397   1.953   8.746 -0.1618 -0.4269 -0.5016
 4177TIP3    H134166   1.356   2.004   8.677 -0.6252 -1.3084 -0.8826
 4177TIP3    H234167   1.402   2.013   8.820 -1.2641 -0.0147 -0.7487
 4178TIP3   OH234168   4.966   5.729   1.436  0.2020  0.0747 -0.1102
 4178TIP3    H134169   4.900   5.761   1.497  0.8428  2.5604 -0.5930
 4178TIP3    H234170   4.970   5.635   1.452 -1.6942  0.2162  1.6197
 4179TIP3   OH234171   2.962   2.093   1.061  0.0236  0.4307  0.5555
 4179TIP3    H134172   2.945   2.112   1.154 -0.8023  1.0545  0.2907
 4179TIP3    H234173   2.897   2.145   1.014 -0.4252 -0.8866 -0.3337
 4180TIP3   OH234174   6.086   6.251   1.397 -0.2655 -0.1860 -0.0268
 4180TIP3    H134175   6.115   6.328   1.447 -0.2528 -0.3553  0.2258
 4180TIP3    H234176   6.090   6.279   1.305 -2.8032  1.0246  0.1473
 4181TIP3   OH234177   2.513   1.812   1.849 -0.2356 -0.1930 -0.0226
 4181TIP3    H134178   2.597   1.829   1.808 -1.0151  0.3384 -1.5019
 4181TIP3    H234179   2.531   1.805   1.942  1.1360  2.0010 -0.0713
 4182TIP3   OH234180   2.957   3.989   2.575  0.7456  0.3442 -0.6907
 4182TIP3    H134181   2.864   3.997   2.599  0.4285  0.1467 -1.8064
 4182TIP3    H234182   3.003   3.995   2.658 -0.3660 -1.4339  0.1079
 4183TIP3   OH234183   5.448   0.984   1.513  0.2328  0.1409 -0.7560
 4183TIP3    H134184   5.451   0.950   1.423 -1.0770 -1.3557 -0.2793
 4183TIP3    H234185   5.441   0.906   1.567  2.3405  0.9260  0.7924
 4184TIP3   OH234186   3.475   5.540   2.192 -0.1846  0.1131 -0.0725
 4184TIP3    H134187   3.426   5.561   2.272 -0.2868 -0.8307  0.1269
 4184TIP3    H234188   3.411   5.497   2.136  0.0144  0.3443 -0.4799
 4185TIP3   OH234189   1.217   6.495   6.802 -0.3530 -0.0571  0.0793
 4185TIP3    H134190   1.309   6.510   6.825 -0.1320  0.8921 -1.3495
 4185TIP3    H234191   1.198   6.408   6.839  0.7607  0.2044  1.3814
 4186TIP3   OH234192   6.174   4.492   7.335  0.3635 -0.5021  0.1283
 4186TIP3    H134193   6.090   4.534   7.316  0.2940 -0.5587  0.3109
 4186TIP3    H234194   6.223   4.557   7.384 -0.0219 -0.8966  1.0546
 4187TIP3   OH234195   0.174   2.148   1.215  0.1726 -0.1992 -0.1973
 4187TIP3    H134196   0.251   2.205   1.213  0.9355 -1.1956 -0.0795
 4187TIP3    H234197   0.174   2.106   1.129  1.5941 -2.5183  0.8473
 4188TIP3   OH234198   5.854   1.537   0.872 -0.5216 -0.4696 -0.1476
 4188TIP3    H134199   5.800   1.614   0.860  0.6079  0.5378  0.9401
 4188TIP3    H234200   5.801   1.465   0.839 -2.7237  0.3840  1.2932
 4189TIP3   OH234201   5.485   1.915   7.626 -0.5805  0.0227 -0.0185
 4189TIP3    H134202   5.541   1.907   7.549 -1.4023  0.3756 -0.6779
 4189TIP3    H234203   5.396   1.916   7.590 -0.9697  0.3684  0.9283
 4190TIP3   OH234204   2.701   3.731   2.498 -0.0967 -0.5736  0.7882
 4190TIP3    H134205   2.685   3.771   2.583  0.6264  0.2617  0.5527
 4190TIP3    H234206   2.660   3.645   2.504 -1.9649  0.2974  1.1992
 4191TIP3   OH234207   5.273   4.778   7.985 -0.9185 -0.3735  0.1350
 4191TIP3    H134208   5.235   4.693   8.004  1.9560 -1.3893  2.0024
 4191TIP3    H234209   5.351   4.783   8.040  1.1112  1.9234 -2.6189
 4192TIP3   OH234210   1.058   6.448   1.759 -0.5616 -0.1362 -0.0584
 4192TIP3    H134211   1.061   6.353   1.751  0.2430 -0.1398  0.1607
 4192TIP3    H234212   1.021   6.464   1.846  4.2220 -0.4102  2.3632
 4193TIP3   OH234213   1.841   0.821   1.057  0.5651 -0.6343  0.1893
 4193TIP3    H134214   1.892   0.741   1.067 -1.2463 -1.9104 -0.3433
 4193TIP3    H234215   1.771   0.813   1.122  0.8100  0.9120  0.6811
 4194TIP3   OH234216   1.055   5.891   2.368 -0.0167  0.2302  0.1372
 4194TIP3    H134217   1.012   5.971   2.338 -0.4803  0.6080  1.6984
 4194TIP3    H234218   1.099   5.917   2.449 -0.5053 -1.1782  0.8866
 4195TIP3   OH234219   2.001   0.957   1.995 -0.2372 -0.1371  0.1971
 4195TIP3    H134220   2.065   1.027   1.985 -0.0351 -0.5655 -1.9207
 4195TIP3    H234221   1.921   1.002   2.023  0.4316  0.6597  0.8747
 4196TIP3   OH234222   6.076   2.685   7.953 -0.4942 -0.3426  0.2401
 4196TIP3    H134223   6.135   2.678   8.028 -0.1422  0.3991  0.0371
 4196TIP3    H234224   6.134   2.703   7.879 -0.9714  0.4572  0.0489
 4197TIP3   OH234225   6.159   0.280   0.596  0.1134  0.0745 -0.3164
 4197TIP3    H134226   6.078   0.298   0.549 -0.4209  0.5284  0.7444
 4197TIP3    H234227   6.137   0.293   0.688  0.9198 -1.6047  0.1427
 4198TIP3   OH234228   1.290   4.848   1.943  0.0899 -0.0536 -0.1737
 4198TIP3    H134229   1.263   4.902   1.869 -0.0151  1.4162  0.8952
 4198TIP3    H234230   1.276   4.904   2.020  1.3464 -1.0955  0.8574
 4199TIP3   OH234231   4.511   1.558   7.234 -1.0047  0.4072  0.0184
 4199TIP3    H134232   4.488   1.502   7.159 -1.2334  1.0400 -0.3918
 4199TIP3    H234233   4.486   1.507   7.311  1.1110 -1.1264 -0.2383
 4200TIP3   OH234234   5.120   6.613   8.366 -0.0723  0.1896  0.1490
 4200TIP3    H134235   5.053   6.604   8.298 -2.4683  0.4611  2.3303
 4200TIP3    H234236   5.135   6.708   8.372 -0.5442  0.2432  0.5795
 4201TIP3   OH234237   6.698   1.232   8.170  0.2281  0.3257 -0.0555
 4201TIP3    H134238   6.787   1.266   8.163 -0.3528  2.3299  1.2876
 4201TIP3    H234239   6.643   1.306   8.143 -1.0478 -0.7690 -0.5434
 4202TIP3   OH234240   4.664   2.484   2.238 -0.4267 -0.3614 -0.0905
 4202TIP3    H134241   4.713   2.451   2.162 -0.3901  0.8434 -0.6054
 4202TIP3    H234242   4.676   2.417   2.305  2.7070  0.2849  0.1375
 4203TIP3   OH234243   0.595   4.652   2.087  0.2828 -0.0320  0.2646
 4203TIP3    H134244   0.538   4.726   2.068 -0.4544 -0.9029 -1.0907
 4203TIP3    H234245   0.552   4.607   2.161 -2.4985 -2.2402 -2.3953
 4204TIP3   OH234246   2.568   0.755   0.172  0.2758  0.2223  0.3628
 4204TIP3    H134247   2.580   0.716   0.085 -1.0336 -0.1122  0.3076
 4204TIP3    H234248   2.649   0.805   0.187  0.0561  1.2816 -1.5622
 4205TIP3   OH234249   6.629   1.426   0.455 -0.6283  0.6833 -0.2168
 4205TIP3    H134250   6.674   1.356   0.408 -3.0501 -1.1337 -0.0557
 4205TIP3    H234251   6.677   1.436   0.537 -1.7193 -2.8702  1.0311
 4206TIP3   OH234252   1.146   5.034   0.136  0.3159  0.6291 -0.0800
 4206TIP3    H134253   1.155   5.027   0.231 -0.1419  0.2146 -0.0619
 4206TIP3    H234254   1.103   5.118   0.122 -1.1501 -0.0367  0.1995
 4207TIP3   OH234255   1.270   5.231   8.417  0.5158  0.2373  0.0666
 4207TIP3    H134256   1.252   5.140   8.442  2.4738 -0.1542  0.2220
 4207TIP3    H234257   1.346   5.225   8.359  0.1679  1.7292 -0.6059
 4208TIP3   OH234258   5.764   3.624   0.877  0.2856  0.4375 -0.0551
 4208TIP3    H134259   5.702   3.566   0.921  2.1747 -1.7386 -0.0892
 4208TIP3    H234260   5.780   3.694   0.940  0.5822 -0.9645  1.4970
 4209TIP3   OH234261   1.753   4.072   1.592 -0.0446  0.3494 -0.2341
 4209TIP3    H134262   1.683   4.012   1.566 -1.9083  2.3899 -0.2477
 4209TIP3    H234263   1.790   4.033   1.671 -1.0473 -0.8888 -0.3382
 4210TIP3   OH234264   0.618   3.919   7.940 -0.3245 -0.3287 -0.2760
 4210TIP3    H134265   0.599   4.009   7.968  0.8209 -0.5024  1.1553
 4210TIP3    H234266   0.713   3.916   7.930 -0.2028 -1.6873  0.9219
 4211TIP3   OH234267   0.903   6.063   6.980  0.0862 -0.1401  1.0470
 4211TIP3    H134268   0.813   6.035   6.995 -0.4314  1.2774  0.7544
 4211TIP3    H234269   0.954   6.017   7.047 -0.8635 -0.8563  1.2973
 4212TIP3   OH234270   4.429   6.279   7.353 -0.1094 -0.4954  0.0040
 4212TIP3    H134271   4.433   6.297   7.259  2.2343 -0.7724  0.0007
 4212TIP3    H234272   4.347   6.320   7.382 -0.2298  0.7144 -1.9102
 4213TIP3   OH234273   5.787   2.823   2.664 -0.0171  0.3714  0.2297
 4213TIP3    H134274   5.776   2.832   2.759 -0.7141  0.1874  0.1686
 4213TIP3    H234275   5.766   2.732   2.646  0.0952  0.4121 -0.1064
 4214TIP3   OH234276   5.275   3.432   8.837  0.0773 -0.1000  0.6691
 4214TIP3    H134277   5.204   3.378   8.873 -1.5329 -0.0312 -2.1240
 4214TIP3    H234278   5.274   3.511   8.891 -1.6005 -0.3596  1.0839
 4215TIP3   OH234279   2.550   1.136   8.861 -0.2007  0.1308  0.1176
 4215TIP3    H134280   2.603   1.056   8.863 -1.5974 -0.8433 -0.1266
 4215TIP3    H234281   2.595   1.196   8.920  0.9129 -0.8151  0.2753
 4216TIP3   OH234282   4.674   0.845   0.707 -0.0616  0.4157  0.1490
 4216TIP3    H134283   4.669   0.779   0.776 -2.3436  0.9635  0.6048
 4216TIP3    H234284   4.643   0.925   0.749  0.0541  1.1271 -1.0950
 4217TIP3   OH234285   5.679   1.333   7.222 -0.1620 -0.1075  0.3051
 4217TIP3    H134286   5.724   1.262   7.268 -0.9077 -2.1787 -1.9052
 4217TIP3    H234287   5.692   1.313   7.129 -1.8904  1.7104 -0.4107
 4218TIP3   OH234288   1.073   3.601   0.013  0.7260  0.2303  0.4619
 4218TIP3    H134289   1.089   3.561  -0.073  0.0693  1.9696 -0.5017
 4218TIP3    H234290   1.020   3.678  -0.005 -0.0740  0.2289  2.5301
 4219TIP3   OH234291   0.789   5.306   1.157  0.5795  0.3577 -0.0484
 4219TIP3    H134292   0.801   5.361   1.080 -0.4747 -0.8593 -1.1153
 4219TIP3    H234293   0.871   5.257   1.165  0.5430  0.1985 -0.6321
 4220TIP3   OH234294   0.763   1.712   1.548 -0.6471 -0.4994  0.4298
 4220TIP3    H134295   0.668   1.716   1.558 -1.2640 -4.7039 -1.7026
 4220TIP3    H234296   0.794   1.672   1.630 -0.8988 -0.5290  0.5120
 4221TIP3   OH234297   1.647   5.813   0.411  0.5512  0.0490  0.4667
 4221TIP3    H134298   1.671   5.726   0.379 -0.1398  0.0199  0.0168
 4221TIP3    H234299   1.730   5.860   0.417  0.7528 -0.0521 -1.0701
 4222TIP3   OH234300   5.379   0.301   0.763  0.0725 -0.0084  0.1170
 4222TIP3    H134301   5.301   0.352   0.741  0.3990  0.5636  0.2603
 4222TIP3    H234302   5.350   0.242   0.832  0.1405  1.3048  1.3165
 4223TIP3   OH234303   5.308   0.052   7.972  0.1652  0.2940 -0.5772
 4223TIP3    H134304   5.382   0.112   7.961  0.1205  1.3054  3.2309
 4223TIP3    H234305   5.233   0.099   7.936  0.9136  0.3165 -2.1905
 4224TIP3   OH234306   3.073   1.478   7.561 -0.0464 -0.2261  0.0597
 4224TIP3    H134307   3.057   1.563   7.518 -0.1226  1.3502  2.9554
 4224TIP3    H234308   3.151   1.493   7.615  0.9817 -2.5918 -0.6204
 4225TIP3   OH234309   6.329   2.789   1.936  0.3312 -0.3360  0.7011
 4225TIP3    H134310   6.385   2.732   1.884  1.3397 -0.4313  1.8512
 4225TIP3    H234311   6.343   2.877   1.899  1.0084 -0.4069  0.7861
 4226TIP3   OH234312   3.675   5.219   6.855  0.8569  0.0261  0.4348
 4226TIP3    H134313   3.669   5.143   6.799  0.3696  0.9260 -0.7758
 4226TIP3    H234314   3.699   5.184   6.941  0.7947 -1.4513 -0.1265
 4227TIP3   OH234315   3.905   5.578   2.111  0.7295  0.3206  0.3240
 4227TIP3    H134316   3.975   5.614   2.056  0.4623 -0.5597 -0.6285
 4227TIP3    H234317   3.826   5.589   2.058  0.6695 -1.8546 -0.1400
 4228TIP3   OH234318   2.269   2.766   2.851 -0.0144 -0.3851  0.5533
 4228TIP3    H134319   2.194   2.784   2.795  0.1342 -0.2931  0.3825
 4228TIP3    H234320   2.282   2.671   2.844 -0.3319 -0.4540  0.8614
 4229TIP3   OH234321   0.705   1.080   0.265  0.0678 -0.0958  0.0131
 4229TIP3    H134322   0.652   1.054   0.340 -0.2582  3.5800  1.2487
 4229TIP3    H234323   0.688   1.174   0.255  4.5797  0.8474 -0.9788
 4230TIP3   OH234324   5.537   2.415   8.004 -0.2372 -0.1111  0.0869
 4230TIP3    H134325   5.584   2.376   7.930  1.4905 -1.1272  1.6236
 4230TIP3    H234326   5.603   2.421   8.073 -1.8149  0.7135  1.5918
 4231TIP3   OH234327   2.673   3.837   1.645 -0.1441  0.2973 -0.2525
 4231TIP3    H134328   2.752   3.811   1.597 -1.0853 -0.3728 -1.4996
 4231TIP3    H234329   2.704   3.853   1.734  1.6794  1.7185 -1.0844
 4232TIP3   OH234330   1.167   0.474   0.405 -0.1214 -0.1140 -0.0798
 4232TIP3    H134331   1.207   0.395   0.441 -1.1420 -0.8366 -0.4736
 4232TIP3    H234332   1.168   0.460   0.310  0.0422  0.5225 -0.1758
 4233TIP3   OH234333   4.108   4.458   2.499 -0.5058  0.0014 -0.2889
 4233TIP3    H134334   4.110   4.530   2.562 -1.1721  0.0827 -0.3496
 4233TIP3    H234335   4.200   4.434   2.486 -0.3347  0.2740  0.3832
 4234TIP3   OH234336   6.128   5.863   8.070  0.1959  0.7216 -0.2461
 4234TIP3    H134337   6.217   5.835   8.049  0.2330  0.8511 -0.2613
 4234TIP3    H234338   6.075   5.784   8.057  0.2727  0.7054 -0.4700
 4235TIP3   OH234339   1.711   5.842   0.729 -0.6065 -0.2733 -0.4382
 4235TIP3    H134340   1.758   5.871   0.651  1.4138 -1.1486  0.3706
 4235TIP3    H234341   1.767   5.869   0.802 -0.6913 -2.4294  0.5286
 4236TIP3   OH234342   2.169   1.339   6.923 -0.4404  0.0570 -0.1281
 4236TIP3    H134343   2.201   1.255   6.887 -1.0453 -0.3202  0.2103
 4236TIP3    H234344   2.191   1.403   6.855  0.6652 -0.2587 -0.0857
 4237TIP3   OH234345   1.207   0.339   0.850 -0.1615 -0.0236 -0.1586
 4237TIP3    H134346   1.125   0.290   0.855 -0.3251  0.3967  1.9590
 4237TIP3    H234347   1.206   0.397   0.926  1.4028  1.1178 -0.9361
 4238TIP3   OH234348   2.557   2.588   6.945  0.5213 -0.6006 -0.0894
 4238TIP3    H134349   2.615   2.558   6.875  0.1071  0.0684 -0.7324
 4238TIP3    H234350   2.520   2.508   6.981  3.0001 -1.1878  1.3936
 4239TIP3   OH234351   3.365   6.099   1.542 -0.1509 -0.3045 -0.2550
 4239TIP3    H134352   3.383   6.141   1.626  1.7551 -2.3896  0.4589
 4239TIP3    H234353   3.399   6.160   1.477  0.7459  0.1710  0.6358
 4240TIP3   OH234354   2.402   5.250   2.414  0.1014  0.0367  0.0315
 4240TIP3    H134355   2.411   5.239   2.509  0.4003 -0.2256 -0.0249
 4240TIP3    H234356   2.341   5.323   2.404 -0.0965 -0.0705  0.4260
 4241TIP3   OH234357   3.007   3.000   2.374  0.2478  0.2380 -0.0227
 4241TIP3    H134358   3.031   3.053   2.450 -0.1831  0.3724  0.0219
 4241TIP3    H234359   3.019   2.910   2.404 -1.1737  0.2383  0.6579
 4242TIP3   OH234360   4.924   3.035   0.268 -0.6790 -0.5851 -0.1238
 4242TIP3    H134361   4.841   3.076   0.293  0.2892  3.7882 -2.9705
 4242TIP3    H234362   4.985   3.061   0.337 -0.5701  0.9946 -0.7779
 4243TIP3   OH234363   3.471   0.010   0.344 -0.3326  0.3597  0.2696
 4243TIP3    H134364   3.403   0.066   0.307 -0.8106 -0.8160 -0.6704
 4243TIP3    H234365   3.482  -0.061   0.281  0.9082 -0.1328  0.9910
 4244TIP3   OH234366   1.273   6.604   0.038  0.6194  0.3207 -0.0549
 4244TIP3    H134367   1.329   6.549   0.094  2.0106  1.6844 -0.0490
 4244TIP3    H234368   1.185   6.589   0.072  0.7850 -2.5364 -0.5882
 4245TIP3   OH234369   4.436   3.276   7.303 -0.2947 -0.1730 -0.0997
 4245TIP3    H134370   4.497   3.212   7.266  0.6836  0.4043  0.4886
 4245TIP3    H234371   4.351   3.251   7.266 -0.0845 -2.2446  0.6356
 4246TIP3   OH234372   2.346   1.755   1.568 -0.2363  1.0397 -0.1206
 4246TIP3    H134373   2.286   1.680   1.572  1.2856 -0.3572 -1.7176
 4246TIP3    H234374   2.368   1.772   1.660 -0.4073 -0.7030  0.2934
 4247TIP3   OH234375   6.674   2.728   7.369 -0.3556 -0.1391  0.5318
 4247TIP3    H134376   6.606   2.747   7.304 -0.8538 -0.4492  0.9444
 4247TIP3    H234377   6.741   2.680   7.321 -0.6496 -0.2317  0.2131
 4248TIP3   OH234378   0.450   5.060   1.400 -0.1616  0.3499 -0.0423
 4248TIP3    H134379   0.402   5.103   1.329 -0.6313 -1.6768 -1.0257
 4248TIP3    H234380   0.510   5.127   1.432 -1.3355  1.9460 -0.9911
 4249TIP3   OH234381   4.474   4.650   0.274  0.4926 -0.3510  0.4890
 4249TIP3    H134382   4.431   4.565   0.285  0.1588 -0.3624 -0.7342
 4249TIP3    H234383   4.566   4.629   0.258  0.3141 -0.5298 -0.3622
 4250TIP3   OH234384   0.200   0.327   7.347 -0.3414 -0.4300 -0.6341
 4250TIP3    H134385   0.118   0.349   7.391 -0.7069  0.0411 -1.5214
 4250TIP3    H234386   0.224   0.406   7.298  0.2546 -0.8009 -0.9610
 4251TIP3   OH234387   5.376   3.741   2.117 -0.4607 -0.1430  0.0566
 4251TIP3    H134388   5.335   3.662   2.152 -1.8906  0.8394  0.7200
 4251TIP3    H234389   5.372   3.803   2.190  0.5659  0.5621 -0.4756
 4252TIP3   OH234390   3.474   5.254   8.841 -0.4533 -0.2732  0.1104
 4252TIP3    H134391   3.469   5.251   8.936 -1.9681  0.3684  0.0710
 4252TIP3    H234392   3.402   5.200   8.810  0.5082 -1.1482 -0.7097
 4253TIP3   OH234393   4.794   6.322   1.311  0.2638 -0.2248 -0.3989
 4253TIP3    H134394   4.784   6.331   1.406 -0.3993 -1.0828 -0.3724
 4253TIP3    H234395   4.723   6.264   1.285 -0.1470  0.7815 -1.5714
 4254TIP3   OH234396   0.040   2.670   1.470  0.2845  0.6301 -0.5203
 4254TIP3    H134397   0.084   2.754   1.458  0.7401  0.4219 -0.3114
 4254TIP3    H234398  -0.050   2.687   1.443  0.2694  1.3022 -0.0815
 4255TIP3   OH234399   1.806   6.366   7.054  0.0573 -0.1982  0.0912
 4255TIP3    H134400   1.781   6.307   7.125 -0.3381 -1.6214 -1.1782
 4255TIP3    H234401   1.753   6.445   7.069 -1.6014 -1.2890  0.2136
 4256TIP3   OH234402   4.036   4.276   7.730 -0.2663 -0.5778 -0.6517
 4256TIP3    H134403   4.011   4.281   7.638 -1.5242  0.1434 -0.2930
 4256TIP3    H234404   3.953   4.272   7.777  0.2566  1.4643  0.5679
 4257TIP3   OH234405   1.843   0.446   2.603 -0.3401  0.6999 -0.7227
 4257TIP3    H134406   1.850   0.397   2.684  0.9424 -0.3488 -1.4240
 4257TIP3    H234407   1.773   0.509   2.618 -2.4740 -1.7217  0.0191
 4258TIP3   OH234408   1.539   0.208   1.685  0.8467  0.9509 -0.4032
 4258TIP3    H134409   1.548   0.264   1.608  1.3419  1.4013 -0.0245
 4258TIP3    H234410   1.461   0.156   1.667 -1.1005  3.4133  0.2277
 4259TIP3   OH234411   1.016   4.174   8.726  0.2263  0.5783 -0.3325
 4259TIP3    H134412   1.048   4.264   8.731 -1.4914  1.2873 -1.2024
 4259TIP3    H234413   0.931   4.176   8.771 -0.3670 -0.3323 -1.3628
 4260TIP3   OH234414   5.123   2.985   1.727 -0.0548  0.8554 -0.0326
 4260TIP3    H134415   5.111   3.024   1.641  2.0271 -0.8880 -1.2252
 4260TIP3    H234416   5.216   2.994   1.746 -0.0254 -0.8452  0.9361
 4261TIP3   OH234417   3.132   0.325   8.290 -0.3951 -0.4994 -0.3390
 4261TIP3    H134418   3.121   0.297   8.199 -1.1015 -1.6761  0.0670
 4261TIP3    H234419   3.048   0.304   8.331 -0.1950  0.3024  0.5185
 4262TIP3   OH234420   4.357   1.814   8.529  0.0739 -0.2699  0.4398
 4262TIP3    H134421   4.415   1.848   8.460 -0.9168  2.7794  0.9607
 4262TIP3    H234422   4.413   1.755   8.579  1.8144  0.1111 -0.9343
 4263TIP3   OH234423   3.101   5.310   0.625 -0.2501  0.3107  0.2787
 4263TIP3    H134424   3.160   5.384   0.644 -1.9937  1.2894  2.2556
 4263TIP3    H234425   3.133   5.239   0.681  1.6098 -0.6649 -1.8364
 4264TIP3   OH234426   3.537   0.934   1.853 -0.4436  0.1152  0.6916
 4264TIP3    H134427   3.622   0.890   1.844 -0.1692  0.5263  1.1992
 4264TIP3    H234428   3.520   0.934   1.947 -0.4079  1.1389  0.7100
 4265TIP3   OH234429   3.099   4.527   7.948 -0.4669  0.3419  0.3982
 4265TIP3    H134430   3.190   4.548   7.926 -1.1689  0.7300 -2.4672
 4265TIP3    H234431   3.050   4.605   7.922 -1.7409 -0.2305  1.0153
 4266TIP3   OH234432   0.853   2.071   7.680  0.0212  0.2886  0.2328
 4266TIP3    H134433   0.851   1.989   7.728  0.4037  1.3836  2.2066
 4266TIP3    H234434   0.935   2.068   7.631  1.2243  0.4513  2.1336
 4267TIP3   OH234435   3.758   0.195   1.233  0.0582  0.3216  0.7815
 4267TIP3    H134436   3.672   0.207   1.194  0.4967  1.0524  0.0260
 4267TIP3    H234437   3.740   0.178   1.326 -0.8417  2.1514  0.9908
 4268TIP3   OH234438   2.981   0.743   8.742 -0.5700  0.6576  0.6275
 4268TIP3    H134439   3.000   0.740   8.648 -0.9116  2.6287  0.4523
 4268TIP3    H234440   3.061   0.709   8.783  0.2446  1.3073 -0.3382
 4269TIP3   OH234441   3.381   0.891   2.424  0.2301  1.1216  0.8115
 4269TIP3    H134442   3.468   0.856   2.440  1.2837  3.1561 -0.0592
 4269TIP3    H234443   3.389   0.985   2.444 -1.2345  1.7202 -1.0653
 4270TIP3   OH234444   0.441   3.222   1.918  0.0589 -0.0350  0.0943
 4270TIP3    H134445   0.462   3.216   1.825  3.7189  1.9461  0.6073
 4270TIP3    H234446   0.380   3.296   1.923 -1.5185 -1.2168 -0.8051
 4271TIP3   OH234447   1.172   2.441   7.929  0.2214  0.4835 -0.2777
 4271TIP3    H134448   1.227   2.457   7.852  0.3034  0.5847 -0.1993
 4271TIP3    H234449   1.229   2.395   7.990 -0.2073 -0.7465 -0.7635
 4272TIP3   OH234450   2.382   5.541   1.519  0.0278 -0.1944  0.0194
 4272TIP3    H134451   2.424   5.542   1.433  1.6611  0.9283  0.7637
 4272TIP3    H234452   2.410   5.459   1.558 -0.4861 -0.5776 -0.4089
 4273TIP3   OH234453   6.310   2.803   3.122  0.0127 -0.4857 -0.2660
 4273TIP3    H134454   6.297   2.748   3.200 -2.5296 -1.9425 -1.5881
 4273TIP3    H234455   6.272   2.888   3.147 -0.6082 -0.8802  0.1863
 4274TIP3   OH234456   2.518   5.623   0.819 -0.0622 -0.0074 -1.2207
 4274TIP3    H134457   2.576   5.685   0.774  0.2597  0.1324 -0.6314
 4274TIP3    H234458   2.504   5.552   0.756 -0.2964  0.5807 -1.8416
 4275TIP3   OH234459   3.303   3.914   2.508  0.8162  0.3122 -0.4975
 4275TIP3    H134460   3.301   3.998   2.554 -0.1815 -0.9251  1.9210
 4275TIP3    H234461   3.336   3.935   2.420  1.6425  3.0239  0.3626
 4276TIP3   OH234462   5.620   1.411   1.962  0.1214 -0.1785  0.2783
 4276TIP3    H134463   5.684   1.370   1.904  0.6521 -0.2866  0.9407
 4276TIP3    H234464   5.560   1.340   1.985  0.6594 -0.4392  0.8967
 4277TIP3   OH234465   4.945   6.701   7.864 -0.2915 -0.1065  0.3480
 4277TIP3    H134466   4.904   6.780   7.900  0.5797 -0.0934  1.3364
 4277TIP3    H234467   4.894   6.682   7.785 -0.4849  1.4657  0.0634
 4278TIP3   OH234468   5.864   0.290   0.536 -0.3604  0.0397  0.0390
 4278TIP3    H134469   5.849   0.282   0.630  2.4595  0.1407  0.5771
 4278TIP3    H234470   5.819   0.214   0.498  1.2266 -1.9477  1.8704
 4279TIP3   OH234471   4.209   2.380   7.763  0.4790 -0.5240  0.5124
 4279TIP3    H134472   4.266   2.456   7.750  1.8809 -1.6640 -0.3281
 4279TIP3    H234473   4.163   2.371   7.679 -0.5949  0.0795  1.0144
 4280TIP3   OH234474   5.135   5.266   7.494  0.2109 -0.1036  0.3106
 4280TIP3    H134475   5.196   5.206   7.451  0.5909  0.3650  0.1849
 4280TIP3    H234476   5.058   5.212   7.515 -0.3309 -0.1828 -1.6657
 4281TIP3   OH234477   1.001   4.717   0.303  0.0643 -0.6894  0.4067
 4281TIP3    H134478   0.933   4.699   0.368 -0.5547  1.1350  0.3185
 4281TIP3    H234479   0.953   4.723   0.220 -0.2094  3.2575  0.6788
 4282TIP3   OH234480   3.067   2.965   1.999  0.2221 -0.1853 -0.2079
 4282TIP3    H134481   3.090   2.924   1.915 -0.8601  0.7399 -0.9928
 4282TIP3    H234482   2.997   2.910   2.034 -1.0522  0.8016 -1.1367
 4283TIP3   OH234483   5.476   0.046   7.375  0.0122 -0.3805 -0.1803
 4283TIP3    H134484   5.500   0.052   7.283 -0.3385 -1.8923 -0.3882
 4283TIP3    H234485   5.410  -0.023   7.378  0.8347 -1.1350  1.3611
 4284TIP3   OH234486   0.527   1.669   8.532 -0.7182  0.2908  0.3030
 4284TIP3    H134487   0.588   1.598   8.512 -1.0053  0.0525  0.2622
 4284TIP3    H234488   0.449   1.625   8.565 -0.5055  0.6500  1.3030
 4285TIP3   OH234489   5.874   1.368   1.100 -0.7271  0.8492 -0.5351
 4285TIP3    H134490   5.899   1.284   1.062  0.5157  1.3401 -0.8291
 4285TIP3    H234491   5.906   1.434   1.038  1.9388  1.7035  1.5358
 4286TIP3   OH234492   0.909   5.292   1.548 -0.3629  0.1819  0.1144
 4286TIP3    H134493   0.940   5.380   1.572 -0.5942  0.7348 -1.4909
 4286TIP3    H234494   0.903   5.245   1.632  2.0745  0.9290  0.7952
 4287TIP3   OH234495   4.471   4.747   1.537 -0.6353  0.4356 -0.4080
 4287TIP3    H134496   4.548   4.751   1.593 -0.2879  0.7792 -0.9073
 4287TIP3    H234497   4.492   4.802   1.462 -0.5761 -1.0137 -1.5109
 4288TIP3   OH234498   1.906   1.541   0.297  0.3406  0.3784 -0.0387
 4288TIP3    H134499   1.867   1.468   0.344  1.8521  1.1555  2.6969
 4288TIP3    H234500   1.842   1.564   0.230 -1.5039 -1.5436  0.9394
 4289TIP3   OH234501   0.037   0.594   7.981  0.0154 -0.3735  0.0588
 4289TIP3    H134502   0.021   0.553   8.065 -2.0752 -0.9063 -0.5431
 4289TIP3    H234503   0.028   0.523   7.917  0.2234  0.2769 -0.7161
 4290TIP3   OH234504   5.524   1.915   1.670  0.3098  0.4129  0.0420
 4290TIP3    H134505   5.526   1.920   1.766 -1.0092 -1.8728  0.2646
 4290TIP3    H234506   5.565   1.996   1.641  0.8599  1.1184  2.5364
 4291TIP3   OH234507   0.458   0.877   2.095  0.3621  0.6963  0.5089
 4291TIP3    H134508   0.528   0.835   2.145  1.0423  0.6959 -0.4258
 4291TIP3    H234509   0.435   0.954   2.148 -0.9408 -0.7892  2.2620
 4292TIP3   OH234510   2.093   3.023   0.281 -0.3004 -0.3256 -0.3312
 4292TIP3    H134511   2.115   3.091   0.217  0.2482 -0.7017 -0.5411
 4292TIP3    H234512   2.014   3.056   0.323  1.4868  1.8712  1.5818
 4293TIP3   OH234513   3.612   6.735   8.540 -0.3112 -0.3432 -0.2741
 4293TIP3    H134514   3.564   6.656   8.514 -0.6440 -0.0961 -0.4238
 4293TIP3    H234515   3.697   6.702   8.571 -0.2081 -0.7170 -0.9121
 4294TIP3   OH234516   3.849   6.110   8.485 -0.1547  0.0654 -0.6562
 4294TIP3    H134517   3.795   6.189   8.480 -0.8417 -0.3290  0.1302
 4294TIP3    H234518   3.787   6.038   8.474  0.2837 -0.3851 -0.2712
 4295TIP3   OH234519   3.210   4.384   1.232  0.0037 -0.0345  0.2979
 4295TIP3    H134520   3.274   4.435   1.183  0.5637 -0.6021  0.4268
 4295TIP3    H234521   3.254   4.361   1.314 -0.7292  0.4412  0.8350
 4296TIP3   OH234522   5.995   0.505   7.913  0.2666  0.1890  0.0039
 4296TIP3    H134523   6.078   0.547   7.936  0.1411  0.7879 -0.5852
 4296TIP3    H234524   6.000   0.418   7.952  1.7307 -0.2751 -1.1204
 4297TIP3   OH234525   0.146   4.044   1.487  0.5222  0.3498 -0.3566
 4297TIP3    H134526   0.076   4.101   1.458  0.6943  1.1388  0.7041
 4297TIP3    H234527   0.226   4.085   1.453  0.4405 -1.2460 -2.6835
 4298TIP3   OH234528   4.493   1.863   1.085  0.4681 -0.2520  0.2929
 4298TIP3    H134529   4.478   1.779   1.042  1.0005  0.3018 -1.0342
 4298TIP3    H234530   4.438   1.925   1.037 -2.0082 -0.2381  2.9442
 4299TIP3   OH234531   4.889   3.721   8.485  0.0524  0.4138  0.3457
 4299TIP3    H134532   4.949   3.796   8.480  0.5053  0.2118  1.9577
 4299TIP3    H234533   4.900   3.675   8.402  0.2321  1.7719 -0.4162
 4300TIP3   OH234534   1.466   5.011   1.547  0.4842  1.0006 -0.3053
 4300TIP3    H134535   1.530   5.045   1.486  0.4920 -0.1623 -0.9873
 4300TIP3    H234536   1.463   4.917   1.528 -0.8883  0.9182  0.2004
 4301TIP3   OH234537   5.952   1.621   7.390  0.2040 -0.1646 -0.1265
 4301TIP3    H134538   6.012   1.556   7.426  0.3130  0.8556  1.6036
 4301TIP3    H234539   5.908   1.575   7.318  1.9794 -1.3778 -0.4875
 4302TIP3   OH234540   6.064   5.884   1.479 -0.2810 -0.5720 -0.5953
 4302TIP3    H134541   6.082   5.977   1.494 -0.1300 -0.4009 -1.7571
 4302TIP3    H234542   6.084   5.842   1.563 -2.1513  0.6685  0.5694
 4303TIP3   OH234543   6.307   4.363   1.024  0.3945 -0.5343 -0.9077
 4303TIP3    H134544   6.270   4.374   0.937  0.4821  2.3640 -0.6679
 4303TIP3    H234545   6.231   4.365   1.083  0.4359 -1.1301 -0.8339
 4304TIP3   OH234546   0.081   4.112   0.193 -0.5374 -0.7131  0.1993
 4304TIP3    H134547   0.158   4.094   0.141 -1.1865 -1.3801 -0.5502
 4304TIP3    H234548   0.068   4.206   0.185 -0.7401 -0.8323 -1.0154
 4305TIP3   OH234549   5.465   5.883   2.660 -0.2166 -0.0004  0.3032
 4305TIP3    H134550   5.496   5.931   2.583 -0.6348 -0.4371 -0.1388
 4305TIP3    H234551   5.456   5.951   2.727 -1.3051  0.6606 -0.4610
 4306TIP3   OH234552   5.898   1.147   0.887  0.3767 -0.2572 -0.1510
 4306TIP3    H134553   5.861   1.130   0.801  1.1349  1.7213 -0.9206
 4306TIP3    H234554   5.831   1.114   0.948  0.1096 -2.2757 -1.4277
 4307TIP3   OH234555   4.121   0.211   6.926  0.3793  0.4471 -0.3352
 4307TIP3    H134556   4.088   0.257   6.848 -0.0449 -2.2967 -1.9216
 4307TIP3    H234557   4.157   0.129   6.891  2.9318  0.4070  2.0881
 4308TIP3   OH234558   3.571   1.059   0.983  0.0225 -0.0485 -0.1437
 4308TIP3    H134559   3.606   1.126   1.042  0.1390 -0.8654  0.7507
 4308TIP3    H234560   3.648   1.028   0.934  0.0281  0.2196 -0.3071
 4309TIP3   OH234561   3.583   4.867   7.791  0.4541 -0.0859  0.0855
 4309TIP3    H134562   3.493   4.873   7.759 -0.0753  1.1819  1.6950
 4309TIP3    H234563   3.592   4.777   7.821  0.6572 -1.0464 -2.5545
 4310TIP3   OH234564   4.678   2.137   8.598 -0.6672 -0.0754 -0.1524
 4310TIP3    H134565   4.630   2.180   8.669  1.3951  2.1451  0.0176
 4310TIP3    H234566   4.638   2.171   8.518 -0.4293  0.5329 -0.0185
 4311TIP3   OH234567   3.648   2.104   1.062  0.3564  0.2186  0.0250
 4311TIP3    H134568   3.604   2.097   1.146  2.3432  0.2861  1.1216
 4311TIP3    H234569   3.718   2.039   1.066  0.2693 -0.0311 -1.7356
 4312TIP3   OH234570   0.205   4.894   1.272 -0.5431  0.8443  0.4792
 4312TIP3    H134571   0.216   4.802   1.297 -1.7541  0.0303 -1.6955
 4312TIP3    H234572   0.292   4.924   1.249 -0.5751 -1.0560 -2.6498
 4313TIP3   OH234573   6.114   5.082   1.289 -0.4888  0.1788 -0.0446
 4313TIP3    H134574   6.186   5.142   1.271  0.1113  0.5187  2.9786
 4313TIP3    H234575   6.040   5.139   1.311 -1.1453 -0.1946 -1.1971
 4314TIP3   OH234576   2.124   4.993   7.068 -0.4034  0.5450 -0.4718
 4314TIP3    H134577   2.041   4.948   7.053 -1.4224  1.3278  2.2153
 4314TIP3    H234578   2.180   4.926   7.108 -0.3097  0.4670 -0.7294
 4315TIP3   OH234579   4.765   4.530   6.919 -0.0989 -0.3249  0.1104
 4315TIP3    H134580   4.728   4.615   6.894 -0.1082 -0.8570 -1.8976
 4315TIP3    H234581   4.860   4.542   6.915 -0.0339  0.1558  2.0565
 4316TIP3   OH234582   1.520   6.707   8.695  0.0429 -0.1786  0.1589
 4316TIP3    H134583   1.582   6.774   8.664  1.2519 -1.8916 -1.3283
 4316TIP3    H234584   1.573   6.647   8.746 -0.1069 -2.1860 -1.8969
 4317TIP3   OH234585   3.574   6.729   8.848  0.3287 -0.2717 -0.5253
 4317TIP3    H134586   3.654   6.779   8.831 -0.6196  0.2698 -4.4085
 4317TIP3    H234587   3.503   6.788   8.821 -1.2862 -1.5233  0.7585
 4318TIP3   OH234588   2.148   6.717   6.944  0.0676  0.2229  0.7271
 4318TIP3    H134589   2.224   6.685   6.895 -0.7594  0.4142 -0.7304
 4318TIP3    H234590   2.106   6.638   6.977 -0.2673 -0.0382 -0.2776
 4319TIP3   OH234591   6.343   2.304   0.605  0.2882  0.1449 -0.0228
 4319TIP3    H134592   6.360   2.210   0.608  1.0591  0.2608 -0.4844
 4319TIP3    H234593   6.374   2.337   0.690 -1.2714 -0.2004  0.7182
 4320TIP3   OH234594   1.144   5.292   0.700 -0.6503  0.3723  0.2152
 4320TIP3    H134595   1.064   5.281   0.649 -0.4636  0.9780 -0.2235
 4320TIP3    H234596   1.209   5.238   0.656 -0.5605  0.6782 -0.0322
 4321TIP3   OH234597   0.122   0.614   2.631  0.2096  0.4676  0.5146
 4321TIP3    H134598   0.125   0.534   2.577 -0.2353  0.3796  0.6188
 4321TIP3    H234599   0.047   0.601   2.689 -1.5353  2.0552 -1.2158
 4322TIP3   OH234600   5.028   4.222   8.174  0.1918 -0.0940 -0.3607
 4322TIP3    H134601   5.042   4.136   8.214  0.4977  0.4781  0.8157
 4322TIP3    H234602   4.955   4.209   8.113 -1.2280 -0.7459  1.3625
 4323TIP3   OH234603   3.501   4.293   7.875 -0.4729  0.1026 -0.6340
 4323TIP3    H134604   3.452   4.211   7.885 -1.0732  0.3335 -1.6141
 4323TIP3    H234605   3.462   4.335   7.799  2.2494 -0.4216 -2.4535
 4324TIP3   OH234606   4.181   5.793   6.921  0.0581  0.6062  0.3332
 4324TIP3    H134607   4.139   5.873   6.888  2.1190  2.1099  1.1103
 4324TIP3    H234608   4.210   5.748   6.842 -0.9760  0.6843 -0.1168
 4325TIP3   OH234609   0.156   5.585   7.697  0.2316 -0.7987  0.1035
 4325TIP3    H134610   0.083   5.560   7.753 -0.2705  1.2402  0.4474
 4325TIP3    H234611   0.117   5.642   7.630  1.1870 -1.3424 -0.9461
 4326TIP3   OH234612   2.339   1.857   8.021 -0.1898 -0.1210 -0.4486
 4326TIP3    H134613   2.329   1.951   8.035  1.7969  0.0017  0.5489
 4326TIP3    H234614   2.272   1.817   8.076 -0.8746  0.7001 -0.6693
 4327TIP3   OH234615   0.207   2.753   7.620 -0.1443 -0.5072  0.3196
 4327TIP3    H134616   0.225   2.818   7.552  0.5889 -0.7844  0.2419
 4327TIP3    H234617   0.226   2.669   7.579  0.5601 -0.6622  0.9441
 4328TIP3   OH234618   1.736   0.552   1.913  0.3683 -0.5454 -0.4200
 4328TIP3    H134619   1.789   0.475   1.895 -0.2675 -0.9766 -0.4546
 4328TIP3    H234620   1.652   0.518   1.943  0.6254  0.1427  1.2068
 4329TIP3   OH234621   1.591   4.149   1.327  0.1692  0.1580 -0.3268
 4329TIP3    H134622   1.591   4.232   1.280 -1.2387 -0.7657 -2.0616
 4329TIP3    H234623   1.596   4.174   1.419 -0.8797  2.2004 -0.7665
 4330TIP3   OH234624   6.556   2.935   1.208  0.2079  0.2212 -0.6438
 4330TIP3    H134625   6.523   2.950   1.119 -0.6121  2.3184 -0.0563
 4330TIP3    H234626   6.478   2.910   1.258  0.3146  0.8663 -0.1488
 4331TIP3   OH234627   4.857   6.405   7.381 -0.2948 -0.4227  0.1476
 4331TIP3    H134628   4.811   6.478   7.340  0.4357 -0.4017 -0.6594
 4331TIP3    H234629   4.789   6.340   7.398 -0.9220  0.3406  0.6804
 4332TIP3   OH234630   5.280   5.864   1.817  0.0619 -0.5138  0.0759
 4332TIP3    H134631   5.267   5.800   1.886 -1.6595  0.6989  0.9290
 4332TIP3    H234632   5.367   5.901   1.835 -0.7122  0.4080  2.1603
 4333TIP3   OH234633   6.195   6.672   0.494  0.2697  0.1404 -0.1049
 4333TIP3    H134634   6.199   6.706   0.404  1.9783  0.6737  0.1377
 4333TIP3    H234635   6.272   6.616   0.501 -1.3521 -2.2176  0.1787
 4334TIP3   OH234636   5.002   4.412   2.268 -0.1873 -0.2995  0.5199
 4334TIP3    H134637   5.027   4.501   2.291 -2.1000  0.2813  0.5624
 4334TIP3    H234638   4.965   4.376   2.348  1.6188 -1.5682  0.8237
 4335TIP3   OH234639   6.182   1.477   8.879 -0.5678 -0.8145 -0.2479
 4335TIP3    H134640   6.196   1.548   8.941 -0.3830 -1.2229  0.1915
 4335TIP3    H234641   6.089   1.455   8.887 -0.7776 -0.1837 -0.8738
 4336TIP3   OH234642   4.280   5.673   8.838 -0.4300  0.3074 -0.4622
 4336TIP3    H134643   4.187   5.694   8.830 -1.0502 -1.2621  1.7958
 4336TIP3    H234644   4.310   5.728   8.910  0.2528  0.3373 -0.7661
 4337TIP3   OH234645   0.046   4.598   8.220 -0.2094  0.0602 -0.6015
 4337TIP3    H134646   0.001   4.519   8.248 -0.7601  0.3573 -0.6110
 4337TIP3    H234647   0.031   4.602   8.125  0.6825 -0.3511 -0.7692
 4338TIP3   OH234648   6.175   4.868   1.899 -0.2524  0.1777  0.4517
 4338TIP3    H134649   6.151   4.887   1.990  1.5715 -0.5584  1.1352
 4338TIP3    H234650   6.094   4.838   1.859 -1.5197  2.2134  1.3195
 4339TIP3   OH234651   1.779   0.055   0.862  0.0799 -0.0596 -0.1255
 4339TIP3    H134652   1.780   0.017   0.774  1.5016  0.2653 -0.2759
 4339TIP3    H234653   1.737  -0.011   0.916  0.6402 -0.9691 -0.7665
 4340TIP3   OH234654   5.811   6.102   0.949 -0.1755  1.1664  0.1054
 4340TIP3    H134655   5.837   6.145   1.031  0.6943  0.7979  0.0341
 4340TIP3    H234656   5.716   6.105   0.950 -0.1942  0.7249  1.3654
 4341TIP3   OH234657   1.828   2.826   1.223  0.1233 -0.3130  0.5977
 4341TIP3    H134658   1.741   2.824   1.184 -0.0760  0.0595  1.0167
 4341TIP3    H234659   1.888   2.809   1.149 -0.4029 -3.2269  0.7321
 4342TIP3   OH234660   3.981   1.910   7.861 -0.1811  0.1732 -0.6656
 4342TIP3    H134661   3.940   1.850   7.798 -0.3602  0.0053 -0.3895
 4342TIP3    H234662   3.909   1.964   7.892  0.0400  0.7923 -1.1932
 4343TIP3   OH234663   3.857   0.652   7.620  0.1658 -0.2482  0.0507
 4343TIP3    H134664   3.913   0.717   7.576 -0.7777  0.6778  0.1883
 4343TIP3    H234665   3.876   0.663   7.713  0.2134 -0.3785  0.0571
 4344TIP3   OH234666   0.450   6.781   0.073 -0.1536 -0.8822  0.1055
 4344TIP3    H134667   0.502   6.704   0.049  0.9105 -0.7099  1.6807
 4344TIP3    H234668   0.473   6.846   0.007 -0.0366 -1.4933 -0.4720
 4345TIP3   OH234669   4.341   2.548   7.132 -0.1151 -0.1086  0.2269
 4345TIP3    H134670   4.338   2.533   7.226 -0.8807 -0.4223  0.1607
 4345TIP3    H234671   4.405   2.485   7.099 -2.9216 -3.1266  0.0050
 4346TIP3   OH234672   2.613   5.415   0.306 -0.2555  0.0190  0.0784
 4346TIP3    H134673   2.647   5.407   0.217  0.3070  0.0903  0.2838
 4346TIP3    H234674   2.667   5.356   0.358 -1.2386 -0.7886  0.1983
 4347TIP3   OH234675   2.972   6.792   8.230  0.1999  0.7206 -0.0197
 4347TIP3    H134676   2.932   6.721   8.180 -0.6411  1.2418 -0.1179
 4347TIP3    H234677   2.999   6.856   8.165  2.1763 -0.0597 -0.0396
 4348TIP3   OH234678   6.186   3.591   8.506 -0.8348 -0.0785 -0.1374
 4348TIP3    H134679   6.221   3.626   8.588 -0.9253  0.8729 -0.4954
 4348TIP3    H234680   6.161   3.668   8.455  2.7316 -0.3314 -2.6752
 4349TIP3   OH234681   5.795   0.601   8.595  0.2508 -0.0224 -0.6325
 4349TIP3    H134682   5.875   0.616   8.545 -0.1039 -0.4518 -1.3448
 4349TIP3    H234683   5.809   0.649   8.677  1.9771 -1.5152  0.0244
 4350TIP3   OH234684   5.818   3.224   2.421 -0.3523  0.2140  0.3548
 4350TIP3    H134685   5.812   3.292   2.354  0.2951  0.4214  0.4984
 4350TIP3    H234686   5.727   3.206   2.446 -0.5635  0.5430 -0.1640
 4351TIP3   OH234687   3.119   5.353   7.848  0.1153  0.0008 -0.3095
 4351TIP3    H134688   3.172   5.279   7.820  0.3761  0.4636 -1.0640
 4351TIP3    H234689   3.055   5.366   7.778  0.2830  0.6883 -0.3467
 4352TIP3   OH234690   0.615   6.202   8.182  0.2458  0.2542  0.3886
 4352TIP3    H134691   0.567   6.201   8.265 -0.5634 -0.3872 -0.0721
 4352TIP3    H234692   0.579   6.128   8.132  1.8985 -0.4121  0.1214
 4353TIP3   OH234693   3.269   6.519   6.401 -0.1188 -0.0786 -0.0772
 4353TIP3    H134694   3.336   6.504   6.335  1.2476 -0.0682  1.2543
 4353TIP3    H234695   3.308   6.581   6.462 -1.3326 -0.0895  0.7610
 4354TIP3   OH234696   5.101   0.133   1.286 -0.0641  0.0309 -0.0308
 4354TIP3    H134697   5.131   0.224   1.295 -0.0407 -0.1072  1.4811
 4354TIP3    H234698   5.062   0.112   1.370  0.7201 -1.6594 -0.0541
 4355TIP3   OH234699   1.097   1.766   7.934  0.5796  0.2382  0.2338
 4355TIP3    H134700   1.041   1.814   7.873  1.5112  0.5773 -0.3768
 4355TIP3    H234701   1.113   1.682   7.891  1.0196  0.3737  0.1274
 4356TIP3   OH234702   3.934   0.575   1.774 -0.5455 -0.2585 -0.6288
 4356TIP3    H134703   3.868   0.535   1.831 -0.9637 -0.1070 -1.0001
 4356TIP3    H234704   4.001   0.607   1.834 -0.9115 -0.2325 -0.2298
 4357TIP3   OH234705   4.910   1.895   8.024  0.5418  0.3231 -0.1106
 4357TIP3    H134706   4.982   1.903   7.961  2.2075  1.5445  1.8334
 4357TIP3    H234707   4.897   1.983   8.058 -0.1367 -0.3282  1.4206
 4358TIP3   OH234708   4.404   4.656   7.659  0.2316  0.1169  0.2266
 4358TIP3    H134709   4.485   4.636   7.612  0.3315  0.2915  0.3261
 4358TIP3    H234710   4.359   4.572   7.665  0.3045  0.0597 -0.0220
 4359TIP3   OH234711   6.485   3.321   1.926  0.8483  0.2597  0.5480
 4359TIP3    H134712   6.543   3.304   1.851 -1.4734  0.8306 -1.5359
 4359TIP3    H234713   6.444   3.236   1.943 -1.3128  0.8322 -1.3591
 4360TIP3   OH234714   6.320   6.281   1.860 -0.0904 -0.1118  0.2516
 4360TIP3    H134715   6.370   6.199   1.863  1.4812  0.7774 -0.4574
 4360TIP3    H234716   6.278   6.280   1.774  0.6309  0.1907 -0.1175
 4361TIP3   OH234717   2.793   2.953   1.465 -0.3194  0.0569 -0.2334
 4361TIP3    H134718   2.820   3.028   1.412 -3.2264 -0.4716 -2.7367
 4361TIP3    H234719   2.804   2.878   1.407 -2.5849 -0.6819  0.1964
 4362TIP3   OH234720   6.274   3.086   8.712  0.0073  0.2308 -0.2394
 4362TIP3    H134721   6.201   3.147   8.728  1.2784  1.7830 -0.1232
 4362TIP3    H234722   6.232   3.010   8.672 -1.8703  0.4833  1.0573
 4363TIP3   OH234723   4.774   4.182   1.109 -0.2052 -0.4261  0.5465
 4363TIP3    H134724   4.754   4.236   1.185 -0.1261 -0.0019  0.2658
 4363TIP3    H234725   4.726   4.223   1.037  0.4604 -0.2785  0.1770
 4364TIP3   OH234726   4.996   1.219   0.531 -0.1711  0.0294 -0.0593
 4364TIP3    H134727   4.963   1.205   0.442 -1.6386 -1.7956  0.7027
 4364TIP3    H234728   4.931   1.177   0.588  0.3379  1.7718  1.9588
 4365TIP3   OH234729   0.998   1.719   0.434  0.2386  0.6810 -0.0262
 4365TIP3    H134730   1.039   1.790   0.385  0.9423  2.8685  3.4357
 4365TIP3    H234731   1.069   1.656   0.448  0.2450  0.4569 -0.9611
 4366TIP3   OH234732   3.414   3.368   0.694 -0.4187 -0.0544  0.4705
 4366TIP3    H134733   3.341   3.415   0.656  1.0850  1.3332 -0.8548
 4366TIP3    H234734   3.428   3.410   0.779  0.1641  1.1318 -0.1968
 4367TIP3   OH234735   5.456   1.676   1.513  0.6287 -0.1247 -0.2871
 4367TIP3    H134736   5.388   1.691   1.580  1.4398 -2.1292  1.0872
 4367TIP3    H234737   5.514   1.751   1.520  0.1877  0.1440  0.6504
 4368TIP3   OH234738   2.753   2.090   1.771 -0.1568  0.2572 -0.3376
 4368TIP3    H134739   2.750   2.182   1.797 -0.8671  0.1201  0.0866
 4368TIP3    H234740   2.829   2.054   1.817  0.1729  0.6480 -0.5733
 4369TIP3   OH234741   1.631   2.798   8.276 -0.4481  0.5295  0.3928
 4369TIP3    H134742   1.635   2.786   8.181  1.2354  1.3612  0.3102
 4369TIP3    H234743   1.723   2.800   8.303 -0.9102 -0.1872  2.1209
 4370TIP3   OH234744   2.375   2.733   1.298 -0.4378 -0.2671  0.4582
 4370TIP3    H134745   2.378   2.643   1.330 -1.4611 -1.4162 -2.3903
 4370TIP3    H234746   2.332   2.781   1.369  0.0283 -1.9982  2.0035
 4371TIP3   OH234747   4.459   6.554   1.404  0.1694  0.0366  0.1186
 4371TIP3    H134748   4.441   6.480   1.461 -1.6673 -0.1777 -0.6652
 4371TIP3    H234749   4.463   6.630   1.463 -0.2737 -0.3733  0.6844
 4372TIP3   OH234750   3.216   1.036   1.957  0.3742 -0.1705 -0.1847
 4372TIP3    H134751   3.231   1.131   1.953 -0.2316 -0.0259  0.6351
 4372TIP3    H234752   3.250   1.011   2.043  1.9598 -0.9875 -1.0040
 4373TIP3   OH234753   5.227   2.608   8.825 -0.3522  0.2941 -0.1792
 4373TIP3    H134754   5.237   2.566   8.740  0.7232  1.6710 -0.7830
 4373TIP3    H234755   5.314   2.645   8.844 -0.8987  1.0788  0.9255
 4374TIP3   OH234756   1.337   5.156   0.504  0.2190 -0.1417 -0.2261
 4374TIP3    H134757   1.291   5.126   0.426  1.6885 -1.6805 -0.5760
 4374TIP3    H234758   1.369   5.243   0.482 -3.5683  1.6604  0.5402
 4375TIP3   OH234759   6.321   3.403   1.249 -0.7302  0.0573 -0.1116
 4375TIP3    H134760   6.337   3.373   1.159 -1.8603 -2.0621  0.3412
 4375TIP3    H234761   6.394   3.369   1.299 -0.4839  0.6148 -0.0840
 4376TIP3   OH234762   1.089   5.244   7.325 -0.3321  0.1706  0.1723
 4376TIP3    H134763   1.161   5.232   7.387  0.6848 -1.2159 -1.1947
 4376TIP3    H234764   1.110   5.326   7.280  0.9063 -0.6315 -0.7921
 4377TIP3   OH234765   5.676   1.366   0.754 -0.3210  0.0286  0.1813
 4377TIP3    H134766   5.682   1.379   0.659 -2.7862  1.0693  0.0915
 4377TIP3    H234767   5.648   1.274   0.763  0.6747 -0.3091 -0.0293
 4378TIP3   OH234768   4.753   4.540   7.777 -0.5525 -0.1411  0.1541
 4378TIP3    H134769   4.727   4.484   7.850  0.6200 -1.9864 -0.7715
 4378TIP3    H234770   4.841   4.570   7.800 -0.5611  0.0541 -0.0647
 4379TIP3   OH234771   1.183   4.081   8.003  0.1379 -0.2100  1.3363
 4379TIP3    H134772   1.153   4.076   7.912  1.7513  1.0595  0.6831
 4379TIP3    H234773   1.109   4.049   8.054 -0.4853 -1.8344 -0.4550
 4380TIP3   OH234774   6.773   3.122   0.877 -0.2836 -0.1884 -0.6951
 4380TIP3    H134775   6.867   3.137   0.868 -0.7662  1.8034 -3.2394
 4380TIP3    H234776   6.756   3.137   0.970  1.7782  0.0392 -0.2956
 4381TIP3   OH234777   5.194   5.735   2.046  0.0900  0.6823  0.0866
 4381TIP3    H134778   5.167   5.660   1.993 -0.2968  0.4540  0.5982
 4381TIP3    H234779   5.247   5.697   2.116  1.3943  1.0802 -0.6509
 4382TIP3   OH234780   1.769   4.441   8.804 -0.4785  0.0365 -0.0197
 4382TIP3    H134781   1.821   4.486   8.738 -1.2387 -0.9755 -1.3610
 4382TIP3    H234782   1.680   4.475   8.792 -0.3756  0.9208  1.4854
 4383TIP3   OH234783   0.022   5.760   8.771 -0.0429 -0.1829 -0.2082
 4383TIP3    H134784  -0.037   5.697   8.730 -1.4817  2.1432 -1.9420
 4383TIP3    H234785  -0.004   5.760   8.863 -0.8651 -1.1748 -0.4176
 4384TIP3   OH234786   5.370   3.601   0.677  0.1874 -0.5735 -0.7921
 4384TIP3    H134787   5.435   3.655   0.630  1.3956  0.2364  1.6422
 4384TIP3    H234788   5.355   3.527   0.619  0.7594  0.8876 -2.9306
 4385TIP3   OH234789   2.856   5.317   2.202  0.1364 -0.1999 -0.3486
 4385TIP3    H134790   2.879   5.410   2.195  1.0696 -0.4868 -1.4232
 4385TIP3    H234791   2.898   5.276   2.126  1.7392 -1.9124  1.3591
 4386TIP3   OH234792   4.496   5.659   7.477  0.1857  0.3488  0.5036
 4386TIP3    H134793   4.442   5.592   7.435  0.2827 -1.1030  2.5315
 4386TIP3    H234794   4.439   5.699   7.543 -0.1548  3.0067 -1.2531
 4387TIP3   OH234795   5.452   2.743   8.590 -0.4554  0.4626  0.4279
 4387TIP3    H134796   5.362   2.724   8.564  0.6706 -3.2691 -1.4714
 4387TIP3    H234797   5.445   2.767   8.682 -3.4044  0.6159  0.2705
 4388TIP3   OH234798   5.472   6.761   1.871 -0.3022 -0.1908 -0.4712
 4388TIP3    H134799   5.382   6.771   1.904  0.3253  1.3264  0.9426
 4388TIP3    H234800   5.463   6.707   1.793 -2.1736 -2.0391  0.9006
 4389TIP3   OH234801   3.155   0.946   1.165 -0.4089 -0.3621  0.0124
 4389TIP3    H134802   3.215   0.936   1.239 -1.3216 -1.4223  0.6334
 4389TIP3    H234803   3.072   0.912   1.197 -0.6803 -1.3601 -1.6753
 4390TIP3   OH234804   5.030   5.381   1.557  0.3826 -0.0359  0.3124
 4390TIP3    H134805   4.957   5.346   1.608  0.9898 -0.5515  0.8638
 4390TIP3    H234806   5.060   5.307   1.504  0.4937  0.1764  0.0780
 4391TIP3   OH234807   5.938   4.893   0.918  0.2620  0.8317 -0.5216
 4391TIP3    H134808   5.864   4.954   0.924 -0.5930 -0.2313  0.2872
 4391TIP3    H234809   5.918   4.826   0.984  1.8493  0.4026 -0.4439
 4392TIP3   OH234810   1.672   2.216   1.872  0.7684 -0.8753  0.2988
 4392TIP3    H134811   1.711   2.128   1.876  1.0415 -0.8614 -1.5710
 4392TIP3    H234812   1.578   2.200   1.876  0.8384 -1.1419  1.2592
 4393TIP3   OH234813   5.183   2.717   1.506  0.0392 -0.6523 -0.4161
 4393TIP3    H134814   5.242   2.651   1.542 -0.1559 -0.4027  0.3826
 4393TIP3    H234815   5.238   2.794   1.493  0.0225 -0.6136 -0.2601
 4394TIP3   OH234816   2.651   4.966   8.183 -0.0451 -0.5118  0.0840
 4394TIP3    H134817   2.655   4.935   8.092  0.4621 -1.6553  0.4855
 4394TIP3    H234818   2.638   4.887   8.235 -0.5655  0.1628  1.0030
 4395TIP3   OH234819   2.810   0.005   1.299  0.2144  0.0907  0.0626
 4395TIP3    H134820   2.862  -0.067   1.263  1.3896 -0.2760  2.3308
 4395TIP3    H234821   2.827   0.079   1.239 -0.1446 -1.1798 -1.6792
 4396TIP3   OH234822   3.559   1.847   1.237  0.3336 -0.3382  1.0459
 4396TIP3    H134823   3.500   1.902   1.186  0.5725  1.4965  2.6502
 4396TIP3    H234824   3.501   1.797   1.295  0.2365  0.3099  1.5237
 4397TIP3   OH234825   6.603   3.754   2.116  0.0294  0.5050 -0.1419
 4397TIP3    H134826   6.638   3.665   2.109  0.1101  0.5077  0.2111
 4397TIP3    H234827   6.597   3.785   2.026  1.2531  0.6267 -0.1875
 4398TIP3   OH234828   4.748   5.068   7.207 -0.2674 -0.1632  0.0396
 4398TIP3    H134829   4.662   5.091   7.172 -0.1148 -0.9346 -0.8666
 4398TIP3    H234830   4.803   5.053   7.130  0.4968 -0.3554  0.6065
 4399TIP3   OH234831   0.517   3.077   8.843  0.9246  0.3912  0.5704
 4399TIP3    H134832   0.511   2.994   8.794  1.0193  0.5468  0.2898
 4399TIP3    H234833   0.607   3.106   8.828  1.0209  0.3298  1.0255
 4400TIP3   OH234834   2.910   5.337   8.316  0.0342  0.2993 -0.1409
 4400TIP3    H134835   2.957   5.295   8.244  2.1514  1.5830  0.3726
 4400TIP3    H234836   2.921   5.278   8.390 -0.4125 -0.0789 -0.3735
 4401TIP3   OH234837   0.117   4.249   1.096  0.2419 -0.1664  0.0719
 4401TIP3    H134838   0.077   4.297   1.024 -1.3478  0.3488  1.2268
 4401TIP3    H234839   0.205   4.285   1.104 -0.0234  0.6924 -0.7734
 4402TIP3   OH234840   1.671   2.211   8.156  0.0112  0.5157  0.8124
 4402TIP3    H134841   1.638   2.289   8.200  0.2714  0.0600  1.8539
 4402TIP3    H234842   1.620   2.139   8.194  0.4279  0.0841  0.5608
 4403TIP3   OH234843   1.919   1.872   0.639 -0.0363  0.2450 -0.2523
 4403TIP3    H134844   1.982   1.941   0.661  0.3904 -0.3427  0.4357
 4403TIP3    H234845   1.834   1.907   0.665  0.1232  0.7018 -0.3508
 4404TIP3   OH234846   4.925   5.094   0.232 -0.2025 -0.2890  0.4481
 4404TIP3    H134847   4.957   5.098   0.142 -0.1196  0.0797  0.4908
 4404TIP3    H234848   5.001   5.120   0.285 -0.5371  0.5065  0.5557
 4405TIP3   OH234849   4.122   6.704   7.137  0.8080 -0.0649  0.2365
 4405TIP3    H134850   4.161   6.742   7.059  0.9136  0.5929  0.6053
 4405TIP3    H234851   4.074   6.627   7.105  1.3531 -0.1505 -0.3863
 4406TIP3   OH234852   1.030   3.199   0.980 -0.0953 -0.1170 -0.1251
 4406TIP3    H134853   1.115   3.232   0.948  0.4818  0.8982  2.2533
 4406TIP3    H234854   1.049   3.112   1.013 -0.3733 -0.5804 -1.1658
 4407TIP3   OH234855   1.670   0.151   7.481 -0.4630  0.3711  0.9282
 4407TIP3    H134856   1.610   0.125   7.411 -0.7241  1.9529  0.5237
 4407TIP3    H234857   1.729   0.214   7.440  1.4390 -1.0205  1.3645
 4408TIP3   OH234858   4.636   4.830   2.521  0.7599  0.2260 -0.0138
 4408TIP3    H134859   4.592   4.748   2.543  0.5785  0.1737 -0.5512
 4408TIP3    H234860   4.597   4.896   2.578  0.5518  0.0293  0.0683
 4409TIP3   OH234861   4.443   5.250   7.449  0.1802 -0.1738  0.0556
 4409TIP3    H134862   4.519   5.307   7.439  0.9872 -1.3083 -0.5735
 4409TIP3    H234863   4.396   5.259   7.367 -1.4901  2.0143  1.1574
 4410TIP3   OH234864   4.259   0.581   1.454 -0.0086 -0.1874  0.0290
 4410TIP3    H134865   4.281   0.640   1.525  0.0587 -1.0782  0.7697
 4410TIP3    H234866   4.165   0.593   1.442  0.1946  0.8912 -0.6085
 4411TIP3   OH234867   2.442   3.440   1.913  0.0738 -0.1529  0.3182
 4411TIP3    H134868   2.509   3.458   1.848 -1.0195  0.6120 -0.6244
 4411TIP3    H234869   2.482   3.466   1.997  0.7073  0.9244 -0.2979
 4412TIP3   OH234870   5.035   5.691   8.413  0.1601 -0.3398  0.2049
 4412TIP3    H134871   4.941   5.707   8.418  0.2164 -0.2634  1.0698
 4412TIP3    H234872   5.072   5.735   8.489  0.6880 -1.8065  0.8346
 4413TIP3   OH234873   4.337   3.535   2.356  0.2522 -0.2891 -0.6197
 4413TIP3    H134874   4.255   3.562   2.400  0.9104  1.9281 -0.6306
 4413TIP3    H234875   4.315   3.452   2.315 -2.0309  0.2480 -0.6542
 4414TIP3   OH234876   4.959   5.339   0.548  0.1131 -0.2335  0.3846
 4414TIP3    H134877   5.031   5.275   0.548  0.1367 -0.2191 -0.3886
 4414TIP3    H234878   4.948   5.363   0.640  1.6612  0.3849  0.4438
 4415TIP3   OH234879   3.357   3.969   6.699 -0.6318 -0.2240  0.3891
 4415TIP3    H134880   3.412   3.896   6.729 -1.3486 -0.8436  0.2293
 4415TIP3    H234881   3.311   3.934   6.623 -0.3064  0.6951 -0.2541
 4416TIP3   OH234882   5.715   0.696   2.474 -0.0675 -0.3568  0.3887
 4416TIP3    H134883   5.740   0.684   2.566  0.4833 -1.8747  0.0689
 4416TIP3    H234884   5.747   0.617   2.430 -0.7590  0.1196 -1.0236
 4417TIP3   OH234885   3.223   1.177   2.302  0.7454  0.0916  0.4585
 4417TIP3    H134886   3.177   1.248   2.347  0.7898  1.7644 -1.9430
 4417TIP3    H234887   3.314   1.205   2.298  0.7545 -0.0317 -0.5738
 4418TIP3   OH234888   1.429   2.846   0.729  0.1586  0.2122 -0.2806
 4418TIP3    H134889   1.470   2.861   0.643 -0.0404 -1.0902 -0.6269
 4418TIP3    H234890   1.498   2.803   0.780  1.0029  2.8252  0.9627
 4419TIP3   OH234891   5.205   3.105   8.733 -0.2206  0.5119 -0.1915
 4419TIP3    H134892   5.282   3.059   8.766  1.5123  3.0304 -0.4872
 4419TIP3    H234893   5.168   3.149   8.810 -0.5160  0.4947 -0.3198
 4420TIP3   OH234894   6.626   1.636   8.359 -0.5222 -0.0290  0.2242
 4420TIP3    H134895   6.587   1.694   8.424 -3.4650 -1.3256 -0.2399
 4420TIP3    H234896   6.552   1.603   8.308  1.4658 -0.7659 -2.4080
 4421TIP3   OH234897   1.981   1.247   7.502 -0.6412 -0.3575  0.1644
 4421TIP3    H134898   1.911   1.312   7.512 -0.5260  0.2187 -2.1489
 4421TIP3    H234899   1.936   1.168   7.474 -0.3748  0.5318 -3.2790
 4422TIP3   OH234900   3.659   0.844   1.270 -0.4149  0.0084 -0.0748
 4422TIP3    H134901   3.749   0.863   1.245 -0.1773  1.2011  1.5147
 4422TIP3    H234902   3.625   0.788   1.200  1.9718 -1.5923 -0.0596
 4423TIP3   OH234903   3.484   4.014   0.012  0.3153  0.4098  0.0230
 4423TIP3    H134904   3.459   3.927  -0.019 -0.4151  0.7437 -0.3607
 4423TIP3    H234905   3.472   4.010   0.106 -0.9444  0.4582 -0.1115
 4424TIP3   OH234906   2.896   2.752   2.120  0.4825 -0.0951 -0.3717
 4424TIP3    H134907   2.840   2.725   2.193  1.8763 -2.1641  0.0181
 4424TIP3    H234908   2.891   2.680   2.058  2.5555 -0.3108 -0.3689
 4425TIP3   OH234909   3.832   6.489   1.042 -0.5917  0.0227  0.7639
 4425TIP3    H134910   3.764   6.523   0.984 -0.1297  2.1910  1.4035
 4425TIP3    H234911   3.817   6.534   1.126  0.7210 -0.5738  1.3500
 4426TIP3   OH234912   3.527   3.938   2.351  0.2897 -0.0686 -0.1313
 4426TIP3    H134913   3.550   3.851   2.383 -0.9649 -0.2708  0.3050
 4426TIP3    H234914   3.535   3.933   2.256  2.5982  0.0855  0.0132
 4427TIP3   OH234915   6.784   2.678   1.077  0.8424 -0.4682  0.3548
 4427TIP3    H134916   6.839   2.605   1.046  0.4066 -0.6750  0.0588
 4427TIP3    H234917   6.748   2.646   1.160  0.8733 -0.4805  0.3637
 4428TIP3   OH234918   6.373   3.720   0.125 -0.4091 -0.2147  0.0186
 4428TIP3    H134919   6.285   3.723   0.088  1.0929  0.9176 -4.0206
 4428TIP3    H234920   6.379   3.633   0.164 -1.9268 -2.3731 -3.9095
 4429TIP3   OH234921   0.410   0.184   1.202 -0.2080 -0.1826  0.4550
 4429TIP3    H134922   0.502   0.165   1.181  0.9783  1.9935  3.0891
 4429TIP3    H234923   0.403   0.170   1.296 -2.4374  0.3527  0.4346
 4430TIP3   OH234924   4.745   5.370   1.592 -0.7800 -0.3052  0.0913
 4430TIP3    H134925   4.685   5.298   1.612 -1.3652  0.2499  0.3946
 4430TIP3    H234926   4.760   5.364   1.498 -0.4915 -1.0669  0.1810
 4431TIP3   OH234927   1.519   6.019   1.778  0.2758 -0.1505  0.5021
 4431TIP3    H134928   1.481   5.960   1.713 -1.0459 -0.1939  1.2873
 4431TIP3    H234929   1.519   5.969   1.859  0.2783  0.5165  0.9188
 4432TIP3   OH234930   2.833   3.781   8.903  0.4252 -0.9244 -0.6607
 4432TIP3    H134931   2.834   3.686   8.892 -0.2086 -0.7501 -2.7094
 4432TIP3    H234932   2.894   3.813   8.837 -0.7454  0.1596 -1.2538
 4433TIP3   OH234933   4.811   5.284   3.070 -0.3976  0.6250 -0.3171
 4433TIP3    H134934   4.837   5.371   3.099 -2.6256  1.2112  0.1250
 4433TIP3    H234935   4.743   5.300   3.004  0.1309 -0.7909 -1.2712
 4434TIP3   OH234936   0.338   4.883   1.579  0.3993  0.0238 -0.2213
 4434TIP3    H134937   0.356   4.938   1.503  2.7569  0.6449  0.6889
 4434TIP3    H234938   0.281   4.814   1.546 -1.4655  2.1617 -1.7458
 4435TIP3   OH234939   2.319   6.772   0.146  0.3111  0.5194 -0.4782
 4435TIP3    H134940   2.243   6.734   0.190 -0.0140  1.3581 -0.3049
 4435TIP3    H234941   2.314   6.739   0.056 -0.6255  1.0839 -0.6410
 4436TIP3   OH234942   3.316   1.114   7.980  0.2741 -0.2690 -0.5752
 4436TIP3    H134943   3.261   1.189   7.955  0.1631  0.4473  1.5613
 4436TIP3    H234944   3.405   1.150   7.985  0.2700 -0.3257  0.1079
 4437TIP3   OH234945   1.384   4.249   7.951  0.1989 -0.0172  0.2647
 4437TIP3    H134946   1.429   4.257   8.035  0.9802  0.0158 -0.1518
 4437TIP3    H234947   1.305   4.199   7.971  0.0046  0.6343  1.1535
 4438TIP3   OH234948   2.038   0.477   7.220  0.0638  0.7921 -0.5460
 4438TIP3    H134949   2.037   0.490   7.125 -0.3943  0.7853 -0.5439
 4438TIP3    H234950   2.106   0.537   7.252  2.4742 -1.4497 -1.1902
 4439TIP3   OH234951   3.030   6.220   2.608 -0.2744  0.1426  0.0427
 4439TIP3    H134952   2.962   6.159   2.638 -0.9652  0.3344 -1.0979
 4439TIP3    H234953   3.002   6.305   2.641 -1.0719  0.3654 -1.1508
 4440TIP3   OH234954   0.545   4.504   8.664  0.4326 -0.1413  0.0427
 4440TIP3    H134955   0.632   4.517   8.700  1.2040 -1.2465 -1.3388
 4440TIP3    H234956   0.507   4.433   8.715  0.4746  0.0908  0.3987
 4441TIP3   OH234957   2.677   0.048   0.894 -0.3999  0.6047  0.0850
 4441TIP3    H134958   2.730  -0.032   0.893 -1.8056 -0.3631  0.1442
 4441TIP3    H234959   2.659   0.066   0.802 -2.1346 -0.6060  0.1371
 4442TIP3   OH234960   5.833   5.322   0.179 -0.8669  0.2504  1.0009
 4442TIP3    H134961   5.815   5.416   0.186 -1.9842 -0.0238  1.9875
 4442TIP3    H234962   5.859   5.310   0.088 -1.8802  1.3223  0.5468
 4443TIP3   OH234963   4.009   4.052   8.879 -0.2677  0.1029  0.2104
 4443TIP3    H134964   3.930   4.103   8.862  0.3514  0.6671 -1.0530
 4443TIP3    H234965   4.071   4.079   8.811  0.6948 -1.0223  0.6049
 4444TIP3   OH234966   2.348   5.454   1.162  0.1853  0.5016 -0.1367
 4444TIP3    H134967   2.394   5.538   1.161  2.5060 -0.6269 -2.6378
 4444TIP3    H234968   2.404   5.396   1.214  0.1884 -0.1883 -0.8794
 4445TIP3   OH234969   2.283   6.549   1.891  0.3171  0.3215  0.5540
 4445TIP3    H134970   2.286   6.643   1.878  0.1261  0.3407  0.6455
 4445TIP3    H234971   2.304   6.512   1.805 -1.7419  0.4512 -0.0451
 4446TIP3   OH234972   4.172   5.401   1.843 -0.4998 -0.0725 -0.2122
 4446TIP3    H134973   4.235   5.459   1.800 -0.3047  0.3254  0.5889
 4446TIP3    H234974   4.205   5.392   1.933 -2.4269  1.4454  0.7173
 4447TIP3   OH234975   3.022   1.269   7.052  0.2359 -0.0233 -0.1245
 4447TIP3    H134976   2.947   1.322   7.027  0.3010 -0.1988 -0.6860
 4447TIP3    H234977   3.088   1.286   6.985  1.5471  1.8742  1.5351
 4448TIP3   OH234978   6.060   5.683   8.451  0.1241  0.0816  0.2454
 4448TIP3    H134979   6.142   5.722   8.480  0.9430 -0.4055 -1.3095
 4448TIP3    H234980   6.009   5.757   8.418  0.3805  0.2433  0.2076
 4449TIP3   OH234981   3.086   6.640   1.937  0.2183  0.5142  0.2353
 4449TIP3    H134982   3.102   6.656   2.031 -0.2937 -0.2433  0.4619
 4449TIP3    H234983   3.031   6.562   1.936  2.4321 -1.1326 -0.7982
 4450TIP3   OH234984   0.506   3.446   7.836 -1.2451  0.3513  0.1606
 4450TIP3    H134985   0.568   3.482   7.899 -1.1092  1.5333 -0.6233
 4450TIP3    H234986   0.536   3.356   7.821  0.3580  0.9210 -0.2809
 4451TIP3   OH234987   3.822   5.856   1.432  0.6098  0.3057 -0.4759
 4451TIP3    H134988   3.845   5.938   1.387 -1.9462  2.0534  1.1119
 4451TIP3    H234989   3.896   5.840   1.491  0.3812  2.6425  0.5807
 4452TIP3   OH234990   0.554   3.502   7.071 -0.1893 -0.4544  0.5569
 4452TIP3    H134991   0.551   3.570   7.004 -1.3151  0.5516  1.5913
 4452TIP3    H234992   0.502   3.430   7.035 -2.1498  0.6930  0.9562
 4453TIP3   OH234993   6.390   5.015   7.903 -0.3469  0.1942  0.3066
 4453TIP3    H134994   6.322   4.947   7.905  0.7676 -1.0529 -1.1742
 4453TIP3    H234995   6.456   4.985   7.966 -0.7551  0.9783  1.1335
 4454TIP3   OH234996   1.246   3.770   0.506  0.5760 -0.0052 -0.0251
 4454TIP3    H134997   1.295   3.831   0.562  2.0648  0.6347 -1.9066
 4454TIP3    H234998   1.311   3.706   0.477  0.1603  0.3477 -1.8847
 4455TIP3   OH234999   1.300   2.143   8.563 -0.4555 -0.6092 -0.0605
 4455TIP3    H135000   1.257   2.191   8.634 -2.1845 -0.7009 -0.9845
 4455TIP3    H235001   1.238   2.148   8.490  0.5781 -1.8597 -1.0682
 4456TIP3   OH235002   4.804   5.950   7.262  0.4669  0.4840 -0.1899
 4456TIP3    H135003   4.761   6.036   7.270 -0.1941  0.3086 -1.6816
 4456TIP3    H235004   4.859   5.958   7.184  3.2922  0.7140  1.6663
 4457TIP3   OH235005   4.220   2.547   8.878 -0.4540 -0.1275  0.3653
 4457TIP3    H135006   4.284   2.609   8.843  0.0692 -0.9573 -0.1896
 4457TIP3    H235007   4.224   2.560   8.973 -0.3301  0.6561  0.2617
 4458TIP3   OH235008   1.746   2.912   7.183  0.0875 -0.2559  0.5836
 4458TIP3    H135009   1.733   2.831   7.233 -3.5051  0.5757  1.2267
 4458TIP3    H235010   1.801   2.966   7.239  0.4027 -1.2798  1.3007
 4459TIP3   OH235011   5.327   2.732   2.152  0.0200  0.6117 -0.3382
 4459TIP3    H135012   5.395   2.726   2.085  1.2073 -0.0996  0.8881
 4459TIP3    H235013   5.303   2.825   2.153  0.5899  0.7756 -1.1504
 4460TIP3   OH235014   2.825   2.443   6.982 -0.6844 -0.3085  0.2990
 4460TIP3    H135015   2.813   2.385   7.057  4.0356 -2.6461 -0.3767
 4460TIP3    H235016   2.786   2.396   6.908 -0.0470 -0.9387  0.3539
 4461TIP3   OH235017   5.099   0.577   0.848  0.0697 -0.0524  0.9059
 4461TIP3    H135018   5.037   0.628   0.797 -0.4513 -0.7287  0.8550
 4461TIP3    H235019   5.180   0.578   0.797 -0.5444 -1.0185 -0.1151
 4462TIP3   OH235020   5.365   0.684   0.750 -0.2204  0.3177 -0.1334
 4462TIP3    H135021   5.458   0.703   0.736 -0.0596 -0.6064 -0.3733
 4462TIP3    H235022   5.338   0.746   0.817  0.8636 -0.1283  0.7564
 4463TIP3   OH235023   4.971   6.056   2.122 -0.2397 -0.1757 -0.3501
 4463TIP3    H135024   4.936   5.970   2.102 -0.8599  0.1596 -0.7406
 4463TIP3    H235025   4.976   6.059   2.218 -1.1250 -0.2927 -0.2990
 4464TIP3   OH235026   3.630   6.162   7.267  0.2445 -0.0465 -0.1517
 4464TIP3    H135027   3.639   6.207   7.183 -1.4898 -0.7888 -0.7906
 4464TIP3    H235028   3.650   6.070   7.246  1.5310  0.0254  0.6539
 4465TIP3   OH235029   1.540   0.842   1.897  0.3590  0.0441  0.3891
 4465TIP3    H135030   1.539   0.841   1.993  1.9424 -0.5519  0.4316
 4465TIP3    H235031   1.454   0.875   1.873  0.9570  3.2546  2.0515
 4466TIP3   OH235032   4.607   1.218   2.716  0.1021  0.4548 -0.9783
 4466TIP3    H135033   4.650   1.137   2.690  0.3987  0.2560  0.0528
 4466TIP3    H235034   4.678   1.280   2.727 -0.0469  0.6261 -0.9873
 4467TIP3   OH235035   2.809   2.932   2.934 -0.1173  0.8862 -0.1989
 4467TIP3    H135036   2.727   2.886   2.917  1.8586 -2.7461 -0.7320
 4467TIP3    H235037   2.835   2.967   2.849 -1.3436  2.7058  0.1055
 4468TIP3   OH235038   6.246   3.689   1.298  0.0891 -0.1872 -0.2725
 4468TIP3    H135039   6.157   3.660   1.318  0.2525 -0.2184  0.4356
 4468TIP3    H235040   6.300   3.611   1.310  0.2352 -0.1289 -0.5466
 4469TIP3   OH235041   1.679   0.093   8.529  0.3421 -0.5092  0.0213
 4469TIP3    H135042   1.740   0.113   8.458  0.4403  0.1624  0.2891
 4469TIP3    H235043   1.731   0.041   8.591 -0.0443 -2.0401 -0.8977
 4470TIP3   OH235044   3.279   1.852   1.710  0.4704  0.1506 -0.5106
 4470TIP3    H135045   3.255   1.943   1.727  1.7105  0.7603 -1.8946
 4470TIP3    H235046   3.195   1.806   1.706 -0.2026  1.3294 -0.3948
 4471TIP3   OH235047   1.432   0.017   7.187 -0.5266 -0.1013 -0.5371
 4471TIP3    H135048   1.370   0.039   7.257  1.3448  2.4083  0.5025
 4471TIP3    H235049   1.382   0.030   7.106 -2.1073 -0.9047  0.2576
 4472TIP3   OH235050   6.352   1.181   7.859  0.3670 -0.2313  0.5541
 4472TIP3    H135051   6.444   1.161   7.877  0.2886 -0.9878  0.1576
 4472TIP3    H235052   6.347   1.277   7.860  1.0705 -0.1974  1.0050
 4473TIP3   OH235053   0.983   5.277   0.198  0.3552 -0.1255 -0.0444
 4473TIP3    H135054   0.893   5.305   0.183  0.6280  0.7576 -0.1192
 4473TIP3    H235055   1.030   5.358   0.217  1.2129 -0.5280 -0.3958
 4474TIP3   OH235056   1.620   1.873   7.142  0.1780  0.3081 -0.4568
 4474TIP3    H135057   1.609   1.968   7.145 -0.9019  0.2244 -1.2507
 4474TIP3    H235058   1.651   1.855   7.053 -0.1238 -0.1326 -0.4734
 4475TIP3   OH235059   5.598   6.620   8.355  0.3318 -0.2975 -0.3597
 4475TIP3    H135060   5.603   6.624   8.451  0.2554  1.0361 -0.3936
 4475TIP3    H235061   5.510   6.587   8.337  1.2847 -3.3166  0.0202
 4476TIP3   OH235062   1.270   0.812   0.908  0.2888 -0.2999  0.1685
 4476TIP3    H135063   1.225   0.871   0.969  0.2607 -0.3086  0.1562
 4476TIP3    H235064   1.251   0.725   0.941 -1.3273 -0.4099 -0.9324
 4477TIP3   OH235065   1.528   2.122   2.690  0.0961  0.1025 -0.1965
 4477TIP3    H135066   1.511   2.173   2.769 -0.7921 -2.6610  1.5674
 4477TIP3    H235067   1.523   2.031   2.719  0.4509 -1.0530 -3.3343
 4478TIP3   OH235068   0.220   1.612   8.080  0.0654 -0.2549  0.4837
 4478TIP3    H135069   0.251   1.702   8.091 -0.1629 -0.2186  0.8495
 4478TIP3    H235070   0.125   1.619   8.082  0.0338 -0.4402 -0.0390
 4479TIP3   OH235071   2.069   3.354   8.541 -0.0578 -0.2064  0.2189
 4479TIP3    H135072   2.115   3.438   8.547 -1.1888  0.7855 -3.0508
 4479TIP3    H235073   1.978   3.376   8.559 -0.3651 -0.7137 -0.6893
 4480TIP3   OH235074   4.513   5.385   7.035  0.1308 -0.2000  0.1330
 4480TIP3    H135075   4.559   5.308   7.068  2.0492  1.2598  1.0410
 4480TIP3    H235076   4.504   5.369   6.941  2.2180 -0.7120 -0.0144
 4481TIP3   OH235077   6.308   0.245   7.764  0.4364 -0.3194  0.2775
 4481TIP3    H135078   6.237   0.185   7.788  1.5120 -1.4666  0.7143
 4481TIP3    H235079   6.300   0.317   7.827 -2.2784  1.2633 -1.6531
 4482TIP3   OH235080   0.782   4.841   8.086  0.4671 -0.4616 -0.1780
 4482TIP3    H135081   0.823   4.927   8.090  0.0953 -0.1728 -1.7051
 4482TIP3    H235082   0.845   4.786   8.039  1.3603 -1.4711  2.0797
 4483TIP3   OH235083   5.860   1.764   1.347 -0.1301  0.6602  0.6824
 4483TIP3    H135084   5.767   1.754   1.328  0.1834  0.2414 -0.7574
 4483TIP3    H235085   5.879   1.696   1.412 -0.8369  0.8069  1.0473
 4484TIP3   OH235086   0.615   4.510   2.643  0.3279 -0.2116 -0.3995
 4484TIP3    H135087   0.672   4.576   2.603 -0.0391  0.1206 -0.3803
 4484TIP3    H235088   0.643   4.427   2.603  0.0970  0.0856 -1.1971
 4485TIP3   OH235089   6.336   2.894   7.155 -0.0348 -0.0626  0.3942
 4485TIP3    H135090   6.408   2.904   7.093  1.3647  1.2943  2.1079
 4485TIP3    H235091   6.285   2.975   7.146 -0.9270 -0.6755 -0.2591
 4486TIP3   OH235092   1.357   3.910   0.708  0.6625  0.3553  0.5425
 4486TIP3    H135093   1.345   3.844   0.777  1.1629 -0.3979 -0.0698
 4486TIP3    H235094   1.351   3.994   0.754  3.3277 -0.1258  1.9337
 4487TIP3   OH235095   6.189   3.242   8.446  0.0018  0.0317 -0.0161
 4487TIP3    H135096   6.199   3.172   8.382 -0.5274 -1.8614  1.8706
 4487TIP3    H235097   6.105   3.283   8.424 -0.2627 -0.7155 -0.4089
 4488TIP3   OH235098   1.554   5.667   7.291 -0.5682  0.0835 -0.2160
 4488TIP3    H135099   1.602   5.606   7.235  0.7972 -0.8534  1.8590
 4488TIP3    H235100   1.480   5.616   7.323 -1.6890  0.8004 -1.5261
 4489TIP3   OH235101   4.185   6.327   6.850  0.9302  0.2212 -0.3073
 4489TIP3    H135102   4.278   6.304   6.840  0.7694 -1.0143  0.6954
 4489TIP3    H235103   4.145   6.248   6.885 -0.7871  0.2870 -1.9768
 4490TIP3   OH235104   3.205   3.669   0.185 -0.0883  0.2115 -0.2246
 4490TIP3    H135105   3.197   3.623   0.101  2.1220  0.5403 -0.6709
 4490TIP3    H235106   3.123   3.718   0.192 -1.1549 -1.3282 -1.2349
 4491TIP3   OH235107   1.384   1.369   1.556  0.2916  0.8986 -0.4931
 4491TIP3    H135108   1.407   1.431   1.625 -0.7330  0.4214  0.3068
 4491TIP3    H235109   1.408   1.414   1.474 -1.9945  3.1458 -0.0750
 4492TIP3   OH235110   6.420   1.195   8.409 -0.2480 -0.0064 -0.6810
 4492TIP3    H135111   6.420   1.105   8.440  3.5652 -0.1750 -0.6265
 4492TIP3    H235112   6.442   1.189   8.316  0.7121  0.8578 -0.5295
 4493TIP3   OH235113   0.231   1.955   8.358 -0.3107  0.3213  0.3219
 4493TIP3    H135114   0.181   1.957   8.439  0.3855 -1.6433  0.8573
 4493TIP3    H235115   0.321   1.975   8.385  0.9011 -4.6256  1.0057
 4494TIP3   OH235116   0.400   0.258   7.066 -0.1518  0.0697  0.3287
 4494TIP3    H135117   0.319   0.259   7.016 -0.1082 -0.2720  0.2479
 4494TIP3    H235118   0.441   0.343   7.049  0.6154 -0.6101 -1.4344
 4495TIP3   OH235119   1.922   3.462   0.319  0.1225 -0.0186  0.3987
 4495TIP3    H135120   1.978   3.490   0.391 -1.9505  0.9648  1.7067
 4495TIP3    H235121   1.874   3.387   0.354 -0.0995 -0.2521 -0.3761
 4496TIP3   OH235122   1.941   4.790   0.278 -0.4520 -0.5137  0.0574
 4496TIP3    H135123   2.032   4.767   0.263 -1.2093 -3.2377 -0.9615
 4496TIP3    H235124   1.939   4.828   0.366  1.4959 -1.3531  0.5007
 4497TIP3   OH235125   4.348   6.763   2.317  0.4799 -0.2863 -0.0601
 4497TIP3    H135126   4.365   6.787   2.226  2.2488 -1.2509 -0.0211
 4497TIP3    H235127   4.429   6.722   2.347 -0.9636 -2.5321  1.0885
 4498TIP3   OH235128   6.049   4.813   7.429 -0.8303  0.2331  0.6154
 4498TIP3    H135129   6.046   4.780   7.339 -1.3477  2.6196 -0.3053
 4498TIP3    H235130   5.957   4.824   7.454 -0.6806  0.4715  1.0827
 4499TIP3   OH235131   4.914   3.014   7.754  0.8960  0.1201  0.2222
 4499TIP3    H135132   4.943   3.037   7.842  2.5025  0.4742 -0.3667
 4499TIP3    H235133   4.985   3.043   7.696  0.0486 -0.4265 -1.1627
 4500TIP3   OH235134   0.768   3.586   8.250 -0.0915 -0.5210 -0.1581
 4500TIP3    H135135   0.830   3.658   8.267 -0.2462 -0.3417 -0.3504
 4500TIP3    H235136   0.722   3.575   8.333 -2.5270  1.9544 -1.0114
 4501TIP3   OH235137   4.653   1.084   7.985 -0.0854  0.2537  0.3701
 4501TIP3    H135138   4.665   0.990   7.975 -1.0172  0.1273  0.3471
 4501TIP3    H235139   4.650   1.098   8.079 -0.8853  0.1237  0.3703
 4502TIP3   OH235140   3.745   5.127   7.096 -0.8830  0.1848  0.2635
 4502TIP3    H135141   3.798   5.150   7.172 -0.0244 -2.9315  0.7446
 4502TIP3    H235142   3.681   5.064   7.129 -1.1136 -0.5238 -1.3910
 4503TIP3   OH235143   3.172   0.595   1.331  0.5953  0.3280 -0.5720
 4503TIP3    H135144   3.249   0.540   1.339 -0.0361 -0.2945  2.0828
 4503TIP3    H235145   3.099   0.533   1.320  0.0740  0.6858  0.7241
 4504TIP3   OH235146   5.599   3.861   1.156 -0.1467 -0.2799  0.2348
 4504TIP3    H135147   5.606   3.931   1.221 -2.9206 -0.1012  0.4410
 4504TIP3    H235148   5.555   3.790   1.202 -1.8705 -0.2812 -1.3148
 4505TIP3   OH235149   6.343   0.851   8.646 -0.0281  0.1253  0.0409
 4505TIP3    H135150   6.371   0.839   8.555  0.0576 -1.8315  0.2835
 4505TIP3    H235151   6.366   0.942   8.666 -1.6168  1.1990 -2.4000
 4506TIP3   OH235152   1.416   1.544   7.988  0.0792 -0.4511  0.1260
 4506TIP3    H135153   1.462   1.590   7.918 -0.3200 -0.7922 -0.3651
 4506TIP3    H235154   1.431   1.597   8.066 -1.1966  1.0540 -0.6139
 4507TIP3   OH235155   6.232   2.557   8.595  0.0153 -0.0358 -0.3786
 4507TIP3    H135156   6.149   2.546   8.548  0.4882  1.9079 -1.7940
 4507TIP3    H235157   6.258   2.647   8.577  2.7287 -0.7474 -0.4339
 4508TIP3   OH235158   0.619   2.311   1.923 -0.4188 -0.2313  0.1224
 4508TIP3    H135159   0.625   2.351   1.836 -0.6725 -0.0466  0.1878
 4508TIP3    H235160   0.710   2.309   1.955  0.1378 -3.0380 -1.3435
 4509TIP3   OH235161   3.497   1.449   0.918 -0.3677  0.8528  0.2783
 4509TIP3    H135162   3.540   1.375   0.876 -0.9363  0.1853  0.8438
 4509TIP3    H235163   3.557   1.523   0.904  0.7959  0.0315  0.7618
 4510TIP3   OH235164   5.413   1.224   1.716 -0.0164 -0.1077 -0.1263
 4510TIP3    H135165   5.324   1.257   1.733 -0.2641 -0.4353 -0.7583
 4510TIP3    H235166   5.400   1.147   1.661  0.6191 -0.6770  0.4947
 4511TIP3   OH235167   6.274   5.761   0.956  0.8136 -0.5561  0.3557
 4511TIP3    H135168   6.317   5.748   1.040  1.4546  1.4599  0.4030
 4511TIP3    H235169   6.236   5.849   0.962 -1.7195 -1.4915 -0.3973
 4512TIP3   OH235170   3.997   6.530   6.937 -0.0343  0.3463  0.2029
 4512TIP3    H135171   3.990   6.591   6.863  0.1603 -1.6719 -1.5911
 4512TIP3    H235172   4.064   6.467   6.910  0.4541 -0.1664  2.3829
 4513TIP3   OH235173   4.068   2.418   1.696 -0.0829  0.3489 -0.0219
 4513TIP3    H135174   4.005   2.359   1.737 -0.5102  1.7386  1.4045
 4513TIP3    H235175   4.145   2.414   1.752  0.1407  0.6183 -0.3032
 4514TIP3   OH235176   1.429   0.570   0.765 -0.4304 -0.3238  0.1777
 4514TIP3    H135177   1.453   0.610   0.849  0.3745 -1.5692  0.5660
 4514TIP3    H235178   1.391   0.486   0.789  1.0175 -1.2794 -0.7326
 4515TIP3   OH235179   3.385   1.112   8.601  0.0105  0.1769  0.2052
 4515TIP3    H135180   3.381   1.112   8.505 -0.9483  0.2571  0.2295
 4515TIP3    H235181   3.427   1.029   8.623 -0.5967 -0.2680 -0.2711
 4516TIP3   OH235182   3.796   2.586   0.151 -0.9260  0.3951  0.3695
 4516TIP3    H135183   3.802   2.681   0.148 -0.6074  0.3877  0.7526
 4516TIP3    H235184   3.720   2.565   0.096  0.4943  0.6931 -1.8365
 4517TIP3   OH235185   0.579   1.770   7.534  0.2255  0.4078  0.5852
 4517TIP3    H135186   0.598   1.834   7.466 -1.3757  0.6509  0.3323
 4517TIP3    H235187   0.590   1.685   7.490 -0.1972  0.5570  0.1785
 4518TIP3   OH235188   4.455   4.454   1.484  0.0118 -0.0767  0.1296
 4518TIP3    H135189   4.361   4.459   1.471 -0.0516  0.7815  0.7970
 4518TIP3    H235190   4.480   4.542   1.514  0.9812 -0.3647  0.2261
 4519TIP3   OH235191   1.802   0.560   8.555  0.0684  1.1566  0.2812
 4519TIP3    H135192   1.733   0.496   8.576  0.4796  0.6206  0.0135
 4519TIP3    H235193   1.816   0.550   8.461  0.3346  1.4516  0.2892
 4520TIP3   OH235194   3.933   5.835   6.686 -0.1779  0.1990  0.0400
 4520TIP3    H135195   3.951   5.878   6.602 -0.0143 -0.6141 -0.3534
 4520TIP3    H235196   3.997   5.763   6.690  2.6679  2.5756  2.7243
 4521TIP3   OH235197   5.579   1.290   0.125  1.0140  0.7097 -0.4041
 4521TIP3    H135198   5.646   1.229   0.094  0.3772 -2.2399  3.2358
 4521TIP3    H235199   5.500   1.264   0.078  1.0338 -0.5117  0.1947
 4522TIP3   OH235200   6.551   3.886   1.478  0.4187  0.1776  0.4335
 4522TIP3    H135201   6.596   3.918   1.556  3.2722  1.3682 -1.5173
 4522TIP3    H235202   6.619   3.884   1.411 -2.4780  2.4668 -2.9209
 4523TIP3   OH235203   5.178   0.896   0.648  0.2409 -0.2024 -0.3289
 4523TIP3    H135204   5.121   0.819   0.648  0.3248 -0.2656 -0.0800
 4523TIP3    H235205   5.221   0.895   0.734 -0.4279  0.6209  0.0332
 4524TIP3   OH235206   6.487   0.662   0.171 -0.2304 -0.2189 -0.2545
 4524TIP3    H135207   6.420   0.696   0.112 -1.0680 -0.6355  0.4295
 4524TIP3    H235208   6.491   0.568   0.151 -4.0871 -1.4904  3.5403
 4525TIP3   OH235209   2.478   1.756   7.803  0.1376 -0.2214 -0.2729
 4525TIP3    H135210   2.550   1.818   7.793  0.0249  0.2332  1.3726
 4525TIP3    H235211   2.434   1.784   7.884 -2.1390 -0.2392 -1.4173
 4526TIP3   OH235212   4.639   4.613   7.563 -0.1186 -0.3757  0.0549
 4526TIP3    H135213   4.702   4.615   7.491 -0.6569 -1.3369 -0.4567
 4526TIP3    H235214   4.687   4.574   7.636 -0.2661 -1.6189 -0.4929
 4527TIP3   OH235215   4.403   3.829   1.416 -0.1254 -0.2243 -0.2381
 4527TIP3    H135216   4.481   3.816   1.362 -0.6203 -0.3387 -0.9285
 4527TIP3    H235217   4.389   3.924   1.415 -0.0767 -0.2167 -0.2241
 4528TIP3   OH235218   6.669   4.721   1.872  0.4314 -0.0146  0.2568
 4528TIP3    H135219   6.595   4.775   1.843  0.3337  0.2073  0.9058
 4528TIP3    H235220   6.629   4.637   1.896  0.2488  0.4181  1.5114
 4529TIP3   OH235221   5.477   5.975   8.485  0.1252 -0.7914 -0.1204
 4529TIP3    H135222   5.396   6.027   8.483 -1.2610 -2.8372 -0.4884
 4529TIP3    H235223   5.457   5.904   8.546  2.2571 -0.4737  1.0170
 4530TIP3   OH235224   4.681   4.325   7.451 -0.3824  0.4388 -0.6173
 4530TIP3    H135225   4.599   4.293   7.414  0.6668 -4.0358  0.2860
 4530TIP3    H235226   4.683   4.288   7.540  1.7989  1.9991  0.0634
 4531TIP3   OH235227   1.997   5.065   2.516 -0.1557  0.0772  0.3047
 4531TIP3    H135228   2.066   4.999   2.515  0.6000  0.6667  3.5040
 4531TIP3    H235229   2.022   5.127   2.447  1.0635 -1.0754 -0.3300
 4532TIP3   OH235230   6.586   3.121   8.085 -0.3784 -0.1101  0.1540
 4532TIP3    H135231   6.600   3.167   8.003 -1.2025  0.0178  0.0744
 4532TIP3    H235232   6.652   3.051   8.086 -0.5096 -0.2526 -0.7188
 4533TIP3   OH235233   6.264   0.509   8.192 -0.0788  0.0238 -0.1770
 4533TIP3    H135234   6.178   0.466   8.200  0.1368 -0.4012 -0.1008
 4533TIP3    H235235   6.244   0.602   8.190 -0.6007 -0.0888 -0.8567
 4534TIP3   OH235236   1.358   2.856   0.015  0.4264  0.3847 -0.2327
 4534TIP3    H135237   1.322   2.870  -0.072  0.1306  0.4626 -0.1011
 4534TIP3    H235238   1.347   2.762   0.031  1.1393  0.2408 -0.5627
 4535TIP3   OH235239   0.073   2.378   8.480  0.0696 -0.3179  0.1076
 4535TIP3    H135240  -0.007   2.420   8.512  0.2270  0.2074 -0.1746
 4535TIP3    H235241   0.122   2.449   8.438  0.0536 -0.9070 -0.9279
 4536TIP3   OH235242   1.153   0.063   8.895  0.4955 -0.1567  0.1200
 4536TIP3    H135243   1.203  -0.001   8.945 -0.3609  0.4359  1.8222
 4536TIP3    H235244   1.162   0.145   8.945 -2.0034  0.0075  0.4326
 4537TIP3   OH235245   1.524   0.357   1.915 -0.0952 -0.1525  0.5511
 4537TIP3    H135246   1.603   0.316   1.949 -1.1948 -2.2954  0.6757
 4537TIP3    H235247   1.534   0.354   1.820 -0.1103 -0.6320  0.5622
 4538TIP3   OH235248   1.951   3.831   2.080 -0.3718 -0.1471  0.1641
 4538TIP3    H135249   1.895   3.909   2.086  0.8399  0.7284  0.5056
 4538TIP3    H235250   1.892   3.758   2.100 -1.4546  0.7075  0.2063
 4539TIP3   OH235251   3.885   0.182   0.982  0.1528  0.0756 -0.6570
 4539TIP3    H135252   3.842   0.185   1.068  0.8494 -0.9812 -0.2442
 4539TIP3    H235253   3.931   0.098   0.982 -0.3122 -0.2115 -2.3093
 4540TIP3   OH235254   3.590   5.365   0.572  0.0025 -0.2084  0.3059
 4540TIP3    H135255   3.533   5.412   0.511 -0.6328 -0.1916  0.9029
 4540TIP3    H235256   3.672   5.353   0.524 -0.6687 -0.6801 -0.7653
 4541TIP3   OH235257   1.843   4.927   2.708 -1.0486 -0.1361  0.3802
 4541TIP3    H135258   1.909   4.966   2.651  0.4703 -3.5245 -0.4225
 4541TIP3    H235259   1.877   4.939   2.797  0.0043 -0.6927  0.0649
 4542TIP3   OH235260   4.258   3.432   7.799  0.4911 -0.0386 -0.3812
 4542TIP3    H135261   4.289   3.490   7.869 -0.0646  0.3478 -0.4501
 4542TIP3    H235262   4.253   3.487   7.722 -0.0571 -0.1693 -0.4450
 4543TIP3   OH235263   0.407   4.291   8.799 -0.3298 -0.3382 -0.1711
 4543TIP3    H135264   0.318   4.306   8.831  0.7396  1.3375  2.2902
 4543TIP3    H235265   0.454   4.257   8.874  1.6874  1.1738 -0.6702
 4544TIP3   OH235266   5.691   6.616   1.495  0.7937 -0.0985  0.0771
 4544TIP3    H135267   5.599   6.641   1.498  0.9834  1.0554 -2.1532
 4544TIP3    H235268   5.691   6.524   1.469  0.2739 -0.0516 -0.0903
 4545TIP3   OH235269   0.507   4.733   7.366 -0.3325  0.0676 -0.3539
 4545TIP3    H135270   0.412   4.723   7.375 -0.4559  1.1698 -0.3755
 4545TIP3    H235271   0.542   4.647   7.391 -1.2867 -0.1232  0.4016
 4546TIP3   OH235272   3.603   4.532   8.366  0.0597 -0.0707 -0.3848
 4546TIP3    H135273   3.660   4.491   8.431 -1.7113 -1.9626  0.0890
 4546TIP3    H235274   3.621   4.485   8.285  1.8064  1.8643 -1.2014
 4547TIP3   OH235275   6.060   3.095   1.934  0.1137 -0.5771  0.1271
 4547TIP3    H135276   6.052   3.032   1.863 -0.3844  1.5239 -1.8030
 4547TIP3    H235277   5.994   3.068   1.998 -1.4929 -0.8935 -1.5790
 4548TIP3   OH235278   5.219   5.445   7.826  0.8187 -0.2312 -0.2072
 4548TIP3    H135279   5.250   5.397   7.750  0.8540 -0.1528 -0.2430
 4548TIP3    H235280   5.298   5.482   7.866  0.8590 -0.7448  0.1950
 4549TIP3   OH235281   2.836   3.486   2.068  0.4026  0.2694  0.6816
 4549TIP3    H135282   2.928   3.507   2.050 -0.1095  3.5894  1.1817
 4549TIP3    H235283   2.831   3.391   2.060  3.4443  0.1172 -1.2874
 4550TIP3   OH235284   1.134   4.624   0.647  0.4271  0.1792  0.0783
 4550TIP3    H135285   1.063   4.593   0.591  1.9738 -1.1742 -1.2243
 4550TIP3    H235286   1.100   4.613   0.736 -1.2491  0.2491 -0.5174
 4551TIP3   OH235287   3.978   2.471   7.084 -0.1518  0.6696 -0.5591
 4551TIP3    H135288   3.917   2.405   7.050  0.8962 -0.4853 -0.2783
 4551TIP3    H235289   3.931   2.514   7.154 -1.0517  0.5860 -1.0988
 4552TIP3   OH235290   4.887   3.139   8.304 -0.0228  0.2740  0.3024
 4552TIP3    H135291   4.868   3.064   8.249 -0.0779 -0.4946  1.3467
 4552TIP3    H235292   4.956   3.109   8.364  0.7063  1.3748  0.0551
 4553TIP3   OH235293   5.399   1.090   7.152 -0.1069  0.4176 -0.0094
 4553TIP3    H135294   5.338   1.036   7.101  0.7304  2.1197 -3.0353
 4553TIP3    H235295   5.486   1.068   7.117  0.6025  1.2252  1.1670
 4554TIP3   OH235296   2.860   6.738   2.477  0.0421  0.3011 -0.7622
 4554TIP3    H135297   2.782   6.780   2.443 -0.6093  0.5683  0.9498
 4554TIP3    H235298   2.827   6.673   2.539  1.0311 -2.4879 -2.9283
 4555TIP3   OH235299   0.057   4.629   2.777 -0.2542 -0.2333  0.0329
 4555TIP3    H135300   0.078   4.707   2.828  1.0925 -2.1721  2.6565
 4555TIP3    H235301   0.138   4.606   2.732 -1.0053  0.5493 -1.8302
 4556TIP3   OH235302   6.116   6.369   1.151  0.3825 -0.2898  0.2050
 4556TIP3    H135303   6.076   6.320   1.079  1.5154 -1.7202  0.5041
 4556TIP3    H235304   6.195   6.408   1.112  0.6509 -0.5328  0.4998
 4557TIP3   OH235305   5.477   2.056   8.208  0.1790 -0.6038 -0.0006
 4557TIP3    H135306   5.434   1.981   8.167  0.7818 -2.0067  1.7713
 4557TIP3    H235307   5.561   2.063   8.162 -0.1970 -0.5269 -0.6843
 4558TIP3   OH235308   4.896   1.570   0.072 -0.1025 -0.2602  0.2208
 4558TIP3    H135309   4.884   1.597  -0.020 -1.2105 -0.1020  0.3968
 4558TIP3    H235310   4.812   1.532   0.097  0.2997 -0.6088  1.0781
 4559TIP3   OH235311   5.646   2.963   2.281  0.2250 -0.0977  0.2947
 4559TIP3    H135312   5.593   3.038   2.309 -1.9108 -0.6281 -1.9569
 4559TIP3    H235313   5.626   2.894   2.345 -0.0086  0.4127  0.7796
 4560TIP3   OH235314   5.154   6.125   0.041  1.0746  0.2987  0.6145
 4560TIP3    H135315   5.221   6.061   0.065  0.0510  0.5419  4.8134
 4560TIP3    H235316   5.196   6.210   0.056  0.4105  0.4629  1.6508
 4561TIP3   OH235317   4.997   1.830   8.325  0.3351 -0.6963  0.0186
 4561TIP3    H135318   4.968   1.863   8.239 -0.9626 -0.3998  0.5366
 4561TIP3    H235319   5.005   1.908   8.379  0.3887 -0.9474  0.3770
 4562TIP3   OH235320   0.277   6.381   8.792 -0.5108  0.0738 -0.4613
 4562TIP3    H135321   0.189   6.415   8.776 -0.4752 -0.3904 -1.7273
 4562TIP3    H235322   0.301   6.337   8.711  0.1892 -1.3512  0.4899
 4563TIP3   OH235323   3.534   4.663   1.657  0.7819  0.3069 -0.3095
 4563TIP3    H135324   3.448   4.665   1.697  1.0477  0.4579  0.2655
 4563TIP3    H235325   3.552   4.754   1.633  0.5570  0.1963 -0.9343
 4564TIP3   OH235326   4.763   3.494   2.418  0.5998 -0.3853  0.2115
 4564TIP3    H135327   4.799   3.578   2.447  2.4927 -1.4720  1.1492
 4564TIP3    H235328   4.698   3.472   2.485 -0.7999  0.8317 -0.6620
 4565TIP3   OH235329   3.809   4.347   0.727 -0.2205  0.2402  0.5040
 4565TIP3    H135330   3.894   4.372   0.689  0.3402 -0.0811  1.5180
 4565TIP3    H235331   3.783   4.270   0.677 -0.8082  1.3700 -1.0278
 4566TIP3   OH235332   1.906   4.497   1.247 -0.0421  0.2735 -0.0445
 4566TIP3    H135333   1.986   4.447   1.233  0.0046  1.0721 -3.2082
 4566TIP3    H235334   1.925   4.583   1.210 -2.3631  0.4749 -0.8874
 4567TIP3   OH235335   4.431   1.105   8.223  0.2210 -0.5503  0.0564
 4567TIP3    H135336   4.381   1.102   8.141  1.5873 -0.7439 -0.7911
 4567TIP3    H235337   4.462   1.195   8.229 -1.2845 -0.0639  1.2686
 4568TIP3   OH235338   4.213   4.231   0.385 -0.1558  0.5807 -1.0600
 4568TIP3    H135339   4.220   4.136   0.375 -1.2059  0.5588 -1.7554
 4568TIP3    H235340   4.162   4.243   0.465  1.9765  0.6227  0.3446
 4569TIP3   OH235341   0.665   4.130   1.025 -0.7319  0.3297 -0.5260
 4569TIP3    H135342   0.677   4.143   1.119 -1.0928  0.1044 -0.4469
 4569TIP3    H235343   0.738   4.178   0.984 -0.1485 -0.1839 -0.1032
 4570TIP3   OH235344   1.124   1.192   8.651  0.0318 -0.7441 -0.6524
 4570TIP3    H135345   1.142   1.122   8.588  0.5101 -1.4967  0.3026
 4570TIP3    H235346   1.120   1.271   8.598 -0.6107 -1.4984 -1.7729
 4571TIP3   OH235347   2.071   1.198   0.272  0.3251 -0.7904  0.2570
 4571TIP3    H135348   2.063   1.212   0.366  1.5888 -1.4725  0.4907
 4571TIP3    H235349   2.049   1.106   0.260  1.6895 -1.1304  0.1331
 4572TIP3   OH235350   5.138   3.720   0.362  0.0980 -0.1266  0.4064
 4572TIP3    H135351   5.079   3.770   0.306 -0.5334 -0.9864  0.2959
 4572TIP3    H235352   5.181   3.787   0.416  3.3029  1.1886 -3.3087
 4573TIP3   OH235353   5.071   3.679   0.663  0.2677  0.0369 -0.2735
 4573TIP3    H135354   5.140   3.615   0.643 -0.3084 -0.7657  0.2382
 4573TIP3    H235355   5.005   3.629   0.711 -0.1509  1.0506  0.2348
 4574TIP3   OH235356   5.872   1.942   8.710  0.5015 -0.1253 -0.7752
 4574TIP3    H135357   5.866   1.919   8.803 -0.0494 -0.1260 -0.8046
 4574TIP3    H235358   5.964   1.963   8.696  0.5249  0.2150 -0.1463
 4575TIP3   OH235359   4.302   2.674   2.496 -0.0353  0.0012 -0.7807
 4575TIP3    H135360   4.252   2.623   2.433 -0.4082 -1.6610  0.7808
 4575TIP3    H235361   4.335   2.609   2.559 -0.2793  1.6343  1.1329
 4576TIP3   OH235362   3.648   1.275   1.125 -0.0785 -0.1959 -0.2049
 4576TIP3    H135363   3.671   1.245   1.213  1.9271  1.6117 -0.0184
 4576TIP3    H235364   3.575   1.335   1.140 -0.6044 -0.8853  0.0488
 4577TIP3   OH235365   4.696   5.905   1.622 -0.3510 -0.1906  0.0266
 4577TIP3    H135366   4.751   5.925   1.546 -0.8985  0.8261 -0.1223
 4577TIP3    H235367   4.707   5.810   1.635  3.7332  0.3224  1.8317
 4578TIP3   OH235368   6.390   3.962   1.269 -0.6049 -0.9053  0.5734
 4578TIP3    H135369   6.346   3.877   1.264  0.2764 -1.3079 -0.8908
 4578TIP3    H235370   6.457   3.950   1.336 -0.9292 -1.1458  0.8573
 4579TIP3   OH235371   5.881   1.524   0.269 -0.1355 -0.0981 -0.3486
 4579TIP3    H135372   5.850   1.611   0.244  0.1614  0.2086  0.3405
 4579TIP3    H235373   5.837   1.506   0.352  1.2932  0.2211  0.5048
 4580TIP3   OH235374   4.966   4.179   0.416  0.5411 -0.2198 -0.0014
 4580TIP3    H135375   4.990   4.172   0.509  0.9360 -0.4453 -0.1157
 4580TIP3    H235376   5.014   4.108   0.374 -0.0933 -0.4807 -0.2934
 4581TIP3   OH235377   6.344   4.695   7.247  0.3646 -0.3729 -0.2195
 4581TIP3    H135378   6.323   4.612   7.203 -1.0435 -0.5588  0.7421
 4581TIP3    H235379   6.361   4.670   7.338 -0.0813  0.3983  0.0809
 4582TIP3   OH235380   4.718   2.904   2.718 -0.9190 -0.5330  0.1087
 4582TIP3    H135381   4.808   2.874   2.703 -0.5478  0.8758 -0.5898
 4582TIP3    H235382   4.728   2.984   2.769 -1.9386 -1.9310  2.7010
 4583TIP3   OH235383   6.001   1.908   7.314  0.2671  0.5332  0.1783
 4583TIP3    H135384   6.052   1.872   7.241 -0.2709 -0.2287  0.1724
 4583TIP3    H235385   5.930   1.846   7.327 -0.7279  1.6326  0.1311
 4584TIP3   OH235386   3.645   4.352   2.943  0.6015 -0.5037  0.2407
 4584TIP3    H135387   3.731   4.365   2.903 -0.0479  0.3604 -0.9508
 4584TIP3    H235388   3.591   4.318   2.872 -0.0703 -0.9513  0.9524
 4585TIP3   OH235389   3.936   0.794   7.852 -0.1381 -0.1830  0.0186
 4585TIP3    H135390   3.942   0.855   7.925 -1.7247 -1.7988  1.6153
 4585TIP3    H235391   4.027   0.781   7.824  0.4580  0.8624  1.3601
 4586TIP3   OH235392   3.123   0.374   7.496  0.3816 -0.1109  0.4891
 4586TIP3    H135393   3.058   0.329   7.550  0.6797  0.6177  1.4784
 4586TIP3    H235394   3.192   0.399   7.558 -0.0198  2.1681  0.0963
 4587TIP3   OH235395   2.203   2.647   7.985  0.4707  0.0426  0.0665
 4587TIP3    H135396   2.239   2.654   8.074  0.8584 -0.2023 -0.0696
 4587TIP3    H235397   2.127   2.706   7.985 -0.9203 -1.6449  1.2676
 4588TIP3   OH235398   4.076   3.367   0.343 -0.1673  0.0201 -0.2843
 4588TIP3    H135399   4.000   3.407   0.386  0.4903 -0.4888  1.4522
 4588TIP3    H235400   4.151   3.396   0.396  0.8970  0.6635 -2.0698
 4589TIP3   OH235401   4.510   0.411   8.821 -0.2622 -0.0189 -0.0153
 4589TIP3    H135402   4.458   0.473   8.770  1.1812  0.9322 -0.3983
 4589TIP3    H235403   4.549   0.464   8.890  1.3208 -0.3729 -0.5876
 4590TIP3   OH235404   1.298   5.240   7.514 -0.0093 -0.0673 -0.2340
 4590TIP3    H135405   1.380   5.273   7.478  0.1208 -1.2839 -1.1221
 4590TIP3    H235406   1.323   5.193   7.593  0.3525 -1.5869 -1.2189
 4591TIP3   OH235407   2.238   4.070   0.334 -0.1330 -0.3461 -0.6601
 4591TIP3    H135408   2.149   4.058   0.368  0.0279  2.8162  1.2561
 4591TIP3    H235409   2.294   4.031   0.402  0.0193 -1.7171 -1.5367
 4592TIP3   OH235410   4.471   2.836   8.608  0.3354 -0.0479  0.4513
 4592TIP3    H135411   4.509   2.916   8.645  1.3209 -0.3188  0.0582
 4592TIP3    H235412   4.510   2.828   8.522 -1.6338  0.3531 -0.5407
 4593TIP3   OH235413   4.306   1.944   0.901  0.1751  0.2617  0.3829
 4593TIP3    H135414   4.273   2.032   0.878 -1.5276 -0.0456  1.5078
 4593TIP3    H235415   4.309   1.898   0.817 -2.2901  0.3419  0.1786
 4594TIP3   OH235416   1.669   4.197   1.915 -0.7000  0.1162 -0.1820
 4594TIP3    H135417   1.762   4.211   1.897 -0.7429  0.4975 -0.1170
 4594TIP3    H235418   1.645   4.268   1.974 -0.8601 -0.4159  0.4002
 4595TIP3   OH235419   0.853   6.267   6.812  0.4848  0.0383  0.1424
 4595TIP3    H135420   0.874   6.320   6.889 -0.0756 -0.5679  0.7354
 4595TIP3    H235421   0.882   6.179   6.836 -0.6425 -0.3636  0.0819
 4596TIP3   OH235422   6.570   3.926   0.968  0.5240  0.2065  0.1673
 4596TIP3    H135423   6.648   3.973   0.997  1.4123 -0.4148 -1.1075
 4596TIP3    H235424   6.506   3.940   1.037  1.5127  1.3824  0.8765
 4597TIP3   OH235425   1.165   3.834   2.242 -0.1260  0.2573 -0.1160
 4597TIP3    H135426   1.180   3.759   2.299 -1.5884  0.3883  0.4834
 4597TIP3    H235427   1.238   3.893   2.261 -1.0128  0.6899  2.3284
 4598TIP3   OH235428   2.946   3.715   8.065 -0.8155 -0.1001  0.6110
 4598TIP3    H135429   2.856   3.746   8.072 -1.1518 -1.1106  0.9492
 4598TIP3    H235430   2.979   3.715   8.155 -0.4600  0.2971  0.4846
 4599TIP3   OH235431   1.303   1.469   0.750  0.4124  0.4037  0.6737
 4599TIP3    H135432   1.351   1.387   0.756 -0.2336 -0.0893 -0.5241
 4599TIP3    H235433   1.346   1.527   0.812  1.5799 -0.4915  0.7273
 4600TIP3   OH235434   1.388   0.457   8.127  0.0595  0.2555  0.0691
 4600TIP3    H135435   1.358   0.486   8.213 -1.1722  0.8120 -0.5133
 4600TIP3    H235436   1.417   0.538   8.084 -0.9589  0.2624 -0.6384
 4601TIP3   OH235437   4.950   5.472   7.809 -0.1729  0.0450 -0.3373
 4601TIP3    H135438   4.956   5.393   7.755 -0.0830 -2.3878  2.8895
 4601TIP3    H235439   5.039   5.486   7.841 -0.8760 -1.4723  2.6893
 4602TIP3   OH235440   1.400   2.228   1.485 -0.6945  0.1487 -0.1117
 4602TIP3    H135441   1.473   2.285   1.508 -1.3295  0.8246  0.3157
 4602TIP3    H235442   1.339   2.287   1.439 -1.9315  0.1462  1.4279
 4603TIP3   OH235443   4.783   3.205   1.775  0.1252  0.0763  0.0084
 4603TIP3    H135444   4.748   3.293   1.787  0.1785  0.2115 -0.7764
 4603TIP3    H235445   4.878   3.215   1.786  0.1867  0.2222 -0.6409
 4604TIP3   OH235446   6.525   3.298   3.041 -0.0315 -0.2954  0.0348
 4604TIP3    H135447   6.501   3.233   3.108 -1.9867  0.6558  0.3241
 4604TIP3    H235448   6.538   3.379   3.090 -0.4582  0.1806 -0.6269
 4605TIP3   OH235449   2.185   0.911   7.602  0.4855 -0.3428 -0.4892
 4605TIP3    H135450   2.249   0.940   7.537 -0.1081 -1.8592 -1.8020
 4605TIP3    H235451   2.236   0.860   7.665  0.6022 -1.6321 -1.5818
 4606TIP3   OH235452   0.044   2.932   1.141  0.5752 -0.0735  0.0061
 4606TIP3    H135453  -0.047   2.944   1.168  1.0024  0.9424  1.0347
 4606TIP3    H235454   0.047   2.841   1.110 -0.7213 -0.2079  0.2047
 4607TIP3   OH235455   4.775   2.894   1.280 -0.3554 -0.3150 -0.2111
 4607TIP3    H135456   4.795   2.923   1.369 -1.1718  0.3015 -0.2216
 4607TIP3    H235457   4.745   2.804   1.290 -1.2586  0.0229  0.2505
 4608TIP3   OH235458   4.752   5.759   8.378 -0.0137 -0.3561 -0.4124
 4608TIP3    H135459   4.724   5.731   8.291  1.3046 -2.2698 -0.2804
 4608TIP3    H235460   4.745   5.855   8.376 -0.9023 -0.4250 -2.2840
 4609TIP3   OH235461   5.110   5.547   1.781  0.1601  0.2196 -0.1711
 4609TIP3    H135462   5.115   5.507   1.694 -1.9560 -0.8618  0.1393
 4609TIP3    H235463   5.038   5.610   1.774 -1.0946 -0.9897  1.1564
 4610TIP3   OH235464   0.713   6.363   2.343  0.2079 -0.2961 -0.4599
 4610TIP3    H135465   0.683   6.409   2.264  1.8611 -0.3245 -1.1526
 4610TIP3    H235466   0.756   6.284   2.309  2.5273  0.5581  0.2969
 4611TIP3   OH235467   5.627   2.616   8.364 -0.0289  0.1052 -0.0674
 4611TIP3    H135468   5.606   2.644   8.453 -0.6374  0.2803 -0.2645
 4611TIP3    H235469   5.636   2.521   8.370  0.8874  0.2014  0.3679
 4612TIP3   OH235470   6.396   5.408   0.406  0.1589 -0.2566  0.0266
 4612TIP3    H135471   6.371   5.355   0.482  1.5834 -1.1859 -0.1156
 4612TIP3    H235472   6.434   5.346   0.345  1.2579  0.8403 -0.4399
 4613TIP3   OH235473   2.100   2.038   1.252 -0.1814  0.4947 -0.0875
 4613TIP3    H135474   2.012   2.002   1.241 -1.7541  3.4903  1.3066
 4613TIP3    H235475   2.130   2.004   1.336  0.4339 -1.2296 -0.9618
 4614TIP3   OH235476   3.305   2.298   0.618 -0.5085  0.2307 -0.1371
 4614TIP3    H135477   3.313   2.394   0.620  0.8566  0.1220  0.0006
 4614TIP3    H235478   3.385   2.266   0.659 -2.3837 -0.9424  2.9423
 4615TIP3   OH235479   4.618   6.724   1.902  0.3848 -0.2822 -0.0089
 4615TIP3    H135480   4.546   6.787   1.912  0.4707  0.3127 -2.4578
 4615TIP3    H235481   4.686   6.756   1.962 -0.2189  0.9696  0.0456
 4616TIP3   OH235482   3.852   4.447   8.046 -0.6161  0.0969  0.1788
 4616TIP3    H135483   3.795   4.381   8.007  0.5998  0.7389 -2.9937
 4616TIP3    H235484   3.797   4.525   8.054 -0.6970  0.1880 -1.1150
 4617TIP3   OH235485   1.688   1.223   6.656  0.1923  0.6667  0.2148
 4617TIP3    H135486   1.661   1.233   6.564 -0.8461 -0.1397  0.4197
 4617TIP3    H235487   1.692   1.128   6.669  0.3457  0.7814  1.0165
 4618TIP3   OH235488   2.418   1.480   0.013 -0.2101 -0.0575 -0.6394
 4618TIP3    H135489   2.512   1.465   0.011 -0.3989 -1.6815  0.8334
 4618TIP3    H235490   2.382   1.404   0.060 -2.7169 -1.8891 -4.8742
 4619TIP3   OH235491   3.645   3.615   0.616  0.2227  0.4306 -0.5125
 4619TIP3    H135492   3.581   3.576   0.676  0.4008  1.8120  0.6265
 4619TIP3    H235493   3.729   3.597   0.657  0.6671 -1.7131 -2.1989
 4620TIP3   OH235494   0.828   5.288   7.661 -0.1433  0.2243  0.3341
 4620TIP3    H135495   0.849   5.245   7.744 -0.9929  1.1687  1.0629
 4620TIP3    H235496   0.779   5.366   7.686 -2.7597 -0.7859 -1.1382
 4621TIP3   OH235497   1.733   6.533   8.855  0.2977 -0.2965 -0.2304
 4621TIP3    H135498   1.714   6.523   8.948  0.3320 -1.1104 -0.2987
 4621TIP3    H235499   1.729   6.443   8.820 -0.9252  0.1191 -1.2456
 4622TIP3   OH235500   5.895   5.480   0.718 -0.9779  0.3402  0.2755
 4622TIP3    H135501   5.928   5.502   0.631 -0.4386 -2.2338 -0.2571
 4622TIP3    H235502   5.971   5.490   0.775  0.0734 -2.5196 -0.4313
 4623TIP3   OH235503   1.766   5.315   1.522  0.0923 -0.0240  0.1510
 4623TIP3    H135504   1.814   5.372   1.582  1.1782  0.3131 -0.9821
 4623TIP3    H235505   1.676   5.348   1.523  0.5751  1.3841 -0.0548
 4624TIP3   OH235506   5.941   4.663   7.824 -0.7198 -0.2722 -0.0013
 4624TIP3    H135507   5.920   4.570   7.819 -0.5726 -0.2674 -1.1113
 4624TIP3    H235508   5.856   4.706   7.833 -0.7852 -0.5110  0.5349
 4625TIP3   OH235509   2.796   5.572   8.177  0.4107 -0.1721 -0.2242
 4625TIP3    H135510   2.790   5.634   8.250 -0.4170 -0.8933  0.3403
 4625TIP3    H235511   2.849   5.500   8.211  2.9211  0.9582 -1.4547
 4626TIP3   OH235512   0.660   1.218   0.578 -0.1575  0.0865  0.0621
 4626TIP3    H135513   0.575   1.180   0.598 -0.7101  0.9569 -0.5720
 4626TIP3    H235514   0.668   1.292   0.639  1.1266 -1.2672  1.6375
 4627TIP3   OH235515   2.927   1.690   7.765  0.0532  0.2469  0.0709
 4627TIP3    H135516   2.907   1.745   7.689 -0.3955 -0.7482 -0.5520
 4627TIP3    H235517   2.865   1.618   7.758  1.7954 -1.2875 -0.1339
 4628TIP3   OH235518   3.478   3.407   7.572  0.2752  0.2428  0.4831
 4628TIP3    H135519   3.492   3.324   7.618  0.9479  0.0366 -0.0867
 4628TIP3    H235520   3.489   3.385   7.479 -0.5942  0.7532  0.2457
 4629TIP3   OH235521   3.839   5.175   7.402  0.2318  0.0774 -0.2359
 4629TIP3    H135522   3.775   5.106   7.420  0.5850 -0.5039 -1.1380
 4629TIP3    H235523   3.909   5.160   7.465 -1.0237  1.4406  1.5593
 4630TIP3   OH235524   3.901   3.757   2.676 -0.4545 -0.2431 -0.8238
 4630TIP3    H135525   3.977   3.759   2.618  0.7847 -1.2771  0.6964
 4630TIP3    H235526   3.920   3.823   2.743  0.2996 -2.1194  0.9081
 4631TIP3   OH235527   2.693   1.960   1.199 -0.9729 -0.2141  0.4117
 4631TIP3    H135528   2.682   1.915   1.115 -0.0329 -1.0137  0.7103
 4631TIP3    H235529   2.637   2.037   1.191  0.8118  1.0065 -1.8898
 4632TIP3   OH235530   5.732   0.028   0.262  0.5226  0.0452  0.5064
 4632TIP3    H135531   5.646   0.065   0.240  0.2833 -0.3468  0.7676
 4632TIP3    H235532   5.793   0.074   0.204  0.3904  1.6719  1.5886
 4633TIP3   OH235533   0.899   3.889   0.262  0.2683 -0.7348 -0.0427
 4633TIP3    H135534   0.980   3.846   0.233  1.5546  1.1756  0.5152
 4633TIP3    H235535   0.841   3.818   0.288  1.7831 -2.1591 -0.4346
 4634TIP3   OH235536   4.421   0.542   2.181  0.2594 -0.1933 -0.4659
 4634TIP3    H135537   4.380   0.510   2.100 -0.4443  1.7013 -0.8990
 4634TIP3    H235538   4.402   0.635   2.182  1.7859  0.1422  1.0204
 4635TIP3   OH235539   4.880   1.599   8.367 -0.0102 -0.1584 -0.2790
 4635TIP3    H135540   4.815   1.606   8.297  1.0825 -1.2096 -1.4510
 4635TIP3    H235541   4.932   1.679   8.359 -0.4354  0.1396 -0.0869
 4636TIP3   OH235542   1.651   2.154   7.191 -0.6613  0.1612  0.4627
 4636TIP3    H135543   1.740   2.155   7.225  0.1222 -1.2184 -1.4188
 4636TIP3    H235544   1.617   2.241   7.211  0.8426  0.4945  1.7980
 4637TIP3   OH235545   5.882   4.515   8.489 -0.1587  0.0326 -0.3631
 4637TIP3    H135546   5.946   4.584   8.505 -0.1727 -0.0906  0.2401
 4637TIP3    H235547   5.798   4.559   8.492 -0.3510 -0.3963  2.5651
 4638TIP3   OH235548   6.663   5.468   1.304 -0.1852 -0.8936 -0.1031
 4638TIP3    H135549   6.609   5.394   1.279 -0.9195 -0.3159 -0.2602
 4638TIP3    H235550   6.722   5.434   1.372  0.1083 -1.8361 -0.8207
 4639TIP3   OH235551   3.502   0.600   2.635 -0.4027  0.8539  0.0493
 4639TIP3    H135552   3.571   0.543   2.603  0.6723  1.9226  0.4069
 4639TIP3    H235553   3.510   0.597   2.731 -0.7517  1.1080  0.0902
 4640TIP3   OH235554   2.689   6.156   8.219 -0.2579  0.5629 -0.4668
 4640TIP3    H135555   2.616   6.099   8.243  0.0130 -0.0591 -1.1182
 4640TIP3    H235556   2.678   6.172   8.125  0.3871  0.5385 -0.5531
 4641TIP3   OH235557   6.254   2.840   8.224 -0.3042  0.3746  0.1042
 4641TIP3    H135558   6.301   2.892   8.159 -1.9600 -0.6393 -2.0384
 4641TIP3    H235559   6.165   2.874   8.223 -1.8924 -3.0911 -2.4738
 4642TIP3   OH235560   1.212   1.531   0.496  0.5983 -0.6142 -0.1436
 4642TIP3    H135561   1.274   1.543   0.425 -0.0067 -0.5888 -0.6754
 4642TIP3    H235562   1.262   1.486   0.564  0.7301 -2.3179 -1.2907
 4643TIP3   OH235563   3.513   3.520   0.944  0.1311 -0.4351 -0.2160
 4643TIP3    H135564   3.581   3.459   0.975  0.1365 -0.4469 -0.2512
 4643TIP3    H235565   3.553   3.606   0.952 -0.1657 -0.3599  0.6248
 4644TIP3   OH235566   0.472   1.741   1.669 -0.0650  0.0553 -0.2459
 4644TIP3    H135567   0.420   1.668   1.703  0.5732 -0.4572 -0.3415
 4644TIP3    H235568   0.411   1.791   1.614 -0.2867 -0.9121 -0.8989
 4645TIP3   OH235569   0.374   4.339   1.084 -0.1939 -0.4317 -0.0359
 4645TIP3    H135570   0.444   4.403   1.094 -0.3386 -0.4610  1.3771
 4645TIP3    H235571   0.391   4.297   1.000  0.4284  0.8196 -0.5567
 4646TIP3   OH235572   2.346   6.141   2.946 -0.2716 -0.5749 -0.1441
 4646TIP3    H135573   2.364   6.174   3.034 -1.6897  0.7460 -0.3167
 4646TIP3    H235574   2.254   6.117   2.947 -0.0276 -1.6423 -0.9575
 4647TIP3   OH235575   3.321   5.503   0.076 -0.1715  0.2437  0.0796
 4647TIP3    H135576   3.268   5.475   0.001 -0.6591 -2.6643  1.3669
 4647TIP3    H235577   3.275   5.469   0.153  1.2695  1.5063  1.5921
 4648TIP3   OH235578   4.583   6.255   7.790  0.2408 -0.2202 -0.3757
 4648TIP3    H135579   4.512   6.207   7.832  0.1525  0.6049  0.4538
 4648TIP3    H235580   4.564   6.347   7.808  1.4587  0.0165 -0.2313
 4649TIP3   OH235581   6.177   4.476   8.402 -0.1834 -0.0197  0.8201
 4649TIP3    H135582   6.109   4.410   8.385  0.6931 -0.1830 -3.0460
 4649TIP3    H235583   6.259   4.434   8.377  0.9009  1.3709  1.8311
 4650TIP3   OH235584   2.883   6.081   6.992  0.3811 -0.3873  0.5985
 4650TIP3    H135585   2.909   6.170   6.968  2.1558 -0.8733  0.5334
 4650TIP3    H235586   2.894   6.031   6.912 -0.9778 -0.6121  0.5375
 4651TIP3   OH235587   2.211   3.000   1.915  0.1984 -0.0098 -0.4908
 4651TIP3    H135588   2.251   2.925   1.870  0.4800 -1.9203  2.6328
 4651TIP3    H235589   2.280   3.066   1.918  0.1958  0.1535 -2.6379
 4652TIP3   OH235590   4.576   3.908   1.697  0.4462  0.2093  0.3173
 4652TIP3    H135591   4.581   3.953   1.613  0.4534  1.1134  0.7858
 4652TIP3    H235592   4.532   3.971   1.755 -0.6773 -0.8738  0.6786
 4653TIP3   OH235593   2.187   5.894   7.917  0.4099 -0.9419  0.4990
 4653TIP3    H135594   2.158   5.922   7.830  1.0598  0.4083  0.6864
 4653TIP3    H235595   2.196   5.799   7.910 -0.9952 -1.0477 -0.4553
 4654TIP3   OH235596   5.927   6.080   6.651  0.0793  0.2456 -0.3580
 4654TIP3    H135597   5.881   6.126   6.722  0.0770  0.4879 -0.5170
 4654TIP3    H235598   5.937   6.145   6.582  1.2176  0.3823 -0.0885
 4655TIP3   OH235599   0.595   2.060   2.064 -0.0773 -0.3079 -0.2007
 4655TIP3    H135600   0.630   2.112   1.992 -0.2679 -1.1734 -0.9299
 4655TIP3    H235601   0.567   1.978   2.024  0.3493 -1.0436  0.9479
 4656TIP3   OH235602   3.733   6.573   0.614  0.6496  0.5319  0.3072
 4656TIP3    H135603   3.751   6.553   0.523  0.3389  1.1933  0.0932
 4656TIP3    H235604   3.643   6.605   0.614 -0.2875 -1.8418  1.2105
 4657TIP3   OH235605   5.637   4.861   0.834  0.4380 -0.0390 -0.4886
 4657TIP3    H135606   5.588   4.853   0.915 -1.0491 -0.6719 -1.4051
 4657TIP3    H235607   5.658   4.954   0.827  0.6774  0.0024  0.6631
 4658TIP3   OH235608   3.089   4.916   8.071 -0.0005 -0.1844  0.1758
 4658TIP3    H135609   3.066   4.876   8.154 -0.3727  0.4319  0.3789
 4658TIP3    H235610   3.031   4.875   8.007  1.0715 -1.4997  0.0033
 4659TIP3   OH235611   3.067   3.159   8.036 -0.2919 -0.6814  0.1163
 4659TIP3    H135612   3.039   3.212   7.962  0.7472 -0.4005 -0.0918
 4659TIP3    H235613   3.073   3.220   8.110  2.3942 -0.1208 -0.4697
 4660TIP3   OH235614   1.989   3.919   0.365 -0.2462  0.1028 -0.0880
 4660TIP3    H135615   2.030   3.837   0.394  1.0522  0.2508 -1.3931
 4660TIP3    H235616   1.910   3.892   0.318 -0.3663 -0.3257  0.3508
 4661TIP3   OH235617   0.762   3.564   2.406  0.2465 -0.1731 -0.0300
 4661TIP3    H135618   0.699   3.573   2.477  0.2807 -0.4874  0.0387
 4661TIP3    H235619   0.847   3.583   2.447  0.3348 -0.9266  0.1461
 4662TIP3   OH235620   1.012   0.539   7.707 -0.3088  0.0428 -0.2496
 4662TIP3    H135621   1.071   0.580   7.770 -1.2651  0.9797  0.0384
 4662TIP3    H235622   0.938   0.598   7.700 -1.6878 -1.5720  0.1031
 4663TIP3   OH235623   4.898   4.526   8.608  0.6686 -0.2805  0.7370
 4663TIP3    H135624   4.927   4.616   8.595 -1.1450  0.4362  1.2494
 4663TIP3    H235625   4.946   4.475   8.543  0.5540  1.3203 -0.6721
 4664TIP3   OH235626   4.708   3.548   7.873  0.2320  0.0072  0.0418
 4664TIP3    H135627   4.767   3.589   7.810  1.9599 -1.8335  0.3288
 4664TIP3    H235628   4.764   3.487   7.921 -1.8922 -1.7473  0.4531
 4665TIP3   OH235629   1.324   3.919   8.214 -0.3350  0.1345 -0.8222
 4665TIP3    H135630   1.329   3.951   8.304 -0.3131 -0.1935 -0.7050
 4665TIP3    H235631   1.319   3.998   8.160  0.1559  0.3467 -0.5660
 4666TIP3   OH235632   6.051   2.089   2.164 -0.1105  0.2537 -0.1004
 4666TIP3    H135633   6.088   2.174   2.141  0.9660 -0.6922 -2.1158
 4666TIP3    H235634   6.125   2.038   2.197 -0.0631 -0.7989 -1.6917
 4667TIP3   OH235635   5.838   0.925   1.812 -0.0596  0.0058  0.0752
 4667TIP3    H135636   5.760   0.972   1.781 -0.6019  0.6868  2.3216
 4667TIP3    H235637   5.806   0.871   1.884  1.0982 -1.7220 -0.6456
 4668TIP3   OH235638   3.663   0.726   6.948 -0.4167 -0.3294 -0.2613
 4668TIP3    H135639   3.624   0.800   6.902  1.0915 -0.1244 -1.2893
 4668TIP3    H235640   3.608   0.651   6.924 -2.1633  0.4709  1.0735
 4669TIP3   OH235641   2.240   4.346   0.311  0.4302 -0.7085 -1.3332
 4669TIP3    H135642   2.288   4.392   0.242  0.0015 -0.9305 -1.7846
 4669TIP3    H235643   2.263   4.254   0.298  0.8037 -0.6881 -0.8160
 4670TIP3   OH235644   3.988   6.256   1.600 -0.1921 -0.0589 -0.1263
 4670TIP3    H135645   4.032   6.187   1.650 -2.6941 -0.5210  1.6278
 4670TIP3    H235646   3.918   6.287   1.658 -1.2034  1.6903 -2.1347
 4671TIP3   OH235647   1.404   4.911   0.077  0.2387 -0.0879 -0.1305
 4671TIP3    H135648   1.384   4.824   0.112  1.9787 -0.0184  1.1538
 4671TIP3    H235649   1.318   4.950   0.060 -0.6003 -1.4423  0.8030
 4672TIP3   OH235650   2.533   0.831   7.561  0.2619 -0.5082 -0.1565
 4672TIP3    H135651   2.525   0.777   7.640  1.5373 -0.4147  0.0480
 4672TIP3    H235652   2.553   0.769   7.491 -2.0233 -0.7494 -0.6884
 4673TIP3   OH235653   1.877   0.061   6.948  0.0585 -0.3618  0.2926
 4673TIP3    H135654   1.953   0.005   6.931 -0.8556 -0.6752 -3.6539
 4673TIP3    H235655   1.914   0.149   6.953  0.7903 -0.5733 -0.9359
 4674TIP3   OH235656   5.003   6.003   7.077 -0.2865  0.0804  0.0666
 4674TIP3    H135657   5.082   5.976   7.124 -1.0584  0.0541  1.4054
 4674TIP3    H235658   5.006   6.099   7.081 -0.1255  0.0871 -0.2220
 4675TIP3   OH235659   6.144   5.863   0.267 -0.9893 -0.2481 -0.0221
 4675TIP3    H135660   6.221   5.816   0.300 -1.1766  0.1216  0.9570
 4675TIP3    H235661   6.167   5.884   0.176  0.7423  1.2112  0.6783
 4676TIP3   OH235662   6.362   4.997   0.259 -0.3907 -0.2170  0.5299
 4676TIP3    H135663   6.361   4.910   0.219  0.2350  0.4886 -1.1113
 4676TIP3    H235664   6.271   5.011   0.288 -0.5601 -1.2875  0.5563
 4677TIP3   OH235665   0.197   3.046   0.431 -0.5005  0.3191  0.2254
 4677TIP3    H135666   0.140   3.027   0.356 -1.3185  0.7898  0.7026
 4677TIP3    H235667   0.162   2.992   0.502  0.8734 -0.8687  0.0378
 4678TIP3   OH235668   4.294   4.274   8.239  0.2950  0.5137  0.6553
 4678TIP3    H135669   4.219   4.236   8.193  0.8269 -0.6086  0.6730
 4678TIP3    H235670   4.295   4.366   8.213 -0.7006  0.3864  0.1473
 4679TIP3   OH235671   3.267   1.557   0.808 -0.4250  0.0252  0.5088
 4679TIP3    H135672   3.230   1.518   0.729 -0.5538 -0.0829  0.6234
 4679TIP3    H235673   3.338   1.498   0.832 -1.4121 -0.8220  1.3944
 4680TIP3   OH235674   0.700   5.334   0.154 -0.2033 -0.5037 -0.3329
 4680TIP3    H135675   0.668   5.333   0.064  0.3209  0.2474 -0.5390
 4680TIP3    H235676   0.621   5.332   0.208 -0.5088 -1.7421 -0.7860
 4681TIP3   OH235677   0.270   3.989   2.901 -0.2956 -0.1709 -0.4401
 4681TIP3    H135678   0.200   4.055   2.903  0.8176  1.0400  0.5412
 4681TIP3    H235679   0.343   4.033   2.858  0.7129 -0.4885  0.8828
 4682TIP3   OH235680   6.552   0.347   0.317  0.0141  0.5137  0.8201
 4682TIP3    H135681   6.525   0.350   0.225  1.4965 -0.7079  0.2955
 4682TIP3    H235682   6.473   0.369   0.366 -0.8728  0.9511 -0.7351
 4683TIP3   OH235683   6.245   2.326   0.073  0.1795  0.1174 -0.1588
 4683TIP3    H135684   6.282   2.327   0.161 -0.1898 -1.4859  0.0468
 4683TIP3    H235685   6.276   2.244   0.034 -3.0447 -1.3592  0.0515
 4684TIP3   OH235686   2.160   4.513   8.202  0.5965 -0.0867  0.2213
 4684TIP3    H135687   2.219   4.577   8.161  0.5647  0.8655  1.5861
 4684TIP3    H235688   2.181   4.517   8.295 -1.1490 -0.2095  0.6672
 4685TIP3   OH235689   5.819   6.322   8.794 -0.4813 -0.5948  0.2879
 4685TIP3    H135690   5.770   6.240   8.804 -1.6558  0.3071  2.7730
 4685TIP3    H235691   5.894   6.313   8.852  0.3598 -0.5562 -0.7670
 4686TIP3   OH235692   1.648   6.620   0.193  0.3383 -0.0363 -0.4426
 4686TIP3    H135693   1.567   6.665   0.217  0.7881  0.7898 -0.4645
 4686TIP3    H235694   1.712   6.690   0.178  0.8067 -0.6318 -1.3668
 4687TIP3   OH235695   0.731   1.861   2.323  0.4804 -0.2046  0.3765
 4687TIP3    H135696   0.808   1.865   2.380  1.0483  3.2832 -0.3704
 4687TIP3    H235697   0.761   1.903   2.242 -1.9523  0.4157 -0.2651
 4688TIP3   OH235698   6.346   5.500   8.368  0.1452  0.0925  0.0718
 4688TIP3    H135699   6.275   5.497   8.432 -0.4125  2.7674 -0.3021
 4688TIP3    H235700   6.407   5.565   8.403  1.1124 -0.2619 -0.8908
 4689TIP3   OH235701   6.013   2.966   8.201  0.0641  0.2672  0.1496
 4689TIP3    H135702   5.929   2.952   8.157  0.3710 -0.4809 -0.2218
 4689TIP3    H235703   6.048   3.046   8.162  0.0748 -0.0825 -0.5736
 4690TIP3   OH235704   5.551   2.619   1.987 -0.2518  0.7996  0.7997
 4690TIP3    H135705   5.608   2.543   1.980 -0.3790  0.4790  2.7172
 4690TIP3    H235706   5.462   2.584   1.980 -0.3214  0.6999  1.9995
 4691TIP3   OH235707   1.237   2.394   1.341 -0.0830  0.8106 -0.1651
 4691TIP3    H135708   1.142   2.407   1.340 -0.5617 -1.8110 -3.3194
 4691TIP3    H235709   1.271   2.467   1.289 -0.5177  0.9082 -0.3240
 4692TIP3   OH235710   4.787   0.057   1.131 -0.4331  0.2304  1.1375
 4692TIP3    H135711   4.869   0.016   1.104 -0.9025  0.4723 -0.8299
 4692TIP3    H235712   4.797   0.072   1.225  2.0970  1.0151  0.8079
 4693TIP3   OH235713   5.465   4.371   1.215  0.4726  0.2012  0.3419
 4693TIP3    H135714   5.506   4.387   1.130 -0.2097  2.0991  0.3218
 4693TIP3    H235715   5.378   4.410   1.207  0.2635  0.0945  1.8045
 4694TIP3   OH235716   3.699   2.055   6.548 -0.3434  0.2274 -0.3448
 4694TIP3    H135717   3.776   2.111   6.560  0.3390 -0.2926 -1.9501
 4694TIP3    H235718   3.670   2.034   6.637  0.2613  1.9148  0.2852
 4695TIP3   OH235719   3.005   2.097   7.756  0.9497  1.0814 -0.0531
 4695TIP3    H135720   2.994   2.134   7.668  0.1567 -0.0104 -0.4303
 4695TIP3    H235721   2.918   2.103   7.796  0.4701 -1.4103 -0.5633
 4696TIP3   OH235722   6.504   1.263   8.648  0.8671 -0.4955 -0.4587
 4696TIP3    H135723   6.474   1.233   8.562  0.4070  0.6106 -0.7029
 4696TIP3    H235724   6.531   1.354   8.633  0.0685 -0.0379  0.7254
 4697TIP3   OH235725   6.642   0.286   8.462  0.2548 -0.2312 -0.4974
 4697TIP3    H135726   6.587   0.359   8.433  1.6983  0.2743 -2.0762
 4697TIP3    H235727   6.703   0.326   8.524 -0.4255 -0.5980  0.4505
 4698TIP3   OH235728   3.217   6.727   8.538  0.2551 -0.7289  0.3459
 4698TIP3    H135729   3.126   6.718   8.566 -1.4025  1.6014 -3.4944
 4698TIP3    H235730   3.221   6.680   8.455  2.1359  0.4261 -0.2701
 4699TIP3   OH235731   1.444   5.491   7.650 -0.3378 -0.0953  0.0806
 4699TIP3    H135732   1.473   5.470   7.561 -0.5932 -0.9970  0.2032
 4699TIP3    H235733   1.396   5.574   7.640 -4.3394 -2.3169 -1.4863
 4700TIP3   OH235734   4.218   1.071   0.350  0.3992  0.7253 -0.1590
 4700TIP3    H135735   4.283   1.109   0.410  1.4591 -0.3626 -0.5742
 4700TIP3    H235736   4.178   1.000   0.400  0.2621  0.7320 -0.2586
 4701TIP3   OH235737   3.563   3.670   2.821 -0.0912  0.3692  0.0664
 4701TIP3    H135738   3.510   3.597   2.853  0.7663  1.0905  3.4873
 4701TIP3    H235739   3.652   3.649   2.848  0.1522  2.7115  1.3321
 4702TIP3   OH235740   3.116   6.003   7.125 -0.2553  0.1552 -0.3349
 4702TIP3    H135741   3.054   6.041   7.063  1.1033  1.2705 -1.0787
 4702TIP3    H235742   3.086   5.913   7.138 -0.8257  0.0248 -2.3015
 4703TIP3   OH235743   5.954   3.647   2.091 -0.0190  0.4223  0.3543
 4703TIP3    H135744   6.019   3.678   2.028  0.2355 -1.2659 -0.2580
 4703TIP3    H235745   5.984   3.560   2.116 -1.3660  0.1248  1.0449
 4704TIP3   OH235746   4.311   5.648   2.362  0.4719  0.0716  0.0603
 4704TIP3    H135747   4.218   5.662   2.379  0.3587 -1.3243  0.7671
 4704TIP3    H235748   4.355   5.713   2.416 -0.0829  0.3427  0.1938
 4705TIP3   OH235749   2.643   1.093   1.615 -0.3499 -0.1898  0.0949
 4705TIP3    H135750   2.661   1.166   1.556 -1.9600 -0.1215 -0.3482
 4705TIP3    H235751   2.626   1.133   1.700 -0.3943 -0.1168  0.0512
 4706TIP3   OH235752   0.296   2.035   1.782 -0.6041 -0.4611 -0.2203
 4706TIP3    H135753   0.254   1.989   1.709 -0.1428  0.5316 -1.1449
 4706TIP3    H235754   0.378   2.069   1.745  0.9367 -2.1168  1.4565
 4707TIP3   OH235755   5.723   3.817   8.219 -0.4837  0.1645  0.9885
 4707TIP3    H135756   5.701   3.801   8.128  1.7384 -1.6224  0.6827
 4707TIP3    H235757   5.672   3.752   8.268 -2.6076  1.9013  1.2243
 4708TIP3   OH235758   4.854   5.524   2.121 -0.6054  0.8915  0.1827
 4708TIP3    H135759   4.769   5.481   2.108 -0.6700  1.7240 -2.9803
 4708TIP3    H235760   4.917   5.452   2.125 -1.0611  0.3274 -1.7516
 4709TIP3   OH235761   6.676   6.033   1.373 -0.4334 -0.8569 -0.1945
 4709TIP3    H135762   6.721   6.096   1.318 -2.2026  0.2436 -0.4848
 4709TIP3    H235763   6.664   5.956   1.317  1.1419 -1.2336 -0.0555
 4710TIP3   OH235764   6.486   4.129   1.945  0.2673 -0.3857  0.3637
 4710TIP3    H135765   6.554   4.194   1.928 -0.2185 -0.4489 -2.2925
 4710TIP3    H235766   6.406   4.181   1.955  0.3721 -0.4274  1.6222
 4711TIP3   OH235767   5.921   5.092   8.268  0.4440  0.0299 -0.2936
 4711TIP3    H135768   6.005   5.099   8.312  0.1808 -2.7114  0.8531
 4711TIP3    H235769   5.942   5.063   8.179  0.7151 -0.5505 -0.0398
 4712TIP3   OH235770   5.597   6.361   1.078 -0.3266  0.4594  0.3728
 4712TIP3    H135771   5.534   6.408   1.132 -1.8843 -0.5123 -0.5179
 4712TIP3    H235772   5.545   6.325   1.006  1.2293 -0.4820 -0.3375
 4713TIP3   OH235773   3.012   2.551   1.181  0.1978  0.0653  0.0519
 4713TIP3    H135774   3.041   2.469   1.219 -0.7351  0.0218  0.7006
 4713TIP3    H235775   3.058   2.556   1.097  0.1306 -1.2037 -0.0795
 4714TIP3   OH235776   1.211   2.400   1.053  0.3180  0.1577 -0.2909
 4714TIP3    H135777   1.214   2.308   1.081  2.8030  0.4428  0.5839
 4714TIP3    H235778   1.185   2.395   0.961 -1.0774 -1.2778  0.1222
 4715TIP3   OH235779   3.271   3.707   1.327  0.0987  0.2976  0.1767
 4715TIP3    H135780   3.211   3.644   1.368  1.5400  1.1361  3.9431
 4715TIP3    H235781   3.357   3.666   1.334  0.4718  0.5973 -2.0003
 4716TIP3   OH235782   4.853   1.179   0.294  0.5769 -0.3959 -0.8467
 4716TIP3    H135783   4.820   1.090   0.300 -0.4966  0.0366 -0.0560
 4716TIP3    H235784   4.855   1.198   0.200  0.4646 -1.1274 -0.9977
 4717TIP3   OH235785   1.659   1.636   2.383  0.1502 -0.1817  0.2875
 4717TIP3    H135786   1.681   1.686   2.461  0.2797  0.3817 -0.1056
 4717TIP3    H235787   1.611   1.560   2.416 -0.9540  0.7120  0.8264
 4718TIP3   OH235788   4.467   4.592   2.323 -0.2800 -0.1957  0.5427
 4718TIP3    H135789   4.503   4.589   2.411 -0.6381 -3.2421  0.6857
 4718TIP3    H235790   4.411   4.669   2.323  1.4888  1.2019  2.1962
 4719TIP3   OH235791   5.205   0.866   0.360  0.0070  0.1404 -0.2027
 4719TIP3    H135792   5.227   0.931   0.426 -0.5363  0.3750 -0.2505
 4719TIP3    H235793   5.148   0.912   0.299  0.3930 -0.1106 -0.7678
 4720TIP3   OH235794   4.015   5.498   1.446  0.2055  0.1320 -0.3887
 4720TIP3    H135795   3.959   5.423   1.463  1.0462 -0.3296  0.4241
 4720TIP3    H235796   3.975   5.541   1.370 -1.7069  0.2889  0.6513
 4721TIP3   OH235797   3.773   6.575   7.097  0.8824  0.8828 -0.1924
 4721TIP3    H135798   3.705   6.561   7.031  1.1039  0.5936 -0.3634
 4721TIP3    H235799   3.855   6.552   7.052  1.1968  2.0742 -0.2755
 4722TIP3   OH235800   3.650   3.705   2.557 -0.1445 -0.4144  0.2046
 4722TIP3    H135801   3.592   3.652   2.612 -0.1031  0.2995  0.9547
 4722TIP3    H235802   3.709   3.748   2.619 -1.1522  1.7104 -0.2034
 4723TIP3   OH235803   3.477   6.486   7.477 -0.2122  0.6243  0.3065
 4723TIP3    H135804   3.523   6.402   7.483 -1.5661 -0.0561  1.6463
 4723TIP3    H235805   3.536   6.541   7.425  1.3503 -0.7090  0.5718
 4724TIP3   OH235806   3.686   2.126   7.298  0.4838 -0.0144 -0.0642
 4724TIP3    H135807   3.654   2.143   7.386 -0.3102 -0.5525 -0.2347
 4724TIP3    H235808   3.630   2.180   7.241  0.3318 -0.4201 -0.3083
 4725TIP3   OH235809   4.140   1.913   8.089 -0.7555 -0.6052  0.1007
 4725TIP3    H135810   4.202   1.845   8.062 -1.7073 -1.4655 -0.0089
 4725TIP3    H235811   4.096   1.939   8.008  0.6863  1.3286 -0.1304
 4726TIP3   OH235812   0.553   2.685   7.388  0.3607  0.3754  0.0851
 4726TIP3    H135813   0.516   2.769   7.357 -1.4641  0.3178  1.9271
 4726TIP3    H235814   0.507   2.619   7.336 -0.6430  0.4050  0.9012
 4727TIP3   OH235815   3.766   6.605   6.734  0.6126  0.4057  0.1949
 4727TIP3    H135816   3.699   6.666   6.705  0.0173 -0.3340 -0.0305
 4727TIP3    H235817   3.718   6.539   6.784  0.7035 -1.5807 -2.1148
 4728TIP3   OH235818   1.694   2.181   2.158  0.1424  0.5808  0.1453
 4728TIP3    H135819   1.773   2.140   2.195 -1.1923 -0.7715  1.6616
 4728TIP3    H235820   1.660   2.116   2.096  0.1017  1.0835 -0.3697
 4729TIP3   OH235821   4.662   2.136   7.542  0.4661  0.1033 -0.6127
 4729TIP3    H135822   4.632   2.049   7.568 -0.8296  0.6604 -0.1623
 4729TIP3    H235823   4.755   2.136   7.563  0.2376 -0.7616  0.5356
 4730TIP3   OH235824   0.860   4.252   0.877 -0.9231 -0.4649 -0.4835
 4730TIP3    H135825   0.864   4.343   0.906  2.4496 -0.6045 -0.1205
 4730TIP3    H235826   0.899   4.252   0.790  0.6717 -1.7277  0.1792
 4731TIP3   OH235827   1.240   5.010   8.162 -0.0025 -0.1412 -0.1071
 4731TIP3    H135828   1.298   5.087   8.159 -0.9141  0.5918  0.6017
 4731TIP3    H235829   1.172   5.033   8.225 -0.5026 -1.3994 -0.1526
 4732TIP3   OH235830   0.982   0.244   1.947  0.0270  0.4373  0.0438
 4732TIP3    H135831   1.067   0.255   1.904 -0.3152 -0.0303 -0.7796
 4732TIP3    H235832   1.003   0.221   2.037  0.7833  0.0072 -0.2324
 4733TIP3   OH235833   3.300   4.662   1.795  0.2304  0.4225  0.2140
 4733TIP3    H135834   3.276   4.671   1.888 -1.6836 -2.3797  0.1059
 4733TIP3    H235835   3.217   4.663   1.748  1.0206 -0.2629 -1.2663
 4734TIP3   OH235836   3.409   1.136   7.623 -0.1951  0.0436 -0.1066
 4734TIP3    H135837   3.317   1.153   7.641 -0.3239 -0.4579 -0.2811
 4734TIP3    H235838   3.435   1.070   7.687 -0.0199  0.0096 -0.2096
 4735TIP3   OH235839   6.631   4.297   1.794  0.3639 -0.2854  0.0845
 4735TIP3    H135840   6.678   4.378   1.772 -1.3393  0.6919 -0.2050
 4735TIP3    H235841   6.562   4.291   1.728  0.6649 -2.2119 -0.1150
 4736TIP3   OH235842   3.234   3.698   8.110 -0.0500  0.0933 -0.1111
 4736TIP3    H135843   3.177   3.773   8.126  0.3951  0.7535 -1.4368
 4736TIP3    H235844   3.318   3.737   8.086  0.6852 -0.8558  0.8340
 4737TIP3   OH235845   3.280   1.858   8.748 -0.1694 -0.6653 -0.3853
 4737TIP3    H135846   3.205   1.918   8.749  0.2946 -0.0855  0.0071
 4737TIP3    H235847   3.285   1.829   8.657  1.4976  2.3684 -1.4274
 4738TIP3   OH235848   6.363   1.097   7.411 -0.0615 -0.2145  0.0538
 4738TIP3    H135849   6.368   1.099   7.316  0.8610  1.8556  0.0984
 4738TIP3    H235850   6.409   1.016   7.435  0.8847 -0.0913 -1.2103
 4739TIP3   OH235851   2.769   6.122   7.252  0.0268  0.7252 -0.3488
 4739TIP3    H135852   2.774   6.217   7.263 -1.2019  1.1953 -3.0514
 4739TIP3    H235853   2.800   6.106   7.163 -2.2625 -1.0993 -0.9155
 4740TIP3   OH235854   5.804   6.098   8.628  0.2360  0.0421  0.5554
 4740TIP3    H135855   5.886   6.103   8.677  0.8054 -0.1104 -0.3710
 4740TIP3    H235856   5.805   6.175   8.571 -0.6292  0.4586  1.0770
 4741TIP3   OH235857   2.970   2.578   0.438 -0.1038  0.1126  0.3115
 4741TIP3    H135858   3.020   2.592   0.518  0.3084 -0.4413  0.1582
 4741TIP3    H235859   2.945   2.486   0.442 -2.2235  0.6608  1.0064
 4742TIP3   OH235860   1.484   3.071   2.269  0.6209 -0.0254  0.0246
 4742TIP3    H135861   1.435   3.128   2.211 -0.6546  1.1990  2.1571
 4742TIP3    H235862   1.442   2.985   2.260  0.9945 -0.0813 -1.4167
 4743TIP3   OH235863   2.141   1.729   8.169 -0.1316 -0.3793  0.8700
 4743TIP3    H135864   2.073   1.796   8.176  3.1180  3.2723  0.9946
 4743TIP3    H235865   2.183   1.729   8.255  1.3881 -0.8429  0.1638
 4744TIP3   OH235866   3.242   3.061   2.230  0.1510  0.0493 -0.2496
 4744TIP3    H135867   3.182   3.034   2.300  1.4448  1.2812  1.4409
 4744TIP3    H235868   3.208   3.019   2.151 -3.2617  1.1416  0.4743
 4745TIP3   OH235869   6.727   2.849   2.545 -0.4418  0.1581 -0.8577
 4745TIP3    H135870   6.746   2.896   2.626  1.0579  1.9212 -2.1772
 4745TIP3    H235871   6.726   2.757   2.572 -0.2958  0.7001  1.2121
 4746TIP3   OH235872   0.898   1.362   2.668 -0.0069  0.0950 -0.2781
 4746TIP3    H135873   0.970   1.311   2.632 -2.1135 -2.4253 -1.2359
 4746TIP3    H235874   0.889   1.436   2.608  1.9200  0.6508  0.0513
 4747TIP3   OH235875   1.632   2.125   0.146  0.4492  0.3202  0.1866
 4747TIP3    H135876   1.559   2.070   0.118  0.9378 -0.3515  0.2124
 4747TIP3    H235877   1.618   2.208   0.101  0.9601 -0.5717 -1.7120
 4748TIP3   OH235878   0.842   0.352   1.290  0.1958  0.0335  0.5833
 4748TIP3    H135879   0.782   0.369   1.363  0.4288 -0.4630  0.8921
 4748TIP3    H235880   0.879   0.439   1.269  1.7489 -0.0892  2.4880
 4749TIP3   OH235881   4.093   0.196   6.308 -0.6660  0.8532 -0.4157
 4749TIP3    H135882   4.005   0.233   6.301 -1.4546 -0.9505 -0.5084
 4749TIP3    H235883   4.092   0.120   6.249  1.7724  2.2233 -2.4098
 4750TIP3   OH235884   4.225   3.955   0.833  0.2233  0.2901  0.5770
 4750TIP3    H135885   4.247   4.048   0.833  0.5490  0.2108  0.7910
 4750TIP3    H235886   4.139   3.951   0.876  0.3121  0.4631  0.7705
 4751TIP3   OH235887   4.070   3.656   7.691 -0.7225 -0.0974 -0.1085
 4751TIP3    H135888   4.156   3.665   7.650 -0.4866  1.4442  0.6307
 4751TIP3    H235889   4.009   3.695   7.628 -0.6952  0.0196 -0.0629
 4752TIP3   OH235890   2.733   3.873   8.054 -0.0304  0.1044 -0.1934
 4752TIP3    H135891   2.798   3.943   8.042 -2.0464  2.2539  0.4796
 4752TIP3    H235892   2.660   3.899   7.998 -1.2655 -0.8952  0.9044
 4753TIP3   OH235893   3.517   5.725   7.969  0.1045  0.0452 -0.0326
 4753TIP3    H135894   3.438   5.672   7.965  1.4624 -2.0619 -1.3581
 4753TIP3    H235895   3.589   5.662   7.962  1.9074  1.8870  0.7548
 4754TIP3   OH235896   2.267   5.122   1.122  0.7746  0.2137 -0.2879
 4754TIP3    H135897   2.238   5.158   1.206 -1.8750  2.2317 -1.8887
 4754TIP3    H235898   2.302   5.198   1.075 -2.0898  0.2587 -2.6240
 4755TIP3   OH235899   1.237   4.020   2.565  0.1766 -0.0046  0.0959
 4755TIP3    H135900   1.150   4.052   2.541 -0.0192  0.5108  1.3957
 4755TIP3    H235901   1.220   3.953   2.631  0.6587 -1.8788 -1.5984
 4756TIP3   OH235902   4.741   4.302   1.349 -0.4131  0.0001 -0.5921
 4756TIP3    H135903   4.715   4.359   1.420  0.0328  0.7708 -1.0365
 4756TIP3    H235904   4.766   4.220   1.392  1.6385  1.0366  0.3504
 4757TIP3   OH235905   1.913   3.678   7.976 -0.5157 -0.5545 -0.4714
 4757TIP3    H135906   1.870   3.627   7.907 -0.2405 -1.0289 -0.2962
 4757TIP3    H235907   1.851   3.749   7.995 -1.0583 -1.0194 -0.4774
 4758TIP3   OH235908   2.946   4.920   0.798  0.3207  0.0879  0.1302
 4758TIP3    H135909   3.025   4.866   0.794 -0.4664 -1.5252  3.4797
 4758TIP3    H235910   2.979   5.008   0.818  1.3642  0.1275 -1.5195
 4759TIP3   OH235911   0.299   2.566   0.226  0.0554 -0.0401 -0.1757
 4759TIP3    H135912   0.331   2.492   0.277  0.7635 -0.5797 -1.3803
 4759TIP3    H235913   0.311   2.541   0.135 -0.4267  1.2399 -0.6264
 4760TIP3   OH235914   4.009   4.160   0.924  0.2521  0.0213 -0.0637
 4760TIP3    H135915   3.991   4.070   0.948  1.5327 -0.1786  0.2544
 4760TIP3    H235916   3.944   4.212   0.971 -0.4624 -0.7268 -0.2125
 4761TIP3   OH235917   0.780   2.611   8.273 -0.2524  0.3884 -0.3473
 4761TIP3    H135918   0.830   2.584   8.196 -0.0839  1.3217 -0.5689
 4761TIP3    H235919   0.689   2.591   8.251 -0.3252  1.6155 -1.2204
 4762TIP3   OH235920   5.693   0.686   7.782  0.0243 -0.2397 -0.0170
 4762TIP3    H135921   5.630   0.633   7.733 -0.6429  0.7955 -0.3112
 4762TIP3    H235922   5.641   0.755   7.822  0.6750 -0.5952  1.5229
 4763TIP3   OH235923   5.501   2.231   1.000 -0.0520  0.3795 -0.3107
 4763TIP3    H135924   5.540   2.154   0.957 -0.3259  0.1509 -0.1536
 4763TIP3    H235925   5.429   2.195   1.052  0.3083  0.6421  0.3881
 4764TIP3   OH235926   6.560   2.924   6.964 -0.0069  0.3816 -0.2600
 4764TIP3    H135927   6.530   2.868   6.893  1.1250  0.7015 -1.0246
 4764TIP3    H235928   6.606   2.865   7.024 -0.2522  0.2406 -0.2095
 4765TIP3   OH235929   2.434   0.093   0.505  0.1356  0.0433  0.1062
 4765TIP3    H135930   2.457   0.146   0.429  1.9173  2.0629  1.8989
 4765TIP3    H235931   2.517   0.055   0.533 -0.7479 -1.9054  0.2059
 4766TIP3   OH235932   0.175   5.082   2.040 -0.1041  0.2920 -0.3175
 4766TIP3    H135933   0.219   5.150   1.989  0.5655 -0.6224 -0.9905
 4766TIP3    H235934   0.191   5.106   2.131 -1.1251  1.8310 -0.5093
 4767TIP3   OH235935   5.721   4.164   7.887  0.2289  0.3071  0.2467
 4767TIP3    H135936   5.792   4.111   7.850 -0.8065 -0.7670 -0.2644
 4767TIP3    H235937   5.671   4.194   7.811 -0.5607  0.0564  0.6603
 4768TIP3   OH235938   2.604   6.391   2.311  0.4114  0.3147  0.0385
 4768TIP3    H135939   2.567   6.318   2.262  1.9399  1.2366 -2.7013
 4768TIP3    H235940   2.655   6.349   2.381  2.3475 -1.4359 -2.2383
 4769TIP3   OH235941   4.980   3.894   0.229  0.0366  0.1733 -0.0220
 4769TIP3    H135942   4.966   3.909   0.136  0.5763 -0.4627 -0.2190
 4769TIP3    H235943   4.893   3.875   0.264 -0.1764  0.4689 -0.3841
 4770TIP3   OH235944   4.663   1.779   7.968  0.8817 -0.6562  0.1848
 4770TIP3    H135945   4.743   1.817   8.003  1.5812 -0.9442 -1.0631
 4770TIP3    H235946   4.616   1.853   7.930  1.0016 -0.6363  0.0763
 4771TIP3   OH235947   1.100   2.910   7.653  0.2155 -0.6153 -0.3587
 4771TIP3    H135948   1.183   2.885   7.613  0.6191 -1.7783  1.1283
 4771TIP3    H235949   1.113   2.897   7.747 -0.6132  2.1845  0.2509
 4772TIP3   OH235950   6.199   5.191   8.317 -0.5687  0.3414  0.0069
 4772TIP3    H135951   6.221   5.100   8.294 -3.6946 -0.6928  0.6211
 4772TIP3    H235952   6.241   5.205   8.402  3.6126  1.1359 -1.9268
 4773TIP3   OH235953   1.424   1.775   2.847  0.3536 -0.4239 -0.1820
 4773TIP3    H135954   1.386   1.749   2.764  2.2944 -0.1355 -1.2176
 4773TIP3    H235955   1.476   1.700   2.875 -1.5757 -1.1730  1.6786
 4774TIP3   OH235956   1.184   0.689   1.260 -0.3263  0.4938  0.2757
 4774TIP3    H135957   1.123   0.740   1.207 -0.9597 -0.1926  0.3103
 4774TIP3    H235958   1.204   0.745   1.335  2.0767  2.2513 -1.5534
 4775TIP3   OH235959   0.683   3.226   6.940 -0.0542  0.5186  0.4294
 4775TIP3    H135960   0.593   3.254   6.925 -0.7784 -0.4556  2.6353
 4775TIP3    H235961   0.681   3.131   6.927  0.3058  0.2950  1.8341
 4776TIP3   OH235962   5.336   6.085   7.670 -0.1391  0.1154 -0.1076
 4776TIP3    H135963   5.255   6.064   7.624 -0.5877  0.5617  0.4609
 4776TIP3    H235964   5.328   6.040   7.755 -0.0956  0.6908  0.2101
 4777TIP3   OH235965   0.350   3.100   1.687  0.4684 -0.2134  0.5743
 4777TIP3    H135966   0.356   3.132   1.597  0.8998  0.4389  0.8293
 4777TIP3    H235967   0.351   3.004   1.679 -0.3178 -0.1647 -0.1620
 4778TIP3   OH235968   3.705   3.244   8.657  0.3391  0.3723 -0.4718
 4778TIP3    H135969   3.789   3.216   8.622  1.3443  1.6145  0.8000
 4778TIP3    H235970   3.675   3.312   8.597  1.5394  1.7501  0.4335
 4779TIP3   OH235971   6.499   1.115   8.926 -0.5770  0.0653 -0.1473
 4779TIP3    H135972   6.538   1.198   8.898  1.5499 -1.1314 -0.9062
 4779TIP3    H235973   6.422   1.104   8.870  0.5741  0.2976 -1.8105
 4780TIP3   OH235974   1.526   4.012   0.371  0.1855  0.2045  0.2191
 4780TIP3    H135975   1.554   4.092   0.325  0.0618  0.6307  0.8735
 4780TIP3    H235976   1.466   4.043   0.439 -1.2835 -0.6179 -0.6482
 4781TIP3   OH235977   0.290   1.267   0.369 -0.3147  0.2547  0.3683
 4781TIP3    H135978   0.326   1.295   0.285  0.2032  0.7085  0.7343
 4781TIP3    H235979   0.343   1.192   0.394 -0.9854 -0.3775 -0.0850
 4782TIP3   OH235980   4.375   3.671   0.869 -0.3867  0.1160 -0.2903
 4782TIP3    H135981   4.375   3.697   0.777  1.7638 -0.7127 -0.5737
 4782TIP3    H235982   4.401   3.749   0.917  3.7203 -0.6463 -0.9344
 4783TIP3   OH235983   1.944   1.619   6.692  0.1814  0.0957  0.4079
 4783TIP3    H135984   1.863   1.568   6.698  0.2486  0.0991  1.5492
 4783TIP3    H235985   2.010   1.556   6.663 -0.3430  0.2517 -1.2588
 4784TIP3   OH235986   5.260   4.848   1.362 -0.0118  0.3141  0.4493
 4784TIP3    H135987   5.332   4.890   1.316 -0.5270  2.3892  1.4151
 4784TIP3    H235988   5.299   4.770   1.402  1.7054  1.3706  0.9377
 4785TIP3   OH235989   2.701   0.317   0.706  0.3577 -0.3452  0.0130
 4785TIP3    H135990   2.746   0.260   0.643  1.3350  1.4638 -1.0001
 4785TIP3    H235991   2.714   0.406   0.672 -1.5020  0.4840  1.2865
 4786TIP3   OH235992   6.133   6.419   1.634  0.3581  0.1843 -0.2547
 4786TIP3    H135993   6.163   6.502   1.596 -0.5561  0.4142 -0.5106
 4786TIP3    H235994   6.048   6.440   1.673  0.4574 -0.4692  0.3287
 4787TIP3   OH235995   4.321   2.511   0.683 -0.0817  0.0675 -0.2753
 4787TIP3    H135996   4.332   2.431   0.631 -1.3947  0.7189 -1.6431
 4787TIP3    H235997   4.374   2.576   0.639 -2.0196  0.8960 -1.5264
 4788TIP3   OH235998   0.023   3.575   1.848 -0.2023  0.2486 -0.5032
 4788TIP3    H135999  -0.061   3.619   1.861 -0.0075  0.3052  0.6547
 4788TIP3    H236000   0.073   3.635   1.792 -0.9145  0.2250 -1.1752
 4789TIP3   OH236001   5.463   4.985   1.211 -0.1768 -0.2442 -0.1806
 4789TIP3    H136002   5.418   5.061   1.248 -0.2877 -0.0127 -0.7840
 4789TIP3    H236003   5.556   5.001   1.230 -0.3769 -1.1109  1.7764
 4790TIP3   OH236004   2.194   5.756   1.408  0.2360 -0.0327  0.2910
 4790TIP3    H136005   2.127   5.784   1.471  0.7547 -2.5174  2.0803
 4790TIP3    H236006   2.275   5.755   1.458  0.6252 -2.3535 -0.2638
 4791TIP3   OH236007   6.040   6.740   8.199  0.5697 -0.5246 -0.0414
 4791TIP3    H136008   5.971   6.680   8.172 -0.6009  1.0604 -0.7442
 4791TIP3    H236009   6.012   6.770   8.285 -1.7409  2.9123 -1.7556
 4792TIP3   OH236010   2.928   1.939   1.915 -0.1751  0.3025  0.9766
 4792TIP3    H136011   2.886   1.941   2.001 -0.5825 -0.5474  0.8069
 4792TIP3    H236012   2.879   1.873   1.866  0.5487  0.2224  0.3448
 4793TIP3   OH236013   5.609   4.584   8.548 -0.1353  0.0440 -0.3182
 4793TIP3    H136014   5.538   4.520   8.552 -0.9420  0.9588  1.5558
 4793TIP3    H236015   5.584   4.651   8.612  2.2642  0.5836  0.1456
 4794TIP3   OH236016   5.466   3.251   1.913 -0.2210 -0.1728  0.9111
 4794TIP3    H136017   5.385   3.245   1.964  0.2936  0.0911  1.7853
 4794TIP3    H236018   5.481   3.345   1.903 -1.2618 -0.1875 -1.3099
 4795TIP3   OH236019   6.164   5.076   0.976 -0.2954 -0.0393 -0.0893
 4795TIP3    H136020   6.096   5.144   0.978 -1.1187 -0.8271 -0.2688
 4795TIP3    H236021   6.148   5.024   1.054 -0.3844 -0.6787 -0.5248
 4796TIP3   OH236022   4.635   5.330   2.546  0.0149 -0.2004  0.0515
 4796TIP3    H136023   4.613   5.253   2.598 -0.3421 -0.7589 -0.8979
 4796TIP3    H236024   4.553   5.354   2.503  0.6789 -0.9263 -1.7418
 4797TIP3   OH236025   1.537   4.713   6.830  0.0672 -0.4400  0.1942
 4797TIP3    H136026   1.593   4.768   6.886  0.8722 -0.4528 -0.5816
 4797TIP3    H236027   1.448   4.729   6.863  0.4612  0.0371  1.0667
 4798TIP3   OH236028   2.502   5.888   1.565 -0.2061  0.7502  0.2451
 4798TIP3    H136029   2.565   5.864   1.497 -0.7918 -0.8236  0.2226
 4798TIP3    H236030   2.513   5.821   1.633 -0.6903  1.4266  1.0058
 4799TIP3   OH236031   1.863   5.676   7.797 -0.1824 -0.0024  0.0362
 4799TIP3    H136032   1.932   5.654   7.860  0.0780  0.4396 -0.0897
 4799TIP3    H236033   1.851   5.596   7.746  0.1356 -0.1285  0.1540
 4800TIP3   OH236034   2.586   3.422   2.415  0.7205  0.0028 -0.3837
 4800TIP3    H136035   2.492   3.429   2.428  0.8015  0.1907  0.1220
 4800TIP3    H236036   2.609   3.337   2.455  0.9689  0.5799  0.7520
 4801TIP3   OH236037   1.637   4.760   1.099  0.1341 -0.3920  0.1776
 4801TIP3    H136038   1.600   4.815   1.030 -1.4528 -0.0564  1.2381
 4801TIP3    H236039   1.679   4.821   1.159  2.4525 -0.7615 -0.9553
 4802TIP3   OH236040   4.258   1.103   7.356  0.4124  0.0939  0.0498
 4802TIP3    H136041   4.293   1.014   7.345  0.8523  0.3454 -0.6364
 4802TIP3    H236042   4.187   1.092   7.419 -0.7355 -1.0698 -1.3495
 4803TIP3   OH236043   1.149   5.594   8.591  0.6705  0.0543  0.7249
 4803TIP3    H136044   1.151   5.627   8.681 -1.2170  0.8431  0.5196
 4803TIP3    H236045   1.072   5.538   8.587  1.3360 -0.8511 -0.1519
 4804TIP3   OH236046   3.006   1.214   2.111 -0.6489  0.0758 -0.1636
 4804TIP3    H136047   3.068   1.197   2.182 -0.5924 -1.7450 -0.6205
 4804TIP3    H236048   3.060   1.228   2.034 -0.7181  1.8970  0.0744
 4805TIP3   OH236049   0.566   1.482   2.661  0.3972 -0.1431 -0.0473
 4805TIP3    H136050   0.643   1.498   2.716 -0.1371 -2.0674  1.3842
 4805TIP3    H236051   0.531   1.399   2.693  0.0984 -1.4644 -3.4340
 4806TIP3   OH236052   2.352   2.713   8.769  0.7308  0.0599 -0.2577
 4806TIP3    H136053   2.291   2.774   8.809 -0.8814 -0.9969 -1.0102
 4806TIP3    H236054   2.394   2.669   8.843 -0.4319 -0.1604  0.2977
 4807TIP3   OH236055   1.604   0.846   1.226 -0.3789  0.2788 -0.1268
 4807TIP3    H136056   1.568   0.773   1.277  0.8593  0.5773  1.2348
 4807TIP3    H236057   1.608   0.919   1.288  0.7653  0.7759 -0.7642
 4808TIP3   OH236058   5.527   5.488   2.143  0.1087 -0.1693  0.2823
 4808TIP3    H136059   5.524   5.494   2.239  1.9487  0.9477  0.3094
 4808TIP3    H236060   5.443   5.449   2.119 -1.1404  1.1646  2.2271
 4809TIP3   OH236061   0.870   4.125   1.545  0.0709  0.5589 -0.0841
 4809TIP3    H136062   0.924   4.199   1.573 -0.8595  1.0379  0.5007
 4809TIP3    H236063   0.833   4.090   1.626 -0.1564 -0.0225 -0.4317
 4810TIP3   OH236064   5.403   0.484   2.272 -0.1260  0.2070 -0.0036
 4810TIP3    H136065   5.487   0.439   2.282  0.4474  0.8400 -1.5954
 4810TIP3    H236066   5.349   0.423   2.220 -0.3634  0.1481  0.3099
 4811TIP3   OH236067   0.101   5.769   7.488 -0.0955 -0.4641  0.2109
 4811TIP3    H136068   0.073   5.858   7.509 -0.6371 -0.1544 -1.6502
 4811TIP3    H236069   0.167   5.780   7.419 -0.0336 -1.4912  0.0887
 4812TIP3   OH236070   0.819   0.757   2.351  0.1394 -0.1311 -0.0017
 4812TIP3    H136071   0.908   0.784   2.328  0.8232 -0.9815  1.4804
 4812TIP3    H236072   0.773   0.839   2.368  0.8625  0.2924 -0.0439
 4813TIP3   OH236073   0.648   1.343   7.998 -1.0492 -0.1293  0.1813
 4813TIP3    H136074   0.579   1.401   7.964 -0.5258  0.0828 -0.5495
 4813TIP3    H236075   0.697   1.396   8.060 -0.9461  0.0276 -0.0334
 4814TIP3   OH236076   1.534   3.494   0.467  0.4110  0.0802 -0.5124
 4814TIP3    H136077   1.616   3.448   0.451  0.1163 -0.5742 -0.2119
 4814TIP3    H236078   1.516   3.478   0.560  0.7894  1.6214 -0.1620
 4815TIP3   OH236079   4.643   4.841   7.755 -0.0619 -0.0877 -0.2374
 4815TIP3    H136080   4.582   4.769   7.736 -0.8843  0.7960 -1.0215
 4815TIP3    H236081   4.614   4.913   7.699  0.0923  1.2081  1.2768
 4816TIP3   OH236082   4.824   6.367   7.897  0.3576  0.4806  0.5968
 4816TIP3    H136083   4.738   6.332   7.878  0.6361 -0.6477  1.3181
 4816TIP3    H236084   4.870   6.365   7.813  0.4751 -1.2333  0.6750
 4817TIP3   OH236085   0.421   5.570   7.725 -0.5146  0.2102  0.2221
 4817TIP3    H136086   0.328   5.590   7.719 -0.4898  0.3541  0.3091
 4817TIP3    H236087   0.424   5.478   7.750 -0.6351  0.2135  0.2490
 4818TIP3   OH236088   6.527   2.698   1.744 -0.1840  0.4345 -0.1204
 4818TIP3    H136089   6.565   2.764   1.686 -0.8006  0.3867 -0.5833
 4818TIP3    H236090   6.602   2.644   1.770  0.1776  0.7597 -0.4658
 4819TIP3   OH236091   0.700   0.762   7.361  0.2539  1.0341  0.2883
 4819TIP3    H136092   0.618   0.733   7.321  0.3785 -0.2802  0.9342
 4819TIP3    H236093   0.674   0.831   7.422 -0.3208  0.9259  0.1711
 4820TIP3   OH236094   2.365   6.092   7.967 -0.2787  0.1431  0.2140
 4820TIP3    H136095   2.305   6.018   7.956 -0.5153  0.5728 -1.6741
 4820TIP3    H236096   2.367   6.135   7.881  0.4504  1.8851  1.0503
 4821TIP3   OH236097   2.966   1.464   1.222 -0.1812 -0.5432 -0.2635
 4821TIP3    H136098   2.893   1.514   1.185 -0.0001  0.5342  0.7555
 4821TIP3    H236099   2.972   1.386   1.167 -3.3380 -1.6564  0.7050
 4822TIP3   OH236100   1.989   2.611   8.463 -0.1762 -0.8867 -0.0428
 4822TIP3    H136101   1.987   2.659   8.380 -1.3726 -0.4707  0.2135
 4822TIP3    H236102   2.082   2.595   8.479  0.4402  2.5281  0.5199
 4823TIP3   OH236103   5.025   4.890   0.996  0.1424 -0.0541 -0.3869
 4823TIP3    H136104   5.096   4.827   0.984 -0.9438 -1.4654  0.3728
 4823TIP3    H236105   5.018   4.934   0.911  1.8148  0.0247 -0.5196
 4824TIP3   OH236106   3.190   2.573   8.571 -0.8457 -0.3539 -0.0101
 4824TIP3    H136107   3.226   2.617   8.494  0.7985 -1.7919 -0.1282
 4824TIP3    H236108   3.249   2.499   8.586 -1.9817 -0.9648  1.7570
 4825TIP3   OH236109   2.374   5.127   1.518  0.2260  0.1793  1.1559
 4825TIP3    H136110   2.469   5.126   1.526  0.4704 -1.0849 -1.0768
 4825TIP3    H236111   2.356   5.187   1.446 -0.6265 -0.1055  1.1152
 4826TIP3   OH236112   3.003   2.183   0.013 -1.4945 -0.3294  0.1520
 4826TIP3    H136113   2.954   2.258  -0.020 -0.6993  0.7383  1.2866
 4826TIP3    H236114   2.950   2.148   0.084 -1.4779 -0.3200  0.1692
 4827TIP3   OH236115   0.857   3.086   7.351 -0.3702 -0.2405 -0.0520
 4827TIP3    H136116   0.856   3.040   7.267  3.3552  0.4161 -0.6407
 4827TIP3    H236117   0.902   3.027   7.411 -0.0347  0.6060  0.5533
 4828TIP3   OH236118   6.474   4.338   8.709  0.1779 -0.9011  0.3159
 4828TIP3    H136119   6.438   4.346   8.621 -0.9033 -0.9479  0.7421
 4828TIP3    H236120   6.403   4.302   8.762  0.8466 -0.9923  1.1889
 4829TIP3   OH236121   4.335   3.781   0.628  0.2345 -0.1300 -0.3912
 4829TIP3    H136122   4.310   3.852   0.686  0.2329  0.1372 -0.7187
 4829TIP3    H236123   4.363   3.824   0.547  0.3052 -0.4946 -0.5632
 4830TIP3   OH236124   1.771   5.259   7.377  0.1152 -0.6107  0.0911
 4830TIP3    H136125   1.779   5.185   7.317 -0.2695 -0.5263 -0.0678
 4830TIP3    H236126   1.829   5.326   7.341 -0.5802 -0.3332 -0.5419
 4831TIP3   OH236127   5.372   5.007   7.783 -0.0422  0.1066 -0.1551
 4831TIP3    H136128   5.403   5.097   7.783 -1.0491  0.4639  0.3733
 4831TIP3    H236129   5.366   4.984   7.690 -2.6679  1.6400 -0.4727
 4832TIP3   OH236130   4.688   3.211   1.270  0.2725 -0.2401  0.0612
 4832TIP3    H136131   4.707   3.157   1.346  1.0537 -0.6340 -0.4127
 4832TIP3    H236132   4.680   3.150   1.197 -0.5796  0.1231 -0.1709
 4833TIP3   OH236133   6.608   0.975   7.349 -0.0522 -0.0770 -0.3425
 4833TIP3    H136134   6.687   0.929   7.323  0.8219  1.1111  0.1220
 4833TIP3    H236135   6.543   0.905   7.363  1.6269 -1.3562  1.8512
 4834TIP3   OH236136   0.924   6.371   0.236  0.1062  0.0504  0.0114
 4834TIP3    H136137   0.917   6.404   0.325 -1.1330 -1.1156  0.3759
 4834TIP3    H236138   0.936   6.276   0.246 -1.7338 -0.3564 -1.0351
 4835TIP3   OH236139   2.411   4.144   7.462 -0.1244 -0.1915  0.5057
 4835TIP3    H136140   2.352   4.134   7.387 -0.1659  0.0791  0.5038
 4835TIP3    H236141   2.481   4.080   7.446  0.0025  0.0426  0.1060
 4836TIP3   OH236142   4.878   6.793   2.847  0.4334  0.0755 -0.4509
 4836TIP3    H136143   4.824   6.727   2.890  0.6351 -0.3900 -0.8844
 4836TIP3    H236144   4.968   6.763   2.861  0.6329  1.1410  0.7468
 4837TIP3   OH236145   0.674   4.118   1.332 -0.0241 -0.0381 -0.8211
 4837TIP3    H136146   0.642   4.030   1.348  1.6907 -0.5360  0.0880
 4837TIP3    H236147   0.729   4.138   1.408  0.6863  1.2866 -1.6434
 4838TIP3   OH236148   5.739   5.609   0.242 -0.1194  0.2586 -0.3449
 4838TIP3    H136149   5.691   5.621   0.324 -0.2235  3.2838 -0.7389
 4838TIP3    H236150   5.692   5.664   0.179  0.6398 -1.1035 -2.1531
 4839TIP3   OH236151   2.245   3.587   8.566  0.5027  0.7461 -0.3758
 4839TIP3    H136152   2.249   3.639   8.646  0.1346 -0.2297  0.2855
 4839TIP3    H236153   2.312   3.520   8.577  0.1117  0.3068 -0.6691
 4840TIP3   OH236154   1.438   5.819   1.600  0.0205  0.1417 -0.1094
 4840TIP3    H136155   1.485   5.757   1.657  0.8610  0.2621 -0.6521
 4840TIP3    H236156   1.444   5.779   1.513 -2.9408 -1.0519  0.1084
 4841TIP3   OH236157   4.337   5.976   0.681 -0.1407 -0.0012 -0.4560
 4841TIP3    H136158   4.421   5.950   0.716  0.1946  0.7225 -0.7027
 4841TIP3    H236159   4.306   6.046   0.739 -0.4615 -0.1001 -0.5012
 4842TIP3   OH236160   5.913   0.879   7.708  0.4966 -0.3012  0.1873
 4842TIP3    H136161   5.853   0.818   7.750 -1.7172  0.9130 -1.0715
 4842TIP3    H236162   5.970   0.824   7.654 -0.1608 -1.3992  0.5966
 4843TIP3   OH236163   4.788   5.223   7.719  0.4222 -0.4152 -0.1803
 4843TIP3    H136164   4.704   5.269   7.717 -0.5547 -2.0109  1.4204
 4843TIP3    H236165   4.792   5.176   7.635 -0.4998 -0.6572 -0.0986
 4844TIP3   OH236166   6.649   5.606   0.919 -0.5928  0.4290  0.0746
 4844TIP3    H136167   6.688   5.551   0.986  0.0058  0.1280 -0.5111
 4844TIP3    H236168   6.721   5.661   0.888 -0.3253 -0.8335 -1.7324
 4845TIP3   OH236169   5.718   3.163   1.918 -0.4571  0.4948  0.1042
 4845TIP3    H136170   5.708   3.088   1.977  0.9417  1.3777  1.5281
 4845TIP3    H236171   5.629   3.181   1.888 -0.9755 -1.0209  0.6260
 4846TIP3   OH236172   1.083   3.502   2.074  0.1395 -0.0306  0.7444
 4846TIP3    H136173   1.117   3.550   2.150  1.1629 -2.2297  1.7749
 4846TIP3    H236174   1.003   3.548   2.051  1.2527  2.3779  1.3798
 4847TIP3   OH236175   3.412   1.236   0.292  0.0424 -0.0280  0.2260
 4847TIP3    H136176   3.376   1.281   0.216  0.8424  0.7359  0.2757
 4847TIP3    H236177   3.336   1.199   0.337 -0.3498 -1.6316 -1.6342
 4848TIP3   OH236178   5.394   4.778   8.334  0.5726  0.4968  0.6117
 4848TIP3    H136179   5.330   4.707   8.349  2.4249 -1.1030  1.3275
 4848TIP3    H236180   5.342   4.858   8.339 -1.4340 -0.7498  0.8835
 4849TIP3   OH236181   6.245   6.583   8.888  0.2452 -0.4068  0.0312
 4849TIP3    H136182   6.178   6.535   8.839 -0.8130  0.2509  0.7851
 4849TIP3    H236183   6.311   6.607   8.822 -0.4023 -0.8157 -0.7842
 4850TIP3   OH236184   3.467   3.960   8.149  0.1563  0.2795 -0.4007
 4850TIP3    H136185   3.562   3.953   8.151  0.3181  1.5892 -1.4811
 4850TIP3    H236186   3.446   3.968   8.056 -1.1267 -1.0149 -0.2714
 4851TIP3   OH236187   5.275   2.991   2.138 -0.0648  0.2896  0.0543
 4851TIP3    H136188   5.195   3.042   2.123  1.1558  3.1750  2.4402
 4851TIP3    H236189   5.338   3.054   2.173  3.3649 -1.8519 -1.7737
 4852TIP3   OH236190   0.858   6.640   8.354 -0.4215  0.1981 -0.1169
 4852TIP3    H136191   0.949   6.659   8.378  0.0722 -0.2799 -1.4686
 4852TIP3    H236192   0.858   6.548   8.329 -1.0878  0.3888 -0.9002
 4853TIP3   OH236193   5.830   0.169   0.843 -0.0033 -0.0089 -0.2304
 4853TIP3    H136194   5.909   0.221   0.855 -0.2638  0.5074 -0.7357
 4853TIP3    H236195   5.855   0.101   0.781  0.4826 -0.8205  0.8205
 4854TIP3   OH236196   0.858   4.519   6.934  0.2888 -0.5313 -0.3304
 4854TIP3    H136197   0.814   4.493   7.015  0.6403 -0.3364 -0.0722
 4854TIP3    H236198   0.914   4.593   6.960  1.3680 -1.2671 -0.4672
 4855TIP3   OH236199   1.334   6.546   1.382 -0.5114 -0.1644  0.5933
 4855TIP3    H136200   1.290   6.629   1.364  0.8241  0.4680  0.1080
 4855TIP3    H236201   1.344   6.544   1.477 -0.5547  0.2313  0.6088
 4856TIP3   OH236202   2.597   1.714   2.359 -0.5040 -0.1086  0.0397
 4856TIP3    H136203   2.645   1.639   2.324 -0.7862 -0.0398 -0.5153
 4856TIP3    H236204   2.590   1.697   2.453 -1.7977 -1.4905 -0.2733
 4857TIP3   OH236205   1.945   4.209   8.217 -0.1572  0.1227  0.2767
 4857TIP3    H136206   1.885   4.224   8.145  0.0770  0.6716  0.1963
 4857TIP3    H236207   1.947   4.291   8.265  2.5624  1.0563 -1.2359
 4858TIP3   OH236208   2.011   0.053   8.887  0.2542  0.5784 -0.4911
 4858TIP3    H136209   2.003   0.018   8.976 -2.3059  1.3174 -0.3485
 4858TIP3    H236210   1.982   0.144   8.895  0.5851  0.8340 -1.9896
 4859TIP3   OH236211   5.717   1.562   7.582 -0.2299 -0.2828 -0.6717
 4859TIP3    H136212   5.767   1.614   7.520 -0.6441 -0.0824 -0.8422
 4859TIP3    H236213   5.701   1.480   7.537 -1.5793  0.3090 -1.3239
 4860TIP3   OH236214   3.373   3.806   8.789 -0.0973 -0.1744  0.1718
 4860TIP3    H136215   3.283   3.774   8.781 -0.6875  1.6424 -1.3055
 4860TIP3    H236216   3.426   3.736   8.752 -1.1315 -0.4037 -0.9800
 4861TIP3   OH236217   6.411   5.501   8.100  0.4470  0.1664 -0.2725
 4861TIP3    H136218   6.375   5.588   8.081  0.7514  0.3031 -0.2288
 4861TIP3    H236219   6.374   5.479   8.185  0.1855  0.1511 -0.3863
 4862TIP3   OH236220   2.739   3.377   0.216  1.0732 -0.9247 -0.0862
 4862TIP3    H136221   2.714   3.467   0.236  1.2910 -0.4535 -1.7640
 4862TIP3    H236222   2.656   3.329   0.212  0.9223 -0.7062  0.3724
 4863TIP3   OH236223   5.348   4.674   7.733 -0.3792 -0.2685  0.2298
 4863TIP3    H136224   5.358   4.582   7.755  0.8435 -0.0042  0.8908
 4863TIP3    H236225   5.308   4.714   7.810 -0.0942 -0.1013  0.2945
 4864TIP3   OH236226   0.740   1.527   8.193  0.0096  0.6438 -0.5507
 4864TIP3    H136227   0.710   1.518   8.283 -0.9725  0.0326 -0.9172
 4864TIP3    H236228   0.813   1.588   8.197 -0.6775  1.4163  0.5206
 4865TIP3   OH236229   1.535   6.450   0.692 -0.2480 -0.4656  0.3428
 4865TIP3    H136230   1.542   6.499   0.610 -3.0830 -2.0911 -1.0370
 4865TIP3    H236231   1.449   6.474   0.726  1.4311  1.3216  3.7694
 4866TIP3   OH236232   2.198   5.167   0.008  0.4052  0.4495 -0.0377
 4866TIP3    H136233   2.279   5.136   0.046 -0.9559 -0.7875  2.0464
 4866TIP3    H236234   2.132   5.152   0.075 -1.3855  2.4641 -1.2098
 4867TIP3   OH236235   5.458   5.741   2.271 -0.2608  0.2173  0.0150
 4867TIP3    H136236   5.512   5.735   2.193 -1.3153 -0.5032 -0.6743
 4867TIP3    H236237   5.465   5.833   2.298 -0.0119  0.5051 -1.0042
 4868TIP3   OH236238   4.456   0.705   0.219  0.0239 -0.4923  0.2305
 4868TIP3    H136239   4.461   0.788   0.268 -0.3321 -1.6229  2.3297
 4868TIP3    H236240   4.460   0.638   0.287 -6.7634 -2.2509 -0.4512
 4869TIP3   OH236241   5.313   2.750   0.546 -0.0723 -0.5457 -0.5112
 4869TIP3    H136242   5.369   2.673   0.559  0.2326 -0.3497 -0.6309
 4869TIP3    H236243   5.319   2.798   0.629 -0.6287 -0.8811 -0.2735
 4870TIP3   OH236244   3.800   4.518   1.086 -0.0020 -0.1840 -0.1580
 4870TIP3    H136245   3.731   4.564   1.134  1.0932  1.3402  0.0024
 4870TIP3    H236246   3.866   4.585   1.069  1.7209 -1.7379  0.1976
 4871TIP3   OH236247   6.034   5.261   6.727  0.2262 -0.1963 -0.8033
 4871TIP3    H136248   6.105   5.286   6.785 -0.2074 -0.6984 -0.0368
 4871TIP3    H236249   6.065   5.285   6.640  0.7975  0.7717 -0.3549
 4872TIP3   OH236250   3.177   3.950   8.577  0.6084  0.2359 -0.0632
 4872TIP3    H136251   3.258   3.919   8.537 -0.4846 -0.6316 -1.7743
 4872TIP3    H236252   3.201   4.030   8.623  2.4962 -0.2326 -0.1558
 4873TIP3   OH236253   0.638   2.758   7.647 -0.0711 -0.4205  0.0081
 4873TIP3    H136254   0.607   2.717   7.566 -0.9732  1.7560 -0.8204
 4873TIP3    H236255   0.564   2.812   7.676  1.1830  0.9326  0.8003
 4874TIP3   OH236256   5.780   0.319   7.258  0.0719 -0.0136  0.2138
 4874TIP3    H136257   5.786   0.256   7.330 -0.3758  0.7160  0.9042
 4874TIP3    H236258   5.723   0.389   7.291  0.2547  0.5754 -0.6685
 4875TIP3   OH236259   5.056   2.659   8.293 -0.1910  0.3990 -0.1509
 4875TIP3    H136260   5.072   2.634   8.202  0.0750  2.4788 -0.7324
 4875TIP3    H236261   4.976   2.612   8.317 -1.3825  1.2902 -2.1351
 4876TIP3   OH236262   4.552   0.118   0.229  0.2578  0.0530 -0.6374
 4876TIP3    H136263   4.637   0.157   0.208 -0.4783  3.1591  1.4931
 4876TIP3    H236264   4.491   0.191   0.226 -1.8365 -1.5430  0.6757
 4877TIP3   OH236265   6.374   6.631   7.021 -0.5153  0.4738 -0.5771
 4877TIP3    H136266   6.311   6.662   7.086 -0.5323  0.6972 -0.6965
 4877TIP3    H236267   6.335   6.656   6.937 -1.3096 -1.2879 -0.7775
 4878TIP3   OH236268   1.023   1.524   7.763 -0.3101 -0.6399 -0.6543
 4878TIP3    H136269   1.065   1.450   7.807  0.4985  0.2047  0.0339
 4878TIP3    H236270   0.936   1.492   7.741 -0.6169 -1.2348  1.2338
 4879TIP3   OH236271   0.020   6.076   7.235  0.2852 -0.1372 -0.3249
 4879TIP3    H136272   0.015   6.094   7.329  0.8211  1.9167 -0.6338
 4879TIP3    H236273   0.001   6.160   7.194  1.3446 -0.6784 -2.0326
 4880TIP3   OH236274   1.388   4.358   1.986  0.0235 -0.2511  0.3582
 4880TIP3    H136275   1.356   4.445   1.960  0.6857 -0.1405 -0.1344
 4880TIP3    H236276   1.429   4.372   2.071  0.3546 -0.0175  0.1650
 4881TIP3   OH236277   1.578   4.025   8.817  0.0114 -0.0172 -0.5021
 4881TIP3    H136278   1.661   4.016   8.771 -0.6801 -0.2400 -1.7319
 4881TIP3    H236279   1.550   4.115   8.801 -0.5896 -0.3115 -1.1677
 4882TIP3   OH236280   4.072   3.503   2.494 -0.1425 -0.3268 -0.6923
 4882TIP3    H136281   4.086   3.445   2.569 -1.4911  1.4011  1.0090
 4882TIP3    H236282   3.985   3.478   2.462 -1.0104  1.0344  0.4393
 4883TIP3   OH236283   1.234   4.399   0.282 -0.7470 -0.7602 -0.2705
 4883TIP3    H136284   1.251   4.364   0.369  0.4190  0.6069  0.0777
 4883TIP3    H236285   1.263   4.330   0.222  0.1012 -0.9955  0.4006
 4884TIP3   OH236286   3.497   3.710   8.001  0.0305  0.4502  0.5939
 4884TIP3    H136287   3.489   3.722   7.906  0.8975  1.2595  0.6069
 4884TIP3    H236288   3.537   3.624   8.011 -1.1584 -0.1732  0.2890
 4885TIP3   OH236289   6.709   6.529   8.104 -0.1429 -0.8066 -0.6369
 4885TIP3    H136290   6.800   6.498   8.111  0.5337  1.3618  1.7128
 4885TIP3    H236291   6.679   6.533   8.195 -1.9855  0.2400 -1.2585
 4886TIP3   OH236292   5.119   2.720   2.416  0.6833  0.6354  0.0288
 4886TIP3    H136293   5.033   2.703   2.377  2.5037 -0.1673 -4.1285
 4886TIP3    H236294   5.131   2.815   2.408  0.5891  0.6135 -0.4181
 4887TIP3   OH236295   3.812   5.127   2.037  0.0244 -0.8150 -0.2832
 4887TIP3    H136296   3.850   5.198   2.088  0.8765 -1.5840  0.1728
 4887TIP3    H236297   3.858   5.130   1.954  1.1324 -1.7553  0.2742
 4888TIP3   OH236298   4.031   3.063   2.744  0.5227  0.1247 -0.0343
 4888TIP3    H136299   4.089   2.988   2.755 -0.8001 -1.0020 -0.5714
 4888TIP3    H236300   3.947   3.026   2.716 -0.7466  1.6080  1.5443
 4889TIP3   OH236301   6.356   6.144   0.601 -0.3396  0.1218  0.5420
 4889TIP3    H136302   6.395   6.197   0.532  1.8236 -0.5148  1.2173
 4889TIP3    H236303   6.271   6.118   0.566  0.0831  1.0341 -1.2583
 4890TIP3   OH236304   6.159   0.382   0.254 -0.6505  0.1326 -0.0899
 4890TIP3    H136305   6.181   0.445   0.321 -1.0265 -1.8131  1.9861
 4890TIP3    H236306   6.216   0.307   0.271 -2.9098 -1.6715  0.1400
 4891TIP3   OH236307   3.335   2.354   8.594 -0.3879 -0.1227 -0.1251
 4891TIP3    H136308   3.350   2.369   8.687  1.3288  4.2805 -0.8661
 4891TIP3    H236309   3.421   2.330   8.560 -1.1625 -2.5045 -0.5805
 4892TIP3   OH236310   0.887   5.972   0.847  0.2183  0.2434 -0.1881
 4892TIP3    H136311   0.896   5.894   0.793 -2.0261 -1.1590  1.2812
 4892TIP3    H236312   0.975   5.991   0.877  1.0241 -0.8339 -1.7612
 4893TIP3   OH236313   3.825   0.042   8.763  0.0842  0.7984  0.0200
 4893TIP3    H136314   3.773   0.122   8.752  0.6609  1.1469 -0.2129
 4893TIP3    H236315   3.882   0.040   8.686 -0.9669 -0.6365 -0.7742
 4894TIP3   OH236316   5.810   1.146   8.482  0.6419  0.5799  0.0970
 4894TIP3    H136317   5.779   1.168   8.394 -1.2258  0.1585  0.5877
 4894TIP3    H236318   5.846   1.228   8.516  3.3135  0.2665 -1.7409
 4895TIP3   OH236319   5.885   6.070   7.913 -0.0519 -0.0404  0.1462
 4895TIP3    H136320   5.828   5.993   7.907  0.8004 -0.6535 -0.3440
 4895TIP3    H236321   5.923   6.065   8.001  1.8144 -1.5363 -0.6798
 4896TIP3   OH236322   0.597   3.190   7.236  0.1675  0.3393 -0.0314
 4896TIP3    H136323   0.675   3.244   7.221  0.6366 -0.1008  0.7673
 4896TIP3    H236324   0.558   3.225   7.316  0.4480 -0.4507  0.4633
 4897TIP3   OH236325   2.947   0.216   7.641 -0.2551  0.4077  0.5005
 4897TIP3    H136326   2.870   0.250   7.687 -0.2423 -0.9736  1.5869
 4897TIP3    H236327   2.967   0.133   7.684  1.9583  0.8017  0.3572
 4898TIP3   OH236328   2.284   0.224   0.062  0.0735  0.0526  0.2488
 4898TIP3    H136329   2.289   0.129   0.078  2.0912  0.1271  0.3071
 4898TIP3    H236330   2.276   0.232  -0.033 -1.5578 -0.1714  0.3356
 4899TIP3   OH236331   0.365   2.333   0.332 -0.1677 -0.3641 -0.4692
 4899TIP3    H136332   0.290   2.273   0.331 -1.2738  0.9850 -0.6098
 4899TIP3    H236333   0.403   2.322   0.419 -1.5361  0.1352  0.2096
 4900TIP3   OH236334   5.991   6.157   1.674  0.0823 -0.2032 -0.2115
 4900TIP3    H136335   6.062   6.184   1.616 -0.0801 -0.7952 -0.6964
 4900TIP3    H236336   6.014   6.193   1.760  0.3938  0.5599 -0.6144
 4901TIP3   OH236337   5.891   2.036   1.352  0.4486 -0.0826  0.3451
 4901TIP3    H136338   5.889   1.942   1.334 -0.4254  0.0056 -0.0778
 4901TIP3    H236339   5.814   2.052   1.405 -0.6858  0.7356 -1.4413
 4902TIP3   OH236340   1.891   4.819   8.655  0.8361  0.4776 -0.2092
 4902TIP3    H136341   1.968   4.856   8.699  1.4510  0.9528 -1.6404
 4902TIP3    H236342   1.924   4.742   8.610  0.7014  1.1888 -1.5832
 4903TIP3   OH236343   1.782   6.209   7.303  0.5347  0.2385  0.4002
 4903TIP3    H136344   1.688   6.196   7.312  0.3912  0.4271 -0.6529
 4903TIP3    H236345   1.814   6.221   7.392  0.0880 -3.1295  1.1323
 4904TIP3   OH236346   0.821   2.562   1.825  0.0130  0.0283 -0.3723
 4904TIP3    H136347   0.749   2.615   1.859  0.9742  0.1535  1.6041
 4904TIP3    H236348   0.779   2.500   1.765 -1.6916  0.2629  0.5215
 4905TIP3   OH236349   6.231   3.151   7.392 -1.0906 -0.3050  0.5543
 4905TIP3    H136350   6.184   3.233   7.409 -1.8505 -0.0513 -2.2369
 4905TIP3    H236351   6.222   3.138   7.297  0.7886 -2.5532  0.6049
 4906TIP3   OH236352   4.068   3.839   2.237  0.7778  0.4452  0.3314
 4906TIP3    H136353   4.023   3.773   2.185  0.9086  0.7327 -0.1498
 4906TIP3    H236354   4.145   3.794   2.272  1.4588  0.6133 -0.8772
 4907TIP3   OH236355   3.734   3.365   1.006 -0.0092 -0.0274  0.7275
 4907TIP3    H136356   3.730   3.369   1.102 -1.7830  0.4057  0.6832
 4907TIP3    H236357   3.799   3.431   0.982  1.4873 -1.1205  1.6670
 4908TIP3   OH236358   2.806   2.213   2.059 -0.1848 -0.0163  1.0228
 4908TIP3    H136359   2.844   2.289   2.103 -1.5051  1.0586  0.4001
 4908TIP3    H236360   2.765   2.249   1.981  1.3948 -1.7533 -0.7228
 4909TIP3   OH236361   2.588   2.923   7.787  0.7276 -0.0314 -0.1184
 4909TIP3    H136362   2.504   2.925   7.834  0.0342 -0.4799 -1.3022
 4909TIP3    H236363   2.566   2.887   7.701  1.5708  2.7332 -1.5739
 4910TIP3   OH236364   2.532   0.491   0.907 -0.4842 -0.4873 -0.6826
 4910TIP3    H136365   2.555   0.403   0.876  0.6760 -0.6394  0.5082
 4910TIP3    H236366   2.611   0.543   0.891 -0.3089 -0.2639  0.7509
 4911TIP3   OH236367   6.753   6.199   0.910 -0.2431  0.5069  0.0526
 4911TIP3    H136368   6.820   6.261   0.939 -0.1922  0.3292  0.3173
 4911TIP3    H236369   6.768   6.191   0.816  0.7501 -0.2781  0.2580
 4912TIP3   OH236370   6.562   2.013   1.758 -0.2828  0.0456 -0.2681
 4912TIP3    H136371   6.548   2.077   1.828 -3.1089  1.0034 -1.5535
 4912TIP3    H236372   6.557   1.928   1.802 -2.4077  0.6079  0.6972
 4913TIP3   OH236373   5.483   1.911   2.393 -1.2053  0.6485  0.2375
 4913TIP3    H136374   5.445   1.998   2.403 -1.6793  0.3540  1.1087
 4913TIP3    H236375   5.518   1.891   2.480 -1.4500 -0.1870  0.1473
 4914TIP3   OH236376   0.424   3.270   0.154  0.5068 -0.2643  0.1245
 4914TIP3    H136377   0.482   3.278   0.230  0.7954  3.6198 -0.3390
 4914TIP3    H236378   0.462   3.198   0.103  2.5049 -0.4968  1.7968
 4915TIP3   OH236379   4.861   6.744   0.121  0.0975  0.4259 -0.0486
 4915TIP3    H136380   4.820   6.766   0.037 -0.1754 -1.4147 -0.4533
 4915TIP3    H236381   4.921   6.672   0.100  1.1451  0.9379  1.0964
 4916TIP3   OH236382   2.361   2.807   1.748 -1.0011 -0.2519  0.3555
 4916TIP3    H136383   2.441   2.828   1.701  0.0369  0.5507  2.3357
 4916TIP3    H236384   2.387   2.738   1.810 -1.2724  1.3929  2.3982
 4917TIP3   OH236385   0.156   3.248   0.171 -0.1041  0.0919 -0.3087
 4917TIP3    H136386   0.119   3.160   0.178 -1.7209  0.7186 -0.5901
 4917TIP3    H236387   0.249   3.233   0.156 -0.1222 -1.5523  0.8597
 4918TIP3   OH236388   4.575   2.977   1.107 -0.1673 -0.4545  0.5249
 4918TIP3    H136389   4.640   2.922   1.151 -0.6359 -3.1383 -1.8653
 4918TIP3    H236390   4.497   2.923   1.102 -1.0714  0.8891 -0.8832
 4919TIP3   OH236391   0.112   3.181   7.915  0.3507  0.2613 -0.0081
 4919TIP3    H136392   0.058   3.102   7.921  0.5605  0.1288  0.1187
 4919TIP3    H236393   0.184   3.166   7.976  0.8067  0.2253 -0.5535
 4920TIP3   OH236394   1.599   1.718   0.272  0.0559 -0.3017  0.1952
 4920TIP3    H136395   1.512   1.678   0.266 -0.5417  1.0572 -0.6656
 4920TIP3    H236396   1.635   1.684   0.354 -1.2591 -0.9387  0.5381
 4921TIP3   OH236397   2.666   1.675   2.875  0.1374 -0.1822  0.2153
 4921TIP3    H136398   2.698   1.752   2.828  0.2660 -0.1983  0.2783
 4921TIP3    H236399   2.743   1.621   2.889  0.0966 -0.1837  0.4336
 4922TIP3   OH236400   0.181   1.057   0.582 -0.4195  0.1954 -0.1396
 4922TIP3    H136401   0.146   0.989   0.639  1.1157 -0.8862 -0.4222
 4922TIP3    H236402   0.240   1.010   0.523 -0.6296  1.5427 -1.4719
 4923TIP3   OH236403   4.165   3.749   2.565 -0.6840 -0.0307 -0.3331
 4923TIP3    H136404   4.132   3.661   2.544 -1.2008  0.0305  0.1987
 4923TIP3    H236405   4.224   3.770   2.493  1.0852 -1.6577  0.5674
 4924TIP3   OH236406   0.928   5.518   8.861 -0.1100 -0.2451 -0.4070
 4924TIP3    H136407   0.938   5.424   8.850 -0.6888 -0.3843  0.1862
 4924TIP3    H236408   1.017   5.552   8.863  0.0901 -0.6674 -1.4952
 4925TIP3   OH236409   3.395   3.817   7.005 -0.0901 -0.4815 -0.5726
 4925TIP3    H136410   3.448   3.852   7.076 -0.4756  1.1799 -1.0586
 4925TIP3    H236411   3.314   3.868   7.008 -1.4391 -2.5166 -0.2617
 4926TIP3   OH236412   6.344   4.687   2.100 -0.0231 -0.2717  0.6664
 4926TIP3    H136413   6.329   4.694   2.006 -0.9842 -0.1167  0.8175
 4926TIP3    H236414   6.317   4.772   2.135 -0.6004 -0.6593  1.1843
 4927TIP3   OH236415   3.097   3.845   1.994 -0.0667  0.1191 -0.0606
 4927TIP3    H136416   3.076   3.872   1.905 -0.7129 -1.1992 -0.3413
 4927TIP3    H236417   3.154   3.914   2.028  1.0758  0.1073 -1.8552
 4928TIP3   OH236418   4.194   3.219   2.382  0.7672 -0.2704  0.5586
 4928TIP3    H136419   4.286   3.190   2.382  1.2357  1.0955 -1.1048
 4928TIP3    H236420   4.176   3.239   2.474  1.9490 -1.0679  0.9924
 4929TIP3   OH236421   4.838   1.666   1.030 -0.4263 -0.8272  0.6845
 4929TIP3    H136422   4.839   1.703   1.118 -0.8883 -2.3082  1.3387
 4929TIP3    H236423   4.829   1.742   0.972 -2.9610  0.0234  2.0353
 4930TIP3   OH236424   6.337   1.571   1.361  0.0936  0.5875  0.9339
 4930TIP3    H136425   6.250   1.548   1.328  0.5200  0.8454 -0.4692
 4930TIP3    H236426   6.336   1.546   1.453 -1.0226 -0.6432  0.6111
 4931TIP3   OH236427   3.343   2.938   0.205 -0.6016  0.2914  0.5394
 4931TIP3    H136428   3.265   2.882   0.208 -1.6641  1.5424 -1.5907
 4931TIP3    H236429   3.328   3.003   0.273 -0.9549 -0.0744  0.8179
 4932TIP3   OH236430   0.085   0.070   7.359  0.1525 -0.1213 -0.1870
 4932TIP3    H136431   0.137   0.150   7.360  0.1473 -0.0996 -1.0672
 4932TIP3    H236432  -0.005   0.100   7.366  0.1496 -0.0501 -0.5361
 4933TIP3   OH236433   0.086   5.537   7.224  0.2041 -0.2612 -0.6755
 4933TIP3    H136434   0.042   5.522   7.140 -0.7427 -1.6456  0.0162
 4933TIP3    H236435   0.024   5.503   7.289  1.4119 -0.2719  0.4994
 4934TIP3   OH236436   6.290   4.156   7.426  0.7155  0.2265  0.3869
 4934TIP3    H136437   6.288   4.179   7.519  0.0622 -0.0635  0.4510
 4934TIP3    H236438   6.239   4.075   7.420  0.2968  0.5272 -0.2921
 4935TIP3   OH236439   5.661   4.039   1.355 -0.2981 -0.6833  0.4163
 4935TIP3    H136440   5.740   4.021   1.405  0.7226 -0.2313 -0.9631
 4935TIP3    H236441   5.615   4.107   1.405  1.7189  1.2452 -0.1979
 4936TIP3   OH236442   1.499   1.438   2.511  0.0803 -0.2321  0.2423
 4936TIP3    H136443   1.526   1.365   2.456 -0.2393  0.1162 -0.3849
 4936TIP3    H236444   1.444   1.397   2.579 -1.7180 -0.3712 -1.2133
 4937TIP3   OH236445   6.760   0.253   1.740 -0.3776 -0.1771 -0.2130
 4937TIP3    H136446   6.772   0.347   1.722 -1.2341  0.1896  1.0400
 4937TIP3    H236447   6.718   0.220   1.660 -2.4853  1.0640  0.2730
 4938TIP3   OH236448   0.999   3.947   8.186  0.0859  0.0392  0.3433
 4938TIP3    H136449   0.915   3.990   8.199 -0.2379  0.4336 -2.3810
 4938TIP3    H236450   1.029   3.925   8.274 -2.2291  1.0648  1.4747
 4939TIP3   OH236451   4.492   1.805   0.092  0.2928  0.4493  0.0901
 4939TIP3    H136452   4.586   1.813   0.104  0.2126  1.3017  0.2063
 4939TIP3    H236453   4.480   1.812  -0.003  0.3340  0.4905  0.0875
 4940TIP3   OH236454   1.549   0.777   0.947 -0.0487  0.1713  0.8866
 4940TIP3    H136455   1.471   0.831   0.950  0.0564  0.2846  1.5498
 4940TIP3    H236456   1.587   0.783   1.034  0.1186 -0.7413  0.8927
 4941TIP3   OH236457   2.266   6.228   1.268 -0.2330  0.0268  0.3746
 4941TIP3    H136458   2.203   6.230   1.340 -2.3487 -0.8037 -1.3547
 4941TIP3    H236459   2.214   6.243   1.189  1.8366 -0.1060 -1.1028
 4942TIP3   OH236460   0.587   6.088   3.186 -0.4141 -0.4646 -0.0802
 4942TIP3    H136461   0.672   6.129   3.172  0.1232 -0.3164  2.9299
 4942TIP3    H236462   0.524   6.159   3.176  0.2432  0.4693  1.9481
 4943TIP3   OH236463   6.659   3.811   7.527  0.2021 -0.1634  0.2014
 4943TIP3    H136464   6.701   3.832   7.611  1.2237 -2.6260  0.3964
 4943TIP3    H236465   6.726   3.831   7.462  0.0211  0.1139  0.0944
 4944TIP3   OH236466   1.548   1.959   8.002  0.1653  0.0820 -0.1946
 4944TIP3    H136467   1.541   1.945   7.908  0.1355  1.3838 -0.3981
 4944TIP3    H236468   1.639   1.986   8.015  0.3121 -0.5841  0.2287
 4945TIP3   OH236469   5.247   5.944   0.638 -0.7664 -0.1831  0.2040
 4945TIP3    H136470   5.309   5.873   0.655  1.2221  1.2246 -0.7520
 4945TIP3    H236471   5.171   5.923   0.693 -0.3406 -3.0745 -0.1438
 4946TIP3   OH236472   5.086   4.142   7.468  0.2488 -0.2962 -0.5470
 4946TIP3    H136473   5.073   4.222   7.519 -2.5771 -1.2967  0.5011
 4946TIP3    H236474   5.047   4.161   7.383 -0.0430 -0.3799 -0.4362
 4947TIP3   OH236475   2.333   4.285   0.754  0.0234  0.1715 -0.2593
 4947TIP3    H136476   2.418   4.275   0.710 -0.5834 -0.7723 -1.2770
 4947TIP3    H236477   2.306   4.374   0.731 -0.5590 -0.4856 -2.4339
 4948TIP3   OH236478   3.924   6.023   0.269  0.5286  0.4013  0.5298
 4948TIP3    H136479   3.982   6.036   0.344  0.4078  0.1152  0.6754
 4948TIP3    H236480   3.926   6.106   0.222  1.3066  0.2890  0.3548
 4949TIP3   OH236481   2.491   6.074   1.213  0.0448  0.3068  0.1993
 4949TIP3    H136482   2.515   6.128   1.137 -1.7404 -0.7768 -1.2216
 4949TIP3    H236483   2.439   6.133   1.268  2.7177  1.6042  1.5363
 4950TIP3   OH236484   2.083   2.573   1.592  0.0835 -0.1136 -0.2155
 4950TIP3    H136485   2.059   2.482   1.573 -0.0378  0.4136 -2.9850
 4950TIP3    H236486   2.002   2.622   1.579 -0.3117  0.2953  2.9878
 4951TIP3   OH236487   2.565   0.193   8.232  0.0708 -0.0458 -0.1296
 4951TIP3    H136488   2.550   0.284   8.257 -1.6694 -0.6623  1.2896
 4951TIP3    H236489   2.596   0.198   8.141 -3.1112  1.8489 -1.2877
 4952TIP3   OH236490   3.584   2.677   1.622  0.2797  0.2728 -0.3223
 4952TIP3    H136491   3.548   2.638   1.542  0.7312 -0.9413  0.0417
 4952TIP3    H236492   3.678   2.661   1.616  0.3948  0.7328  0.1585
 4953TIP3   OH236493   3.366   3.034   1.553  0.5060 -0.4883  0.5416
 4953TIP3    H136494   3.325   3.057   1.469  0.0801 -2.9764 -0.0077
 4953TIP3    H236495   3.309   3.071   1.619  0.8513  1.5415 -0.2147
 4954TIP3   OH236496   4.191   3.075   8.612  0.2976  0.0464 -0.4039
 4954TIP3    H136497   4.249   3.145   8.582 -1.0592  1.5587  0.3403
 4954TIP3    H236498   4.207   3.071   8.707 -0.6875  0.3739 -0.2179
 4955TIP3   OH236499   5.089   2.053   1.023  0.0001 -0.2937 -0.4893
 4955TIP3    H136500   5.166   2.041   0.967  2.4891  2.2618  2.0408
 4955TIP3    H236501   5.057   2.140   1.001 -2.0249 -1.1779 -1.2318
 4956TIP3   OH236502   3.179   5.870   7.875  0.5650 -0.3378  0.1694
 4956TIP3    H136503   3.224   5.785   7.880  2.4347  0.6208  0.6641
 4956TIP3    H236504   3.164   5.882   7.781 -1.2668 -1.9276  0.1947
 4957TIP3   OH236505   0.728   6.249   3.417 -0.0855 -0.0514 -0.3219
 4957TIP3    H136506   0.786   6.232   3.343  2.9542  1.0382  1.6117
 4957TIP3    H236507   0.641   6.262   3.378  0.1664 -4.6490 -3.1654
 4958TIP3   OH236508   2.555   2.666   0.726  0.3277 -0.7617  0.1875
 4958TIP3    H136509   2.627   2.659   0.789 -1.2750 -2.0510  2.0005
 4958TIP3    H236510   2.573   2.597   0.662  2.4285  1.1103 -1.4024
 4959TIP3   OH236511   2.198   1.280   2.230  0.7434 -0.2328  0.5358
 4959TIP3    H136512   2.233   1.361   2.194  0.5754 -0.4394 -0.0918
 4959TIP3    H236513   2.172   1.303   2.319 -2.0165  1.2014 -0.5235
 4960TIP3   OH236514   3.579   0.172   2.775 -0.1186  0.1928 -0.4838
 4960TIP3    H136515   3.610   0.259   2.800  1.1301 -0.1140 -0.8448
 4960TIP3    H236516   3.616   0.114   2.842 -0.7841 -0.0797 -0.3521
 4961TIP3   OH236517   5.897   3.313   7.557  0.1228 -0.0371 -0.0526
 4961TIP3    H136518   5.806   3.319   7.584  0.4303  0.4785  0.9327
 4961TIP3    H236519   5.915   3.219   7.551 -0.9104 -0.1689 -1.9005
 4962TIP3   OH236520   6.185   4.949   8.210  0.2230  0.4106 -0.2697
 4962TIP3    H136521   6.191   4.887   8.283 -1.6684  0.0286 -0.3829
 4962TIP3    H236522   6.131   4.904   8.144 -2.2390  2.5467  0.1181
 4963TIP3   OH236523   6.297   0.773   1.072 -0.0547 -0.2915  0.4902
 4963TIP3    H136524   6.263   0.685   1.057 -0.3195 -0.1304  0.1341
 4963TIP3    H236525   6.245   0.829   1.014 -0.2555  0.1743  1.1101
 4964TIP3   OH236526   5.424   5.122   2.422 -0.6409  0.7649 -0.3265
 4964TIP3    H136527   5.421   5.105   2.328  0.1327  0.8090 -0.3670
 4964TIP3    H236528   5.405   5.216   2.430 -2.0363  0.5009 -0.3234
 4965TIP3   OH236529   5.436   0.210   1.498  0.4052  0.2177 -0.2764
 4965TIP3    H136530   5.407   0.187   1.409  0.8316  1.3073 -0.7171
 4965TIP3    H236531   5.358   0.201   1.552 -0.2330  0.9633 -1.0386
 4966TIP3   OH236532   1.689   5.282   0.609 -0.3715  0.2497 -0.5339
 4966TIP3    H136533   1.676   5.372   0.639 -0.2350  0.1531 -0.1758
 4966TIP3    H236534   1.704   5.290   0.515 -1.1737  0.5273 -0.6436
 4967TIP3   OH236535   0.051   3.367   7.588 -0.1166  0.3489  0.0217
 4967TIP3    H136536   0.051   3.414   7.672  1.9313 -1.7890  1.3594
 4967TIP3    H236537  -0.039   3.337   7.578 -0.8187  2.1569  0.5181
 4968TIP3   OH236538   6.709   2.718   7.072 -0.2743 -0.2283  0.1821
 4968TIP3    H136539   6.785   2.675   7.111 -0.5704  0.8796  2.0829
 4968TIP3    H236540   6.670   2.651   7.015  2.1050 -0.8004 -0.8819
 4969TIP3   OH236541   3.985   2.364   8.707 -0.7279 -0.2545 -0.0846
 4969TIP3    H136542   3.985   2.451   8.748  0.1921 -0.4945  0.4511
 4969TIP3    H236543   4.050   2.314   8.756 -2.4653 -1.8187  0.7655
 4970TIP3   OH236544   4.710   3.360   0.514  0.2049  0.3112 -0.0399
 4970TIP3    H136545   4.746   3.442   0.480 -0.3520 -0.1693 -1.8830
 4970TIP3    H236546   4.670   3.384   0.598  1.7255  1.5193  0.3747
 4971TIP3   OH236547   0.146   1.671   7.380 -0.4899  0.2100 -0.0448
 4971TIP3    H136548   0.061   1.653   7.420 -0.6837 -1.2523 -1.0394
 4971TIP3    H236549   0.195   1.589   7.391  0.0223  0.3250 -1.3378
 4972TIP3   OH236550   1.624   2.782   7.996  0.5390 -0.0146 -0.7093
 4972TIP3    H136551   1.533   2.752   7.992  0.1996  0.8603  0.1314
 4972TIP3    H236552   1.665   2.743   7.918 -0.2359 -1.4194 -0.4538
 4973TIP3   OH236553   2.813   5.924   1.125  0.1641  0.1908  0.2729
 4973TIP3    H136554   2.840   5.939   1.034  0.1259 -3.1416 -0.4081
 4973TIP3    H236555   2.822   6.010   1.166  1.3661  1.5829 -2.5519
 4974TIP3   OH236556   0.834   2.326   1.117  0.1496  0.0782  0.4288
 4974TIP3    H136557   0.883   2.280   1.185 -0.1526 -0.2817  0.4019
 4974TIP3    H236558   0.824   2.415   1.151 -1.0563 -0.4063  1.4240
 4975TIP3   OH236559   1.865   1.328   1.555  0.8981 -0.0478 -0.4259
 4975TIP3    H136560   1.960   1.334   1.559  0.7857  1.4622  2.8152
 4975TIP3    H236561   1.841   1.267   1.625 -0.5491 -0.2128 -1.0199
 4976TIP3   OH236562   1.240   4.577   1.888 -0.1171  0.3813 -0.0642
 4976TIP3    H136563   1.238   4.572   1.792 -0.6279  1.5613 -0.1341
 4976TIP3    H236564   1.251   4.671   1.906  0.7251  0.0822  1.0277
 4977TIP3   OH236565   5.313   5.374   8.251 -0.1560 -0.3447 -0.0323
 4977TIP3    H136566   5.393   5.341   8.210 -0.3806  0.0241 -0.7945
 4977TIP3    H236567   5.247   5.371   8.181 -0.5292  0.3872  0.2673
 4978TIP3   OH236568   1.019   0.523   8.044  0.5199  0.2313  0.8470
 4978TIP3    H136569   1.005   0.539   8.138  0.9959  1.6765  0.7011
 4978TIP3    H236570   1.100   0.570   8.024  1.6821 -1.9022  0.1618
 4979TIP3   OH236571   0.203   0.173   1.010 -0.4723  0.6140 -0.3387
 4979TIP3    H136572   0.201   0.250   0.953 -0.7796  1.6839  1.0811
 4979TIP3    H236573   0.284   0.182   1.060 -0.9589  0.5046  0.4815
 4980TIP3   OH236574   1.759   0.802   1.512  0.4185 -0.1301  0.3813
 4980TIP3    H136575   1.768   0.863   1.585 -0.1047  1.0496 -0.4911
 4980TIP3    H236576   1.666   0.782   1.508  0.2390  0.7771 -0.6667
 4981TIP3   OH236577   0.189   0.513   1.190 -0.3294  0.1722 -0.0518
 4981TIP3    H136578   0.214   0.459   1.264 -1.9598 -1.2270 -0.4617
 4981TIP3    H236579   0.093   0.520   1.196 -0.6291 -0.8017 -2.5062
 4982TIP3   OH236580   6.398   1.542   2.050  0.4884 -0.1215  1.2451
 4982TIP3    H136581   6.327   1.507   2.104 -0.5857  1.5531  0.9952
 4982TIP3    H236582   6.440   1.609   2.105  0.2869  0.6103  0.5324
 4983TIP3   OH236583   2.386   3.108   0.737  0.0826 -0.1913  0.1646
 4983TIP3    H136584   2.403   3.143   0.650  0.2996 -0.5721  0.0537
 4983TIP3    H236585   2.453   3.041   0.750 -0.5713 -0.8545  0.2097
 4984TIP3   OH236586   5.244   4.884   2.412 -0.0027  0.3600 -0.1870
 4984TIP3    H136587   5.182   4.919   2.347 -1.0103 -0.6299  0.2026
 4984TIP3    H236588   5.305   4.956   2.427 -1.4657  1.6427 -0.0761
 4985TIP3   OH236589   1.098   1.402   1.162 -0.2125 -0.2436 -0.9803
 4985TIP3    H136590   1.004   1.403   1.182 -0.6645 -2.0820 -2.6356
 4985TIP3    H236591   1.103   1.433   1.072  0.9666  1.1970 -0.4535
 4986TIP3   OH236592   3.090   4.613   2.278  0.2302  0.4049  0.2063
 4986TIP3    H136593   3.088   4.620   2.373  0.8101  1.3253  0.1611
 4986TIP3    H236594   3.125   4.526   2.261  2.4210  1.0997  0.8530
 4987TIP3   OH236595   3.839   1.003   2.062 -0.4457  0.0029  0.3706
 4987TIP3    H136596   3.767   1.056   2.026 -0.7169 -1.2375 -1.0290
 4987TIP3    H236597   3.820   0.997   2.156 -1.3185  0.9770  0.2773
 4988TIP3   OH236598   1.114   0.205   1.197  0.4453 -0.2201 -0.4263
 4988TIP3    H136599   1.090   0.193   1.105  1.5173  1.4873 -0.9862
 4988TIP3    H236600   1.031   0.214   1.243 -0.1052  0.9438 -1.5816
 4989TIP3   OH236601   0.214   3.139   2.363 -0.1953  0.3523 -0.5336
 4989TIP3    H136602   0.229   3.050   2.395 -0.8163  0.3662 -0.1727
 4989TIP3    H236603   0.189   3.127   2.271 -0.4983  0.1331 -0.4256
 4990TIP3   OH236604   5.991   3.644   1.278  0.4276  0.0931  0.0428
 4990TIP3    H136605   5.965   3.560   1.240 -1.5703  0.4577  0.4950
 4990TIP3    H236606   5.944   3.649   1.361  0.5827  1.6284  0.0741
 4991TIP3   OH236607   5.569   4.213   2.143  0.5146  0.0627 -0.1081
 4991TIP3    H136608   5.611   4.139   2.098  1.0253 -0.7037  1.5624
 4991TIP3    H236609   5.479   4.212   2.111  0.2838 -1.8184  0.4672
 4992TIP3   OH236610   2.759   3.050   8.685  0.0963  0.0347 -0.2394
 4992TIP3    H136611   2.677   3.011   8.655  0.4681 -0.7191 -0.3061
 4992TIP3    H236612   2.796   3.091   8.607 -0.5103  0.9305 -0.0729
 4993TIP3   OH236613   5.900   4.390   1.365  0.0672 -0.1331  0.0230
 4993TIP3    H136614   5.907   4.408   1.459  0.7203  0.3920 -0.1246
 4993TIP3    H236615   5.806   4.393   1.348 -0.1046 -0.8487  0.7769
 4994TIP3   OH236616   0.714   1.636   7.937  0.0168 -0.2791 -0.5263
 4994TIP3    H136617   0.740   1.610   8.025  2.4025 -0.4641 -1.2174
 4994TIP3    H236618   0.619   1.623   7.935 -0.0220 -0.7575  1.8279
 4995TIP3   OH236619   5.880   1.436   8.923  0.4067  0.2107 -0.4937
 4995TIP3    H136620   5.897   1.406   9.012 -0.5754 -0.4757 -0.5156
 4995TIP3    H236621   5.814   1.374   8.890 -0.2470  1.2648 -1.2123
 4996TIP3   OH236622   5.932   5.339   3.247  0.4954 -0.0656 -0.7318
 4996TIP3    H136623   5.985   5.365   3.323 -1.1834 -3.1499  1.7524
 4996TIP3    H236624   5.881   5.417   3.226 -1.2135  0.2035  3.4420
 4997TIP3   OH236625   2.824   1.470   7.270  0.0809 -0.0054 -0.4231
 4997TIP3    H136626   2.848   1.384   7.305  0.0604  0.4736  0.7966
 4997TIP3    H236627   2.845   1.464   7.177 -2.2084 -2.1817 -0.9065
 4998TIP3   OH236628   3.979   2.221   8.175 -0.1967  0.4872  0.7768
 4998TIP3    H136629   4.002   2.289   8.239  1.9802 -0.1974  0.7936
 4998TIP3    H236630   4.051   2.221   8.113 -1.6133  0.1776 -0.9320
 4999TIP3   OH236631   6.101   6.033   0.486 -0.2655  0.3302 -0.4108
 4999TIP3    H136632   6.145   5.960   0.442 -0.2206 -0.3093  0.6785
 4999TIP3    H236633   6.008   6.017   0.469 -0.1812  1.0355 -1.7029
 5000TIP3   OH236634   0.608   0.749   8.731 -0.1927  0.3099  0.1099
 5000TIP3    H136635   0.559   0.747   8.813  0.6862 -0.4977  0.6367
 5000TIP3    H236636   0.552   0.797   8.670 -0.8176  1.0045  1.2037
 5001TIP3   OH236637   2.569   0.116   7.687  0.2942 -0.3261  0.6815
 5001TIP3    H136638   2.574   0.022   7.671 -0.4328 -0.0923 -1.0884
 5001TIP3    H236639   2.616   0.156   7.614  0.2234  0.7136  1.1855
 5002TIP3   OH236640   5.238   1.627   0.679  0.7989 -0.6812  0.1058
 5002TIP3    H136641   5.189   1.591   0.604 -1.1012  1.2188  0.3427
 5002TIP3    H236642   5.201   1.582   0.755  0.4251 -0.3120  0.1505
 5003TIP3   OH236643   5.655   6.375   8.113  0.1148 -0.1683  0.2015
 5003TIP3    H136644   5.627   6.302   8.168 -0.8194 -0.7459 -1.0068
 5003TIP3    H236645   5.573   6.418   8.087  0.5859  0.5084 -0.1929
 5004TIP3   OH236646   4.509   4.832   0.522  0.0103  0.3446 -0.3577
 5004TIP3    H136647   4.493   4.800   0.433 -0.0345  0.0953 -0.2615
 5004TIP3    H236648   4.525   4.925   0.512  0.9877  0.1449 -0.7436
 5005TIP3   OH236649   1.088   2.054   2.186 -0.6974 -0.0543  0.2860
 5005TIP3    H136650   1.018   1.989   2.177 -1.5019  0.8861 -0.4246
 5005TIP3    H236651   1.084   2.081   2.277 -0.5760 -0.7491  0.5042
 5006TIP3   OH236652   0.510   4.783   0.104  0.1651 -0.8547 -0.2893
 5006TIP3    H136653   0.418   4.765   0.086  0.1280 -2.0959  0.9336
 5006TIP3    H236654   0.508   4.852   0.170  0.1980  0.6765 -1.8328
 5007TIP3   OH236655   4.536   2.859   2.264  0.0417  0.4414  0.2462
 5007TIP3    H136656   4.477   2.793   2.226 -0.4056  1.1334 -0.2794
 5007TIP3    H236657   4.623   2.836   2.229 -0.5020  1.6536 -2.0681
 5008TIP3   OH236658   2.820   2.335   0.391  0.1087 -0.1424 -0.5420
 5008TIP3    H136659   2.825   2.375   0.305  0.9220 -1.1117 -0.9731
 5008TIP3    H236660   2.825   2.241   0.374  0.3643 -0.3466  0.5575
 5009TIP3   OH236661   4.939   4.951   8.310  0.0631 -0.2217 -0.0982
 5009TIP3    H136662   4.905   5.036   8.339 -0.2544 -0.1508 -0.6523
 5009TIP3    H236663   5.033   4.965   8.300 -0.0972  0.3239 -1.0156
 5010TIP3   OH236664   2.397   6.735   7.942  0.1850  0.3797 -0.4046
 5010TIP3    H136665   2.439   6.684   8.011  0.2279  0.8110 -0.1106
 5010TIP3    H236666   2.386   6.672   7.870  0.8964  0.1392 -0.3169
 5011TIP3   OH236667   1.796   2.467   2.183  0.0038  0.2747  0.7663
 5011TIP3    H136668   1.761   2.379   2.197 -0.6574  0.2682 -0.6721
 5011TIP3    H236669   1.890   2.458   2.195 -0.1821 -0.3438  1.8782
 5012TIP3   OH236670   3.085   0.031   2.189  0.3646 -0.0950 -0.7303
 5012TIP3    H136671   3.133   0.087   2.129 -1.3091  1.1819 -0.9594
 5012TIP3    H236672   3.149   0.006   2.256  1.7571  0.0530 -1.9629
 5013TIP3   OH236673   0.605   1.040   8.276 -0.0598 -0.3699 -0.1248
 5013TIP3    H136674   0.557   1.113   8.236 -0.4548 -1.1364 -1.0890
 5013TIP3    H236675   0.595   1.054   8.370 -1.0250  0.2342 -0.3016
 5014TIP3   OH236676   3.511   0.060   1.988  0.3483 -0.2760 -0.2868
 5014TIP3    H136677   3.486  -0.032   1.989 -0.2692 -0.2245 -2.8417
 5014TIP3    H236678   3.435   0.105   2.026  0.2516 -0.7522  0.0934
 5015TIP3   OH236679   4.784   5.019   0.785  0.4167  0.6490 -0.5159
 5015TIP3    H136680   4.861   5.075   0.785  0.5516  0.5552  1.8518
 5015TIP3    H236681   4.710   5.080   0.784  0.5533  0.8321  0.2134
 5016TIP3   OH236682   4.646   2.185   0.926  0.0591 -0.1501 -0.1544
 5016TIP3    H136683   4.564   2.137   0.916  1.2088 -2.2402 -0.1696
 5016TIP3    H236684   4.639   2.259   0.865 -3.6748  2.6328  3.0975
 5017TIP3   OH236685   6.161   2.189   0.947  0.0833 -0.3047 -0.3448
 5017TIP3    H136686   6.194   2.099   0.942  1.7484 -0.0274  2.9280
 5017TIP3    H236687   6.237   2.244   0.930 -0.4127  0.4713 -0.1216
 5018TIP3   OH236688   0.487   4.514   0.185  0.2451 -0.1576  0.2237
 5018TIP3    H136689   0.494   4.593   0.131 -0.8527 -0.0047  0.2887
 5018TIP3    H236690   0.405   4.473   0.158  0.3478 -0.7930  0.8449
 5019TIP3   OH236691   4.219   4.745   1.598 -0.7012 -0.3351  0.1474
 5019TIP3    H136692   4.313   4.739   1.584 -0.1894 -1.8426  3.2258
 5019TIP3    H236693   4.187   4.799   1.526  2.2897 -0.8617 -1.7468
 5020TIP3   OH236694   1.785   4.640   7.622 -0.0749  0.3419 -0.2373
 5020TIP3    H136695   1.700   4.642   7.667 -0.5571 -0.3385 -1.0752
 5020TIP3    H236696   1.763   4.656   7.530  0.6397 -0.3456 -0.5366
 5021TIP3   OH236697   6.096   2.997   1.322 -0.8540  0.3707  0.2960
 5021TIP3    H136698   6.029   2.964   1.382 -0.8592 -0.2192 -0.0262
 5021TIP3    H236699   6.075   3.090   1.310 -0.9032  0.4689  1.1334
 5022TIP3   OH236700   6.494   3.187   1.450  0.0769 -0.5376  0.4087
 5022TIP3    H136701   6.476   3.099   1.418  0.7055  0.0621 -1.8037
 5022TIP3    H236702   6.590   3.193   1.451  0.0464 -0.0247  0.9470
 5023TIP3   OH236703   1.451   1.205   8.702  0.0291 -0.5971  0.0180
 5023TIP3    H136704   1.429   1.173   8.615  0.2621 -0.3519 -0.1302
 5023TIP3    H236705   1.493   1.131   8.745 -1.0397 -1.0622  0.2897
 5024TIP3   OH236706   1.899   5.077   1.649  0.3681 -0.4337 -0.3695
 5024TIP3    H136707   1.872   5.163   1.617  0.1953 -0.6233 -0.7367
 5024TIP3    H236708   1.841   5.059   1.723 -0.2865 -0.6833 -0.9346
 5025TIP3   OH236709   6.700   4.140   0.423 -0.1376 -0.4385  0.1774
 5025TIP3    H136710   6.693   4.096   0.507 -0.3370 -1.2227 -0.2355
 5025TIP3    H236711   6.763   4.087   0.373  0.2646  0.2254 -0.0388
 5026TIP3   OH236712   1.999   2.313   8.396  0.5783 -0.5835 -0.0938
 5026TIP3    H136713   1.944   2.247   8.439 -1.3597  1.8677  1.4669
 5026TIP3    H236714   1.972   2.396   8.436  2.4524  1.2624 -2.3994
 5027TIP3   OH236715   3.007   3.344   8.248  0.3373  0.1108  0.1727
 5027TIP3    H136716   3.040   3.299   8.326  1.5856 -0.4778 -0.6572
 5027TIP3    H236717   3.047   3.430   8.252 -0.6736  0.5717  0.8568
 5028TIP3   OH236718   4.975   3.009   2.046  0.4929 -0.2919 -0.2615
 5028TIP3    H136719   4.891   3.054   2.037 -0.8552 -2.5368  0.3209
 5028TIP3    H236720   5.024   3.036   1.968 -0.2261  2.0586  0.0153
 5029TIP3   OH236721   4.516   5.069   2.577  0.8029  0.7184 -0.1463
 5029TIP3    H136722   4.441   5.093   2.523 -0.3380 -1.0900  0.5342
 5029TIP3    H236723   4.498   5.107   2.662  0.2176 -0.3701  0.2404
 5030TIP3   OH236724   0.715   4.781   0.976  0.0179  0.4231 -0.3476
 5030TIP3    H136725   0.650   4.766   1.044 -0.0335  1.7155 -0.0770
 5030TIP3    H236726   0.768   4.853   1.010  1.5094 -0.5110 -0.6264
 5031TIP3   OH236727   0.964   0.038   1.416 -0.2132  0.0347 -0.2161
 5031TIP3    H136728   0.985   0.127   1.444 -1.8614 -0.1281  1.7618
 5031TIP3    H236729   0.974  -0.015   1.495  0.4573 -1.5205 -1.2845
 5032TIP3   OH236730   6.619   1.057   7.723 -0.3708 -0.3668  0.1123
 5032TIP3    H136731   6.593   1.144   7.751 -0.1355  0.6264 -2.4855
 5032TIP3    H236732   6.681   1.027   7.790  1.2404  2.3886  0.0048
 5033TIP3   OH236733   0.777   0.190   0.101 -0.5752 -0.0861  0.2623
 5033TIP3    H136734   0.700   0.221   0.149 -0.4604 -0.5325  0.7429
 5033TIP3    H236735   0.784   0.097   0.124 -0.1366 -0.1479 -0.1070
 5034TIP3   OH236736   3.533   3.333   1.250  0.0667 -0.3380  0.0545
 5034TIP3    H136737   3.571   3.289   1.326  0.3796 -0.2474 -0.0498
 5034TIP3    H236738   3.507   3.262   1.192 -0.0806 -0.4048  0.2022
 5035TIP3   OH236739   0.561   4.861   8.469  0.5758 -0.1332  0.1523
 5035TIP3    H136740   0.529   4.879   8.557  0.0192  0.5110 -0.1781
 5035TIP3    H236741   0.512   4.920   8.412  3.2534  1.9174 -0.2544
 5036TIP3   OH236742   4.910   5.477   8.145 -1.0113  0.1125 -0.5962
 5036TIP3    H136743   4.840   5.470   8.080  0.3847 -0.3799 -2.1164
 5036TIP3    H236744   4.977   5.416   8.114 -0.4225 -0.3953  1.5117
 5037TIP3   OH236745   6.252   3.234   1.584 -0.3623 -0.1682 -0.1978
 5037TIP3    H136746   6.260   3.145   1.620  0.7276 -0.7369 -1.7195
 5037TIP3    H236747   6.335   3.248   1.538  0.4611  2.5551  1.8507
 5038TIP3   OH236748   6.554   5.342   2.692  0.2606  0.2767  1.0591
 5038TIP3    H136749   6.639   5.372   2.724 -0.0363  0.4015  1.7372
 5038TIP3    H236750   6.572   5.255   2.655  1.6253  2.0858 -3.1358
 5039TIP3   OH236751   1.807   6.200   0.924 -1.0114  0.5989 -0.1924
 5039TIP3    H136752   1.716   6.200   0.894 -0.2834  0.1730 -2.5603
 5039TIP3    H236753   1.859   6.198   0.844  1.0988  0.3362  1.1171
 5040TIP3   OH236754   4.980   2.270   0.384  0.0479 -0.3465 -0.1771
 5040TIP3    H136755   4.999   2.359   0.415  1.9561 -0.9844  0.6128
 5040TIP3    H236756   4.978   2.217   0.463 -0.5896 -1.1015 -0.6877
 5041TIP3   OH236757   1.393   2.186   7.937  0.0083 -0.3824  0.4934
 5041TIP3    H136758   1.426   2.256   7.993  2.7700 -0.0432 -1.3482
 5041TIP3    H236759   1.445   2.110   7.961 -0.2060 -0.7535 -0.1894
 5042TIP3   OH236760   1.775   4.716   8.309 -0.2496 -0.5857  0.0362
 5042TIP3    H136761   1.844   4.782   8.320 -0.2647 -0.0677 -2.4747
 5042TIP3    H236762   1.744   4.728   8.219 -1.8981 -2.4712  0.2887
 5043TIP3   OH236763   1.780   3.810   7.155  0.2024 -0.3007 -0.1033
 5043TIP3    H136764   1.728   3.732   7.172  0.6097 -1.0457 -2.0005
 5043TIP3    H236765   1.867   3.788   7.187 -0.2117  0.2751  1.4642
 5044TIP3   OH236766   4.654   3.162   0.322 -0.3419  0.2109 -0.4373
 5044TIP3    H136767   4.672   3.227   0.391 -1.1076  0.1134 -0.1384
 5044TIP3    H236768   4.673   3.208   0.240 -0.5563  0.7065 -0.2134
 5045TIP3   OH236769   3.827   4.661   1.776 -0.2328  0.3329 -0.0037
 5045TIP3    H136770   3.800   4.744   1.736 -1.7861 -0.3816 -0.5231
 5045TIP3    H236771   3.749   4.630   1.822 -0.4091 -1.8237 -1.5594
 5046TIP3   OH236772   3.418   0.115   1.140  0.1542  0.1351 -0.0785
 5046TIP3    H136773   3.474   0.147   1.069  1.5041 -1.9693 -0.0340
 5046TIP3    H236774   3.344   0.074   1.095  0.0643  0.4338 -0.2089
 5047TIP3   OH236775   5.840   2.458   1.201 -0.4350 -0.5338 -0.1357
 5047TIP3    H136776   5.908   2.391   1.202 -0.8201 -0.9786 -1.6291
 5047TIP3    H236777   5.767   2.419   1.250  0.9262  0.6284  3.0400
 5048TIP3   OH236778   5.353   3.226   0.163 -0.1723  0.3809 -0.2091
 5048TIP3    H136779   5.370   3.140   0.202  0.8445  1.2315  1.3443
 5048TIP3    H236780   5.274   3.258   0.208 -0.7872  0.1145 -1.0730
 5049TIP3   OH236781   2.600   2.816   1.613 -0.4564 -0.2002  0.0896
 5049TIP3    H136782   2.617   2.734   1.566 -0.6638  1.4542 -3.1359
 5049TIP3    H236783   2.663   2.878   1.576 -1.9817  1.7254  0.5806
 5050TIP3   OH236784   1.173   1.898   1.384  0.1217  0.5746  0.3022
 5050TIP3    H136785   1.222   1.962   1.333 -2.8491  0.9975 -2.2963
 5050TIP3    H236786   1.199   1.813   1.349 -0.7423  0.7836 -0.8949
 5051TIP3   OH236787   2.544   5.131   1.887  0.7585  0.0991  0.0607
 5051TIP3    H136788   2.588   5.051   1.860  0.9597  0.4795 -0.7882
 5051TIP3    H236789   2.451   5.110   1.883  0.8262 -0.3030  0.5481
 5052TIP3   OH236790   6.252   6.151   0.944  0.7312  0.2629  0.1637
 5052TIP3    H136791   6.231   6.144   0.851 -0.3581  0.7484  0.3510
 5052TIP3    H236792   6.188   6.095   0.987  0.3299  1.1185  0.7123
 5053TIP3   OH236793   5.040   5.148   2.985  0.4905  0.2527 -0.3161
 5053TIP3    H136794   4.967   5.195   3.026  1.9559  1.8625  0.5696
 5053TIP3    H236795   5.022   5.056   3.003 -3.0677  0.1477 -3.0284
 5054TIP3   OH236796   1.927   2.096   8.132 -0.1634 -0.1060  0.3291
 5054TIP3    H136797   1.916   2.190   8.144  0.4103  0.2257 -1.3978
 5054TIP3    H236798   1.850   2.070   8.082 -0.2471 -0.5269  0.6768
 5055TIP3   OH236799   5.448   1.709   8.447  0.0543  0.8538 -0.1996
 5055TIP3    H136800   5.445   1.804   8.442 -2.6846  0.9782  1.8104
 5055TIP3    H236801   5.454   1.690   8.541 -0.1780 -0.9446 -0.5195
 5056TIP3   OH236802   3.914   2.205   6.676  0.2222  0.6230 -0.0926
 5056TIP3    H136803   3.887   2.243   6.759 -0.5870  0.8302 -0.4481
 5056TIP3    H236804   3.981   2.265   6.643 -0.1230  1.0459 -0.0317
 5057TIP3   OH236805   0.038   4.754   2.480  0.5105  0.3876  0.3469
 5057TIP3    H136806   0.035   4.684   2.546  3.2397 -0.3971 -0.2003
 5057TIP3    H236807   0.070   4.830   2.528 -0.2886  0.6381  0.4897
 5058TIP3   OH236808   6.056   5.812   1.217 -0.1947  0.4852  0.1066
 5058TIP3    H136809   6.049   5.810   1.312  0.1384 -1.3968  0.1228
 5058TIP3    H236810   6.149   5.828   1.199  0.0877 -0.9911  0.1418
 5059TIP3   OH236811   6.479   2.894   8.640 -0.0450  0.2114  0.1453
 5059TIP3    H136812   6.454   2.979   8.676 -1.6407  0.5230 -1.5534
 5059TIP3    H236813   6.396   2.849   8.623  0.6761 -0.6990 -1.2435
 5060TIP3   OH236814   3.522   1.212   1.806  0.4293  0.0309 -0.1598
 5060TIP3    H136815   3.538   1.123   1.839 -0.5168  0.1691  0.7182
 5060TIP3    H236816   3.462   1.199   1.732  0.6939 -0.0920 -0.3572
 5061TIP3   OH236817   6.355   3.633   7.753 -0.6610  0.0618  0.6751
 5061TIP3    H136818   6.407   3.676   7.821 -0.1185  0.5940 -0.0559
 5061TIP3    H236819   6.273   3.609   7.796 -0.9768  1.8059  1.1426
 5062TIP3   OH236820   0.127   1.065   7.180  0.0641 -0.3224 -0.4920
 5062TIP3    H136821   0.147   1.040   7.089 -0.1297 -0.7971 -0.4020
 5062TIP3    H236822   0.072   1.143   7.171  2.0215  1.1178 -0.7514
 5063TIP3   OH236823   1.684   4.716   8.055  0.1234  0.1069 -0.6312
 5063TIP3    H136824   1.726   4.636   8.023  0.5530 -0.5012  1.3515
 5063TIP3    H236825   1.592   4.692   8.066  0.3975 -0.4077  0.7455
 5064TIP3   OH236826   2.100   6.591   7.305  0.6648  0.3185 -0.0285
 5064TIP3    H136827   2.079   6.560   7.217 -1.0924  0.6330  0.2446
 5064TIP3    H236828   2.015   6.610   7.345  1.3298 -0.9888  2.1960
 5065TIP3   OH236829   1.291   1.830   8.106  0.2483 -0.0310  0.4502
 5065TIP3    H136830   1.377   1.858   8.076  0.3202  0.8997  1.4863
 5065TIP3    H236831   1.233   1.846   8.032  0.8129  0.0919  0.0287
 5066TIP3   OH236832   6.160   4.867   7.905 -0.0510  0.5602 -0.1093
 5066TIP3    H136833   6.129   4.777   7.913 -1.7067  1.2155  2.1403
 5066TIP3    H236834   6.154   4.886   7.811  2.3337 -2.2340 -0.9697
 5067TIP3   OH236835   3.037   5.161   8.475 -0.1808  0.0050  0.5862
 5067TIP3    H136836   3.055   5.205   8.558  1.0279  0.4280  0.1089
 5067TIP3    H236837   3.123   5.142   8.438 -0.6997  0.5168 -0.9450
 5068TIP3   OH236838   4.895   2.724   7.778  0.1134 -0.0160  0.1319
 5068TIP3    H136839   4.886   2.819   7.788  1.4973 -0.0572  2.4555
 5068TIP3    H236840   4.974   2.702   7.828 -0.6419 -2.4977  0.3582
 5069TIP3   OH236841   2.307   3.488   1.410  0.5985 -0.3476  0.0682
 5069TIP3    H136842   2.276   3.472   1.321  0.4191  2.2023 -0.3948
 5069TIP3    H236843   2.228   3.483   1.464  0.4452 -0.2710 -0.1489
 5070TIP3   OH236844   3.308   6.151   7.298 -0.0529 -0.7386  0.4154
 5070TIP3    H136845   3.385   6.176   7.247  0.2973  1.6990  1.9903
 5070TIP3    H236846   3.254   6.100   7.236  1.7547 -0.6090 -1.3873
 5071TIP3   OH236847   5.417   5.141   8.414  0.6423 -0.0266  0.5815
 5071TIP3    H136848   5.375   5.120   8.330  1.7135  0.1596 -0.0089
 5071TIP3    H236849   5.507   5.112   8.404  0.2430 -2.3054  2.5475
 5072TIP3   OH236850   3.189   1.349   7.892  0.1890  0.8065 -0.3481
 5072TIP3    H136851   3.258   1.391   7.841 -1.0635  1.6397 -1.4317
 5072TIP3    H236852   3.128   1.420   7.912 -0.0079  0.2369  1.2211
 5073TIP3   OH236853   6.196   4.113   1.787  0.2418  0.1146 -0.0118
 5073TIP3    H136854   6.143   4.077   1.715 -0.7713 -0.1618  0.8504
 5073TIP3    H236855   6.260   4.044   1.806  1.6628  0.8761 -1.7714
 5074TIP3   OH236856   3.622   0.371   1.032 -0.8354 -0.0834  0.5152
 5074TIP3    H136857   3.646   0.304   0.968  0.4660 -0.0289  0.9199
 5074TIP3    H236858   3.534   0.399   1.005 -1.4775 -2.0329  0.4352
 5075TIP3   OH236859   2.760   5.683   0.658  0.1492 -0.5533  0.4909
 5075TIP3    H136860   2.787   5.596   0.690  2.6732 -0.5057 -1.2036
 5075TIP3    H236861   2.756   5.673   0.563 -1.6496  0.6798  0.4042
 5076TIP3   OH236862   3.741   6.329   1.352 -0.0279 -0.1976  0.2360
 5076TIP3    H136863   3.697   6.318   1.268  1.1563 -0.9045 -0.3058
 5076TIP3    H236864   3.673   6.366   1.409 -1.1571 -0.6990 -0.7283
 5077TIP3   OH236865   2.405   3.810   0.590 -0.1484 -0.3934  0.0967
 5077TIP3    H136866   2.434   3.739   0.647  0.9519  0.1892  0.2938
 5077TIP3    H236867   2.398   3.885   0.648  1.0481  0.2261 -0.5189
 5078TIP3   OH236868   5.355   3.912   0.012 -0.5096 -0.9262  0.0654
 5078TIP3    H136869   5.296   3.969   0.062  0.3065 -0.7999  0.9055
 5078TIP3    H236870   5.433   3.966  -0.004  0.8570 -2.1707  2.0605
 5079TIP3   OH236871   0.235   2.241   7.191 -0.3383 -0.4413  0.0236
 5079TIP3    H136872   0.251   2.315   7.250 -2.5377 -0.6483  0.9498
 5079TIP3    H236873   0.247   2.278   7.104 -0.8502  0.8930  0.4929
 5080TIP3   OH236874   3.034   5.047   1.224  0.4959 -0.1783 -0.3071
 5080TIP3    H136875   3.129   5.039   1.214  0.6700 -0.2353  1.1046
 5080TIP3    H236876   3.020   5.141   1.239  0.4535 -0.2932  0.4218
 5081TIP3   OH236877   0.627   6.579   8.538  0.1128  0.2230  0.2662
 5081TIP3    H136878   0.663   6.583   8.450 -1.6265 -2.6587 -0.7344
 5081TIP3    H236879   0.540   6.620   8.531 -1.0466 -2.0934 -0.1038
 5082TIP3   OH236880   1.346   0.456   2.360  0.0254  0.0503 -0.1435
 5082TIP3    H136881   1.256   0.432   2.381 -0.1731  0.9171  0.0152
 5082TIP3    H236882   1.400   0.403   2.419 -0.4306  0.4064  0.6028
 5083TIP3   OH236883   2.567   2.832   8.375 -0.4570 -0.2669 -0.1422
 5083TIP3    H136884   2.537   2.879   8.453 -0.3768  1.7912 -1.2808
 5083TIP3    H236885   2.533   2.883   8.301  1.1511 -1.0010 -1.4657
 5084TIP3   OH236886   3.085   1.826   1.103 -0.7420 -0.0729 -0.3721
 5084TIP3    H136887   3.048   1.914   1.098  0.2179  0.3096 -1.1593
 5084TIP3    H236888   3.009   1.768   1.113 -1.3576  0.8673  0.7631
 5085TIP3   OH236889   5.304   1.778   2.242 -0.5139 -0.3839 -0.1007
 5085TIP3    H136890   5.361   1.838   2.290 -1.4824  0.5520 -0.0668
 5085TIP3    H236891   5.332   1.691   2.269 -0.2765  0.0990  1.2701
 5086TIP3   OH236892   3.473   3.317   1.684 -0.1991 -0.2376 -0.0943
 5086TIP3    H136893   3.538   3.314   1.614 -0.8859 -0.0134 -0.7560
 5086TIP3    H236894   3.520   3.353   1.759  0.1634  1.0035 -0.8815
 5087TIP3   OH236895   1.483   5.959   0.212  0.4968 -0.2507 -0.1000
 5087TIP3    H136896   1.521   5.994   0.131 -0.2345  2.6517  0.6808
 5087TIP3    H236897   1.558   5.930   0.263  1.0783 -0.8635 -1.2702
 5088TIP3   OH236898   3.427   2.342   1.122  0.4978 -0.3029 -0.2185
 5088TIP3    H136899   3.411   2.286   1.046  0.7389  1.2597 -1.4634
 5088TIP3    H236900   3.468   2.284   1.186 -1.4942 -2.1354 -0.4944
 5089TIP3   OH236901   0.484   1.003   1.861  0.4866 -0.2222  0.0588
 5089TIP3    H136902   0.465   0.976   1.951 -0.1408  1.7832  0.5687
 5089TIP3    H236903   0.419   1.070   1.842  1.3288  0.1946 -1.4961
 5090TIP3   OH236904   5.399   5.427   8.565  0.0122  0.2546  0.3158
 5090TIP3    H136905   5.436   5.364   8.626  0.9001 -0.8029 -1.2511
 5090TIP3    H236906   5.364   5.374   8.493  0.2890  1.5009 -0.7782
 5091TIP3   OH236907   6.275   5.491   1.347 -0.0898  0.0848 -0.0317
 5091TIP3    H136908   6.303   5.405   1.379 -0.7415 -0.3517 -0.6012
 5091TIP3    H236909   6.194   5.473   1.300 -1.6366  1.3749  2.0011
 5092TIP3   OH236910   0.643   6.217   6.619  0.1269  0.0378 -0.2940
 5092TIP3    H136911   0.571   6.279   6.610  0.3314  0.4430  0.7286
 5092TIP3    H236912   0.716   6.269   6.653  0.4385 -0.6671  0.1476
 5093TIP3   OH236913   0.552   4.765   2.437 -0.3312 -0.3250 -0.0329
 5093TIP3    H136914   0.495   4.694   2.407  0.6438 -1.0276 -0.2630
 5093TIP3    H236915   0.499   4.844   2.428 -1.5537 -1.0524  0.5433
 5094TIP3   OH236916   1.817   5.458   8.014  0.4523  0.5170 -0.0189
 5094TIP3    H136917   1.752   5.391   8.034  0.4964 -0.1522 -1.9613
 5094TIP3    H236918   1.771   5.541   8.023  0.0675  0.1883  1.2042
 5095TIP3   OH236919   6.719   1.653   0.821  0.1182 -0.0970 -0.2031
 5095TIP3    H136920   6.718   1.599   0.900 -1.3767  0.6103  0.3082
 5095TIP3    H236921   6.767   1.732   0.847 -1.8225  0.8981  0.6093
 5096TIP3   OH236922   1.731   5.035   7.573  0.2224 -0.0392 -0.0170
 5096TIP3    H136923   1.703   5.086   7.648 -1.0190 -0.8036  0.0735
 5096TIP3    H236924   1.741   5.099   7.502  0.2760  0.5293  0.4972
 5097TIP3   OH236925   3.299   2.814   1.068 -0.4810  0.0592 -0.2066
 5097TIP3    H136926   3.363   2.847   1.131 -0.8804  0.1263  0.1699
 5097TIP3    H236927   3.345   2.743   1.023  0.2510  0.8569 -0.7571
 5098TIP3   OH236928   6.093   0.956   8.421 -0.2852  0.4444 -0.4012
 5098TIP3    H136929   6.084   1.003   8.338 -2.0738  0.2439 -0.3592
 5098TIP3    H236930   6.041   0.877   8.410 -0.8953  0.6139  1.0474
 5099TIP3   OH236931   5.287   6.472   6.719 -0.0428  0.4792 -0.0222
 5099TIP3    H136932   5.235   6.464   6.639 -0.4977  0.2434  0.2919
 5099TIP3    H236933   5.249   6.546   6.765 -1.5347 -0.9896  1.2380
 5100TIP3   OH236934   1.783   1.682   8.377  0.0111 -0.9692  0.4008
 5100TIP3    H136935   1.855   1.632   8.414  0.9955 -0.8757 -1.3161
 5100TIP3    H236936   1.706   1.655   8.428  1.1244 -1.5505  1.8269
 5101TIP3   OH236937   6.671   1.140   0.800  0.3925  0.2606  0.6299
 5101TIP3    H136938   6.766   1.148   0.789  0.2414 -0.0133 -1.0631
 5101TIP3    H236939   6.661   1.065   0.859  1.2479  1.1704  1.9942
 5102TIP3   OH236940   3.276   5.337   8.423  0.2766  0.2143 -0.4086
 5102TIP3    H136941   3.322   5.353   8.506 -2.2810 -1.5432  1.5008
 5102TIP3    H236942   3.310   5.253   8.393 -0.3417 -0.1994  0.0330
 5103TIP3   OH236943   0.805   0.261   8.496  0.0540 -0.2485  0.0333
 5103TIP3    H136944   0.789   0.355   8.498  0.9240 -0.0375 -1.5358
 5103TIP3    H236945   0.746   0.228   8.428  0.4322 -0.6913 -0.0832
 5104TIP3   OH236946   1.280   4.669   0.266  0.2275 -0.0354 -0.2913
 5104TIP3    H136947   1.248   4.580   0.282  1.7487 -0.5280  0.2573
 5104TIP3    H236948   1.203   4.719   0.241 -0.4294 -1.8788 -2.1799
 5105TIP3   OH236949   0.942   4.126   0.079 -0.0480 -0.6580  0.1782
 5105TIP3    H136950   1.018   4.173   0.113 -0.6181  0.2148  0.2638
 5105TIP3    H236951   0.916   4.068   0.151 -0.2522 -0.0061  0.6394
 5106TIP3   OH236952   1.815   4.236   7.439  0.5459  0.3686  0.1166
 5106TIP3    H136953   1.790   4.192   7.357  1.5630  0.9940 -0.5518
 5106TIP3    H236954   1.830   4.327   7.414  1.3225  0.4712  0.9163
 5107TIP3   OH236955   6.373   2.110   8.899 -0.8585  0.0461 -0.2849
 5107TIP3    H136956   6.455   2.160   8.899  0.0142 -1.2891  0.4647
 5107TIP3    H236957   6.402   2.019   8.891 -2.3738 -0.3624 -1.4995
 5108TIP3   OH236958   0.848   6.388   8.283  0.3714  0.1025  0.7829
 5108TIP3    H136959   0.770   6.339   8.255  0.3303  0.8797 -0.5898
 5108TIP3    H236960   0.898   6.326   8.336 -0.3548 -0.9661  0.2567
 5109TIP3   OH236961   5.800   5.206   6.880 -0.1297 -0.2378 -0.0383
 5109TIP3    H136962   5.766   5.123   6.849 -2.4330  0.6811 -0.2328
 5109TIP3    H236963   5.869   5.230   6.818  1.0606 -2.2672  0.4262
 5110TIP3   OH236964   0.049   5.810   0.858  0.0285  0.0610 -0.0450
 5110TIP3    H136965   0.064   5.902   0.834 -0.6611  0.2962  0.4132
 5110TIP3    H236966   0.125   5.764   0.822 -0.5437  0.5060 -1.9440
 5111TIP3   OH236967   1.823   2.977   8.714  0.2706 -0.0584  0.1175
 5111TIP3    H136968   1.891   3.006   8.653  1.1561 -0.2940  0.9764
 5111TIP3    H236969   1.794   2.892   8.679  2.1303 -1.1266  1.0374
 5112TIP3   OH236970   6.453   4.977   7.515 -0.3750 -0.0543  0.2939
 5112TIP3    H136971   6.474   4.992   7.423  1.6445  1.4687  0.9101
 5112TIP3    H236972   6.444   4.882   7.523  3.3208 -0.6380 -0.7804
 5113TIP3   OH236973   6.463   1.187   6.878  0.2589  0.3006 -0.0840
 5113TIP3    H136974   6.431   1.184   6.788 -0.5579  1.1255  0.1685
 5113TIP3    H236975   6.517   1.266   6.882  0.1341  0.3727  0.2037
 5114TIP3   OH236976   3.631   0.221   8.691  0.4885 -0.2439 -0.1780
 5114TIP3    H136977   3.551   0.168   8.683  0.5482 -0.2972 -0.4288
 5114TIP3    H236978   3.660   0.234   8.600  0.6220 -0.0075 -0.0999
 5115TIP3   OH236979   2.046   6.536   8.770 -0.4763  0.4079 -0.3150
 5115TIP3    H136980   2.017   6.579   8.690 -2.2921 -1.5021 -0.7985
 5115TIP3    H236981   1.965   6.521   8.820  0.3086 -0.6627  0.6934
 5116TIP3   OH236982   5.205   3.997   0.912 -0.3029  0.4384 -0.4539
 5116TIP3    H136983   5.255   3.916   0.902 -1.7051 -0.5841  0.4405
 5116TIP3    H236984   5.256   4.049   0.974 -2.6350 -2.7918  4.9019
 5117TIP3   OH236985   5.574   0.882   0.506 -0.0684  0.2138 -0.4369
 5117TIP3    H136986   5.661   0.860   0.475 -0.2957 -1.5223  0.0672
 5117TIP3    H236987   5.560   0.824   0.581 -1.8830  0.0312 -0.8730
 5118TIP3   OH236988   0.261   5.191   8.536  0.9584 -0.1553  0.2305
 5118TIP3    H136989   0.190   5.209   8.475  0.6900  2.0029  1.0655
 5118TIP3    H236990   0.254   5.097   8.555  0.1412 -0.5655 -1.8502
 5119TIP3   OH236991   1.759   4.077   7.186  0.0742  0.0126  0.4648
 5119TIP3    H136992   1.761   3.982   7.189  0.4770  0.0437  2.2743
 5119TIP3    H236993   1.673   4.099   7.149  0.2517 -1.0291 -0.6108
 5120TIP3   OH236994   0.789   2.299   8.248 -0.4819  0.0001  0.0377
 5120TIP3    H136995   0.820   2.380   8.208  0.7200 -0.0862  0.7629
 5120TIP3    H236996   0.762   2.324   8.336  0.8175 -0.5416  0.6128
 5121TIP3   OH236997   6.660   3.638   7.777  0.2876 -0.4452  0.1790
 5121TIP3    H136998   6.605   3.628   7.699  0.5604 -1.1284  0.0710
 5121TIP3    H236999   6.705   3.554   7.786  1.6115  0.2264  0.0397
 5122TIP3   OH237000   4.210   6.363   7.145  1.1059  0.2932  0.3806
 5122TIP3    H137001   4.293   6.366   7.098  0.7355  0.8681 -0.2432
 5122TIP3    H237002   4.170   6.280   7.118  0.5378  0.9693 -0.9682
 5123TIP3   OH237003   4.959   6.397   0.837  0.4081 -0.1310 -0.1752
 5123TIP3    H137004   4.938   6.317   0.788  1.0632 -1.0677  1.0000
 5123TIP3    H237005   5.018   6.445   0.780 -0.2610 -0.3118 -1.0461
 5124TIP3   OH237006   2.083   5.957   8.812 -0.2664 -0.2949 -0.3821
 5124TIP3    H137007   2.060   6.020   8.743  1.3409  0.2482 -0.4559
 5124TIP3    H237008   2.004   5.951   8.865 -1.2564 -0.0689 -1.7753
 5125TIP3   OH237009   1.392   0.183   7.653 -0.2752  0.3664 -0.3236
 5125TIP3    H137010   1.419   0.099   7.692  1.2308  0.7686 -0.4746
 5125TIP3    H237011   1.368   0.237   7.729 -1.7811 -0.3366 -0.2490
 5126TIP3   OH237012   3.539   0.455   6.924 -0.2320  0.3495  0.2093
 5126TIP3    H137013   3.594   0.402   6.866  1.7569  1.6401  0.7953
 5126TIP3    H237014   3.455   0.459   6.880  0.0800 -1.7921 -0.7107
 5127TIP3   OH237015   2.687   5.251   7.507  0.5430  0.2687  0.4580
 5127TIP3    H137016   2.731   5.311   7.567  1.4725 -1.2497  1.3633
 5127TIP3    H237017   2.692   5.294   7.422  2.4421  0.8475  0.8182
 5128TIP3   OH237018   6.434   4.146   7.082 -0.5370 -0.3718  1.0208
 5128TIP3    H137019   6.530   4.148   7.080 -0.3688 -3.3099  1.1345
 5128TIP3    H237020   6.411   4.092   7.006 -2.2599  1.9182 -0.1684
 5129TIP3   OH237021   5.075   0.517   1.527 -0.0940  0.5624  0.7381
 5129TIP3    H137022   5.007   0.482   1.585 -1.0626  1.4535  0.1843
 5129TIP3    H237023   5.027   0.557   1.455  1.0791 -2.0889 -1.7093
 5130TIP3   OH237024   1.348   6.264   1.462 -0.3839 -0.4971 -0.4032
 5130TIP3    H137025   1.324   6.182   1.418 -1.1669 -0.7569  0.4813
 5130TIP3    H237026   1.324   6.332   1.399  0.3911 -0.9386 -1.1959
 5131TIP3   OH237027   6.108   1.649   0.895 -0.0236 -0.3222  0.5004
 5131TIP3    H137028   6.034   1.588   0.891  0.2595 -0.8252  2.1113
 5131TIP3    H237029   6.106   1.684   0.984  1.3545  0.0789  0.4030
 5132TIP3   OH237030   1.474   6.298   1.696 -0.8013  0.3656 -0.1657
 5132TIP3    H137031   1.424   6.288   1.615  1.3760 -0.9787 -1.4368
 5132TIP3    H237032   1.478   6.210   1.733  1.2955  0.2451 -0.5688
 5133TIP3   OH237033   3.926   6.514   1.442  0.3396 -0.1106  0.2175
 5133TIP3    H137034   3.856   6.456   1.412  0.6534 -0.6649  0.5474
 5133TIP3    H237035   3.971   6.464   1.510  0.1188  0.8412  1.0685
 5134TIP3   OH237036   0.128   5.677   2.089 -0.0601 -0.0610 -0.5631
 5134TIP3    H137037   0.203   5.688   2.148 -0.9154 -0.1073  0.5795
 5134TIP3    H237038   0.163   5.691   2.002  1.3626 -0.4844 -0.0808
 5135TIP3   OH237039   4.351   2.819   1.182 -0.2340 -0.7054  0.2883
 5135TIP3    H137040   4.268   2.861   1.156  0.5007  1.1206  0.7217
 5135TIP3    H237041   4.344   2.810   1.277  0.5075  0.5368  0.4778
 5136TIP3   OH237042   2.671   4.632   0.323 -0.2323 -0.9247 -0.2008
 5136TIP3    H137043   2.628   4.718   0.322  2.4881  0.5239 -0.4844
 5136TIP3    H237044   2.657   4.599   0.412  1.5580  1.4292  1.0621
 5137TIP3   OH237045   3.509   3.748   6.770 -0.6465  0.0526 -0.0839
 5137TIP3    H137046   3.484   3.776   6.858 -1.0135 -0.5738  0.0240
 5137TIP3    H237047   3.542   3.659   6.782  0.9460  0.5826 -0.3467
 5138TIP3   OH237048   6.050   6.469   2.532  0.1658  0.0116  0.0283
 5138TIP3    H137049   6.038   6.384   2.489 -0.7431  0.1123  0.0471
 5138TIP3    H237050   6.141   6.491   2.517 -0.0542 -0.0647 -1.6568
 5139TIP3   OH237051   2.767   6.624   7.145 -0.4009 -0.1480  0.4457
 5139TIP3    H137052   2.834   6.605   7.211  1.4638  0.0074 -1.3084
 5139TIP3    H237053   2.769   6.719   7.135 -0.0370 -0.2455 -0.4563
 5140TIP3   OH237054   1.887   6.265   0.645 -0.0370  0.2090  0.2430
 5140TIP3    H137055   1.835   6.313   0.581  1.1503  0.2402 -0.7388
 5140TIP3    H237056   1.932   6.332   0.696 -1.1719  0.1909  1.3133
 5141TIP3   OH237057   2.958   5.399   7.107 -0.3973 -0.0450 -0.0430
 5141TIP3    H137058   2.994   5.313   7.085 -0.5845  0.3961 -2.3323
 5141TIP3    H237059   2.876   5.379   7.153  0.3542 -1.0464  0.9251
 5142TIP3   OH237060   0.823   4.064   0.466  0.3179 -0.3693  0.1153
 5142TIP3    H137061   0.860   3.996   0.409  0.5752 -0.4468  0.3700
 5142TIP3    H237062   0.766   4.017   0.526  0.0395 -0.2867 -0.0847
 5143TIP3   OH237063   0.324   1.071   1.452  0.4946 -0.3682  0.0262
 5143TIP3    H137064   0.347   1.164   1.450  1.5228 -0.6184 -1.1989
 5143TIP3    H237065   0.230   1.070   1.470  0.4623  0.9109  0.0326
 5144TIP3   OH237066   5.729   3.642   3.181 -0.3623 -0.4372  0.3913
 5144TIP3    H137067   5.736   3.717   3.240 -0.1050  0.9121 -1.2781
 5144TIP3    H237068   5.639   3.645   3.147 -0.3430 -0.8623  0.2906
 5145TIP3   OH237069   0.814   4.229   7.926  0.2954  0.2016 -0.0085
 5145TIP3    H137070   0.876   4.303   7.923  1.8124 -1.0079 -0.0356
 5145TIP3    H237071   0.829   4.189   8.012 -0.7903  0.1421  0.1620
 5146TIP3   OH237072   1.206   4.810   0.922  0.1425 -0.2645 -0.5965
 5146TIP3    H137073   1.188   4.754   0.998  0.1627  1.1372  0.4742
 5146TIP3    H237074   1.160   4.892   0.941 -0.9265 -0.3014 -2.7077
 5147TIP3   OH237075   3.624   5.518   8.929  0.2855 -0.0477 -0.4572
 5147TIP3    H137076   3.537   5.481   8.944  0.0901  0.9225  1.0050
 5147TIP3    H237077   3.610   5.587   8.864 -0.2616  0.8669  0.6061
 5148TIP3   OH237078   3.507   3.598   1.328 -0.2731 -0.3701 -0.6611
 5148TIP3    H137079   3.512   3.517   1.276  0.0707  0.5065 -2.0644
 5148TIP3    H237080   3.586   3.646   1.303 -1.5973  1.4097 -1.6473
 5149TIP3   OH237081   4.967   3.601   8.250  0.0671 -0.0399  0.0598
 5149TIP3    H137082   4.914   3.527   8.219  0.8280 -0.0200 -1.3679
 5149TIP3    H237083   5.056   3.581   8.222  0.4831  0.8792  0.6625
 5150TIP3   OH237084   5.810   6.129   0.663 -0.2416  0.6040  0.2414
 5150TIP3    H137085   5.869   6.203   0.647  1.0887 -0.3845  0.3955
 5150TIP3    H237086   5.829   6.102   0.753 -0.2366 -0.3316 -0.0296
 5151TIP3   OH237087   5.758   2.991   8.917  0.2994 -0.5708  0.9201
 5151TIP3    H137088   5.704   3.068   8.936 -0.0211 -0.9887  1.7636
 5151TIP3    H237089   5.753   2.939   8.997  1.4069 -0.9446  0.7525
 5152TIP3   OH237090   6.404   3.975   0.599 -0.7125  0.5348 -0.3708
 5152TIP3    H137091   6.390   3.947   0.509 -0.7868  1.0838 -0.5372
 5152TIP3    H237092   6.320   4.012   0.626 -0.9922 -0.5323  0.2680
 5153TIP3   OH237093   4.592   1.107   0.243  0.4113  0.0966  0.4318
 5153TIP3    H137094   4.626   1.025   0.276  0.9373  0.1999  0.1536
 5153TIP3    H237095   4.564   1.155   0.321 -1.7972 -1.1409  0.4985
 5154TIP3   OH237096   1.486   0.652   7.985  0.6654  0.1169  0.3682
 5154TIP3    H137097   1.493   0.685   7.895 -1.1564  0.3596  0.2690
 5154TIP3    H237098   1.555   0.699   8.033  2.1174 -0.5298 -1.0120
 5155TIP3   OH237099   0.983   6.469   7.694  0.1191  0.2041  0.4240
 5155TIP3    H137100   0.949   6.429   7.774  0.1328 -0.9756 -0.1260
 5155TIP3    H237101   1.077   6.480   7.710  0.2948 -0.8875  0.2620
 5156TIP3   OH237102   2.313   5.033   2.859 -0.1476  0.0187 -0.1576
 5156TIP3    H137103   2.341   5.104   2.802  2.2012 -1.3056 -0.8094
 5156TIP3    H237104   2.395   4.994   2.891 -1.3552 -1.2892  1.5853
 5157TIP3   OH237105   6.540   6.109   1.582  0.1764 -0.7955 -0.2466
 5157TIP3    H137106   6.613   6.136   1.638 -0.3953 -0.4649  0.3535
 5157TIP3    H237107   6.582   6.079   1.501  0.9174  0.7466 -0.4792
 5158TIP3   OH237108   2.236   3.921   1.049 -0.0276  0.5000  1.0404
 5158TIP3    H137109   2.143   3.944   1.047  0.3699  2.3669  1.7823
 5158TIP3    H237110   2.277   3.982   0.988  0.4498 -2.0972 -1.4742
 5159TIP3   OH237111   1.158   4.969   0.428 -0.7969 -0.4024  0.3715
 5159TIP3    H137112   1.227   4.922   0.475 -1.1116 -1.2941 -0.0367
 5159TIP3    H237113   1.100   4.900   0.394 -1.0719  0.2577 -0.5520
 5160TIP3   OH237114   5.405   0.075   2.589 -0.2117  0.4177  0.3679
 5160TIP3    H137115   5.416   0.108   2.678  0.8037  0.6656  0.1596
 5160TIP3    H237116   5.494   0.057   2.559 -0.5146  0.7782 -0.7689
 5161TIP3   OH237117   5.289   1.071   7.865 -0.0022 -0.1136 -0.1649
 5161TIP3    H137118   5.353   1.140   7.845  0.4852 -0.5474 -0.1147
 5161TIP3    H237119   5.214   1.118   7.901 -0.5916  0.6204 -2.2098
 5162TIP3   OH237120   0.140   3.801   8.051 -0.0903 -0.1094  0.5803
 5162TIP3    H137121   0.206   3.869   8.041  0.1335 -0.6628 -3.6741
 5162TIP3    H237122   0.188   3.719   8.043 -0.9645 -0.5673 -0.2326
 5163TIP3   OH237123   2.402   3.998   1.836 -0.7423  0.3966  0.1129
 5163TIP3    H137124   2.355   3.924   1.799 -1.0305  1.2341 -1.2911
 5163TIP3    H237125   2.465   4.022   1.768  1.8458 -0.7366  1.9442
 5164TIP3   OH237126   1.138   3.767   0.260 -0.1149 -0.0842  0.1894
 5164TIP3    H137127   1.149   3.755   0.355 -0.1547  1.1698  0.3822
 5164TIP3    H237128   1.225   3.790   0.228  0.1526 -1.6654 -0.3070
 5165TIP3   OH237129   5.686   1.712   0.220 -0.6438  0.3832 -0.3579
 5165TIP3    H137130   5.653   1.746   0.304 -0.2783  0.5505 -0.2838
 5165TIP3    H237131   5.617   1.653   0.191 -1.1224  0.9018 -0.3095
 5166TIP3   OH237132   5.213   6.163   7.165 -0.3092 -0.5813 -0.5449
 5166TIP3    H137133   5.250   6.201   7.085  1.6101 -1.0404  0.0766
 5166TIP3    H237134   5.284   6.112   7.203 -1.4261 -1.0411  1.0529
 5167TIP3   OH237135   6.477   3.531   0.321  0.3343 -0.4496 -0.2226
 5167TIP3    H137136   6.556   3.582   0.338 -0.1483 -0.1970  1.3637
 5167TIP3    H237137   6.500   3.475   0.246  1.0573  1.6577 -1.6518
 5168TIP3   OH237138   3.652   4.108   0.654  0.6260 -0.1224 -0.3030
 5168TIP3    H137139   3.595   4.173   0.612  1.5132 -0.2778 -1.8126
 5168TIP3    H237140   3.620   4.103   0.744 -0.1541  1.6185 -0.4355
 5169TIP3   OH237141   6.636   4.960   1.068  0.0876 -0.1602  0.2312
 5169TIP3    H137142   6.676   4.906   1.136 -1.3624 -0.6509  0.7346
 5169TIP3    H237143   6.610   5.040   1.113  0.0152 -0.0636  0.0217
 5170TIP3   OH237144   5.027   1.406   8.541 -0.3843 -0.3762 -0.5874
 5170TIP3    H137145   5.103   1.390   8.485 -0.5756 -0.5856 -0.7910
 5170TIP3    H237146   4.982   1.480   8.499 -1.2250 -1.3477 -1.4429
 5171TIP3   OH237147   0.017   4.985   1.595  0.1635 -0.2523 -0.1850
 5171TIP3    H137148  -0.044   5.021   1.659  1.2416 -1.1046  1.3897
 5171TIP3    H237149   0.081   4.936   1.647  1.7281 -0.0790 -1.8266
 5172TIP3   OH237150   1.490   5.457   0.931  0.3636  0.6773 -0.1187
 5172TIP3    H137151   1.414   5.489   0.882  0.2487  0.5844 -0.0033
 5172TIP3    H237152   1.481   5.362   0.931 -0.6769  0.7175  1.6812
 5173TIP3   OH237153   2.710   5.926   7.442  0.0394 -0.4108  0.0833
 5173TIP3    H137154   2.751   5.973   7.369 -1.0421 -1.2741 -1.1097
 5173TIP3    H237155   2.619   5.956   7.442 -0.1107 -0.8516  0.7002
 5174TIP3   OH237156   3.726   2.972   8.530  0.0387 -0.1206  0.0936
 5174TIP3    H137157   3.819   2.952   8.526  0.0631  0.1450 -0.9083
 5174TIP3    H237158   3.685   2.910   8.471 -0.1844  1.0059 -0.9735
 5175TIP3   OH237159   3.159   3.461   0.598 -0.2230 -0.2294 -0.2877
 5175TIP3    H137160   3.138   3.551   0.573  0.7987 -0.4014 -1.9896
 5175TIP3    H237161   3.080   3.410   0.577 -1.6317  0.5208  2.7463
 5176TIP3   OH237162   2.744   4.964   0.611 -0.0460 -0.0785 -0.2754
 5176TIP3    H137163   2.814   4.951   0.675  1.8208 -0.5062 -2.2691
 5176TIP3    H237164   2.697   4.881   0.609  0.7232 -0.5214 -0.3705
 5177TIP3   OH237165   2.096   1.552   0.102 -0.1388 -0.4472 -0.0259
 5177TIP3    H137166   2.044   1.559   0.022  0.8477  0.7834 -0.6104
 5177TIP3    H237167   2.033   1.539   0.172 -1.1135 -0.3975 -0.8812
 5178TIP3   OH237168   0.121   5.769   1.304  0.2059  0.0272  0.2206
 5178TIP3    H137169   0.212   5.799   1.307  0.5551 -0.9669 -0.0289
 5178TIP3    H237170   0.104   5.751   1.211  0.4408 -1.7659  0.4870
 5179TIP3   OH237171   0.299   2.541   1.949  0.3719  0.6560 -0.1663
 5179TIP3    H137172   0.272   2.494   1.870 -0.0700 -0.0426  0.3788
 5179TIP3    H237173   0.310   2.472   2.014  0.4325  1.2499  0.4628
 5180TIP3   OH237174   5.024   5.061   8.918 -0.5145 -0.8574  0.2571
 5180TIP3    H137175   4.971   5.043   8.841 -0.7260 -1.2395  0.4900
 5180TIP3    H237176   5.074   5.139   8.895 -0.9297 -0.6902 -0.0858
 5181TIP3   OH237177   5.260   0.878   0.903  0.1816  0.7225  0.1210
 5181TIP3    H137178   5.203   0.910   0.972  0.3745  0.3002  0.4821
 5181TIP3    H237179   5.345   0.917   0.922  0.4000  0.0730  0.5193
 5182TIP3   OH237180   0.291   2.109   2.246  0.1556  0.0802  0.8456
 5182TIP3    H137181   0.240   2.029   2.237 -0.6514  0.6360  0.3575
 5182TIP3    H237182   0.376   2.080   2.278  0.1216 -1.0376 -0.0558
 5183TIP3   OH237183   4.179   0.316   7.336  0.5895  0.1494  0.1375
 5183TIP3    H137184   4.104   0.348   7.387  0.8462  0.9788  0.0088
 5183TIP3    H237185   4.171   0.360   7.252 -0.3763 -1.9509 -0.9385
 5184TIP3   OH237186   0.105   4.720   0.861 -0.4625 -0.1708 -0.7486
 5184TIP3    H137187   0.139   4.797   0.907 -1.3566 -0.2199  0.0280
 5184TIP3    H237188   0.012   4.738   0.849 -0.8287 -1.4051  0.0262
 5185TIP3   OH237189   6.075   1.703   1.830 -0.5943 -0.2067 -0.2507
 5185TIP3    H137190   6.079   1.639   1.901 -2.4837 -0.7095 -0.5485
 5185TIP3    H237191   6.074   1.788   1.873  1.4542 -0.3359  0.1675
 5186TIP3   OH237192   4.274   5.192   8.747 -0.1586  0.4714  0.1061
 5186TIP3    H137193   4.258   5.150   8.662 -0.1633  2.7228 -1.0820
 5186TIP3    H237194   4.344   5.140   8.786 -0.3485 -0.8017 -1.1409
 5187TIP3   OH237195   5.798   0.508   1.052  0.0973 -0.6878  0.0072
 5187TIP3    H137196   5.720   0.470   1.012 -1.0407  0.3544  1.1246
 5187TIP3    H237197   5.846   0.548   0.979  0.2818 -2.4101 -0.8744
 5188TIP3   OH237198   1.516   5.679   1.379  0.0712 -0.1660 -0.6296
 5188TIP3    H137199   1.518   5.586   1.398 -1.7334  0.2235  2.0322
 5188TIP3    H237200   1.608   5.706   1.382  0.4391 -1.3597  1.8660
 5189TIP3   OH237201   2.014   0.736   1.652  0.0271  0.0967 -0.9422
 5189TIP3    H137202   1.960   0.658   1.660 -0.4385  0.4119 -0.9985
 5189TIP3    H237203   1.975   0.799   1.712  1.2765 -0.1865  0.2280
 5190TIP3   OH237204   1.282   1.299   8.068 -0.5970 -0.2539 -0.1841
 5190TIP3    H137205   1.318   1.376   8.025  0.3285 -1.2982 -1.3376
 5190TIP3    H237206   1.303   1.226   8.010 -0.5417 -1.5402  1.3642
 5191TIP3   OH237207   2.268   0.339   2.637  0.1043 -0.2038 -0.1337
 5191TIP3    H137208   2.198   0.329   2.701 -0.4638 -0.4164 -0.7706
 5191TIP3    H237209   2.240   0.413   2.583  0.8936  0.3910  0.2637
 5192TIP3   OH237210   4.532   3.778   0.369  0.4564 -0.2489  0.3687
 5192TIP3    H137211   4.613   3.731   0.387  0.4985 -1.2771 -2.0658
 5192TIP3    H237212   4.554   3.870   0.380  1.7007 -0.5650  0.6402
 5193TIP3   OH237213   0.753   5.162   8.552 -0.3299  0.0751  0.3788
 5193TIP3    H137214   0.815   5.105   8.507 -1.6048 -1.8230  0.8808
 5193TIP3    H237215   0.782   5.251   8.531  1.8213 -0.7306 -0.3516
 5194TIP3   OH237216   0.238   6.273   7.632 -0.3735 -0.0074  0.6996
 5194TIP3    H137217   0.318   6.261   7.581 -0.4160 -4.0688  1.2757
 5194TIP3    H237218   0.170   6.293   7.567  0.8003  2.3548  0.1018
 5195TIP3   OH237219   6.498   1.957   0.418  0.0704 -0.0621 -0.0307
 5195TIP3    H137220   6.558   1.914   0.479 -0.2719  0.1620  0.4747
 5195TIP3    H237221   6.429   1.993   0.474 -0.4738 -0.2148 -0.5932
 5196TIP3   OH237222   3.550   0.297   1.458 -0.3760  0.8013 -0.5858
 5196TIP3    H137223   3.462   0.258   1.455 -0.1173 -0.0492  1.2501
 5196TIP3    H237224   3.535   0.391   1.455 -1.3025  0.6460 -1.0663
 5197TIP3   OH237225   2.393   1.503   0.679  0.0025  0.0008  0.1432
 5197TIP3    H137226   2.455   1.462   0.740  0.8142  0.9432 -0.0223
 5197TIP3    H237227   2.340   1.430   0.646 -0.5412 -0.5117  2.0484
 5198TIP3   OH237228   2.529   6.607   1.517 -0.8480 -0.0588 -0.5266
 5198TIP3    H137229   2.449   6.643   1.478 -1.8395 -0.1834  1.3151
 5198TIP3    H237230   2.499   6.533   1.569  0.1900  0.9947  1.6749
 5199TIP3   OH237231   0.071   0.369   2.500  0.0998 -0.5015  0.0426
 5199TIP3    H137232   0.077   0.279   2.532  0.9014 -0.6718 -0.5740
 5199TIP3    H237233  -0.016   0.375   2.460 -0.3035 -0.7359  0.8584
 5200TIP3   OH237234   5.507   6.087   7.189  0.3952 -0.4255  0.0656
 5200TIP3    H137235   5.481   6.006   7.146 -1.5720  0.7255 -1.0728
 5200TIP3    H237236   5.584   6.117   7.139  2.0843 -2.2567  1.4282
 5201TIP3   OH237237   3.862   3.082   1.651 -0.2814  0.0173 -0.0074
 5201TIP3    H137238   3.800   3.074   1.722  0.4406  0.2665  0.6633
 5201TIP3    H237239   3.938   3.031   1.679 -0.2956 -0.5622 -0.9580
 5202TIP3   OH237240   4.739   0.245   8.546  0.2106 -0.4415  0.1674
 5202TIP3    H137241   4.829   0.275   8.541 -0.1923  0.8667  0.5549
 5202TIP3    H237242   4.745   0.160   8.590  1.5880 -2.1000 -2.8749
 5203TIP3   OH237243   6.550   2.080   1.504 -0.1440 -0.0089  0.2514
 5203TIP3    H137244   6.550   1.988   1.478  0.3829 -0.5489  2.0451
 5203TIP3    H237245   6.536   2.079   1.598 -1.1466  1.8175  0.1769
 5204TIP3   OH237246   5.837   2.568   7.803  0.0169 -0.2142  0.2080
 5204TIP3    H137247   5.912   2.612   7.843  1.0812  0.0115 -1.8844
 5204TIP3    H237248   5.805   2.509   7.871  0.1995  1.7978  2.1982
 5205TIP3   OH237249   0.787   3.884   2.877  0.4530  0.0405  0.0233
 5205TIP3    H137250   0.771   3.839   2.960 -1.2097  0.1243 -0.2189
 5205TIP3    H237251   0.840   3.822   2.826  2.6218  0.5090  1.5703
 5206TIP3   OH237252   0.914   4.524   0.542 -0.1750 -0.3569 -0.3798
 5206TIP3    H137253   0.823   4.547   0.563 -0.0948  0.1546 -0.5728
 5206TIP3    H237254   0.907   4.444   0.489 -0.4966 -0.4700 -0.1691
 5207TIP3   OH237255   4.224   4.463   6.920  0.8436 -0.0996  0.1818
 5207TIP3    H137256   4.147   4.471   6.976  2.0371  1.2318  1.7292
 5207TIP3    H237257   4.192   4.481   6.832 -1.0291 -1.9062  0.4292
 5208TIP3   OH237258   5.293   1.272   7.522 -0.5363  0.0066  0.0292
 5208TIP3    H137259   5.385   1.294   7.509  0.0194 -2.0155  0.1445
 5208TIP3    H237260   5.259   1.343   7.576  0.7771  1.1191 -0.5408
 5209TIP3   OH237261   0.967   2.642   0.168  0.2180 -0.1130 -0.0059
 5209TIP3    H137262   0.923   2.727   0.174 -0.5127 -0.5752  2.0443
 5209TIP3    H237263   1.056   2.658   0.198  0.8627  0.3700 -2.0056
 5210TIP3   OH237264   3.781   4.224   7.856  0.0534  0.6500  0.9428
 5210TIP3    H137265   3.790   4.129   7.860  0.2158  0.6605  0.8575
 5210TIP3    H237266   3.687   4.240   7.849 -0.0634  0.5347  2.0594
 5211TIP3   OH237267   2.409   3.206   2.803 -0.0309 -0.5345  0.3300
 5211TIP3    H137268   2.480   3.271   2.801  0.2169 -0.8190 -0.7219
 5211TIP3    H237269   2.334   3.255   2.836  0.8993 -0.5208  2.6546
 5212TIP3   OH237270   6.615   6.288   0.127 -0.0758  0.1100 -0.2415
 5212TIP3    H137271   6.691   6.260   0.178  1.6115  0.6132 -2.3308
 5212TIP3    H237272   6.608   6.382   0.144  0.8558  0.3992 -1.2777
 5213TIP3   OH237273   0.782   5.478   8.021 -0.1619  0.1326  0.9694
 5213TIP3    H137274   0.706   5.420   8.023  0.9334 -1.4152  0.0155
 5213TIP3    H237275   0.745   5.566   8.018 -1.8742 -0.4379  2.9317
 5214TIP3   OH237276   1.629   0.802   8.178  0.0713  0.1344  0.4447
 5214TIP3    H137277   1.543   0.827   8.212  0.2399 -0.0776  1.0321
 5214TIP3    H237278   1.683   0.879   8.194  0.1151  0.0892  0.5096
 5215TIP3   OH237279   3.405   5.688   1.922 -0.1148  0.3064  0.6996
 5215TIP3    H137280   3.340   5.670   1.989 -0.9004  1.1137  0.1683
 5215TIP3    H237281   3.390   5.779   1.897  0.9566  0.3901  0.2816
 5216TIP3   OH237282   6.413   4.018   8.834  0.3325 -0.3645 -0.2050
 5216TIP3    H137283   6.356   4.090   8.860  0.7960 -0.0373 -0.0719
 5216TIP3    H237284   6.486   4.022   8.896  0.7371 -0.4756 -0.6645
 5217TIP3   OH237285   0.668   4.271   8.360  0.0000 -0.1431 -0.4597
 5217TIP3    H137286   0.601   4.287   8.425 -0.9791 -1.6472 -1.0478
 5217TIP3    H237287   0.739   4.228   8.408 -0.7873 -1.4006 -0.3915
 5218TIP3   OH237288   3.104   6.568   7.986 -0.1463  0.5102  0.2376
 5218TIP3    H137289   3.160   6.492   8.004  0.7506  1.1459  0.2112
 5218TIP3    H237290   3.016   6.540   8.010  0.4131  0.0005  1.7658
 5219TIP3   OH237291   4.522   3.316   1.610  0.5541 -0.5394 -0.4364
 5219TIP3    H137292   4.538   3.367   1.530  0.6375 -0.3965 -0.3303
 5219TIP3    H237293   4.569   3.234   1.596  0.0143 -0.7871 -0.8119
 5220TIP3   OH237294   1.257   0.708   0.576  0.5871  0.5459 -0.2061
 5220TIP3    H137295   1.270   0.666   0.491  0.4790 -1.3117  0.6382
 5220TIP3    H237296   1.300   0.649   0.638 -1.6705  0.3942  1.3382
 5221TIP3   OH237297   4.366   3.246   8.396  0.0290  0.2705  0.3012
 5221TIP3    H137298   4.454   3.209   8.397 -0.6311 -1.4137  2.1663
 5221TIP3    H237299   4.379   3.339   8.418  1.4374  0.5054 -1.2937
 5222TIP3   OH237300   5.497   0.099   2.264 -0.2129 -0.1013  0.4679
 5222TIP3    H137301   5.535   0.066   2.346  0.1253  2.4413  1.4404
 5222TIP3    H237302   5.543   0.182   2.249 -0.6794 -0.2249 -2.0225
 5223TIP3   OH237303   0.414   4.094   7.674  0.0139 -0.3225 -0.4148
 5223TIP3    H137304   0.388   4.085   7.766 -0.9013 -0.7053 -0.6955
 5223TIP3    H237305   0.504   4.125   7.678 -0.2940  0.5262  0.6143
 5224TIP3   OH237306   1.701   0.324   8.861 -0.2585 -0.3793  0.4128
 5224TIP3    H137307   1.797   0.325   8.863 -0.2315 -1.1795  0.1790
 5224TIP3    H237308   1.679   0.322   8.768 -0.5112  0.0147  0.4613
 5225TIP3   OH237309   2.035   2.463   7.041 -0.4049 -0.5474  0.2688
 5225TIP3    H137310   2.074   2.409   6.973 -0.4797 -0.3237  0.0451
 5225TIP3    H237311   2.016   2.546   6.997  2.9379  0.9884  1.3839
 5226TIP3   OH237312   6.137   0.313   8.678 -0.2397  0.2772  0.2012
 5226TIP3    H137313   6.172   0.225   8.690  0.0164  0.4919  1.1003
 5226TIP3    H237314   6.090   0.331   8.759 -2.1140  0.1602 -0.8112
 5227TIP3   OH237315   5.777   5.075   2.427 -0.3659 -0.4273 -0.7224
 5227TIP3    H137316   5.716   5.028   2.484 -1.6196 -0.0585 -1.7100
 5227TIP3    H237317   5.863   5.040   2.449 -0.9222 -0.9362  0.7376
 5228TIP3   OH237318   0.822   6.396   1.057  0.0868 -0.4770 -0.4795
 5228TIP3    H137319   0.756   6.332   1.083  1.0869 -1.1516  0.4777
 5228TIP3    H237320   0.791   6.479   1.094 -0.7185 -0.6004 -0.8797
 5229TIP3   OH237321   6.063   0.798   7.464 -0.0488 -0.4042  0.4240
 5229TIP3    H137322   5.994   0.823   7.403  1.8696  0.6623 -1.4167
 5229TIP3    H237323   6.127   0.869   7.460  1.7641 -1.8848  1.1177
 5230TIP3   OH237324   5.988   0.680   2.919 -0.3503  0.3012 -0.2730
 5230TIP3    H137325   5.919   0.674   2.853 -0.2861 -1.6166 -0.2075
 5230TIP3    H237326   5.950   0.735   2.988 -1.1853  0.6183 -0.9637
 5231TIP3   OH237327   2.983   2.682   7.045 -0.0589 -0.5535  0.2391
 5231TIP3    H137328   3.032   2.625   7.105 -2.1754 -1.5796  1.0895
 5231TIP3    H237329   2.933   2.621   6.991 -2.2344  0.4210  1.0471
 5232TIP3   OH237330   0.606   2.711   1.562 -0.0027 -0.0819  0.0891
 5232TIP3    H137331   0.665   2.775   1.602 -1.1771  0.9257  0.2789
 5232TIP3    H237332   0.639   2.626   1.592  2.3168  0.3017 -1.1335
 5233TIP3   OH237333   6.068   4.675   0.482 -0.1389  0.5488 -0.4330
 5233TIP3    H137334   6.017   4.696   0.560  1.3553  0.6174  0.5732
 5233TIP3    H237335   6.094   4.584   0.494  1.7142  1.0997  0.1616
 5234TIP3   OH237336   6.101   4.416   1.174 -0.9840  0.0675 -0.1331
 5234TIP3    H137337   6.041   4.441   1.244  0.3883  0.4735  0.9514
 5234TIP3    H237338   6.171   4.481   1.179 -1.0368  0.3233 -2.1502
 5235TIP3   OH237339   4.429   0.855   6.396 -0.0540 -0.5125  0.4251
 5235TIP3    H137340   4.350   0.819   6.436 -0.8620  3.3212  2.8645
 5235TIP3    H237341   4.500   0.822   6.451 -0.5724  0.1131  1.5109
 5236TIP3   OH237342   3.275   1.468   2.657 -0.1199 -0.0051 -0.1634
 5236TIP3    H137343   3.218   1.483   2.581 -0.4199 -0.5425 -0.0496
 5236TIP3    H237344   3.323   1.388   2.636 -0.8148 -0.6323  0.5587
 5237TIP3   OH237345   0.855   6.190   1.825  0.4897 -0.1658  0.4358
 5237TIP3    H137346   0.873   6.115   1.882 -0.2980 -1.7562 -1.2995
 5237TIP3    H237347   0.924   6.186   1.759  1.5891  1.8476  1.3880
 5238TIP3   OH237348   4.011   2.223   0.313 -0.2007 -0.1066 -0.2714
 5238TIP3    H137349   3.954   2.272   0.255  0.0242  0.7737  0.2413
 5238TIP3    H237350   4.053   2.158   0.256 -0.8422 -0.0123 -0.8649
 5239TIP3   OH237351   4.763   3.690   0.047  0.4085 -0.2032  0.2071
 5239TIP3    H137352   4.736   3.777   0.077  0.6802 -0.1011  0.1535
 5239TIP3    H237353   4.681   3.647   0.021 -0.3399 -1.4125  3.9071
 5240TIP3   OH237354   5.598   5.706   1.994  0.3106  0.0285  0.0039
 5240TIP3    H137355   5.563   5.619   2.012  1.4535 -0.2851  0.8516
 5240TIP3    H237356   5.685   5.690   1.957  0.8542  0.7979  0.8939
 5241TIP3   OH237357   1.022   1.942   7.453  0.0522 -0.2344 -0.0300
 5241TIP3    H137358   0.959   2.003   7.416  0.5518  1.9219  2.3756
 5241TIP3    H237359   0.971   1.863   7.472 -1.4759  0.7390  0.0582
 5242TIP3   OH237360   4.403   5.979   2.275  0.5895  0.4001 -0.1854
 5242TIP3    H137361   4.330   6.038   2.294  0.9026  0.2400  1.5925
 5242TIP3    H237362   4.460   6.030   2.217 -0.6768  0.6879 -1.2329
 5243TIP3   OH237363   4.657   1.820   8.778  0.1618 -0.3815  0.2300
 5243TIP3    H137364   4.655   1.906   8.821  1.5879 -0.6184  0.8276
 5243TIP3    H237365   4.742   1.818   8.732 -1.4335  0.0357 -3.0520
 5244TIP3   OH237366   3.569   4.525   2.149 -0.0498 -0.0026 -0.6651
 5244TIP3    H137367   3.599   4.438   2.175 -0.6716  0.4332  1.7052
 5244TIP3    H237368   3.534   4.513   2.061 -1.2334 -2.4236  0.0686
 5245TIP3   OH237369   0.461   1.539   7.307 -0.2357 -0.5513 -0.1985
 5245TIP3    H137370   0.504   1.457   7.330  0.8602 -0.6058 -2.2012
 5245TIP3    H237371   0.526   1.586   7.255 -1.1774  1.1889  0.1340
 5246TIP3   OH237372   2.481   6.603   8.193 -0.0433 -0.4157 -0.2065
 5246TIP3    H137373   2.397   6.649   8.199  0.3007  0.3204 -0.9060
 5246TIP3    H237374   2.457   6.515   8.166 -0.7121 -0.6885  1.1638
 5247TIP3   OH237375   4.992   3.197   1.446  0.3117  0.1163  0.4948
 5247TIP3    H137376   4.915   3.154   1.410  0.0274  0.6640  0.4299
 5247TIP3    H237377   5.054   3.199   1.374 -0.1545  0.9637  0.1042
 5248TIP3   OH237378   3.867   3.200   0.264  0.3921  0.4905 -0.2395
 5248TIP3    H137379   3.774   3.201   0.286  0.2784  0.7722 -0.7383
 5248TIP3    H237380   3.885   3.288   0.233  0.9614  0.6150  0.4053
 5249TIP3   OH237381   4.834   5.804   2.082  0.1917  0.1749 -0.1574
 5249TIP3    H137382   4.753   5.811   2.031 -0.1687 -0.1952  0.3501
 5249TIP3    H237383   4.851   5.710   2.087  0.5542  0.2432 -0.1032
 5250TIP3   OH237384   2.586   6.015   8.446  0.5421  0.0573 -0.3557
 5250TIP3    H137385   2.638   5.991   8.522  1.2021  2.3658 -0.0101
 5250TIP3    H237386   2.503   5.968   8.458  0.1071  1.3498  2.5194
 5251TIP3   OH237387   4.123   3.263   0.981  0.5057 -0.0229 -0.0244
 5251TIP3    H137388   4.103   3.239   1.072 -2.5739  0.5885 -0.4420
 5251TIP3    H237389   4.097   3.186   0.930 -0.5950  0.7259 -0.6125
 5252TIP3   OH237390   0.499   2.270   0.583  0.0331  0.4364 -0.2427
 5252TIP3    H137391   0.491   2.314   0.668  0.0819  0.6179 -0.3323
 5252TIP3    H237392   0.586   2.230   0.585 -0.9371 -1.7739  0.8440
 5253TIP3   OH237393   6.497   3.064   7.484  0.5381 -0.4042  0.0490
 5253TIP3    H137394   6.551   3.124   7.433 -1.4430  0.1677 -1.5332
 5253TIP3    H237395   6.409   3.076   7.449 -0.4354 -2.1091  1.7196
 5254TIP3   OH237396   6.106   0.331   0.867  0.1913 -0.2122 -0.1231
 5254TIP3    H137397   6.094   0.275   0.943 -2.4928  0.3031 -0.0788
 5254TIP3    H237398   6.144   0.412   0.903  1.5953 -0.9765  0.1883
 5255TIP3   OH237399   0.363   4.842   0.521  0.0900 -0.6611 -0.6326
 5255TIP3    H137400   0.341   4.826   0.613  1.1543 -0.3483 -0.3085
 5255TIP3    H237401   0.306   4.783   0.472  0.0134 -1.3559  0.2615
 5256TIP3   OH237402   3.953   1.291   7.110 -0.2008 -0.1354 -0.3071
 5256TIP3    H137403   3.944   1.202   7.144  0.2319 -0.1438 -0.1985
 5256TIP3    H237404   4.029   1.286   7.052 -0.7653 -0.0510 -1.0523
 5257TIP3   OH237405   0.781   3.871   0.956 -0.5340 -0.3631 -0.3416
 5257TIP3    H137406   0.741   3.958   0.960  0.3746  0.0319  0.6969
 5257TIP3    H237407   0.862   3.885   0.906  1.5171  0.2447  2.8636
 5258TIP3   OH237408   4.994   1.959   0.074  0.1390  0.6689  0.2380
 5258TIP3    H137409   5.036   2.040   0.044  0.3428  0.1006 -1.1007
 5258TIP3    H237410   5.057   1.890   0.052 -1.4042 -0.2005 -1.7925
 5259TIP3   OH237411   3.916   5.564   6.922  0.1189  0.0491 -0.3978
 5259TIP3    H137412   3.898   5.650   6.961  0.7899  0.2931 -0.6184
 5259TIP3    H237413   3.930   5.582   6.830 -1.2432 -0.5058 -0.7465
 5260TIP3   OH237414   4.859   0.707   6.653  0.1606  0.1963 -0.3141
 5260TIP3    H137415   4.943   0.743   6.626  0.3978 -1.5883 -2.2419
 5260TIP3    H237416   4.880   0.622   6.690 -0.5126  1.2663  2.8543
 5261TIP3   OH237417   1.906   2.079   8.538 -0.2438  0.3663 -0.4770
 5261TIP3    H137418   1.990   2.042   8.565 -0.6348 -1.2879 -1.4192
 5261TIP3    H237419   1.845   2.056   8.608 -0.2742  0.1118 -0.5884
 5262TIP3   OH237420   2.150   3.194   0.081 -0.0109 -0.2880  0.0074
 5262TIP3    H137421   2.129   3.283   0.109  0.7841 -0.2993  0.6751
 5262TIP3    H237422   2.217   3.204   0.014 -0.9198 -0.3305 -0.9317
 5263TIP3   OH237423   0.339   1.014   1.206 -0.3864  0.3441 -0.1729
 5263TIP3    H137424   0.342   0.921   1.186 -0.0070  0.8021 -2.5451
 5263TIP3    H237425   0.322   1.018   1.300  1.5104 -2.1065  0.3711
 5264TIP3   OH237426   4.337   4.746   0.759 -0.1542  0.0370  0.8430
 5264TIP3    H137427   4.408   4.789   0.713 -0.3132  0.6758  1.1701
 5264TIP3    H237428   4.369   4.736   0.849 -0.4525  0.2869  0.9810
 5265TIP3   OH237429   4.469   4.381   8.926 -0.5305 -0.3245 -0.5614
 5265TIP3    H137430   4.409   4.417   8.860 -1.2816  0.2148  0.3873
 5265TIP3    H237431   4.556   4.400   8.892 -0.9123  0.6257 -1.0435
 5266TIP3   OH237432   4.695   0.541   0.715 -0.1664  0.2573  0.1718
 5266TIP3    H137433   4.673   0.589   0.795  1.5135 -0.8137  1.3299
 5266TIP3    H237434   4.706   0.450   0.744 -2.1664 -0.6861 -1.7774
 5267TIP3   OH237435   1.095   0.001   7.652 -0.0551 -0.2296 -0.0636
 5267TIP3    H137436   1.119  -0.027   7.740  0.4731  0.7163  0.1074
 5267TIP3    H237437   1.000  -0.006   7.649 -0.0077 -1.0898  0.2884
 5268TIP3   OH237438   4.880   4.936   2.513 -0.5146  0.0860  0.2939
 5268TIP3    H137439   4.924   4.896   2.588 -0.5891 -0.7852 -0.1044
 5268TIP3    H237440   4.798   4.886   2.504 -0.8042  0.5992  0.0216
 5269TIP3   OH237441   4.886   3.367   2.081 -0.2358  0.2593  0.2102
 5269TIP3    H137442   4.823   3.399   2.015  0.1504  1.1519  0.2662
 5269TIP3    H237443   4.924   3.446   2.118  0.8149 -0.2701  0.2909
 5270TIP3   OH237444   2.053   1.559   2.735 -0.1767 -0.2019 -0.0142
 5270TIP3    H137445   2.000   1.485   2.706 -2.5731  1.4068 -0.0266
 5270TIP3    H237446   2.013   1.635   2.694  1.6370  1.2392  0.7150
 5271TIP3   OH237447   3.185   0.864   7.571  0.1829 -0.4796 -0.4820
 5271TIP3    H137448   3.153   0.926   7.506  0.9493 -0.2084 -0.6080
 5271TIP3    H237449   3.199   0.916   7.650  0.2523 -0.6105 -0.4080
 5272TIP3   OH237450   4.776   6.363   1.585  0.1387 -0.0450  0.3172
 5272TIP3    H137451   4.850   6.365   1.646  0.4946  1.2695 -0.1387
 5272TIP3    H237452   4.701   6.388   1.638  0.2633  0.0341  0.4563
 5273TIP3   OH237453   5.332   1.941   7.229  0.0815  0.7879 -0.2890
 5273TIP3    H137454   5.283   1.921   7.149  0.5507 -0.8656 -0.1871
 5273TIP3    H237455   5.347   2.036   7.224  0.2480  0.7038 -2.2508
 5274TIP3   OH237456   5.172   1.783   6.700 -0.4024 -0.7502  0.4002
 5274TIP3    H137457   5.151   1.702   6.653 -0.2831 -0.4522 -0.1691
 5274TIP3    H237458   5.163   1.760   6.793  0.1169 -1.5520  0.2591
 5275TIP3   OH237459   0.791   1.836   8.274 -0.3548 -0.0873  0.3087
 5275TIP3    H137460   0.862   1.885   8.317  1.3944 -1.6665 -0.6544
 5275TIP3    H237461   0.778   1.760   8.329 -0.8526 -0.1384  0.1212
 5276TIP3   OH237462   0.548   5.067   7.810  0.7978  0.3472  0.3921
 5276TIP3    H137463   0.552   5.013   7.889 -0.8437  0.6729  0.7411
 5276TIP3    H237464   0.608   5.025   7.749  0.3539 -1.2624  1.0115
 5277TIP3   OH237465   4.417   1.489   0.201  0.1749  0.2115 -0.4159
 5277TIP3    H137466   4.393   1.397   0.188 -0.0053  0.2398 -0.2776
 5277TIP3    H237467   4.511   1.492   0.182  1.0528 -0.7367  3.1465
 5278TIP3   OH237468   2.518   4.626   7.217 -0.8293  0.4349 -0.0467
 5278TIP3    H137469   2.549   4.546   7.259  1.9940  1.2237 -0.4252
 5278TIP3    H237470   2.433   4.602   7.178 -1.8257 -1.2870  2.8994
 5279TIP3   OH237471   0.078   0.557   1.661 -0.2456 -0.1648  0.0368
 5279TIP3    H137472   0.094   0.490   1.595  1.3904  0.0396  0.1873
 5279TIP3    H237473  -0.017   0.569   1.660 -0.6121 -2.5065  0.0510
 5280TIP3   OH237474   2.095   6.434   7.076  0.0983 -0.4325 -0.2973
 5280TIP3    H137475   2.145   6.357   7.049 -2.4617 -2.8255  1.2961
 5280TIP3    H237476   2.003   6.406   7.074 -0.8449  1.9290  2.2196
 5281TIP3   OH237477   2.798   0.992   1.878 -0.7995 -0.3196  0.0868
 5281TIP3    H137478   2.779   0.994   1.784 -0.8297  0.8844  0.1022
 5281TIP3    H237479   2.712   0.995   1.920 -0.8216 -1.6888  0.1622
 5282TIP3   OH237480   4.774   4.921   2.904 -0.2234  0.1385 -0.6025
 5282TIP3    H137481   4.800   4.876   2.984  0.0724  0.8419 -0.2919
 5282TIP3    H237482   4.695   4.969   2.928  0.0686  0.6366 -0.6277
 5283TIP3   OH237483   5.746   5.044   8.032 -0.3657  0.5132  0.1156
 5283TIP3    H137484   5.829   5.085   8.010  0.0793 -0.1942  0.4606
 5283TIP3    H237485   5.770   4.964   8.078 -1.2269  0.0160 -0.2791
 5284TIP3   OH237486   0.224   0.926   8.862  0.1285 -0.5905 -0.8486
 5284TIP3    H137487   0.281   0.975   8.922 -0.5262  0.7400 -1.2883
 5284TIP3    H237488   0.143   0.913   8.910 -0.2689  0.1590 -1.3129
 5285TIP3   OH237489   1.131   0.453   0.002 -0.5766 -0.0812  0.3191
 5285TIP3    H137490   1.125   0.384   0.068 -2.6110 -0.4419 -0.1847
 5285TIP3    H237491   1.060   0.434  -0.060 -1.2841  2.4968  0.2122
 5286TIP3   OH237492   5.666   3.558   7.809 -0.0408  0.5933  0.4241
 5286TIP3    H137493   5.625   3.500   7.745  1.0460  0.0158  0.2132
 5286TIP3    H237494   5.655   3.513   7.893 -1.0880  1.1432  0.5973
 5287TIP3   OH237495   1.289   0.945   1.927 -0.5718  0.0514 -0.1489
 5287TIP3    H137496   1.301   1.024   1.874  0.8010  0.2720  0.4542
 5287TIP3    H237497   1.298   0.975   2.018  1.9401 -1.0566  0.0475
 5288TIP3   OH237498   1.400   2.084   7.268  0.3484  0.3925  0.1145
 5288TIP3    H137499   1.493   2.065   7.280  0.8031  2.3450  0.1544
 5288TIP3    H237500   1.397   2.145   7.194 -0.9274  0.1958 -0.0264
 5289TIP3   OH237501   6.474   6.786   8.327  0.2937 -0.4237  0.2452
 5289TIP3    H137502   6.414   6.735   8.272  0.3590 -1.3128  0.9845
 5289TIP3    H237503   6.528   6.834   8.265 -0.4464 -0.4740 -0.4505
 5290TIP3   OH237504   3.488   2.926   7.670  0.0196 -0.4170 -0.1928
 5290TIP3    H137505   3.479   3.005   7.618  0.9273 -0.3670 -0.2833
 5290TIP3    H237506   3.563   2.880   7.633 -1.5117 -2.2145 -1.2826
 5291TIP3   OH237507   4.787   5.020   1.965  0.3960 -0.2119 -0.2289
 5291TIP3    H137508   4.760   5.081   2.033  0.2688 -0.7294  0.1935
 5291TIP3    H237509   4.794   4.935   2.009  0.6870 -0.4864 -0.7754
 5292TIP3   OH237510   6.583   1.932   0.165 -0.6624 -0.2777 -0.2700
 5292TIP3    H137511   6.622   1.844   0.158 -0.5696 -0.1939 -0.8302
 5292TIP3    H237512   6.562   1.941   0.258  2.7832  0.5632  0.5885
 5293TIP3   OH237513   6.783   5.365   7.764 -0.0635  0.2572 -0.0959
 5293TIP3    H137514   6.754   5.300   7.700  0.2141  0.5969 -0.5760
 5293TIP3    H237515   6.704   5.388   7.813  0.0907 -1.4879  1.0585
 5294TIP3   OH237516   1.097   0.051   7.196  0.1076 -0.0649 -0.1861
 5294TIP3    H137517   1.059   0.121   7.143 -0.5502  0.2518  0.6671
 5294TIP3    H237518   1.044  -0.026   7.177 -0.2801  0.1070  0.1741
 5295TIP3   OH237519   3.437   2.797   7.414  0.5182  0.3061  0.0914
 5295TIP3    H137520   3.388   2.714   7.416 -0.7371  0.9516 -1.2697
 5295TIP3    H237521   3.409   2.838   7.332  0.6773  2.3379  0.9981
 5296TIP3   OH237522   6.193   6.703   0.217 -0.4382  0.2065 -0.4743
 5296TIP3    H137523   6.243   6.708   0.135 -1.5228 -0.4065 -1.1993
 5296TIP3    H237524   6.108   6.667   0.191 -0.7345 -0.1913  0.9641
 5297TIP3   OH237525   4.022   0.982   8.042 -0.8567 -0.1572  0.0994
 5297TIP3    H137526   3.973   0.988   8.124 -0.2063 -0.2789  0.5065
 5297TIP3    H237527   4.074   1.063   8.039 -0.5322 -0.3642  0.0440
 5298TIP3   OH237528   3.534   0.854   7.452 -0.0856 -0.4195  1.0025
 5298TIP3    H137529   3.578   0.937   7.471  0.5305 -0.7599  1.0884
 5298TIP3    H237530   3.489   0.869   7.369  1.1006 -0.3976  0.3429
 5299TIP3   OH237531   0.263   0.533   2.335 -0.0732  0.1478 -0.5630
 5299TIP3    H137532   0.235   0.458   2.389 -0.1761  1.3059  1.0684
 5299TIP3    H237533   0.300   0.493   2.256 -0.2718 -1.6215  0.1873
 5300TIP3   OH237534   4.468   6.167   8.148  0.6065 -0.3147  0.3619
 5300TIP3    H137535   4.553   6.186   8.189 -0.1158 -1.5264  2.6064
 5300TIP3    H237536   4.430   6.100   8.204 -1.9662  0.3699 -0.4600
 5301TIP3   OH237537   2.937   3.214   2.203  0.4668  0.1373 -0.1555
 5301TIP3    H137538   2.934   3.288   2.264 -1.5722 -0.4781  0.5750
 5301TIP3    H237539   2.942   3.137   2.259 -1.1230 -0.4194 -0.7049
 5302TIP3   OH237540   4.658   2.767   7.128  0.8275 -0.3933  0.4396
 5302TIP3    H137541   4.715   2.733   7.058  0.4108 -0.6674  0.2321
 5302TIP3    H237542   4.577   2.791   7.083  0.7632 -0.0473  0.7446
 5303TIP3   OH237543   6.573   2.734   8.890 -0.2076 -0.0338  0.3317
 5303TIP3    H137544   6.571   2.801   8.821  0.7550  0.2744  0.5867
 5303TIP3    H237545   6.482   2.720   8.912 -0.4309  1.4041  0.4600
 5304TIP3   OH237546   3.622   1.560   8.811  0.0665  0.2345  0.0615
 5304TIP3    H137547   3.613   1.485   8.753  0.6989 -0.4519  0.8159
 5304TIP3    H237548   3.659   1.629   8.757  0.0003 -0.1729 -0.5097
 5305TIP3   OH237549   6.654   2.958   2.316 -0.2544  0.2691 -0.3458
 5305TIP3    H137550   6.594   3.020   2.357 -0.5778 -1.0895  1.3341
 5305TIP3    H237551   6.695   2.911   2.389  1.2469 -0.3332 -1.5119
 5306TIP3   OH237552   2.480   4.288   7.147  0.4331  0.9984 -0.0329
 5306TIP3    H137553   2.391   4.296   7.112  0.8899  1.7442 -1.0915
 5306TIP3    H237554   2.511   4.204   7.113 -0.2812  0.1163  1.3893
 5307TIP3   OH237555   6.010   5.365   8.260  0.1772 -0.0020  0.3519
 5307TIP3    H137556   6.082   5.304   8.276  0.5572  0.3029 -0.1722
 5307TIP3    H237557   6.043   5.450   8.289  1.1007  0.6887 -2.4276
 5308TIP3   OH237558   0.344   2.841   1.696  0.0524 -0.5719 -0.0917
 5308TIP3    H137559   0.396   2.784   1.639 -0.9082 -0.6305 -0.9342
 5308TIP3    H237560   0.339   2.793   1.779  0.3024 -1.1316 -0.3932
 5309TIP3   OH237561   3.784   3.219   8.331 -0.4935 -0.0734  0.1456
 5309TIP3    H137562   3.743   3.133   8.340  0.4255 -0.5590 -0.1505
 5309TIP3    H237563   3.858   3.216   8.392 -1.2255  1.0096  1.1257
 5310TIP3   OH237564   2.805   1.551   2.240  0.5012 -0.4333 -0.2700
 5310TIP3    H137565   2.820   1.534   2.333 -0.5234  1.0781  0.2105
 5310TIP3    H237566   2.802   1.464   2.200 -1.0273 -1.2462  1.4578
 5311TIP3   OH237567   5.073   0.589   8.495  0.5575 -0.3683 -0.3005
 5311TIP3    H137568   4.984   0.619   8.475  0.6168 -0.4762 -0.7318
 5311TIP3    H237569   5.109   0.658   8.552  0.5414  0.1684 -0.9290
 5312TIP3   OH237570   3.007   2.153   7.038  0.7437  0.2422 -0.4758
 5312TIP3    H137571   2.934   2.206   7.069  0.7771  0.3096 -0.5128
 5312TIP3    H237572   2.991   2.142   6.945  1.1984  0.9225 -0.6392
 5313TIP3   OH237573   5.776   6.351   0.391  0.3521 -0.2753  0.1392
 5313TIP3    H137574   5.867   6.338   0.366 -0.0257 -0.1527 -1.3808
 5313TIP3    H237575   5.727   6.285   0.342 -0.3985 -0.2678  0.8433
 5314TIP3   OH237576   5.753   0.171   8.076  0.3335  0.1924  0.1013
 5314TIP3    H137577   5.720   0.124   8.152  3.2839  0.9625  2.0189
 5314TIP3    H237578   5.701   0.138   8.003 -1.5170 -1.8012  2.1814
 5315TIP3   OH237579   5.380   4.610   1.402 -0.8020  0.4049  0.0643
 5315TIP3    H137580   5.454   4.559   1.368  0.6087  1.2716  1.7127
 5315TIP3    H237581   5.342   4.554   1.470 -0.3605  0.8110  0.6490
 5316TIP3   OH237582   2.785   0.909   0.096  0.6582 -0.7839  0.6981
 5316TIP3    H137583   2.836   0.989   0.080 -0.1002 -0.4785 -0.2979
 5316TIP3    H237584   2.760   0.879   0.009 -0.3921 -1.2410  1.1432
 5317TIP3   OH237585   0.357   5.427   2.252 -0.2411  0.0008 -0.2683
 5317TIP3    H137586   0.414   5.361   2.292  1.3339  1.5053  0.0446
 5317TIP3    H237587   0.272   5.414   2.295  0.3525 -1.0191  0.6454
 5318TIP3   OH237588   0.478   2.895   1.394 -0.1408 -0.0221  0.6483
 5318TIP3    H137589   0.477   2.867   1.302 -0.4922 -0.3519  0.7463
 5318TIP3    H237590   0.525   2.826   1.439 -0.5416 -0.1915  0.8126
 5319TIP3   OH237591   5.487   3.206   8.847 -0.1179 -0.2059 -0.5488
 5319TIP3    H137592   5.460   3.297   8.835  0.5561  0.1447  0.4473
 5319TIP3    H237593   5.427   3.171   8.912  1.0382  0.2533  0.8399
 5320TIP3   OH237594   6.040   2.393   8.067  0.4012  0.3048  0.9661
 5320TIP3    H137595   6.073   2.310   8.101 -0.3440 -0.6421 -0.5107
 5320TIP3    H237596   6.104   2.458   8.096  1.3788 -0.8786  1.5647
 5321TIP3   OH237597   0.326   6.402   0.114  0.1353  0.2879 -0.9633
 5321TIP3    H137598   0.290   6.419   0.027 -0.4834  2.6029 -0.3172
 5321TIP3    H237599   0.351   6.488   0.147  2.4762 -0.7666  0.2949
 5322TIP3   OH237600   5.204   2.050   6.732  0.0786  0.7820  0.3716
 5322TIP3    H137601   5.110   2.061   6.746 -0.3303 -0.7929 -0.8943
 5322TIP3    H237602   5.216   1.956   6.718  1.8514  0.9465  0.5170
 5323TIP3   OH237603   1.206   5.232   1.013  1.2550  0.9967 -0.0997
 5323TIP3    H137604   1.185   5.198   0.926  1.7083  2.1933 -0.6933
 5323TIP3    H237605   1.146   5.185   1.071 -0.1677  1.3068 -1.2421
 5324TIP3   OH237606   3.002   1.532   1.514 -0.2322  0.1212 -0.3383
 5324TIP3    H137607   2.917   1.494   1.538 -0.9168  0.9554 -1.3612
 5324TIP3    H237608   2.996   1.546   1.420  1.2775 -0.3465 -0.5363
 5325TIP3   OH237609   5.482   1.531   0.524  0.5688 -0.6922 -0.2788
 5325TIP3    H137610   5.448   1.544   0.612  1.3676 -3.3350  0.5227
 5325TIP3    H237611   5.443   1.448   0.495  1.8270 -0.8669 -1.5930
 5326TIP3   OH237612   5.737   5.700   2.450  0.4188  0.8930 -0.3949
 5326TIP3    H137613   5.673   5.734   2.388  1.1677  1.9214 -0.6376
 5326TIP3    H237614   5.691   5.699   2.534 -0.0093  1.3446 -0.6181
 5327TIP3   OH237615   2.566   4.243   0.939 -0.6025 -0.1560 -0.1679
 5327TIP3    H137616   2.487   4.226   0.887 -1.4229  1.8281  0.3049
 5327TIP3    H237617   2.600   4.326   0.904  0.2867 -0.1094  0.7571
 5328TIP3   OH237618   3.965   1.356   0.424  0.0996 -0.6568  0.4467
 5328TIP3    H137619   3.934   1.365   0.334  0.5946  1.1965  0.4045
 5328TIP3    H237620   3.912   1.420   0.473  0.6808 -0.7657  1.2298
 5329TIP3   OH237621   6.531   1.596   0.277 -0.1922  0.0215 -0.6912
 5329TIP3    H137622   6.616   1.620   0.239 -0.1213 -1.1222 -1.3115
 5329TIP3    H237623   6.553   1.533   0.346 -0.5343 -0.3708 -0.9367
 5330TIP3   OH237624   6.296   3.777   1.025 -0.5748 -0.1544  0.1782
 5330TIP3    H137625   6.317   3.700   0.973 -0.7227  0.3330 -0.6265
 5330TIP3    H237626   6.288   3.745   1.114 -1.4366 -1.2085 -0.2619
 5331TIP3   OH237627   1.284   4.431   0.781  0.1578  0.7086 -0.1472
 5331TIP3    H137628   1.305   4.479   0.862  1.1017  0.6796 -0.3637
 5331TIP3    H237629   1.256   4.499   0.720  3.4752  1.3506 -1.1217
 5332TIP3   OH237630   6.491   2.004   0.817 -0.6978 -0.5146  0.6013
 5332TIP3    H137631   6.573   2.048   0.838 -0.1937 -1.7084  1.2494
 5332TIP3    H237632   6.478   2.022   0.724 -0.6660  1.1943  0.8973
 5333TIP3   OH237633   1.056   3.295   7.213 -0.2156  0.1261  0.2475
 5333TIP3    H137634   1.116   3.220   7.220  0.8299  0.7498 -1.3582
 5333TIP3    H237635   1.097   3.352   7.146 -2.2541  0.9155 -0.3992
 5334TIP3   OH237636   0.003   6.069   8.756  0.1899 -0.1518  0.3022
 5334TIP3    H137637   0.016   6.014   8.679 -0.2606 -0.7984  0.6897
 5334TIP3    H237638   0.082   6.055   8.809 -0.0733 -0.6838  0.5580
 5335TIP3   OH237639   5.790   5.815   7.878  0.4485 -0.3029 -0.2662
 5335TIP3    H137640   5.697   5.804   7.898  0.2872 -0.0945 -0.8870
 5335TIP3    H237641   5.823   5.726   7.867  0.6816 -0.4743  1.4888
 5336TIP3   OH237642   5.501   2.198   2.106 -1.3045 -0.5613  0.3768
 5336TIP3    H137643   5.466   2.200   2.017  1.2049  0.1039 -0.6740
 5336TIP3    H237644   5.453   2.267   2.152 -0.6878  1.0916 -1.3163
 5337TIP3   OH237645   3.967   6.758   0.615 -0.2877 -0.8174 -0.5748
 5337TIP3    H137646   3.927   6.789   0.696  0.3209 -0.7989 -0.2724
 5337TIP3    H237647   3.895   6.754   0.553 -0.5540  0.3287 -0.3715
 5338TIP3   OH237648   0.265   2.481   7.839 -0.4399 -0.3827 -0.8861
 5338TIP3    H137649   0.272   2.489   7.744  0.4977 -0.3222 -0.8210
 5338TIP3    H237650   0.173   2.458   7.854 -0.9938  1.0995 -1.7052
 5339TIP3   OH237651   3.915   5.395   8.155  0.2664  0.0558 -0.0636
 5339TIP3    H137652   3.983   5.356   8.100 -0.0156  1.0435 -1.1517
 5339TIP3    H237653   3.963   5.453   8.215  0.4375  0.3330 -0.4636
 5340TIP3   OH237654   2.311   2.654   8.252  0.2350 -0.4388 -0.3957
 5340TIP3    H137655   2.286   2.601   8.327  0.4869 -1.4773 -1.0240
 5340TIP3    H237656   2.361   2.727   8.289 -0.1223 -0.6276  0.4829
 5341TIP3   OH237657   3.930   6.410   0.713 -0.3867  0.3334 -0.4577
 5341TIP3    H137658   3.879   6.482   0.676  1.4140  1.0162 -1.7104
 5341TIP3    H237659   3.998   6.452   0.765 -0.3771 -0.5240  0.2385
 5342TIP3   OH237660   4.594   5.817   0.599  0.2216 -0.4501 -0.1413
 5342TIP3    H137661   4.670   5.829   0.542  0.8044  1.8625  1.0146
 5342TIP3    H237662   4.525   5.785   0.540  0.5138  2.6777 -2.4369
 5343TIP3   OH237663   0.672   0.824   1.157  0.6220  0.2448 -1.1661
 5343TIP3    H137664   0.676   0.916   1.133 -1.3920  0.3704 -1.1735
 5343TIP3    H237665   0.640   0.825   1.248 -0.8920 -0.4384 -1.6535
 5344TIP3   OH237666   5.533   2.050   8.758 -0.2451 -0.6810  0.5614
 5344TIP3    H137667   5.494   1.993   8.824 -0.2160 -1.4219 -0.0380
 5344TIP3    H237668   5.624   2.021   8.751 -0.4273 -1.0758 -0.2859
 5345TIP3   OH237669   4.892   3.482   0.157  0.1295  0.0397 -0.0305
 5345TIP3    H137670   4.856   3.554   0.106 -0.3690  0.3224  0.7133
 5345TIP3    H237671   4.823   3.415   0.156 -1.1749  1.1876  2.7158
 5346TIP3   OH237672   2.925   0.160   1.079  0.1193 -0.4201 -0.3723
 5346TIP3    H137673   2.917   0.173   0.985 -0.7311 -0.3102 -0.2891
 5346TIP3    H237674   2.894   0.243   1.117 -2.4139 -1.4937  0.0837
 5347TIP3   OH237675   4.331   0.805   2.199  0.2038  0.0215 -0.0099
 5347TIP3    H137676   4.259   0.864   2.220 -0.3256 -0.2355 -1.0769
 5347TIP3    H237677   4.363   0.834   2.114 -0.3562 -1.4969 -0.7724
 5348TIP3   OH237678   6.059   1.908   2.669  0.0778 -0.2710 -0.5998
 5348TIP3    H137679   6.034   2.000   2.660  0.2354 -0.1489  0.1662
 5348TIP3    H237680   6.152   1.910   2.692 -0.4769 -0.4911  1.9531
 5349TIP3   OH237681   5.755   5.889   1.386  0.3237  0.3757 -0.5319
 5349TIP3    H137682   5.680   5.898   1.445 -0.5530 -0.4741 -1.4625
 5349TIP3    H237683   5.830   5.874   1.444 -0.0761  2.0038  0.4527
 5350TIP3   OH237684   5.772   0.995   0.165  0.2257 -0.1142  0.3317
 5350TIP3    H137685   5.764   0.908   0.203 -2.1339 -0.7459 -1.3768
 5350TIP3    H237686   5.855   0.993   0.118 -0.4905 -2.0400 -0.9748
 5351TIP3   OH237687   4.323   1.457   8.732 -0.0082  0.5999  0.4450
 5351TIP3    H137688   4.393   1.506   8.689  0.3732 -0.0708  0.2809
 5351TIP3    H237689   4.272   1.523   8.778 -1.5187  1.6039 -2.4826
 5352TIP3   OH237690   3.987   6.751   6.761  0.1929 -0.1006 -0.1177
 5352TIP3    H137691   3.898   6.734   6.731  1.1858 -2.1081 -2.2278
 5352TIP3    H237692   4.025   6.809   6.696  1.2316 -1.4758 -0.7844
 5353TIP3   OH237693   4.307   1.662   2.191  0.2477  0.1034 -0.2261
 5353TIP3    H137694   4.388   1.615   2.212  0.6173  0.5504 -0.6054
 5353TIP3    H237695   4.291   1.719   2.266  0.0159 -0.3477  0.0631
 5354TIP3   OH237696   2.410   6.500   7.531  0.2079  0.2929 -0.2923
 5354TIP3    H137697   2.461   6.429   7.491  0.0475 -0.3482  0.6238
 5354TIP3    H237698   2.320   6.482   7.507  0.2905  0.8949 -1.1049
 5355TIP3   OH237699   1.649   3.161   8.347  0.1421 -0.6003 -0.1311
 5355TIP3    H137700   1.654   3.226   8.418 -0.1391  0.3959 -0.9956
 5355TIP3    H237701   1.576   3.190   8.293 -0.4449 -2.0512 -0.1638
 5356TIP3   OH237702   3.522   3.595   2.350  0.3828 -0.0455  0.3328
 5356TIP3    H137703   3.563   3.633   2.428  0.7128 -0.7783  0.5196
 5356TIP3    H237704   3.480   3.515   2.381 -1.2470  0.6995  0.1542
 5357TIP3   OH237705   1.910   3.946   1.816  0.1556 -0.1831 -0.2288
 5357TIP3    H137706   1.979   3.986   1.763 -0.2475  1.8273  0.6604
 5357TIP3    H237707   1.957   3.905   1.889  0.6334 -2.0832 -1.5464
 5358TIP3   OH237708   3.250   0.086   7.564  0.2977 -0.2372 -1.0382
 5358TIP3    H137709   3.265   0.171   7.604 -0.4629 -0.9040  0.7809
 5358TIP3    H237710   3.322   0.031   7.596 -0.0038 -0.6352 -1.0337
 5359TIP3   OH237711   6.685   2.616   0.263  0.1636 -0.7622  0.4253
 5359TIP3    H137712   6.719   2.610   0.174 -1.4918  1.0155 -0.3911
 5359TIP3    H237713   6.759   2.651   0.314  1.2435 -2.1555 -0.1052
 5360TIP3   OH237714   5.599   2.329   6.593 -0.2347 -0.5818 -0.0872
 5360TIP3    H137715   5.665   2.263   6.616  0.1546 -0.6060 -1.2115
 5360TIP3    H237716   5.545   2.286   6.527 -1.5542 -0.6431  0.9919
 5361TIP3   OH237717   3.358   2.290   2.615 -0.2053 -0.2711 -0.1781
 5361TIP3    H137718   3.303   2.213   2.627 -1.6724  0.7227 -0.3268
 5361TIP3    H237719   3.306   2.363   2.649  1.5832  0.5452  1.0005
 5362TIP3   OH237720   5.863   1.559   8.045  0.3307 -0.3061  0.1641
 5362TIP3    H137721   5.936   1.526   7.992  0.9249  1.3186 -0.0826
 5362TIP3    H237722   5.888   1.538   8.135  1.1264  0.2442  0.0824
 5363TIP3   OH237723   0.043   2.028   7.907  0.4927  0.3345 -0.0858
 5363TIP3    H137724   0.032   2.054   7.998 -1.4262 -1.4094  0.2409
 5363TIP3    H237725  -0.001   2.096   7.857 -2.2599 -0.8272  0.6000
 5364TIP3   OH237726   0.353   2.663   8.542 -0.4983  0.0555  0.4191
 5364TIP3    H137727   0.309   2.642   8.460 -0.6613 -0.1073  0.5485
 5364TIP3    H237728   0.334   2.589   8.600 -1.6867  0.8885  1.1272
 5365TIP3   OH237729   1.384   3.388   8.755 -0.4023  0.1115 -0.4642
 5365TIP3    H137730   1.382   3.300   8.793 -2.0145 -0.5819 -1.9820
 5365TIP3    H237731   1.333   3.441   8.816 -2.3529 -0.8149 -1.2232
 5366TIP3   OH237732   3.976   4.581   2.723  0.0206 -0.4143 -0.4459
 5366TIP3    H137733   4.025   4.640   2.780  2.7411  0.6873 -3.6090
 5366TIP3    H237734   3.897   4.630   2.700 -0.7587 -0.5875  1.6115
 5367TIP3   OH237735   0.795   0.126   1.753  0.4930 -0.3818 -0.2400
 5367TIP3    H137736   0.851   0.174   1.814 -0.6221  0.0839  0.4474
 5367TIP3    H237737   0.742   0.194   1.710 -1.0786 -0.9356  0.7183
 5368TIP3   OH237738   1.141   3.384   8.415 -0.2529  0.5784  0.2105
 5368TIP3    H137739   1.202   3.339   8.473 -0.5204 -0.4653 -0.2896
 5368TIP3    H237740   1.109   3.459   8.466  1.3399  1.0821  0.5221
 5369TIP3   OH237741   4.687   1.647   1.618  0.2002  0.4944 -0.4462
 5369TIP3    H137742   4.683   1.729   1.669  2.9107  0.8281 -0.6121
 5369TIP3    H237743   4.663   1.673   1.529 -0.1335  0.8570 -0.2526
 5370TIP3   OH237744   3.998   2.430   0.065  0.6011 -0.1270 -0.3922
 5370TIP3    H137745   4.062   2.489   0.026 -1.1844  2.0759 -0.2181
 5370TIP3    H237746   3.945   2.487   0.121 -0.7871 -2.0603  0.3553
 5371TIP3   OH237747   4.559   0.158   7.791  0.5411 -0.1393  0.2885
 5371TIP3    H137748   4.490   0.127   7.850  0.7105 -0.5798  0.2621
 5371TIP3    H237749   4.639   0.152   7.843  0.8182 -1.3596 -0.2591
 5372TIP3   OH237750   1.054   5.518   1.284 -0.0194  0.4935 -0.1049
 5372TIP3    H137751   1.053   5.460   1.361 -0.9164  0.5859 -0.0392
 5372TIP3    H237752   1.057   5.606   1.321  0.8507  0.5064 -0.1988
 5373TIP3   OH237753   3.745   5.449   2.366  0.1161  0.0837 -0.5832
 5373TIP3    H137754   3.755   5.378   2.302 -0.5657  0.5461 -1.2271
 5373TIP3    H237755   3.752   5.529   2.314 -0.6667  0.4667 -0.1175
 5374TIP3   OH237756   5.286   2.836   1.018  0.3225  0.6856 -0.3202
 5374TIP3    H137757   5.332   2.920   1.021 -1.0207  1.4169  0.6195
 5374TIP3    H237758   5.193   2.859   1.023 -0.2081 -0.7328 -2.2452
 5375TIP3   OH237759   5.996   1.177   8.725 -0.1103  0.0680  0.2007
 5375TIP3    H137760   6.041   1.171   8.641 -3.3453 -2.3719 -1.5884
 5375TIP3    H237761   5.933   1.248   8.714 -1.8118 -1.4487 -0.2043
 5376TIP3   OH237762   1.837   1.409   0.893  0.1906 -0.2618  0.1329
 5376TIP3    H137763   1.931   1.418   0.908  0.1811  0.6828 -0.3320
 5376TIP3    H237764   1.820   1.316   0.906  1.1382 -0.3940  0.5079
 5377TIP3   OH237765   0.428   1.964   0.555 -0.0370  0.3268  0.8770
 5377TIP3    H137766   0.433   2.054   0.587  1.0439  1.1443 -1.3239
 5377TIP3    H237767   0.360   1.968   0.486 -0.2751 -0.6436  1.0517
 5378TIP3   OH237768   3.823   2.588   0.429 -0.0388 -0.0485  0.2559
 5378TIP3    H137769   3.818   2.676   0.466 -1.6829 -0.2397  0.5603
 5378TIP3    H237770   3.840   2.602   0.336  0.3202  0.5608  0.4073
 5379TIP3   OH237771   5.229   0.620   8.256 -0.1387 -0.7476  0.1234
 5379TIP3    H137772   5.207   0.587   8.343  3.4057 -1.4143  0.9156
 5379TIP3    H237773   5.179   0.702   8.248 -1.5266 -1.3086  2.1964
 5380TIP3   OH237774   3.498   2.622   1.107  0.3509  0.1710 -0.1395
 5380TIP3    H137775   3.461   2.533   1.110 -0.2740  0.4593  1.6351
 5380TIP3    H237776   3.557   2.627   1.182  0.4737  1.2295 -0.2876
 5381TIP3   OH237777   6.753   3.986   8.000 -0.3533 -0.0378  0.3784
 5381TIP3    H137778   6.836   3.946   8.026 -0.3904 -1.0220 -0.8978
 5381TIP3    H237779   6.712   4.012   8.082  1.1993  0.4637  1.0424
 5382TIP3   OH237780   5.749   5.065   1.260  0.0638 -0.6781  0.1118
 5382TIP3    H137781   5.773   5.151   1.226 -0.3178 -0.6803 -0.1700
 5382TIP3    H237782   5.780   5.065   1.351 -0.4525 -0.0211  0.3015
 5383TIP3   OH237783   5.796   5.978   1.783 -0.1703 -0.2615 -0.3180
 5383TIP3    H137784   5.813   6.039   1.855 -0.8741 -0.7590  0.2873
 5383TIP3    H237785   5.852   6.008   1.712  1.3009 -0.3605  0.7646
 5384TIP3   OH237786   2.356   0.964   1.457  0.4697 -0.5059  0.0260
 5384TIP3    H137787   2.317   0.884   1.421 -0.2487 -1.0041  1.7846
 5384TIP3    H237788   2.434   0.934   1.503  2.4131  0.3492 -2.4726
 5385TIP3   OH237789   1.711   2.493   0.799  0.3397  0.1890  0.6333
 5385TIP3    H137790   1.695   2.581   0.765  1.4531 -0.2754 -1.2538
 5385TIP3    H237791   1.770   2.506   0.873  0.6356  1.0233  0.2603
 5386TIP3   OH237792   4.057   2.925   7.975  0.1292 -0.1844  0.0608
 5386TIP3    H137793   4.034   2.848   7.924 -2.8501 -0.2181  1.2590
 5386TIP3    H237794   4.075   2.892   8.062 -0.0938  0.3583  0.3188
 5387TIP3   OH237795   2.955   3.118   8.882 -0.0151 -0.3106  0.4750
 5387TIP3    H137796   2.877   3.082   8.842  0.1609  0.0758 -0.2424
 5387TIP3    H237797   3.005   3.042   8.912 -1.6465 -0.5139  2.9310
 5388TIP3   OH237798   3.614   1.106   7.456  0.3074  0.2042  0.2198
 5388TIP3    H137799   3.628   1.200   7.444  2.3988  0.0207  0.8109
 5388TIP3    H237800   3.553   1.100   7.529  0.8387  1.0902  0.7471
 5389TIP3   OH237801   3.029   2.018   0.432  0.2028  0.3728 -0.0994
 5389TIP3    H137802   2.981   2.081   0.379  0.0064 -0.3654 -0.8143
 5389TIP3    H237803   3.025   1.936   0.382  2.4422  0.3387 -0.3318
 5390TIP3   OH237804   2.714   2.491   8.575  0.8131 -0.2117  0.3984
 5390TIP3    H137805   2.719   2.471   8.668  0.1339  1.0389  0.7281
 5390TIP3    H237806   2.725   2.586   8.571  0.2358 -0.1791 -0.7506
 5391TIP3   OH237807   5.633   1.711   0.764 -0.3994 -0.2423  0.6699
 5391TIP3    H137808   5.577   1.667   0.828 -2.0397 -1.1113 -1.2512
 5391TIP3    H237809   5.572   1.748   0.701  1.1284 -2.3315 -2.2322
 5392TIP3   OH237810   2.219   5.296   1.699 -0.2938 -0.4296  0.5756
 5392TIP3    H137811   2.233   5.257   1.613  1.7983  0.7376  0.3260
 5392TIP3    H237812   2.256   5.232   1.760  1.7665  0.4073  0.2741
 5393TIP3   OH237813   3.268   1.384   7.329  0.1499  0.1334 -0.3236
 5393TIP3    H137814   3.304   1.410   7.414 -1.5948  1.5955  0.0377
 5393TIP3    H237815   3.319   1.435   7.265 -0.5321  1.3891  0.0984
 5394TIP3   OH237816   0.538   1.127   0.858 -0.1365 -0.5892  0.8420
 5394TIP3    H137817   0.516   1.051   0.913 -0.0557  0.7117  2.7639
 5394TIP3    H237818   0.629   1.145   0.879 -0.3545  0.4463  0.9135
 5395TIP3   OH237819   2.397   3.320   8.403  0.2628 -0.1907  0.0432
 5395TIP3    H137820   2.444   3.297   8.323  2.1146  1.3083  0.6351
 5395TIP3    H237821   2.317   3.362   8.373  0.8542  0.1964 -1.0174
 5396TIP3   OH237822   3.833   2.872   0.567  0.6774 -0.1070  0.3409
 5396TIP3    H137823   3.855   2.915   0.485  3.0804  0.4598  1.1885
 5396TIP3    H237824   3.766   2.927   0.607  0.1076  0.0653 -0.8371
 5397TIP3   OH237825   0.226   6.427   7.852  0.1583  0.0099 -0.3179
 5397TIP3    H137826   0.152   6.452   7.798  0.3873 -0.6186 -0.9349
 5397TIP3    H237827   0.263   6.350   7.808 -0.3938 -1.2989  1.3830
 5398TIP3   OH237828   3.788   6.032   0.566  0.0565 -0.0245 -0.0776
 5398TIP3    H137829   3.878   6.062   0.553  0.3287 -0.2165  1.1887
 5398TIP3    H237830   3.763   5.994   0.482  1.5724 -0.9745 -0.1524
 5399TIP3   OH237831   1.467   3.129   7.862  0.1678 -0.7681  0.4352
 5399TIP3    H137832   1.470   3.069   7.788 -0.6846  0.9608 -1.0769
 5399TIP3    H237833   1.373   3.146   7.875  0.4265  1.6846 -0.4566
 5400TIP3   OH237834   2.377   3.122   8.877 -0.1949 -0.0580 -0.0522
 5400TIP3    H137835   2.452   3.063   8.871 -0.6530 -0.8380  1.3578
 5400TIP3    H237836   2.329   3.107   8.796 -0.0104 -1.2508  0.0332
 5401TIP3   OH237837   4.202   6.750   7.960  0.1464 -0.0313 -0.2769
 5401TIP3    H137838   4.209   6.655   7.969  1.2981  0.1985  1.7598
 5401TIP3    H237839   4.112   6.769   7.985  0.2904 -0.4706  0.5985
 5402TIP3   OH237840   5.782   0.544   0.591  0.3415  0.3385 -0.4100
 5402TIP3    H137841   5.776   0.452   0.566  0.8144  0.2340 -0.1647
 5402TIP3    H237842   5.848   0.580   0.531  1.1556  0.1900  0.3669
 5403TIP3   OH237843   1.248   0.847   1.472  0.9408  0.0447  0.5280
 5403TIP3    H137844   1.242   0.823   1.565  0.6627  2.6528  1.2728
 5403TIP3    H237845   1.262   0.942   1.473 -0.2417  0.3378 -2.1198
 5404TIP3   OH237846   0.509   2.836   1.107 -0.4022 -0.4492 -0.2982
 5404TIP3    H137847   0.601   2.849   1.083 -0.3376  0.7169  0.4902
 5404TIP3    H237848   0.489   2.747   1.078  1.1506 -0.9549  0.0900
 5405TIP3   OH237849   3.990   0.071   7.664  0.4145 -0.7822 -0.4007
 5405TIP3    H137850   3.908   0.064   7.714  0.5835  4.8178  1.4417
 5405TIP3    H237851   4.059   0.056   7.729  0.6427  2.0091  0.1276
 5406TIP3   OH237852   4.192   2.355   6.628  0.0849 -0.0597  0.1936
 5406TIP3    H137853   4.255   2.353   6.556 -0.9489 -1.3471 -0.7222
 5406TIP3    H237854   4.232   2.301   6.696  0.2294 -0.3953 -0.1521
 5407TIP3   OH237855   0.467   6.534   1.094  0.2973  0.1351  0.4897
 5407TIP3    H137856   0.441   6.620   1.061 -2.5545 -0.7918  0.1223
 5407TIP3    H237857   0.495   6.486   1.015 -0.4067 -0.0299  0.3363
 5408TIP3   OH237858   2.143   2.381   7.553  0.3207 -0.5561 -0.4771
 5408TIP3    H137859   2.113   2.421   7.471  0.3341 -1.7876 -1.1035
 5408TIP3    H237860   2.114   2.442   7.621 -2.0135 -0.7722 -1.1843
 5409TIP3   OH237861   3.597   4.839   0.307 -0.3743  0.6105  0.0733
 5409TIP3    H137862   3.603   4.918   0.254  0.0575  1.3857  1.2206
 5409TIP3    H237863   3.514   4.847   0.354 -0.2144  0.5175  0.3794
 5410TIP3   OH237864   0.146   1.884   2.265  0.7117 -0.1686  0.7306
 5410TIP3    H137865   0.108   1.796   2.267  1.3082 -0.4478  0.3924
 5410TIP3    H237866   0.072   1.943   2.278  0.3541 -0.7332  1.2986
 5411TIP3   OH237867   0.583   0.904   7.554  0.4545  0.2556  0.2847
 5411TIP3    H137868   0.586   0.986   7.604  0.3937 -0.1166  0.9153
 5411TIP3    H237869   0.550   0.839   7.616  2.5798 -0.7330  0.5040
 5412TIP3   OH237870   0.067   0.890   0.755 -0.0580 -0.0112  0.3958
 5412TIP3    H137871   0.111   0.908   0.838 -0.4618  0.5915  0.4856
 5412TIP3    H237872   0.105   0.807   0.725  0.8105  0.2740  0.6869
 5413TIP3   OH237873   3.882   0.616   0.341  0.0829  0.0336  0.0665
 5413TIP3    H137874   3.807   0.670   0.319 -0.5412 -0.1899  1.5227
 5413TIP3    H237875   3.953   0.649   0.286 -0.3530  2.1391  0.6919
 5414TIP3   OH237876   5.569   4.494   7.883 -0.0395 -0.3993  0.5624
 5414TIP3    H137877   5.568   4.443   7.964 -0.1583  0.5771  1.1890
 5414TIP3    H237878   5.605   4.434   7.818  1.3930 -0.7749  1.6285
 5415TIP3   OH237879   1.363   1.031   1.187 -0.2536 -0.1906 -0.2802
 5415TIP3    H137880   1.423   0.994   1.251  0.3987 -0.7401 -1.1854
 5415TIP3    H237881   1.290   1.064   1.239  0.2461 -0.6426  0.7380
 5416TIP3   OH237882   2.651   5.294   8.676  0.0245  0.6195  0.3797
 5416TIP3    H137883   2.584   5.362   8.686 -3.0123 -2.3793  2.4161
 5416TIP3    H237884   2.728   5.330   8.720 -1.6481  2.5334  1.9187
 5417TIP3   OH237885   2.646   2.225   0.116 -0.4426 -0.0143 -0.4043
 5417TIP3    H137886   2.558   2.199   0.089 -0.4335 -1.4619  0.8322
 5417TIP3    H237887   2.635   2.312   0.155 -0.9139  0.8216 -2.3142
 5418TIP3   OH237888   4.053   1.989   1.692  0.4494 -0.0456  0.8883
 5418TIP3    H137889   4.063   2.016   1.600 -1.3555  1.3992  1.0595
 5418TIP3    H237890   4.101   2.055   1.741  1.0625 -0.5844  1.0246
 5419TIP3   OH237891   2.179   6.380   7.464 -0.5107 -0.6293  0.5855
 5419TIP3    H137892   2.212   6.328   7.391 -0.1551 -0.7858  0.8530
 5419TIP3    H237893   2.125   6.447   7.423  1.2735  0.5353 -0.0174
 5420TIP3   OH237894   3.140   6.305   6.534 -0.0736  0.1971  0.0258
 5420TIP3    H137895   3.166   6.378   6.477 -0.5478  1.2138  1.0622
 5420TIP3    H237896   3.088   6.248   6.477  2.9650 -1.1188 -1.6969
 5421TIP3   OH237897   4.164   3.907   7.290  0.5862 -0.1387  0.3223
 5421TIP3    H137898   4.096   3.958   7.334 -0.3183 -0.6055 -0.4938
 5421TIP3    H237899   4.183   3.835   7.350 -0.0031 -0.2865  0.3350
 5422TIP3   OH237900   2.395   0.476   1.552  0.0650 -0.4487  0.2561
 5422TIP3    H137901   2.338   0.539   1.508  0.9331 -0.1094 -0.4226
 5422TIP3    H237902   2.368   0.479   1.644 -0.8771 -0.1697 -0.0155
 5423TIP3   OH237903   2.069   2.547   1.921  0.4130  0.1185 -0.0882
 5423TIP3    H137904   2.001   2.592   1.971  0.5604  0.2589 -0.0136
 5423TIP3    H237905   2.063   2.584   1.833 -0.8737 -1.2131 -0.6100
 5424TIP3   OH237906   5.746   0.165   8.673  0.1727 -0.5338  0.6975
 5424TIP3    H137907   5.712   0.191   8.587 -0.1575  0.9530  1.2566
 5424TIP3    H237908   5.824   0.113   8.652 -0.0526 -0.4272 -0.5085
 5425TIP3   OH237909   1.184   2.607   0.584 -0.4500  0.1485  0.3805
 5425TIP3    H137910   1.180   2.645   0.672 -2.8504  2.1322 -0.4792
 5425TIP3    H237911   1.101   2.632   0.543  0.9384  0.0567 -2.7645
 5426TIP3   OH237912   0.328   1.304   1.094 -0.0513  0.1891 -0.6692
 5426TIP3    H137913   0.243   1.308   1.138  1.0289  1.4984  1.5125
 5426TIP3    H237914   0.372   1.229   1.134  0.1289  0.0025 -1.2055
 5427TIP3   OH237915   2.069   3.686   1.856 -0.5400  0.0101 -0.1823
 5427TIP3    H137916   2.127   3.617   1.890 -1.9060 -0.5081  1.2534
 5427TIP3    H237917   2.052   3.742   1.932  0.1554  1.6909 -1.2214
 5428TIP3   OH237918   5.262   1.629   1.287  0.4612 -0.0625  0.5713
 5428TIP3    H137919   5.329   1.604   1.350  0.0284 -0.3204  0.9451
 5428TIP3    H237920   5.231   1.714   1.316  0.3447 -0.1270  0.6357
 5429TIP3   OH237921   2.370   3.462   2.583  0.1592  0.3044 -0.4149
 5429TIP3    H137922   2.431   3.439   2.654 -0.9283  0.1193  0.4810
 5429TIP3    H237923   2.346   3.552   2.602 -1.0120 -0.1028  0.1294
 5430TIP3   OH237924   2.448   6.177   2.201  0.1316 -0.3565 -0.3803
 5430TIP3    H137925   2.400   6.206   2.124 -1.6483 -0.5388  0.5967
 5430TIP3    H237926   2.397   6.104   2.235  1.2285 -0.6891  0.6189
 5431TIP3   OH237927   3.609   2.855   1.003 -0.3016  0.1712 -0.3190
 5431TIP3    H137928   3.590   2.772   1.048  2.4534 -0.4245 -0.0735
 5431TIP3    H237929   3.693   2.841   0.961  0.4354  2.9594  0.0057
 5432TIP3   OH237930   2.951   1.504   8.229  0.4264 -0.2640 -0.2398
 5432TIP3    H137931   2.879   1.564   8.213  0.8898  0.7077  1.1406
 5432TIP3    H237932   2.920   1.420   8.195 -0.0607  0.7990 -2.6369
 5433TIP3   OH237933   6.583   6.800   7.466 -0.4566 -0.4972 -0.1123
 5433TIP3    H137934   6.591   6.840   7.553 -0.0372 -0.9924  0.0848
 5433TIP3    H237935   6.519   6.855   7.420 -0.7867 -0.3114  0.5524
 5434TIP3   OH237936   2.852   1.566   0.961  0.6823 -0.0030 -0.2713
 5434TIP3    H137937   2.872   1.641   0.906 -0.7125  0.9456  0.4473
 5434TIP3    H237938   2.763   1.582   0.992  1.6009 -0.1730  2.7603
 5435TIP3   OH237939   4.974   0.018   2.407 -0.0005 -0.2815  0.3966
 5435TIP3    H137940   4.945   0.076   2.337  0.5471 -0.2196  0.2196
 5435TIP3    H237941   4.902   0.020   2.470 -0.7369 -0.7678 -0.4096
 5436TIP3   OH237942   5.085   5.590   6.685  0.3688 -0.5543  0.0948
 5436TIP3    H137943   5.099   5.512   6.739 -0.3708 -0.7875 -0.0385
 5436TIP3    H237944   5.067   5.660   6.748  1.0072 -0.4888  0.2129
 5437TIP3   OH237945   1.677   3.401   0.138  0.2006 -0.3527  0.2652
 5437TIP3    H137946   1.773   3.404   0.143  0.1941  0.7167 -0.0316
 5437TIP3    H237947   1.655   3.454   0.061 -0.7265  1.4507  1.6677
 5438TIP3   OH237948   3.556   1.442   7.774  0.3779  0.1665  0.2940
 5438TIP3    H137949   3.521   1.448   7.685  0.3756 -2.1396  0.0798
 5438TIP3    H237950   3.501   1.503   7.825  0.2422  1.3643 -1.1947
 5439TIP3   OH237951   4.382   0.629   7.472  0.2825  0.0123  0.4939
 5439TIP3    H137952   4.289   0.620   7.489  0.2839 -1.6010 -0.1381
 5439TIP3    H237953   4.422   0.556   7.520  0.7317 -1.9099 -2.5152
 5440TIP3   OH237954   4.327   0.930   0.143  0.5219 -0.8053  0.1599
 5440TIP3    H137955   4.280   0.954   0.222 -1.0833 -1.3909 -0.5543
 5440TIP3    H237956   4.347   1.013   0.100 -1.5001 -0.5393 -0.3779
 5441TIP3   OH237957   2.629   4.688   8.263  0.5206 -0.4630  0.6385
 5441TIP3    H137958   2.660   4.599   8.278  0.6752 -0.8707 -1.7004
 5441TIP3    H237959   2.536   4.685   8.283  0.9358 -0.4895  2.8654
 5442TIP3   OH237960   2.074   2.905   8.549  0.0779 -0.1464 -0.0798
 5442TIP3    H137961   2.079   2.820   8.505  1.7469 -0.1612  0.0713
 5442TIP3    H237962   2.116   2.966   8.489  2.1484 -0.1109  1.3139
 5443TIP3   OH237963   3.501   0.543   0.731  0.1401 -0.1396 -0.2877
 5443TIP3    H137964   3.528   0.502   0.649 -0.4199  0.3820 -0.7465
 5443TIP3    H237965   3.436   0.484   0.768  0.6432 -0.5450 -0.0434
 5444TIP3   OH237966   3.369   0.486   8.040  0.2949  0.0142 -0.3222
 5444TIP3    H137967   3.311   0.512   8.111  0.6205 -0.9710  0.3116
 5444TIP3    H237968   3.313   0.484   7.962 -0.0289  1.2403 -0.1430
 5445TIP3   OH237969   1.945   5.432   0.141  0.0027  0.0785  0.3383
 5445TIP3    H137970   1.913   5.360   0.194 -0.4552 -0.3422 -0.4788
 5445TIP3    H237971   1.917   5.511   0.188 -1.3492 -0.2832  0.1820
 5446TIP3   OH237972   0.424   0.219   8.763 -0.1587 -0.7072 -0.3199
 5446TIP3    H137973   0.441   0.296   8.709 -0.9288  0.0570  0.4922
 5446TIP3    H237974   0.498   0.161   8.746 -0.2511 -0.3734 -1.9693
 5447TIP3   OH237975   3.441   4.992   0.503 -0.1039 -0.3568 -0.1942
 5447TIP3    H137976   3.346   5.007   0.495 -0.0109  0.3007 -0.0859
 5447TIP3    H237977   3.464   5.029   0.588  0.3536 -0.0010 -0.4697
 5448TIP3   OH237978   5.647   4.035   1.934  0.5022 -0.1460 -0.0461
 5448TIP3    H137979   5.619   4.110   1.882 -0.3086 -0.9187 -0.7613
 5448TIP3    H237980   5.729   4.007   1.894  0.9199  0.4765  0.3577
 5449TIP3   OH237981   6.203   3.054   2.667  0.3198  0.2286 -0.4543
 5449TIP3    H137982   6.288   3.037   2.626  1.4489  1.4604  1.2102
 5449TIP3    H237983   6.225   3.086   2.755 -1.6799  4.2035 -1.1567
 5450TIP3   OH237984   0.675   5.482   8.407  1.1551  0.6289 -0.6903
 5450TIP3    H137985   0.770   5.497   8.406  1.0915  1.4808  1.4655
 5450TIP3    H237986   0.642   5.541   8.475 -0.9547  0.4236 -1.4668
 5451TIP3   OH237987   1.928   2.510   0.303 -0.3191  0.0778  0.0089
 5451TIP3    H137988   2.022   2.512   0.282 -0.0489 -1.6230  0.8937
 5451TIP3    H237989   1.921   2.562   0.383 -0.1854  0.4046 -0.1874
 5452TIP3   OH237990   2.573   1.455   1.941  0.4899  0.1546 -0.3790
 5452TIP3    H137991   2.536   1.476   2.026 -0.6663 -2.2359 -0.2166
 5452TIP3    H237992   2.502   1.469   1.879  0.3311 -1.1434 -0.5168
 5453TIP3   OH237993   2.048   1.566   8.496 -0.0031  0.4491 -0.1061
 5453TIP3    H137994   2.134   1.607   8.509  0.4882 -0.6293  0.1348
 5453TIP3    H237995   2.046   1.544   8.403 -1.0540  2.6864 -0.6899
 5454TIP3   OH237996   3.140   4.749   1.105 -0.0819  0.0771 -0.1947
 5454TIP3    H137997   3.104   4.794   1.182  0.8047 -1.8014  1.4376
 5454TIP3    H237998   3.073   4.686   1.080  0.3308 -0.5400  0.2070
 5455TIP3   OH237999   6.496   5.454   7.822  0.4070  0.2941 -0.3603
 5455TIP3    H138000   6.441   5.394   7.771  0.5343  1.3712 -1.8338
 5455TIP3    H238001   6.456   5.456   7.909 -0.8615 -0.2544 -0.9107
 5456TIP3   OH238002   3.559   4.105   0.921 -0.1278 -0.0340 -0.5104
 5456TIP3    H138003   3.503   4.179   0.943  0.2420  0.4120 -1.0453
 5456TIP3    H238004   3.621   4.098   0.994  0.1816  0.5243 -0.7197
 5457TIP3   OH238005   6.609   0.742   0.787 -0.5783  0.4848  0.1535
 5457TIP3    H138006   6.696   0.743   0.828 -0.2645 -2.2354 -0.2697
 5457TIP3    H238007   6.551   0.777   0.855  0.5478  0.3284  1.2505
 5458TIP3   OH238008   2.128   4.997   8.694 -0.0822  0.2050  0.0075
 5458TIP3    H138009   2.213   4.958   8.675 -1.1891 -1.8849 -0.9293
 5458TIP3    H238010   2.148   5.069   8.754  2.6116  1.4360 -2.1182
 5459TIP3   OH238011   2.063   2.266   2.746 -0.1407 -0.4464  0.3716
 5459TIP3    H138012   2.111   2.290   2.825 -0.1194  0.6670  0.0373
 5459TIP3    H238013   2.114   2.194   2.709  1.2095  0.5834  0.1272
 5460TIP3   OH238014   1.778   2.449   8.768  0.0941  0.1346 -0.5119
 5460TIP3    H138015   1.760   2.468   8.860  0.4257  0.0973 -0.4370
 5460TIP3    H238016   1.728   2.369   8.750 -1.3192  1.0475 -0.8346
 5461TIP3   OH238017   3.689   4.510   7.718 -0.5760 -0.0203  0.8605
 5461TIP3    H138018   3.689   4.544   7.808 -0.3935 -0.1240  0.8993
 5461TIP3    H238019   3.769   4.546   7.679 -1.5430  1.4893  0.1888
 5462TIP3   OH238020   1.354   3.653   1.577  0.4853  0.2823  0.4802
 5462TIP3    H138021   1.336   3.560   1.583  1.3501  0.1909  2.1831
 5462TIP3    H238022   1.384   3.678   1.665  1.9853  1.7853 -0.3971
 5463TIP3   OH238023   0.807   6.008   0.501  0.5292  0.5383 -0.1198
 5463TIP3    H138024   0.794   6.086   0.554  1.2259  1.6734 -1.5659
 5463TIP3    H238025   0.779   5.936   0.558  0.8179  1.7304  1.6122
 5464TIP3   OH238026   5.791   4.603   0.313 -0.4191 -0.1795  0.3631
 5464TIP3    H138027   5.825   4.691   0.332 -0.4556 -0.2954  0.9913
 5464TIP3    H238028   5.759   4.609   0.223 -0.3608  0.4314  0.3750
 5465TIP3   OH238029   3.937   5.264   1.784  0.1134 -0.4187 -0.5470
 5465TIP3    H138030   3.858   5.313   1.808 -0.0531 -1.3906  1.0479
 5465TIP3    H238031   4.009   5.319   1.813 -0.0581 -0.7368  0.5184
 5466TIP3   OH238032   5.816   3.056   7.691 -0.6518  1.0312  0.4968
 5466TIP3    H138033   5.776   2.973   7.667 -0.9556  1.1970  0.4263
 5466TIP3    H238034   5.827   3.052   7.786  1.3693  0.0056  0.2717
 5467TIP3   OH238035   1.544   0.669   8.831  0.3584  0.1959 -0.0765
 5467TIP3    H138036   1.560   0.578   8.856  0.3953  0.5426  1.2488
 5467TIP3    H238037   1.474   0.665   8.766 -2.0976 -0.6043  2.4143
 5468TIP3   OH238038   1.622   3.887   0.610  0.3880  0.3910  0.4368
 5468TIP3    H138039   1.596   3.903   0.519 -0.3030 -0.6881  0.4356
 5468TIP3    H238040   1.544   3.904   0.662 -0.3787 -2.6481  0.4525
 5469TIP3   OH238041   5.221   1.949   1.665  0.0311 -0.3746 -0.1465
 5469TIP3    H138042   5.316   1.948   1.655  0.1742  2.6164  0.0888
 5469TIP3    H238043   5.206   1.979   1.755 -1.2289 -2.9547  0.6347
 5470TIP3   OH238044   4.544   2.280   1.731 -0.4132 -0.2820  0.0610
 5470TIP3    H138045   4.560   2.302   1.823 -1.0969 -1.5723  0.5116
 5470TIP3    H238046   4.598   2.202   1.715  0.4244  0.4641 -0.9219
 5471TIP3   OH238047   0.223   4.666   0.020 -0.2016 -0.1204  0.3427
 5471TIP3    H138048   0.172   4.635   0.095  0.2358 -0.7688  0.3905
 5471TIP3    H238049   0.218   4.761   0.025 -1.0714 -0.1744  0.5680
 5472TIP3   OH238050   3.151   4.336   6.895  0.1950 -0.0628  0.4907
 5472TIP3    H138051   3.205   4.378   6.962  0.9234 -1.9778  1.1777
 5472TIP3    H238052   3.136   4.405   6.830  3.2101  0.6882  0.4130
 5473TIP3   OH238053   1.298   2.781   8.663  0.3843 -0.6439  0.2852
 5473TIP3    H138054   1.371   2.820   8.614  1.0753 -1.3124  0.7686
 5473TIP3    H238055   1.304   2.687   8.645 -1.1192 -0.5891 -0.6675
 5474TIP3   OH238056   4.044   5.685   2.358 -0.1070  0.8256 -0.0802
 5474TIP3    H138057   4.005   5.616   2.413 -0.4071  0.0220 -1.2386
 5474TIP3    H238058   4.036   5.650   2.269  1.4202  1.5728 -0.5310
 5475TIP3   OH238059   1.617   3.512   1.057 -0.1868 -0.3695  0.1523
 5475TIP3    H138060   1.542   3.478   1.105 -1.5432  0.0150 -1.6082
 5475TIP3    H238061   1.629   3.601   1.091  0.4164 -0.9067  1.4331
 5476TIP3   OH238062   4.178   1.415   0.691  0.3866 -0.7093 -0.2044
 5476TIP3    H138063   4.193   1.411   0.596  1.7791 -3.0056  0.0442
 5476TIP3    H238064   4.199   1.506   0.714  1.0249 -0.3694 -1.9524
 5477TIP3   OH238065   6.645   2.506   8.627  0.9070  0.0943  0.0787
 5477TIP3    H138066   6.557   2.540   8.643  0.8834  0.2047 -0.2739
 5477TIP3    H238067   6.701   2.584   8.626  0.8462  0.1392 -0.7768
 5478TIP3   OH238068   3.229   4.310   1.962  0.7637 -0.8047  0.1316
 5478TIP3    H138069   3.275   4.228   1.943 -0.2849 -1.3888  0.0442
 5478TIP3    H238070   3.148   4.305   1.910 -0.1717 -0.5430  1.5189
 5479TIP3   OH238071   4.475   2.635   1.022  0.4537  0.6019  0.2032
 5479TIP3    H138072   4.424   2.678   1.091 -0.9997 -0.6645 -0.0113
 5479TIP3    H238073   4.438   2.547   1.017  2.9421 -0.5244  0.2470
 5480TIP3   OH238074   4.457   1.323   1.450  0.1348  0.6816 -0.0667
 5480TIP3    H138075   4.456   1.387   1.522 -2.4472 -0.8629  1.4227
 5480TIP3    H238076   4.389   1.355   1.390 -1.5051 -0.8202  0.9203
 5481TIP3   OH238077   4.084   0.228   0.762  0.2458  0.3549 -0.8253
 5481TIP3    H138078   4.015   0.295   0.768 -0.1327 -0.1219  0.4382
 5481TIP3    H238079   4.051   0.166   0.696 -0.0988  0.6242 -0.9108
 5482TIP3   OH238080   1.665   0.290   8.236 -0.1613 -0.0169 -0.2525
 5482TIP3    H138081   1.683   0.381   8.211 -1.3920  0.4161  0.3325
 5482TIP3    H238082   1.661   0.243   8.153  0.8284  0.3845 -0.5474
 5483TIP3   OH238083   3.284   3.942   0.800  0.0365 -0.1108  0.1182
 5483TIP3    H138084   3.193   3.911   0.804 -0.3986  1.0198 -0.5765
 5483TIP3    H238085   3.321   3.917   0.884 -0.5532 -1.6698 -0.0468
 5484TIP3   OH238086   4.132   5.933   7.622  0.1333 -0.1159  0.5631
 5484TIP3    H138087   4.215   5.977   7.604 -0.8358  2.1305  1.1950
 5484TIP3    H238088   4.095   5.915   7.536  0.6210  0.2222  0.2785
 5485TIP3   OH238089   0.626   0.614   0.995 -0.0837 -0.0820  0.5206
 5485TIP3    H138090   0.676   0.679   1.046 -0.8177 -0.2132  1.4266
 5485TIP3    H238091   0.554   0.589   1.053  0.7231 -2.4409  0.5956
 5486TIP3   OH238092   5.047   0.379   8.154 -0.0849  0.4458 -0.2464
 5486TIP3    H138093   5.112   0.447   8.174 -2.0081  2.4650 -0.5523
 5486TIP3    H238094   4.980   0.423   8.103 -1.1448 -1.8677 -1.0176
 5487TIP3   OH238095   3.868   1.568   8.395 -0.2122 -0.2605  1.0378
 5487TIP3    H138096   3.962   1.585   8.384 -0.0280 -1.0869  1.3254
 5487TIP3    H238097   3.833   1.570   8.306  0.1871 -0.6015  0.8733
 5488TIP3   OH238098   6.401   1.731   1.627  0.4412  0.1940  0.4014
 5488TIP3    H138099   6.356   1.653   1.660  0.3095  0.1979  0.2313
 5488TIP3    H238100   6.417   1.783   1.706 -3.3570  2.0680  0.2012
 5489TIP3   OH238101   0.930   0.103   0.632 -0.0007 -0.1017  0.0750
 5489TIP3    H138102   0.957   0.121   0.722  0.4160 -1.5143  0.2675
 5489TIP3    H238103   0.845   0.060   0.641 -0.7705  1.2784 -0.3309
 5490TIP3   OH238104   3.824   5.956   2.289  0.8287 -0.4799  0.7202
 5490TIP3    H138105   3.858   6.009   2.361  0.8119 -1.0968  1.1972
 5490TIP3    H238106   3.774   5.887   2.333 -1.3659  0.5854  0.0576
 5491TIP3   OH238107   3.208   0.786   8.335  0.3454  0.0146 -0.5995
 5491TIP3    H138108   3.288   0.801   8.285 -0.0982 -0.1816 -1.3806
 5491TIP3    H238109   3.137   0.812   8.276 -0.1252  1.8092  0.6785
 5492TIP3   OH238110   2.155   2.358   8.812 -0.3384 -0.1037  0.1044
 5492TIP3    H138111   2.133   2.449   8.829 -0.5154  0.2774 -1.9061
 5492TIP3    H238112   2.119   2.341   8.725 -0.0884 -2.0269  0.3384
 5493TIP3   OH238113   5.587   5.071   0.651  0.5687 -0.0169  0.5535
 5493TIP3    H138114   5.627   5.157   0.661 -0.0457  0.1942  1.2969
 5493TIP3    H238115   5.535   5.078   0.571  1.7883 -0.2198 -0.2873
 5494TIP3   OH238116   2.165   6.484   0.929 -0.3424 -0.8938 -0.2466
 5494TIP3    H138117   2.259   6.473   0.946  0.0954  0.5340 -1.5214
 5494TIP3    H238118   2.123   6.414   0.979  1.4150 -1.6878  0.1838
 5495TIP3   OH238119   1.273   4.712   8.523  0.1232 -0.1683 -0.3630
 5495TIP3    H138120   1.273   4.666   8.607 -0.2193 -0.1527 -0.3524
 5495TIP3    H238121   1.366   4.720   8.499  0.2000 -0.5035 -0.1684
 5496TIP3   OH238122   3.520   2.173   0.020 -0.2744 -0.1922  0.0313
 5496TIP3    H138123   3.589   2.188  -0.045 -1.9876  2.7963 -1.2719
 5496TIP3    H238124   3.504   2.079   0.015  1.1606 -0.4126 -2.2989
 5497TIP3   OH238125   3.867   0.941   8.321  0.3960  0.2994  0.9331
 5497TIP3    H138126   3.945   0.929   8.375 -1.3191  0.4702  3.6750
 5497TIP3    H238127   3.832   0.852   8.311  0.8367  0.2356 -0.2059
 5498TIP3   OH238128   0.023   3.609   8.264 -0.3993 -0.2944 -0.1812
 5498TIP3    H138129   0.081   3.681   8.240  0.3338 -0.8631 -0.1702
 5498TIP3    H238130   0.082   3.543   8.301 -0.6837 -1.9050 -2.3849
 5499TIP3   OH238131   5.468   5.429   2.437 -0.0508 -0.1866  0.1799
 5499TIP3    H138132   5.437   5.488   2.505 -1.3782 -1.5937  0.8650
 5499TIP3    H238133   5.548   5.389   2.473  0.4787  0.6806 -0.0177
 5500TIP3   OH238134   3.577   2.492   7.690  0.5784 -0.0193 -0.0486
 5500TIP3    H138135   3.667   2.470   7.713  0.9601  1.4458 -0.1049
 5500TIP3    H238136   3.570   2.470   7.597  1.5795  1.9401 -0.6337
 5501TIP3   OH238137   1.719   6.455   0.423 -0.5826 -0.4372  0.1638
 5501TIP3    H138138   1.673   6.517   0.366 -0.9105 -0.5454  0.3123
 5501TIP3    H238139   1.809   6.453   0.388 -0.9507 -1.0355 -0.8025
 5502TIP3   OH238140   0.041   5.152   8.752 -0.6256 -0.2793  0.7193
 5502TIP3    H138141   0.035   5.096   8.675 -0.3756  0.9827 -0.2571
 5502TIP3    H238142   0.006   5.236   8.723  0.7875  0.6359  1.5711
 5503TIP3   OH238143   0.146   5.376   7.499 -0.2726 -0.0534 -0.0495
 5503TIP3    H138144   0.154   5.362   7.593 -2.0314 -3.2527 -0.2603
 5503TIP3    H238145   0.067   5.430   7.489 -0.1747  0.1545  0.2756
 5504TIP3   OH238146   6.380   3.280   0.565  0.2251  0.3631 -0.4329
 5504TIP3    H138147   6.399   3.242   0.479 -1.3403  0.1094 -0.6924
 5504TIP3    H238148   6.465   3.312   0.596  1.1572 -1.1963 -1.2493
 5505TIP3   OH238149   2.997   0.645   0.579 -0.0711 -0.1654  0.1763
 5505TIP3    H138150   2.909   0.680   0.595  0.5542  2.3972 -1.4172
 5505TIP3    H238151   3.056   0.716   0.606  1.4296 -1.0162 -0.7473
 5506TIP3   OH238152   3.749   4.175   8.868  0.2454 -0.7534 -0.7349
 5506TIP3    H138153   3.697   4.208   8.942  0.6558 -1.2092 -0.2303
 5506TIP3    H238154   3.766   4.252   8.814 -1.0916 -0.6182 -1.0062
 5507TIP3   OH238155   5.462   1.007   1.001  0.2862  0.3106  0.1165
 5507TIP3    H138156   5.445   1.087   1.051  0.2384  0.9267 -0.8659
 5507TIP3    H238157   5.505   1.037   0.921 -0.7853 -0.5224 -0.8015
 5508TIP3   OH238158   5.671   1.086   8.221  0.5191 -0.4350 -0.2155
 5508TIP3    H138159   5.685   1.180   8.212 -0.8396 -0.1544  0.2403
 5508TIP3    H238160   5.576   1.075   8.210  0.5041 -1.6032  0.8118
 5509TIP3   OH238161   0.243   5.251   0.292 -0.1930  0.4087 -0.0401
 5509TIP3    H138162   0.200   5.242   0.207 -2.0334  1.0295  0.7743
 5509TIP3    H238163   0.172   5.246   0.356  1.2255 -0.8033  1.5408
 5510TIP3   OH238164   0.670   3.764   0.349  0.0373  0.0810 -0.8298
 5510TIP3    H138165   0.695   3.672   0.364 -1.6915 -0.4762 -1.2359
 5510TIP3    H238166   0.589   3.775   0.398 -0.0438  1.2625 -1.2026
 5511TIP3   OH238167   2.307   4.046   1.446  0.1915  0.9556  0.4226
 5511TIP3    H138168   2.286   3.960   1.409  2.3179  1.3983 -2.1305
 5511TIP3    H238169   2.385   4.031   1.500  1.3602  1.3976 -1.0675
 5512TIP3   OH238170   1.339   6.303   8.893  0.2434 -0.2535 -0.1228
 5512TIP3    H138171   1.396   6.231   8.865  2.4998  1.0774  0.7704
 5512TIP3    H238172   1.350   6.370   8.826  0.1273  0.2150  0.3253
 5513TIP3   OH238173   3.095   4.154   2.408 -0.4667 -0.2837 -0.0061
 5513TIP3    H138174   3.039   4.093   2.455 -1.2827  0.4905  0.0605
 5513TIP3    H238175   3.168   4.170   2.467 -0.8255 -0.3259  0.4558
 5514TIP3   OH238176   1.792   2.031   7.907  0.3366  0.3285 -0.2041
 5514TIP3    H138177   1.811   1.943   7.873 -0.6709  0.2897 -0.7214
 5514TIP3    H238178   1.761   2.080   7.831  1.0194  1.1857  0.0540
 5515TIP3   OH238179   2.183   4.725   1.765 -0.5604 -0.2920 -0.0739
 5515TIP3    H138180   2.191   4.820   1.750 -2.1597 -0.1169  0.0750
 5515TIP3    H238181   2.245   4.708   1.836  1.5543  0.1776 -1.6885
 5516TIP3   OH238182   6.726   6.730   8.868  0.0819 -0.0053 -0.0467
 5516TIP3    H138183   6.711   6.674   8.945 -0.7348  0.5993  0.2411
 5516TIP3    H238184   6.820   6.723   8.852  0.0644 -1.1433  0.2323
 5517TIP3   OH238185   4.241   6.729   2.578  0.4337  0.2717  0.2939
 5517TIP3    H138186   4.150   6.699   2.580  0.7574 -0.7593  2.1309
 5517TIP3    H238187   4.260   6.743   2.485 -1.3361 -0.2940 -0.1925
 5518TIP3   OH238188   2.689   4.761   8.552  0.3603  0.2113 -0.1040
 5518TIP3    H138189   2.638   4.775   8.472  1.1419  1.1722 -0.4454
 5518TIP3    H238190   2.759   4.826   8.549 -1.2585  2.3050  2.8093
 5519TIP3   OH238191   5.126   1.231   7.088 -0.2796  0.2775 -0.4300
 5519TIP3    H138192   5.114   1.253   7.180 -1.4875 -0.1871 -0.4580
 5519TIP3    H238193   5.081   1.147   7.077 -1.2614  0.9317 -1.6977
 5520TIP3   OH238194   4.321   2.841   1.448 -0.0105 -0.3184 -0.1062
 5520TIP3    H138195   4.368   2.766   1.483  0.0424  0.6653  2.0788
 5520TIP3    H238196   4.348   2.914   1.503 -0.1178  1.3207 -2.0975
 5521TIP3   OH238197   6.729   1.893   8.703 -0.6647 -0.1103 -0.4750
 5521TIP3    H138198   6.711   1.984   8.726 -0.5057 -0.3597  0.7383
 5521TIP3    H238199   6.663   1.842   8.751 -1.3662 -0.5957 -1.9021
 5522TIP3   OH238200   2.132   5.676   8.806  0.3957  0.2276  0.1602
 5522TIP3    H138201   2.195   5.663   8.736 -0.3478  2.2631 -0.9720
 5522TIP3    H238202   2.122   5.771   8.813 -1.4332  0.0139  1.3081
 5523TIP3   OH238203   1.593   2.217   7.482 -0.3205 -0.0172 -0.5611
 5523TIP3    H138204   1.615   2.268   7.404 -1.8315  0.1147 -0.9485
 5523TIP3    H238205   1.502   2.241   7.500 -0.7651 -1.8384 -0.1850
 5524TIP3   OH238206   5.552   5.241   7.757  0.2580  0.2675 -0.4076
 5524TIP3    H138207   5.615   5.306   7.787  0.0956 -0.2534  1.1109
 5524TIP3    H238208   5.495   5.289   7.696  1.1378  1.1204 -0.5787
 5525TIP3   OH238209   4.757   0.336   1.128 -0.0282 -0.0254  0.3177
 5525TIP3    H138210   4.794   0.402   1.068  0.1782 -0.6994 -0.3058
 5525TIP3    H238211   4.798   0.254   1.101 -1.2520 -0.6272  0.2672
 5526TIP3   OH238212   0.997   1.931   7.106 -0.0184  0.7275 -0.1743
 5526TIP3    H138213   0.968   1.844   7.135  1.6369  0.1364 -0.1773
 5526TIP3    H238214   0.939   1.992   7.152  1.1479 -0.2343  2.7937
 5527TIP3   OH238215   3.273   2.343   8.143  0.2697  0.3716  0.3768
 5527TIP3    H138216   3.330   2.371   8.071 -0.3780  1.0548  0.1165
 5527TIP3    H238217   3.205   2.410   8.147 -1.1254 -0.9789 -0.0108
 5528TIP3   OH238218   2.791   2.636   7.352  0.5832 -0.4238  0.2246
 5528TIP3    H138219   2.885   2.621   7.359  0.8719  1.5240  1.0545
 5528TIP3    H238220   2.774   2.642   7.258  1.5935  0.8216  0.0999
 5529TIP3   OH238221   4.320   4.813   2.376  0.0527 -0.4141  0.4875
 5529TIP3    H138222   4.249   4.877   2.368  0.0041 -0.3473  1.3187
 5529TIP3    H238223   4.399   4.862   2.352 -0.1896 -0.5257 -0.5688
 5530TIP3   OH238224   0.721   1.092   8.906 -0.1144  0.1705  0.3428
 5530TIP3    H138225   0.761   1.140   8.833 -2.1230  2.0777  0.4019
 5530TIP3    H238226   0.737   1.146   8.983 -0.6438 -0.2816  0.7799
 5531TIP3   OH238227   6.061   4.330   7.520  0.6420  0.0716  0.2240
 5531TIP3    H138228   6.111   4.371   7.450  0.2831  0.4556  0.1890
 5531TIP3    H238229   6.125   4.314   7.590  0.7699  0.7837  0.2776
 5532TIP3   OH238230   5.947   5.817   2.959  0.1726  0.5181 -0.1203
 5532TIP3    H138231   5.922   5.886   3.021 -0.2157  0.2679  0.0049
 5532TIP3    H238232   6.026   5.851   2.916 -1.2423  2.0536 -1.6847
 5533TIP3   OH238233   5.579   2.226   7.483 -0.0420 -0.0013  0.1228
 5533TIP3    H138234   5.625   2.281   7.420 -1.0251  2.8430  1.6825
 5533TIP3    H238235   5.634   2.149   7.493  2.7569  1.7885 -0.4303
 5534TIP3   OH238236   0.255   4.928   0.957  0.1275 -0.3763 -0.0713
 5534TIP3    H138237   0.303   4.999   0.914  0.3488 -0.2178  0.4372
 5534TIP3    H238238   0.298   4.918   1.042  0.0457 -1.0599 -0.1021
 5535TIP3   OH238239   2.022   4.161   7.108  0.0361 -0.5165  0.9058
 5535TIP3    H138240   1.933   4.129   7.125 -0.1918 -1.6383 -1.9392
 5535TIP3    H238241   2.078   4.086   7.128  0.2453 -0.2204  1.4536
 5536TIP3   OH238242   2.149   3.267   2.922 -0.0688  0.3114 -0.4014
 5536TIP3    H138243   2.126   3.228   2.838 -0.4279 -1.2024  0.3571
 5536TIP3    H238244   2.094   3.221   2.985  1.1003  0.5236  0.8083
 5537TIP3   OH238245   4.123   3.492   0.097 -0.0282 -0.3957  0.2062
 5537TIP3    H138246   4.093   3.461   0.182  0.3830  0.0317  0.5152
 5537TIP3    H238247   4.048   3.541   0.062 -1.1683 -2.7920 -0.8850
 5538TIP3   OH238248   3.964   3.222   8.541 -0.2897  0.5096 -0.2387
 5538TIP3    H138249   3.998   3.158   8.604  0.5580  0.2745 -0.9215
 5538TIP3    H238250   4.013   3.302   8.560 -0.6149  0.6712 -0.0706
 5539TIP3   OH238251   5.545   4.827   0.456  0.1750 -0.3747  0.4181
 5539TIP3    H138252   5.498   4.911   0.452 -0.0010 -0.4641 -3.6351
 5539TIP3    H238253   5.476   4.761   0.451  0.3087 -0.8764  3.6772
 5540TIP3   OH238254   6.094   4.727   8.857 -0.3094  0.1732 -0.0762
 5540TIP3    H138255   6.029   4.729   8.786  0.0213  0.4189 -0.3734
 5540TIP3    H238256   6.177   4.707   8.813 -0.1823 -0.1214  0.3013
 5541TIP3   OH238257   4.835   1.439   6.534 -0.1997 -0.2549  0.2521
 5541TIP3    H138258   4.740   1.425   6.529 -0.2584  0.3549 -0.4857
 5541TIP3    H238259   4.845   1.518   6.587 -0.1645  0.2679 -0.5144
 5542TIP3   OH238260   6.052   2.910   0.393 -0.0059  0.2379  0.3276
 5542TIP3    H138261   6.054   3.006   0.392  1.3885  0.2190 -0.2760
 5542TIP3    H238262   6.070   2.887   0.483 -1.7997  0.5334  0.8055
 5543TIP3   OH238263   1.548   2.010   1.121 -0.6335 -0.1125 -0.0865
 5543TIP3    H138264   1.516   2.032   1.034  1.3738 -0.2418 -0.8930
 5543TIP3    H238265   1.629   1.962   1.106 -0.0700  0.1402  1.8547
 5544TIP3   OH238266   3.063   2.842   3.024 -0.5765  0.8284  0.6010
 5544TIP3    H138267   3.105   2.897   2.958 -0.1373 -0.9302 -0.6694
 5544TIP3    H238268   2.973   2.874   3.029 -0.2109  1.9559  0.2633
 5545TIP3   OH238269   2.540   6.633   0.316  0.0314 -0.2255 -0.1771
 5545TIP3    H138270   2.527   6.704   0.252 -0.9986 -0.7272 -0.5476
 5545TIP3    H238271   2.517   6.553   0.268  0.7972 -0.7817  0.3558
 5546TIP3   OH238272   1.057   2.858   1.373  0.1140 -0.5835  0.3320
 5546TIP3    H138273   1.065   2.792   1.442 -1.7049 -1.3608 -0.1387
 5546TIP3    H238274   0.974   2.837   1.330  0.5944  0.6630 -1.2799
 5547TIP3   OH238275   6.174   2.841   0.631 -0.3910  0.3591 -0.2179
 5547TIP3    H138276   6.168   2.804   0.718 -1.6637 -1.3460 -0.9874
 5547TIP3    H238277   6.260   2.883   0.629 -0.0606 -0.1568  1.6172
 5548TIP3   OH238278   1.903   2.548   2.810 -0.3661  0.4129 -0.0611
 5548TIP3    H138279   1.810   2.540   2.829 -0.3549  1.3343  0.4289
 5548TIP3    H238280   1.935   2.457   2.806 -0.9899  0.1096  1.2571
 5549TIP3   OH238281   0.054   6.574   2.903 -0.3713  0.1197 -0.9469
 5549TIP3    H138282  -0.017   6.518   2.872 -1.5108  0.5495  0.7075
 5549TIP3    H238283   0.134   6.525   2.885 -1.0370 -0.2811 -3.0964
 5550TIP3   OH238284   0.360   6.709   1.944 -0.3782  0.3636 -0.0560
 5550TIP3    H138285   0.312   6.655   2.008 -0.1757 -0.6395 -0.7220
 5550TIP3    H238286   0.443   6.729   1.987  0.3659 -1.5145 -0.4860
 5551TIP3   OH238287   5.574   0.527   8.778 -0.3603  0.0341  0.1738
 5551TIP3    H138288   5.571   0.432   8.788  0.9704 -0.0131  0.3853
 5551TIP3    H238289   5.608   0.541   8.690 -0.0807  0.3081  0.3246
 5552TIP3   OH238290   4.085   6.072   7.860 -0.0824  0.3537  0.9910
 5552TIP3    H138291   4.101   6.039   7.771 -0.4088  0.1799  0.9965
 5552TIP3    H238292   4.171   6.104   7.889  0.1308 -0.0265  0.7922
 5553TIP3   OH238293   1.082   6.060   7.930 -0.3551 -0.5059 -0.2969
 5553TIP3    H138294   1.070   6.025   8.018 -2.2702  0.4273 -0.1199
 5553TIP3    H238295   0.995   6.092   7.905 -0.2329 -2.0947 -3.1504
 5554TIP3   OH238296   0.454   3.103   0.550 -0.5042 -0.2815  0.4548
 5554TIP3    H138297   0.478   3.180   0.601  0.7683 -1.1392  1.1968
 5554TIP3    H238298   0.362   3.117   0.527 -0.3871  1.3002  0.8319
 5555TIP3   OH238299   5.508   1.198   8.531  0.2072 -0.4871 -0.1449
 5555TIP3    H138300   5.592   1.153   8.524 -0.6634 -2.2287  0.0734
 5555TIP3    H238301   5.527   1.276   8.583  1.8343 -0.4103 -0.7931
 5556TIP3   OH238302   1.034   2.749   8.160 -0.2476 -0.1076  0.1292
 5556TIP3    H138303   1.000   2.750   8.249 -1.3904 -1.9296 -0.2332
 5556TIP3    H238304   1.087   2.828   8.154 -0.2528  0.1376  2.3677
 5557TIP3   OH238305   4.892   0.939   8.553  0.2717 -0.3730  0.0770
 5557TIP3    H138306   4.984   0.910   8.557  0.1957 -0.6329  0.0039
 5557TIP3    H238307   4.842   0.857   8.556  0.0666 -0.2959 -0.8332
 5558TIP3   OH238308   0.356   5.476   0.994  0.3895 -0.2306  0.0440
 5558TIP3    H138309   0.407   5.557   0.990 -0.9236  0.5873 -0.8419
 5558TIP3    H238310   0.332   5.467   1.086  1.2421 -0.0678  0.2864
 5559TIP3   OH238311   0.893   5.975   1.522 -0.2134 -0.1636 -0.4458
 5559TIP3    H138312   0.806   5.958   1.558  0.3737 -1.6483  0.3382
 5559TIP3    H238313   0.878   6.040   1.453 -2.2416 -2.0228 -1.8751
 5560TIP3   OH238314   5.452   2.140   0.339 -0.8726 -0.2551 -0.1143
 5560TIP3    H138315   5.367   2.127   0.381 -1.0777  0.4390 -0.3022
 5560TIP3    H238316   5.507   2.180   0.406 -0.2054 -2.1150  0.5016
 5561TIP3   OH238317   0.521   3.671   2.243 -0.2661 -0.0456 -0.1326
 5561TIP3    H138318   0.468   3.658   2.322  0.5317 -1.2078  0.2377
 5561TIP3    H238319   0.511   3.589   2.194  1.3226 -0.3929  0.0586
 5562TIP3   OH238320   1.762   0.800   7.237 -0.6815 -0.3150  0.5289
 5562TIP3    H138321   1.704   0.790   7.162 -1.8073  0.9819  1.1707
 5562TIP3    H238322   1.741   0.727   7.295 -0.7689 -0.5705  0.1715
 5563TIP3   OH238323   2.092   4.666   7.698 -0.7875  0.6334 -0.2910
 5563TIP3    H138324   2.070   4.593   7.757 -3.3405  1.7013  0.1886
 5563TIP3    H238325   2.129   4.623   7.620 -0.4356 -1.0188  0.7239
 5564TIP3   OH238326   5.023   4.420   1.369 -0.2518  0.4578 -0.0662
 5564TIP3    H138327   4.948   4.459   1.413 -0.6383 -1.0097  0.6204
 5564TIP3    H238328   5.088   4.409   1.438 -0.1413 -0.0738 -0.2504
 5565TIP3   OH238329   1.133   5.846   8.144 -0.8585  0.1516 -0.6630
 5565TIP3    H138330   1.059   5.787   8.159  0.9573 -2.1791 -0.2885
 5565TIP3    H238331   1.171   5.816   8.062  0.3650  0.4753 -0.2329
 5566TIP3   OH238332   4.674   3.630   1.683  0.6124 -0.2929  0.2791
 5566TIP3    H138333   4.709   3.635   1.595  0.3908 -0.8101  0.1578
 5566TIP3    H238334   4.633   3.715   1.698  0.1891 -0.3944 -0.3095
 5567TIP3   OH238335   3.926   6.469   8.330  0.3286 -0.0615 -0.3996
 5567TIP3    H138336   3.841   6.450   8.370  1.0458 -0.5978  0.9358
 5567TIP3    H238337   3.952   6.387   8.289  0.5887 -0.1502 -0.0593
 5568TIP3   OH238338   3.636   4.595   7.986 -0.7740 -0.1471 -0.3024
 5568TIP3    H138339   3.589   4.672   8.019 -0.9746 -0.3834 -0.0333
 5568TIP3    H238340   3.599   4.521   8.034  1.9964 -0.0548  2.2418
 5569TIP3   OH238341   4.607   6.692   0.649 -0.0712 -0.6392  0.3965
 5569TIP3    H138342   4.535   6.752   0.635 -1.9632 -2.5193  1.4651
 5569TIP3    H238343   4.627   6.698   0.742  1.4526  0.1286  0.0514
 5570TIP3   OH238344   0.006   6.361   1.535  0.4734 -0.2713 -0.0647
 5570TIP3    H138345   0.083   6.362   1.479 -0.5226  0.4363 -1.4867
 5570TIP3    H238346   0.009   6.276   1.579  0.1993 -1.8723 -2.8426
 5571TIP3   OH238347   3.122   5.117   0.280  0.3927  0.2131  0.1188
 5571TIP3    H138348   3.043   5.070   0.255  1.0992  0.3435 -2.7026
 5571TIP3    H238349   3.155   5.070   0.356 -1.6816 -0.6129  0.5762
 5572TIP3   OH238350   5.413   3.060   7.662 -0.6036 -0.3276 -0.5384
 5572TIP3    H138351   5.325   3.093   7.644  1.0893  3.9203 -2.4426
 5572TIP3    H238352   5.448   3.037   7.576  0.0656 -2.5714  0.2517
 5573TIP3   OH238353   5.758   3.406   1.774 -0.1125 -0.6637  0.7257
 5573TIP3    H138354   5.756   3.421   1.679 -0.8335  1.9124  1.0796
 5573TIP3    H238355   5.734   3.314   1.784 -0.5320 -0.8550 -1.5731
 5574TIP3   OH238356   4.987   4.291   1.658  0.3399  0.3013 -0.0019
 5574TIP3    H138357   5.019   4.373   1.697  1.1147 -0.3894  0.8809
 5574TIP3    H238358   5.046   4.224   1.693 -0.4520 -0.6718 -0.4863
 5575TIP3   OH238359   0.586   3.140   8.134 -0.1414 -0.4270 -0.3966
 5575TIP3    H138360   0.588   3.194   8.214  0.1171  1.5144 -1.6453
 5575TIP3    H238361   0.649   3.070   8.151  1.3980  1.0633  0.3877
 5576TIP3   OH238362   6.040   5.562   1.897 -0.4272  0.2197  0.3969
 5576TIP3    H138363   5.960   5.613   1.907 -0.4060  0.2791  0.2647
 5576TIP3    H238364   6.108   5.615   1.939 -0.3864  0.3474  0.1733
 5577TIP3   OH238365   6.772   1.179   7.481 -0.3484 -0.2115 -0.6404
 5577TIP3    H138366   6.779   1.134   7.565  1.3665  1.1613  0.0222
 5577TIP3    H238367   6.748   1.110   7.418  3.0173 -2.3193  0.1478
 5578TIP3   OH238368   0.520   4.161   8.597 -0.0961  0.4448  0.2125
 5578TIP3    H138369   0.483   4.230   8.651 -0.7483  0.1403  0.1687
 5578TIP3    H238370   0.444   4.110   8.568  0.2719  0.4164 -0.7310
 5579TIP3   OH238371   0.284   5.294   1.885 -0.0671  0.3845 -0.6476
 5579TIP3    H138372   0.333   5.319   1.807 -1.7637  0.0304 -1.8831
 5579TIP3    H238373   0.193   5.289   1.856 -0.6579 -0.4725  1.1852
 5580TIP3   OH238374   4.300   1.504   1.882  0.0881  0.2847 -0.2631
 5580TIP3    H138375   4.351   1.541   1.954  0.0013  2.0275 -1.0280
 5580TIP3    H238376   4.271   1.581   1.832 -3.0403 -0.6143 -0.0310
 5581TIP3   OH238377   2.465   1.398   7.695 -0.0720 -0.6531  0.5420
 5581TIP3    H138378   2.383   1.351   7.710 -0.1623 -1.0671 -1.0872
 5581TIP3    H238379   2.501   1.359   7.615  0.9416  0.5641  0.3755
 5582TIP3   OH238380   5.417   4.072   0.708  0.0883 -0.0919 -0.2958
 5582TIP3    H138381   5.378   3.995   0.665 -2.0471  0.3784  0.6476
 5582TIP3    H238382   5.470   4.035   0.779  0.7348 -0.7361 -1.0883
 5583TIP3   OH238383   1.076   0.922   1.071 -0.0718  0.1094 -0.1418
 5583TIP3    H138384   1.071   0.991   1.137  1.2544  1.0995 -1.0386
 5583TIP3    H238385   1.033   0.959   0.994  1.0568  0.1334 -0.7811
 5584TIP3   OH238386   2.382   1.939   7.243 -0.3911  0.0388  0.8734
 5584TIP3    H138387   2.452   1.976   7.190 -0.9384  0.4258  0.4049
 5584TIP3    H238388   2.305   1.992   7.221 -0.6157  0.2814  2.1151
 5585TIP3   OH238389   3.265   6.158   0.856  0.2668  0.1688  0.3681
 5585TIP3    H138390   3.239   6.177   0.766  1.1311 -0.3646 -0.0063
 5585TIP3    H238391   3.231   6.070   0.873  0.2313  0.2096  0.5153
 5586TIP3   OH238392   5.653   1.085   1.706  0.0890  0.4007  0.1371
 5586TIP3    H138393   5.583   1.146   1.728 -0.3664  0.0549 -0.3207
 5586TIP3    H238394   5.610   1.017   1.654  0.9597  0.7642 -1.0951
 5587TIP3   OH238395   0.478   5.630   3.007 -0.4640  0.8623  0.1408
 5587TIP3    H138396   0.556   5.674   2.976  0.5437 -0.8332  0.1404
 5587TIP3    H238397   0.463   5.667   3.094 -0.0744  1.6826 -0.1294
 5588TIP3   OH238398   3.208   6.431   7.486 -0.2161  0.0271 -0.1380
 5588TIP3    H138399   3.302   6.431   7.465 -0.5242  2.0284 -1.8761
 5588TIP3    H238400   3.177   6.345   7.456  1.0496 -0.7321  0.6137
 5589TIP3   OH238401   5.969   4.757   2.372 -0.3625 -0.3718  0.3621
 5589TIP3    H138402   5.898   4.727   2.315 -0.4822  0.5659  0.0035
 5589TIP3    H238403   5.925   4.797   2.447 -0.2424  0.9596 -0.2544
 5590TIP3   OH238404   3.013   5.243   7.579 -0.0594 -0.7328  0.3808
 5590TIP3    H138405   3.045   5.207   7.496  1.0768  1.3745 -0.1584
 5590TIP3    H238406   2.992   5.334   7.559 -0.9617 -0.5183  2.1398
 5591TIP3   OH238407   3.772   4.955   8.614 -0.7865  0.5366  0.0651
 5591TIP3    H138408   3.851   4.987   8.572 -0.0683 -0.2873  0.7505
 5591TIP3    H238409   3.736   5.032   8.658 -1.3883  1.3438 -1.7328
 5592TIP3   OH238410   2.169   0.473   0.522 -0.1594 -0.1494 -0.0343
 5592TIP3    H138411   2.233   0.463   0.592 -0.4273  0.6433  0.3372
 5592TIP3    H238412   2.089   0.431   0.556  0.1709 -1.2070 -0.5286
 5593TIP3   OH238413   0.776   2.516   8.704 -0.1016 -0.2938  0.4052
 5593TIP3    H138414   0.768   2.449   8.637  0.7083 -2.5460  2.4096
 5593TIP3    H238415   0.745   2.596   8.662  0.2089 -1.5961 -2.5483
 5594TIP3   OH238416   3.466   0.017   1.625  0.1198 -0.4330 -0.1245
 5594TIP3    H138417   3.395  -0.020   1.678  0.5034  0.8055  1.3466
 5594TIP3    H238418   3.467   0.110   1.648 -0.0595  0.3255 -2.7960
 5595TIP3   OH238419   1.888   4.850   7.868  0.2234 -0.1160 -0.0866
 5595TIP3    H138420   1.909   4.762   7.899  0.0463  0.2320  1.0552
 5595TIP3    H238421   1.934   4.908   7.928 -1.2538  0.6010  0.3712
 5596TIP3   OH238422   4.545   5.111   0.571 -0.3495  0.3520 -0.3697
 5596TIP3    H138423   4.510   5.079   0.653 -0.4263  0.2828 -0.4292
 5596TIP3    H238424   4.582   5.196   0.592  3.3479 -1.3310  0.6576
 5597TIP3   OH238425   5.866   1.202   7.624 -0.4850 -0.4522 -0.6057
 5597TIP3    H138426   5.849   1.168   7.712  1.1023 -2.1019 -0.8832
 5597TIP3    H238427   5.935   1.146   7.590  0.0116  1.1307 -2.3405
 5598TIP3   OH238428   2.026   6.319   7.999  0.0855  0.1542  0.1598
 5598TIP3    H138429   2.049   6.312   7.907  1.6741  3.6710  0.1603
 5598TIP3    H238430   1.970   6.243   8.015  2.5102 -2.5416 -2.7736
 5599TIP3   OH238431   3.091   1.512   2.445 -0.6510  0.0316  0.4806
 5599TIP3    H138432   3.068   1.586   2.389 -2.4432 -0.8000  0.0643
 5599TIP3    H238433   3.012   1.494   2.495  1.0190  1.1283  3.8349
 5600TIP3   OH238434   3.760   0.198   0.701  0.1682 -0.0529  0.2863
 5600TIP3    H138435   3.794   0.226   0.785  1.8400 -0.3216 -0.2668
 5600TIP3    H238436   3.761   0.276   0.646 -1.4931  0.2656  0.6520
 5601TIP3   OH238437   6.702   0.976   2.312  0.2816 -0.0768 -0.4195
 5601TIP3    H138438   6.795   0.993   2.327  0.1237  0.1969  0.3193
 5601TIP3    H238439   6.661   1.063   2.316 -0.0727 -0.2501 -0.2124
 5602TIP3   OH238440   4.592   2.108   0.375  0.1564  0.3212  0.3730
 5602TIP3    H138441   4.514   2.148   0.336  0.1317 -0.1153 -0.0376
 5602TIP3    H238442   4.665   2.159   0.340  0.1340 -0.0700 -0.2557
 5603TIP3   OH238443   5.731   3.284   2.965  0.1940 -0.1805 -0.3424
 5603TIP3    H138444   5.698   3.254   3.050  2.2872  0.6438  0.8202
 5603TIP3    H238445   5.759   3.204   2.921 -0.5975 -0.5781 -0.1551
 5604TIP3   OH238446   5.893   6.103   1.262 -0.2687 -0.1420 -0.0477
 5604TIP3    H138447   5.836   6.049   1.317 -0.0683 -0.9626 -0.6233
 5604TIP3    H238448   5.961   6.135   1.322 -0.0246 -1.0636  0.1937
 5605TIP3   OH238449   4.598   0.991   1.167 -0.3308 -0.0305 -0.5252
 5605TIP3    H138450   4.664   0.935   1.209 -0.7162 -0.1891 -0.1166
 5605TIP3    H238451   4.518   0.974   1.217  0.0027  2.4838  0.9957
 5606TIP3   OH238452   4.007   5.473   2.530  0.0243  0.2410  0.2122
 5606TIP3    H138453   3.926   5.452   2.575  1.0060 -1.0402  1.4863
 5606TIP3    H238454   4.040   5.389   2.498  0.5828  0.8080 -0.7878
 5607TIP3   OH238455   6.530   4.293   0.844 -0.0638  0.3223 -0.0200
 5607TIP3    H138456   6.521   4.380   0.806 -1.5234  0.7304  1.2048
 5607TIP3    H238457   6.481   4.296   0.926  1.9681 -0.9029  1.3333
 5608TIP3   OH238458   6.622   2.554   6.677  0.3711 -0.3532  0.2033
 5608TIP3    H138459   6.651   2.523   6.763  2.6346  1.0192  0.0200
 5608TIP3    H238460   6.547   2.499   6.656 -0.3713 -0.6334  3.1231
 5609TIP3   OH238461   2.734   2.326   7.515 -0.3627  0.4463  0.0227
 5609TIP3    H138462   2.711   2.409   7.557  0.2793  0.4515  0.3826
 5609TIP3    H238463   2.668   2.314   7.446 -1.1039  0.7100  0.6786
 5610TIP3   OH238464   0.875   6.515   8.772  0.6470  0.3521  0.0205
 5610TIP3    H138465   0.822   6.467   8.708  0.8087  0.1532  0.0334
 5610TIP3    H238466   0.937   6.450   8.806  0.9161  0.5844 -0.0142
 5611TIP3   OH238467   4.662   6.679   8.351  0.3980 -0.8233 -0.4712
 5611TIP3    H138468   4.572   6.653   8.373  0.4377 -1.1737 -0.7095
 5611TIP3    H238469   4.680   6.634   8.269  1.2429 -1.8185  0.2276
 5612TIP3   OH238470   5.980   6.102   7.622  0.0787 -0.2399  0.0544
 5612TIP3    H138471   5.984   6.111   7.717 -0.1978  0.9353 -0.0204
 5612TIP3    H238472   6.071   6.089   7.595  0.1596 -0.5587  0.4737
 5613TIP3   OH238473   1.742   3.891   7.987  0.1153  0.4521  0.0818
 5613TIP3    H138474   1.705   3.912   8.073 -0.9478  1.4083 -0.5884
 5613TIP3    H238475   1.753   3.975   7.944  0.6004 -0.0212 -0.7476
 5614TIP3   OH238476   5.868   4.822   2.643 -0.4840 -0.0598  0.3207
 5614TIP3    H138477   5.791   4.839   2.697  0.1263  1.7901  0.6608
 5614TIP3    H238478   5.897   4.908   2.613  0.5529 -0.8385 -1.0902
 5615TIP3   OH238479   5.879   5.865   0.340  0.7168 -0.9605  0.3280
 5615TIP3    H138480   5.957   5.883   0.288  0.7177 -1.3217  0.1974
 5615TIP3    H238481   5.842   5.786   0.301 -0.9549  0.4199 -1.0405
 5616TIP3   OH238482   1.848   5.710   1.874 -0.0017 -0.0672 -0.0435
 5616TIP3    H138483   1.765   5.684   1.912  0.8974 -1.1695  1.2618
 5616TIP3    H238484   1.838   5.804   1.855 -1.3738 -0.0905  0.4863
 5617TIP3   OH238485   4.078   5.724   1.621  0.2870 -0.6697  0.3316
 5617TIP3    H138486   4.023   5.735   1.699  1.0589  1.2658  0.6586
 5617TIP3    H238487   4.046   5.644   1.580 -1.2790 -0.8012  1.7199
 5618TIP3   OH238488   0.157   5.290   8.267 -0.1560 -0.5382 -0.1290
 5618TIP3    H138489   0.146   5.291   8.172  1.3632  0.7112 -0.3275
 5618TIP3    H238490   0.241   5.333   8.282 -1.2379  1.0633  1.8721
 5619TIP3   OH238491   0.054   6.559   1.867  0.1899  0.5690 -0.2708
 5619TIP3    H138492   0.024   6.647   1.845  3.0104  1.9446  0.8368
 5619TIP3    H238493   0.137   6.549   1.820  0.5149 -1.0123  0.5585
 5620TIP3   OH238494   5.884   3.827   1.023  0.5450  0.3167 -0.4541
 5620TIP3    H138495   5.817   3.861   1.083  0.9430  0.9864 -0.3722
 5620TIP3    H238496   5.956   3.800   1.080 -0.2084 -1.7925 -0.4295
 5621TIP3   OH238497   2.590   1.574   1.071  0.0536 -0.1279  0.2509
 5621TIP3    H138498   2.557   1.664   1.078 -1.7709 -0.7856  0.7708
 5621TIP3    H238499   2.583   1.539   1.160  1.0271 -0.7017  0.1068
 5622TIP3   OH238500   2.749   3.410   1.439 -0.4527 -0.3405  0.6912
 5622TIP3    H138501   2.816   3.342   1.448 -0.1159 -0.0839  0.1650
 5622TIP3    H238502   2.669   3.362   1.417  0.0126 -0.5077 -0.7382
 5623TIP3   OH238503   5.310   1.851   1.959  0.0561  0.0257  0.1463
 5623TIP3    H138504   5.287   1.835   2.051 -0.7370  2.7145  0.5080
 5623TIP3    H238505   5.244   1.914   1.930  1.3682  0.5708 -1.7546
 5624TIP3   OH238506   4.941   6.128   7.445 -0.2859 -0.2105  0.4886
 5624TIP3    H138507   4.964   6.054   7.501 -0.1285  0.6221  1.5566
 5624TIP3    H238508   4.851   6.150   7.470 -0.3231 -0.0208  0.1958
 5625TIP3   OH238509   0.375   5.409   1.613  0.3182  0.7793 -0.8966
 5625TIP3    H138510   0.428   5.440   1.540  0.9437  0.4606 -0.5889
 5625TIP3    H238511   0.340   5.325   1.583 -1.5659  1.8356 -1.8192
 5626TIP3   OH238512   6.047   3.111   8.863 -0.7909 -0.6261  0.0500
 5626TIP3    H138513   5.977   3.081   8.806  0.3651 -0.1666 -1.6911
 5626TIP3    H238514   6.003   3.146   8.941 -2.5031  0.2818 -1.2847
 5627TIP3   OH238515   5.542   5.669   3.202  0.9261  0.2284  0.7818
 5627TIP3    H138516   5.586   5.601   3.254  0.5665 -1.9618 -1.5522
 5627TIP3    H238517   5.576   5.656   3.113 -0.2962  2.1790 -0.0329
 5628TIP3   OH238518   6.160   3.559   8.157 -0.0813  0.1245 -0.4604
 5628TIP3    H138519   6.080   3.526   8.198 -0.1777 -0.3985 -1.0537
 5628TIP3    H238520   6.132   3.585   8.069  0.9552 -2.9371 -1.8163
 5629TIP3   OH238521   1.961   0.946   1.367  0.1506  0.5930 -0.1244
 5629TIP3    H138522   1.899   0.884   1.405  1.2862  0.2398  1.2165
 5629TIP3    H238523   2.035   0.893   1.339  1.0483  1.2834  0.8558
 5630TIP3   OH238524   1.914   0.427   0.603  0.3326  0.2736 -0.3332
 5630TIP3    H138525   1.846   0.493   0.620 -0.2603 -0.6462  1.0510
 5630TIP3    H238526   1.898   0.359   0.668  0.4226 -1.6482 -2.1850
 5631TIP3   OH238527   4.496   3.575   8.932 -0.1472 -0.2052  0.0940
 5631TIP3    H138528   4.433   3.510   8.965 -1.0866 -0.2039 -1.5812
 5631TIP3    H238529   4.462   3.659   8.963  0.2911 -0.3683  1.0677
 5632TIP3   OH238530   3.397   2.878   7.149 -0.0174  0.2461 -0.3512
 5632TIP3    H138531   3.378   2.809   7.085  0.4038  0.6635 -0.9320
 5632TIP3    H238532   3.343   2.952   7.121  0.4331  0.5465 -0.4296
 5633TIP3   OH238533   3.523   2.785   0.342  0.3725  0.4797 -0.0748
 5633TIP3    H138534   3.524   2.696   0.307  1.5743 -0.2880  1.8119
 5633TIP3    H238535   3.472   2.835   0.278 -0.1682 -1.5063 -1.2656
 5634TIP3   OH238536   3.942   5.863   7.977  0.2578  0.0981  0.2272
 5634TIP3    H138537   3.981   5.949   7.960  1.8381 -0.8183 -1.0206
 5634TIP3    H238538   4.011   5.800   7.956 -1.4808 -1.5656 -0.8886
 5635TIP3   OH238539   2.100   6.049   1.446  0.1035 -0.0498 -0.4084
 5635TIP3    H138540   2.092   6.019   1.537 -0.3264 -1.5784 -0.9188
 5635TIP3    H238541   2.153   5.982   1.403  0.5498  0.8057 -1.2277
 5636TIP3   OH238542   6.458   2.998   0.970 -0.1504  0.5550 -0.7768
 5636TIP3    H138543   6.515   2.953   0.908 -1.0062 -0.4093 -0.9021
 5636TIP3    H238544   6.396   3.046   0.916  0.2389  1.2038 -0.6479
 5637TIP3   OH238545   3.399   3.908   1.738  0.5923  0.0584 -0.4075
 5637TIP3    H138546   3.372   3.916   1.646 -0.6810 -0.3014 -0.0928
 5637TIP3    H238547   3.491   3.882   1.734  0.2733 -1.0103 -1.6052
 5638TIP3   OH238548   5.921   2.598   0.383 -0.2172 -0.4130  0.5304
 5638TIP3    H138549   5.978   2.524   0.403  0.0110 -0.3527  0.1079
 5638TIP3    H238550   5.980   2.664   0.347 -0.5980 -0.4512 -0.1655
 5639TIP3   OH238551   5.231   0.320   8.754  0.0248  0.0597  0.4625
 5639TIP3    H138552   5.245   0.342   8.662 -0.0511 -0.2343  0.3779
 5639TIP3    H238553   5.174   0.388   8.787 -0.7753 -0.3814  0.0237
 5640TIP3   OH238554   6.178   1.445   2.243 -0.4792  0.3517  0.2797
 5640TIP3    H138555   6.222   1.471   2.324 -0.0500  1.5330 -0.3116
 5640TIP3    H238556   6.162   1.527   2.196 -1.5167 -0.2310 -0.4449
 5641TIP3   OH238557   4.870   0.425   7.664 -0.8498  0.4658 -0.1549
 5641TIP3    H138558   4.951   0.443   7.618  0.8998  1.5144  3.0332
 5641TIP3    H238559   4.873   0.331   7.682 -0.4737  0.4484 -0.3010
 5642TIP3   OH238560   6.693   6.569   0.183 -0.2220 -0.3237  0.3183
 5642TIP3    H138561   6.635   6.625   0.235  1.3160 -0.3283  2.1258
 5642TIP3    H238562   6.761   6.541   0.244 -0.6825 -3.9087 -0.6000
 5643TIP3   OH238563   0.226   5.607   0.762  0.1262  0.4135  0.4380
 5643TIP3    H138564   0.307   5.647   0.732 -0.1564  0.6101 -0.0778
 5643TIP3    H238565   0.254   5.540   0.824  0.7771 -0.3712 -0.6641
 5644TIP3   OH238566   1.699   1.661   0.794 -0.1765 -0.3238 -0.0549
 5644TIP3    H138567   1.771   1.603   0.818 -0.5740 -1.2957 -1.1056
 5644TIP3    H238568   1.627   1.634   0.851 -0.8031 -1.9111 -1.5258
 5645TIP3   OH238569   6.352   4.954   2.242  0.0413  0.1808  0.6940
 5645TIP3    H138570   6.416   5.019   2.213  0.5614 -0.6336 -0.0497
 5645TIP3    H238571   6.321   4.986   2.326  0.3023  1.3737  0.3563
 5646TIP3   OH238572   5.860   6.396   7.942 -0.1069 -0.2276  0.0983
 5646TIP3    H138573   5.886   6.323   7.886 -2.8103  0.0195 -1.6396
 5646TIP3    H238574   5.784   6.363   7.989  0.9523  0.2469  2.2870
 5647TIP3   OH238575   0.474   4.325   7.465  0.4245  0.0152 -0.1117
 5647TIP3    H138576   0.451   4.337   7.557  2.3046 -4.0417  1.1022
 5647TIP3    H238577   0.552   4.380   7.453 -0.0529  0.8675  0.5729
 5648TIP3   OH238578   5.810   6.302   8.435  0.2204  0.4095 -0.1520
 5648TIP3    H138579   5.862   6.345   8.368  1.9390  0.5972  1.2262
 5648TIP3    H238580   5.792   6.371   8.499  0.0743 -0.1300  0.3996
 5649TIP3   OH238581   2.780   0.362   1.196 -0.3656  0.7982  0.0841
 5649TIP3    H138582   2.733   0.397   1.272  0.3369 -0.4136  1.1193
 5649TIP3    H238583   2.739   0.404   1.121 -2.2548  0.7229  1.0121
 5650TIP3   OH238584   3.442   1.896   7.818  0.3047 -0.4975  0.0749
 5650TIP3    H138585   3.354   1.913   7.850 -0.2020 -0.2784 -1.3706
 5650TIP3    H238586   3.456   1.803   7.834 -0.8696 -0.9227 -1.2405
 5651TIP3   OH238587   4.937   2.782   1.800  0.1696 -0.2272 -0.3543
 5651TIP3    H138588   4.913   2.842   1.870  1.9530  0.0382  0.0877
 5651TIP3    H238589   5.019   2.817   1.765 -0.1795 -0.8788 -1.9526
 5652TIP3   OH238590   3.237   4.025   2.188 -0.2803  0.2694  0.4848
 5652TIP3    H138591   3.186   4.064   2.260  0.2413  1.9011  0.0229
 5652TIP3    H238592   3.313   4.082   2.180  0.7100 -1.0852 -0.0401
 5653TIP3   OH238593   2.092   1.739   1.387  0.1648  0.2760  0.1553
 5653TIP3    H138594   2.088   1.680   1.462  0.3213  0.4320  0.2864
 5653TIP3    H238595   2.176   1.720   1.345  0.7616  1.2245  0.8760
 5654TIP3   OH238596   5.801   2.778   1.071  0.5948 -0.1164  0.0904
 5654TIP3    H138597   5.819   2.694   1.114  0.6528  0.7687  1.8666
 5654TIP3    H238598   5.793   2.755   0.978  2.2983 -1.8246  0.2904
 5655TIP3   OH238599   6.352   1.960   7.453  0.0590 -0.1493 -0.6243
 5655TIP3    H138600   6.276   1.910   7.483  0.8655 -0.7021  0.5375
 5655TIP3    H238601   6.361   1.937   7.360 -0.3156 -1.2086 -0.4100
 5656TIP3   OH238602   6.010   1.390   7.819  0.7875  0.1191 -0.0296
 5656TIP3    H138603   5.969   1.317   7.772 -0.3070  0.8076 -0.1680
 5656TIP3    H238604   6.104   1.374   7.809  0.5889 -1.5138  0.3216
 5657TIP3   OH238605   1.853   6.685   7.372  0.0199 -0.7630  0.6834
 5657TIP3    H138606   1.831   6.728   7.454 -0.9876  0.1059 -0.0081
 5657TIP3    H238607   1.792   6.722   7.308 -0.7596 -3.0679 -0.0051
 5658TIP3   OH238608   1.299   0.335   7.897 -0.4789 -0.1363 -0.3588
 5658TIP3    H138609   1.329   0.366   7.983 -0.1994 -1.0318 -0.1255
 5658TIP3    H238610   1.294   0.240   7.906 -0.3544 -0.2483 -1.3741
 5659TIP3   OH238611   0.320   5.246   0.817 -0.0459 -0.1100  0.3217
 5659TIP3    H138612   0.227   5.228   0.829 -0.2863  1.0431  0.3088
 5659TIP3    H238613   0.339   5.316   0.880  0.7570 -0.1656  0.1567
 5660TIP3   OH238614   0.477   2.946   1.966  0.3231  0.1936  0.0296
 5660TIP3    H138615   0.439   3.029   1.936  0.7238  0.6045  0.6485
 5660TIP3    H238616   0.420   2.919   2.038  0.4541  0.1508  0.1159
 5661TIP3   OH238617   1.188   1.217   0.498 -0.3873 -0.1887  0.3495
 5661TIP3    H138618   1.207   1.146   0.437 -0.2327 -0.7151  0.9991
 5661TIP3    H238619   1.133   1.177   0.566 -0.8905  0.4844  0.3524
 5662TIP3   OH238620   2.852   1.974   2.185 -0.8380 -0.5337  0.6706
 5662TIP3    H138621   2.932   1.984   2.238 -0.8673  1.0039  0.4707
 5662TIP3    H238622   2.839   2.060   2.145 -2.6239 -0.7404  0.7241
 5663TIP3   OH238623   1.190   4.526   7.771 -0.6115  0.8088  0.8193
 5663TIP3    H138624   1.265   4.527   7.831 -0.4076 -4.2931  1.0474
 5663TIP3    H238625   1.229   4.515   7.685 -1.0964  1.9342  0.4323
 5664TIP3   OH238626   0.697   5.885   2.190  0.4324  0.0813 -0.4705
 5664TIP3    H138627   0.649   5.967   2.185  0.0213 -0.1297 -0.0944
 5664TIP3    H238628   0.681   5.853   2.279  0.9320 -0.1966 -0.4774
 5665TIP3   OH238629   6.099   1.335   0.805  0.0737  0.1998 -0.1671
 5665TIP3    H138630   6.125   1.281   0.730 -0.8584  1.6503 -1.6093
 5665TIP3    H238631   6.017   1.296   0.836 -0.3946  0.5297 -0.9567
 5666TIP3   OH238632   5.925   5.631   7.451  0.7987 -0.4656  0.1096
 5666TIP3    H138633   5.845   5.643   7.501  1.7907  0.5902  1.5256
 5666TIP3    H238634   5.897   5.586   7.371 -1.4659  1.4518 -0.2734
 5667TIP3   OH238635   0.787   1.021   8.591  0.3087 -0.1500  0.7155
 5667TIP3    H138636   0.827   1.000   8.506 -2.6310 -3.1306 -0.1484
 5667TIP3    H238637   0.713   1.077   8.570  1.4853  1.9388  1.8195
 5668TIP3   OH238638   0.575   2.105   8.218 -0.3690 -0.2256  0.1647
 5668TIP3    H138639   0.669   2.112   8.205 -0.3063  1.5363  1.2989
 5668TIP3    H238640   0.562   2.020   8.259  0.7266 -0.4781 -0.0048
 5669TIP3   OH238641   5.982   5.562   1.588  0.0265  0.2575 -0.0407
 5669TIP3    H138642   5.961   5.491   1.648 -0.8999  0.7106  0.1942
 5669TIP3    H238643   6.024   5.628   1.643  0.7696 -0.0436 -0.2345
 5670TIP3   OH238644   1.072   3.873   1.176 -0.5637  0.1754 -0.0532
 5670TIP3    H138645   1.020   3.891   1.254  0.9542 -2.4758  1.7343
 5670TIP3    H238646   1.067   3.779   1.164  1.4105  0.1831 -1.5867
 5671TIP3   OH238647   2.281   4.534   0.509  0.2952 -1.0534 -0.2274
 5671TIP3    H138648   2.279   4.457   0.452 -1.3408 -1.5322  0.4290
 5671TIP3    H238649   2.189   4.555   0.524  0.6625 -1.0700  2.4279
 5672TIP3   OH238650   4.775   4.729   8.038  0.2050  0.7696  0.0675
 5672TIP3    H138651   4.726   4.719   7.956 -0.0102 -0.0593  0.2919
 5672TIP3    H238652   4.768   4.822   8.058 -0.0614  0.9145 -0.6585
 5673TIP3   OH238653   1.430   2.333   2.859 -0.2444 -0.0340  0.3477
 5673TIP3    H138654   1.347   2.300   2.825 -0.8384  1.4759  0.2479
 5673TIP3    H238655   1.419   2.334   2.954 -0.4066  0.2798  0.3292
 5674TIP3   OH238656   0.569   5.851   1.373  0.0590 -0.5318  0.5804
 5674TIP3    H138657   0.581   5.910   1.447 -1.7787  3.1503 -1.7535
 5674TIP3    H238658   0.652   5.855   1.325 -0.9931  3.2520 -1.3537
 5675TIP3   OH238659   1.254   6.021   8.911 -0.4145  0.0290  0.5163
 5675TIP3    H138660   1.322   6.012   8.978  0.1481 -1.8477 -0.2553
 5675TIP3    H238661   1.300   6.053   8.834 -0.4772 -0.7183  0.1570
 5676TIP3   OH238662   4.370   5.060   7.893 -0.7250  0.0827  0.7673
 5676TIP3    H138663   4.333   4.980   7.855  3.0719 -1.2733 -0.4882
 5676TIP3    H238664   4.394   5.113   7.817  2.1136 -0.2726  1.3334
 5677TIP3   OH238665   4.683   4.745   0.743  0.2509  0.3542  0.4217
 5677TIP3    H138666   4.721   4.833   0.743 -1.3032  1.1048  2.3574
 5677TIP3    H238667   4.695   4.713   0.653  1.6085  2.1908 -0.1012
 5678TIP3   OH238668   1.949   4.253   1.864 -0.0342 -0.0260  0.1580
 5678TIP3    H138669   1.964   4.337   1.822 -2.0971 -0.4053 -1.5494
 5678TIP3    H238670   1.989   4.189   1.804 -1.4417 -0.4453 -0.3897
 5679TIP3   OH238671   2.608   0.268   7.928  0.5650 -0.6988  0.3077
 5679TIP3    H138672   2.699   0.291   7.907  0.7551 -2.1276 -0.6165
 5679TIP3    H238673   2.582   0.210   7.856 -2.0258  1.8828 -1.0083
 5680TIP3   OH238674   0.664   4.369   1.220 -0.0954  0.4312  0.3121
 5680TIP3    H138675   0.726   4.421   1.270  0.3488 -0.1719  0.3956
 5680TIP3    H238676   0.658   4.286   1.268  0.6323 -0.3082 -0.8205
 5681TIP3   OH238677   6.384   5.806   8.123 -0.3054 -0.6244  0.4099
 5681TIP3    H138678   6.375   5.787   8.217 -0.1486  0.5910  0.6894
 5681TIP3    H238679   6.465   5.858   8.118  0.4538 -1.8417 -0.5902
 5682TIP3   OH238680   5.409   1.248   1.130 -0.8518 -0.3950 -0.1189
 5682TIP3    H138681   5.462   1.257   1.209 -0.5866  1.5575 -0.4668
 5682TIP3    H238682   5.388   1.338   1.105 -2.4410 -1.0381 -1.2746
 5683TIP3   OH238683   6.067   3.413   1.467 -0.0882  0.3555  0.4227
 5683TIP3    H138684   6.139   3.404   1.405 -0.7130 -0.5986 -0.1901
 5683TIP3    H238685   6.084   3.347   1.534 -0.7126 -0.3260 -0.0688
 5684TIP3   OH238686   1.144   1.536   7.522 -0.4304  0.4246  0.1022
 5684TIP3    H138687   1.145   1.539   7.618  1.1963  1.5742  0.0971
 5684TIP3    H238688   1.059   1.574   7.498 -0.2252  1.5809  1.0896
 5685TIP3   OH238689   0.237   2.285   1.523  0.1463  0.0873  0.7246
 5685TIP3    H138690   0.143   2.286   1.503  0.3518 -1.8794 -0.5499
 5685TIP3    H238691   0.259   2.192   1.530  1.8179  0.5412  2.0166
 5686TIP3   OH238692   4.815   3.595   1.447 -0.5510  0.3379 -0.0157
 5686TIP3    H138693   4.747   3.531   1.424 -1.2039  0.7036  0.8309
 5686TIP3    H238694   4.822   3.651   1.370 -0.2928 -0.4737 -0.5978
 5687TIP3   OH238695   5.156   1.360   1.779 -0.1258  0.2077  0.0733
 5687TIP3    H138696   5.093   1.307   1.730  0.4168 -0.5094  0.1198
 5687TIP3    H238697   5.156   1.445   1.735  0.2040 -0.3543 -1.0689
 5688TIP3   OH238698   0.973   3.641   1.634  0.6326  0.1605  0.2888
 5688TIP3    H138699   1.004   3.556   1.605 -0.9335  0.1219 -1.4692
 5688TIP3    H238700   1.034   3.704   1.595  1.7519 -0.1044  1.5391
 5689TIP3   OH238701   5.405   6.329   0.402 -0.6299  0.1229  0.5713
 5689TIP3    H138702   5.446   6.358   0.484 -0.8441  0.6495  0.4995
 5689TIP3    H238703   5.316   6.305   0.427 -0.6742  0.2192  0.5089
 5690TIP3   OH238704   0.248   6.170   2.113  0.6983 -0.8882 -0.3760
 5690TIP3    H138705   0.230   6.141   2.203 -0.6612  1.7257  0.2817
 5690TIP3    H238706   0.162   6.192   2.077  1.5291  1.8194 -0.9097
 5691TIP3   OH238707   1.197   0.517   1.060  0.1573 -0.1100 -0.5677
 5691TIP3    H138708   1.199   0.587   1.126 -2.6822  0.3057 -0.8305
 5691TIP3    H238709   1.120   0.465   1.082  0.0081 -0.8730 -2.6747
 5692TIP3   OH238710   3.103   0.227   6.669  0.4977 -0.1683  0.7205
 5692TIP3    H138711   3.072   0.300   6.724 -0.1456 -0.2814  0.5198
 5692TIP3    H238712   3.187   0.257   6.634 -0.0220  0.7181  0.1921
 5693TIP3   OH238713   3.428   0.641   8.904  0.1042 -0.1282  0.5431
 5693TIP3    H138714   3.434   0.736   8.913 -0.0949  0.0598 -1.1178
 5693TIP3    H238715   3.337   0.625   8.877  0.6380 -0.6190 -1.0222
 5694TIP3   OH238716   6.332   4.056   8.397  0.2073  0.0580  0.3959
 5694TIP3    H138717   6.297   4.045   8.309  0.4095 -1.3833  0.4702
 5694TIP3    H238718   6.378   4.140   8.394  0.4681 -0.1130 -0.9545
 5695TIP3   OH238719   4.967   5.792   1.779 -0.1309  0.5411  0.8859
 5695TIP3    H138720   5.034   5.810   1.845 -1.1249 -1.4930  2.5553
 5695TIP3    H238721   4.926   5.878   1.763  1.5255  1.4511  1.2920
 5696TIP3   OH238722   4.718   4.727   8.895  0.0506  0.4005 -0.2999
 5696TIP3    H138723   4.746   4.817   8.880  0.5553  0.2199 -0.4717
 5696TIP3    H238724   4.659   4.731   8.970  1.2462  0.6679  0.6571
 5697TIP3   OH238725   1.299   4.190   0.105 -0.2339  0.4261  0.5172
 5697TIP3    H138726   1.337   4.104   0.125 -0.0037  0.5272  0.5224
 5697TIP3    H238727   1.351   4.221   0.031  0.2740  0.9527  1.0889
 5698TIP3   OH238728   1.381   1.802   1.171  0.6793  0.8368 -0.2015
 5698TIP3    H138729   1.397   1.759   1.255  0.8621  0.2332 -0.5365
 5698TIP3    H238730   1.424   1.887   1.179  2.1888  0.1158 -0.2963
 5699TIP3   OH238731   0.888   4.543   0.891  0.8851 -0.7740  0.4006
 5699TIP3    H138732   0.853   4.545   0.802  0.9059  0.0170  0.4047
 5699TIP3    H238733   0.844   4.615   0.935  1.1309 -0.9533  0.9414
 5700TIP3   OH238734   2.973   1.674   7.390 -0.4647 -0.2712  0.2590
 5700TIP3    H138735   2.912   1.735   7.433 -1.0987 -1.2866  0.8386
 5700TIP3    H238736   2.917   1.616   7.339 -0.0066 -1.3189  0.9205
 5701TIP3   OH238737   2.353   2.867   7.916 -0.1057 -0.0943  0.1592
 5701TIP3    H138738   2.282   2.895   7.858  0.0377  0.2680  0.1550
 5701TIP3    H238739   2.326   2.780   7.946  0.1700 -0.5984 -1.0087
 5702TIP3   OH238740   6.080   6.246   1.944  0.1112 -0.0285 -0.0667
 5702TIP3    H138741   6.028   6.318   1.980  0.3167  0.3777 -0.5773
 5702TIP3    H238742   6.169   6.280   1.940  0.0178  0.1185 -1.4099
 5703TIP3   OH238743   4.573   3.711   8.176 -0.2668  1.0586  0.3662
 5703TIP3    H138744   4.629   3.637   8.198 -1.4938  0.7674  2.8284
 5703TIP3    H238745   4.634   3.778   8.144  1.0563 -0.3969 -0.2646
 5704TIP3   OH238746   4.753   5.565   0.982  0.7733  0.0533  0.3116
 5704TIP3    H138747   4.662   5.565   1.013  0.2308 -0.4750 -1.1986
 5704TIP3    H238748   4.787   5.650   1.009 -0.4570  0.6377  0.1023
 5705TIP3   OH238749   6.703   0.831   7.919 -0.5961  0.1453  0.6483
 5705TIP3    H138750   6.740   0.870   7.840 -0.9364  0.2615  0.5454
 5705TIP3    H238751   6.752   0.749   7.930 -3.3054 -2.0996 -2.0941
 5706TIP3   OH238752   5.898   2.426   7.558  0.3292  0.0212  0.1926
 5706TIP3    H138753   5.976   2.482   7.564  0.2474  0.3965 -1.7171
 5706TIP3    H238754   5.858   2.432   7.644  1.5951  1.0372  0.7472
 5707TIP3   OH238755   0.383   0.760   1.159 -0.1466  0.3924  0.3193
 5707TIP3    H138756   0.327   0.694   1.199 -1.2097 -0.0459 -1.7115
 5707TIP3    H238757   0.472   0.726   1.170 -0.5324 -0.4854  0.8572
 5708TIP3   OH238758   2.856   6.794   7.438  0.3274 -0.3547  0.0213
 5708TIP3    H138759   2.938   6.779   7.486 -0.2253  2.0677  1.9333
 5708TIP3    H238760   2.792   6.738   7.481  0.7961 -1.7741 -1.0653
 5709TIP3   OH238761   0.071   4.283   8.070 -0.1215  0.0148 -0.1034
 5709TIP3    H138762   0.098   4.308   7.982  1.5177  0.1443  0.3991
 5709TIP3    H238763   0.151   4.290   8.123 -0.0705 -3.7793  0.6289
 5710TIP3   OH238764   3.743   4.717   2.656 -0.9156 -0.2812 -0.0964
 5710TIP3    H138765   3.712   4.774   2.726  0.1150 -0.6534  0.6918
 5710TIP3    H238766   3.690   4.637   2.664  0.1990 -0.9270  1.2566
 5711TIP3   OH238767   6.119   4.929   1.508 -0.2829 -0.4672 -0.5782
 5711TIP3    H138768   6.170   4.852   1.483  0.8455  0.3778 -0.9570
 5711TIP3    H238769   6.125   4.986   1.432  1.5126  1.3054  0.7955
 5712TIP3   OH238770   5.036   2.613   2.053  0.7309 -0.1411 -0.2585
 5712TIP3    H138771   5.000   2.652   1.973  0.3264 -1.1152 -0.5734
 5712TIP3    H238772   5.129   2.634   2.050  0.2456  2.4565  0.5892
 5713TIP3   OH238773   0.044   4.513   2.246  0.0924 -0.1610 -0.3388
 5713TIP3    H138774   0.063   4.472   2.331  0.1505  0.2490 -0.1551
 5713TIP3    H238775   0.099   4.591   2.244  1.0669 -0.8336 -1.2949
 5714TIP3   OH238776   4.312   2.631   7.893  0.1899  0.1957 -0.1782
 5714TIP3    H138777   4.321   2.705   7.833 -1.3549  1.3031  0.8487
 5714TIP3    H238778   4.401   2.608   7.918  0.7539  0.9410 -1.4207
 5715TIP3   OH238779   2.960   6.369   7.023  0.3209 -0.1350 -0.3665
 5715TIP3    H138780   2.945   6.410   7.108  1.9143 -0.1300 -0.0471
 5715TIP3    H238781   3.054   6.380   7.007  0.1428 -0.5445 -1.9204
 5716TIP3   OH238782   3.413   4.478   2.378 -0.0715  0.3561  0.5125
 5716TIP3    H138783   3.444   4.497   2.290 -0.2078 -0.2258  0.3339
 5716TIP3    H238784   3.331   4.431   2.365 -1.5131  2.5660  0.9712
 5717TIP3   OH238785   3.828   2.509   0.680 -0.1976  0.4881 -0.3744
 5717TIP3    H138786   3.916   2.541   0.701 -0.6161  1.3648  0.0859
 5717TIP3    H238787   3.815   2.533   0.588 -0.3785  1.3619 -0.1265
 5718TIP3   OH238788   6.531   0.456   8.192  0.1479  0.1148 -0.2200
 5718TIP3    H138789   6.565   0.545   8.183 -0.6816  0.4548 -0.0695
 5718TIP3    H238790   6.436   0.466   8.188  0.0633 -0.8463 -0.9102
 5719TIP3   OH238791   4.916   1.753   0.537 -0.4553  0.5533  0.0351
 5719TIP3    H138792   4.900   1.776   0.446 -4.4638 -1.1012  0.0756
 5719TIP3    H238793   4.973   1.676   0.533  1.5180  1.9927 -0.8340
 5720TIP3   OH238794   6.782   1.682   2.355  0.0876 -0.3934  0.5804
 5720TIP3    H138795   6.834   1.605   2.378 -1.3955 -1.2588  1.1556
 5720TIP3    H238796   6.787   1.738   2.432  0.4293 -0.3238  0.5085
 5721TIP3   OH238797   3.774   2.647   8.045  0.0696 -0.4311  0.2911
 5721TIP3    H138798   3.868   2.648   8.030 -0.0774  1.0355 -0.7953
 5721TIP3    H238799   3.749   2.555   8.039  1.1475 -0.6446 -1.4753
 5722TIP3   OH238800   0.618   0.963   2.447  0.3324 -0.7095  0.0156
 5722TIP3    H138801   0.656   1.044   2.482  0.1892 -0.4229 -0.4773
 5722TIP3    H238802   0.524   0.979   2.447  0.3909 -0.2453 -1.5857
 5723TIP3   OH238803   4.313   5.921   1.119 -0.5552  0.2306 -0.6060
 5723TIP3    H138804   4.357   5.901   1.202 -1.3049 -0.8038 -0.4335
 5723TIP3    H238805   4.274   6.007   1.133  1.7372  1.3850 -0.9259
 5724TIP3   OH238806   4.705   4.086   7.600 -0.4819  0.5207 -0.6019
 5724TIP3    H138807   4.726   4.011   7.545  0.7297  0.5280 -0.1771
 5724TIP3    H238808   4.611   4.077   7.620 -0.5598 -0.3346 -1.3489
 5725TIP3   OH238809   4.404   4.502   8.108  0.5647 -0.1113  0.4549
 5725TIP3    H138810   4.357   4.581   8.083  1.3988  0.1342 -0.3768
 5725TIP3    H238811   4.418   4.455   8.026  1.4674 -0.3328  0.7236
 5726TIP3   OH238812   3.268   3.154   1.307  0.0007  0.4121  0.5892
 5726TIP3    H138813   3.263   3.247   1.328 -2.2073  0.2418  1.0590
 5726TIP3    H238814   3.256   3.150   1.212 -1.1366  0.5691  0.7096
 5727TIP3   OH238815   5.328   2.576   6.798  0.1523 -0.6341  0.1280
 5727TIP3    H138816   5.305   2.483   6.807  1.3776 -1.0769 -0.9489
 5727TIP3    H238817   5.247   2.623   6.816 -0.1448 -1.8221  2.2552
 5728TIP3   OH238818   1.644   5.987   8.602  0.1303  0.5613 -0.0087
 5728TIP3    H138819   1.605   5.910   8.559  0.3412 -0.2784  1.2383
 5728TIP3    H238820   1.677   5.953   8.685  1.1075  1.8199  0.1450
 5729TIP3   OH238821   2.088   2.579   7.715 -0.2244  0.0559  0.1071
 5729TIP3    H138822   2.148   2.648   7.686 -0.9323 -0.0364 -1.7421
 5729TIP3    H238823   2.083   2.590   7.810  0.5459  1.8268 -0.0113
 5730TIP3   OH238824   0.784   5.638   8.650 -0.4001 -0.0005  0.1391
 5730TIP3    H138825   0.846   5.695   8.603 -0.1723 -1.5997 -1.6383
 5730TIP3    H238826   0.833   5.608   8.726 -0.3490  1.7363  0.8319
 5731TIP3   OH238827   0.078   3.255   8.466  0.3748 -0.5365  0.1226
 5731TIP3    H138828   0.128   3.312   8.524  0.0377  0.1516 -0.2454
 5731TIP3    H238829   0.114   3.168   8.480  0.9150 -0.2267  0.6812
 5732TIP3   OH238830   6.401   5.742   1.491  0.2874  0.2327 -0.1085
 5732TIP3    H138831   6.351   5.675   1.446  1.0249  0.9147 -2.0435
 5732TIP3    H238832   6.492   5.714   1.484  0.3577 -0.5070  2.5315
 5733TIP3   OH238833   1.533   3.539   7.368 -0.1672 -0.0452 -0.5832
 5733TIP3    H138834   1.606   3.546   7.306  1.3147 -0.7537  1.0221
 5733TIP3    H238835   1.455   3.533   7.312  1.2588 -2.9289 -2.4888
 5734TIP3   OH238836   1.845   6.226   8.877 -0.1714  0.3945 -0.2423
 5734TIP3    H138837   1.901   6.177   8.815 -0.5628  1.3536 -1.3797
 5734TIP3    H238838   1.901   6.238   8.954  1.9404  2.8666 -1.9794
 5735TIP3   OH238839   5.821   0.917   8.647 -0.0734  0.2505  0.4135
 5735TIP3    H138840   5.911   0.887   8.660  0.0604 -0.1138 -1.1941
 5735TIP3    H238841   5.827   0.982   8.577 -0.9618  0.8953  0.9065
 5736TIP3   OH238842   4.834   3.925   7.816  0.5197 -0.1011  0.1333
 5736TIP3    H138843   4.915   3.977   7.819 -0.0623  0.8059  1.0080
 5736TIP3    H238844   4.775   3.976   7.760  0.0702  0.0010  0.6903
 5737TIP3   OH238845   0.873   1.578   1.783  0.0516  0.1589 -0.4024
 5737TIP3    H138846   0.922   1.500   1.810  0.4558  0.6448  0.3125
 5737TIP3    H238847   0.935   1.650   1.795 -0.8968  0.8233  0.7410
 5738TIP3   OH238848   6.124   0.129   1.070  0.5990 -0.1074  0.2961
 5738TIP3    H138849   6.106   0.073   1.146  0.0254 -2.8281 -1.6752
 5738TIP3    H238850   6.157   0.068   1.003  1.6862  2.2647 -1.4594
 5739TIP3   OH238851   5.918   1.676   1.606 -0.5855  0.3409 -0.4398
 5739TIP3    H138852   5.842   1.729   1.631  0.1638  1.4523 -0.4380
 5739TIP3    H238853   5.979   1.686   1.679 -0.4049 -0.5080 -0.4613
 5740TIP3   OH238854   5.155   4.196   8.440  0.1564 -0.1085 -0.5642
 5740TIP3    H138855   5.210   4.265   8.477  0.4946 -1.2859  1.2716
 5740TIP3    H238856   5.072   4.239   8.419  0.3831  0.8577  0.4719
 5741TIP3   OH238857   0.562   0.425   1.746 -0.3348  0.0122  0.5193
 5741TIP3    H138858   0.473   0.413   1.777 -0.2492  0.0409  0.7770
 5741TIP3    H238859   0.610   0.461   1.821 -0.3143  0.8614  0.1150
 5742TIP3   OH238860   4.481   1.120   7.152  0.2485  0.2890 -0.3235
 5742TIP3    H138861   4.435   1.070   7.220  0.9330  1.8383  1.3490
 5742TIP3    H238862   4.426   1.197   7.138  1.1307  0.9772 -0.0455
 5743TIP3   OH238863   1.539   5.875   0.990 -0.0474 -0.1995 -0.3892
 5743TIP3    H138864   1.570   5.868   0.900 -0.1881  0.4070 -0.4890
 5743TIP3    H238865   1.576   5.799   1.034  0.4705 -0.2057 -0.8266
 5744TIP3   OH238866   3.328   0.890   1.361  0.0795 -0.1154 -0.6100
 5744TIP3    H138867   3.410   0.867   1.317  0.3064  1.5799 -1.1625
 5744TIP3    H238868   3.337   0.851   1.448  1.4999  0.0373 -0.6502
 5745TIP3   OH238869   1.774   2.664   8.603 -0.7103  0.0597 -0.5114
 5745TIP3    H138870   1.860   2.644   8.565  1.3941  3.5499  1.7293
 5745TIP3    H238871   1.766   2.602   8.675 -0.4844 -0.8425 -1.2435
 5746TIP3   OH238872   3.193   5.737   2.127 -0.7372 -0.2325  0.5434
 5746TIP3    H138873   3.125   5.746   2.194 -2.5276  0.2801 -1.2442
 5746TIP3    H238874   3.161   5.790   2.053  0.8720 -1.2100 -0.9252
 5747TIP3   OH238875   4.541   5.649   0.089  0.2313  0.2371 -0.3771
 5747TIP3    H138876   4.552   5.557   0.066 -1.1358 -0.1830  0.5189
 5747TIP3    H238877   4.529   5.693   0.005  0.7138 -0.4249 -0.8079
 5748TIP3   OH238878   1.788   3.867   0.822 -0.7372  0.1075  0.2484
 5748TIP3    H138879   1.739   3.856   0.740 -3.0948 -1.7008  1.7809
 5748TIP3    H238880   1.724   3.901   0.884  1.1233  1.9325  1.3077
 5749TIP3   OH238881   5.624   3.696   2.288  0.7287  0.2549 -0.1587
 5749TIP3    H138882   5.531   3.710   2.306  0.8834 -0.2873  1.1370
 5749TIP3    H238883   5.628   3.684   2.193 -0.6721 -0.7737 -0.1180
 5750TIP3   OH238884   6.598   1.342   7.821 -0.4532 -0.0696  0.3294
 5750TIP3    H138885   6.555   1.387   7.893 -2.3701 -1.0860 -0.1301
 5750TIP3    H238886   6.670   1.400   7.796 -1.7992  1.9039  0.8589
 5751TIP3   OH238887   0.486   2.547   1.076  0.1491  0.4475  0.0805
 5751TIP3    H138888   0.421   2.478   1.090  0.4496 -0.0644 -0.9449
 5751TIP3    H238889   0.570   2.503   1.089  0.3302  1.2241  1.9256
 5752TIP3   OH238890   1.278   0.694   2.202 -0.2724  0.1870 -0.3525
 5752TIP3    H138891   1.367   0.723   2.182 -0.4984  0.1031 -1.5579
 5752TIP3    H238892   1.289   0.629   2.271  0.4622  1.2351  0.5577
 5753TIP3   OH238893   4.094   0.327   1.831  0.5861  0.3717 -0.1856
 5753TIP3    H138894   4.045   0.286   1.903  1.5790  1.1713  0.9917
 5753TIP3    H238895   4.041   0.403   1.807  0.3037  0.1614 -0.2331
 5754TIP3   OH238896   3.361   6.085   8.278 -0.3666  0.5268  0.2893
 5754TIP3    H138897   3.295   6.024   8.248 -0.3885 -0.3360  1.9453
 5754TIP3    H238898   3.351   6.086   8.374  2.2007  0.0770  0.6490
 5755TIP3   OH238899   3.627   3.420   8.428 -0.3011 -0.0906 -0.5226
 5755TIP3    H138900   3.671   3.342   8.394  0.5952  0.6245 -1.0297
 5755TIP3    H238901   3.693   3.489   8.426 -1.3329  0.9244 -0.9784
 5756TIP3   OH238902   0.961   4.247   0.628  0.2562 -0.1792  0.2665
 5756TIP3    H138903   1.045   4.248   0.581 -0.0149  0.2424 -0.2105
 5756TIP3    H238904   0.914   4.173   0.591 -0.2112  0.5303 -0.5858
 5757TIP3   OH238905   2.103   5.432   1.942  0.4697  0.4798 -0.5005
 5757TIP3    H138906   2.057   5.516   1.930  0.2096  0.4029 -0.0420
 5757TIP3    H238907   2.089   5.386   1.860 -0.0478  0.5676 -0.4653
 5758TIP3   OH238908   5.012   4.861   7.278 -0.9108 -0.0227  0.1207
 5758TIP3    H138909   5.103   4.829   7.276 -1.7700 -2.6559 -0.6312
 5758TIP3    H238910   5.010   4.930   7.212  0.7322  0.6539  0.7343
 5759TIP3   OH238911   4.059   5.326   7.732  0.3765 -0.3395 -0.3077
 5759TIP3    H138912   4.081   5.405   7.682  0.2925 -0.2821 -0.2545
 5759TIP3    H238913   4.066   5.254   7.668  0.0708 -0.2437 -0.4541
 5760TIP3   OH238914   5.065   2.598   7.401  0.5209 -0.2666 -0.2116
 5760TIP3    H138915   5.066   2.505   7.376  0.8476 -0.6799  1.2168
 5760TIP3    H238916   5.138   2.606   7.463 -1.1075  0.3477  1.7140
 5761TIP3   OH238917   6.582   3.295   0.912 -0.0813 -0.4182 -0.0719
 5761TIP3    H138918   6.590   3.347   0.833 -1.7732  0.8006  0.5139
 5761TIP3    H238919   6.592   3.204   0.882 -0.1628  0.0526 -1.5904
 5762TIP3   OH238920   6.186   5.764   2.277  0.0463 -0.5177  0.1602
 5762TIP3    H138921   6.262   5.800   2.323 -0.6433  1.7514 -0.3582
 5762TIP3    H238922   6.116   5.765   2.342  0.4966 -3.0992  0.7961
 5763TIP3   OH238923   3.093   5.869   1.916 -0.5189  0.2758  0.2216
 5763TIP3    H138924   3.155   5.847   1.847  0.9519 -1.3594  1.9655
 5763TIP3    H238925   3.107   5.962   1.933 -0.8817  0.6926 -1.6046
 5764TIP3   OH238926   4.730   2.998   7.456  0.3775 -0.1929  0.4376
 5764TIP3    H138927   4.702   2.908   7.438 -1.2049  0.5083 -0.8987
 5764TIP3    H238928   4.821   2.990   7.482  0.1579 -2.2222  0.7797
 5765TIP3   OH238929   6.559   1.631   7.699 -0.4002  0.2907  0.1887
 5765TIP3    H138930   6.590   1.715   7.733 -0.1736  0.1817  0.2575
 5765TIP3    H238931   6.626   1.568   7.727  0.0076  0.2624 -0.8309
 5766TIP3   OH238932   3.713   5.420   1.828  0.2461  0.1327 -0.0243
 5766TIP3    H138933   3.692   5.479   1.756  3.5445  1.4302 -0.0828
 5766TIP3    H238934   3.695   5.470   1.907  1.1728  0.5203 -0.0485
 5767TIP3   OH238935   5.951   4.688   0.723 -0.3822  0.3498 -0.4724
 5767TIP3    H138936   5.929   4.635   0.799  0.0627 -1.4480 -1.5479
 5767TIP3    H238937   5.947   4.778   0.755 -1.1256 -0.3078  1.4214
 5768TIP3   OH238938   2.195   5.334   0.384 -0.0459  0.2192  0.2276
 5768TIP3    H138939   2.155   5.420   0.370  2.1392  1.3298  0.3335
 5768TIP3    H238940   2.123   5.277   0.407 -1.9033  1.5195 -1.9494
 5769TIP3   OH238941   4.902   6.190   0.661  0.1233 -0.0303 -0.0123
 5769TIP3    H138942   4.940   6.147   0.585 -1.7004 -1.0115 -0.4310
 5769TIP3    H238943   4.854   6.120   0.707  1.6401  0.4006  2.3875
 5770TIP3   OH238944   4.696   4.490   8.785  0.7377 -0.0621  0.3553
 5770TIP3    H138945   4.696   4.573   8.831 -1.3011  1.5407 -2.2542
 5770TIP3    H238946   4.765   4.498   8.719 -0.4227  0.2343 -0.8737
 5771TIP3   OH238947   0.797   2.967   8.111 -0.3098  0.0883  0.4483
 5771TIP3    H138948   0.862   2.968   8.040 -0.9685 -0.1905 -0.1640
 5771TIP3    H238949   0.733   2.901   8.084 -0.2349 -0.4736  1.6114
 5772TIP3   OH238950   4.513   5.039   7.586 -0.2027  0.4437 -0.1905
 5772TIP3    H138951   4.476   4.978   7.523  0.5887  0.9113 -1.1238
 5772TIP3    H238952   4.503   5.125   7.545 -1.4275  0.9913  1.1621
 5773TIP3   OH238953   0.370   6.239   0.989  0.6376  0.0029 -0.2189
 5773TIP3    H138954   0.314   6.162   0.978  0.3780  0.0258  0.8019
 5773TIP3    H238955   0.353   6.293   0.912 -1.4305  0.4194  0.4688
 5774TIP3   OH238956   5.411   3.519   0.296  0.3161 -0.5631 -0.5195
 5774TIP3    H138957   5.384   3.554   0.211  0.6591 -0.7998 -0.7294
 5774TIP3    H238958   5.493   3.472   0.278  0.7768 -0.0051  0.0749
 5775TIP3   OH238959   6.006   6.647   6.736  0.2327 -0.7832 -0.6126
 5775TIP3    H138960   6.074   6.681   6.794  1.6328  1.2922 -3.2259
 5775TIP3    H238961   5.931   6.705   6.750  0.3591 -0.6544 -0.4731
 5776TIP3   OH238962   2.279   4.542   1.373 -0.0838 -0.6601  0.4914
 5776TIP3    H138963   2.228   4.526   1.294 -1.3827 -1.4567  1.4399
 5776TIP3    H238964   2.220   4.592   1.430  1.4538  1.5017  0.3177
 5777TIP3   OH238965   6.237   1.077   1.838 -0.2657 -0.1427 -0.6161
 5777TIP3    H138966   6.233   1.118   1.925 -0.7792  0.6461 -0.9954
 5777TIP3    H238967   6.176   1.129   1.785 -1.0467 -1.4848 -1.0868
 5778TIP3   OH238968   3.571   5.928   0.178  0.2515  0.1884  0.2534
 5778TIP3    H138969   3.634   5.856   0.182 -0.9673 -0.8827  1.1227
 5778TIP3    H238970   3.558   5.943   0.084  0.6365 -0.6267  0.0551
 5779TIP3   OH238971   1.982   3.632   0.696  0.2449  0.0823 -0.7564
 5779TIP3    H138972   1.892   3.613   0.726 -0.3158  3.7500  0.3158
 5779TIP3    H238973   2.038   3.585   0.758 -0.8618 -1.6897 -1.0115
 5780TIP3   OH238974   4.879   4.739   0.425  0.1297 -0.1426 -0.7684
 5780TIP3    H138975   4.825   4.660   0.423 -1.1053  0.6822 -1.9861
 5780TIP3    H238976   4.871   4.775   0.337  3.7696 -0.6535 -1.4691
 5781TIP3   OH238977   3.895   0.614   8.703  0.2641  0.1452  0.7245
 5781TIP3    H138978   3.800   0.606   8.699  0.1194  1.7638 -2.6583
 5781TIP3    H238979   3.928   0.526   8.688 -0.8631  0.2247 -3.2639
 5782TIP3   OH238980   1.704   6.313   8.608 -0.5623 -0.4116  0.1320
 5782TIP3    H138981   1.752   6.274   8.681  0.1067 -0.9404 -0.5746
 5782TIP3    H238982   1.734   6.265   8.531  0.1112  1.3151 -0.7370
 5783TIP3   OH238983   5.398   4.579   0.127 -0.2976  0.5081  0.2162
 5783TIP3    H138984   5.405   4.484   0.117 -1.9692  0.2139  1.3546
 5783TIP3    H238985   5.334   4.605   0.060  0.3765  0.8854 -0.2881
 5784TIP3   OH238986   0.119   1.895   1.331 -0.4582  0.1532 -0.9518
 5784TIP3    H138987   0.090   1.973   1.284 -0.3940  0.3736 -0.6320
 5784TIP3    H238988   0.204   1.919   1.368 -0.3566 -0.1275 -0.9960
 5785TIP3   OH238989   3.471   5.043   0.759  0.4431  0.1871 -0.4218
 5785TIP3    H138990   3.404   4.998   0.811  0.2334 -0.3548 -1.1443
 5785TIP3    H238991   3.512   5.104   0.821 -0.9244  0.7640 -0.0349
 5786TIP3   OH238992   4.441   6.243   0.998  0.0057  0.0568 -0.1150
 5786TIP3    H138993   4.508   6.299   0.959  0.0281 -0.5397 -0.9710
 5786TIP3    H238994   4.392   6.210   0.923 -0.8433 -0.0238  0.4645
 5787TIP3   OH238995   5.012   4.954   2.247  0.5397  0.0414  0.2960
 5787TIP3    H138996   4.942   4.909   2.201 -0.0353  1.1447  0.0749
 5787TIP3    H238997   4.983   4.956   2.338  1.5296 -1.8518  0.7188
 5788TIP3   OH238998   6.306   5.512   6.407 -0.1740  0.0696  0.2848
 5788TIP3    H138999   6.281   5.421   6.420  0.8664 -0.4034 -0.8012
 5788TIP3    H239000   6.400   5.514   6.425 -0.4653  1.3075  1.9821
 5789TIP3   OH239001   1.452   3.605   8.579  0.4092 -0.1100 -0.1501
 5789TIP3    H139002   1.525   3.608   8.641 -0.0949  0.4152  0.4228
 5789TIP3    H239003   1.419   3.515   8.586 -0.1819  0.1733  0.9902
 5790TIP3   OH239004   0.416   5.864   7.571 -0.1071  0.4010 -0.8278
 5790TIP3    H139005   0.360   5.923   7.520 -0.9832 -0.3339 -0.7473
 5790TIP3    H239006   0.409   5.780   7.526  0.3788  0.1288 -0.4000
 5791TIP3   OH239007   6.717   5.730   0.084  0.8029  0.5294  0.0817
 5791TIP3    H139008   6.733   5.649   0.134  0.4900  0.9047  0.8062
 5791TIP3    H239009   6.782   5.791   0.117  0.3661  0.8890  0.2871
 5792TIP3   OH239010   3.353   3.524   2.083  0.2550  0.2605  0.1231
 5792TIP3    H139011   3.412   3.509   2.157  1.8089  0.2663 -1.0783
 5792TIP3    H239012   3.393   3.596   2.035 -0.4067 -0.1358 -1.0538
 5793TIP3   OH239013   5.561   5.627   8.456 -0.1987 -0.1968 -0.0321
 5793TIP3    H139014   5.494   5.561   8.470 -2.0696  2.0174  2.5021
 5793TIP3    H239015   5.539   5.667   8.372 -1.3695 -0.2994  0.2097
 5794TIP3   OH239016   2.595   3.761   2.760 -0.3692  0.2229 -0.3611
 5794TIP3    H139017   2.567   3.822   2.827 -0.5732 -0.3709  0.1054
 5794TIP3    H239018   2.643   3.693   2.808 -1.9123 -1.0738 -0.5861
 5795TIP3   OH239019   6.032   3.727   2.800  0.2598  0.5958 -0.0851
 5795TIP3    H139020   6.079   3.805   2.772  1.0499 -0.2719 -1.2644
 5795TIP3    H239021   5.950   3.761   2.836  1.2622  2.0598  0.9443
 5796TIP3   OH239022   1.073   1.388   8.249  0.3470  0.3873 -0.3820
 5796TIP3    H139023   1.120   1.331   8.189  3.0878  0.7530  1.2560
 5796TIP3    H239024   1.081   1.476   8.211  3.9514  0.9756  1.3477
 5797TIP3   OH239025   5.170   1.568   6.551  0.1209 -0.1685 -0.3085
 5797TIP3    H139026   5.165   1.477   6.522 -0.5242 -0.0275 -0.6602
 5797TIP3    H239027   5.238   1.607   6.497  1.9101 -0.9469  1.2706
 5798TIP3   OH239028   6.059   2.632   1.604 -0.0625 -0.1178 -0.0838
 5798TIP3    H139029   6.020   2.709   1.645  0.1937 -0.5647  1.0398
 5798TIP3    H239030   5.986   2.569   1.597 -0.3381  0.3199 -1.2681
 5799TIP3   OH239031   6.685   3.632   1.502 -0.1616 -0.4885  0.5663
 5799TIP3    H139032   6.614   3.618   1.564  0.4399  0.4051  1.4985
 5799TIP3    H239033   6.652   3.700   1.443  0.8442  1.9728  2.6685
 5800TIP3   OH239034   5.221   3.806   8.145  0.2471 -0.2415 -0.2145
 5800TIP3    H139035   5.248   3.724   8.186  0.2807 -0.1074  0.0282
 5800TIP3    H239036   5.178   3.855   8.214 -1.7339 -0.9486 -0.8638
 5801TIP3   OH239037   5.189   3.174   1.239 -0.2233 -0.1221 -0.7437
 5801TIP3    H139038   5.216   3.234   1.170  2.7777 -1.7607 -1.1280
 5801TIP3    H239039   5.161   3.095   1.193 -0.0778 -0.5332 -0.1388
 5802TIP3   OH239040   3.758   6.553   7.860  0.0804 -0.6311 -0.1060
 5802TIP3    H139041   3.790   6.540   7.771  1.2082 -0.6158  0.2766
 5802TIP3    H239042   3.760   6.647   7.873 -0.5626 -0.5984 -0.2303
 5803TIP3   OH239043   2.421   5.216   0.320 -0.4746  0.7184  0.1190
 5803TIP3    H139044   2.486   5.283   0.339  0.1678  0.2621 -0.4521
 5803TIP3    H239045   2.338   5.254   0.351  0.0923  1.1820  1.1214
 5804TIP3   OH239046   2.475   3.990   2.869 -0.5315 -0.2117  0.0233
 5804TIP3    H139047   2.408   4.022   2.810 -2.2741 -1.4994  1.1932
 5804TIP3    H239048   2.455   4.030   2.953 -0.1006 -0.9360  0.4882
 5805TIP3   OH239049   5.810   0.061   1.385 -0.0196  0.1778 -0.0407
 5805TIP3    H139050   5.783   0.085   1.474  0.2403  1.4003 -0.2640
 5805TIP3    H239051   5.754  -0.012   1.362  1.7498 -2.0562  2.1311
 5806TIP3   OH239052   3.601   4.710   1.210 -0.1292 -0.3631 -0.3805
 5806TIP3    H139053   3.624   4.801   1.192 -3.6729  0.8143  0.1889
 5806TIP3    H239054   3.639   4.692   1.295 -0.5772  1.1410  0.1806
 5807TIP3   OH239055   5.292   3.142   1.532 -0.5423  1.2313  0.0476
 5807TIP3    H139056   5.340   3.060   1.532 -0.5563  1.2068  1.4034
 5807TIP3    H239057   5.272   3.158   1.440 -2.9532 -1.6650 -0.0651
 5808TIP3   OH239058   5.487   2.703   7.823  0.1896  0.2838  0.0769
 5808TIP3    H139059   5.416   2.728   7.764  0.7410 -1.2999 -1.3365
 5808TIP3    H239060   5.546   2.650   7.769  1.6727  0.2978  1.5969
 5809TIP3   OH239061   4.302   3.493   6.916 -0.0825 -0.2555  0.3150
 5809TIP3    H139062   4.265   3.570   6.960  0.2201 -1.0414  2.0216
 5809TIP3    H239063   4.376   3.468   6.970  0.0406 -1.5513 -0.4115
 5810TIP3   OH239064   3.413   0.226   7.874  0.8736 -0.2478  0.2088
 5810TIP3    H139065   3.396   0.145   7.921  0.8890 -0.7505 -0.6306
 5810TIP3    H239066   3.441   0.288   7.941 -2.8402  0.2782  1.5098
 5811TIP3   OH239067   6.339   1.529   7.574  0.1281  0.1414  0.0539
 5811TIP3    H139068   6.398   1.600   7.600 -0.8022  1.2007 -0.5978
 5811TIP3    H239069   6.394   1.468   7.526  0.5527  1.5523 -1.3260
 5812TIP3   OH239070   1.042   0.963   8.174  0.2106 -0.4890  0.2278
 5812TIP3    H139071   1.099   1.024   8.221 -1.0502 -0.5031  1.8889
 5812TIP3    H239072   0.962   1.013   8.155  0.2308 -0.8435 -0.8700
 5813TIP3   OH239073   3.465   0.861   8.620 -0.3767 -0.0016 -0.0939
 5813TIP3    H139074   3.529   0.811   8.569 -1.4055 -1.4570 -0.0058
 5813TIP3    H239075   3.507   0.874   8.705  0.1250 -0.2382 -0.3047
 5814TIP3   OH239076   0.217   6.149   0.501 -0.0515 -0.3131  0.1083
 5814TIP3    H139077   0.190   6.098   0.425 -0.9312  1.0425 -0.5451
 5814TIP3    H239078   0.305   6.179   0.480 -0.0071 -0.5506 -0.0509
 5815TIP3   OH239079   6.620   1.629   8.881  0.2125 -0.0019  0.3973
 5815TIP3    H139080   6.674   1.634   8.960  0.6884 -1.0785  0.1498
 5815TIP3    H239081   6.562   1.554   8.897 -0.1835  0.2239  0.0262
 5816TIP3   OH239082   0.469   5.602   1.397 -0.2614  0.3158 -0.2837
 5816TIP3    H139083   0.502   5.692   1.391 -0.3774  0.2878 -2.0454
 5816TIP3    H239084   0.543   5.548   1.370 -0.8947  0.0742 -1.6417
 5817TIP3   OH239085   4.536   0.889   0.451  0.9574 -0.1144 -0.4798
 5817TIP3    H139086   4.484   0.937   0.514  0.5320 -0.8631 -0.2460
 5817TIP3    H239087   4.612   0.859   0.501  0.7199 -0.5360 -0.3649
 5818TIP3   OH239088   4.315   6.663   1.781  0.0532 -0.2719 -0.3303
 5818TIP3    H139089   4.267   6.709   1.850 -4.1108 -0.6865 -2.6758
 5818TIP3    H239090   4.321   6.726   1.710  0.6578 -1.1064 -1.0417
 5819TIP3   OH239091   5.600   5.630   2.909  0.5057  0.4581 -0.2473
 5819TIP3    H139092   5.649   5.556   2.946 -1.5443 -2.1583 -2.3879
 5819TIP3    H239093   5.668   5.686   2.870  2.0334 -1.4601 -0.5028
 5820TIP3   OH239094   1.693   3.030   7.997 -0.6087  0.3578 -0.4117
 5820TIP3    H139095   1.616   3.073   7.960 -1.4471 -1.1202 -0.4779
 5820TIP3    H239096   1.673   2.936   7.990  0.4977 -0.0178  1.0862
 5821TIP3   OH239097   0.802   2.549   0.729  0.4915 -0.3921  0.2902
 5821TIP3    H139098   0.752   2.565   0.650 -0.0745 -2.6813  0.1242
 5821TIP3    H239099   0.856   2.473   0.709  1.4174 -0.1486  1.6556
 5822TIP3   OH239100   5.919   1.671   8.596  0.8016 -0.1939  0.0843
 5822TIP3    H139101   5.884   1.674   8.506 -0.6578 -2.9836  0.4470
 5822TIP3    H239102   5.892   1.755   8.634  0.9163  0.7986 -1.8801
 5823TIP3   OH239103   2.972   4.281   7.768 -0.6702 -0.7421 -0.3423
 5823TIP3    H139104   3.009   4.354   7.719 -0.2043  1.0846  2.5409
 5823TIP3    H239105   3.047   4.237   7.808 -1.1963  0.2301  1.8605
 5824TIP3   OH239106   2.743   4.231   0.255 -0.2123 -0.4486 -0.2227
 5824TIP3    H139107   2.648   4.220   0.259 -0.3996  0.3414 -1.7623
 5824TIP3    H239108   2.765   4.206   0.165  0.7729  1.2074 -0.4640
 5825TIP3   OH239109   3.307   3.131   0.537 -0.1068  0.0450 -0.6140
 5825TIP3    H139110   3.280   3.171   0.454 -0.7309  1.5815  0.2883
 5825TIP3    H239111   3.279   3.040   0.529 -0.9555  0.3733 -1.7546
 5826TIP3   OH239112   6.594   5.830   0.457 -0.2204 -0.2519  0.4172
 5826TIP3    H139113   6.684   5.799   0.470 -0.0219  0.8281  1.8978
 5826TIP3    H239114   6.573   5.878   0.537 -2.1937 -0.6156  0.1761
 5827TIP3   OH239115   0.410   2.438   2.748  0.0361 -0.1248 -0.2103
 5827TIP3    H139116   0.477   2.504   2.732 -0.0510 -0.3780 -1.8247
 5827TIP3    H239117   0.456   2.366   2.789  0.2388  0.6980  1.0553
 5828TIP3   OH239118   1.805   1.838   6.654 -0.1332 -0.5971 -0.2955
 5828TIP3    H139119   1.735   1.827   6.719 -0.3222 -0.3528 -0.4570
 5828TIP3    H239120   1.857   1.758   6.661  0.8421  0.1280  1.3584
 5829TIP3   OH239121   4.000   3.296   7.832 -0.5243  0.3890  0.1286
 5829TIP3    H139122   3.996   3.248   7.915  0.4689 -3.3033 -1.7287
 5829TIP3    H239123   4.089   3.333   7.830  0.0658 -0.9779  0.0370
 5830TIP3   OH239124   6.528   1.052   0.590 -0.1548 -0.3680  0.3110
 5830TIP3    H139125   6.601   1.079   0.645 -0.4020  0.0217  0.4508
 5830TIP3    H239126   6.472   1.000   0.648  0.0426 -0.7174  0.1880
 5831TIP3   OH239127   0.209   0.040   7.097 -0.3479 -0.4183  0.1577
 5831TIP3    H139128   0.172   0.034   7.185  0.1127 -0.8767  0.3284
 5831TIP3    H239129   0.264   0.118   7.099 -0.4666 -0.3359  0.2231
 5832TIP3   OH239130   4.282   2.816   6.899 -0.4293 -0.2108  0.0777
 5832TIP3    H139131   4.304   2.795   6.808 -2.0139 -0.1135 -0.3556
 5832TIP3    H239132   4.232   2.897   6.893 -2.1776 -1.1849  0.8313
 5833TIP3   OH239133   4.391   5.971   0.406 -0.3926  0.1650  0.3595
 5833TIP3    H139134   4.408   5.976   0.500  0.5786  0.1557  0.1897
 5833TIP3    H239135   4.415   5.881   0.383 -2.0733 -0.3226  0.3678
 5834TIP3   OH239136   1.261   2.205   1.729 -0.2585  0.6071  0.2145
 5834TIP3    H139137   1.301   2.201   1.642  0.3242  2.2143  0.3765
 5834TIP3    H239138   1.329   2.173   1.789  0.1526  1.6133  0.2984
 5835TIP3   OH239139   3.957   4.876   0.398  0.5655  0.8010 -0.1490
 5835TIP3    H139140   4.014   4.871   0.475  0.0423 -2.8819  0.1958
 5835TIP3    H239141   4.015   4.861   0.324  0.3495 -2.1576  0.1460
 5836TIP3   OH239142   1.403   2.669   1.850  0.4021 -0.4418  0.0484
 5836TIP3    H139143   1.330   2.608   1.855 -0.0608 -0.0806 -1.4728
 5836TIP3    H239144   1.472   2.629   1.902 -0.2507 -1.7143 -0.0237
 5837TIP3   OH239145   2.989   3.452   1.664 -0.0600  0.7296  0.2443
 5837TIP3    H139146   2.974   3.532   1.714  0.0485 -0.9067  3.1242
 5837TIP3    H239147   2.972   3.382   1.726 -1.8780 -1.5980 -2.6360
 5838TIP3   OH239148   5.161   3.800   7.862 -0.4243  0.1007 -0.6521
 5838TIP3    H139149   5.187   3.810   7.954  0.7567  1.2185 -1.0755
 5838TIP3    H239150   5.154   3.706   7.849  1.2081 -0.1648  0.1354
 5839TIP3   OH239151   0.377   5.903   2.700  0.7821 -0.5927  0.9190
 5839TIP3    H139152   0.299   5.958   2.693  0.4713 -1.1055  0.2934
 5839TIP3    H239153   0.447   5.955   2.660  0.6174 -0.4219  0.8503
 5840TIP3   OH239154   2.889   0.251   0.491  0.1217 -0.5666 -0.0133
 5840TIP3    H139155   2.984   0.246   0.503  0.0649 -1.1344  0.2315
 5840TIP3    H239156   2.876   0.326   0.433  0.6813 -0.1387  0.4009
 5841TIP3   OH239157   4.262   5.944   7.155  0.0097  0.5751  0.4316
 5841TIP3    H139158   4.217   5.860   7.149 -0.1111  0.6996 -0.5536
 5841TIP3    H239159   4.202   6.006   7.113  0.5620  0.9592  0.1997
 5842TIP3   OH239160   3.450   6.765   8.033  0.3721 -0.1743  0.2663
 5842TIP3    H139161   3.535   6.741   7.997  0.9717  0.1891  1.4058
 5842TIP3    H239162   3.394   6.689   8.016  0.4195  0.2155 -1.9950
 5843TIP3   OH239163   2.327   0.472   8.808  0.2855 -0.2157  0.0924
 5843TIP3    H139164   2.318   0.513   8.894  0.4201  0.3956 -0.1787
 5843TIP3    H239165   2.242   0.486   8.766  0.1374 -0.7312  0.2153
 5844TIP3   OH239166   0.027   6.281   0.316 -0.4746 -0.2535  0.0105
 5844TIP3    H139167   0.081   6.215   0.274 -0.3627 -0.1801  0.0396
 5844TIP3    H239168   0.087   6.353   0.337 -0.6732  0.0391 -0.4043
 5845TIP3   OH239169   1.272   3.315   0.633 -0.1951  0.2035 -0.2324
 5845TIP3    H139170   1.270   3.225   0.666 -2.1852  0.9582  1.9881
 5845TIP3    H239171   1.279   3.305   0.538 -1.3955 -2.3505 -0.1597
 5846TIP3   OH239172   3.593   2.129   0.296 -0.5679 -0.8016  0.1028
 5846TIP3    H139173   3.564   2.174   0.217 -1.1080 -0.1337  0.6738
 5846TIP3    H239174   3.643   2.195   0.344  0.4222 -1.4275 -0.0312
 5847TIP3   OH239175   4.059   1.309   8.364  0.1019  0.0194  0.1582
 5847TIP3    H139176   3.982   1.261   8.395 -0.4239  0.2840 -0.7203
 5847TIP3    H239177   4.051   1.309   8.269  1.5100 -0.4680  0.0264
 5848TIP3   OH239178   2.456   1.064   0.559  0.3226 -0.0335 -0.5796
 5848TIP3    H139179   2.469   1.025   0.645  0.8147  1.2621 -0.0317
 5848TIP3    H239180   2.427   0.992   0.504 -4.0119 -0.2388  1.5633
 5849TIP3   OH239181   2.058   3.889   0.755 -0.1701 -0.3186 -0.0371
 5849TIP3    H139182   2.047   3.802   0.716 -1.5627  0.1057 -0.6542
 5849TIP3    H239183   1.977   3.904   0.803  0.3791  0.3417  0.7111
 5850TIP3   OH239184   2.196   4.347   8.651  0.0834 -0.2748  0.2763
 5850TIP3    H139185   2.185   4.267   8.601 -3.3857 -1.4442  2.5959
 5850TIP3    H239186   2.225   4.318   8.738  1.3412  1.2817  0.4410
 5851TIP3   OH239187   2.629   6.678   7.577 -0.2001  0.4398 -0.3505
 5851TIP3    H139188   2.556   6.626   7.542 -0.7124  0.4662  0.6414
 5851TIP3    H239189   2.653   6.634   7.659  0.6294  0.6714 -0.4625
 5852TIP3   OH239190   4.733   3.403   8.553 -0.3088 -0.0341  0.2243
 5852TIP3    H139191   4.674   3.468   8.591 -0.6689 -0.8362  1.0993
 5852TIP3    H239192   4.762   3.442   8.471 -1.0839  0.9094  0.3703
 5853TIP3   OH239193   6.265   2.206   2.559 -0.0211  0.1917 -0.2186
 5853TIP3    H139194   6.191   2.182   2.615 -0.0049 -0.6538 -0.5490
 5853TIP3    H239195   6.339   2.213   2.619 -0.2947  0.7154  0.0651
 5854TIP3   OH239196   5.731   5.402   7.522 -0.0086  0.0355 -0.0445
 5854TIP3    H139197   5.726   5.378   7.615 -1.7234  2.6945  0.6507
 5854TIP3    H239198   5.692   5.489   7.518 -2.2354 -0.9468 -3.6453
 5855TIP3   OH239199   5.186   4.388   1.820 -0.2637  0.1040  0.0607
 5855TIP3    H139200   5.232   4.316   1.864 -1.5602 -0.6382  0.2635
 5855TIP3    H239201   5.168   4.451   1.890 -1.0637 -0.4171  0.3445
 5856TIP3   OH239202   3.446   2.689   8.137 -0.1037  0.1472 -0.3551
 5856TIP3    H139203   3.500   2.614   8.158 -1.2400 -0.4732  0.4685
 5856TIP3    H239204   3.429   2.680   8.043 -0.1601 -0.5856 -0.2814
 5857TIP3   OH239205   5.135   6.384   0.501 -0.4500  0.3532 -0.1288
 5857TIP3    H139206   5.100   6.369   0.413  0.9895 -0.2715 -0.6391
 5857TIP3    H239207   5.147   6.478   0.506  3.1449  0.2080 -2.2234
 5858TIP3   OH239208   0.100   3.300   1.920 -0.3097  0.4663 -0.5159
 5858TIP3    H139209   0.034   3.369   1.920  0.2448  1.2018  3.0979
 5858TIP3    H239210   0.177   3.340   1.880 -0.8197  0.9549 -1.0271
 5859TIP3   OH239211   4.550   5.538   1.881  0.2994  0.1178 -0.4355
 5859TIP3    H139212   4.481   5.535   1.814 -0.5843  0.4287  0.4316
 5859TIP3    H239213   4.581   5.628   1.878  0.2502  0.1354 -0.4143
 5860TIP3   OH239214   1.366   5.554   8.028  0.1827  0.2870  0.1068
 5860TIP3    H139215   1.456   5.585   8.021  0.1947  0.1115 -0.6303
 5860TIP3    H239216   1.313   5.627   7.995 -0.0601  0.9210  1.7945
 5861TIP3   OH239217   3.535   5.212   1.007  0.4483 -0.3002  0.1154
 5861TIP3    H139218   3.535   5.291   0.953 -0.2962 -0.0750  0.4287
 5861TIP3    H239219   3.550   5.245   1.096 -1.5722 -0.3086  0.4956
 5862TIP3   OH239220   5.184   3.581   1.700  0.1594 -0.0516 -0.2655
 5862TIP3    H139221   5.121   3.616   1.763  0.7155  2.3963 -0.9835
 5862TIP3    H239222   5.129   3.538   1.634 -0.5253 -0.9640  0.8633
 5863TIP3   OH239223   6.174   3.035   3.127  0.0437 -0.2642  0.7002
 5863TIP3    H139224   6.156   3.127   3.144 -1.2231 -0.8367  2.7860
 5863TIP3    H239225   6.099   3.005   3.075  0.3531 -0.1987  0.2027
 5864TIP3   OH239226   2.797   2.405   8.856  0.0039 -0.1688  0.4955
 5864TIP3    H139227   2.706   2.374   8.861 -1.9533  4.3992 -1.0879
 5864TIP3    H239228   2.817   2.435   8.945  0.6911 -2.5483  1.2225
 5865TIP3   OH239229   0.518   5.116   7.421  0.2217 -0.1931 -0.7162
 5865TIP3    H139230   0.492   5.048   7.359  2.3452 -0.8338 -0.9913
 5865TIP3    H239231   0.613   5.105   7.430  0.5601  2.3691 -0.3238
 5866TIP3   OH239232   1.765   3.641   2.158 -0.3543 -0.0524  0.7910
 5866TIP3    H139233   1.736   3.556   2.126  1.2123 -0.2581 -0.1593
 5866TIP3    H239234   1.689   3.698   2.146 -0.4608 -0.6041 -1.4807
 5867TIP3   OH239235   2.849   2.449   7.775 -0.0888 -0.5585  0.2158
 5867TIP3    H139236   2.789   2.515   7.741  0.2393  0.4001  1.4297
 5867TIP3    H239237   2.819   2.367   7.737 -2.5883 -0.2253  1.3003
 5868TIP3   OH239238   2.062   0.843   0.481  0.6074 -0.0807 -0.1471
 5868TIP3    H139239   2.119   0.916   0.508  0.0903  0.2899 -0.0543
 5868TIP3    H239240   2.041   0.799   0.563 -1.0540  1.1107  0.1126
 5869TIP3   OH239241   4.258   1.194   2.591 -0.0115 -0.2261 -0.0400
 5869TIP3    H139242   4.309   1.240   2.657  0.5015 -1.7315  0.6463
 5869TIP3    H239243   4.173   1.239   2.591  0.5273  0.8272  0.4460
 5870TIP3   OH239244   3.256   3.135   1.032 -0.2128  0.4026  0.1395
 5870TIP3    H139245   3.184   3.083   0.996  0.0697 -1.4309  2.0284
 5870TIP3    H239246   3.334   3.105   0.985 -0.0250 -1.0895  1.3417
 5871TIP3   OH239247   5.467   0.119   8.549  0.1492  0.0564 -0.2726
 5871TIP3    H139248   5.382   0.160   8.565 -0.0632 -0.2685 -0.5826
 5871TIP3    H239249   5.470   0.045   8.609  0.1247 -0.0631 -0.4195
 5872TIP3   OH239250   0.245   4.705   8.351  0.0277 -0.3972  0.1512
 5872TIP3    H139251   0.164   4.662   8.322 -1.3317  1.8450  0.4383
 5872TIP3    H239252   0.313   4.640   8.334 -1.6769 -1.9832 -1.0572
 5873TIP3   OH239253   0.996   6.774   8.563 -0.1211 -0.5785  0.1351
 5873TIP3    H139254   1.049   6.716   8.616  0.3599 -0.3554 -0.0946
 5873TIP3    H239255   0.910   6.774   8.605  0.2051 -0.5360  0.8085
 5874TIP3   OH239256   3.490   3.684   1.895 -0.0788  0.0701  0.1613
 5874TIP3    H139257   3.540   3.760   1.924 -1.6606  0.5769  1.8259
 5874TIP3    H239258   3.464   3.704   1.805  2.0485  0.0827 -0.4987
 5875TIP3   OH239259   0.328   1.775   1.022  0.3208  0.0795  0.0547
 5875TIP3    H139260   0.288   1.689   1.032 -1.2267  0.7714  0.2356
 5875TIP3    H239261   0.327   1.812   1.111  0.3690  0.5168 -0.1234
 5876TIP3   OH239262   6.565   0.891   1.064  0.2267 -0.2432  0.5462
 5876TIP3    H139263   6.482   0.934   1.085 -0.2813  0.0506 -1.8000
 5876TIP3    H239264   6.600   0.865   1.149 -1.8714  0.3422  1.6736
 5877TIP3   OH239265   4.780   5.062   1.661 -0.2460 -0.2175 -0.1734
 5877TIP3    H139266   4.823   5.111   1.731 -0.4516 -0.3760  0.0634
 5877TIP3    H239267   4.695   5.037   1.697 -1.2434  1.5088 -1.2168
 5878TIP3   OH239268   1.843   3.280   1.703 -0.0586 -0.2150 -0.0075
 5878TIP3    H139269   1.922   3.298   1.651  0.7122  2.1638  1.7946
 5878TIP3    H239270   1.857   3.190   1.735  1.1886 -0.3848 -0.9111
 5879TIP3   OH239271   4.786   6.790   2.599  0.1299 -0.4749 -0.2910
 5879TIP3    H139272   4.699   6.769   2.632 -0.6435  1.1209 -1.2206
 5879TIP3    H239273   4.839   6.803   2.677 -0.9400  0.3830  0.3069
 5880TIP3   OH239274   1.361   2.954   8.414 -0.1842 -0.1202 -0.1730
 5880TIP3    H139275   1.454   2.935   8.399  0.1663  1.1033  0.3078
 5880TIP3    H239276   1.360   3.046   8.441 -1.4486 -0.3969  0.7954
 5881TIP3   OH239277   0.927   3.911   1.396  0.8129  0.5688 -0.2353
 5881TIP3    H139278   1.004   3.882   1.447  1.1435  2.2785  0.2890
 5881TIP3    H239279   0.914   4.002   1.422 -2.4747 -0.1254  1.0221
 5882TIP3   OH239280   2.519   5.577   7.528  0.1827 -0.2747 -0.2823
 5882TIP3    H139281   2.533   5.568   7.434 -1.7146 -1.2263 -0.5302
 5882TIP3    H239282   2.435   5.623   7.536  1.5458  2.2266  1.0077
 5883TIP3   OH239283   6.669   1.785   0.571 -0.2017 -0.4717  0.1487
 5883TIP3    H139284   6.681   1.754   0.660 -0.1890 -0.5828  0.1084
 5883TIP3    H239285   6.749   1.758   0.525  0.0522  0.1039  0.2499
 5884TIP3   OH239286   4.722   1.360   7.041 -0.3314 -0.0540 -0.2329
 5884TIP3    H139287   4.747   1.291   7.103 -1.1362  1.5044  1.9613
 5884TIP3    H239288   4.629   1.374   7.058 -0.3625  1.0273 -1.1986
 5885TIP3   OH239289   3.691   5.406   7.402  0.5188 -0.3396  0.2103
 5885TIP3    H139290   3.726   5.317   7.400  1.1800 -0.1774 -3.7094
 5885TIP3    H239291   3.596   5.395   7.403  0.5907 -1.1178 -0.5779
 5886TIP3   OH239292   3.333   4.614   7.009 -0.0632  0.5750  0.2226
 5886TIP3    H139293   3.327   4.530   7.055  2.2460  1.2742  1.9478
 5886TIP3    H239294   3.264   4.668   7.049  0.3251  0.3830  1.1848
 5887TIP3   OH239295   3.589   4.952   6.775 -0.1549 -0.4565  0.0636
 5887TIP3    H139296   3.565   5.022   6.715 -1.5657 -0.1511  0.9245
 5887TIP3    H239297   3.542   4.875   6.743 -4.0778  0.5404  2.7522
 5888TIP3   OH239298   2.292   6.707   8.815 -0.4182 -0.0733 -0.0127
 5888TIP3    H139299   2.347   6.646   8.766 -0.9438 -1.5425  1.1302
 5888TIP3    H239300   2.206   6.664   8.817 -1.0655  1.1905 -0.0087
 5889TIP3   OH239301   2.275   3.737   0.130 -0.5775  0.2184 -0.4941
 5889TIP3    H139302   2.192   3.779   0.155 -0.2326  0.9564 -0.5416
 5889TIP3    H239303   2.339   3.773   0.192 -0.3246 -0.4975 -0.3293
 5890TIP3   OH239304   6.550   2.250   1.261 -0.5155 -0.0085  0.2152
 5890TIP3    H139305   6.514   2.320   1.206  0.1342  0.4373  0.3354
 5890TIP3    H239306   6.490   2.245   1.335 -0.4482  0.5950  0.3220
 5891TIP3   OH239307   1.270   5.810   1.013 -0.8863 -0.4532 -0.0986
 5891TIP3    H139308   1.364   5.826   1.005 -0.8007 -0.7352  0.2969
 5891TIP3    H239309   1.230   5.879   0.961 -0.5425  1.1217  1.6163
 5892TIP3   OH239310   3.141   0.578   7.819  0.3474  0.1069 -0.1338
 5892TIP3    H139311   3.173   0.664   7.792 -0.1195  0.9632  1.8627
 5892TIP3    H239312   3.123   0.587   7.913 -0.0230 -2.0822  0.0650
 5893TIP3   OH239313   5.354   0.646   0.443  0.4617  0.1774 -0.7362
 5893TIP3    H139314   5.283   0.698   0.408  0.9628  0.3842 -1.4601
 5893TIP3    H239315   5.367   0.679   0.532 -0.4823 -0.0129 -0.5167
 5894TIP3   OH239316   5.351   6.547   7.194 -0.0776  0.7207 -0.2584
 5894TIP3    H139317   5.390   6.564   7.108  0.1497  2.9643  0.2309
 5894TIP3    H239318   5.261   6.521   7.174  0.0348  1.0051 -1.1765
 5895TIP3   OH239319   1.581   5.575   0.055  0.2395  0.0669  0.0346
 5895TIP3    H139320   1.541   5.606  -0.026 -0.7929 -0.4034  0.3506
 5895TIP3    H239321   1.642   5.507   0.027 -0.3738 -0.3426 -0.3236
 5896TIP3   OH239322   6.455   6.687   8.758  0.4109 -0.2157  0.1386
 5896TIP3    H139323   6.458   6.764   8.701 -1.3298  0.4153  0.8129
 5896TIP3    H239324   6.547   6.664   8.772  0.9142  0.2980 -1.9621
 5897TIP3   OH239325   0.994   3.476   0.676 -0.2015  0.4916 -0.1973
 5897TIP3    H139326   0.996   3.571   0.664  1.7725  0.4150 -0.7247
 5897TIP3    H239327   1.043   3.461   0.757  2.4370 -0.2484 -1.8147
 5898TIP3   OH239328   3.716   0.429   2.562  0.0332  0.2295  0.5951
 5898TIP3    H139329   3.773   0.352   2.559  0.2024  0.3640 -2.1397
 5898TIP3    H239330   3.775   0.503   2.554 -0.2854  0.5388  1.0980
 5899TIP3   OH239331   3.360   5.077   8.344 -0.2966 -0.2657 -0.5609
 5899TIP3    H139332   3.334   4.986   8.333 -1.5631  0.0163 -0.0319
 5899TIP3    H239333   3.422   5.075   8.417 -1.8976 -0.4741  0.8524
 5900TIP3   OH239334   0.933   4.416   1.939  0.3516 -0.1317 -0.1055
 5900TIP3    H139335   0.854   4.414   1.994  1.0573  0.0155  0.9587
 5900TIP3    H239336   0.991   4.352   1.979  1.1802  0.5331 -0.2074
 5901TIP3   OH239337   2.274   1.250   8.343 -0.1526  0.5350  0.5598
 5901TIP3    H139338   2.330   1.279   8.272 -0.9803  0.4898 -0.1221
 5901TIP3    H239339   2.313   1.289   8.422  0.9275  0.3541  0.1364
 5902TIP3   OH239340   0.156   2.491   2.307 -0.2217  0.1862  0.0359
 5902TIP3    H139341   0.123   2.570   2.263  0.1336 -0.4147 -1.3793
 5902TIP3    H239342   0.244   2.514   2.336 -0.7208  0.8192  1.1115
 5903TIP3   OH239343   5.243   6.409   7.718  0.5075  0.9098 -0.4494
 5903TIP3    H139344   5.225   6.454   7.800 -2.2735  0.2500 -0.5835
 5903TIP3    H239345   5.315   6.348   7.738  0.2362  1.1291  1.3353
 5904TIP3   OH239346   3.641   6.649   7.349 -0.0742 -0.0486 -0.2660
 5904TIP3    H139347   3.695   6.714   7.394 -1.5284  0.1230  1.3288
 5904TIP3    H239348   3.703   6.595   7.300  1.6211 -0.2369  1.9480
 5905TIP3   OH239349   1.388   0.208   8.200  0.5253 -0.0443  0.0729
 5905TIP3    H139350   1.481   0.204   8.225  0.5977 -0.2928 -0.2423
 5905TIP3    H239351   1.371   0.302   8.190  0.8382 -0.0174 -0.2284
 5906TIP3   OH239352   0.236   0.815   1.693  0.0131 -0.0491  0.6312
 5906TIP3    H139353   0.220   0.724   1.670 -1.2522  0.5752 -1.1476
 5906TIP3    H239354   0.178   0.830   1.768 -0.8725 -0.3264  0.0168
 5907TIP3   OH239355   6.745   2.614   7.692  0.2796 -0.1066 -0.6461
 5907TIP3    H139356   6.798   2.652   7.622 -0.1568 -0.0056 -0.9244
 5907TIP3    H239357   6.676   2.566   7.647  2.1745 -3.3375 -0.3774
 5908TIP3   OH239358   4.814   5.810   7.946  0.4315  0.2624 -0.1518
 5908TIP3    H139359   4.834   5.793   7.853 -0.2917 -0.5558 -0.1769
 5908TIP3    H239360   4.887   5.771   7.993  0.6087  0.3336 -0.3641
 5909TIP3   OH239361   6.691   5.202   7.574 -0.2141 -0.0235  0.0862
 5909TIP3    H139362   6.637   5.141   7.625  0.3444 -0.4862  0.1327
 5909TIP3    H239363   6.658   5.194   7.485  0.0624 -0.6320  0.0363
 5910TIP3   OH239364   5.717   1.310   7.928  0.1486  0.0673 -0.3340
 5910TIP3    H139365   5.792   1.260   7.895  0.4982  0.7726 -0.6320
 5910TIP3    H239366   5.731   1.314   8.022 -0.0284 -0.6271 -0.2708
 5911TIP3   OH239367   4.363   4.689   8.411 -0.2444  0.1128  0.0465
 5911TIP3    H139368   4.446   4.724   8.379 -0.3811  1.6458  1.2621
 5911TIP3    H239369   4.382   4.599   8.436  1.2838  0.6949  1.1021
 5912TIP3   OH239370   1.005   1.617   8.547 -0.0084 -0.0399  0.0000
 5912TIP3    H139371   1.069   1.546   8.544 -1.1407 -1.0755 -0.5402
 5912TIP3    H239372   1.053   1.691   8.585  0.8894 -1.4124  1.6748
 5913TIP3   OH239373   3.814   2.042   1.448  0.1815 -0.6788  0.2036
 5913TIP3    H139374   3.761   2.074   1.375 -0.0090 -3.2278 -0.8771
 5913TIP3    H239375   3.898   2.087   1.438  1.0683 -2.7439 -3.2227
 5914TIP3   OH239376   2.800   5.974   0.482  0.4191 -0.3255 -0.1518
 5914TIP3    H139377   2.780   5.882   0.498 -0.6704  0.0912  1.0025
 5914TIP3    H239378   2.873   5.972   0.420  2.5597 -2.0422  2.1975
 5915TIP3   OH239379   3.765   5.457   0.840  0.9169  0.2299 -0.3676
 5915TIP3    H139380   3.790   5.527   0.900 -0.5177  1.8659 -1.5836
 5915TIP3    H239381   3.830   5.461   0.770 -0.1790  1.6154 -1.3547
 5916TIP3   OH239382   4.319   5.429   7.615  0.0690  0.0034 -0.2662
 5916TIP3    H139383   4.229   5.459   7.603 -0.1524 -0.2369  0.6865
 5916TIP3    H239384   4.320   5.341   7.577 -0.1898 -0.1272  0.0258
 5917TIP3   OH239385   4.335   1.864   1.533 -0.2344  0.3020  0.9920
 5917TIP3    H139386   4.304   1.854   1.622 -0.4949 -0.9156  0.7801
 5917TIP3    H239387   4.404   1.930   1.539  0.3640 -0.3989  2.2497
 5918TIP3   OH239388   4.819   0.173   8.255  0.3065  0.3541  0.0213
 5918TIP3    H139389   4.811   0.082   8.283  0.2854  0.1636 -0.6069
 5918TIP3    H239390   4.791   0.224   8.332 -0.0958 -0.1753  0.2292
 5919TIP3   OH239391   2.969   3.242   8.652 -0.8617  0.5598  0.4563
 5919TIP3    H139392   2.977   3.190   8.731  1.6994  2.2647  1.4577
 5919TIP3    H239393   2.875   3.254   8.640 -1.3951 -1.5432  1.9468
 5920TIP3   OH239394   0.005   6.715   7.672  0.1732 -0.3452 -0.4419
 5920TIP3    H139395   0.096   6.688   7.678  0.0323 -1.0929 -1.3544
 5920TIP3    H239396  -0.007   6.739   7.580 -0.8373 -1.4131 -0.6252
 5921TIP3   OH239397   5.748   5.010   1.811  0.9810 -0.1419 -0.4014
 5921TIP3    H139398   5.828   5.017   1.863 -0.4521  0.7223  1.8534
 5921TIP3    H239399   5.705   4.931   1.842 -0.7318  1.2890  1.1047
 5922TIP3   OH239400   2.633   2.501   0.521  0.5446  0.0292  0.0454
 5922TIP3    H139401   2.699   2.453   0.469  0.0472  0.6090 -1.1528
 5922TIP3    H239402   2.560   2.440   0.528  0.8676 -0.2983  0.6504
 5923TIP3   OH239403   5.844   1.780   0.005  0.0032 -0.1313 -0.4717
 5923TIP3    H139404   5.908   1.709  -0.004 -1.5122 -1.6509  0.2353
 5923TIP3    H239405   5.799   1.762   0.088 -0.2359  1.8420 -0.1237
 5924TIP3   OH239406   1.048   3.870   8.451  0.1241  0.0913 -0.0801
 5924TIP3    H139407   0.968   3.856   8.502 -0.3753  1.1249 -0.5475
 5924TIP3    H239408   1.119   3.840   8.508 -0.6972 -2.9997 -0.4891
 5925TIP3   OH239409   5.712   4.506   0.068  0.2715 -0.4607  0.5275
 5925TIP3    H139410   5.750   4.487  -0.017 -0.9779 -0.0086 -0.1595
 5925TIP3    H239411   5.622   4.473   0.063 -1.3462  3.4021 -0.0164
 5926TIP3   OH239412   5.813   2.433   8.699  0.2643  0.0232 -0.2781
 5926TIP3    H139413   5.852   2.404   8.617  2.0156  2.5197 -0.4620
 5926TIP3    H239414   5.866   2.392   8.767  0.3916 -0.0736 -0.4359
 5927TIP3   OH239415   4.506   4.790   0.953  0.2230  0.5132  0.0600
 5927TIP3    H139416   4.515   4.720   1.018  1.0968  1.3803  0.8867
 5927TIP3    H239417   4.583   4.781   0.898 -0.5842 -0.3088 -0.9910
 5928TIP3   OH239418   5.034   6.680   0.383 -0.0776 -0.1484  0.0897
 5928TIP3    H139419   4.994   6.667   0.297 -0.7536  1.4731  0.1085
 5928TIP3    H239420   4.969   6.649   0.446 -0.1757 -0.0369  0.0435
 5929TIP3   OH239421   3.324   2.450   8.867 -0.2134 -0.4518 -0.1091
 5929TIP3    H139422   3.305   2.525   8.923  0.4625  0.4589 -1.0468
 5929TIP3    H239423   3.294   2.374   8.917  0.4339  0.3018  1.4994
 5930TIP3   OH239424   1.246   3.093   7.254  0.4676 -0.0966 -0.4052
 5930TIP3    H139425   1.312   3.106   7.186  0.4336  0.5648 -0.3146
 5930TIP3    H239426   1.254   3.000   7.277 -0.3901 -0.6723 -2.2132
 5931TIP3   OH239427   5.286   6.265   2.668  0.6851  0.7883  0.3790
 5931TIP3    H139428   5.362   6.246   2.614  0.1047 -0.5638 -0.0102
 5931TIP3    H239429   5.295   6.207   2.744  0.1576  0.7597  0.4277
 5932TIP3   OH239430   5.044   2.957   1.068  0.3194 -0.0909 -0.3796
 5932TIP3    H139431   4.955   2.942   1.101  0.8802 -1.9901  0.4414
 5932TIP3    H239432   5.035   3.027   1.004 -1.3308  1.6345  1.5940
 5933TIP3   OH239433   1.918   4.481   8.332 -0.0559 -0.1009 -0.6106
 5933TIP3    H139434   1.844   4.526   8.292  0.4209  0.5304 -0.7973
 5933TIP3    H239435   1.995   4.515   8.287  0.2916 -1.5201 -1.1448
 5934TIP3   OH239436   6.129   0.782   1.994  0.0929 -0.3362  0.2253
 5934TIP3    H139437   6.106   0.858   1.940  0.3947 -0.6399 -0.3469
 5934TIP3    H239438   6.077   0.791   2.074 -2.1168 -1.0648 -1.0503
 5935TIP3   OH239439   4.620   0.793   6.583  0.2495 -0.4028  0.2698
 5935TIP3    H139440   4.570   0.764   6.659  0.2511 -1.0982  0.0118
 5935TIP3    H239441   4.708   0.756   6.596 -0.1851 -1.9377 -0.8651
 5936TIP3   OH239442   4.526   3.872   7.825  0.8976  0.3580  0.2187
 5936TIP3    H139443   4.609   3.882   7.871  0.0396  3.5931  1.3414
 5936TIP3    H239444   4.460   3.903   7.887 -1.1226 -1.4542 -0.8757
 5937TIP3   OH239445   6.745   3.663   0.234 -1.0936 -0.1755 -0.0041
 5937TIP3    H139446   6.755   3.665   0.139  1.2313  0.8455  0.1936
 5937TIP3    H239447   6.776   3.749   0.263  0.0748 -1.1340  1.7842
 5938TIP3   OH239448   1.387   5.311   2.111 -0.1272 -0.4075 -0.0604
 5938TIP3    H139449   1.410   5.352   2.194  0.3722  0.9362 -0.8339
 5938TIP3    H239450   1.301   5.347   2.089  0.2702  0.1912 -0.6938
 5939TIP3   OH239451   5.078   3.254   8.930  0.6983  0.2173 -0.0312
 5939TIP3    H139452   5.004   3.287   8.878  0.1898 -3.2840 -1.8808
 5939TIP3    H239453   5.058   3.280   9.020 -1.4686  1.5563 -0.8138
 5940TIP3   OH239454   5.849   0.020   2.230 -0.5715  0.6461 -0.2192
 5940TIP3    H139455   5.865   0.008   2.136  1.1250 -0.3786  0.1567
 5940TIP3    H239456   5.879   0.108   2.249 -1.6345  1.1426 -0.7556
 5941TIP3   OH239457   2.160   2.796   7.567 -0.5374 -0.4685 -0.2425
 5941TIP3    H139458   2.219   2.825   7.497 -0.3670 -1.1137 -0.3773
 5941TIP3    H239459   2.104   2.871   7.584  1.8703  1.0951  1.5888
 5942TIP3   OH239460   4.129   2.574   7.560  0.0873  0.2456  0.4104
 5942TIP3    H139461   4.063   2.638   7.585  0.2168  0.1822  0.9321
 5942TIP3    H239462   4.083   2.490   7.561  0.0235  0.2765  0.1531
 5943TIP3   OH239463   6.412   5.121   0.853  0.0915  0.0410  0.9251
 5943TIP3    H139464   6.470   5.187   0.891 -0.7590  0.4436  1.5518
 5943TIP3    H239465   6.332   5.127   0.905 -0.6117 -0.3263 -0.0938
 5944TIP3   OH239466   4.938   0.081   1.775  0.5571  0.2122 -0.1202
 5944TIP3    H139467   4.958   0.121   1.860 -0.9212 -1.1159  0.9078
 5944TIP3    H239468   4.914  -0.009   1.796  0.5018 -0.2598 -2.0114
 5945TIP3   OH239469   5.261   5.759   1.528  0.0248 -0.1916 -0.1225
 5945TIP3    H139470   5.206   5.709   1.468 -1.7630  1.8103 -0.2979
 5945TIP3    H239471   5.221   5.745   1.614  1.2869 -1.3559  0.2906
 5946TIP3   OH239472   3.823   3.925   1.580  0.5011 -0.0827  0.0598
 5946TIP3    H139473   3.862   3.934   1.493  0.8730  0.3284  0.2594
 5946TIP3    H239474   3.815   4.015   1.612  1.9840 -0.2793  1.1389
 5947TIP3   OH239475   4.458   4.980   1.406  0.4302  0.1511  0.8209
 5947TIP3    H139476   4.409   4.952   1.330 -2.0751 -2.4104  3.1457
 5947TIP3    H239477   4.544   5.006   1.372 -0.6718 -0.4789 -2.8099
 5948TIP3   OH239478   0.087   4.180   2.287  1.1520  0.0418 -0.0186
 5948TIP3    H139479   0.095   4.176   2.382 -0.1419 -2.5416  0.0533
 5948TIP3    H239480   0.003   4.222   2.271  0.5943 -1.0016  0.0675
 5949TIP3   OH239481   2.946   5.716   0.871 -0.0360 -0.2823  0.3673
 5949TIP3    H139482   2.927   5.623   0.886 -0.6266 -0.2377 -0.0700
 5949TIP3    H239483   2.881   5.744   0.807 -1.0362  0.8897  1.8194
 5950TIP3   OH239484   0.651   5.591   1.622 -0.5995  0.2098  0.1454
 5950TIP3    H139485   0.706   5.631   1.555  0.1184  0.2497  0.7497
 5950TIP3    H239486   0.562   5.606   1.591 -0.3268  1.4369 -0.1145
 5951TIP3   OH239487   3.721   6.370   8.467 -0.1904  0.9055 -0.2078
 5951TIP3    H139488   3.693   6.429   8.538 -0.8220  0.0471  0.2684
 5951TIP3    H239489   3.641   6.351   8.419 -0.3469 -1.0114  0.7348
 5952TIP3   OH239490   6.153   1.207   8.496 -0.0533  0.2187 -0.6037
 5952TIP3    H139491   6.237   1.242   8.467  0.5583 -0.3932  0.3567
 5952TIP3    H239492   6.152   1.116   8.466  0.2241 -0.1693  0.5099
 5953TIP3   OH239493   6.717   1.414   1.416 -0.4924 -0.2807 -0.2795
 5953TIP3    H139494   6.720   1.507   1.395 -0.7805 -0.2612 -0.2343
 5953TIP3    H239495   6.667   1.409   1.497 -0.8630 -0.5117 -0.5183
 5954TIP3   OH239496   3.954   6.084   1.357  0.5021  0.1743 -0.0370
 5954TIP3    H139497   3.907   6.153   1.403  0.4054  0.2034 -0.1795
 5954TIP3    H239498   4.045   6.115   1.354  0.2251  0.9374 -1.2939
 5955TIP3   OH239499   0.025   2.478   1.675  0.2702  0.7894 -0.1896
 5955TIP3    H139500   0.059   2.530   1.602  0.4888  1.0361  0.0848
 5955TIP3    H239501   0.081   2.401   1.678  0.1320  0.6800 -0.4124
 5956TIP3   OH239502   2.598   5.681   1.739 -0.1150 -0.2057  0.0642
 5956TIP3    H139503   2.595   5.586   1.726  1.1423 -0.1588 -0.7510
 5956TIP3    H239504   2.676   5.695   1.792 -1.5744  0.2110  2.2320
 5957TIP3   OH239505   5.190   3.248   7.226  0.1518 -0.4296 -0.5765
 5957TIP3    H139506   5.183   3.267   7.132 -1.5972  1.0054 -0.2145
 5957TIP3    H239507   5.100   3.232   7.253  0.5499 -0.1328  0.9900
 5958TIP3   OH239508   1.807   2.385   2.455 -0.4761  0.9211  0.3867
 5958TIP3    H139509   1.853   2.303   2.442 -0.3167  1.3114 -1.8941
 5958TIP3    H239510   1.874   2.446   2.485 -0.5722  0.3018  1.9735
 5959TIP3   OH239511   4.758   4.035   1.484 -0.3327  0.0127  0.0562
 5959TIP3    H139512   4.736   4.093   1.556 -2.8000  1.4919 -1.7494
 5959TIP3    H239513   4.805   3.962   1.525  1.3016  2.3415  2.6590
 5960TIP3   OH239514   1.655   0.600   0.623 -0.3300 -0.6229  0.1957
 5960TIP3    H139515   1.623   0.681   0.583 -0.8436  0.1352  2.0190
 5960TIP3    H239516   1.580   0.567   0.673  0.1239 -1.7943  0.1405
 5961TIP3   OH239517   1.337   1.017   2.209  0.7252  0.6269  0.7522
 5961TIP3    H139518   1.410   0.956   2.204  0.7688  0.7125  0.3319
 5961TIP3    H239519   1.326   1.034   2.303  0.6314 -0.1191  0.8762
 5962TIP3   OH239520   0.269   2.390   6.955 -0.2682  0.3957  0.0378
 5962TIP3    H139521   0.364   2.393   6.961 -0.1897 -1.5933  0.4127
 5962TIP3    H239522   0.250   2.416   6.865  0.6116  0.7291 -0.0643
 5963TIP3   OH239523   5.086   0.986   2.616 -0.0721 -0.2608  0.2206
 5963TIP3    H139524   5.097   0.893   2.632  0.9943 -0.4927 -1.7034
 5963TIP3    H239525   5.172   1.018   2.591 -0.5183  1.1710  0.3612
 5964TIP3   OH239526   6.572   1.228   2.238  0.8177  0.5076 -0.2876
 5964TIP3    H139527   6.608   1.309   2.274 -1.5996  1.1942  0.7808
 5964TIP3    H239528   6.489   1.217   2.284 -0.2391 -1.0687 -2.4427
 5965TIP3   OH239529   2.468   0.190   1.668 -0.2359  0.1204  0.1222
 5965TIP3    H139530   2.432   0.276   1.646 -1.7342 -0.1218  1.4278
 5965TIP3    H239531   2.520   0.165   1.592 -0.4273  1.8264 -0.6077
 5966TIP3   OH239532   4.488   0.143   8.411  0.1569  0.4130  0.2244
 5966TIP3    H139533   4.569   0.160   8.459  0.4775 -1.1793  0.2810
 5966TIP3    H239534   4.445   0.072   8.459 -1.0397  0.9006 -0.0902
 5967TIP3   OH239535   4.657   0.993   8.909  0.4581  0.5471 -0.3378
 5967TIP3    H139536   4.616   0.991   8.995  0.6867  1.5388 -0.1933
 5967TIP3    H239537   4.660   0.901   8.882  1.8585  0.0160  1.4060
 5968TIP3   OH239538   1.080   6.639   2.115  0.5666 -0.0541 -0.0540
 5968TIP3    H139539   1.136   6.575   2.158  0.8509  0.3994  0.2632
 5968TIP3    H239540   1.134   6.718   2.108  1.0404 -0.5012 -2.5090
 5969TIP3   OH239541   3.592   0.540   8.711 -0.1006  0.3148 -0.3154
 5969TIP3    H139542   3.597   0.449   8.741  1.3556  0.6934  0.7243
 5969TIP3    H239543   3.553   0.587   8.785 -0.6169  0.5678 -0.7503
 5970TIP3   OH239544   4.549   0.750   8.604 -0.0189  0.4689  0.8621
 5970TIP3    H139545   4.482   0.752   8.673 -2.8113 -2.8911 -1.3909
 5970TIP3    H239546   4.519   0.814   8.540  0.0418  0.4057  0.7706
 5971TIP3   OH239547   2.197   5.614   7.866  0.1244 -0.2937 -0.2724
 5971TIP3    H139548   2.267   5.582   7.923 -0.0866  0.0556  0.1874
 5971TIP3    H239549   2.206   5.563   7.786  0.6843 -0.4984 -0.0813
 5972TIP3   OH239550   6.769   2.249   1.479  0.1647 -0.2762  0.7618
 5972TIP3    H139551   6.782   2.225   1.387  2.4810  3.5130 -0.0911
 5972TIP3    H239552   6.679   2.222   1.498 -0.6357 -0.6095 -2.8095
 5973TIP3   OH239553   6.729   4.610   8.574 -0.1232  0.3279  0.3110
 5973TIP3    H139554   6.773   4.613   8.490 -1.3107 -0.8644 -0.3934
 5973TIP3    H239555   6.799   4.618   8.638  0.8180  1.0275 -0.7759
 5974TIP3   OH239556   0.163   1.791   8.929  0.2783  0.8227 -0.2514
 5974TIP3    H139557   0.113   1.776   8.848 -1.0753  2.1091  0.2887
 5974TIP3    H239558   0.255   1.792   8.901  0.0521 -1.5707 -1.2902
 5975TIP3   OH239559   1.947   2.384   8.136 -0.1756  0.2548 -0.2091
 5975TIP3    H139560   1.966   2.387   8.230 -0.5101  0.5598 -0.1489
 5975TIP3    H239561   1.883   2.454   8.122  0.2219  0.5151 -0.7474
 5976TIP3   OH239562   0.667   4.906   0.709  0.2458 -0.0807 -0.0623
 5976TIP3    H139563   0.718   4.957   0.772 -0.5789  0.5364  0.1164
 5976TIP3    H239564   0.636   4.831   0.758 -0.2370  0.3009  0.2181
 5977TIP3   OH239565   4.306   0.728   0.628  0.5735  0.2831  0.0642
 5977TIP3    H139566   4.238   0.680   0.674  0.4648 -0.2729 -0.6525
 5977TIP3    H239567   4.258   0.786   0.569  0.6880  1.7261  1.3305
 5978TIP3   OH239568   3.269   1.825   8.486 -0.2896 -0.3961 -0.0632
 5978TIP3    H139569   3.326   1.902   8.480 -0.6761 -0.0973  0.0753
 5978TIP3    H239570   3.225   1.821   8.401 -1.3147  0.3601  0.4114
 5979TIP3   OH239571   2.008   2.737   2.650  0.3440  0.0301  0.0109
 5979TIP3    H139572   1.997   2.647   2.680  1.0784 -0.3848 -0.9017
 5979TIP3    H239573   1.919   2.774   2.650  0.2951  0.1090  2.6750
 5980TIP3   OH239574   4.917   6.273   7.091  0.2136  0.2351  0.1420
 5980TIP3    H139575   4.830   6.234   7.098  0.0108  0.6013 -0.3098
 5980TIP3    H239576   4.901   6.363   7.062  0.7950 -0.0546 -1.1544
 5981TIP3   OH239577   0.740   2.742   8.900 -0.2176 -0.0471 -0.4792
 5981TIP3    H139578   0.651   2.753   8.867 -0.3053  0.2443 -0.1540
 5981TIP3    H239579   0.746   2.649   8.923 -1.7390  0.5571  3.1228
 5982TIP3   OH239580   0.995   4.557   8.463 -0.3939 -0.2040  0.6789
 5982TIP3    H139581   1.009   4.527   8.373  1.5442 -0.5758  1.0462
 5982TIP3    H239582   0.925   4.622   8.457 -0.3173 -0.2481 -1.0885
 5983TIP3   OH239583   5.699   2.308   7.015  0.3956 -0.2885 -0.0164
 5983TIP3    H139584   5.661   2.352   6.939 -0.5537 -1.9256 -0.5414
 5983TIP3    H239585   5.746   2.377   7.062 -0.3213  1.0813 -1.2348
 5984TIP3   OH239586   2.494   0.898   0.774 -0.4127 -0.1789  0.0340
 5984TIP3    H139587   2.511   0.903   0.868 -0.9703 -0.8194  0.1765
 5984TIP3    H239588   2.494   0.804   0.755 -1.5962 -0.1120 -0.3679
 5985TIP3   OH239589   4.810   1.952   0.914 -0.3390 -0.3971  0.1546
 5985TIP3    H139590   4.874   1.971   0.983 -2.6790 -2.3017  3.0532
 5985TIP3    H239591   4.749   2.025   0.917 -0.5918 -0.6144  0.2603
 5986TIP3   OH239592   0.629   1.428   1.741 -0.4499  0.5396 -0.2648
 5986TIP3    H139593   0.648   1.335   1.754  1.5515  0.4194 -3.0886
 5986TIP3    H239594   0.701   1.474   1.786 -0.5130  0.6415 -0.2673
 5987TIP3   OH239595   0.256   1.022   8.347 -0.1921  0.2977 -0.6210
 5987TIP3    H139596   0.314   0.947   8.336 -0.8541 -0.2428 -0.4710
 5987TIP3    H239597   0.306   1.096   8.312  0.0451 -0.3930 -1.7868
 5988TIP3   OH239598   0.962   2.896   2.175  0.3405 -0.2956 -0.3394
 5988TIP3    H139599   0.867   2.884   2.171  0.1230  0.9922  0.4815
 5988TIP3    H239600   0.979   2.971   2.118  0.1248  2.8807  3.3331
 5989TIP3   OH239601   5.656   1.028   7.074 -0.0058 -0.1405 -0.2630
 5989TIP3    H139602   5.747   1.056   7.079  0.0656 -0.4943  0.7094
 5989TIP3    H239603   5.648   0.986   6.988  0.6133  0.3264 -0.5541
 5990TIP3   OH239604   6.381   6.572   8.484 -0.2585 -0.2950  0.1722
 5990TIP3    H139605   6.417   6.632   8.419 -0.2899 -0.7579 -0.2764
 5990TIP3    H239606   6.404   6.612   8.568  2.0903 -1.0065 -0.0660
 5991TIP3   OH239607   2.473   0.611   8.028  0.5018  0.3864  0.1385
 5991TIP3    H139608   2.488   0.532   8.080  0.4019  0.7514  0.7290
 5991TIP3    H239609   2.424   0.669   8.086 -1.0605  0.1786 -0.9003
 5992TIP3   OH239610   4.913   3.086   2.822 -0.5458 -0.6786 -0.4895
 5992TIP3    H139611   4.960   3.114   2.901 -0.1683  0.2165 -1.0112
 5992TIP3    H239612   4.981   3.082   2.754 -0.6165 -2.7198 -0.4946
 5993TIP3   OH239613   0.013   6.168   1.725 -0.7337 -0.5177 -0.7970
 5993TIP3    H139614   0.055   6.082   1.727 -1.6478 -0.9837  1.4226
 5993TIP3    H239615   0.056   6.217   1.795 -1.1443  0.3695 -1.1564
 5994TIP3   OH239616   6.197   2.808   0.886  0.2744 -0.0142 -0.1163
 5994TIP3    H139617   6.274   2.850   0.923 -0.0526  2.1416 -1.7147
 5994TIP3    H239618   6.123   2.841   0.938  0.2144 -0.3366  0.0067
 5995TIP3   OH239619   4.370   0.803   0.903 -0.0167  0.1909 -0.2346
 5995TIP3    H139620   4.372   0.799   0.807  0.6731  1.1444 -0.2731
 5995TIP3    H239621   4.455   0.767   0.930  0.3540  1.1986 -0.0423
 5996TIP3   OH239622   2.562   2.065   0.448 -0.1515  0.2929 -0.7568
 5996TIP3    H139623   2.614   2.105   0.518 -0.1573  0.4661 -0.8508
 5996TIP3    H239624   2.521   2.139   0.404 -1.2995  0.1004 -0.0477
 5997TIP3   OH239625   6.318   6.061   8.718  0.0160  0.8031 -0.1391
 5997TIP3    H139626   6.389   6.036   8.777 -1.3831  0.0375  1.3242
 5997TIP3    H239627   6.352   6.135   8.669  3.0588 -1.6095 -2.0285
 5998TIP3   OH239628   5.458   0.099   2.867 -0.5940  0.1063 -0.1741
 5998TIP3    H139629   5.539   0.049   2.881  0.1352  1.6003  1.4254
 5998TIP3    H239630   5.478   0.186   2.903 -2.1550  1.2376 -1.8900
 5999TIP3   OH239631   4.896   0.592   2.012 -0.2960  0.7042 -0.4676
 5999TIP3    H139632   4.931   0.512   1.973  0.8357  0.9645 -0.0518
 5999TIP3    H239633   4.973   0.634   2.051 -1.4245  0.1771  2.5801
 6000TIP3   OH239634   6.614   2.172   0.077 -0.5802 -0.2446  0.2464
 6000TIP3    H139635   6.599   2.089   0.121  0.7031  0.4161  2.0469
 6000TIP3    H239636   6.592   2.238   0.142  1.8634  0.7569  0.1807
 6001TIP3   OH239637   1.506   5.377   7.403  0.2297  0.9049 -0.5224
 6001TIP3    H139638   1.586   5.326   7.411  0.9537  2.1155  0.2218
 6001TIP3    H239639   1.503   5.403   7.311 -0.0527 -0.2766 -0.8700
 6002TIP3   OH239640   3.942   0.398   1.263  0.0948 -0.9725 -0.1428
 6002TIP3    H139641   4.028   0.379   1.300  0.5231  0.7818 -0.1510
 6002TIP3    H239642   3.901   0.312   1.251  0.5890 -1.7199  2.7759
 6003TIP3   OH239643   1.341   3.512   1.927  0.2586  0.0057  0.5686
 6003TIP3    H139644   1.393   3.589   1.949 -0.2623  1.0196 -1.4855
 6003TIP3    H239645   1.252   3.535   1.951 -0.0673  0.5145 -1.0110
 6004TIP3   OH239646   2.479   6.340   1.104 -0.3354  0.1144 -0.1988
 6004TIP3    H139647   2.469   6.401   1.030 -1.8609  0.9347  0.6377
 6004TIP3    H239648   2.395   6.344   1.150 -0.4082 -2.4992  0.0198
 6005TIP3   OH239649   6.257   6.643   1.959  0.0106  0.3812 -0.5132
 6005TIP3    H139650   6.196   6.687   2.017  1.2260  1.6297 -0.1395
 6005TIP3    H239651   6.202   6.589   1.902 -1.1729 -2.3756  2.8954
 6006TIP3   OH239652   0.014   4.609   7.889  0.0454 -0.2063 -0.1512
 6006TIP3    H139653  -0.068   4.656   7.905  1.4706  2.3084  0.3091
 6006TIP3    H239654   0.082   4.676   7.898  2.2529 -2.4030  0.4655
 6007TIP3   OH239655   2.593   1.723   1.471  0.0950  0.1163  0.6077
 6007TIP3    H139656   2.499   1.742   1.469  0.2705  1.0605 -1.5541
 6007TIP3    H239657   2.602   1.639   1.426  0.2896  0.0393  0.7895
 6008TIP3   OH239658   1.914   5.887   0.101 -0.0747 -0.6666  0.1497
 6008TIP3    H139659   1.874   5.945   0.165  0.3060  0.0423 -0.2429
 6008TIP3    H239660   1.976   5.834   0.151 -0.1413 -0.4650  0.4437
 6009TIP3   OH239661   5.357   4.877   7.550 -0.5190  0.3579  0.0216
 6009TIP3    H139662   5.325   4.824   7.478  2.1004 -0.6934 -0.4968
 6009TIP3    H239663   5.358   4.818   7.626  1.2273 -0.0749 -0.2730
 6010TIP3   OH239664   6.633   5.279   8.392  0.1793  0.2546  0.4155
 6010TIP3    H139665   6.644   5.302   8.299  2.0405  0.0265  0.5401
 6010TIP3    H239666   6.540   5.296   8.409 -0.7478 -1.6851 -1.9986
 6011TIP3   OH239667   4.135   4.713   7.401 -0.0390  0.2435 -0.3792
 6011TIP3    H139668   4.050   4.743   7.369 -1.0802  0.2595  2.2002
 6011TIP3    H239669   4.114   4.643   7.462  1.9681 -1.0666 -1.0963
 6012TIP3   OH239670   6.714   2.967   1.952  0.2203  0.0621 -0.1871
 6012TIP3    H139671   6.659   2.959   1.874  0.2964  1.6752 -0.4280
 6012TIP3    H239672   6.788   2.908   1.935 -0.1394 -0.1767 -0.9798
 6013TIP3   OH239673   3.977   2.674   8.787 -0.5584  0.5786  0.0067
 6013TIP3    H139674   3.965   2.769   8.782  1.5153  0.8226 -1.8280
 6013TIP3    H239675   4.070   2.663   8.809 -0.4487 -0.9980 -1.0892
 6014TIP3   OH239676   3.660   2.062   7.680 -0.0076 -0.2307 -0.1468
 6014TIP3    H139677   3.647   2.009   7.759 -0.6283  1.9284  1.3169
 6014TIP3    H239678   3.572   2.083   7.650  0.0497  2.5605  1.2754
 6015TIP3   OH239679   2.868   0.526   0.353  0.1904  0.9176 -0.2107
 6015TIP3    H139680   2.906   0.553   0.270 -0.2887  1.5150 -0.2383
 6015TIP3    H239681   2.933   0.550   0.419  0.5186  0.5499 -0.3981
 6016TIP3   OH239682   1.622   0.015   1.841 -0.0064  0.2746  0.1399
 6016TIP3    H139683   1.587   0.095   1.801  0.8426  0.6393  0.1036
 6016TIP3    H239684   1.548  -0.047   1.840 -1.3068  1.6955  2.0467
 6017TIP3   OH239685   1.274   1.992   7.555 -0.0196  0.4663  0.4233
 6017TIP3    H139686   1.318   1.998   7.470 -1.2399  1.6566 -0.1656
 6017TIP3    H239687   1.183   1.973   7.534 -0.6128  2.0419  1.3548
 6018TIP3   OH239688   0.166   4.375   7.823 -0.1254 -0.1832  0.2057
 6018TIP3    H139689   0.107   4.450   7.831  0.0752 -0.1686  2.1781
 6018TIP3    H239690   0.240   4.407   7.772 -0.0094  0.9939  1.0759
 6019TIP3   OH239691   0.810   0.067   7.658 -0.2021  0.2746  0.0103
 6019TIP3    H139692   0.719   0.099   7.655  0.3348  1.8657 -0.3411
 6019TIP3    H239693   0.854   0.114   7.586  0.4043 -2.1704 -1.3052
 6020TIP3   OH239694   5.847   5.746   1.890  0.0079  0.3577  0.3289
 6020TIP3    H139695   5.838   5.824   1.835 -0.8720 -0.1905 -0.3419
 6020TIP3    H239696   5.861   5.780   1.978 -1.0766  1.2927  0.1658
 6021TIP3   OH239697   6.702   4.542   8.897  0.4549 -0.2595 -0.0477
 6021TIP3    H139698   6.739   4.526   8.810  3.3813 -0.8829  1.1966
 6021TIP3    H239699   6.701   4.638   8.904 -0.2881 -0.1875 -0.9236
 6022TIP3   OH239700   5.848   3.426   1.155 -0.0407 -0.9073 -0.2842
 6022TIP3    H139701   5.867   3.407   1.063 -0.8499  2.0159 -1.1632
 6022TIP3    H239702   5.765   3.383   1.172  1.0055 -3.0739 -0.2574
 6023TIP3   OH239703   5.879   3.303   8.614  0.0940  0.0032 -0.2398
 6023TIP3    H139704   5.844   3.383   8.653 -0.2064 -0.1936 -0.1032
 6023TIP3    H239705   5.802   3.249   8.596  0.2121  0.1419 -1.2384
 6024TIP3   OH239706   6.247   6.121   7.546  0.0068  0.2663  0.5474
 6024TIP3    H139707   6.271   6.210   7.570 -0.8753  0.3967  0.9929
 6024TIP3    H239708   6.331   6.075   7.536  0.4598  1.0851  0.5164
 6025TIP3   OH239709   6.170   3.404   7.533  0.7339 -0.5338  0.1300
 6025TIP3    H139710   6.213   3.489   7.526  1.8411 -1.0930 -0.0093
 6025TIP3    H239711   6.227   3.352   7.590  1.2168 -1.8697 -1.4786
 6026TIP3   OH239712   1.518   1.998   1.726 -0.3697 -0.2159  0.1400
 6026TIP3    H139713   1.578   1.963   1.792  2.0666  1.9053 -0.7604
 6026TIP3    H239714   1.472   1.921   1.692 -0.1675 -1.5997  2.7939
 6027TIP3   OH239715   2.058   1.253   0.000 -0.0037 -0.7773  0.7775
 6027TIP3    H139716   2.150   1.271  -0.020 -0.1784 -1.2954 -0.5513
 6027TIP3    H239717   2.061   1.195   0.077  0.6652  1.4082  2.4996
 6028TIP3   OH239718   6.452   1.012   1.635 -0.2487 -0.3461  0.3604
 6028TIP3    H139719   6.404   1.071   1.693 -1.1415 -0.1051 -0.6164
 6028TIP3    H239720   6.385   0.962   1.589  0.4258 -0.1041 -0.9207
 6029TIP3   OH239721   0.359   2.189   8.076  0.1386 -0.2281  0.6001
 6029TIP3    H139722   0.301   2.113   8.073  0.1026 -0.2041  0.6915
 6029TIP3    H239723   0.436   2.158   8.123 -0.2689  0.0582  1.4808
 6030TIP3   OH239724   1.662   0.265   0.426  1.3772 -0.2336  0.3215
 6030TIP3    H139725   1.607   0.219   0.489  0.3762  0.9596  0.3703
 6030TIP3    H239726   1.662   0.356   0.456  0.4796  0.4773 -1.6189
 6031TIP3   OH239727   5.343   5.914   8.204  0.0440 -0.2946  0.1777
 6031TIP3    H139728   5.307   5.993   8.246  0.5549  0.0424 -0.0078
 6031TIP3    H239729   5.308   5.842   8.256 -1.9915 -0.0858 -0.7688
 6032TIP3   OH239730   4.050   0.116   6.568 -0.5084 -0.1581 -0.1008
 6032TIP3    H139731   4.016   0.200   6.599  0.5671  0.3199 -0.1783
 6032TIP3    H239732   4.083   0.135   6.480 -1.1647 -0.9003 -0.5156
 6033TIP3   OH239733   4.917   2.278   1.380  0.3634  0.1629 -0.3248
 6033TIP3    H139734   4.948   2.367   1.397  1.5956 -0.4502  0.7553
 6033TIP3    H239735   4.914   2.271   1.285 -2.0138  2.1016 -0.5054
 6034TIP3   OH239736   0.602   2.340   0.006  0.6701  0.7753  0.1083
 6034TIP3    H139737   0.648   2.266   0.045 -0.0733  0.6658  0.7993
 6034TIP3    H239738   0.619   2.332  -0.088  0.2360 -0.5426  0.1185
 6035TIP3   OH239739   3.135   3.527   8.893 -0.1365  0.0359  0.2375
 6035TIP3    H139740   3.179   3.451   8.855  1.3312  0.3947  1.1217
 6035TIP3    H239741   3.046   3.498   8.911  0.4658 -1.5566  0.7814
 6036TIP3   OH239742   4.502   5.193   1.575 -0.1659  0.3077  0.0062
 6036TIP3    H139743   4.444   5.269   1.581 -0.2154  0.2286  0.5451
 6036TIP3    H239744   4.463   5.138   1.507  1.2505  1.9449 -2.3246
 6037TIP3   OH239745   1.170   3.103   1.441  0.4219 -1.1362  0.1514
 6037TIP3    H139746   1.208   3.091   1.529  3.2936  0.7023 -0.6917
 6037TIP3    H239747   1.122   3.023   1.425 -0.6195 -1.3759  3.5572
 6038TIP3   OH239748   5.009   5.745   0.748  0.2350 -1.0529  0.0472
 6038TIP3    H139749   5.067   5.676   0.715  0.7667 -0.5229 -0.1604
 6038TIP3    H239750   5.046   5.769   0.833  0.4717 -0.5466 -0.1916
 6039TIP3   OH239751   6.360   3.922   0.331 -0.0625  0.0322  0.4572
 6039TIP3    H139752   6.410   3.982   0.276 -0.3865  0.6157  0.7848
 6039TIP3    H239753   6.336   3.850   0.273 -0.2163  0.5325 -0.1062
 6040TIP3   OH239754   3.847   4.915   7.842  0.2375 -0.4034  0.4831
 6040TIP3    H139755   3.875   5.005   7.855  2.0988 -0.4535 -2.4135
 6040TIP3    H239756   3.755   4.921   7.819  0.2563  0.7292  0.6634
 6041TIP3   OH239757   1.482   5.891   7.906 -0.3379  0.1102  0.5455
 6041TIP3    H139758   1.510   5.894   7.814 -3.4200 -1.5680 -0.6137
 6041TIP3    H239759   1.501   5.978   7.940 -0.2023  1.1934 -2.0624
 6042TIP3   OH239760   1.464   4.890   0.895 -0.4792 -0.1892  0.0610
 6042TIP3    H139761   1.382   4.851   0.865 -0.2037  0.1901 -1.2469
 6042TIP3    H239762   1.507   4.922   0.815  0.5716  0.3381  0.8013
 6043TIP3   OH239763   1.500   6.702   0.567 -0.0774  0.0100 -0.0470
 6043TIP3    H139764   1.484   6.771   0.502 -1.8068  1.4360  1.7699
 6043TIP3    H239765   1.584   6.726   0.606 -0.4224  0.8595  0.2174
 6044TIP3   OH239766   3.119   3.410   7.755  0.6274 -0.2043  0.3783
 6044TIP3    H139767   3.100   3.503   7.764  2.6520  0.2450  0.5625
 6044TIP3    H239768   3.034   3.369   7.742 -0.3305  1.6382  0.5160
 6045TIP3   OH239769   4.490   6.671   0.151  0.0146 -0.1197  0.3637
 6045TIP3    H139770   4.540   6.597   0.186 -0.1360 -0.1289  0.5657
 6045TIP3    H239771   4.538   6.749   0.181  0.1132 -0.1351  0.2432
 6046TIP3   OH239772   5.665   5.165   8.310  0.4125  0.6426 -1.0462
 6046TIP3    H139773   5.749   5.137   8.274  0.1733  1.0463 -1.9368
 6046TIP3    H239774   5.633   5.230   8.248  0.1435  1.6109  0.0823
 6047TIP3   OH239775   3.439   5.221   1.988 -0.1558  0.0764  0.2536
 6047TIP3    H139776   3.362   5.189   2.036  0.8697 -0.7047  1.4383
 6047TIP3    H239777   3.444   5.165   1.911  0.3154 -1.1491  1.1564
 6048TIP3   OH239778   5.077   3.044   0.751  0.2737 -0.2077 -0.6085
 6048TIP3    H139779   4.992   3.086   0.767  0.4207  0.5309 -1.7110
 6048TIP3    H239780   5.141   3.109   0.777  0.6142 -1.5147  2.3311
 6049TIP3   OH239781   0.435   5.314   7.849 -0.1421 -0.4227  0.2530
 6049TIP3    H139782   0.488   5.239   7.821 -0.0633 -0.2370 -0.0908
 6049TIP3    H239783   0.470   5.336   7.936 -0.7516 -1.3394  0.7507
 6050TIP3   OH239784   2.217   0.641   8.121  0.2941 -0.1407 -0.2169
 6050TIP3    H139785   2.147   0.676   8.067  0.4424  0.6207  0.0622
 6050TIP3    H239786   2.234   0.553   8.086  0.1864  0.2190 -1.2108
 6051TIP3   OH239787   3.622   3.473   0.358 -0.4363  0.9392  0.0161
 6051TIP3    H139788   3.620   3.547   0.298  0.1146  0.2198 -0.9249
 6051TIP3    H239789   3.530   3.449   0.369 -0.5155  0.5898 -1.1993
 6052TIP3   OH239790   4.695   0.522   6.889 -0.3455 -0.0016 -0.3862
 6052TIP3    H139791   4.616   0.558   6.848 -0.6258 -1.0081 -0.7598
 6052TIP3    H239792   4.710   0.439   6.844 -0.3109 -0.8631  1.1386
 6053TIP3   OH239793   3.395   3.143   7.516  0.0268 -0.0378  0.3514
 6053TIP3    H139794   3.452   3.180   7.449  1.8274 -0.2002  1.7408
 6053TIP3    H239795   3.316   3.117   7.468  0.3017  1.9257 -1.3144
 6054TIP3   OH239796   3.223   5.880   8.679 -0.3630 -0.4272 -0.0255
 6054TIP3    H139797   3.250   5.875   8.770  0.9911  0.3030 -0.3688
 6054TIP3    H239798   3.127   5.879   8.682 -0.3261 -0.9290  1.3568
 6055TIP3   OH239799   3.367   3.864   8.389  0.3675 -0.2363  0.0449
 6055TIP3    H139800   3.453   3.824   8.394 -0.4649 -2.1059  0.4751
 6055TIP3    H239801   3.370   3.919   8.311  1.6393 -1.0568 -0.5073
 6056TIP3   OH239802   4.252   1.920   8.778  0.5692 -0.0805 -0.0786
 6056TIP3    H139803   4.230   1.829   8.800  0.2079  0.4566  1.9549
 6056TIP3    H239804   4.262   1.920   8.683 -0.4670 -2.0204 -0.2240
 6057TIP3   OH239805   1.151   6.060   0.900  0.0315  0.5522  0.2610
 6057TIP3    H139806   1.122   6.139   0.945 -0.0343  0.8812 -0.3476
 6057TIP3    H239807   1.211   6.091   0.832  0.3045  0.0462  0.2623
 6058TIP3   OH239808   1.863   4.017   8.410 -0.1602  0.3233 -0.0339
 6058TIP3    H139809   1.776   4.003   8.372  1.0114 -1.8131 -2.1976
 6058TIP3    H239810   1.907   4.077   8.349  0.9195 -1.1830 -0.8076
 6059TIP3   OH239811   6.325   1.145   1.014  0.2966 -0.0472 -0.6194
 6059TIP3    H139812   6.254   1.082   1.005  0.3201 -0.2092  0.2426
 6059TIP3    H239813   6.292   1.225   0.974  0.4494 -0.7353 -2.1813
 6060TIP3   OH239814   2.741   4.403   8.259 -0.3251  0.4029 -0.7314
 6060TIP3    H139815   2.802   4.332   8.279 -1.6005 -0.2143  1.3489
 6060TIP3    H239816   2.674   4.362   8.204  0.7123  0.8943 -2.3966
 6061TIP3   OH239817   5.577   3.386   0.126 -0.2338 -0.2588  0.5624
 6061TIP3    H139818   5.650   3.340   0.084  0.6551 -0.0920  1.8533
 6061TIP3    H239819   5.509   3.320   0.136  0.6531 -1.0761  1.5017
 6062TIP3   OH239820   3.237   4.202   8.761 -0.4253  0.2698 -0.5575
 6062TIP3    H139821   3.211   4.291   8.784  0.5347  1.2642 -2.9494
 6062TIP3    H239822   3.172   4.146   8.804 -0.2011  1.9654  2.2411
 6063TIP3   OH239823   3.176   5.514   0.798 -0.0844  0.0766  0.4664
 6063TIP3    H139824   3.210   5.603   0.803 -2.0474  0.8302  1.3436
 6063TIP3    H239825   3.160   5.489   0.889 -3.3359  0.4456  0.1112
 6064TIP3   OH239826   2.942   6.126   8.520  0.2116 -0.0751  0.4115
 6064TIP3    H139827   2.883   6.128   8.596  0.4529 -0.2526  0.6082
 6064TIP3    H239828   2.895   6.076   8.454 -0.2935  0.6782  0.1946
 6065TIP3   OH239829   3.719   2.566   8.675 -0.1692 -0.7638 -0.5305
 6065TIP3    H139830   3.815   2.571   8.673 -0.2155  0.2534 -1.0740
 6065TIP3    H239831   3.695   2.533   8.588 -0.3389 -0.1401 -0.7288
 6066TIP3   OH239832   2.412   4.652   7.576 -0.5818  0.0848 -0.4045
 6066TIP3    H139833   2.439   4.646   7.668 -1.5309  0.5557 -0.0738
 6066TIP3    H239834   2.449   4.574   7.535  1.4585  0.8072 -0.0643
 6067TIP3   OH239835   0.517   2.935   7.284 -0.4050 -0.3882 -0.1649
 6067TIP3    H139836   0.572   3.012   7.287 -0.6318 -0.2579  1.4672
 6067TIP3    H239837   0.528   2.901   7.195  2.5256 -0.5587  0.1766
 6068TIP3   OH239838   6.596   1.860   7.517 -0.1520  0.1740 -0.6160
 6068TIP3    H139839   6.511   1.905   7.518  0.0404  0.5464 -0.9445
 6068TIP3    H239840   6.581   1.781   7.569 -0.4066  0.7733  0.2504
 6069TIP3   OH239841   0.435   6.032   2.333 -0.2407  0.1248 -0.4452
 6069TIP3    H139842   0.437   6.124   2.308 -1.6236  0.5615  0.8992
 6069TIP3    H239843   0.490   6.027   2.411  1.5702 -0.6407 -1.7038
 6070TIP3   OH239844   4.137   1.976   2.024  0.4661  0.5670 -0.3809
 6070TIP3    H139845   4.176   2.031   1.956 -1.0450  0.8597 -1.0457
 6070TIP3    H239846   4.166   2.015   2.106  2.0525  0.4097 -0.8315
 6071TIP3   OH239847   4.932   1.299   1.527  0.1556 -0.1243  0.4924
 6071TIP3    H139848   4.964   1.385   1.500  2.1355 -0.6411  1.0472
 6071TIP3    H239849   4.878   1.270   1.453  2.7737 -0.1025 -1.5873
 6072TIP3   OH239850   1.650   6.408   8.150  0.3898 -0.2387 -0.2074
 6072TIP3    H139851   1.626   6.435   8.061  0.5922 -2.4102 -0.9854
 6072TIP3    H239852   1.567   6.401   8.197  0.2569  0.6381 -0.3068
 6073TIP3   OH239853   4.083   3.140   1.216 -0.2058  0.0402 -0.0872
 6073TIP3    H139854   4.006   3.134   1.272 -0.5439  0.6200 -0.4778
 6073TIP3    H239855   4.086   3.057   1.169  0.6867 -0.8947  1.5346
 6074TIP3   OH239856   2.955   0.048   1.713 -0.4378 -0.1501 -0.2023
 6074TIP3    H139857   2.878  -0.008   1.711 -0.5942 -0.0646  1.5828
 6074TIP3    H239858   2.924   0.130   1.752  0.0331  0.8084 -1.7457
 6075TIP3   OH239859   4.653   2.027   0.006 -0.1332 -0.7729 -0.3424
 6075TIP3    H139860   4.622   2.117   0.001 -2.5597 -1.5944 -1.5523
 6075TIP3    H239861   4.745   2.035   0.030 -0.2150  2.0117 -0.6165
 6076TIP3   OH239862   1.488   3.126   7.443 -0.0935 -0.1083 -0.5408
 6076TIP3    H139863   1.482   3.117   7.348  1.3271  1.7069 -0.8425
 6076TIP3    H239864   1.410   3.176   7.468  0.8740  1.7968 -1.1569
 6077TIP3   OH239865   0.937   5.389   8.567 -0.0586  0.2396 -0.1065
 6077TIP3    H139866   0.991   5.356   8.496  0.8996  1.4626  0.0184
 6077TIP3    H239867   0.966   5.341   8.644  1.4144  1.3952  0.1007
 6078TIP3   OH239868   4.261   2.045   6.777 -0.0844 -0.3807 -0.3926
 6078TIP3    H139869   4.328   1.989   6.738 -1.9969 -1.7672 -1.9092
 6078TIP3    H239870   4.307   2.125   6.801  2.3301 -1.7567 -0.1711
 6079TIP3   OH239871   3.679   2.363   0.387  0.0035 -0.0232 -0.2403
 6079TIP3    H139872   3.749   2.427   0.402 -0.4789  0.0207  2.2418
 6079TIP3    H239873   3.603   2.417   0.367  0.3237 -0.0106 -1.5087
 6080TIP3   OH239874   5.307   2.329   7.185  0.5431  0.1280 -0.3130
 6080TIP3    H139875   5.357   2.265   7.134  2.4674  0.2299  1.3473
 6080TIP3    H239876   5.294   2.287   7.270  2.4468  2.1038  1.0671
 6081TIP3   OH239877   2.474   2.929   8.626  0.0045 -0.1288  0.1598
 6081TIP3    H139878   2.454   2.839   8.652 -1.5595  0.2932  0.5370
 6081TIP3    H239879   2.400   2.980   8.659  1.5084  1.5219  1.1572
 6082TIP3   OH239880   3.738   4.699   7.494  0.1435 -0.7327  0.1016
 6082TIP3    H139881   3.654   4.676   7.454  0.7066 -0.0557 -1.5569
 6082TIP3    H239882   3.776   4.615   7.521  0.5446 -1.4682 -2.4956
 6083TIP3   OH239883   6.417   2.913   8.002  0.3890  0.0189  0.3701
 6083TIP3    H139884   6.477   2.979   8.037  1.6075  0.6604 -2.5706
 6083TIP3    H239885   6.470   2.833   7.995  0.4183  0.1131 -0.6394
 6084TIP3   OH239886   0.195   3.723   1.377  0.0892  0.0740  0.7417
 6084TIP3    H139887   0.245   3.799   1.348  0.2704 -0.7440 -1.2634
 6084TIP3    H239888   0.104   3.747   1.362  0.1201  0.0997  0.5901
 6085TIP3   OH239889   3.363   5.074   7.526  0.1178 -0.5548  0.6268
 6085TIP3    H139890   3.358   5.167   7.547  2.0020 -0.8614  2.8842
 6085TIP3    H239891   3.442   5.066   7.473 -0.3103 -0.8302  0.0181
 6086TIP3   OH239892   4.272   5.942   8.637 -0.0742  0.4320  0.1600
 6086TIP3    H139893   4.319   5.888   8.701 -0.6127 -1.9459 -1.2867
 6086TIP3    H239894   4.338   6.004   8.605  0.7530  0.2904  1.5257
 6087TIP3   OH239895   0.894   1.355   0.099  0.5606  0.0837  0.2619
 6087TIP3    H139896   0.966   1.297   0.124 -1.7223 -2.6754  0.9320
 6087TIP3    H239897   0.876   1.407   0.177  1.1312  0.0579  0.4168
 6088TIP3   OH239898   1.688   1.638   0.511 -0.0164  0.6708 -0.1398
 6088TIP3    H139899   1.703   1.645   0.606  2.8092 -3.0587 -0.0778
 6088TIP3    H239900   1.647   1.552   0.500  0.6119  0.6002 -2.3906
 6089TIP3   OH239901   2.315   1.301   0.516 -0.0446  0.4001  0.5947
 6089TIP3    H139902   2.231   1.255   0.519 -0.1169  0.4818 -0.0928
 6089TIP3    H239903   2.376   1.237   0.482  0.1682  0.3586  1.0439
 6090TIP3   OH239904   2.082   5.397   1.118  0.7599  0.9131 -0.3810
 6090TIP3    H139905   2.040   5.407   1.203  0.3379 -1.0987 -0.2943
 6090TIP3    H239906   2.175   5.410   1.135  0.6071  1.1913  0.2583
 6091TIP3   OH239907   6.365   1.145   8.137  0.1522  0.0400 -0.1956
 6091TIP3    H139908   6.420   1.081   8.092  1.7112  0.7562  0.6198
 6091TIP3    H239909   6.399   1.230   8.109 -0.8792  0.5130 -0.0656
 6092TIP3   OH239910   5.819   3.958   0.791 -0.0664  0.5456 -0.1397
 6092TIP3    H139911   5.862   4.043   0.779  0.0287  0.6712  0.9611
 6092TIP3    H239912   5.865   3.918   0.865 -1.1141  0.2051  0.3477
 6093TIP3   OH239913   3.451   2.489   0.330 -0.1167 -0.1189 -0.2918
 6093TIP3    H139914   3.408   2.528   0.254  1.5804  0.6751 -0.8891
 6093TIP3    H239915   3.401   2.521   0.405  0.2754  1.9951 -0.8659
 6094TIP3   OH239916   5.784   0.783   0.326 -0.2295  0.3151 -0.1370
 6094TIP3    H139917   5.721   0.719   0.292 -0.6333  1.1319 -0.9806
 6094TIP3    H239918   5.847   0.731   0.375 -0.1652 -0.8050 -1.3676
 6095TIP3   OH239919   3.806   2.333   1.015  0.0628  0.0045  0.6989
 6095TIP3    H139920   3.895   2.316   0.984  0.4620  0.2592  1.6453
 6095TIP3    H239921   3.759   2.252   0.999  0.1742  0.2173 -0.7821
 6096TIP3   OH239922   3.247   3.315   1.936 -0.6532  0.0530  0.4327
 6096TIP3    H139923   3.165   3.288   1.978  0.2698 -2.7413  0.6900
 6096TIP3    H239924   3.283   3.381   1.994 -2.2810  0.7039  0.7639
 6097TIP3   OH239925   0.284   0.738   8.046 -0.1406  0.5051 -0.3634
 6097TIP3    H139926   0.223   0.678   8.005  1.0114 -0.6949 -0.4155
 6097TIP3    H239927   0.333   0.776   7.974  1.5155 -1.1999 -0.2474
 6098TIP3   OH239928   3.588   3.804   0.936 -0.3562 -0.0048 -0.2574
 6098TIP3    H139929   3.665   3.786   0.990  0.6549 -1.3284 -2.0239
 6098TIP3    H239930   3.603   3.892   0.901  0.0367  0.0165 -0.0423
 6099TIP3   OH239931   2.398   6.495   7.804  0.4592  0.0486  0.3468
 6099TIP3    H139932   2.399   6.400   7.797 -1.6220 -0.1273  1.6536
 6099TIP3    H239933   2.406   6.526   7.714 -2.0800 -1.4677 -0.4932
 6100TIP3   OH239934   0.059   2.001   7.550  0.0656 -0.4840 -0.1931
 6100TIP3    H139935   0.131   1.939   7.567 -0.8192 -1.2430  0.9098
 6100TIP3    H239936  -0.013   1.946   7.519  0.0291  0.3108 -1.5856
 6101TIP3   OH239937   1.296   4.329   1.232  0.2516 -0.1107 -0.0404
 6101TIP3    H139938   1.201   4.336   1.223 -0.0468  0.6529  2.7708
 6101TIP3    H239939   1.317   4.382   1.309  2.9871 -0.1825 -0.6416
 6102TIP3   OH239940   3.069   1.608   2.000  0.7190  0.4275  0.0968
 6102TIP3    H139941   3.124   1.577   2.073 -0.2100 -0.2054  0.5455
 6102TIP3    H239942   2.982   1.572   2.018  0.1342  1.4525 -0.5831
 6103TIP3   OH239943   3.821   2.277   6.923 -0.4512 -0.6459 -0.1657
 6103TIP3    H139944   3.858   2.217   6.988 -1.1347 -1.0782 -0.1691
 6103TIP3    H239945   3.729   2.283   6.946 -0.4421  0.2159 -0.3197
 6104TIP3   OH239946   3.197   1.832   8.223  0.0930 -0.3732 -0.2049
 6104TIP3    H139947   3.204   1.927   8.224  4.2647 -0.4711 -1.2391
 6104TIP3    H239948   3.142   1.813   8.147  0.4758  1.2333 -0.9294
 6105TIP3   OH239949   4.664   6.347   0.584 -0.0559  0.3094 -0.6307
 6105TIP3    H139950   4.693   6.420   0.529  0.5854  2.2452  2.0379
 6105TIP3    H239951   4.745   6.301   0.606 -0.2512 -0.1821 -0.9443
 6106TIP3   OH239952   1.131   5.425   2.132  0.8351  0.1325  0.0430
 6106TIP3    H139953   1.094   5.369   2.200 -0.6777  2.3684  1.1851
 6106TIP3    H239954   1.113   5.515   2.161  1.9281  1.2436 -2.3366
 6107TIP3   OH239955   1.343   2.396   2.358 -0.1620 -0.0365  0.1187
 6107TIP3    H139956   1.281   2.375   2.428  1.3076 -2.3990  0.8677
 6107TIP3    H239957   1.426   2.360   2.390  1.1103  1.0413 -1.8003
 6108TIP3   OH239958   3.481   4.635   7.470  0.2633  0.1073 -0.0281
 6108TIP3    H139959   3.460   4.723   7.501  0.3394 -0.2046  0.9420
 6108TIP3    H239960   3.410   4.613   7.410  1.4697  1.7457 -2.2071
 6109TIP3   OH239961   2.640   6.148   7.942 -0.4530  0.2844  0.0900
 6109TIP3    H139962   2.684   6.072   7.905 -0.4632  0.5596 -0.4873
 6109TIP3    H239963   2.547   6.123   7.943 -0.7124  1.0091 -1.9143
 6110TIP3   OH239964   5.022   6.303   8.292  0.3043 -0.4365 -0.0530
 6110TIP3    H139965   5.019   6.381   8.237 -0.0865 -0.8633 -0.6495
 6110TIP3    H239966   5.000   6.335   8.380  1.3571  0.3216 -0.0366
 6111TIP3   OH239967   2.458   5.739   0.461  0.0562 -0.2134 -0.0065
 6111TIP3    H139968   2.427   5.688   0.386 -0.5550 -1.5136  1.0956
 6111TIP3    H239969   2.552   5.724   0.464  0.3677  1.1901 -1.4718
 6112TIP3   OH239970   0.048   3.086   1.735 -0.9326 -0.2626  0.2217
 6112TIP3    H139971   0.134   3.120   1.761 -1.4968 -0.2484  2.2583
 6112TIP3    H239972  -0.013   3.128   1.796 -2.5979  0.8391 -2.0674
 6113TIP3   OH239973   2.947   4.774   7.879  0.1508  0.2606 -0.2687
 6113TIP3    H139974   2.931   4.865   7.852  1.3305  0.8639  0.9241
 6113TIP3    H239975   2.867   4.748   7.923 -1.1418 -0.1562 -2.6649
 6114TIP3   OH239976   1.247   1.296   2.184 -0.2808 -0.8576 -0.3253
 6114TIP3    H139977   1.268   1.202   2.184  1.0730 -0.5728 -0.0300
 6114TIP3    H239978   1.322   1.338   2.143 -0.0633  0.2564  1.1287
 6115TIP3   OH239979   2.359   2.936   0.230 -0.1167 -0.2595  0.2225
 6115TIP3    H139980   2.404   2.966   0.151  0.4514  1.9535  1.3191
 6115TIP3    H239981   2.266   2.941   0.208  0.0400  0.0970 -0.3858
 6116TIP3   OH239982   3.154   2.204   8.436  0.3622 -0.0694 -0.1360
 6116TIP3    H139983   3.074   2.220   8.488  0.7366  0.8562  0.1714
 6116TIP3    H239984   3.222   2.252   8.483  1.1726 -1.1191 -0.2206
 6117TIP3   OH239985   6.166   2.371   1.586  0.1241 -0.2130  0.4206
 6117TIP3    H139986   6.147   2.280   1.566 -0.9428 -0.7455  3.4326
 6117TIP3    H239987   6.081   2.415   1.578  0.1682  0.0307  1.2162
 6118TIP3   OH239988   5.580   1.248   0.465  0.1676  0.0912 -0.0686
 6118TIP3    H139989   5.519   1.182   0.497 -1.1527  1.4857  0.4301
 6118TIP3    H239990   5.559   1.257   0.372 -1.3026  1.4451  0.3574
 6119TIP3   OH239991   5.730   2.675   8.809 -0.0185  0.2129  0.6096
 6119TIP3    H139992   5.782   2.749   8.777 -0.4552  1.4803  2.6205
 6119TIP3    H239993   5.781   2.598   8.786  1.7426  1.2894  0.7338
 6120TIP3   OH239994   2.426   4.552   1.800 -0.0366 -0.1383 -0.1172
 6120TIP3    H139995   2.410   4.578   1.710  0.0903 -1.4812 -0.5465
 6120TIP3    H239996   2.427   4.457   1.798  1.2599 -0.1831  1.0785
 6121TIP3   OH239997   4.144   6.139   1.855  0.0133 -0.3906  0.6588
 6121TIP3    H139998   4.136   6.062   1.798 -2.0229 -0.5357  1.0605
 6121TIP3    H239999   4.116   6.107   1.941  0.9163  0.3723  1.2452
 6122TIP3   OH240000   2.540   3.858   1.347 -0.3292  0.2701 -0.3755
 6122TIP3    H140001   2.504   3.826   1.264  1.1311 -1.0602 -0.5420
 6122TIP3    H240002   2.604   3.924   1.322  0.5468 -0.5578 -0.3721
 6123TIP3   OH240003   2.332   5.841   1.141 -0.9676  0.9479 -0.1784
 6123TIP3    H140004   2.399   5.906   1.162 -0.1119 -0.0045  0.1586
 6123TIP3    H240005   2.302   5.810   1.227 -0.2985 -0.1401 -0.3167
 6124TIP3   OH240006   0.288   6.052   7.403  0.2023  0.1192  0.0224
 6124TIP3    H140007   0.228   6.015   7.338 -0.6662  2.7822 -0.8193
 6124TIP3    H240008   0.369   6.068   7.354 -0.5242  2.3335 -0.5524
 6125TIP3   OH240009   4.352   1.045   8.626 -0.2091 -0.1149 -0.2573
 6125TIP3    H140010   4.288   1.115   8.643 -0.6774 -0.5663 -0.1358
 6125TIP3    H240011   4.314   0.996   8.554  0.3959  0.0884 -0.7195
 6126TIP3   OH240012   1.365   0.484   0.171 -0.0674  0.3074 -0.2434
 6126TIP3    H140013   1.298   0.540   0.132 -1.3578  0.4309  1.9464
 6126TIP3    H240014   1.404   0.538   0.239  0.3643 -0.6632  0.2911
 6127TIP3   OH240015   3.762   0.119   1.498  0.0586 -0.2955  0.6438
 6127TIP3    H140016   3.759   0.041   1.554 -1.4568 -0.8999 -0.2272
 6127TIP3    H240017   3.678   0.162   1.513  1.1226  1.5657  1.5843
 6128TIP3   OH240018   5.257   5.852   7.446 -0.3805 -0.6924  0.4769
 6128TIP3    H140019   5.271   5.827   7.355  0.2284 -0.4271  0.4908
 6128TIP3    H240020   5.165   5.834   7.463 -0.5315 -0.5969 -0.2370
 6129TIP3   OH240021   1.041   2.372   2.237 -0.3300 -0.4200 -0.2970
 6129TIP3    H140022   1.108   2.306   2.254 -0.0661 -0.0356  0.1958
 6129TIP3    H240023   1.009   2.352   2.149  0.2373 -0.7816 -0.4279
 6130TIP3   OH240024   2.796   2.317   8.202 -0.3578  0.5543 -0.0405
 6130TIP3    H140025   2.871   2.364   8.239  1.8065 -0.9348 -2.2018
 6130TIP3    H240026   2.723   2.379   8.207  1.3966  2.6814  0.6413
 6131TIP3   OH240027   4.175   3.275   2.637 -0.0053  0.0923  0.4355
 6131TIP3    H140028   4.120   3.205   2.673 -0.7140 -0.0855 -0.9260
 6131TIP3    H240029   4.254   3.274   2.690 -1.0027 -0.1494  1.9710
 6132TIP3   OH240030   4.963   3.873   6.715 -0.6192  0.3377 -0.4334
 6132TIP3    H140031   4.907   3.871   6.793 -1.7714 -0.8760 -1.2556
 6132TIP3    H240032   5.050   3.893   6.749 -1.3411  1.2578  1.0032
 6133TIP3   OH240033   0.909   0.278   8.817 -0.7617  0.0897 -0.3207
 6133TIP3    H140034   0.871   0.235   8.894  2.1750  0.1521  1.3337
 6133TIP3    H240035   0.926   0.206   8.756  0.0216 -0.5126  0.5700
 6134TIP3   OH240036   2.749   0.160   8.777  0.2485  0.1427 -0.6678
 6134TIP3    H140037   2.755   0.158   8.872  0.7419 -2.8317 -0.6720
 6134TIP3    H240038   2.661   0.196   8.760 -0.4525 -0.6792  0.9634
 6135TIP3   OH240039   0.796   6.412   0.758 -0.1821  0.0213 -0.8109
 6135TIP3    H140040   0.711   6.454   0.772 -0.0492 -0.0520  0.2588
 6135TIP3    H240041   0.806   6.353   0.832  0.9448  0.2542 -0.7662
 6136TIP3   OH240042   1.633   5.549   0.655 -0.0029  0.4481  0.0032
 6136TIP3    H140043   1.618   5.585   0.742  1.4768  1.0462  0.0357
 6136TIP3    H240044   1.597   5.614   0.595 -1.4411 -0.1751  0.1446
 6137TIP3   OH240045   2.629   1.447   7.908 -0.0026  0.2023  0.3134
 6137TIP3    H140046   2.619   1.539   7.934 -0.3580  0.0752  0.6569
 6137TIP3    H240047   2.585   1.441   7.824 -0.9173  0.1301  0.7807
 6138TIP3   OH240048   6.377   0.958   0.809 -0.7847  0.3596  0.4208
 6138TIP3    H140049   6.368   1.051   0.830 -1.4008  0.4553 -0.2350
 6138TIP3    H240050   6.405   0.918   0.891  1.8361  1.4511  0.1683
 6139TIP3   OH240051   1.168   6.703   8.377 -0.1138 -0.2437  0.8905
 6139TIP3    H140052   1.254   6.728   8.342 -0.3549  0.1358  0.5608
 6139TIP3    H240053   1.173   6.725   8.470 -0.1371  0.5493  0.7112
 6140TIP3   OH240054   2.364   4.880   1.374 -0.1730  0.4216  0.5372
 6140TIP3    H140055   2.398   4.941   1.440 -0.7577  3.3719 -1.7151
 6140TIP3    H240056   2.270   4.898   1.371 -0.4139 -0.8037 -0.0717
 6141TIP3   OH240057   2.985   1.577   8.528 -0.0528 -0.0370  0.1904
 6141TIP3    H140058   3.018   1.528   8.453 -0.9033 -0.2031 -0.0901
 6141TIP3    H240059   3.044   1.556   8.600  0.0349 -0.8704 -0.1275
 6142TIP3   OH240060   6.326   5.289   2.267  0.5626  0.3964  0.1286
 6142TIP3    H140061   6.387   5.346   2.314  0.4608 -0.3972  1.2517
 6142TIP3    H240062   6.253   5.276   2.328  1.5719 -2.6930  0.8211
 6143TIP3   OH240063   2.716   1.588   0.064  0.0239 -0.0166 -0.7362
 6143TIP3    H140064   2.711   1.648  -0.010 -1.3445 -1.5060 -1.9198
 6143TIP3    H240065   2.718   1.501   0.025 -0.0934 -0.8386  0.9647
 6144TIP3   OH240066   0.457   2.146   8.743 -0.5547  0.2528  0.0024
 6144TIP3    H140067   0.376   2.117   8.703 -0.0199  0.0594 -0.9727
 6144TIP3    H240068   0.498   2.066   8.776 -0.5962  0.3019  0.1710
 6145TIP3   OH240069   4.681   0.915   7.156  0.1725  0.0702  0.2581
 6145TIP3    H140070   4.606   0.863   7.126  0.0628 -0.0902  0.7958
 6145TIP3    H240071   4.651   1.006   7.149  0.2826  0.0581 -0.4639
 6146TIP3   OH240072   5.303   1.617   7.196 -0.4186 -0.3187  0.2406
 6146TIP3    H140073   5.364   1.667   7.251 -0.9972  0.6181  0.0565
 6146TIP3    H240074   5.333   1.527   7.203  1.8292  0.2643 -0.9224
 6147TIP3   OH240075   3.171   0.038   1.043 -0.1362 -0.6073 -0.2158
 6147TIP3    H140076   3.092   0.090   1.058 -0.3603  0.3379 -3.7424
 6147TIP3    H240077   3.140  -0.052   1.042 -1.4338 -0.2033 -2.3634
 6148TIP3   OH240078   1.058   3.598   1.055 -0.3758 -0.2791  0.0891
 6148TIP3    H140079   1.101   3.559   0.979  0.0052 -0.8889  0.6057
 6148TIP3    H240080   0.991   3.534   1.080 -0.2036 -0.2852  0.5371
 6149TIP3   OH240081   6.720   1.343   8.884  0.1218 -0.1132  0.1266
 6149TIP3    H140082   6.643   1.383   8.925  0.6946  0.8300  0.3200
 6149TIP3    H240083   6.703   1.347   8.790 -0.7701 -1.3912  0.2190
 6150TIP3   OH240084   3.621   3.715   0.214 -0.9836  0.9471  0.1710
 6150TIP3    H140085   3.650   3.731   0.124 -4.1979 -0.3567 -1.2437
 6150TIP3    H240086   3.543   3.769   0.224 -1.4341  0.0608  1.7165
 6151TIP3   OH240087   4.676   2.217   8.330 -0.6567  0.2303 -0.6181
 6151TIP3    H140088   4.685   2.312   8.316 -0.8481  0.0622 -2.0159
 6151TIP3    H240089   4.601   2.192   8.277 -0.6896 -0.6886 -0.1472
 6152TIP3   OH240090   0.978   5.662   8.293 -0.1511  0.5886 -0.6230
 6152TIP3    H140091   0.990   5.698   8.381 -2.3809 -1.1336  0.4833
 6152TIP3    H240092   0.887   5.683   8.271  0.2414  0.5962 -2.3550
 6153TIP3   OH240093   1.177   3.447   6.976 -0.1785  0.0451 -0.5676
 6153TIP3    H140094   1.091   3.472   6.943 -0.6884 -0.0964  0.5847
 6153TIP3    H240095   1.226   3.420   6.899 -0.7678  1.2654 -1.3982
 6154TIP3   OH240096   5.285   3.127   8.350  0.1608 -0.0190  0.2318
 6154TIP3    H140097   5.231   3.190   8.398  0.1732 -1.2112  1.9029
 6154TIP3    H240098   5.321   3.070   8.418  2.2335 -0.2615 -0.9931
 6155TIP3   OH240099   2.453   3.881   0.350  0.1292 -0.9235  0.4350
 6155TIP3    H140100   2.540   3.846   0.330  1.0007  0.3503  1.7380
 6155TIP3    H240101   2.437   3.853   0.441 -0.8065 -1.0924  0.2277
 6156TIP3   OH240102   0.785   3.743   2.165 -0.1626  0.0388  0.1834
 6156TIP3    H140103   0.720   3.698   2.220  0.7577 -2.1337 -0.3776
 6156TIP3    H240104   0.803   3.680   2.094  1.4296  1.2093 -0.5071
 6157TIP3   OH240105   5.263   1.136   1.346 -0.4094 -0.2706  0.4955
 6157TIP3    H140106   5.352   1.100   1.355 -1.1690 -2.0333  1.4921
 6157TIP3    H240107   5.263   1.178   1.260  1.5972  0.4477  0.7821
 6158TIP3   OH240108   4.042   6.087   8.686  0.1973  0.1660 -0.2093
 6158TIP3    H140109   3.999   6.096   8.601 -1.9882  1.0141  0.9177
 6158TIP3    H240110   4.133   6.066   8.664  0.1284  2.0102 -2.7802
 6159TIP3   OH240111   0.775   6.570   1.547  0.1819  0.0785  0.4955
 6159TIP3    H140112   0.806   6.536   1.463  0.5609 -0.0916  0.7030
 6159TIP3    H240113   0.854   6.594   1.594 -0.0710  1.1100  0.4200
 6160TIP3   OH240114   3.298   3.782   2.757  0.0525  0.2639  0.1020
 6160TIP3    H140115   3.301   3.821   2.669 -1.5911  0.3506  0.0543
 6160TIP3    H240116   3.386   3.747   2.771  0.0018 -0.8739 -2.0951
 6161TIP3   OH240117   6.223   3.949   7.756 -0.1079  0.1618  0.3100
 6161TIP3    H140118   6.302   3.986   7.796 -1.9747  2.8009  1.8305
 6161TIP3    H240119   6.219   3.860   7.792  2.0440  0.0048  0.3196
 6162TIP3   OH240120   4.743   3.059   1.500 -0.1921 -0.9427  0.0346
 6162TIP3    H140121   4.776   3.084   1.586  2.4410  1.2217 -1.4665
 6162TIP3    H240122   4.660   3.016   1.518 -0.4703  0.7464  3.5441
 6163TIP3   OH240123   6.555   4.779   8.842 -0.2777 -0.3000  0.6119
 6163TIP3    H140124   6.619   4.840   8.877  0.9512 -1.3068  0.2054
 6163TIP3    H240125   6.506   4.749   8.918 -0.9016  1.1461  0.8195
 6164TIP3   OH240126   1.737   5.533   8.294  0.3570 -0.2811 -0.4335
 6164TIP3    H140127   1.714   5.575   8.211  0.6490 -2.4472 -1.6932
 6164TIP3    H240128   1.655   5.492   8.322  0.3884  0.0177  0.1084
 6165TIP3   OH240129   2.581   2.734   1.096  0.2733  0.0315  0.5709
 6165TIP3    H140130   2.505   2.751   1.153  1.5959  1.3959  2.0478
 6165TIP3    H240131   2.583   2.808   1.036 -0.7900 -1.1244 -0.9600
 6166TIP3   OH240132   0.896   1.691   7.467  0.2011 -0.2962  0.0583
 6166TIP3    H140133   0.906   1.700   7.372  0.6000  0.2095  0.1390
 6166TIP3    H240134   0.816   1.641   7.479 -0.5147  0.6836 -0.5222
 6167TIP3   OH240135   5.566   4.393   2.514 -0.6718 -0.7509 -0.8695
 6167TIP3    H140136   5.630   4.408   2.445 -1.2399 -1.0368 -1.4732
 6167TIP3    H240137   5.556   4.479   2.556 -0.1133 -0.6401 -0.9568
 6168TIP3   OH240138   0.453   4.190   1.890  0.1462  0.3140  0.0943
 6168TIP3    H140139   0.508   4.239   1.952 -0.4755  0.0302  0.8785
 6168TIP3    H240140   0.380   4.248   1.870  1.1316  1.0495 -1.6382
 6169TIP3   OH240141   0.483   6.034   8.800 -0.3481  0.1146 -1.0161
 6169TIP3    H140142   0.424   5.959   8.812  0.7708 -0.6252  0.0722
 6169TIP3    H240143   0.495   6.040   8.705  0.0352 -1.4966 -1.1046
 6170TIP3   OH240144   4.585   0.860   8.154 -0.0684 -0.1386 -0.0864
 6170TIP3    H140145   4.494   0.848   8.127  0.3718 -0.6950 -1.4009
 6170TIP3    H240146   4.579   0.904   8.239 -1.5656 -0.6841  0.1204
 6171TIP3   OH240147   6.263   3.251   2.903 -0.0851  0.1278  0.2266
 6171TIP3    H140148   6.338   3.266   2.960 -0.3259 -0.4860  0.7150
 6171TIP3    H240149   6.209   3.329   2.912 -0.5141 -0.2898  1.4590
 6172TIP3   OH240150   6.085   0.779   7.180 -0.3871 -0.4112 -0.0565
 6172TIP3    H140151   6.071   0.860   7.132 -0.3426 -1.0365 -1.1544
 6172TIP3    H240152   6.000   0.759   7.220 -0.5822 -0.2023 -0.3679
 6173TIP3   OH240153   5.052   5.571   7.387 -0.0290  0.1941  0.1222
 6173TIP3    H140154   5.043   5.533   7.300  1.5396  0.4060 -0.1677
 6173TIP3    H240155   5.071   5.496   7.444  2.0343  0.3403 -0.2780
 6174TIP3   OH240156   4.485   1.366   8.233  0.2888 -0.1255 -0.5399
 6174TIP3    H140157   4.527   1.380   8.318  1.9259 -3.6019 -0.6066
 6174TIP3    H240158   4.392   1.381   8.249  0.2773 -2.5370  2.4597
 6175TIP3   OH240159   3.337   0.217   6.963  0.0017  0.3360  0.1580
 6175TIP3    H140160   3.355   0.141   6.909  1.0313  0.6301  0.0515
 6175TIP3    H240161   3.306   0.284   6.901  2.6209  1.1698 -0.4046
 6176TIP3   OH240162   3.447   4.588   8.634  0.0358  0.0610 -0.3358
 6176TIP3    H140163   3.496   4.573   8.553  1.4739 -0.5377  0.6236
 6176TIP3    H240164   3.496   4.656   8.680 -1.0391  0.7393 -0.1595
 6177TIP3   OH240165   1.121   2.188   8.059  0.1783 -0.4385 -0.8354
 6177TIP3    H140166   1.207   2.148   8.043  0.1844 -0.2639 -1.2626
 6177TIP3    H240167   1.059   2.116   8.048  0.3103 -0.7143  0.1224
 6178TIP3   OH240168   1.995   3.633   1.103  0.0248  0.0046  0.1867
 6178TIP3    H140169   1.972   3.706   1.045 -2.1041 -1.4239 -0.8714
 6178TIP3    H240170   2.078   3.600   1.067 -1.5091 -1.2017 -2.5277
 6179TIP3   OH240171   4.884   3.574   0.434 -0.3305 -0.5481  0.6460
 6179TIP3    H140172   4.938   3.647   0.466  0.3703 -1.6007  1.9696
 6179TIP3    H240173   4.923   3.551   0.350 -0.2905  0.3096  0.4170
 6180TIP3   OH240174   5.074   4.221   0.973 -0.5060  0.1000  0.2066
 6180TIP3    H140175   4.986   4.183   0.979 -1.6344  1.9487 -2.5606
 6180TIP3    H240176   5.131   4.146   0.957 -1.6943 -1.0308  1.0207
 6181TIP3   OH240177   4.428   6.222   0.124 -0.1026  0.1455 -0.4891
 6181TIP3    H140178   4.485   6.254   0.054  1.7229 -1.7197  0.0678
 6181TIP3    H240179   4.478   6.235   0.204 -1.4963  0.7294  0.3276
 6182TIP3   OH240180   6.062   4.254   8.614  0.2596  0.4665  0.2741
 6182TIP3    H140181   6.106   4.337   8.596 -1.0423  1.4039  1.1871
 6182TIP3    H240182   6.055   4.251   8.710  0.7493 -0.9640  0.2892
 6183TIP3   OH240183   6.292   2.757   1.637  0.4320  0.2098  0.5960
 6183TIP3    H140184   6.219   2.698   1.619 -0.0736  1.1182 -0.4590
 6183TIP3    H240185   6.362   2.700   1.667  0.2456 -1.0797 -1.2283
 6184TIP3   OH240186   2.798   1.707   8.361  0.0791 -0.3284  0.3018
 6184TIP3    H140187   2.870   1.685   8.420  0.2476  1.1710  0.7120
 6184TIP3    H240188   2.814   1.799   8.339 -1.0711 -0.3161 -0.5345
 6185TIP3   OH240189   2.909   3.457   0.891  0.3621  0.4194 -0.5694
 6185TIP3    H140190   2.960   3.527   0.932 -0.2256  0.1597  0.6612
 6185TIP3    H240191   2.904   3.481   0.799  1.3071  1.2947 -0.4025
 6186TIP3   OH240192   1.039   1.779   1.864  0.0160 -0.7552 -0.4849
 6186TIP3    H140193   1.095   1.780   1.942 -1.3687  0.4466  0.5685
 6186TIP3    H240194   1.085   1.834   1.801  0.4196 -0.4482  0.0591
 6187TIP3   OH240195   4.734   2.882   0.489 -0.5497 -0.1343  0.7688
 6187TIP3    H140196   4.674   2.917   0.423  1.3672  0.0994 -0.9481
 6187TIP3    H240197   4.761   2.797   0.454  2.3398  1.0160 -0.0402
 6188TIP3   OH240198   6.658   4.900   7.714 -0.2695  0.0327  0.0376
 6188TIP3    H140199   6.604   4.841   7.766 -0.4238  1.4039  1.5114
 6188TIP3    H240200   6.623   4.893   7.625 -3.0576  0.9934  0.9476
 6189TIP3   OH240201   1.782   1.433   7.549 -0.3165  0.0659  0.8231
 6189TIP3    H140202   1.786   1.528   7.554  0.3248  0.0185  1.3038
 6189TIP3    H240203   1.690   1.412   7.563 -0.8016  0.7026 -1.0623
 6190TIP3   OH240204   0.897   4.158   2.216  0.0510  0.1736  0.7016
 6190TIP3    H140205   0.987   4.158   2.183 -0.6028 -0.5489 -1.1694
 6190TIP3    H240206   0.881   4.249   2.242  0.8906  0.6011 -0.2177
 6191TIP3   OH240207   1.997   1.531   8.786  0.1537  0.4706  0.3181
 6191TIP3    H140208   2.030   1.443   8.771 -2.5224 -0.7410  0.8667
 6191TIP3    H240209   2.003   1.574   8.700  3.1458  0.4743  0.4271
 6192TIP3   OH240210   2.843   1.479   2.875 -0.2373 -0.3381  0.7545
 6192TIP3    H140211   2.835   1.406   2.813 -1.9688  0.0903  0.4371
 6192TIP3    H240212   2.919   1.456   2.929  0.7397 -1.1735 -0.9118
 6193TIP3   OH240213   0.623   0.739   7.800  0.1903 -0.0026 -0.5306
 6193TIP3    H140214   0.590   0.791   7.873  1.4901 -0.7974  0.6736
 6193TIP3    H240215   0.658   0.659   7.840 -0.2267 -1.0712 -2.1522
 6194TIP3   OH240216   2.061   1.753   2.068 -0.1779 -0.6475  0.9214
 6194TIP3    H140217   2.034   1.841   2.093  1.8299 -0.0325  1.1170
 6194TIP3    H240218   2.023   1.696   2.134 -0.9325  0.1567  1.1889
 6195TIP3   OH240219   5.136   5.153   1.770  0.1729 -0.1856  0.3444
 6195TIP3    H140220   5.139   5.143   1.865 -0.2330  0.0697  0.3865
 6195TIP3    H240221   5.224   5.130   1.741  0.2292 -0.4992  0.7594
 6196TIP3   OH240222   2.983   4.465   8.555  0.3496  0.1753  0.2538
 6196TIP3    H140223   3.043   4.458   8.630 -1.2241  1.4517  1.7270
 6196TIP3    H240224   3.005   4.548   8.514 -1.5597  1.6657  2.0008
 6197TIP3   OH240225   2.050   6.611   0.496  0.1218  0.4150 -0.2738
 6197TIP3    H140226   2.094   6.690   0.466  0.2851  0.1302 -0.7987
 6197TIP3    H240227   2.012   6.635   0.581 -2.8422  2.1577 -1.8923
 6198TIP3   OH240228   4.538   3.280   2.138  0.2758  0.3916  0.3132
 6198TIP3    H140229   4.611   3.341   2.148 -0.0484  0.5817  1.8368
 6198TIP3    H240230   4.493   3.308   2.059  1.6997  0.4128 -0.5303
 6199TIP3   OH240231   4.132   6.665   1.362  0.7322 -0.3730  0.5715
 6199TIP3    H140232   4.201   6.604   1.336  1.0309 -0.1459  0.8160
 6199TIP3    H240233   4.056   6.609   1.380  0.3945 -0.5145 -1.1151
 6200TIP3   OH240234   4.025   3.015   2.020  0.0612  0.4607 -0.2107
 6200TIP3    H140235   4.020   2.927   1.983  1.9700 -0.2130  0.9497
 6200TIP3    H240236   3.963   3.015   2.093 -0.7840  0.4780 -0.9203
 6201TIP3   OH240237   6.515   3.079   2.108  0.1501 -0.7406 -0.1470
 6201TIP3    H140238   6.560   3.058   2.190 -0.2032  0.9601  0.5277
 6201TIP3    H240239   6.581   3.065   2.040  0.7847 -1.0989  0.5316
 6202TIP3   OH240240   3.585   0.986   7.815 -0.3216  0.0880 -0.0069
 6202TIP3    H140241   3.609   0.920   7.879 -1.2654 -0.4892 -0.2364
 6202TIP3    H240242   3.609   1.069   7.857  0.9735 -0.3733  0.2343
 6203TIP3   OH240243   4.436   5.540   7.248  0.3452 -0.4403 -0.2213
 6203TIP3    H140244   4.520   5.584   7.241  1.8425 -2.9934  0.5203
 6203TIP3    H240245   4.439   5.471   7.181 -0.2970 -1.8047  1.0961
 6204TIP3   OH240246   3.084   1.028   8.457 -0.5744  0.0408 -0.3011
 6204TIP3    H140247   3.125   1.111   8.481  0.7923 -0.6472 -0.1621
 6204TIP3    H240248   3.124   1.004   8.374 -1.1435 -0.3634 -0.4635
 6205TIP3   OH240249   4.650   4.177   8.709 -0.2315  0.0676  0.4814
 6205TIP3    H140250   4.583   4.177   8.641 -0.2494 -0.5327  0.4929
 6205TIP3    H240251   4.666   4.269   8.727  0.6432  0.2788 -1.1971
 6206TIP3   OH240252   5.696   5.449   1.823  0.1407  0.3067 -0.3559
 6206TIP3    H140253   5.756   5.401   1.765  2.1293  1.1837  0.9015
 6206TIP3    H240254   5.689   5.536   1.784  0.5996  0.5608  0.1333
 6207TIP3   OH240255   2.704   6.566   6.899  0.3326 -0.7110  0.0899
 6207TIP3    H140256   2.733   6.568   6.990  0.8635  0.2991 -0.0916
 6207TIP3    H240257   2.765   6.507   6.855  0.3383 -0.8606  0.2974
 6208TIP3   OH240258   2.486   5.024   7.273  0.4954 -0.1067 -0.0581
 6208TIP3    H140259   2.484   5.119   7.259  0.8688 -0.1319 -0.2879
 6208TIP3    H240260   2.545   4.991   7.205  1.5459 -0.3391  0.9362
 6209TIP3   OH240261   5.626   3.441   8.063 -0.0161 -0.2930 -0.4154
 6209TIP3    H140262   5.616   3.526   8.105  0.4260  0.0536 -0.9947
 6209TIP3    H240263   5.558   3.386   8.103  0.1928  0.1083  0.5197
 6210TIP3   OH240264   6.039   1.420   1.547 -0.1762 -0.5169 -0.4543
 6210TIP3    H140265   5.993   1.499   1.518  2.0439  1.6889  1.6077
 6210TIP3    H240266   5.995   1.395   1.628 -0.5412 -1.1364 -0.8336
 6211TIP3   OH240267   2.889   6.626   0.431  0.3015 -0.1233  0.3147
 6211TIP3    H140268   2.953   6.698   0.427 -1.2520  1.2994 -0.6862
 6211TIP3    H240269   2.899   6.581   0.347 -0.1460  0.2827  0.0294
 6212TIP3   OH240270   0.973   2.851   7.911 -0.3028 -0.1373 -0.6399
 6212TIP3    H140271   0.906   2.789   7.883 -1.0026  1.5418 -3.1305
 6212TIP3    H240272   1.024   2.805   7.976 -2.1757 -2.4707 -0.7011
 6213TIP3   OH240273   4.926   3.593   8.760 -0.0966 -0.0022  0.5172
 6213TIP3    H140274   4.888   3.656   8.822 -1.9796 -0.3124 -0.2422
 6213TIP3    H240275   4.913   3.633   8.674  0.4467 -0.5764  0.1559
 6214TIP3   OH240276   2.586   0.546   2.785 -0.2258 -0.0880 -0.2549
 6214TIP3    H140277   2.549   0.468   2.828 -0.5066  0.1222 -0.1149
 6214TIP3    H240278   2.633   0.511   2.709 -1.8031 -0.2825 -1.2081
 6215TIP3   OH240279   5.197   5.273   8.852  0.2699 -0.0706 -0.3056
 6215TIP3    H140280   5.204   5.286   8.947 -2.5004 -0.8298  0.0895
 6215TIP3    H240281   5.213   5.359   8.815  1.8197  0.1575  0.7909
 6216TIP3   OH240282   3.658   5.551   1.593  0.6018 -0.4292  0.2215
 6216TIP3    H140283   3.598   5.622   1.571 -1.3576 -1.6151  1.4705
 6216TIP3    H240284   3.709   5.538   1.513  0.5248  1.8468 -0.2759
 6217TIP3   OH240285   3.584   1.241   0.730  0.7725 -0.0841 -0.6925
 6217TIP3    H140286   3.577   1.294   0.650  0.2314 -0.2417 -0.7482
 6217TIP3    H240287   3.535   1.162   0.711 -0.5950  0.4813  0.3001
 6218TIP3   OH240288   5.724   3.873   0.417 -0.3751  0.2962 -0.2613
 6218TIP3    H140289   5.797   3.827   0.458 -0.8904 -1.7388 -1.4742
 6218TIP3    H240290   5.645   3.832   0.453 -0.8688  0.5596 -1.0015
 6219TIP3   OH240291   4.241   4.709   8.064  0.3463  0.4274  0.0077
 6219TIP3    H140292   4.235   4.799   8.033  1.2331  0.0444 -1.3663
 6219TIP3    H240293   4.166   4.664   8.026  0.9199  0.1710 -0.8333
 6220TIP3   OH240294   3.382   4.763   8.335 -0.4255  0.9635 -0.1584
 6220TIP3    H140295   3.474   4.737   8.338 -0.7755 -0.4346 -0.8253
 6220TIP3    H240296   3.333   4.681   8.334 -1.6553  1.6654 -0.7138
 6221TIP3   OH240297   2.925   2.465   0.170 -0.4931 -0.4660 -0.5807
 6221TIP3    H140298   3.019   2.454   0.182 -0.1763  2.5821  0.6552
 6221TIP3    H240299   2.901   2.536   0.229 -3.4828 -0.7092 -1.3169
 6222TIP3   OH240300   2.468   2.367   8.098 -0.2932 -0.0007 -0.1577
 6222TIP3    H140301   2.435   2.374   8.187  1.2481  2.4432  0.3132
 6222TIP3    H240302   2.395   2.394   8.043 -1.0816 -0.9930  0.3805
 6223TIP3   OH240303   1.727   2.522   0.093 -0.2186 -0.1656 -0.2786
 6223TIP3    H140304   1.654   2.496   0.150  0.3953  1.0534  1.1462
 6223TIP3    H240305   1.803   2.526   0.151  0.0060  3.3378 -0.5920
 6224TIP3   OH240306   3.083   5.570   6.816 -0.2909  0.0598  0.0664
 6224TIP3    H140307   3.004   5.576   6.762  0.4803  0.3524 -1.0512
 6224TIP3    H240308   3.100   5.476   6.824 -1.3292 -0.0572  1.1999
 6225TIP3   OH240309   3.668   4.394   1.587  0.5960  0.3623  0.8973
 6225TIP3    H140310   3.650   4.488   1.587 -0.7448  0.1285  1.3524
 6225TIP3    H240311   3.583   4.353   1.603  1.2355 -0.9154  1.1784
 6226TIP3   OH240312   5.408   2.349   0.178 -0.1060 -0.0061 -0.8829
 6226TIP3    H140313   5.423   2.274   0.235  1.9656  0.5800 -0.5834
 6226TIP3    H240314   5.448   2.324   0.095  0.2397  0.6154 -0.9038
 6227TIP3   OH240315   0.034   1.060   0.088 -0.0729 -0.4185 -0.2337
 6227TIP3    H140316  -0.000   1.148   0.105 -1.6923 -0.9182 -0.7588
 6227TIP3    H240317   0.029   1.015   0.172  1.5067  0.2020  0.2251
 6228TIP3   OH240318   6.775   6.250   0.639  0.2771 -0.0275 -0.1503
 6228TIP3    H140319   6.850   6.218   0.589 -0.1999 -0.6289 -0.5000
 6228TIP3    H240320   6.802   6.336   0.671  0.6337  0.3093 -1.3337
 6229TIP3   OH240321   0.454   1.719   0.739 -0.2436 -0.4501 -0.7015
 6229TIP3    H140322   0.425   1.723   0.831  2.2085 -1.4139  0.2083
 6229TIP3    H240323   0.447   1.809   0.709  1.5674  0.4965  1.4059
 6230TIP3   OH240324   0.636   0.374   1.470 -0.3152  0.5013 -0.1771
 6230TIP3    H140325   0.627   0.398   1.562 -1.4156  0.6294 -0.3070
 6230TIP3    H240326   0.579   0.298   1.459 -3.2457  2.7376 -1.5856
 6231TIP3   OH240327   6.088   1.417   7.506 -0.1765 -0.4617 -0.1935
 6231TIP3    H140328   6.167   1.450   7.549  0.2471 -1.5478 -0.1064
 6231TIP3    H240329   6.039   1.374   7.576 -0.8296  0.1527 -0.2598
 6232TIP3   OH240330   3.255   1.820   2.085  0.5963  0.0506 -0.3895
 6232TIP3    H140331   3.172   1.777   2.065 -0.0997  0.5940  1.1575
 6232TIP3    H240332   3.286   1.777   2.164 -0.5914  2.8238  1.7822
 6233TIP3   OH240333   0.364   2.492   0.813  0.5010  0.1925 -0.4719
 6233TIP3    H140334   0.457   2.488   0.835  0.3183  1.3977  0.5901
 6233TIP3    H240335   0.321   2.522   0.893 -0.7718 -0.0623 -1.0372
 6234TIP3   OH240336   5.191   2.139   8.875 -0.3656  0.0313  0.5203
 6234TIP3    H140337   5.145   2.139   8.791 -0.3842  0.2502  0.5310
 6234TIP3    H240338   5.269   2.192   8.859 -0.2464 -0.1306  0.5721
 6235TIP3   OH240339   2.383   4.034   8.562  0.1669 -0.1426  0.0275
 6235TIP3    H140340   2.420   4.122   8.554  1.1516 -0.4747  0.7218
 6235TIP3    H240341   2.436   3.992   8.630 -1.9275 -0.4289  1.5786
 6236TIP3   OH240342   4.972   2.613   0.033  0.6671  0.5978 -0.0769
 6236TIP3    H140343   5.053   2.607  -0.018  1.3941 -0.0178  1.1154
 6236TIP3    H240344   4.991   2.677   0.101  0.7256 -0.7012  1.1790
 6237TIP3   OH240345   5.278   4.176   8.799 -0.5376 -0.5904  0.2194
 6237TIP3    H140346   5.193   4.138   8.775  0.7477 -3.0546 -0.8288
 6237TIP3    H240347   5.306   4.225   8.722 -0.4616 -0.8652  0.0690
 6238TIP3   OH240348   3.082   4.703   7.646  0.4884 -0.1120 -0.0991
 6238TIP3    H140349   3.015   4.716   7.578  0.9136  0.5512 -0.4058
 6238TIP3    H240350   3.041   4.733   7.727  0.5175  0.6212 -0.3451
 6239TIP3   OH240351   1.055   2.539   8.849  0.2958 -0.0966 -0.6083
 6239TIP3    H140352   0.967   2.539   8.811  0.3170 -2.4088 -0.8325
 6239TIP3    H240353   1.043   2.574   8.937 -0.1652  3.0999 -1.8142
 6240TIP3   OH240354   0.256   4.060   8.575  0.0070  0.5856 -0.4613
 6240TIP3    H140355   0.238   3.969   8.554  0.1547  0.6644 -0.9271
 6240TIP3    H240356   0.170   4.102   8.580 -0.1067  0.2889  0.3972
 6241TIP3   OH240357   2.954   0.523   8.539 -0.9282 -0.2246 -0.2059
 6241TIP3    H140358   3.039   0.565   8.525  0.3386 -2.6698 -0.3753
 6241TIP3    H240359   2.903   0.588   8.588  1.8323  0.4967  2.0058
 6242TIP3   OH240360   5.316   6.076   2.866  0.0068 -0.0240  0.0604
 6242TIP3    H140361   5.339   6.094   2.957  1.2866  0.7569 -0.3983
 6242TIP3    H240362   5.231   6.032   2.871 -1.1880  2.2737  1.4990
 6243TIP3   OH240363   6.018   6.506   8.757  0.2753  0.4016  0.0415
 6243TIP3    H140364   5.942   6.448   8.762 -0.2307  0.9623 -0.7545
 6243TIP3    H240365   6.032   6.518   8.663  0.5992  1.2705  0.1914
 6244TIP3   OH240366   6.347   1.617   6.712 -0.1850 -0.0957  0.3088
 6244TIP3    H140367   6.314   1.568   6.637  0.2043 -3.7527  2.3110
 6244TIP3    H240368   6.441   1.625   6.696 -0.5790  2.6625 -1.2973
 6245TIP3   OH240369   1.612   6.067   8.908  0.5031 -0.0318 -0.2240
 6245TIP3    H140370   1.684   6.130   8.919 -0.2662  1.4279 -2.7330
 6245TIP3    H240371   1.653   5.990   8.867  1.0210 -0.1713  0.5414
 6246TIP3   OH240372   3.241   0.866   7.910 -0.1253  0.0947  0.6171
 6246TIP3    H140373   3.263   0.953   7.945 -0.9675 -0.0014  1.4043
 6246TIP3    H240374   3.309   0.809   7.946  0.0775  0.3231  0.6019
 6247TIP3   OH240375   6.682   4.817   0.567 -0.4219  0.2014  0.0389
 6247TIP3    H140376   6.631   4.770   0.501  0.4490 -0.2014 -0.3711
 6247TIP3    H240377   6.620   4.835   0.637 -0.6679 -2.1495  0.5153
 6248TIP3   OH240378   4.271   6.164   1.370 -0.5860  0.2762 -0.0404
 6248TIP3    H140379   4.306   6.218   1.441 -1.9066  0.0957  0.7751
 6248TIP3    H240380   4.338   6.097   1.355  1.6017  2.6789 -1.8073
 6249TIP3   OH240381   4.206   3.660   8.758  0.6924  0.7228  0.4714
 6249TIP3    H140382   4.186   3.696   8.844 -0.0777  1.0520  0.1631
 6249TIP3    H240383   4.281   3.710   8.728  1.2175  0.3403  1.1078
 6250TIP3   OH240384   5.280   3.374   0.520 -0.4708  0.1760 -0.7342
 6250TIP3    H140385   5.311   3.287   0.545  0.7135  1.5278  3.3916
 6250TIP3    H240386   5.342   3.405   0.454  0.2745 -1.3397 -0.7786
 6251TIP3   OH240387   3.448   3.505   2.631  0.3551  0.0539  0.3096
 6251TIP3    H140388   3.358   3.486   2.606  0.0322  1.2896  0.4567
 6251TIP3    H240389   3.447   3.506   2.727  0.6196 -0.3636  0.3163
 6252TIP3   OH240390   2.870   3.294   7.728 -0.3582  0.4311 -0.0388
 6252TIP3    H140391   2.780   3.275   7.754 -0.5542  1.9925  0.5521
 6252TIP3    H240392   2.875   3.267   7.637 -0.8250 -1.5045  0.4709
 6253TIP3   OH240393   1.304   6.215   7.910  0.2227  0.4475  0.4822
 6253TIP3    H140394   1.363   6.189   7.981  0.0913 -1.0292  0.0911
 6253TIP3    H240395   1.232   6.152   7.915 -0.0188  0.6186 -0.6442
 6254TIP3   OH240396   3.464   5.220   0.225 -0.6646  0.7016  0.0547
 6254TIP3    H140397   3.376   5.216   0.260 -0.4604  2.0717  0.8321
 6254TIP3    H240398   3.488   5.313   0.233  0.5870  0.4734 -0.7676
 6255TIP3   OH240399   3.236   6.755   1.758  0.1052 -0.1021  0.1027
 6255TIP3    H140400   3.179   6.821   1.718  0.5409  0.8666  1.0023
 6255TIP3    H240401   3.181   6.714   1.826  1.0292  2.4882  2.6419
 6256TIP3   OH240402   2.936   4.797   1.969  0.6113 -0.6071 -0.2420
 6256TIP3    H140403   2.876   4.779   2.041  0.5899 -1.5884 -0.4940
 6256TIP3    H240404   3.023   4.794   2.009  0.5519 -0.1477 -0.0687
 6257TIP3   OH240405   4.586   2.602   7.880 -0.5385  0.6863  0.2178
 6257TIP3    H140406   4.639   2.583   7.802 -2.2001 -1.0744 -0.5494
 6257TIP3    H240407   4.645   2.652   7.936  1.2978  0.4928 -1.4029
 6258TIP3   OH240408   6.507   1.336   7.466  0.0095  0.1883  0.1950
 6258TIP3    H140409   6.470   1.249   7.480  0.9784 -0.0923  1.1410
 6258TIP3    H240410   6.602   1.323   7.466  0.2720  1.4914  2.4942
 6259TIP3   OH240411   4.005   4.764   7.686  0.0175  0.0534  0.2075
 6259TIP3    H140412   3.967   4.727   7.606 -1.0746  0.4456  0.5300
 6259TIP3    H240413   3.947   4.836   7.709  2.0869  2.0299 -0.4010
 6260TIP3   OH240414   3.522   4.518   2.630 -0.3350  0.6940 -1.0952
 6260TIP3    H140415   3.473   4.453   2.679 -0.2783  1.2899 -0.2256
 6260TIP3    H240416   3.467   4.538   2.554 -0.3234 -0.3966 -1.3962
 6261TIP3   OH240417   6.132   3.376   8.722 -0.5568 -0.4090  0.8532
 6261TIP3    H140418   6.045   3.350   8.693 -1.6699  0.9960  2.6820
 6261TIP3    H240419   6.171   3.421   8.646 -1.3208 -1.2173 -0.0403
 6262TIP3   OH240420   5.319   2.250   8.066 -0.4065  0.2031 -0.0933
 6262TIP3    H140421   5.377   2.179   8.094  0.0508  0.0355 -1.3718
 6262TIP3    H240422   5.378   2.318   8.034 -0.8811  0.6833  0.0477
 6263TIP3   OH240423   6.670   5.705   1.418 -0.1004 -0.2102  0.3445
 6263TIP3    H140424   6.731   5.769   1.382  1.0354 -0.7959  1.1883
 6263TIP3    H240425   6.684   5.626   1.366  1.8195 -1.1813  2.1859
 6264TIP3   OH240426   3.765   3.757   0.419  0.2189 -0.0801  0.8071
 6264TIP3    H140427   3.725   3.728   0.337  0.5470 -0.2552  0.7057
 6264TIP3    H240428   3.711   3.717   0.487 -0.5901  0.7945  0.6913
 6265TIP3   OH240429   2.471   2.101   7.489 -0.4273 -0.4305 -0.4582
 6265TIP3    H140430   2.497   2.187   7.456 -1.8368  0.5920  0.9755
 6265TIP3    H240431   2.460   2.047   7.410  0.7787  0.5763 -1.3596
 6266TIP3   OH240432   4.371   3.347   0.100 -0.7917 -0.4362  0.6415
 6266TIP3    H140433   4.285   3.383   0.078 -0.2897 -0.2548 -1.1895
 6266TIP3    H240434   4.353   3.281   0.166 -2.2252  0.2652  0.9978
 6267TIP3   OH240435   0.760   0.438   7.603  0.2484 -0.1553 -0.1333
 6267TIP3    H140436   0.836   0.466   7.552  1.0877 -0.2159  1.0417
 6267TIP3    H240437   0.776   0.474   7.690  0.0907 -2.1268  0.7432
 6268TIP3   OH240438   2.604   2.802   7.464  0.3893 -0.4237  0.3352
 6268TIP3    H140439   2.674   2.753   7.421 -0.8116 -2.0542  0.1375
 6268TIP3    H240440   2.565   2.854   7.395  0.1867 -0.9933  0.0113
 6269TIP3   OH240441   3.414   4.953   2.162  0.1811  0.7302  0.0740
 6269TIP3    H140442   3.355   5.025   2.141  0.2281  0.3994 -1.3107
 6269TIP3    H240443   3.388   4.925   2.249 -0.7853  1.4861  0.0454
 6270TIP3   OH240444   3.267   3.226   0.279  0.6051  0.7270 -0.0514
 6270TIP3    H140445   3.286   3.319   0.293  0.0972  0.8446 -0.1394
 6270TIP3    H240446   3.199   3.225   0.212  1.3009  0.2472 -0.7613
 6271TIP3   OH240447   1.155   6.377   8.595 -0.1243 -0.3480 -0.1912
 6271TIP3    H140448   1.151   6.471   8.581  1.2542 -0.4319 -1.4038
 6271TIP3    H240449   1.197   6.367   8.681 -2.0884  0.1272  0.8671
 6272TIP3   OH240450   3.789   1.794   1.402 -0.8015  0.1466  0.5235
 6272TIP3    H140451   3.719   1.786   1.337 -1.0841  0.7881  0.7373
 6272TIP3    H240452   3.796   1.888   1.419 -0.0975  0.0619  0.7389
 6273TIP3   OH240453   2.107   6.249   0.047 -0.6725 -0.1011 -0.4677
 6273TIP3    H140454   2.133   6.278  -0.040 -0.5569 -0.5458 -0.5866
 6273TIP3    H240455   2.181   6.196   0.078 -1.1948 -0.9246 -0.5859
 6274TIP3   OH240456   2.306   2.665   2.047  0.7041  0.0484 -0.2033
 6274TIP3    H140457   2.234   2.603   2.037  0.7703 -0.3192  1.3262
 6274TIP3    H240458   2.266   2.740   2.093  1.4329 -0.5008  1.3982
 6275TIP3   OH240459   5.410   2.988   1.778  0.3669 -0.4798 -0.2448
 6275TIP3    H140460   5.427   3.082   1.783  0.9716 -0.2719 -3.4835
 6275TIP3    H240461   5.468   2.949   1.844 -0.5657  1.4118  1.8041
 6276TIP3   OH240462   6.021   3.099   0.779 -0.4180 -0.2424 -0.7844
 6276TIP3    H140463   6.032   3.038   0.851  1.0775 -0.0646 -0.8173
 6276TIP3    H240464   5.934   3.081   0.744  0.3718 -3.1730 -1.5150
 6277TIP3   OH240465   4.190   1.900   1.310 -0.5380 -0.1799 -0.0940
 6277TIP3    H140466   4.243   1.878   1.386  0.1524 -0.9776 -0.7810
 6277TIP3    H240467   4.168   1.815   1.270 -2.4964  0.1058  0.2587
 6278TIP3   OH240468   3.874   4.528   0.472 -0.1525 -0.0016 -0.8250
 6278TIP3    H140469   3.950   4.545   0.527 -1.9045 -0.0669  1.7601
 6278TIP3    H240470   3.890   4.441   0.435  1.5977  0.5485 -1.4724
 6279TIP3   OH240471   3.350   6.777   2.254 -0.6691 -0.7330  0.4418
 6279TIP3    H140472   3.343   6.855   2.200  0.0185 -0.5858  0.5489
 6279TIP3    H240473   3.348   6.704   2.192  4.1928 -0.5006 -0.3466
 6280TIP3   OH240474   6.297   5.289   8.653 -0.0685 -0.1282 -0.1216
 6280TIP3    H140475   6.349   5.361   8.688  0.3077  0.2304 -1.3698
 6280TIP3    H240476   6.206   5.316   8.666  0.0409  1.3914 -2.0915
 6281TIP3   OH240477   5.509   2.889   0.721 -0.8347  0.4164  0.0368
 6281TIP3    H140478   5.589   2.939   0.706 -0.3600  0.5837  2.6479
 6281TIP3    H240479   5.522   2.808   0.672 -1.0753  2.1646 -3.2380
 6282TIP3   OH240480   0.076   3.749   2.477 -0.3291  0.4483  0.3093
 6282TIP3    H140481  -0.012   3.720   2.498 -0.3662  0.7263  0.5314
 6282TIP3    H240482   0.092   3.824   2.534 -0.8177  1.8719 -1.3651
 6283TIP3   OH240483   0.503   4.118   0.528 -0.3758  0.1670  0.1422
 6283TIP3    H140484   0.594   4.116   0.501 -0.5249 -1.7952 -0.3745
 6283TIP3    H240485   0.493   4.043   0.587 -1.3884  1.0580  1.1683
 6284TIP3   OH240486   6.500   0.253   0.781  0.0200  0.1400  0.3849
 6284TIP3    H140487   6.443   0.196   0.832 -1.8010  1.1469 -0.4514
 6284TIP3    H240488   6.589   0.227   0.807 -0.7928 -0.9707  2.2723
 6285TIP3   OH240489   0.417   5.735   0.602 -0.4261 -0.1045  0.4761
 6285TIP3    H140490   0.396   5.738   0.509  0.7044  2.4669  0.2155
 6285TIP3    H240491   0.512   5.734   0.605 -0.4342 -2.0792  1.6463
 6286TIP3   OH240492   0.549   1.192   7.551  0.7812 -0.3259  0.2557
 6286TIP3    H140493   0.518   1.161   7.466 -1.2590 -0.9652  1.1492
 6286TIP3    H240494   0.499   1.272   7.567 -0.3618 -1.2602  1.6579
 6287TIP3   OH240495   4.356   2.764   8.836 -0.3271  0.2541  0.1316
 6287TIP3    H140496   4.396   2.765   8.749  0.2471  0.8967  0.3948
 6287TIP3    H240497   4.321   2.853   8.848 -2.1372 -0.3716 -0.2189
 6288TIP3   OH240498   0.055   0.670   0.051 -0.7701 -0.1141 -0.0908
 6288TIP3    H140499   0.112   0.720   0.110 -0.2938 -0.3986 -0.3032
 6288TIP3    H240500  -0.018   0.729   0.032 -0.4529  0.3205  0.0380
 6289TIP3   OH240501   1.175   2.284   8.767 -0.0964  0.0163 -0.5386
 6289TIP3    H140502   1.162   2.378   8.780 -1.4024 -0.1671 -0.4588
 6289TIP3    H240503   1.087   2.248   8.761  0.2607 -1.6206  2.3021
 6290TIP3   OH240504   4.514   5.099   8.430 -0.5366  0.3575 -0.1169
 6290TIP3    H140505   4.511   5.157   8.354  2.3126 -0.2493 -0.8368
 6290TIP3    H240506   4.423   5.080   8.450 -1.4227  1.0235 -3.0238
 6291TIP3   OH240507   1.003   6.307   2.014  0.2669 -0.1478 -0.4405
 6291TIP3    H140508   0.942   6.236   1.993 -0.4498  0.5873 -0.9085
 6291TIP3    H240509   1.050   6.277   2.091  0.0638 -1.1825 -0.7113
 6292TIP3   OH240510   6.675   1.187   7.140  0.1753  0.1285 -0.2002
 6292TIP3    H140511   6.618   1.110   7.140 -2.7049  2.1106 -0.0217
 6292TIP3    H240512   6.646   1.238   7.064  1.2787  1.5691  0.3011
 6293TIP3   OH240513   3.859   3.510   8.705 -0.3695 -0.6352  0.4555
 6293TIP3    H140514   3.831   3.516   8.614  0.3727 -2.4027  0.0728
 6293TIP3    H240515   3.949   3.478   8.700  0.3776  1.0954  1.7744
 6294TIP3   OH240516   2.705   3.073   0.201 -0.4034  0.4941  0.3014
 6294TIP3    H140517   2.683   3.102   0.289  3.5684 -1.9775  2.3909
 6294TIP3    H240518   2.744   3.150   0.159 -1.0679  1.3337  1.1838
 6295TIP3   OH240519   6.055   5.600   0.938  0.0783 -0.0026 -0.9930
 6295TIP3    H140520   6.031   5.590   1.031 -0.9356 -1.2299 -1.3398
 6295TIP3    H240521   6.124   5.665   0.937  0.8307 -0.7133  0.7475
 6296TIP3   OH240522   3.490   0.703   0.397  0.3468  0.2848  0.3217
 6296TIP3    H140523   3.546   0.627   0.412 -1.3410 -1.0431  0.3389
 6296TIP3    H240524   3.406   0.665   0.370 -0.5168  2.1655  0.1848
 6297TIP3   OH240525   5.284   3.742   0.894 -0.3444 -0.0151  0.2615
 6297TIP3    H140526   5.290   3.694   0.812 -1.1084 -0.4965  0.4852
 6297TIP3    H240527   5.326   3.685   0.959  0.3072  0.3878  0.2008
 6298TIP3   OH240528   1.187   1.708   8.748 -0.1433  0.0803  0.2758
 6298TIP3    H140529   1.253   1.740   8.686 -0.2824  1.2653  0.7183
 6298TIP3    H240530   1.238   1.669   8.819  0.1524  1.5587  0.9272
 6299TIP3   OH240531   3.010   4.390   0.418 -0.1747 -0.3433  0.4877
 6299TIP3    H140532   2.948   4.444   0.370  0.3932  0.7128  0.9093
 6299TIP3    H240533   3.081   4.373   0.355 -0.4504 -0.7960  0.2898
 6300TIP3   OH240534   0.708   1.210   2.554  0.2652 -0.3337 -0.2715
 6300TIP3    H140535   0.654   1.280   2.591  1.8225  0.2514  1.0076
 6300TIP3    H240536   0.789   1.212   2.605  0.1976 -3.3878  0.1300
 6301TIP3   OH240537   6.407   3.365   8.516 -0.5306  0.3067 -0.5731
 6301TIP3    H140538   6.396   3.452   8.479 -2.2111  1.5194  2.4718
 6301TIP3    H240539   6.322   3.322   8.502 -0.0129 -0.5528 -1.2231
 6302TIP3   OH240540   5.176   2.196   8.501  0.0803 -0.5287  0.2713
 6302TIP3    H140541   5.181   2.285   8.467  0.0344 -1.2964 -1.9171
 6302TIP3    H240542   5.266   2.176   8.528  0.0698  0.1884  0.8732
 6303TIP3   OH240543   1.540   0.285   2.465  0.0297 -0.0785  0.3669
 6303TIP3    H140544   1.557   0.203   2.509 -0.9197 -0.1333  0.6530
 6303TIP3    H240545   1.519   0.261   2.375  2.9912  0.1008 -0.4768
 6304TIP3   OH240546   2.789   0.433   2.374 -0.3744 -0.3480  1.3000
 6304TIP3    H140547   2.713   0.460   2.426 -0.1920  2.1668  0.3871
 6304TIP3    H240548   2.852   0.505   2.385  0.9971 -1.3356  0.2567
 6305TIP3   OH240549   0.289   4.625   1.268  0.2135  0.2738 -0.2025
 6305TIP3    H140550   0.202   4.609   1.234  0.1689  2.0383 -1.0178
 6305TIP3    H240551   0.336   4.542   1.256 -1.1058 -0.4513 -0.4477
 6306TIP3   OH240552   5.819   2.672   0.724  0.0212 -0.6108  0.3164
 6306TIP3    H140553   5.827   2.754   0.675 -0.9226 -0.5313  0.2752
 6306TIP3    H240554   5.908   2.653   0.755  0.2638  0.3679  0.2377
 6307TIP3   OH240555   4.639   1.415   8.445 -0.5042  0.1655  0.0124
 6307TIP3    H140556   4.591   1.461   8.513  1.2858 -0.3979  1.7515
 6307TIP3    H240557   4.716   1.470   8.429  0.6814 -1.2046  0.7404
 6308TIP3   OH240558   2.367   6.343   8.262  0.3813 -0.1760 -0.6640
 6308TIP3    H140559   2.366   6.247   8.263 -0.0147 -0.2248 -2.5100
 6308TIP3    H240560   2.279   6.368   8.235  1.0468  0.6265 -2.2108
 6309TIP3   OH240561   5.277   2.514   7.888  0.1078  0.1654 -0.2729
 6309TIP3    H140562   5.355   2.567   7.872  0.1952  0.5424  1.2885
 6309TIP3    H240563   5.298   2.429   7.850  1.0987  0.3977 -0.2786
 6310TIP3   OH240564   6.463   6.351   8.311 -0.0359  0.0384  0.3508
 6310TIP3    H140565   6.430   6.418   8.371  0.2965  0.1264  0.4324
 6310TIP3    H240566   6.516   6.294   8.366 -0.7623 -0.6182  0.3997
 6311TIP3   OH240567   5.769   5.503   8.788  0.0253 -0.3586  0.4088
 6311TIP3    H140568   5.718   5.578   8.818  0.5652  0.2703 -0.2274
 6311TIP3    H240569   5.718   5.465   8.717  0.1532 -0.0960  0.1780
 6312TIP3   OH240570   6.184   1.555   8.614  0.4330  0.1205 -0.4085
 6312TIP3    H140571   6.179   1.493   8.686 -0.9904 -0.7525 -1.2053
 6312TIP3    H240572   6.101   1.603   8.617  0.3294  0.0343 -1.4723
 6313TIP3   OH240573   6.478   6.403   7.135  0.0760 -0.1119  0.0839
 6313TIP3    H140574   6.484   6.484   7.083 -0.9230 -0.5732 -0.8058
 6313TIP3    H240575   6.551   6.350   7.105 -0.2014 -0.1709 -0.5067
 6314TIP3   OH240576   4.029   5.784   7.152  0.7668 -0.0543  0.2458
 6314TIP3    H140577   4.062   5.792   7.063  1.5745  3.9192  0.7218
 6314TIP3    H240578   3.936   5.766   7.142  0.6582  1.2225 -1.4476
 6315TIP3   OH240579   3.542   5.139   7.908  0.1231  0.2594  0.3912
 6315TIP3    H140580   3.553   5.047   7.933  1.2778  0.4833  0.8175
 6315TIP3    H240581   3.578   5.187   7.983 -2.8581  1.1519  1.3681
 6316TIP3   OH240582   3.183   2.082   1.738  0.4520  0.6382  1.1220
 6316TIP3    H140583   3.093   2.063   1.764  0.2608  0.9000  0.6616
 6316TIP3    H240584   3.191   2.177   1.746 -0.3223  1.0397 -1.9059
 6317TIP3   OH240585   3.222   5.415   2.093  0.3117 -0.5941 -0.2895
 6317TIP3    H140586   3.171   5.482   2.138  0.4954 -0.7714  0.1866
 6317TIP3    H240587   3.178   5.404   2.009  0.7784  0.7381 -0.7272
 6318TIP3   OH240588   4.532   0.720   8.897 -0.1464  0.1112  0.0959
 6318TIP3    H140589   4.506   0.725   8.989  1.1526  2.4390  0.4213
 6318TIP3    H240590   4.455   0.749   8.848 -0.1569  0.9779  0.6112
 6319TIP3   OH240591   5.206   0.238   1.652  0.5295  0.2636 -0.7026
 6319TIP3    H140592   5.133   0.192   1.693 -0.9751  0.8522 -2.6054
 6319TIP3    H240593   5.218   0.316   1.707 -1.6998  1.2451 -1.4912
 6320TIP3   OH240594   0.930   2.459   1.421  0.0859  0.3970  0.5908
 6320TIP3    H140595   0.993   2.440   1.490 -2.3071 -0.2602  2.7638
 6320TIP3    H240596   0.845   2.436   1.459 -1.4511  0.6400 -2.3666
 6321TIP3   OH240597   5.064   5.544   0.402  0.2236 -0.0118  0.2669
 6321TIP3    H140598   5.001   5.477   0.427  2.4300 -2.9662 -1.4123
 6321TIP3    H240599   5.047   5.561   0.309  1.1295  0.0149  0.0890
 6322TIP3   OH240600   5.884   1.905   0.567 -0.2009 -0.3567  0.1764
 6322TIP3    H140601   5.957   1.874   0.515 -0.8770  1.1525 -1.7964
 6322TIP3    H240602   5.925   1.958   0.636  0.6208  0.9776 -1.2571
 6323TIP3   OH240603   6.382   1.154   2.435 -0.5340  0.0885 -0.3381
 6323TIP3    H140604   6.302   1.134   2.386 -0.7052  1.4348 -0.6478
 6323TIP3    H240605   6.351   1.199   2.514 -0.1850 -1.0496  0.4610
 6324TIP3   OH240606   3.036   0.594   7.093  1.0317  0.0940  0.2449
 6324TIP3    H140607   3.036   0.520   7.032  0.4075 -0.5412  1.0047
 6324TIP3    H240608   2.961   0.648   7.065  0.8049 -0.1452  0.3905
 6325TIP3   OH240609   0.441   2.240   7.820  0.3872  0.4462 -0.5529
 6325TIP3    H140610   0.398   2.196   7.894  0.0051  0.9279 -0.4890
 6325TIP3    H240611   0.417   2.332   7.829 -0.4919  0.3598 -1.8648
 6326TIP3   OH240612   2.498   3.250   8.153  0.3516  0.1735  0.0005
 6326TIP3    H140613   2.476   3.254   8.060 -2.8284 -0.2895  0.5931
 6326TIP3    H240614   2.554   3.172   8.161 -1.2247 -1.1736 -1.2753
 6327TIP3   OH240615   5.769   0.793   2.770  0.9378 -0.1078  0.4823
 6327TIP3    H140616   5.804   0.839   2.694 -1.1823 -0.4545 -0.7601
 6327TIP3    H240617   5.739   0.862   2.829 -0.1740  0.1605 -0.3698
 6328TIP3   OH240618   1.962   6.055   1.206  0.1866 -0.4115 -0.0603
 6328TIP3    H140619   2.005   6.052   1.291  0.2401  0.8072 -0.0195
 6328TIP3    H240620   1.880   6.102   1.222  0.7134  0.8403 -0.8590
 6329TIP3   OH240621   4.857   0.135   0.673 -0.3546 -0.1576  0.1824
 6329TIP3    H140622   4.794   0.145   0.602  0.8037  2.0377 -0.6190
 6329TIP3    H240623   4.941   0.120   0.630  0.5898  2.4144  0.9220
 6330TIP3   OH240624   4.640   6.762   2.357 -0.3933  0.4001 -0.5721
 6330TIP3    H140625   4.676   6.805   2.435  0.3847 -0.2827 -0.5486
 6330TIP3    H240626   4.632   6.670   2.381 -0.7876  0.3008 -1.0735
 6331TIP3   OH240627   1.300   3.088   0.808  0.1019 -0.5025 -0.0315
 6331TIP3    H140628   1.299   3.076   0.903 -1.0079 -1.2806 -0.1193
 6331TIP3    H240629   1.303   2.998   0.774  1.4344 -0.2133 -0.7500
 6332TIP3   OH240630   6.624   1.430   6.902  0.4713  0.4134 -0.7833
 6332TIP3    H140631   6.711   1.449   6.937  0.8760 -1.0513 -0.9073
 6332TIP3    H240632   6.621   1.477   6.818  1.6976 -0.6072 -1.4366
 6333TIP3   OH240633   3.031   6.187   7.385 -0.3841 -0.3967 -0.0069
 6333TIP3    H140634   3.028   6.129   7.309 -2.0572  0.3145 -0.5258
 6333TIP3    H240635   3.107   6.156   7.435  1.0195 -0.6336 -2.1310
 6334TIP3   OH240636   2.324   4.716   8.092 -0.0634 -0.3338 -0.8052
 6334TIP3    H140637   2.392   4.701   8.027  0.3508 -0.8971 -0.2545
 6334TIP3    H240638   2.292   4.804   8.074  1.3874  0.2681 -0.5438
 6335TIP3   OH240639   4.927   2.658   8.602  0.4211  0.0283  0.7774
 6335TIP3    H140640   4.867   2.623   8.536 -0.5103  0.5230  1.3405
 6335TIP3    H240641   4.989   2.587   8.619  0.2734 -0.3326 -0.1405
 6336TIP3   OH240642   3.705   5.622   0.350 -0.1242 -0.7152 -0.3705
 6336TIP3    H140643   3.767   5.551   0.366 -1.1416 -1.6205 -0.3784
 6336TIP3    H240644   3.753   5.683   0.294  1.1136 -0.8788  0.4712
 6337TIP3   OH240645   2.886   2.089   8.476 -0.0316 -0.3261  0.2924
 6337TIP3    H140646   2.793   2.083   8.498 -0.7857  2.7543 -1.4584
 6337TIP3    H240647   2.888   2.095   8.381  1.8712  0.4198  0.3319
 6338TIP3   OH240648   5.376   5.971   0.088 -0.4896  0.1276  0.9297
 6338TIP3    H140649   5.422   6.011   0.163 -0.9699 -1.4759  2.1266
 6338TIP3    H240650   5.442   5.916   0.046 -1.4155 -3.1816  3.3902
 6339TIP3   OH240651   6.335   0.690   8.884  0.4171 -0.5402  0.7787
 6339TIP3    H140652   6.349   0.608   8.837 -0.3532 -0.4429  0.3703
 6339TIP3    H240653   6.331   0.757   8.816 -2.6386 -0.6301  0.7612
 6340TIP3   OH240654   0.133   3.099   2.104  0.3375  0.0460 -0.0403
 6340TIP3    H140655   0.074   3.030   2.073  1.1265 -0.8510  0.3960
 6340TIP3    H240656   0.145   3.156   2.028 -2.0173  0.9515  0.1922
 6341TIP3   OH240657   1.207   4.819   7.960  0.0088 -0.2600 -0.0046
 6341TIP3    H140658   1.219   4.730   7.994  1.6702 -0.2582 -0.5108
 6341TIP3    H240659   1.199   4.874   8.038  1.6750 -0.5252  0.3847
 6342TIP3   OH240660   3.472   6.623   0.156 -0.0544 -0.1056  0.1465
 6342TIP3    H140661   3.402   6.666   0.106  0.2069 -0.1960 -0.3034
 6342TIP3    H240662   3.534   6.593   0.089  0.5086  0.1332  0.5560
 6343TIP3   OH240663   1.259   4.280   2.416  0.4874  0.6186  0.5478
 6343TIP3    H140664   1.291   4.205   2.467 -0.3785  0.3025  0.6445
 6343TIP3    H240665   1.193   4.320   2.473  1.5006  1.9550  0.8482
 6344TIP3   OH240666   1.418   4.261   8.785 -0.3226  0.6490  0.4172
 6344TIP3    H140667   1.473   4.322   8.736  0.1954  1.3528  1.8039
 6344TIP3    H240668   1.341   4.247   8.729  0.8729  0.2852 -1.1966
 6345TIP3   OH240669   2.819   2.819   0.228 -0.0863  0.3083  0.0354
 6345TIP3    H140670   2.769   2.899   0.246 -0.6434 -0.2641  1.2149
 6345TIP3    H240671   2.799   2.797   0.137 -1.4180  0.5076  0.2573
 6346TIP3   OH240672   2.429   5.115   0.766 -0.5832 -0.9268  0.0219
 6346TIP3    H140673   2.340   5.098   0.734 -0.9741  1.0334 -0.0348
 6346TIP3    H240674   2.423   5.198   0.813  1.2669 -0.6125 -0.2081
 6347TIP3   OH240675   5.280   4.601   8.789 -0.3072 -0.3056 -0.4513
 6347TIP3    H140676   5.333   4.668   8.745  0.0505 -0.3306 -0.0731
 6347TIP3    H240677   5.301   4.520   8.743 -0.4640 -0.2197 -0.6775
 6348TIP3   OH240678   3.342   6.414   0.974 -0.6211  0.0923  0.4032
 6348TIP3    H140679   3.310   6.325   0.960 -0.0038 -0.5155  2.5651
 6348TIP3    H240680   3.416   6.404   1.034 -0.4802  2.0721  0.6220
 6349TIP3   OH240681   3.265   6.280   0.610 -0.0734 -0.1805  0.2621
 6349TIP3    H140682   3.358   6.267   0.591 -0.4998 -2.8083 -0.4771
 6349TIP3    H240683   3.261   6.364   0.655  2.3742  1.0995 -1.6571
 6350TIP3   OH240684   0.429   0.498   8.662  0.7589 -0.2937  0.1181
 6350TIP3    H140685   0.353   0.549   8.690  0.7159 -0.1041 -0.3403
 6350TIP3    H240686   0.504   0.554   8.680  0.8145 -0.5713  0.7842
 6351TIP3   OH240687   3.815   6.241   2.008 -0.1551 -0.0644  0.5549
 6351TIP3    H140688   3.818   6.282   1.922 -0.6950  0.1812  0.6434
 6351TIP3    H240689   3.822   6.314   2.070  0.7864 -0.2923  0.7224
 6352TIP3   OH240690   4.754   3.905   0.441  0.1920 -0.4101 -0.6421
 6352TIP3    H140691   4.809   3.979   0.464  0.3265 -0.3900 -1.0223
 6352TIP3    H240692   4.749   3.853   0.522  1.1092 -0.6265 -0.7068
 6353TIP3   OH240693   0.831   0.905   0.749  0.4440  0.0305  0.1563
 6353TIP3    H140694   0.875   0.959   0.683  0.3060  1.0025  0.8429
 6353TIP3    H240695   0.756   0.868   0.703 -0.6772  2.1158  0.1848
 6354TIP3   OH240696   4.307   5.257   7.219 -0.1488 -0.2460 -0.8925
 6354TIP3    H140697   4.360   5.220   7.149 -0.4369 -0.7435 -0.8525
 6354TIP3    H240698   4.245   5.315   7.174 -0.0947 -0.2862 -1.0198
 6355TIP3   OH240699   1.373   4.377   7.557  0.0028 -0.3839 -0.7796
 6355TIP3    H140700   1.386   4.391   7.463 -2.3644  1.5388 -0.9300
 6355TIP3    H240701   1.311   4.305   7.563  1.4355 -1.6549 -0.5544
 6356TIP3   OH240702   6.026   2.267   1.191  0.0254 -0.0302  0.0937
 6356TIP3    H140703   6.007   2.197   1.253  2.0795 -0.6520  0.0933
 6356TIP3    H240704   6.070   2.223   1.118  1.0126  1.1935 -0.0827
 6357TIP3   OH240705   1.573   0.295   7.011 -0.2201 -0.2026  0.5490
 6357TIP3    H140706   1.549   0.382   6.979 -0.7626 -0.1073  1.1903
 6357TIP3    H240707   1.510   0.236   6.970  1.0496 -0.5319 -1.0847
 6358TIP3   OH240708   6.347   1.805   8.825  0.2876  0.9958  0.0297
 6358TIP3    H140709   6.413   1.740   8.850  1.3564  2.6629  1.8080
 6358TIP3    H240710   6.276   1.792   8.887 -0.5110  0.1011 -1.0308
 6359TIP3   OH240711   0.390   0.163   8.267 -0.3944 -0.0112  0.1823
 6359TIP3    H140712   0.484   0.146   8.276 -0.3259  0.2530  0.0191
 6359TIP3    H240713   0.359   0.095   8.207 -0.1749  0.2783 -0.2755
 6360TIP3   OH240714   6.587   2.903   0.326  0.2394  0.6541  0.6558
 6360TIP3    H140715   6.660   2.860   0.283 -0.8617 -0.8642  0.2034
 6360TIP3    H240716   6.571   2.851   0.405 -0.6136  0.6834  0.5172
 6361TIP3   OH240717   4.023   1.332   8.103 -0.2927 -0.4792 -0.2686
 6361TIP3    H140718   4.020   1.303   8.012 -3.3348 -1.3270 -0.0276
 6361TIP3    H240719   4.046   1.425   8.098  0.7776 -0.7842 -1.7677
 6362TIP3   OH240720   5.027   5.166   8.617 -0.1516  0.5097 -0.5331
 6362TIP3    H140721   5.088   5.238   8.598  1.1893 -1.2498 -3.5767
 6362TIP3    H240722   4.954   5.181   8.557 -1.0390  0.5901  0.5354
 6363TIP3   OH240723   4.799   0.405   8.768 -0.4897  0.4886 -0.1947
 6363TIP3    H140724   4.733   0.357   8.719 -1.3972  1.7472 -0.2705
 6363TIP3    H240725   4.749   0.457   8.832  0.5111  0.5284  0.5985
 6364TIP3   OH240726   6.200   4.463   7.851 -0.0195 -0.1227 -0.4115
 6364TIP3    H140727   6.246   4.449   7.933  1.6724 -1.1427 -1.4813
 6364TIP3    H240728   6.113   4.493   7.877  0.7440  0.4037  1.7088
 6365TIP3   OH240729   5.309   3.872   7.601 -0.6443  0.1019  0.2277
 6365TIP3    H140730   5.246   3.862   7.673  0.0139 -1.6672  0.6009
 6365TIP3    H240731   5.279   3.810   7.535 -0.1085  0.3033 -0.2103
 6366TIP3   OH240732   0.883   3.505   7.901 -0.4617  0.0056 -0.2430
 6366TIP3    H140733   0.910   3.460   7.981  2.0315  0.7770 -0.5749
 6366TIP3    H240734   0.822   3.572   7.930  1.7706  1.4769  1.3249
 6367TIP3   OH240735   0.632   1.368   8.689 -0.1480  0.8955 -0.0044
 6367TIP3    H140736   0.618   1.444   8.745  0.2648  0.3403  0.8629
 6367TIP3    H240737   0.708   1.323   8.726 -0.6047 -0.1498 -0.2700
 6368TIP3   OH240738   6.651   4.553   7.646 -0.1906 -0.8158  0.2198
 6368TIP3    H140739   6.667   4.593   7.731 -1.8280  0.8533 -0.1943
 6368TIP3    H240740   6.712   4.597   7.586 -2.4486  1.8122 -0.3734
 6369TIP3   OH240741   0.886   6.033   2.026  0.4487 -0.1613 -0.1050
 6369TIP3    H140742   0.836   5.952   2.035  1.7029 -0.9924 -0.2559
 6369TIP3    H240743   0.911   6.056   2.116  3.6827 -2.3723 -0.2531
 6370TIP3   OH240744   0.566   5.644   1.029  0.4578 -1.0888 -0.2386
 6370TIP3    H140745   0.575   5.738   1.048  1.2244 -0.9836 -1.0814
 6370TIP3    H240746   0.656   5.612   1.025  0.3326 -1.3159 -2.5991
 6371TIP3   OH240747   5.150   5.791   8.656  0.0793  0.1615  0.3313
 6371TIP3    H140748   5.119   5.877   8.683  0.3759  0.5123 -0.4083
 6371TIP3    H240749   5.244   5.793   8.674  0.1235  0.0725  0.1135
 6372TIP3   OH240750   3.543   3.487   7.186  0.2554  0.2665 -0.0099
 6372TIP3    H140751   3.566   3.401   7.220  0.5976  0.4997  0.3604
 6372TIP3    H240752   3.566   3.548   7.257  0.5567  0.7158 -0.4857
 6373TIP3   OH240753   3.149   1.147   7.662  0.1996  0.7540 -0.1556
 6373TIP3    H140754   3.078   1.144   7.597 -0.3264  0.2652  0.4330
 6373TIP3    H240755   3.122   1.216   7.723  0.3446  0.7212 -0.0549
 6374TIP3   OH240756   0.036   3.430   7.853 -0.4309  0.2867  0.3393
 6374TIP3    H140757   0.076   3.344   7.863 -0.6422  0.2112  0.5351
 6374TIP3    H240758   0.098   3.490   7.895  1.7007  0.7830 -3.1279
 6375TIP3   OH240759   3.039   4.911   2.239 -0.1322 -0.1734 -0.3564
 6375TIP3    H140760   3.057   4.991   2.289 -1.1197  0.9005 -1.6347
 6375TIP3    H240761   3.063   4.840   2.298 -0.4580  1.0407  1.3093
 6376TIP3   OH240762   5.497   5.033   0.155 -0.2779  0.1298  0.2770
 6376TIP3    H140763   5.458   5.078   0.081  0.8395  0.8162  0.0849
 6376TIP3    H240764   5.529   4.950   0.118 -1.4963 -0.4353  0.4357
 6377TIP3   OH240765   3.649   1.952   0.583  1.0006 -0.0631  0.0559
 6377TIP3    H140766   3.595   2.024   0.550  0.6217 -0.5818 -0.4905
 6377TIP3    H240767   3.603   1.921   0.661  0.7398 -0.2072 -0.1509
 6378TIP3   OH240768   1.068   3.622   7.735 -0.6423  0.3339 -0.3867
 6378TIP3    H140769   1.139   3.673   7.774 -0.3813  0.4124 -0.9535
 6378TIP3    H240770   1.014   3.596   7.809  0.4454 -0.4560  0.1628
 6379TIP3   OH240771   2.318   4.779   0.250  0.2804 -0.6061 -0.2207
 6379TIP3    H140772   2.309   4.741   0.338  2.0224 -1.6553 -0.4580
 6379TIP3    H240773   2.390   4.842   0.258 -1.6210  1.7194 -0.1889
 6380TIP3   OH240774   3.655   2.892   1.423  0.3291 -0.2543 -0.4175
 6380TIP3    H140775   3.583   2.903   1.361  0.3003  0.6658 -0.2306
 6380TIP3    H240776   3.618   2.837   1.493  0.2135 -0.8776 -0.9563
 6381TIP3   OH240777   6.606   1.508   8.625 -0.7975 -0.9084  0.1493
 6381TIP3    H140778   6.539   1.560   8.581  0.7594  0.8807 -0.2796
 6381TIP3    H240779   6.610   1.544   8.714 -0.2585 -0.8133  0.0916
 6382TIP3   OH240780   4.081   5.251   1.122  1.2934 -0.4084  0.4554
 6382TIP3    H140781   3.989   5.269   1.138  1.9556  1.7975  2.3697
 6382TIP3    H240782   4.105   5.186   1.188  1.1825 -0.8772  0.0468
 6383TIP3   OH240783   5.677   4.837   2.846  0.3205  0.4443 -0.4182
 6383TIP3    H140784   5.627   4.918   2.836  1.0941  1.1937  1.3332
 6383TIP3    H240785   5.612   4.769   2.857 -0.3265  1.0474 -0.4464
 6384TIP3   OH240786   3.959   3.224   8.896 -0.1354 -0.2440  0.2035
 6384TIP3    H140787   3.882   3.276   8.871  1.4109  1.4877 -1.2355
 6384TIP3    H240788   3.944   3.203   8.989 -1.4219  1.7582  0.5259
 6385TIP3   OH240789   1.031   6.444   1.451  0.6238  0.0917 -0.3817
 6385TIP3    H140790   1.050   6.445   1.545  0.3205  1.8804 -0.3110
 6385TIP3    H240791   1.116   6.456   1.410  0.4776  1.7539 -0.2444
 6386TIP3   OH240792   5.449   0.138   1.208 -0.7894  0.6831 -0.0292
 6386TIP3    H140793   5.376   0.172   1.156 -1.0841 -0.2151 -0.2323
 6386TIP3    H240794   5.524   0.139   1.148 -0.8098  0.9259 -0.0489
 6387TIP3   OH240795   3.233   3.395   1.499  0.2534  0.1101 -0.0564
 6387TIP3    H140796   3.327   3.407   1.517  0.0220  1.6044  0.2642
 6387TIP3    H240797   3.189   3.430   1.576 -0.5842 -0.4472 -0.2738
 6388TIP3   OH240798   2.060   4.905   2.909  0.5564 -0.0781  0.0796
 6388TIP3    H140799   2.029   4.995   2.904  1.3762  0.2870  1.3049
 6388TIP3    H240800   2.155   4.911   2.910  0.6266 -0.9662  0.0153
 6389TIP3   OH240801   0.480   3.394   0.622 -0.3606 -0.3168  0.2889
 6389TIP3    H140802   0.486   3.445   0.541 -0.6176 -1.1993 -0.2958
 6389TIP3    H240803   0.457   3.459   0.689  1.3285  0.6805 -0.0518
 6390TIP3   OH240804   1.807   2.336   0.576  0.1352  0.1490  0.0224
 6390TIP3    H140805   1.827   2.419   0.534  0.8098  0.7477  1.4486
 6390TIP3    H240806   1.795   2.358   0.669  0.4679 -1.3571  0.4575
 6391TIP3   OH240807   5.164   3.698   7.443 -0.1568  0.4136  0.4315
 6391TIP3    H140808   5.114   3.779   7.442  1.2066  1.3447  2.2594
 6391TIP3    H240809   5.099   3.628   7.441 -1.3475  1.4961 -1.5028
 6392TIP3   OH240810   1.045   4.447   8.717  0.6095  0.5001  0.0792
 6392TIP3    H140811   1.040   4.474   8.626  1.6952  0.5824  0.0387
 6392TIP3    H240812   0.956   4.459   8.750  0.4222  1.3864 -0.7065
 6393TIP3   OH240813   5.761   6.329   7.292  0.4581 -0.1695 -0.1871
 6393TIP3    H140814   5.678   6.326   7.339  1.5527  0.0420  1.8790
 6393TIP3    H240815   5.744   6.281   7.211 -1.9638  0.8481 -0.3541
 6394TIP3   OH240816   5.364   1.114   8.876  0.8163 -0.2165 -0.0472
 6394TIP3    H140817   5.440   1.062   8.850  0.7077 -0.3956 -0.0063
 6394TIP3    H240818   5.308   1.116   8.798  1.2905  0.6905 -0.3751
 6395TIP3   OH240819   5.341   1.131   0.631 -0.0759 -0.1279  0.4010
 6395TIP3    H140820   5.276   1.061   0.638  0.8065 -1.0881 -0.6163
 6395TIP3    H240821   5.325   1.186   0.707 -1.6288 -0.7217  0.5387
 6396TIP3   OH240822   1.280   5.906   0.398 -0.1965  0.6649  0.1813
 6396TIP3    H140823   1.354   5.924   0.341 -0.2116  2.8819  0.8010
 6396TIP3    H240824   1.301   5.949   0.481 -1.1849 -0.5976  1.1487
 6397TIP3   OH240825   6.113   2.042   8.879  0.1527 -0.3379 -0.4202
 6397TIP3    H140826   6.100   2.093   8.799  0.0431 -1.8732 -1.4224
 6397TIP3    H240827   6.207   2.048   8.897  0.1498  0.1434 -0.5602
 6398TIP3   OH240828   4.788   6.046   7.713 -0.5685  0.1633 -0.5534
 6398TIP3    H140829   4.714   6.102   7.738 -0.0026 -0.3134  2.5222
 6398TIP3    H240830   4.767   5.960   7.749  0.2420 -0.7157 -2.0721
 6399TIP3   OH240831   5.116   3.274   1.753 -0.2911  0.1476  0.3008
 6399TIP3    H140832   5.087   3.357   1.718 -1.4352 -1.4030 -2.7498
 6399TIP3    H240833   5.156   3.228   1.679 -0.7193 -2.4457  1.5414
 6400TIP3   OH240834   1.727   1.448   1.790 -0.1461 -0.0326 -0.4209
 6400TIP3    H140835   1.632   1.461   1.785 -0.4993 -2.1331  0.2271
 6400TIP3    H240836   1.751   1.408   1.707  0.2238  0.6651 -0.6606
 6401TIP3   OH240837   1.979   4.033   1.074 -0.0920  0.0846 -0.3711
 6401TIP3    H140838   1.908   4.014   1.134 -0.0746 -0.8745 -0.6360
 6401TIP3    H240839   1.991   4.128   1.080 -0.4163  0.0694  0.7508
 6402TIP3   OH240840   4.727   0.540   0.056 -0.0764  0.0194  0.4660
 6402TIP3    H140841   4.756   0.570   0.142  0.3838 -0.8201  0.6111
 6402TIP3    H240842   4.713   0.621   0.007 -1.2399  0.5321  1.6020
 6403TIP3   OH240843   4.439   3.150   2.583 -0.1808 -0.4045 -0.1168
 6403TIP3    H140844   4.442   3.150   2.488 -2.1540 -0.5152 -0.2205
 6403TIP3    H240845   4.469   3.062   2.609  2.2853  0.2679 -0.4873
 6404TIP3   OH240846   3.501   6.089   0.405  0.0433  0.3726 -0.5884
 6404TIP3    H140847   3.524   6.040   0.326  0.0611  1.4631 -1.2656
 6404TIP3    H240848   3.439   6.155   0.375 -2.0917 -0.8959  0.7618
 6405TIP3   OH240849   3.743   3.832   8.884  0.1332 -0.1670 -0.0387
 6405TIP3    H140850   3.836   3.808   8.875  0.0141 -0.0511 -2.4223
 6405TIP3    H240851   3.738   3.919   8.844 -0.8174  0.3570  1.1838
 6406TIP3   OH240852   6.204   6.405   2.199  0.0162  0.1129 -0.0896
 6406TIP3    H140853   6.122   6.377   2.158  1.0804 -3.4827 -0.0755
 6406TIP3    H240854   6.176   6.458   2.274 -2.5238 -2.7502  1.2249
 6407TIP3   OH240855   2.912   0.427   7.861  0.0941 -0.0427  0.0493
 6407TIP3    H140856   2.863   0.494   7.909  0.8229  0.8600 -0.4173
 6407TIP3    H240857   2.994   0.471   7.835  1.3643 -1.6111  1.1809
 6408TIP3   OH240858   0.770   2.767   8.529 -0.0520 -0.2529  0.2502
 6408TIP3    H140859   0.817   2.851   8.527 -2.9083  1.4957  0.2956
 6408TIP3    H240860   0.806   2.718   8.456  1.4280  1.1719 -0.0470
 6409TIP3   OH240861   5.808   2.269   1.771 -0.0127 -0.5826 -0.7389
 6409TIP3    H140862   5.836   2.187   1.813 -1.0898 -0.8980 -0.6221
 6409TIP3    H240863   5.758   2.241   1.695 -1.0381 -0.0578 -0.2835
 6410TIP3   OH240864   5.211   0.327   7.775  0.1042  0.1347 -0.0341
 6410TIP3    H140865   5.218   0.309   7.682  0.2143  2.4360 -0.5336
 6410TIP3    H240866   5.302   0.345   7.803  0.3730 -2.5006  1.0164
 6411TIP3   OH240867   3.787   0.946   1.525 -0.7319  0.3509  0.0737
 6411TIP3    H140868   3.758   1.021   1.472 -0.6781 -1.9379 -3.5137
 6411TIP3    H240869   3.752   0.869   1.479 -0.6655 -1.9368  3.4799
 6412TIP3   OH240870   6.331   1.437   1.050  0.1056 -0.0492  0.6002
 6412TIP3    H140871   6.274   1.453   1.125  1.5108  2.6737  1.2024
 6412TIP3    H240872   6.406   1.391   1.087 -0.8095 -2.0793  0.1044
 6413TIP3   OH240873   3.802   2.885   2.667  0.3150  0.1046 -0.2631
 6413TIP3    H140874   3.841   2.805   2.632  0.0903 -0.8034  1.4667
 6413TIP3    H240875   3.714   2.859   2.693  0.2907  0.8880  0.4691
 6414TIP3   OH240876   2.198   3.513   2.029  0.2182 -0.2017  0.6416
 6414TIP3    H140877   2.149   3.447   2.078  0.9400 -1.5670 -0.4231
 6414TIP3    H240878   2.279   3.470   2.003  1.6695  1.7357  1.6316
 6415TIP3   OH240879   5.021   3.906   7.576  0.4664  0.9806  1.1189
 6415TIP3    H140880   4.925   3.902   7.574  0.5106 -0.6096 -1.0628
 6415TIP3    H240881   5.042   3.989   7.534  0.0438  0.4214 -0.2329
 6416TIP3   OH240882   5.882   0.638   2.202  0.2987 -0.6478 -0.1429
 6416TIP3    H140883   5.840   0.589   2.273 -0.4214 -0.9442 -0.7543
 6416TIP3    H240884   5.818   0.635   2.130  0.4998  0.6879 -0.3971
 6417TIP3   OH240885   5.651   1.894   7.403 -0.2419 -0.3188 -0.5614
 6417TIP3    H140886   5.640   1.964   7.339 -1.7129 -1.2212 -1.3475
 6417TIP3    H240887   5.610   1.817   7.363  0.0260 -1.2730  0.8872
 6418TIP3   OH240888   2.462   5.088   0.066 -0.3327 -0.0432  0.4587
 6418TIP3    H140889   2.445   5.144   0.142 -0.4133  1.3578 -0.5529
 6418TIP3    H240890   2.541   5.040   0.090  0.0633  0.9140  1.1611
 6419TIP3   OH240891   6.179   4.184   0.326 -0.4733  0.1280 -1.1082
 6419TIP3    H140892   6.160   4.130   0.403  0.1486  0.3463 -0.7953
 6419TIP3    H240893   6.245   4.134   0.278  2.5352  1.9509  0.7877
 6420TIP3   OH240894   3.344   1.570   7.630  0.1101 -0.2140  0.3997
 6420TIP3    H140895   3.391   1.581   7.547 -0.7930 -0.3320 -0.1430
 6420TIP3    H240896   3.303   1.654   7.646  0.8330  0.0201  1.0933
 6421TIP3   OH240897   3.090   3.630   1.071 -0.0414 -0.2067  0.0805
 6421TIP3    H140898   3.154   3.688   1.113 -0.0945 -0.5672  0.6698
 6421TIP3    H240899   3.138   3.549   1.054 -0.3169 -0.4552  0.4660
 6422TIP3   OH240900   2.943   1.255   1.819  0.2550 -0.0874  0.3891
 6422TIP3    H140901   2.917   1.176   1.868  1.3508 -1.2191 -0.7752
 6422TIP3    H240902   3.026   1.231   1.777 -0.0122  1.2726 -1.0025
 6423TIP3   OH240903   3.693   2.317   1.471  0.1684 -0.2237  0.1004
 6423TIP3    H140904   3.778   2.361   1.466  0.0353  0.0663  0.3395
 6423TIP3    H240905   3.682   2.296   1.564  0.2125 -0.7343 -0.0043
 6424TIP3   OH240906   0.325   1.367   7.101 -0.3174  0.0867 -0.1813
 6424TIP3    H140907   0.342   1.286   7.150  0.3178 -0.3093 -1.0302
 6424TIP3    H240908   0.365   1.436   7.154 -0.1067 -0.2679  0.1218
 6425TIP3   OH240909   6.001   1.435   8.251  0.2831 -0.1696  0.2067
 6425TIP3    H140910   6.021   1.347   8.219 -0.8920 -0.4017  0.0870
 6425TIP3    H240911   6.082   1.485   8.236 -0.0318 -0.3869 -2.6126
 6426TIP3   OH240912   2.573   6.399   0.178  0.3696 -0.1205  0.1685
 6426TIP3    H140913   2.564   6.328   0.115 -1.9619 -0.5148  0.8392
 6426TIP3    H240914   2.657   6.383   0.220  0.3505 -1.9241 -0.3792
 6427TIP3   OH240915   4.268   1.712   7.462 -0.0282  0.3666 -0.3673
 6427TIP3    H140916   4.225   1.711   7.548  0.9013 -1.1987  0.1123
 6427TIP3    H240917   4.315   1.796   7.460 -1.1397  1.0196  0.0778
 6428TIP3   OH240918   2.474   5.443   7.771  0.2745 -0.1226  0.1619
 6428TIP3    H140919   2.497   5.485   7.688 -1.4130 -2.0050 -1.3556
 6428TIP3    H240920   2.532   5.485   7.836  1.5928  1.4673 -1.9079
 6429TIP3   OH240921   5.118   1.495   0.884  0.4399 -0.5113 -0.3689
 6429TIP3    H140922   5.157   1.493   0.971 -1.2063  3.2543  0.6423
 6429TIP3    H240923   5.025   1.475   0.899  0.0144  0.7611 -1.1024
 6430TIP3   OH240924   1.647   0.569   7.389  0.1515  0.1583 -0.0547
 6430TIP3    H140925   1.693   0.558   7.473  0.1949  1.4805  0.1208
 6430TIP3    H240926   1.665   0.488   7.342  1.1937 -0.0951  0.7195
 6431TIP3   OH240927   1.019   4.940   8.726 -0.5518  0.2855 -0.2888
 6431TIP3    H140928   0.961   4.886   8.673 -0.6360 -1.3834  1.4059
 6431TIP3    H240929   0.960   4.993   8.780 -0.4567  1.1157 -0.9640
 6432TIP3   OH240930   5.197   0.444   1.891 -0.4758 -0.2878  0.1464
 6432TIP3    H140931   5.166   0.534   1.883 -0.5316 -0.3963 -1.1816
 6432TIP3    H240932   5.129   0.400   1.941 -1.0018  0.1640 -0.1553
 6433TIP3   OH240933   1.374   2.871   7.597  0.1020  0.0098  0.5087
 6433TIP3    H140934   1.384   2.819   7.677 -0.4932 -0.7302  0.1140
 6433TIP3    H240935   1.442   2.938   7.604  1.1496 -1.0393  0.8716
 6434TIP3   OH240936   2.396   1.159   7.098  0.6328 -0.1540  0.0296
 6434TIP3    H140937   2.325   1.202   7.146  0.6645  0.2892 -0.3046
 6434TIP3    H240938   2.370   1.067   7.094  0.3729 -0.1009  0.4289
 6435TIP3   OH240939   3.450   1.344   1.436 -0.4063  0.4104 -0.0453
 6435TIP3    H140940   3.436   1.397   1.357 -2.2037  0.9303  0.5815
 6435TIP3    H240941   3.415   1.397   1.507 -1.1819 -1.1125  0.7533
 6436TIP3   OH240942   4.862   3.544   0.777 -0.0610 -0.1364 -0.2544
 6436TIP3    H140943   4.777   3.499   0.783  0.0342 -0.1874  0.8531
 6436TIP3    H240944   4.901   3.532   0.863  1.1584 -0.2628 -0.8119
 6437TIP3   OH240945   3.456   6.670   0.622  0.6088  0.1123  0.1518
 6437TIP3    H140946   3.371   6.660   0.665  0.7455 -0.3419  0.3176
 6437TIP3    H240947   3.436   6.713   0.539  0.4331  1.6989  0.9916
 6438TIP3   OH240948   6.004   5.032   8.929  0.5084 -0.2039  0.4554
 6438TIP3    H140949   6.013   5.032   9.024  1.0143  1.4099  0.4376
 6438TIP3    H240950   6.016   4.941   8.903 -1.2407 -0.9522  2.0571
 6439TIP3   OH240951   4.794   5.923   0.793  0.4364  0.2047  0.1773
 6439TIP3    H140952   4.718   5.895   0.743 -0.4546  0.0056  1.5726
 6439TIP3    H240953   4.867   5.875   0.755 -0.0362  0.7480 -1.4865
 6440TIP3   OH240954   3.895   1.118   0.599  0.8410  0.3123 -0.4537
 6440TIP3    H140955   3.829   1.075   0.545  0.3696  0.9060 -0.3673
 6440TIP3    H240956   3.914   1.200   0.552 -1.0486  1.8169  1.2262
 6441TIP3   OH240957   5.162   0.718   1.837 -0.1525  0.1733 -0.1157
 6441TIP3    H140958   5.112   0.749   1.912  1.1011 -0.5420  1.0592
 6441TIP3    H240959   5.222   0.790   1.817  0.1317  0.0139  0.1559
 6442TIP3   OH240960   4.939   0.734   0.680 -0.0872  0.0912  0.0932
 6442TIP3    H140961   4.912   0.659   0.628 -0.1554  0.2703 -0.1298
 6442TIP3    H240962   4.860   0.787   0.688 -0.9742 -1.4662  3.0668
 6443TIP3   OH240963   1.053   5.031   1.736  0.5444 -0.0112  0.2497
 6443TIP3    H140964   1.005   4.963   1.688  0.5253 -0.1917  0.5221
 6443TIP3    H240965   0.986   5.076   1.787  0.6371 -0.1402  0.4851
 6444TIP3   OH240966   6.183   2.426   0.404 -0.0132  0.1486 -0.3708
 6444TIP3    H140967   6.212   2.392   0.489  1.9590 -0.9305 -1.3917
 6444TIP3    H240968   6.252   2.487   0.378 -0.6827  0.6054 -1.1349
 6445TIP3   OH240969   5.997   3.731   8.885 -0.7405 -0.2399 -0.0981
 6445TIP3    H140970   6.014   3.683   8.966  0.5672  0.3509 -0.0028
 6445TIP3    H240971   6.026   3.820   8.903 -0.3848 -0.1076 -1.2339
 6446TIP3   OH240972   2.162   1.205   0.905  0.7677 -0.6118 -0.2071
 6446TIP3    H140973   2.247   1.194   0.948  1.3549  0.5592 -1.0336
 6446TIP3    H240974   2.140   1.297   0.917  0.3059 -0.5719 -1.2342
 6447TIP3   OH240975   2.410   5.478   8.595 -0.2967 -0.6641  0.5264
 6447TIP3    H140976   2.405   5.492   8.501  2.7774  0.2732  0.3664
 6447TIP3    H240977   2.330   5.431   8.618 -1.6473  0.0630 -2.3418
 6448TIP3   OH240978   2.426   5.881   7.476  0.0369 -0.1552  0.3609
 6448TIP3    H140979   2.474   5.865   7.557 -0.1762 -0.7406  0.3766
 6448TIP3    H240980   2.348   5.929   7.504  0.4897  0.5918  0.3630
 6449TIP3   OH240981   6.270   4.259   8.878  0.2495 -0.1355 -0.4903
 6449TIP3    H140982   6.314   4.333   8.920  0.9337 -0.7247 -0.1524
 6449TIP3    H240983   6.180   4.262   8.913  0.2682  0.5269 -0.4816
 6450TIP3   OH240984   2.794   0.567   0.864  0.2391  0.2257 -0.4904
 6450TIP3    H140985   2.800   0.605   0.776 -0.1936 -0.1378 -0.6819
 6450TIP3    H240986   2.865   0.608   0.913  0.8264  0.0424 -1.1657
 6451TIP3   OH240987   0.701   6.666   2.839  0.4125 -0.3595  0.0809
 6451TIP3    H140988   0.749   6.709   2.768 -0.6527 -0.7384 -0.9229
 6451TIP3    H240989   0.626   6.725   2.855  0.1626 -0.7230  0.2515
 6452TIP3   OH240990   4.082   2.309   2.216 -0.0618  0.5144  0.0708
 6452TIP3    H140991   3.993   2.287   2.189  0.4274 -0.2205 -1.0079
 6452TIP3    H240992   4.122   2.225   2.239  0.3936  0.8268  0.4426
 6453TIP3   OH240993   3.363   0.019   2.705 -0.0131  0.6673  0.1846
 6453TIP3    H140994   3.423   0.088   2.732  0.7207 -0.0368  0.3771
 6453TIP3    H240995   3.396  -0.060   2.747 -0.8017  0.1797 -0.0880
 6454TIP3   OH240996   5.496   3.519   1.945 -0.1547  0.7553  0.0554
 6454TIP3    H140997   5.446   3.549   2.021 -1.1263  0.6989 -0.5461
 6454TIP3    H240998   5.581   3.561   1.954 -1.2313  3.1890 -0.3800
 6455TIP3   OH240999   0.307   3.416   1.773  0.4799 -0.6086  0.1140
 6455TIP3    H141000   0.298   3.367   1.691  0.3764 -1.0443  0.3778
 6455TIP3    H241001   0.261   3.498   1.757  0.1527 -0.8359 -0.1488
 6456TIP3   OH241002   0.729   4.247   0.283 -0.2552  0.2125 -0.1896
 6456TIP3    H141003   0.802   4.279   0.229  0.4538 -0.8451  0.1073
 6456TIP3    H241004   0.771   4.212   0.361 -1.0205 -0.9543 -0.2771
 6457TIP3   OH241005   4.126   3.429   8.649  0.6646 -0.0859 -0.2675
 6457TIP3    H141006   4.156   3.492   8.714 -1.5557  2.5276 -1.5332
 6457TIP3    H241007   4.179   3.447   8.571 -0.2424  0.5487 -0.7558
 6458TIP3   OH241008   4.742   3.359   7.201  0.1775 -0.1568 -0.6732
 6458TIP3    H141009   4.750   3.382   7.293 -2.2124  0.9643 -0.6732
 6458TIP3    H241010   4.730   3.264   7.201  1.6402 -0.3686  0.0098
 6459TIP3   OH241011   0.010   6.762   8.294  0.3242  0.1636  0.1000
 6459TIP3    H141012   0.072   6.695   8.323  0.1387  0.0542  0.2470
 6459TIP3    H241013   0.029   6.773   8.201 -0.7153 -1.2588 -0.3197
 6460TIP3   OH241014   4.497   6.705   8.811  0.3053  0.0133 -0.0337
 6460TIP3    H141015   4.508   6.615   8.781 -0.4530 -0.2081  0.3268
 6460TIP3    H241016   4.478   6.697   8.904  1.8152  0.6525  0.3594
 6461TIP3   OH241017   3.044   4.910   1.494  0.2050 -0.0559 -0.5150
 6461TIP3    H141018   3.012   4.956   1.416  0.3643  1.6826  0.3968
 6461TIP3    H241019   2.988   4.832   1.501 -0.5657  0.3613 -1.7042
 6462TIP3   OH241020   1.601   2.924   1.816  0.3459 -0.7186 -0.8961
 6462TIP3    H141021   1.526   2.931   1.876  0.1053  0.6810 -1.3200
 6462TIP3    H241022   1.585   2.843   1.767 -0.4710 -0.8521 -0.4378
 6463TIP3   OH241023   1.862   3.069   8.221 -0.5835 -0.6655  0.2280
 6463TIP3    H141024   1.805   3.113   8.285  0.3666  2.3059 -0.8024
 6463TIP3    H241025   1.802   3.041   8.152 -1.1652 -0.4044  0.6120
 6464TIP3   OH241026   5.953   0.042   1.948  0.2360  0.0514 -0.1921
 6464TIP3    H141027   5.892  -0.023   1.911  1.5260 -1.0840 -0.4291
 6464TIP3    H241028   5.934   0.123   1.901 -0.9332 -0.3287 -0.4060
 6465TIP3   OH241029   4.006   5.870   2.570 -0.1488 -0.4287 -0.1899
 6465TIP3    H141030   3.995   5.963   2.549 -0.2162 -0.5929 -0.9001
 6465TIP3    H241031   4.027   5.829   2.487  1.3230 -0.8450  0.3544
 6466TIP3   OH241032   6.470   4.800   8.354 -0.0702 -0.6692  0.0412
 6466TIP3    H141033   6.462   4.714   8.395 -0.8307 -2.2015 -3.0268
 6466TIP3    H241034   6.382   4.821   8.323  0.1636  1.1138  0.4438
 6467TIP3   OH241035   2.284   6.466   0.443  0.0429 -0.0928 -0.7569
 6467TIP3    H141036   2.307   6.466   0.350  0.5217 -0.2780 -0.6404
 6467TIP3    H241037   2.200   6.511   0.447  0.8862  1.5740 -1.0697
 6468TIP3   OH241038   4.024   4.293   8.678  0.3794  0.0186  0.1803
 6468TIP3    H141039   4.025   4.299   8.583  0.7082 -0.0069  0.1815
 6468TIP3    H241040   3.936   4.321   8.703  0.5276  0.7379 -0.0820
 6469TIP3   OH241041   0.722   3.238   8.727 -0.3000 -0.7348 -0.4257
 6469TIP3    H141042   0.807   3.214   8.691 -0.8104 -1.7079 -1.0485
 6469TIP3    H241043   0.693   3.312   8.674  0.6233  0.3169  0.5043
 6470TIP3   OH241044   3.977   5.891   7.404 -0.2296 -0.3176  0.4647
 6470TIP3    H141045   3.893   5.846   7.402 -0.7929  0.7268 -0.7298
 6470TIP3    H241046   4.025   5.857   7.329 -1.0972  1.7644 -1.1484
 6471TIP3   OH241047   0.753   2.412   7.574 -0.0653  0.0066 -0.2177
 6471TIP3    H141048   0.760   2.385   7.483 -1.6954  1.1027 -0.7276
 6471TIP3    H241049   0.672   2.463   7.577 -0.5189 -0.7459  2.0420
 6472TIP3   OH241050   1.022   4.228   1.098 -0.0878  0.0593  0.1757
 6472TIP3    H141051   1.081   4.154   1.108  0.7059  0.0301 -3.2746
 6472TIP3    H241052   0.960   4.200   1.030 -1.7727  1.4583  1.0433
 6473TIP3   OH241053   6.547   0.563   8.492 -0.0473 -0.2477 -0.5465
 6473TIP3    H141054   6.602   0.618   8.548  0.7313 -1.1873 -0.3735
 6473TIP3    H241055   6.536   0.615   8.412 -0.0813  0.5395 -0.0499
 6474TIP3   OH241056   0.790   1.137   8.084  0.5032  0.2034 -0.3272
 6474TIP3    H141057   0.737   1.093   8.151 -1.1099  0.2630 -1.4895
 6474TIP3    H241058   0.751   1.224   8.076  0.9643  0.3559 -1.0158
 6475TIP3   OH241059   4.520   1.366   7.934  0.3448 -0.0141  0.2114
 6475TIP3    H141060   4.554   1.385   8.021  0.1677  0.8411  0.0977
 6475TIP3    H241061   4.561   1.283   7.910  2.0352  0.7749  0.2472
 6476TIP3   OH241062   3.671   3.745   2.179  0.1072  0.0893 -0.6811
 6476TIP3    H141063   3.608   3.690   2.225  0.8784  0.0036  0.3013
 6476TIP3    H241064   3.692   3.695   2.099 -0.0918 -0.4886 -0.3762
 6477TIP3   OH241065   6.108   0.543   8.544 -0.0284 -0.3018  0.3571
 6477TIP3    H141066   6.124   0.619   8.601 -2.9319  0.5429  0.1690
 6477TIP3    H241067   6.112   0.468   8.604  1.1672  0.1116  0.8478
 6478TIP3   OH241068   1.992   5.193   2.073 -0.2892 -0.2159 -0.5602
 6478TIP3    H141069   2.000   5.286   2.050  1.1630  0.1147  1.1151
 6478TIP3    H241070   2.003   5.190   2.168 -0.9172 -2.0545 -0.5033
 6479TIP3   OH241071   1.289   6.179   0.676  0.0215 -0.1086  0.0794
 6479TIP3    H141072   1.279   6.266   0.713 -0.4114 -0.5937  1.1396
 6479TIP3    H241073   1.338   6.193   0.595  0.1655  1.0800  0.3527
 6480TIP3   OH241074   0.903   1.901   1.372  0.0764 -0.1531  0.2710
 6480TIP3    H141075   0.871   1.853   1.448  0.4242 -0.0949  0.4517
 6480TIP3    H241076   0.997   1.883   1.369 -0.0983 -1.0005 -0.7385
 6481TIP3   OH241077   6.663   6.398   2.775 -0.1165  0.2611  0.1736
 6481TIP3    H141078   6.599   6.445   2.721 -1.0122 -1.6212 -0.5246
 6481TIP3    H241079   6.647   6.305   2.755  3.2253 -0.3003 -0.4744
 6482TIP3   OH241080   5.623   0.819   1.092  0.0459 -0.4241 -0.3083
 6482TIP3    H141081   5.592   0.728   1.087  0.3463 -0.5311 -0.2010
 6482TIP3    H241082   5.566   0.866   1.031 -0.2824 -0.6366 -0.1736
 6483TIP3   OH241083   2.706   6.361   8.430  0.1522  0.9163  0.0546
 6483TIP3    H141084   2.655   6.296   8.380  1.8528  2.0213 -3.4287
 6483TIP3    H241085   2.790   6.318   8.445  0.4016  1.4013  0.0324
 6484TIP3   OH241086   6.591   1.419   1.933  0.0359  0.6795  0.5766
 6484TIP3    H141087   6.640   1.483   1.881  0.9992 -0.2081  0.3247
 6484TIP3    H241088   6.523   1.469   1.977  0.2997  1.7419 -0.1861
 6485TIP3   OH241089   5.662   3.311   0.407 -0.4549 -0.6491  0.5098
 6485TIP3    H141090   5.640   3.264   0.488  0.7460 -0.1627  1.1522
 6485TIP3    H241091   5.681   3.401   0.436 -0.8588 -0.2433 -0.4401
 6486TIP3   OH241092   0.853   4.407   1.617 -0.7887 -0.1535  0.3345
 6486TIP3    H141093   0.907   4.481   1.646 -0.4171 -0.6608  0.9423
 6486TIP3    H241094   0.833   4.359   1.697  0.9078 -2.0267 -0.3071
 6487TIP3   OH241095   5.416   3.281   8.126  0.2446 -0.3400  0.0005
 6487TIP3    H141096   5.383   3.221   8.193  1.8909  0.0390  1.2264
 6487TIP3    H241097   5.393   3.240   8.043 -0.2935 -1.7272  0.8036
 6488TIP3   OH241098   6.321   5.898   1.191  0.7727  0.0211  0.2042
 6488TIP3    H141099   6.361   5.892   1.278  0.7217  1.8111  0.3996
 6488TIP3    H241100   6.394   5.923   1.134  0.5569  0.1134 -0.0292
 6489TIP3   OH241101   4.407   6.184   1.780 -0.3347 -0.1852 -0.1224
 6489TIP3    H141102   4.434   6.127   1.851  0.0025  0.7521  0.5215
 6489TIP3    H241103   4.312   6.193   1.791 -0.3540 -0.4442 -0.0934
 6490TIP3   OH241104   3.873   1.941   1.116 -0.2351 -0.0717  0.7819
 6490TIP3    H141105   3.905   1.861   1.158 -1.0681 -0.2843  1.0278
 6490TIP3    H241106   3.871   1.920   1.023 -2.2252 -1.0140  0.9836
 6491TIP3   OH241107   0.743   4.052   8.714 -0.2592  0.3177 -0.1867
 6491TIP3    H141108   0.746   3.956   8.713  0.4651  0.2018  2.9148
 6491TIP3    H241109   0.672   4.074   8.655 -0.0004 -2.0804 -1.5273
 6492TIP3   OH241110   4.779   6.744   2.111  0.2399 -0.6097  0.3157
 6492TIP3    H141111   4.835   6.820   2.125  0.2363 -0.1820 -1.6904
 6492TIP3    H241112   4.710   6.753   2.177  0.4865  0.8885  0.4159
 6493TIP3   OH241113   6.264   5.238   8.024  0.3060  0.2016  0.1584
 6493TIP3    H141114   6.311   5.158   8.003  0.1986  0.0620  0.4515
 6493TIP3    H241115   6.272   5.247   8.119 -1.4769 -0.5871  0.4082
 6494TIP3   OH241116   1.758   1.680   7.290 -0.4157 -0.2246  0.4143
 6494TIP3    H141117   1.759   1.766   7.248 -2.2088 -0.1022  0.5815
 6494TIP3    H241118   1.842   1.640   7.264  0.6430  1.7167  0.6912
 6495TIP3   OH241119   5.801   4.405   0.494 -0.0336 -0.6129 -0.7538
 6495TIP3    H141120   5.895   4.400   0.508  0.1132  1.1817 -0.8862
 6495TIP3    H241121   5.791   4.447   0.408 -0.9391  0.6237 -0.0750
 6496TIP3   OH241122   1.006   0.587   1.472  0.0662 -0.5181 -0.1377
 6496TIP3    H141123   0.942   0.658   1.463 -1.1360 -1.7017 -1.4059
 6496TIP3    H241124   1.057   0.591   1.391  1.0691 -0.1230  0.4966
 6497TIP3   OH241125   4.281   6.267   0.757  0.4563 -0.1641 -0.2214
 6497TIP3    H141126   4.222   6.284   0.684 -0.6161 -0.3868  0.5668
 6497TIP3    H241127   4.352   6.331   0.745 -1.0877  1.7043  0.0397
 6498TIP3   OH241128   3.187   2.639   1.960 -0.0404  0.2898 -0.4251
 6498TIP3    H141129   3.233   2.704   1.907  1.6835 -0.0987  0.5102
 6498TIP3    H241130   3.210   2.661   2.051  0.2234 -1.3105 -0.0628
 6499TIP3   OH241131   5.191   3.558   8.588  0.0205 -0.0703 -0.1475
 6499TIP3    H141132   5.211   3.493   8.521  3.4724  1.1096 -0.4801
 6499TIP3    H241133   5.203   3.512   8.671  1.0637 -0.2718 -0.3913
 6500TIP3   OH241134   0.230   4.827   8.036 -0.0568 -0.0626  0.5282
 6500TIP3    H141135   0.248   4.733   8.041  0.6019 -0.0200 -0.8410
 6500TIP3    H241136   0.316   4.868   8.034 -0.3370  0.6346  1.8066
 6501TIP3   OH241137   2.888   4.556   8.840 -0.5100  0.3095  0.1456
 6501TIP3    H141138   2.963   4.616   8.836  0.1034 -0.5139 -2.0475
 6501TIP3    H241139   2.880   4.521   8.751 -2.5347 -0.8324  0.7060
 6502TIP3   OH241140   3.612   1.911   7.110 -0.5577  0.2648 -0.1473
 6502TIP3    H141141   3.596   1.819   7.132 -1.0668  0.1872 -0.7799
 6502TIP3    H241142   3.638   1.951   7.192  0.5912 -0.6400 -0.0466
 6503TIP3   OH241143   1.732   6.519   2.104 -0.3924 -0.7273  0.2013
 6503TIP3    H141144   1.823   6.497   2.122 -0.2348  0.9602  1.7981
 6503TIP3    H241145   1.695   6.538   2.190 -2.3130 -1.4941 -0.3962
 6504TIP3   OH241146   3.624   3.106   8.924  0.3889  0.4059 -0.1620
 6504TIP3    H141147   3.616   3.157   8.843 -1.1234 -0.9099 -0.9058
 6504TIP3    H241148   3.616   3.015   8.895 -0.7819 -0.0657  1.5242
 6505TIP3   OH241149   4.101   3.471   1.822  0.3494  0.4383 -0.0726
 6505TIP3    H141150   4.035   3.413   1.860  0.2845  0.5763  0.0268
 6505TIP3    H241151   4.168   3.412   1.788 -0.6922  0.1857 -1.8629
 6506TIP3   OH241152   1.983   0.308   8.839  0.3594 -0.1445  0.0966
 6506TIP3    H141153   2.011   0.398   8.825  0.3613 -0.2668 -0.7782
 6506TIP3    H241154   1.973   0.273   8.750 -1.3744 -0.4622  0.3776
 6507TIP3   OH241155   3.952   0.034   1.759  0.3492 -0.2144 -0.2764
 6507TIP3    H141156   3.911  -0.021   1.826  1.8712 -0.4513  0.5104
 6507TIP3    H241157   4.046   0.023   1.774  0.7043  1.7992 -0.7680
 6508TIP3   OH241158   4.775   2.644   8.065 -0.4146 -0.0916  0.3215
 6508TIP3    H141159   4.750   2.598   8.145 -0.3993  0.1654  0.4757
 6508TIP3    H241160   4.866   2.619   8.051 -0.0339  0.7926  1.0533
 6509TIP3   OH241161   0.565   6.024   0.663 -0.0444  0.6787 -0.1699
 6509TIP3    H141162   0.596   6.056   0.748  0.0404  1.5199 -0.5066
 6509TIP3    H241163   0.563   5.929   0.672 -0.0906  0.7633  0.7927
 6510TIP3   OH241164   1.635   1.716   1.659  0.6312  0.1831 -0.1159
 6510TIP3    H141165   1.596   1.669   1.733  1.7204  1.2382  1.1718
 6510TIP3    H241166   1.692   1.651   1.617 -1.1566 -0.8905 -1.0407
 6511TIP3   OH241167   6.667   2.848   0.869  0.1404 -0.1931  0.5836
 6511TIP3    H141168   6.748   2.897   0.859  0.0136 -0.2561 -1.1512
 6511TIP3    H241169   6.685   2.785   0.938  1.2485  0.4066  0.8683
 6512TIP3   OH241170   3.479   0.672   2.162  0.0981  0.2781 -0.3124
 6512TIP3    H141171   3.538   0.676   2.238 -0.9002  0.1045  0.5001
 6512TIP3    H241172   3.511   0.599   2.111  0.7563  0.3588 -0.0270
 6513TIP3   OH241173   3.401   0.865   0.987 -0.3612 -0.1509 -0.7270
 6513TIP3    H141174   3.335   0.909   1.041 -0.8731 -0.3079 -1.2206
 6513TIP3    H241175   3.478   0.921   0.994 -0.2130 -0.4649  0.6465
 6514TIP3   OH241176   6.682   1.083   8.385  0.1528  0.3746 -0.0108
 6514TIP3    H141177   6.683   1.152   8.318 -0.4251 -0.7423 -1.2114
 6514TIP3    H241178   6.640   1.124   8.461  0.2384  1.4777 -0.5306
 6515TIP3   OH241179   6.356   1.882   2.699  0.6200  0.2157 -0.0247
 6515TIP3    H141180   6.408   1.808   2.670 -0.2100 -0.8706  1.1489
 6515TIP3    H241181   6.340   1.865   2.792 -2.1733  0.2538 -0.4191
 6516TIP3   OH241182   3.617   0.484   1.971  0.0327  0.3021 -0.6594
 6516TIP3    H141183   3.561   0.430   2.027 -0.1230  0.7308 -0.3925
 6516TIP3    H241184   3.705   0.449   1.984 -0.2902 -1.0122 -1.8360
 6517TIP3   OH241185   2.146   0.474   7.628  0.0785 -0.3129 -0.3899
 6517TIP3    H141186   2.094   0.553   7.611  0.8826  0.0948 -0.9912
 6517TIP3    H241187   2.132   0.457   7.721  0.1951  0.7597 -0.1564
 6518TIP3   OH241188   6.207   0.220   1.758 -0.1020  0.1658 -0.0887
 6518TIP3    H141189   6.187   0.310   1.734 -0.2673  0.1795  0.0950
 6518TIP3    H241190   6.121   0.177   1.763  0.0025 -0.1307 -0.6713
 6519TIP3   OH241191   2.860   2.046   7.355  0.4858  0.0485  0.6751
 6519TIP3    H141192   2.814   2.128   7.373  0.8474  0.3387  0.3151
 6519TIP3    H241193   2.897   2.059   7.267 -0.2949 -0.8870  0.1888
 6520TIP3   OH241194   6.798   3.165   8.826 -0.3119  0.1153  0.0610
 6520TIP3    H141195   6.785   3.074   8.799 -0.5918  0.2016 -0.1027
 6520TIP3    H241196   6.892   3.171   8.845 -0.4627 -0.4631  1.0582
 6521TIP3   OH241197   5.613   6.692   0.769  0.0623  0.1758 -0.5942
 6521TIP3    H141198   5.573   6.613   0.734  1.4498 -0.8516  0.0590
 6521TIP3    H241199   5.649   6.737   0.692  1.2010 -0.9723 -0.7617
 6522TIP3   OH241200   4.777   5.313   0.329 -0.7747 -0.4694  0.6427
 6522TIP3    H141201   4.803   5.230   0.290  1.8755 -0.0740  1.3597
 6522TIP3    H241202   4.829   5.319   0.410 -1.6044  1.4556  1.0961
 6523TIP3   OH241203   4.990   6.353   1.769 -0.3645 -0.1879  0.8209
 6523TIP3    H141204   5.069   6.389   1.810  1.4818 -1.4476 -1.4397
 6523TIP3    H241205   5.013   6.264   1.744 -1.7981  0.0473 -1.7103
 6524TIP3   OH241206   1.541   3.728   7.826  0.1041 -0.9775  0.1309
 6524TIP3    H141207   1.608   3.778   7.873  0.0158 -2.1568  1.5725
 6524TIP3    H241208   1.570   3.637   7.833 -0.8764 -1.3548 -0.5281
 6525TIP3   OH241209   4.311   6.066   6.668  0.4160  0.0679 -0.6283
 6525TIP3    H141210   4.286   6.132   6.604  0.5332  2.2721  1.4582
 6525TIP3    H241211   4.231   6.050   6.718  1.1019  1.0179  0.8447
 6526TIP3   OH241212   1.633   3.353   8.548  0.7181 -0.4374 -0.0515
 6526TIP3    H141213   1.701   3.414   8.520  2.2211 -2.0864 -0.1811
 6526TIP3    H241214   1.662   3.322   8.634 -0.1913 -0.7237  0.1643
 6527TIP3   OH241215   2.737   1.102   0.863 -0.0762 -0.2409  0.2394
 6527TIP3    H141216   2.700   1.021   0.898  1.1026 -0.1185  1.8687
 6527TIP3    H241217   2.822   1.075   0.828 -0.5615 -0.0582 -1.1247
 6528TIP3   OH241218   2.286   3.714   2.192 -0.1614 -0.5277 -0.1886
 6528TIP3    H141219   2.269   3.647   2.259 -0.9660 -1.6675 -1.4608
 6528TIP3    H241220   2.254   3.674   2.110  0.9005  0.7528 -1.2789
 6529TIP3   OH241221   0.678   6.351   8.654 -0.2423 -0.7619  0.6483
 6529TIP3    H141222   0.642   6.432   8.618 -0.9382 -0.7209  1.4041
 6529TIP3    H241223   0.638   6.281   8.601  1.0381 -0.6076 -0.5885
 6530TIP3   OH241224   1.258   5.790   1.311 -0.7895  0.0482 -0.0017
 6530TIP3    H141225   1.256   5.808   1.217 -1.2685 -0.9044 -0.1845
 6530TIP3    H241226   1.344   5.749   1.325 -1.7494 -2.3081 -0.5375
 6531TIP3   OH241227   4.653   6.256   7.492 -0.4788  0.1109 -0.4404
 6531TIP3    H141228   4.569   6.283   7.456  0.2408  2.3021 -0.6207
 6531TIP3    H241229   4.641   6.260   7.587 -0.8579 -0.5659 -0.4566
 6532TIP3   OH241230   4.760   5.410   8.393 -0.1592  0.0509 -0.0720
 6532TIP3    H141231   4.671   5.406   8.359  0.2248  0.2114 -1.1328
 6532TIP3    H241232   4.811   5.451   8.323  0.7740 -0.1633  0.4596
 6533TIP3   OH241233   2.600   0.354   2.585 -0.0100 -0.2080  0.1748
 6533TIP3    H141234   2.639   0.268   2.572 -0.3894 -0.5134  0.9796
 6533TIP3    H241235   2.516   0.349   2.539  0.0047 -0.2320  0.1501
 6534TIP3   OH241236   3.708   0.551   1.218 -0.1651  0.5998  0.2097
 6534TIP3    H141237   3.795   0.517   1.239  0.4484  1.9819 -0.0092
 6534TIP3    H241238   3.673   0.489   1.154  0.9014  0.3398 -0.1467
 6535TIP3   OH241239   3.713   1.782   2.538 -0.5406 -0.0785  0.5346
 6535TIP3    H141240   3.719   1.867   2.582  1.4473  0.0816  0.0383
 6535TIP3    H241241   3.619   1.764   2.533 -0.9483  1.4674  1.8099
 6536TIP3   OH241242   3.870   4.680   8.333 -0.4621 -0.0911 -0.4134
 6536TIP3    H141243   3.923   4.704   8.257  0.3751  0.9021  0.4549
 6536TIP3    H241244   3.779   4.692   8.304 -0.1327  1.4540 -0.8974
 6537TIP3   OH241245   6.595   3.241   7.837  0.3125 -0.1775 -0.0953
 6537TIP3    H141246   6.686   3.269   7.847  1.2658 -3.1429  0.3926
 6537TIP3    H241247   6.569   3.275   7.751  0.6108  3.6556  1.1328
 6538TIP3   OH241248   4.334   0.775   1.612 -0.1207 -0.0087 -0.2171
 6538TIP3    H141249   4.382   0.854   1.587  0.2154 -0.2423 -0.3279
 6538TIP3    H241250   4.260   0.807   1.664 -0.2828  0.4123 -0.6982
 6539TIP3   OH241251   0.017   6.094   2.282  0.8492  0.4609 -0.2761
 6539TIP3    H141252  -0.065   6.066   2.323 -0.5177  1.6780 -1.9867
 6539TIP3    H241253   0.033   6.181   2.319  1.0468  0.4500 -0.3385
 6540TIP3   OH241254   0.826   6.113   7.862  0.1972 -0.1207  0.0587
 6540TIP3    H141255   0.841   6.112   7.767 -0.7071 -0.9061 -0.0931
 6540TIP3    H241256   0.815   6.206   7.883 -0.5606 -0.0054 -0.7724
 6541TIP3   OH241257   4.193   0.731   7.763  0.3589  0.2408 -0.2183
 6541TIP3    H141258   4.170   0.659   7.705 -1.9342 -0.3268  1.2657
 6541TIP3    H241259   4.269   0.699   7.813 -1.0158 -1.4671  0.8727
 6542TIP3   OH241260   1.048   6.167   1.630  0.4214  0.1477  0.1589
 6542TIP3    H141261   0.989   6.092   1.617 -0.0569 -0.0354  2.8842
 6542TIP3    H241262   1.113   6.158   1.560 -0.6316 -1.7841 -0.6589
 6543TIP3   OH241263   4.694   1.252   7.697 -0.1267 -0.2913 -0.0226
 6543TIP3    H141264   4.607   1.234   7.663  1.4608 -1.6731 -3.8240
 6543TIP3    H241265   4.717   1.337   7.659  0.8526 -0.7969 -0.5836
 6544TIP3   OH241266   1.694   2.229   7.741 -0.3579  0.4397  0.0441
 6544TIP3    H141267   1.672   2.321   7.755 -1.1168  0.3979 -0.8237
 6544TIP3    H241268   1.678   2.214   7.648  2.2769  0.1093 -0.4476
 6545TIP3   OH241269   5.939   4.321   0.247  0.6888 -0.0454 -0.4433
 6545TIP3    H141270   6.025   4.279   0.250  0.9509  0.5460  1.0364
 6545TIP3    H241271   5.877   4.249   0.251  1.1299 -0.3824  0.7915
 6546TIP3   OH241272   5.168   3.162   7.618 -0.2331 -0.2340  0.0598
 6546TIP3    H141273   5.113   3.164   7.540 -1.3930 -2.7435  0.7316
 6546TIP3    H241274   5.128   3.227   7.676 -0.8275 -0.0723 -0.5139
 6547TIP3   OH241275   0.931   2.714   0.553 -0.0208 -0.2305  0.7017
 6547TIP3    H141276   0.932   2.691   0.646 -2.5407  1.4051  1.2253
 6547TIP3    H241277   0.842   2.695   0.524  0.5019 -0.0042 -1.2015
 6548TIP3   OH241278   2.284   0.431   6.997  0.4614  0.7047 -0.2848
 6548TIP3    H141279   2.378   0.413   7.002  0.6489  1.7066  0.1134
 6548TIP3    H241280   2.277   0.508   6.941 -0.1803  0.2672 -0.8168
 6549TIP3   OH241281   5.662   5.666   7.550 -0.2243 -0.2499  0.0771
 6549TIP3    H141282   5.570   5.663   7.524  0.0801 -1.9993 -0.9146
 6549TIP3    H241283   5.662   5.720   7.630 -1.9932  0.3097 -0.2492
 6550TIP3   OH241284   3.781   1.480   7.895  0.0535 -0.4068  0.0021
 6550TIP3    H141285   3.705   1.473   7.837  0.3940 -0.2941 -0.4642
 6550TIP3    H241286   3.846   1.422   7.857  0.7253  0.6012 -0.4516
 6551TIP3   OH241287   5.744   5.432   7.798 -0.2984  0.1166 -0.7368
 6551TIP3    H141288   5.755   5.418   7.892 -1.3206  0.7381 -0.5145
 6551TIP3    H241289   5.793   5.512   7.780  0.1971 -0.1985 -0.8071
 6552TIP3   OH241290   0.102   0.347   0.335  0.7898  0.3047  0.5729
 6552TIP3    H141291   0.064   0.415   0.390  0.8661 -0.4369  1.5676
 6552TIP3    H241292   0.055   0.353   0.252 -1.1570 -0.2399  1.5923
 6553TIP3   OH241293   3.881   5.627   1.262  1.0842 -0.1158 -0.1117
 6553TIP3    H141294   3.901   5.648   1.171  2.0399 -0.7585 -0.0668
 6553TIP3    H241295   3.840   5.706   1.297 -0.5784 -0.3286 -1.4620
 6554TIP3   OH241296   6.611   0.069   0.374  0.4712  0.1831  0.4210
 6554TIP3    H141297   6.614   0.161   0.349 -1.0181  0.6295  1.7206
 6554TIP3    H241298   6.518   0.050   0.387  0.6158 -1.9057 -1.1025
 6555TIP3   OH241299   1.957   3.005   1.797 -0.2913 -0.3808  0.0014
 6555TIP3    H141300   2.052   3.003   1.806 -0.2100  0.4057 -0.5673
 6555TIP3    H241301   1.926   2.942   1.862  0.5667  0.0722  0.8870
 6556TIP3   OH241302   5.273   3.925   0.488  0.0489 -0.3036  0.2734
 6556TIP3    H141303   5.200   3.942   0.547  0.8384  0.4663  1.0534
 6556TIP3    H241304   5.310   4.011   0.469  3.2883 -0.8580  3.2080
 6557TIP3   OH241305   2.817   0.345   2.081 -0.4159  0.3950  0.3471
 6557TIP3    H141306   2.794   0.256   2.108  0.2892 -0.8616 -2.7538
 6557TIP3    H241307   2.820   0.394   2.162  1.4857 -2.9072  2.5101
 6558TIP3   OH241308   4.802   4.058   8.224  0.0509 -0.4675 -0.3065
 6558TIP3    H141309   4.833   3.983   8.174 -0.7022 -0.7830 -0.3126
 6558TIP3    H241310   4.710   4.067   8.201  0.2697  0.8423 -0.7644
 6559TIP3   OH241311   4.439   4.201   7.941 -0.3103 -0.2456 -0.3490
 6559TIP3    H141312   4.517   4.247   7.971 -0.5096 -0.2481  0.1759
 6559TIP3    H241313   4.380   4.270   7.911 -0.4816 -0.1764  0.1403
 6560TIP3   OH241314   1.816   2.024   1.273 -0.4913 -0.0094  0.2290
 6560TIP3    H141315   1.827   2.119   1.273  1.6940 -0.2081  0.1318
 6560TIP3    H241316   1.727   2.010   1.307 -1.3068  2.0806 -0.8362
 6561TIP3   OH241317   4.135   0.012   0.395  0.1692 -0.7439 -0.3115
 6561TIP3    H141318   4.092  -0.038   0.464 -1.5375  1.5095  0.3871
 6561TIP3    H241319   4.101   0.101   0.405  1.4158  0.1170 -2.8048
 6562TIP3   OH241320   0.871   1.691   0.705 -0.1565 -0.2237  0.6964
 6562TIP3    H141321   0.919   1.736   0.635 -0.0950  1.6702  1.8796
 6562TIP3    H241322   0.794   1.746   0.720  0.7712  0.4978  3.3576
 6563TIP3   OH241323   4.872   3.337   8.797 -0.3395 -0.1422 -0.0831
 6563TIP3    H141324   4.904   3.427   8.802 -0.4277 -0.0544 -0.9196
 6563TIP3    H241325   4.832   3.331   8.710 -1.7682 -0.5193  0.5568
 6564TIP3   OH241326   2.638   5.526   1.058  0.0602 -0.8234 -0.2207
 6564TIP3    H141327   2.647   5.431   1.060  0.1896 -0.8743 -1.8996
 6564TIP3    H241328   2.594   5.545   0.975 -1.2936  0.4998  0.7447
 6565TIP3   OH241329   4.575   2.664   1.941  0.2586  0.0665  0.0693
 6565TIP3    H141330   4.643   2.704   1.996  0.9039 -1.4127  0.3898
 6565TIP3    H241331   4.508   2.636   2.003  0.7991 -1.2353  0.0935
 6566TIP3   OH241332   6.709   5.531   8.148 -0.4158 -0.5845 -0.7422
 6566TIP3    H141333   6.745   5.447   8.118  0.3704 -0.3142 -0.5739
 6566TIP3    H241334   6.616   5.525   8.128 -0.4330 -1.6491 -0.3833
 6567TIP3   OH241335   0.789   4.684   2.495  0.2299  0.0837  0.2436
 6567TIP3    H141336   0.836   4.755   2.539  0.0304 -0.3648  1.1962
 6567TIP3    H241337   0.703   4.721   2.476  0.2778  0.2392  0.3251
 6568TIP3   OH241338   0.028   3.551   0.610 -0.4586 -0.0885  0.1820
 6568TIP3    H141339   0.091   3.505   0.666  0.3089  0.2488 -0.3725
 6568TIP3    H241340   0.039   3.511   0.524 -2.0727 -1.0267  0.3804
 6569TIP3   OH241341   4.336   0.307   7.769  0.0316  0.6538 -0.3568
 6569TIP3    H141342   4.406   0.279   7.709 -0.3906 -1.3466  0.0109
 6569TIP3    H241343   4.382   0.330   7.850  0.3734  0.7617 -0.5765
 6570TIP3   OH241344   2.686   6.644   1.972  0.3423  1.0311 -0.2219
 6570TIP3    H141345   2.729   6.722   2.006 -0.1415  1.6991 -1.1034
 6570TIP3    H241346   2.623   6.619   2.041  1.0302  0.9499  0.3920
 6571TIP3   OH241347   1.619   1.240   2.330  0.0283 -0.8075 -0.0149
 6571TIP3    H141348   1.709   1.271   2.341  0.4675 -1.6003 -1.2584
 6571TIP3    H241349   1.625   1.145   2.336 -0.5826 -0.9228 -1.0201
 6572TIP3   OH241350   2.496   1.812   0.158  0.6635 -0.0273 -0.5106
 6572TIP3    H141351   2.494   1.717   0.173 -0.4099  0.2228  1.2677
 6572TIP3    H241352   2.405   1.835   0.142  0.8743  0.7438 -0.6354
 6573TIP3   OH241353   6.496   3.578   7.502 -0.2254 -0.2177 -0.3967
 6573TIP3    H141354   6.431   3.597   7.570 -0.9580  2.6243 -1.7405
 6573TIP3    H241355   6.551   3.656   7.498  0.1821 -0.5366 -2.6071
 6574TIP3   OH241356   6.118   1.888   0.428 -0.6263  0.2040  0.0086
 6574TIP3    H141357   6.189   1.828   0.405 -0.4634  0.1517  0.6129
 6574TIP3    H241358   6.103   1.939   0.349  0.5362  0.6659  0.0644
 6575TIP3   OH241359   1.136   4.787   0.028 -0.6238 -0.3981  0.4269
 6575TIP3    H141360   1.050   4.789  -0.014 -0.5867  2.4333  0.3006
 6575TIP3    H241361   1.149   4.876   0.062  1.9828 -0.9115  1.0526
 6576TIP3   OH241362   5.050   4.673   7.594  0.5935  0.5003 -0.0226
 6576TIP3    H141363   5.127   4.664   7.539  1.3113  2.9462  0.4731
 6576TIP3    H241364   5.010   4.755   7.567 -1.2976 -0.2284  0.4214
 6577TIP3   OH241365   3.662   2.383   7.176 -0.0216 -0.2403  0.0680
 6577TIP3    H141366   3.669   2.467   7.132 -0.9245 -0.3739 -0.3391
 6577TIP3    H241367   3.640   2.404   7.267  1.8443  0.0351  0.4961
 6578TIP3   OH241368   4.660   3.075   7.200  0.7376  0.5005  0.4214
 6578TIP3    H141369   4.583   3.028   7.167  0.1411  0.7538  1.3998
 6578TIP3    H241370   4.680   3.033   7.283  1.6380  0.4742  0.2016
 6579TIP3   OH241371   6.535   0.059   7.748 -0.1132  0.1396  0.0264
 6579TIP3    H141372   6.452   0.089   7.711  1.1084  1.6310 -1.7225
 6579TIP3    H241373   6.524   0.067   7.843 -2.4220 -1.1185 -0.0795
 6580TIP3   OH241374   0.959   0.742   8.730  0.0449 -0.3204 -0.0259
 6580TIP3    H141375   0.958   0.659   8.683 -1.5153 -0.0622 -0.5213
 6580TIP3    H241376   1.031   0.734   8.792  1.1570 -1.2810 -1.3856
 6581TIP3   OH241377   1.527   5.145   0.236 -0.8821  0.3959  0.1200
 6581TIP3    H141378   1.506   5.060   0.196  0.8515  0.3835 -0.8146
 6581TIP3    H241379   1.506   5.132   0.329  1.8178 -1.9899  0.5375
 6582TIP3   OH241380   0.446   4.169   0.854 -0.0304  0.3279 -0.2277
 6582TIP3    H141381   0.521   4.141   0.905 -1.0595  1.3931  1.9994
 6582TIP3    H241382   0.435   4.101   0.788  1.6425 -0.8722  0.6748
 6583TIP3   OH241383   6.431   0.523   0.650 -0.1372  0.3192  0.5677
 6583TIP3    H141384   6.450   0.434   0.679 -0.3915  0.3170  0.7304
 6583TIP3    H241385   6.516   0.567   0.653  0.0101  0.0530  0.3736
 6584TIP3   OH241386   2.302   2.620   0.878  0.0607  0.2924 -0.1242
 6584TIP3    H141387   2.386   2.634   0.834  0.3208  0.4120  0.4005
 6584TIP3    H241388   2.251   2.699   0.858  0.8141  1.1569  1.2175
 6585TIP3   OH241389   3.403   4.740   6.735 -0.6110 -0.1267 -0.3413
 6585TIP3    H141390   3.388   4.724   6.828  0.3947  0.6378 -0.0279
 6585TIP3    H241391   3.439   4.657   6.702 -0.6652 -0.2949  0.0232
 6586TIP3   OH241392   4.644   4.386   1.868 -0.3155  0.3701  0.8381
 6586TIP3    H141393   4.690   4.354   1.946  0.0902  2.0389  1.3280
 6586TIP3    H241394   4.671   4.477   1.860  1.3273 -0.2316 -2.4666
 6587TIP3   OH241395   3.924   4.818   7.264 -0.0055 -0.1220  0.2737
 6587TIP3    H141396   3.846   4.868   7.287 -0.5721 -0.8588 -0.0014
 6587TIP3    H241397   3.981   4.882   7.219 -2.1760 -0.4104 -3.3082
 6588TIP3   OH241398   0.248   1.972   0.361 -0.1235  0.2189 -0.2016
 6588TIP3    H141399   0.270   1.977   0.268 -1.9933  0.1008 -0.6968
 6588TIP3    H241400   0.181   2.039   0.374  1.3088  1.4123  1.4863
 6589TIP3   OH241401   0.102   0.981   7.762  1.0741 -0.0418 -0.0009
 6589TIP3    H141402   0.111   1.019   7.850  2.0715 -1.6562  0.6306
 6589TIP3    H241403   0.192   0.965   7.733  0.8454  1.7897 -1.9741
 6590TIP3   OH241404   0.563   3.543   1.881  0.3191 -0.0547 -0.3075
 6590TIP3    H141405   0.611   3.592   1.815 -0.1291 -1.2503 -1.5588
 6590TIP3    H241406   0.481   3.518   1.838  0.4953 -1.8023  0.3244
 6591TIP3   OH241407   3.722   5.202   8.718  0.8054 -0.1826  0.0361
 6591TIP3    H141408   3.647   5.230   8.770 -0.6588  0.1709 -2.1551
 6591TIP3    H241409   3.754   5.282   8.676  2.4951 -0.3162  0.9573
 6592TIP3   OH241410   4.175   0.423   7.093  0.3303 -0.3283  0.8942
 6592TIP3    H141411   4.176   0.340   7.045  0.4225 -0.6642  1.4562
 6592TIP3    H241412   4.243   0.476   7.052  0.0086 -0.3877  0.2835
 6593TIP3   OH241413   4.335   1.978   7.504  0.1865 -0.3785 -0.1604
 6593TIP3    H141414   4.327   1.993   7.598  2.2302 -1.2013  0.1875
 6593TIP3    H241415   4.298   2.057   7.464 -1.1581 -0.2254  1.3005
 6594TIP3   OH241416   0.399   0.448   8.380  0.4335  0.3184 -0.4094
 6594TIP3    H141417   0.437   0.474   8.464  1.0367  0.4515 -0.7155
 6594TIP3    H241418   0.470   0.405   8.333  0.1358  0.3408 -0.8964
 6595TIP3   OH241419   3.073   0.807   1.477 -0.0903 -1.0808 -0.3627
 6595TIP3    H141420   3.126   0.743   1.431  1.7651 -0.1827  0.4211
 6595TIP3    H241421   3.129   0.838   1.548 -0.3221  2.4067 -1.5102
 6596TIP3   OH241422   5.773   3.446   2.296  0.0210  0.4764 -0.5969
 6596TIP3    H141423   5.709   3.516   2.280 -1.6628 -1.0544 -0.8253
 6596TIP3    H241424   5.788   3.408   2.210  2.2951  1.6248 -0.7709
 6597TIP3   OH241425   4.756   4.284   0.274  0.0469  0.2769 -0.0241
 6597TIP3    H141426   4.720   4.222   0.210  0.1934 -0.7064  0.8134
 6597TIP3    H241427   4.809   4.229   0.332 -0.5629  1.0474  1.2988
 6598TIP3   OH241428   5.809   2.921   0.564  0.4539  0.9158  0.3884
 6598TIP3    H141429   5.772   3.001   0.601  1.3321  0.9579  1.2204
 6598TIP3    H241430   5.883   2.951   0.511 -0.8364  0.8616 -1.5207
 6599TIP3   OH241431   2.444   5.892   2.366 -0.5404 -0.0447 -0.3035
 6599TIP3    H141432   2.387   5.913   2.441 -0.6725 -0.4075 -0.2988
 6599TIP3    H241433   2.514   5.839   2.404  0.0677  0.8068 -0.2286
 6600TIP3   OH241434   0.760   2.150   0.116  0.2584 -1.1514  0.0784
 6600TIP3    H141435   0.749   2.090   0.190  2.4386  0.1067  1.5350
 6600TIP3    H241436   0.841   2.122   0.074  0.8521  0.2180  0.2589
 6601TIP3   OH241437   5.743   4.106   0.282  0.2700 -0.1952  0.6987
 6601TIP3    H141438   5.726   4.020   0.321 -1.0919  0.4144  1.5419
 6601TIP3    H241439   5.658   4.150   0.283  0.3469  0.2254 -2.1760
 6602TIP3   OH241440   2.011   1.021   0.769 -0.0815  0.3122 -0.2041
 6602TIP3    H141441   2.077   1.079   0.807  0.2039  1.7476 -2.6943
 6602TIP3    H241442   2.048   0.933   0.779  2.6395  1.1118 -2.1051
 6603TIP3   OH241443   1.412   2.938   1.264  0.1129 -0.0633  0.0061
 6603TIP3    H141444   1.448   3.007   1.209 -0.7641  0.4728  0.0784
 6603TIP3    H241445   1.424   2.970   1.354 -0.9894  0.3783  0.0172
 6604TIP3   OH241446   0.965   2.161   1.288  0.1360  0.2313 -0.2138
 6604TIP3    H141447   1.054   2.126   1.295 -0.6830 -1.7189  1.2093
 6604TIP3    H241448   0.908   2.084   1.290 -1.6271  1.4750 -0.1749
 6605TIP3   OH241449   0.842   0.732   7.634 -0.2286 -0.4116  0.5181
 6605TIP3    H141450   0.781   0.761   7.702  1.8300  2.3970  1.3411
 6605TIP3    H241451   0.786   0.712   7.559 -2.4369 -2.0631  2.4531
 6606TIP3   OH241452   5.991   4.241   8.867  0.0706 -0.3536  0.1400
 6606TIP3    H141453   5.912   4.296   8.874 -0.3156 -0.8754 -0.0480
 6606TIP3    H241454   5.960   4.153   8.891  0.8021 -0.3929  1.0013
 6607TIP3   OH241455   2.283   4.240   8.005  0.1113  0.0192  0.3494
 6607TIP3    H141456   2.265   4.164   7.949 -0.6054 -0.3032  0.9960
 6607TIP3    H241457   2.270   4.207   8.094 -0.6599  1.0042  0.6184
 6608TIP3   OH241458   2.797   0.908   7.491 -0.8100 -0.0016 -0.8771
 6608TIP3    H141459   2.771   0.890   7.401 -2.2397 -1.8758 -0.1495
 6608TIP3    H241460   2.724   0.878   7.544  1.0165 -1.3179  1.0544
 6609TIP3   OH241461   3.721   6.170   2.470  0.3228 -0.3007 -0.2369
 6609TIP3    H141462   3.814   6.168   2.492  0.3955  1.0119 -0.3536
 6609TIP3    H241463   3.714   6.236   2.402 -1.0507  1.6067  1.6431
 6610TIP3   OH241464   2.073   2.289   1.596  0.8263 -0.0194 -0.0234
 6610TIP3    H141465   2.059   2.200   1.563 -0.6902 -0.0383  0.5704
 6610TIP3    H241466   2.122   2.277   1.677  1.9734 -0.1876 -0.7283
 6611TIP3   OH241467   5.170   1.351   8.868  0.5529  0.0982 -0.1679
 6611TIP3    H141468   5.239   1.285   8.867  0.7253  0.2691  0.3044
 6611TIP3    H241469   5.108   1.321   8.802 -0.0422 -1.2811  0.9536
 6612TIP3   OH241470   0.786   3.239   0.461  0.2526 -0.0274 -0.0456
 6612TIP3    H141471   0.818   3.155   0.494 -1.6841 -0.1745  1.6117
 6612TIP3    H241472   0.723   3.216   0.393  1.8527  0.2172 -1.7024
 6613TIP3   OH241473   5.146   5.225   2.482  0.0248 -0.2196 -0.0225
 6613TIP3    H141474   5.063   5.203   2.440 -0.6106 -0.6853  1.4149
 6613TIP3    H241475   5.170   5.146   2.530  0.8892  0.1788  0.2154
 6614TIP3   OH241476   6.634   5.450   0.132  0.0617 -0.1137 -0.6826
 6614TIP3    H141477   6.721   5.451   0.171  0.3989  1.0036 -1.3933
 6614TIP3    H241478   6.588   5.379   0.176  0.9965 -0.0524  0.4420
 6615TIP3   OH241479   3.639   0.398   0.294  0.7028 -0.0242  0.0199
 6615TIP3    H141480   3.545   0.416   0.293  0.8590  0.8846 -0.1878
 6615TIP3    H241481   3.663   0.390   0.201  1.0883  1.3633 -0.0295
 6616TIP3   OH241482   0.435   3.907   0.157  0.5073 -0.1450 -0.3199
 6616TIP3    H141483   0.429   3.882   0.249 -1.7353  0.5264 -0.2248
 6616TIP3    H241484   0.447   4.002   0.158 -0.3274 -0.0208 -0.6895
 6617TIP3   OH241485   2.499   0.244   8.772 -0.1538 -0.1251 -0.2107
 6617TIP3    H141486   2.456   0.329   8.780 -2.9057 -1.4472  0.4788
 6617TIP3    H241487   2.431   0.186   8.736  0.7749 -2.5761  1.6674
 6618TIP3   OH241488   1.387   0.736   7.555 -0.1817  0.2775  0.1139
 6618TIP3    H141489   1.333   0.730   7.476 -2.6913 -2.4679  1.8423
 6618TIP3    H241490   1.326   0.719   7.627  2.3588  0.7016  2.5353
 6619TIP3   OH241491   6.665   4.405   0.434  0.2233  0.1801  0.4095
 6619TIP3    H141492   6.750   4.411   0.478  1.3438 -1.3805 -1.4087
 6619TIP3    H241493   6.645   4.312   0.430  0.2283  0.2023 -2.3677
 6620TIP3   OH241494   0.426   3.533   1.178  0.1275  0.0167  0.1578
 6620TIP3    H141495   0.465   3.589   1.111  0.9267  0.1939  0.7551
 6620TIP3    H241496   0.436   3.582   1.260 -0.4289 -0.3887  0.4804
 6621TIP3   OH241497   1.552   3.939   1.819 -0.0188 -0.0288 -0.5868
 6621TIP3    H141498   1.619   4.003   1.845  1.2408 -0.9866 -1.3698
 6621TIP3    H241499   1.493   3.988   1.761  0.9243  0.4356 -1.1751
 6622TIP3   OH241500   2.565   3.580   0.299 -0.5646 -0.7355 -0.2931
 6622TIP3    H141501   2.508   3.540   0.364 -0.5355 -0.2244  0.0493
 6622TIP3    H241502   2.509   3.592   0.222 -1.6320  1.9940  0.8161
 6623TIP3   OH241503   5.210   0.580   6.562  0.7364  0.2000  0.0512
 6623TIP3    H141504   5.159   0.526   6.622 -0.2267  0.8646 -0.1493
 6623TIP3    H241505   5.195   0.669   6.592 -0.1421  0.5851 -1.4361
 6624TIP3   OH241506   1.644   0.520   1.078  0.2091 -0.5160 -0.1948
 6624TIP3    H141507   1.661   0.554   1.166 -1.2087  2.9846 -1.0990
 6624TIP3    H241508   1.570   0.461   1.090 -1.2517  1.3757  0.8351
 6625TIP3   OH241509   3.807   0.960   0.876  0.2145 -0.2087  0.5076
 6625TIP3    H141510   3.765   0.935   0.794  0.4141  1.1557 -0.0358
 6625TIP3    H241511   3.900   0.967   0.855  0.1487  1.2003  0.5328
 6626TIP3   OH241512   6.088   3.428   2.199  0.4229  0.0882  0.3234
 6626TIP3    H141513   6.012   3.375   2.175  1.0506 -0.3082 -0.8310
 6626TIP3    H241514   6.163   3.370   2.187  0.9194  0.4408  1.5623
 6627TIP3   OH241515   5.807   3.383   1.495 -0.3953 -0.0486  0.2038
 6627TIP3    H141516   5.897   3.409   1.479 -0.7628  0.8847 -0.4309
 6627TIP3    H241517   5.808   3.288   1.485  0.3834  0.0201 -0.5231
 6628TIP3   OH241518   0.968   3.528   8.683  0.3052  0.6015 -0.1094
 6628TIP3    H141519   1.012   3.609   8.658  0.3814  0.2461 -1.2042
 6628TIP3    H241520   0.879   3.538   8.648 -0.1983  0.9066  1.2282
 6629TIP3   OH241521   2.156   1.141   7.918 -0.0526 -0.1625 -0.2605
 6629TIP3    H141522   2.173   1.177   7.831 -2.4820  0.7369 -0.4257
 6629TIP3    H241523   2.076   1.183   7.947 -1.1504 -2.8784  1.0406
 6630TIP3   OH241524   3.740   3.537   1.978 -0.2278 -0.4079  0.1771
 6630TIP3    H141525   3.662   3.514   1.927 -0.3770  0.9353 -0.2472
 6630TIP3    H241526   3.809   3.548   1.913 -0.1673  0.2966  0.3477
 6631TIP3   OH241527   5.418   5.073   8.788  0.1123 -0.6377 -0.4541
 6631TIP3    H141528   5.343   5.132   8.785  0.7841  0.3911  1.2290
 6631TIP3    H241529   5.487   5.120   8.741 -0.3697 -1.7773 -2.3961
 6632TIP3   OH241530   3.897   4.024   1.908 -0.3830 -0.1274  0.7082
 6632TIP3    H141531   3.991   4.023   1.926 -0.2754 -0.0591  0.1772
 6632TIP3    H241532   3.889   4.077   1.828 -0.8038 -0.6966  0.3693
 6633TIP3   OH241533   2.589   1.373   0.852 -0.0604  0.5675 -0.0786
 6633TIP3    H141534   2.644   1.299   0.877  0.7726  1.0010 -0.5807
 6633TIP3    H241535   2.595   1.434   0.925  0.1645  0.6321 -0.1504
 6634TIP3   OH241536   1.601   1.667   8.821  0.6959 -0.2897 -0.7775
 6634TIP3    H141537   1.527   1.630   8.869  2.2591 -1.5601  0.7720
 6634TIP3    H241538   1.614   1.609   8.746  0.4263 -0.3204 -0.8000
 6635TIP3   OH241539   0.080   4.435   0.897  0.3896 -0.0420 -0.2885
 6635TIP3    H141540   0.102   4.523   0.868  1.2412 -0.7467 -1.9004
 6635TIP3    H241541   0.121   4.377   0.833  0.9020 -1.6670  1.4091
 6636TIP3   OH241542   2.491   4.729   7.848 -0.4317 -0.3121 -0.0329
 6636TIP3    H141543   2.497   4.824   7.835 -0.2300 -0.4801 -1.2539
 6636TIP3    H241544   2.566   4.708   7.904  1.1224 -0.0912 -1.9049
 6637TIP3   OH241545   6.276   0.011   2.307 -0.1785 -0.3612 -0.7501
 6637TIP3    H141546   6.333   0.078   2.268 -0.9701  0.1917 -0.9959
 6637TIP3    H241547   6.336  -0.052   2.347  0.5922  0.4326 -0.6221
 6638TIP3   OH241548   5.591   1.700   7.219 -0.0788  0.0607  0.2646
 6638TIP3    H141549   5.653   1.629   7.199  0.5883  0.5407  0.5689
 6638TIP3    H241550   5.555   1.726   7.135 -1.8850 -1.9973  0.3183
 6639TIP3   OH241551   5.110   5.630   0.099 -0.2391  0.0430 -0.3933
 6639TIP3    H141552   5.172   5.606   0.030  0.4658  0.1960  0.1758
 6639TIP3    H241553   5.034   5.574   0.083  1.2133 -2.4607  0.6782
 6640TIP3   OH241554   0.135   2.224   0.412  0.1150  0.1761 -0.2656
 6640TIP3    H141555   0.076   2.283   0.365 -1.1895  0.2908  1.4324
 6640TIP3    H241556   0.189   2.282   0.466 -0.0294 -0.0757  0.1544
 6641TIP3   OH241557   0.290   0.789   0.893 -0.0414  0.4310 -0.4177
 6641TIP3    H141558   0.367   0.764   0.842 -0.6844  0.5466 -1.4774
 6641TIP3    H241559   0.322   0.796   0.983  0.4457 -2.9923 -0.2108
 6642TIP3   OH241560   5.329   5.188   1.349 -0.3163  0.6342  0.4483
 6642TIP3    H141561   5.250   5.137   1.366 -0.0002 -1.1330 -2.7082
 6642TIP3    H241562   5.306   5.246   1.277  1.4457 -0.7991 -1.4270
 6643TIP3   OH241563   2.164   3.474   0.157 -0.1609  0.0403  0.4555
 6643TIP3    H141564   2.219   3.551   0.140 -0.7217  0.4210  0.3224
 6643TIP3    H241565   2.146   3.479   0.251  0.8961 -0.6813  0.7166
 6644TIP3   OH241566   5.529   3.624   8.262  0.3982 -0.0203 -0.0151
 6644TIP3    H141567   5.550   3.546   8.312  2.4082  0.7668  0.4496
 6644TIP3    H241568   5.489   3.683   8.326  1.0532  0.2060  0.1909
 6645TIP3   OH241569   0.660   4.811   0.395  0.0241 -0.6890  0.4435
 6645TIP3    H141570   0.711   4.892   0.392  0.4841 -0.9432  1.2216
 6645TIP3    H241571   0.585   4.832   0.451  0.1184 -0.7923  0.6071
 6646TIP3   OH241572   3.595   3.767   8.466 -0.0628 -0.2452  0.2168
 6646TIP3    H141573   3.630   3.720   8.542  0.5322 -0.5196 -0.2217
 6646TIP3    H241574   3.655   3.745   8.395  0.5609  1.5957  0.1086
 6647TIP3   OH241575   0.836   5.677   2.064 -0.2147 -0.5122  0.2584
 6647TIP3    H141576   0.775   5.711   2.129  0.0484  0.0096  0.2315
 6647TIP3    H241577   0.781   5.621   2.008 -0.5784 -0.3985  0.4958
 6648TIP3   OH241578   5.241   1.608   7.542  0.1100 -0.2169  0.5715
 6648TIP3    H141579   5.201   1.553   7.610  0.7324  0.2427  1.3318
 6648TIP3    H241580   5.334   1.608   7.563  0.1387  1.0532  0.5493
 6649TIP3   OH241581   6.619   4.288   7.939 -0.2067 -0.4464 -0.0106
 6649TIP3    H141582   6.559   4.318   8.007  0.2531 -0.2645  0.3221
 6649TIP3    H241583   6.699   4.264   7.986 -0.2424 -1.3051 -0.3796
 6650TIP3   OH241584   6.574   4.443   1.366  0.3039  0.1892 -0.3187
 6650TIP3    H141585   6.561   4.515   1.304 -1.1158  1.0936  0.9350
 6650TIP3    H241586   6.509   4.378   1.341 -1.5422  1.3270  1.2038
 6651TIP3   OH241587   5.739   1.203   8.829 -0.6423  0.3826 -0.1786
 6651TIP3    H141588   5.798   1.137   8.793  0.6493  0.3410  1.8713
 6651TIP3    H241589   5.658   1.156   8.847  0.1898 -0.6357  1.0384
 6652TIP3   OH241590   2.059   1.433   8.243 -0.0588 -1.3576  0.5954
 6652TIP3    H141591   2.119   1.382   8.297  1.7296 -1.0399 -0.9817
 6652TIP3    H241592   2.067   1.395   8.156 -0.4687  0.1190 -0.1157
 6653TIP3   OH241593   5.276   1.101   8.620 -0.1974 -0.7986 -0.1813
 6653TIP3    H141594   5.222   1.123   8.545  0.4902  0.4147 -0.3603
 6653TIP3    H241595   5.366   1.118   8.591  0.1811 -1.5586  0.4992
 6654TIP3   OH241596   3.357   6.276   0.076  0.7137 -0.3286  0.0559
 6654TIP3    H141597   3.408   6.312   0.003  1.1168 -0.8371  0.0854
 6654TIP3    H241598   3.392   6.319   0.154  0.3023  0.1937 -0.0367
 6655TIP3   OH241599   1.983   2.799   7.950 -0.4410 -0.5658 -0.4833
 6655TIP3    H141600   2.003   2.886   7.916 -2.0352 -0.3751 -1.0291
 6655TIP3    H241601   1.919   2.763   7.888 -2.0583 -0.9213  1.2871
 6656TIP3   OH241602   0.043   6.315   1.965 -0.4814  0.4565 -0.0396
 6656TIP3    H141603   0.042   6.401   1.924 -1.1099  0.6264  0.3198
 6656TIP3    H241604  -0.049   6.297   1.986 -0.2644  0.0331  0.5788
 6657TIP3   OH241605   0.036   2.898   8.799 -0.4988 -0.4804 -0.5340
 6657TIP3    H141606   0.105   2.846   8.840 -1.1087 -1.2088 -0.3978
 6657TIP3    H241607  -0.011   2.836   8.743 -1.3366 -0.1214 -0.2501
 6658TIP3   OH241608   3.286   3.199   7.756  0.2711 -0.0043  0.1630
 6658TIP3    H141609   3.231   3.278   7.755 -0.8253 -0.7293  0.8322
 6658TIP3    H241610   3.330   3.200   7.671  1.6973  2.2619  0.8495
 6659TIP3   OH241611   5.908   1.109   7.894 -0.1073  0.1177 -0.4650
 6659TIP3    H141612   5.882   1.056   7.970  0.4609  0.8384  0.2438
 6659TIP3    H241613   5.939   1.045   7.830 -0.7288 -0.5121 -0.1487
 6660TIP3   OH241614   2.051   2.537   2.262 -0.2258  0.0716 -0.5308
 6660TIP3    H141615   2.037   2.492   2.345 -0.1166 -3.1579 -2.0997
 6660TIP3    H241616   2.141   2.569   2.266 -0.0737 -0.4480  0.4145
 6661TIP3   OH241617   1.327   4.319   0.545 -0.2940 -0.0027 -0.1263
 6661TIP3    H141618   1.416   4.285   0.541 -1.5191 -3.6550  0.3199
 6661TIP3    H241619   1.320   4.357   0.632  1.1493  1.6535 -0.6635
 6662TIP3   OH241620   4.320   5.334   2.082 -0.1446 -0.4998 -0.0478
 6662TIP3    H141621   4.310   5.296   2.169  2.5408  1.3784  1.2203
 6662TIP3    H241622   4.394   5.288   2.044  0.1548  0.2391 -0.3879
 6663TIP3   OH241623   5.080   2.391   7.012 -0.6809  0.3782  0.1104
 6663TIP3    H141624   5.139   2.395   7.087  1.8128 -1.1240 -1.6400
 6663TIP3    H241625   5.023   2.316   7.031  1.0654 -1.0823 -0.1940
 6664TIP3   OH241626   1.486   4.542   8.191 -0.3447  0.1411  0.0995
 6664TIP3    H141627   1.556   4.485   8.224 -1.3205 -2.8652 -2.5260
 6664TIP3    H241628   1.450   4.583   8.270  0.9900 -2.2721  2.1243
 6665TIP3   OH241629   2.761   0.575   8.043 -0.2289  0.0056  0.3665
 6665TIP3    H141630   2.757   0.514   8.116 -1.0395  0.4628  0.7164
 6665TIP3    H241631   2.670   0.598   8.026 -0.0718 -0.2648 -0.9386
 6666TIP3   OH241632   1.456   1.586   0.965 -0.1356 -0.3307  0.1529
 6666TIP3    H141633   1.452   1.661   1.024  3.9796 -0.1972  0.5831
 6666TIP3    H241634   1.444   1.510   1.021 -1.9474 -0.1378  0.0963
 6667TIP3   OH241635   3.136   2.690   2.224  0.0218 -0.4931  0.2519
 6667TIP3    H141636   3.128   2.734   2.308  0.7821  1.0508 -0.4338
 6667TIP3    H241637   3.055   2.713   2.178  1.3338  2.2393 -0.9500
 6668TIP3   OH241638   1.289   2.929   0.274  0.4253  0.4424 -0.6672
 6668TIP3    H141639   1.316   2.916   0.183 -1.6799  0.3805 -1.3356
 6668TIP3    H241640   1.266   2.841   0.306  0.8281  0.5093 -0.1720
 6669TIP3   OH241641   3.368   6.571   2.047  0.3580 -0.5613  0.2280
 6669TIP3    H141642   3.452   6.529   2.027  0.6930  0.1270  0.1385
 6669TIP3    H241643   3.302   6.510   2.014  0.7716 -1.7689  1.5288
 6670TIP3   OH241644   4.710   4.536   2.194  0.1183 -0.2190 -0.1616
 6670TIP3    H141645   4.661   4.454   2.200  0.5483 -0.3691  1.7250
 6670TIP3    H241646   4.661   4.597   2.250  1.4686 -0.0733  0.8961
 6671TIP3   OH241647   5.993   6.313   0.705  0.1885 -0.2171 -0.1527
 6671TIP3    H141648   5.995   6.360   0.621  0.8655  0.7516  0.3974
 6671TIP3    H241649   5.959   6.377   0.767  1.8798 -0.1597  0.7678
 6672TIP3   OH241650   5.176   6.649   2.452 -0.3151 -0.0282  0.4246
 6672TIP3    H141651   5.223   6.691   2.524 -1.0390 -0.5056  1.1916
 6672TIP3    H241652   5.094   6.698   2.445 -1.1344 -1.2413  1.2823
 6673TIP3   OH241653   6.001   0.294   8.078 -0.1187 -0.3893  0.2188
 6673TIP3    H141654   5.924   0.238   8.076  0.3952 -1.1088  0.0864
 6673TIP3    H241655   5.997   0.338   8.163 -1.0354  0.1150 -0.0729
 6674TIP3   OH241656   3.899   4.865   1.200 -0.4120 -0.2676 -0.1969
 6674TIP3    H141657   3.909   4.899   1.111 -2.5717  0.6611 -0.1419
 6674TIP3    H241658   3.861   4.938   1.249 -0.2146 -1.1012  1.2422
 6675TIP3   OH241659   3.907   1.310   1.860  0.1587  0.0224 -0.1422
 6675TIP3    H141660   3.978   1.344   1.806  0.2078  0.9546  0.4827
 6675TIP3    H241661   3.890   1.223   1.825  2.8637 -1.0080  0.8841
 6676TIP3   OH241662   0.235   4.385   0.156  0.0421  0.0340 -0.1915
 6676TIP3    H141663   0.200   4.347   0.075  0.8088  1.9125 -1.4768
 6676TIP3    H241664   0.178   4.460   0.174 -0.2616 -0.4912  1.1868
 6677TIP3   OH241665   1.661   6.612   0.929  0.1096  0.2812  0.0103
 6677TIP3    H141666   1.721   6.561   0.984 -1.5882  0.8941  2.5603
 6677TIP3    H241667   1.624   6.547   0.869 -0.1128 -1.0363  1.5096
 6678TIP3   OH241668   3.028   2.483   0.906  0.4460  0.7689 -0.5590
 6678TIP3    H141669   2.942   2.508   0.872  1.3465  1.4203 -2.4750
 6678TIP3    H241670   3.019   2.389   0.925 -0.4380  0.6149 -1.5948
 6679TIP3   OH241671   0.044   1.477   8.338  0.4062 -0.8401 -0.2135
 6679TIP3    H141672  -0.035   1.526   8.316  0.9132 -0.6307 -1.6782
 6679TIP3    H241673   0.075   1.516   8.420 -0.3289 -0.0974 -0.2779
 6680TIP3   OH241674   4.142   4.505   1.343  0.0285  0.2411  0.1142
 6680TIP3    H141675   4.219   4.517   1.287  0.5540 -0.9177  0.5470
 6680TIP3    H241676   4.103   4.592   1.351  1.2233  0.8180 -0.2241
 6681TIP3   OH241677   5.827   5.876   8.418  0.7098 -0.3297  0.0446
 6681TIP3    H141678   5.735   5.857   8.397  0.5081  1.0643 -0.4018
 6681TIP3    H241679   5.823   5.925   8.500  1.1018 -0.5927  0.2265
 6682TIP3   OH241680   3.553   1.154   6.637 -0.4921  0.9304  0.5866
 6682TIP3    H141681   3.465   1.136   6.670  0.9128 -0.5651  4.0435
 6682TIP3    H241682   3.601   1.186   6.714  2.2704  0.6071 -0.8816
 6683TIP3   OH241683   1.017   4.448   2.279  0.3272  0.0381 -0.2989
 6683TIP3    H141684   1.073   4.375   2.253  1.0498  0.2575  0.5999
 6683TIP3    H241685   1.019   4.447   2.375 -0.2701  0.7645 -0.2726
 6684TIP3   OH241686   4.881   5.434   2.730 -0.4498 -0.4157  0.7083
 6684TIP3    H141687   4.807   5.494   2.736 -1.3496 -1.3952 -0.1571
 6684TIP3    H241688   4.841   5.349   2.712  0.4888 -2.0605  5.1405
 6685TIP3   OH241689   3.930   2.061   7.589 -0.4618 -0.1854  0.6148
 6685TIP3    H141690   3.940   2.000   7.662 -0.0390  0.3721  1.0292
 6685TIP3    H241691   3.837   2.084   7.590 -0.8901 -1.7197 -0.2895
 6686TIP3   OH241692   2.687   3.156   0.484 -0.0838 -0.7211  0.2790
 6686TIP3    H141693   2.594   3.179   0.485 -0.2070 -1.1535  1.5549
 6686TIP3    H241694   2.721   3.190   0.567  1.1542  0.3572 -0.6253
 6687TIP3   OH241695   5.979   1.770   8.220 -0.0521  0.1423 -0.4471
 6687TIP3    H141696   6.059   1.768   8.166 -0.4322  0.9051 -1.0584
 6687TIP3    H241697   5.921   1.708   8.176 -0.2501  0.5338 -0.7434
 6688TIP3   OH241698   0.231   0.809   0.232  0.7706  0.2913  0.2660
 6688TIP3    H141699   0.290   0.754   0.283  3.0061  2.0190 -0.2764
 6688TIP3    H241700   0.188   0.864   0.297  0.7935 -0.0545  0.5756
 6689TIP3   OH241701   6.164   0.444   1.383 -0.2302 -0.0588 -0.3910
 6689TIP3    H141702   6.080   0.425   1.342 -0.3285 -1.4701  0.4144
 6689TIP3    H241703   6.161   0.399   1.468  0.1356  2.3747  1.0253
 6690TIP3   OH241704   4.248   4.127   8.678  0.3542  0.6156  0.1561
 6690TIP3    H141705   4.289   4.125   8.592 -1.0656  0.1089 -0.5514
 6690TIP3    H241706   4.181   4.195   8.671 -1.6506 -1.2715 -0.0998
 6691TIP3   OH241707   0.414   3.658   8.399  0.0185  0.0735 -0.8682
 6691TIP3    H141708   0.372   3.575   8.378 -0.2816 -0.0358  0.0805
 6691TIP3    H241709   0.501   3.634   8.430  0.1480  0.1619 -1.1613
 6692TIP3   OH241710   0.143   2.903   1.467  0.1109 -0.2471 -0.2516
 6692TIP3    H141711   0.231   2.896   1.504 -0.4226 -0.8628  0.9460
 6692TIP3    H241712   0.146   2.983   1.414  0.7782  0.9666  1.5170
 6693TIP3   OH241713   1.752   5.828   8.827 -0.6307  0.4654 -0.0961
 6693TIP3    H141714   1.793   5.818   8.912  0.4087  0.6751 -0.5551
 6693TIP3    H241715   1.771   5.746   8.781 -1.5417  0.1863  0.0183
 6694TIP3   OH241716   0.150   2.079   0.007 -0.1878  0.2831  0.2503
 6694TIP3    H141717   0.127   1.990   0.036 -2.8633  0.9796  0.5498
 6694TIP3    H241718   0.237   2.094   0.043 -0.1047 -1.8327  1.0990
 6695TIP3   OH241719   5.223   1.020   1.826  0.3876  0.5660  0.3913
 6695TIP3    H141720   5.187   1.044   1.741  0.2762  1.6653  0.7329
 6695TIP3    H241721   5.157   1.048   1.889  0.8977  0.6571  0.8961
 6696TIP3   OH241722   0.070   1.065   1.044 -0.7282 -0.5668  0.0734
 6696TIP3    H141723   0.161   1.053   1.069 -0.5256  1.0883  0.1866
 6696TIP3    H241724   0.021   1.055   1.126 -0.4845  0.3089  0.3265
 6697TIP3   OH241725   5.737   2.123   6.701  0.0666  0.5147  0.1054
 6697TIP3    H141726   5.677   2.115   6.775  1.2610 -0.7269  0.9921
 6697TIP3    H241727   5.794   2.046   6.708  0.6169  0.7034 -1.7537
 6698TIP3   OH241728   1.883   5.511   0.937 -0.1979 -0.7311  0.2035
 6698TIP3    H141729   1.960   5.503   0.993 -1.1878 -1.7201  1.4780
 6698TIP3    H241730   1.822   5.564   0.988  0.5972  2.5269 -1.9446
 6699TIP3   OH241731   4.242   1.592   2.735  0.4869  0.2403 -0.2001
 6699TIP3    H141732   4.236   1.635   2.821 -0.0037  1.0900 -0.6457
 6699TIP3    H241733   4.285   1.509   2.753  0.1670  0.2948  0.9148
 6700TIP3   OH241734   6.394   3.477   8.246  0.2978  0.3172 -0.4474
 6700TIP3    H141735   6.384   3.382   8.249 -1.1902  0.4583 -0.1116
 6700TIP3    H241736   6.307   3.510   8.221  0.9025  1.5678 -1.0168
 6701TIP3   OH241737   5.692   2.540   2.638  0.0815 -0.0198 -0.1482
 6701TIP3    H141738   5.761   2.477   2.658  1.0541  1.4460  1.4043
 6701TIP3    H241739   5.644   2.549   2.720  0.4582  1.7977 -0.0917
 6702TIP3   OH241740   6.301   6.558   7.914  0.0753  0.0809  0.7739
 6702TIP3    H141741   6.300   6.483   7.856  2.6845 -0.5148  1.3669
 6702TIP3    H241742   6.393   6.581   7.923 -0.6121  4.0830 -0.2277
 6703TIP3   OH241743   5.684   0.183   1.595 -0.0687 -0.4190 -0.4129
 6703TIP3    H141744   5.607   0.161   1.542 -1.3067 -1.6305  1.7038
 6703TIP3    H241745   5.668   0.273   1.625 -1.4333 -1.1083  1.1013
 6704TIP3   OH241746   5.649   0.081   8.340 -0.7917 -0.3795 -0.3761
 6704TIP3    H141747   5.635  -0.014   8.339 -0.7239 -0.3898 -0.2576
 6704TIP3    H241748   5.600   0.112   8.416  0.9411 -0.5776  0.8683
 6705TIP3   OH241749   6.653   1.430   2.418 -0.6341 -0.0720 -0.2452
 6705TIP3    H141750   6.611   1.496   2.474 -1.1937 -0.7519  0.1556
 6705TIP3    H241751   6.734   1.408   2.464  0.2795  1.3249 -1.0761
 6706TIP3   OH241752   0.869   5.054   8.897  0.2337 -0.3285 -0.0139
 6706TIP3    H141753   0.927   5.126   8.921 -0.0253  0.2210 -1.0121
 6706TIP3    H241754   0.787   5.096   8.871  0.0073 -0.9919 -0.4008
 6707TIP3   OH241755   4.591   5.996   0.179 -0.0257 -0.6381 -0.3627
 6707TIP3    H141756   4.531   6.066   0.205  0.8137 -0.5529  1.4828
 6707TIP3    H241757   4.670   6.042   0.149  0.1124 -0.7766 -0.2142
 6708TIP3   OH241758   6.393   1.361   2.621 -0.1525  0.1023 -0.6997
 6708TIP3    H141759   6.356   1.421   2.557  0.7050  1.4100 -0.0342
 6708TIP3    H241760   6.374   1.402   2.706 -1.0528 -1.4555 -0.1157
 6709TIP3   OH241761   6.561   6.282   0.461 -0.6343 -0.4111 -0.1654
 6709TIP3    H141762   6.619   6.269   0.537 -0.5885 -2.0925 -0.4610
 6709TIP3    H241763   6.614   6.255   0.386 -1.1427 -0.0426 -0.6615
 6710TIP3   OH241764   0.024   5.204   0.463 -0.5299 -0.0342  0.7696
 6710TIP3    H141765  -0.040   5.204   0.535 -1.5573 -0.2946 -0.1043
 6710TIP3    H241766   0.040   5.112   0.445 -1.0348  0.0088  0.0390
 6711TIP3   OH241767   1.113   3.113   0.054  0.5308  0.2104 -0.3615
 6711TIP3    H141768   1.171   3.047   0.017  1.3360  0.9741 -0.4812
 6711TIP3    H241769   1.133   3.193   0.006 -1.3066  0.2996 -1.0911
 6712TIP3   OH241770   1.549   1.561   8.491  1.0009 -0.2862  0.0410
 6712TIP3    H141771   1.485   1.517   8.435  3.1112 -0.9167 -2.0421
 6712TIP3    H241772   1.597   1.490   8.533 -0.7192  0.1704  3.0638
 6713TIP3   OH241773   0.033   2.373   7.861  0.0622 -0.0420  0.1444
 6713TIP3    H141774   0.001   2.317   7.790  0.9495 -2.0024  1.1913
 6713TIP3    H241775  -0.018   2.346   7.937  0.9728  0.0877  0.8156
 6714TIP3   OH241776   4.571   3.431   1.359  0.4416 -0.0693 -0.4629
 6714TIP3    H141777   4.524   3.473   1.287  1.6249 -0.4450 -1.4814
 6714TIP3    H241778   4.601   3.348   1.323  0.1748 -0.7316  0.7914
 6715TIP3   OH241779   6.763   2.556   1.916  0.3507  0.0615 -0.3950
 6715TIP3    H141780   6.767   2.477   1.970 -0.7353  0.8477  0.9218
 6715TIP3    H241781   6.780   2.526   1.827  0.4279 -1.5782  0.1418
 6716TIP3   OH241782   6.535   0.588   1.973 -0.2807 -0.3396 -0.4520
 6716TIP3    H141783   6.545   0.494   1.987  3.4351  0.3206  3.6447
 6716TIP3    H241784   6.463   0.614   2.030 -0.5450 -0.5700 -0.6813
 6717TIP3   OH241785   6.308   3.580   0.534 -0.0934 -0.4217 -0.1521
 6717TIP3    H141786   6.353   3.525   0.470  0.8928  0.1870  0.0003
 6717TIP3    H241787   6.360   3.661   0.538 -1.5698  0.5732 -0.4390
 6718TIP3   OH241788   4.708   2.839   8.418 -0.2974  0.2840  0.2447
 6718TIP3    H141789   4.734   2.856   8.509 -0.5410  1.8033  0.0701
 6718TIP3    H241790   4.722   2.746   8.405 -0.8934 -0.0990  2.0515
 6719TIP3   OH241791   6.152   2.712   0.219 -0.7818  0.2796 -0.5625
 6719TIP3    H141792   6.098   2.669   0.152 -2.0453 -0.2552  0.7245
 6719TIP3    H241793   6.106   2.794   0.237 -0.5250  0.3598 -0.2640
 6720TIP3   OH241794   5.410   0.765   1.666 -0.0562 -0.2682 -0.2373
 6720TIP3    H141795   5.394   0.755   1.760  2.9561  0.1558  0.4244
 6720TIP3    H241796   5.369   0.688   1.627 -0.0717 -1.2728  1.6214
 6721TIP3   OH241797   2.128   5.838   0.754 -0.2693  0.2820 -0.4069
 6721TIP3    H141798   2.164   5.767   0.808 -0.0433  0.4277 -0.3628
 6721TIP3    H241799   2.048   5.802   0.716 -0.3398  0.1196 -0.1061
 6722TIP3   OH241800   0.490   6.044   0.275 -0.2592  0.0942 -0.0951
 6722TIP3    H141801   0.532   6.056   0.189 -0.3103 -2.6058 -0.6032
 6722TIP3    H241802   0.549   5.986   0.322 -2.0559 -1.5934  0.2071
 6723TIP3   OH241803   0.464   0.115   1.475  0.0043 -0.3472  0.1900
 6723TIP3    H141804   0.460   0.020   1.479 -0.3389 -0.3549 -0.2667
 6723TIP3    H241805   0.388   0.145   1.525 -1.3124 -0.3654 -1.6919
 6724TIP3   OH241806   6.167   1.906   0.803 -0.3673 -0.1287  0.1108
 6724TIP3    H141807   6.158   1.811   0.812  0.2829 -0.2725 -0.6306
 6724TIP3    H241808   6.078   1.940   0.814 -0.7878 -0.9260 -0.7606
 6725TIP3   OH241809   3.862   5.293   1.512  0.3460  0.1078  0.4299
 6725TIP3    H141810   3.828   5.320   1.597  1.4444 -0.4159  1.0697
 6725TIP3    H241811   3.886   5.201   1.524 -2.3668 -0.9387 -1.3920
 6726TIP3   OH241812   5.728   3.808   7.913 -0.0526 -0.2667  0.0363
 6726TIP3    H141813   5.708   3.718   7.886 -1.1280 -0.0730  0.1604
 6726TIP3    H241814   5.736   3.857   7.831  1.0859 -0.5745 -0.0520
 6727TIP3   OH241815   5.470   3.593   1.683  0.1262  0.3750 -0.3165
 6727TIP3    H141816   5.491   3.566   1.772  0.5589 -0.8708 -0.7827
 6727TIP3    H241817   5.374   3.587   1.678  0.0263  1.2255  0.2857
 6728TIP3   OH241818   6.606   3.473   2.131 -0.0715  0.4888  0.4447
 6728TIP3    H141819   6.674   3.418   2.168  0.0619 -0.0844 -0.6084
 6728TIP3    H241820   6.558   3.416   2.071  0.8066  1.7287 -1.5969
 6729TIP3   OH241821   2.131   5.326   7.843  0.7662 -0.0698 -0.1145
 6729TIP3    H141822   2.169   5.380   7.912 -1.5828 -2.3861  3.3097
 6729TIP3    H241823   2.042   5.358   7.834  0.5099 -0.9349 -0.7730
 6730TIP3   OH241824   0.901   5.488   7.374 -0.1869  0.0974 -0.3979
 6730TIP3    H141825   0.952   5.453   7.447 -0.2545 -1.1354 -0.9226
 6730TIP3    H241826   0.811   5.461   7.393 -0.0887 -0.9295 -1.3218
 6731TIP3   OH241827   0.010   0.147   1.198  0.1512  0.2933 -0.2466
 6731TIP3    H141828   0.077   0.129   1.264  1.1446  1.9774 -0.7521
 6731TIP3    H241829   0.059   0.158   1.117 -0.8706  0.3507 -0.8699
 6732TIP3   OH241830   4.733   5.160   2.181 -0.4112  0.0606  0.7839
 6732TIP3    H141831   4.792   5.170   2.255 -0.3622 -1.3939  0.9577
 6732TIP3    H241832   4.710   5.250   2.156  3.5398  0.8752 -0.6508
 6733TIP3   OH241833   5.030   5.114   1.191  0.6967 -0.2863 -1.0847
 6733TIP3    H141834   5.050   5.031   1.233  1.5864 -0.8836 -2.5825
 6733TIP3    H241835   5.004   5.090   1.102  0.0274  0.9825 -1.2500
 6734TIP3   OH241836   5.326   1.629   1.746  0.5178 -0.2107 -0.4964
 6734TIP3    H141837   5.408   1.594   1.780  0.5677  0.2454 -0.1378
 6734TIP3    H241838   5.290   1.680   1.819 -0.2759 -0.7259 -0.5162
 6735TIP3   OH241839   0.238   2.794   0.014 -1.0598 -0.4429 -0.5083
 6735TIP3    H141840   0.319   2.746  -0.005 -0.3962 -0.4436  1.9323
 6735TIP3    H241841   0.184   2.731   0.062 -1.7132  0.1479 -0.4525
 6736TIP3   OH241842   0.767   4.122   8.164  0.3502  0.0853  0.2169
 6736TIP3    H141843   0.741   4.143   8.254  0.2741 -0.6168  0.3604
 6736TIP3    H241844   0.686   4.097   8.121  0.4653 -0.0589  0.0861
 6737TIP3   OH241845   0.881   1.191   6.799  0.5020  0.2911 -0.3448
 6737TIP3    H141846   0.823   1.127   6.841  0.6156  0.8362  0.6819
 6737TIP3    H241847   0.821   1.253   6.757  0.2144  1.6888  1.9382
 6738TIP3   OH241848   1.778   1.550   1.134 -0.5215 -0.1410  0.2700
 6738TIP3    H141849   1.862   1.525   1.173  0.5801  1.4991 -0.9163
 6738TIP3    H241850   1.779   1.507   1.048 -0.5578  0.4482 -0.0299
 6739TIP3   OH241851   6.500   6.187   7.802  0.5833 -0.1797 -0.5035
 6739TIP3    H141852   6.436   6.140   7.856  1.1990 -0.9210 -0.4157
 6739TIP3    H241853   6.446   6.243   7.746 -0.0493  1.2854  1.4443
 6740TIP3   OH241854   6.687   0.987   1.752  0.3057  0.0080  0.5264
 6740TIP3    H141855   6.612   1.004   1.695  0.8818 -0.4725 -0.3962
 6740TIP3    H241856   6.670   0.900   1.788  0.8066 -0.4494 -0.3230
 6741TIP3   OH241857   2.666   3.434   8.404  0.1633  0.3699  0.1770
 6741TIP3    H141858   2.575   3.443   8.376  1.0069 -0.6052 -3.2385
 6741TIP3    H241859   2.708   3.515   8.375  0.4336  0.8775  1.8674
 6742TIP3   OH241860   1.594   2.793   1.102  0.3815  0.0746 -0.4745
 6742TIP3    H141861   1.523   2.840   1.147  2.6397  1.8667  1.4914
 6742TIP3    H241862   1.557   2.708   1.081 -1.6257  0.0312  2.6487
 6743TIP3   OH241863   2.200   4.507   1.121  0.4205  0.1651  0.5683
 6743TIP3    H141864   2.264   4.506   1.050  1.0914  0.7077  1.1506
 6743TIP3    H241865   2.155   4.591   1.112  0.9577  0.5211  1.1721
 6744TIP3   OH241866   6.539   2.182   7.476 -0.1228  0.2206 -0.7749
 6744TIP3    H141867   6.475   2.115   7.453  1.8020 -1.9547 -0.1521
 6744TIP3    H241868   6.570   2.216   7.391 -0.7778 -0.0250 -1.1135
 6745TIP3   OH241869   1.436   0.349   1.114 -0.2051  0.4497  0.3177
 6745TIP3    H141870   1.347   0.368   1.085 -0.6317  0.5472  1.6445
 6745TIP3    H241871   1.441   0.254   1.115  0.5197  0.3841 -2.0715
 6746TIP3   OH241872   1.123   3.109   7.861 -0.2819  0.2776  0.2515
 6746TIP3    H141873   1.055   3.041   7.861 -0.5264  0.4941  1.5202
 6746TIP3    H241874   1.087   3.179   7.807 -0.6558 -0.0032  0.1326
 6747TIP3   OH241875   4.357   6.115   7.894 -0.0750 -0.5545  0.1033
 6747TIP3    H141876   4.374   6.020   7.894 -2.1835 -0.9860  1.2495
 6747TIP3    H241877   4.375   6.143   7.984 -0.9175 -0.1612  0.1515
 6748TIP3   OH241878   1.095   1.161   0.122  0.1963  0.3665 -0.5905
 6748TIP3    H141879   1.059   1.093   0.180 -1.1409  0.9639 -0.6793
 6748TIP3    H241880   1.093   1.121   0.035  0.9133 -0.0388 -0.4274
 6749TIP3   OH241881   4.730   3.103   2.118 -0.2962  0.3160 -0.4675
 6749TIP3    H141882   4.649   3.154   2.112 -0.2365  0.6305  1.0626
 6749TIP3    H241883   4.776   3.139   2.194  0.6024 -0.8337 -0.4344
 6750TIP3   OH241884   1.916   2.099   0.198 -1.0130  0.1398 -0.1807
 6750TIP3    H141885   1.823   2.115   0.181 -0.7033  1.2507 -0.9519
 6750TIP3    H241886   1.947   2.054   0.119 -0.8480 -0.0607 -0.0025
 6751TIP3   OH241887   2.552   1.715   0.794 -0.1214  0.6863 -0.1005
 6751TIP3    H141888   2.616   1.761   0.740  0.5811 -0.3069 -0.1443
 6751TIP3    H241889   2.516   1.648   0.736 -0.2489  0.3966  0.3158
 6752TIP3   OH241890   3.167   3.047   7.142  0.2040 -0.8265 -0.0533
 6752TIP3    H141891   3.212   3.111   7.086 -0.0540 -1.3185 -0.8374
 6752TIP3    H241892   3.087   3.026   7.095 -0.9811  0.1740  1.4179
 6753TIP3   OH241893   0.814   5.158   7.409  0.1304 -0.3766 -0.1520
 6753TIP3    H141894   0.828   5.196   7.496 -0.5183 -1.0004  0.2354
 6753TIP3    H241895   0.889   5.188   7.357  0.2178  0.4811  0.4541
 6754TIP3   OH241896   0.110   2.682   0.394 -0.1126  0.0236 -0.0903
 6754TIP3    H141897   0.172   2.713   0.460 -1.0300  3.7689 -0.7674
 6754TIP3    H241898   0.165   2.651   0.322  0.8790 -0.5025  0.8571
 6755TIP3   OH241899   2.790   5.989   1.568  0.1713 -0.1984  0.1082
 6755TIP3    H141900   2.731   6.064   1.580  1.3289  0.3924  2.7293
 6755TIP3    H241901   2.858   6.022   1.510  0.4914  0.6966  0.9669
 6756TIP3   OH241902   3.945   6.338   8.749 -0.2695  0.7422  0.7759
 6756TIP3    H141903   4.020   6.369   8.799  0.1251  1.1460 -0.0304
 6756TIP3    H241904   3.963   6.246   8.732  0.4013  0.9941  0.0102
 6757TIP3   OH241905   1.620   6.556   7.084 -0.5148 -0.0531 -0.5096
 6757TIP3    H141906   1.537   6.574   7.041 -0.2010  1.3847 -0.5789
 6757TIP3    H241907   1.648   6.641   7.117  0.9326 -0.5142 -0.4898
 6758TIP3   OH241908   0.087   0.740   7.291  0.0854 -1.0714 -0.1204
 6758TIP3    H141909  -0.001   0.717   7.260 -0.8119  0.1044  1.3938
 6758TIP3    H241910   0.071   0.790   7.371  2.0263  1.3529 -1.1251
 6759TIP3   OH241911   4.811   0.666   8.569  0.1139  0.7197  0.2197
 6759TIP3    H141912   4.807   0.581   8.525  2.2355  0.5067  0.3134
 6759TIP3    H241913   4.720   0.693   8.578 -0.5332 -0.7630 -1.3086
 6760TIP3   OH241914   0.520   3.558   1.447  0.1112 -0.0839 -0.2469
 6760TIP3    H141915   0.531   3.634   1.503  0.6096 -0.3273 -0.0066
 6760TIP3    H241916   0.606   3.544   1.409  0.4979 -1.5717  1.0676
 6761TIP3   OH241917   5.572   6.475   8.893 -0.3879  0.1362 -0.1115
 6761TIP3    H141918   5.597   6.522   8.972 -2.8922  1.1288  0.1819
 6761TIP3    H241919   5.653   6.435   8.862  0.9780  1.0774  2.0285
 6762TIP3   OH241920   6.317   3.338   7.863  0.1889 -0.3897 -0.4733
 6762TIP3    H141921   6.402   3.310   7.896  1.1010  1.2279 -1.3436
 6762TIP3    H241922   6.307   3.292   7.780  1.2068  0.9552 -1.3888
 6763TIP3   OH241923   2.420   2.360   7.723  0.0043  0.3768 -0.1264
 6763TIP3    H141924   2.349   2.337   7.663  0.1709  0.1004 -0.2183
 6763TIP3    H241925   2.376   2.384   7.805 -0.2123  0.5442 -0.2889
 6764TIP3   OH241926   4.969   4.826   0.151 -0.1757  0.2874 -0.1545
 6764TIP3    H141927   4.995   4.845   0.061 -1.3528  0.1089 -0.5484
 6764TIP3    H241928   4.938   4.910   0.186 -0.6458  0.1556 -0.2460
 6765TIP3   OH241929   0.485   0.515   1.233 -0.0637  0.0671 -0.4031
 6765TIP3    H141930   0.443   0.437   1.196 -0.2449  0.3213 -0.7289
 6765TIP3    H241931   0.515   0.486   1.319 -2.4496  0.3337  0.6156
 6766TIP3   OH241932   2.808   5.151   2.436  0.0660  0.3592 -0.2818
 6766TIP3    H141933   2.831   5.192   2.353  2.2054 -0.0863  0.0260
 6766TIP3    H241934   2.788   5.060   2.412  1.0711  0.1253 -0.3081
 6767TIP3   OH241935   2.425   2.518   2.821 -0.1137 -0.3704 -0.2239
 6767TIP3    H141936   2.455   2.457   2.753  0.4231 -0.4388  0.0710
 6767TIP3    H241937   2.506   2.550   2.862 -0.3412  1.1729 -0.9199
 6768TIP3   OH241938   1.599   6.195   7.804 -0.0371 -0.6406  0.5013
 6768TIP3    H141939   1.573   6.117   7.755  0.3891 -1.0369  0.8959
 6768TIP3    H241940   1.591   6.170   7.896  0.1294 -0.2288  0.6331
 6769TIP3   OH241941   4.738   6.792   7.440  0.1412  0.4499 -0.1868
 6769TIP3    H141942   4.733   6.732   7.514  0.2809  1.5452  0.7482
 6769TIP3    H241943   4.738   6.736   7.363 -0.7273 -0.6936  0.6125
 6770TIP3   OH241944   1.850   3.299   7.971 -0.3772 -0.3542  0.3443
 6770TIP3    H141945   1.800   3.228   8.012 -1.2862 -0.7456 -1.3279
 6770TIP3    H241946   1.784   3.360   7.940  0.3360  0.4932  0.4645
 6771TIP3   OH241947   0.386   0.935   7.893 -0.1832  0.2183 -0.5100
 6771TIP3    H141948   0.453   0.985   7.848  0.1947 -0.6095 -0.8985
 6771TIP3    H241949   0.343   0.998   7.951  0.6700  0.8482 -0.5433
 6772TIP3   OH241950   6.178   1.140   0.619  0.0898 -0.3974  0.6233
 6772TIP3    H141951   6.101   1.088   0.597  0.8019 -0.7116 -1.3100
 6772TIP3    H241952   6.249   1.102   0.567  1.1436  1.0302  0.9380
 6773TIP3   OH241953   0.188   2.584   8.329 -0.3299 -0.2341  1.1494
 6773TIP3    H141954   0.124   2.648   8.298  0.7690  1.3127  1.9469
 6773TIP3    H241955   0.239   2.561   8.251 -0.8810 -0.3053  0.8101
 6774TIP3   OH241956   2.193   5.895   2.001  0.1328  0.0387 -0.0826
 6774TIP3    H141957   2.286   5.886   2.018  0.1937  0.0033 -0.4403
 6774TIP3    H241958   2.152   5.823   2.049  0.6392 -2.6167 -3.3056
 6775TIP3   OH241959   0.855   0.539   2.507  0.5588  0.3117 -0.5836
 6775TIP3    H141960   0.820   0.613   2.457 -0.5403  0.6866  0.6749
 6775TIP3    H241961   0.824   0.462   2.459 -1.9464  0.6321  0.3425
 6776TIP3   OH241962   5.563   4.716   8.077 -0.7159 -0.1056  0.8800
 6776TIP3    H141963   5.601   4.803   8.063  0.1142 -0.5221  0.4633
 6776TIP3    H241964   5.590   4.665   8.001 -0.8077 -0.8585  1.3391
 6777TIP3   OH241965   4.739   0.608   0.350  0.2102  0.3566 -0.1434
 6777TIP3    H141966   4.655   0.569   0.371  0.3125  0.8600  1.3529
 6777TIP3    H241967   4.793   0.591   0.427  1.0665  1.1549 -0.5478
 6778TIP3   OH241968   4.006   3.725   8.592  0.0281  0.4173 -0.4319
 6778TIP3    H141969   4.034   3.697   8.679 -0.3299  0.1662 -0.3945
 6778TIP3    H241970   4.086   3.756   8.550 -0.0969  2.4381  0.6871
 6779TIP3   OH241971   2.356   0.197   7.985 -0.0440  0.3413 -0.4871
 6779TIP3    H141972   2.370   0.105   7.962 -0.9920 -0.3280  1.3836
 6779TIP3    H241973   2.444   0.234   7.990  0.3274 -0.2706 -1.8541
 6780TIP3   OH241974   4.335   6.781   1.523 -0.2038  0.2742  0.2387
 6780TIP3    H141975   4.353   6.875   1.529 -0.0388  0.3833 -1.5252
 6780TIP3    H241976   4.266   6.774   1.457 -0.4525 -0.8277  0.5989
 6781TIP3   OH241977   1.171   2.483   8.299  0.3282  0.0991  0.8462
 6781TIP3    H141978   1.252   2.481   8.249 -0.8730  1.8941 -1.3779
 6781TIP3    H241979   1.115   2.544   8.251 -1.0973  1.7423  4.2353
 6782TIP3   OH241980   6.303   5.223   1.943 -0.0504  0.4576  0.4666
 6782TIP3    H141981   6.351   5.305   1.937  0.5405  0.0261 -1.0571
 6782TIP3    H241982   6.353   5.171   2.007  0.6756  0.5717  0.0025
 6783TIP3   OH241983   4.393   5.979   7.440  0.5418 -0.8061 -0.5178
 6783TIP3    H141984   4.332   5.960   7.369  0.9974 -0.9280 -0.8788
 6783TIP3    H241985   4.391   6.074   7.449  0.9988 -0.7287 -1.1617
 6784TIP3   OH241986   3.235   1.214   1.122  0.0043  0.2303  0.1131
 6784TIP3    H141987   3.210   1.136   1.171  1.4762 -0.1019  0.3786
 6784TIP3    H241988   3.277   1.180   1.042  2.2825  0.6703  1.0549
 6785TIP3   OH241989   2.825   1.447   7.661 -0.5782 -0.7413 -0.0936
 6785TIP3    H141990   2.835   1.386   7.733  0.5235  1.2013  1.4946
 6785TIP3    H241991   2.901   1.433   7.606  0.8573  0.6169  1.4468
 6786TIP3   OH241992   2.604   2.948   0.719  0.1506  0.3589 -0.7653
 6786TIP3    H141993   2.583   2.855   0.716  1.2984 -0.1446  2.6131
 6786TIP3    H241994   2.673   2.960   0.654  0.9072 -1.4460 -0.3312
 6787TIP3   OH241995   3.265   5.229   1.075 -0.4404  0.5409 -0.0089
 6787TIP3    H141996   3.279   5.151   1.128  1.8484  2.1947  2.1021
 6787TIP3    H241997   3.344   5.238   1.023 -1.2548  0.7532 -1.2413
 6788TIP3   OH241998   3.183   3.240   8.463 -0.1395 -0.5548 -0.8659
 6788TIP3    H141999   3.275   3.227   8.486  0.6422  2.4808 -1.9223
 6788TIP3    H242000   3.140   3.258   8.546  0.5492 -0.3007 -0.5571
 6789TIP3   OH242001   6.479   3.558   2.369  0.2092  0.5836 -0.5998
 6789TIP3    H142002   6.523   3.519   2.293  0.5475  0.2624 -0.2386
 6789TIP3    H242003   6.549   3.579   2.430 -0.1647 -0.3971  0.1922
 6790TIP3   OH242004   2.097   0.497   2.488  0.4419  0.0444 -0.0100
 6790TIP3    H142005   2.007   0.481   2.514 -0.0201  2.9131  0.5563
 6790TIP3    H242006   2.124   0.418   2.440 -1.8655 -1.4410  0.9966
 6791TIP3   OH242007   6.292   1.553   2.469  0.8047  0.2105 -0.0144
 6791TIP3    H142008   6.366   1.607   2.497 -0.4867  1.2158  1.6989
 6791TIP3    H242009   6.218   1.615   2.463 -0.1613 -0.9499 -0.4668
 6792TIP3   OH242010   1.382   0.886   8.234  0.6656  0.3373  0.4514
 6792TIP3    H142011   1.384   0.950   8.305 -0.0925 -0.3520  1.1057
 6792TIP3    H242012   1.339   0.809   8.271  0.1986 -0.0167 -0.7568
 6793TIP3   OH242013   1.942   5.727   8.569 -0.2645 -0.2366  0.0499
 6793TIP3    H142014   1.979   5.800   8.519  0.8007 -0.4879  0.4586
 6793TIP3    H242015   2.005   5.656   8.560  0.0045 -0.2736  1.8006
 6794TIP3   OH242016   2.065   0.761   0.757 -0.4704  0.0957 -0.1295
 6794TIP3    H142017   1.989   0.712   0.789  0.0630 -0.4222  0.3741
 6794TIP3    H242018   2.137   0.732   0.813 -0.0894  1.2996  0.0249
 6795TIP3   OH242019   0.322   6.476   2.132  0.1761  0.1287 -0.4428
 6795TIP3    H142020   0.317   6.390   2.089 -1.1335  0.1855 -0.4327
 6795TIP3    H242021   0.306   6.458   2.224  1.4033  0.2133 -0.1938
 6796TIP3   OH242022   1.433   2.445   8.016  0.1466  0.2577 -0.1465
 6796TIP3    H142023   1.422   2.502   8.092  0.2682  0.8308 -0.5543
 6796TIP3    H242024   1.527   2.448   7.998  0.4386 -1.4262  0.8634
 6797TIP3   OH242025   2.237   0.157   8.731  0.0482 -0.1199  0.2028
 6797TIP3    H142026   2.174   0.150   8.658  0.9403  0.7439 -0.6839
 6797TIP3    H242027   2.242   0.069   8.766 -2.1776 -0.0896  0.7615
 6798TIP3   OH242028   2.809   4.278   8.926  0.0271 -0.5580 -0.1618
 6798TIP3    H142029   2.739   4.319   8.876 -0.0306 -1.7594 -1.1431
 6798TIP3    H242030   2.857   4.350   8.965 -1.7398  0.2936  0.5200
 6799TIP3   OH242031   0.741   0.506   8.928  0.1692 -0.5316 -0.0516
 6799TIP3    H142032   0.698   0.478   9.009 -0.1133 -1.2313 -0.4328
 6799TIP3    H242033   0.773   0.424   8.889  1.1926 -0.1035 -0.1472
 6800TIP3   OH242034   4.615   2.429   0.766  0.2839 -0.0994 -0.6801
 6800TIP3    H142035   4.617   2.440   0.671 -0.0148  1.2039 -0.5572
 6800TIP3    H242036   4.590   2.515   0.799  0.8497 -0.4114  0.6094
 6801TIP3   OH242037   0.108   4.697   1.540  0.4510 -0.4334 -0.0061
 6801TIP3    H142038   0.052   4.656   1.605 -0.0574  2.7149  1.7754
 6801TIP3    H242039   0.047   4.726   1.472  0.3701  0.0144  0.2531
 6802TIP3   OH242040   1.818   3.999   1.284 -0.1964  0.2045 -0.2098
 6802TIP3    H142041   1.828   3.976   1.376  0.1900 -0.9867 -0.5363
 6802TIP3    H242042   1.728   4.032   1.277 -0.4921 -0.4556  0.4348
 6803TIP3   OH242043   4.761   2.514   7.684 -0.3482  0.6396 -0.4797
 6803TIP3    H142044   4.816   2.581   7.725 -0.8403  0.1178  1.1169
 6803TIP3    H242045   4.781   2.434   7.732 -2.0906  0.3244 -0.1833
 6804TIP3   OH242046   4.724   5.170   0.003 -0.0296  0.2297 -0.0032
 6804TIP3    H142047   4.759   5.105   0.064  0.1479  1.3661  1.1529
 6804TIP3    H242048   4.703   5.120  -0.076  1.0008 -1.0593  0.4981
 6805TIP3   OH242049   1.071   0.882   2.340 -0.5097  0.3366 -0.1838
 6805TIP3    H142050   1.150   0.931   2.361  0.5979 -0.2226 -2.6022
 6805TIP3    H242051   1.099   0.821   2.272 -3.3880  1.5087 -2.6719
 6806TIP3   OH242052   2.888   0.536   7.403  0.4384  0.5292 -0.0321
 6806TIP3    H142053   2.809   0.518   7.352  0.3017  1.4886 -0.1804
 6806TIP3    H242054   2.880   0.480   7.480 -0.5276  0.8103  0.0907
 6807TIP3   OH242055   1.925   0.976   7.590  0.0077 -0.3908 -0.0959
 6807TIP3    H142056   2.015   0.945   7.593 -0.5189 -2.0865 -0.6440
 6807TIP3    H242057   1.904   0.999   7.680  0.5346 -1.3549  0.2835
 6808TIP3   OH242058   3.805   4.443   8.815 -0.5251 -0.5087  0.4808
 6808TIP3    H142059   3.782   4.536   8.810 -0.2133 -0.4194  0.7300
 6808TIP3    H242060   3.868   4.437   8.887 -0.8687 -0.9791  0.7483
 6809TIP3   OH242061   4.672   3.419   8.222  0.3207 -0.2812  0.3209
 6809TIP3    H142062   4.671   3.336   8.270  0.3948 -0.0060  0.7985
 6809TIP3    H242063   4.596   3.414   8.164 -1.7207  0.7491  2.7791
 6810TIP3   OH242064   5.045   6.224   0.285  0.2632  0.7246  0.4443
 6810TIP3    H142065   5.019   6.160   0.352  0.3567  1.1667  0.9152
 6810TIP3    H242066   5.050   6.174   0.204  0.8848  0.0146  0.9046
 6811TIP3   OH242067   1.364   0.194   0.125 -0.0576 -0.2254 -0.1594
 6811TIP3    H142068   1.414   0.172   0.047 -1.5236  0.6314 -1.3934
 6811TIP3    H242069   1.395   0.281   0.150  1.3953 -1.0455  1.0994
 6812TIP3   OH242070   1.519   2.043   2.424  0.1645  0.9396  0.0782
 6812TIP3    H142071   1.605   2.003   2.418 -0.1441 -0.2269  2.4249
 6812TIP3    H242072   1.514   2.078   2.512 -1.2063  2.4077 -0.5291
 6813TIP3   OH242073   5.062   2.336   8.163 -0.6401  0.0328 -0.6648
 6813TIP3    H142074   5.148   2.295   8.163  0.7028  2.6270  0.1896
 6813TIP3    H242075   5.047   2.361   8.254 -2.0954  0.0491 -0.8831
 6814TIP3   OH242076   5.027   3.368   7.743  0.5611  0.4396 -0.1622
 6814TIP3    H142077   5.102   3.422   7.770 -0.5021  1.6478  0.4937
 6814TIP3    H242078   4.970   3.366   7.819  0.6579 -1.8656 -0.0911
 6815TIP3   OH242079   4.926   1.445   6.275  0.0249 -0.0064 -0.0272
 6815TIP3    H142080   5.021   1.453   6.280  0.0808 -0.5304 -0.2763
 6815TIP3    H242081   4.897   1.440   6.367  0.3086 -0.7207  0.0242
 6816TIP3   OH242082   3.816   5.279   1.201 -0.1725 -0.0194 -0.5356
 6816TIP3    H142083   3.780   5.322   1.279  0.6970  1.3839 -0.8716
 6816TIP3    H242084   3.777   5.327   1.128  1.9272  1.2317 -0.9059
 6817TIP3   OH242085   1.088   5.544   2.821 -0.5414  0.1799  0.2799
 6817TIP3    H142086   1.075   5.450   2.803 -1.9481  0.3285  0.3971
 6817TIP3    H242087   1.120   5.579   2.738  0.8637 -0.5314  0.4817
 6818TIP3   OH242088   1.389   6.584   2.981 -0.1630  0.0515  0.1585
 6818TIP3    H142089   1.307   6.617   2.944 -0.2770 -0.3528  0.0462
 6818TIP3    H242090   1.453   6.595   2.910 -0.2145 -0.0225  0.0998
 6819TIP3   OH242091   1.038   2.483   2.801  0.3847  0.3365 -0.3581
 6819TIP3    H142092   1.096   2.497   2.876  0.4429 -0.3882 -0.2625
 6819TIP3    H242093   0.997   2.399   2.818  0.3695  0.1826 -1.1323
 6820TIP3   OH242094   3.123   5.133   2.414 -0.1790  0.3480  0.1369
 6820TIP3    H142095   3.189   5.194   2.449 -2.5351  2.3452  1.4584
 6820TIP3    H242096   3.061   5.121   2.485 -2.7199  0.8234 -1.8193
 6821TIP3   OH242097   3.005   6.297   1.536 -0.2341  0.2771 -0.7300
 6821TIP3    H142098   2.976   6.274   1.625 -1.0150 -1.0435 -1.2987
 6821TIP3    H242099   3.031   6.389   1.543 -1.6877  0.6435  0.5325
 6822TIP3   OH242100   5.092   5.886   6.820  0.3543  0.4175 -0.5561
 6822TIP3    H142101   5.065   5.975   6.845  0.1213  0.2226 -0.0946
 6822TIP3    H242102   5.083   5.835   6.901  2.2554  0.3736 -0.3432
 6823TIP3   OH242103   3.161   1.205   8.180  0.1447  0.1629  0.2421
 6823TIP3    H142104   3.222   1.180   8.250  0.4109  0.9018  0.2852
 6823TIP3    H242105   3.179   1.142   8.110  0.4639 -0.0653  0.5203
 6824TIP3   OH242106   5.630   1.022   2.197  0.5349 -0.4300  0.0843
 6824TIP3    H142107   5.558   0.974   2.238 -0.2041 -1.5518 -2.3818
 6824TIP3    H242108   5.672   0.958   2.139  2.0768  0.8431 -0.2705
 6825TIP3   OH242109   6.652   2.278   7.225 -0.4782  0.0166 -0.1423
 6825TIP3    H142110   6.747   2.270   7.211 -0.5861  0.0382 -0.9622
 6825TIP3    H242111   6.618   2.308   7.141 -1.3843 -1.3262 -0.3002
 6826TIP3   OH242112   0.974   1.231   1.491  0.6521 -0.2590 -0.0807
 6826TIP3    H142113   0.952   1.318   1.458  1.4357 -0.5046 -1.3474
 6826TIP3    H242114   1.027   1.246   1.569 -0.6393  0.3611  0.6985
 6827TIP3   OH242115   0.629   0.710   8.395 -0.0079 -0.0768  0.1400
 6827TIP3    H142116   0.692   0.778   8.370 -0.4843  0.3272  0.0219
 6827TIP3    H242117   0.544   0.748   8.375 -0.3680 -0.1126  1.4784
 6828TIP3   OH242118   1.721   2.671   1.704 -0.5057 -0.0398 -0.3671
 6828TIP3    H142119   1.755   2.582   1.692 -0.4692  0.2265 -2.7392
 6828TIP3    H242120   1.781   2.726   1.655 -1.5781  1.0700 -0.4752
 6829TIP3   OH242121   3.030   1.823   0.007 -0.1640  0.6717  0.1509
 6829TIP3    H142122   3.109   1.844   0.057 -0.0211  0.0823  0.1908
 6829TIP3    H242123   2.967   1.890   0.032  0.5189  1.5289 -0.3605
 6830TIP3   OH242124   5.671   6.306   1.355 -0.2039  0.3881 -0.2926
 6830TIP3    H142125   5.757   6.268   1.336  0.2952  1.7510 -0.8814
 6830TIP3    H242126   5.630   6.316   1.270 -0.7816  0.1239 -0.0471
 6831TIP3   OH242127   4.471   3.552   1.135 -0.2019 -0.2612 -0.3136
 6831TIP3    H142128   4.510   3.629   1.092 -0.4392 -0.3687 -0.7298
 6831TIP3    H242129   4.381   3.549   1.102  0.3059 -1.7377 -1.6982
 6832TIP3   OH242130   3.823   6.683   1.250 -0.5461 -0.5461 -0.0842
 6832TIP3    H142131   3.887   6.640   1.307  1.1653  1.0847 -0.6599
 6832TIP3    H242132   3.818   6.773   1.283  0.2756  0.3575 -2.2770
 6833TIP3   OH242133   6.264   5.768   8.589 -0.3862 -0.4622  0.2566
 6833TIP3    H142134   6.313   5.723   8.657  1.4000  0.6591 -0.2314
 6833TIP3    H242135   6.327   5.827   8.548 -2.1161  0.9473 -0.5173
 6834TIP3   OH242136   1.581   5.947   7.643 -0.5732 -0.1096 -0.2597
 6834TIP3    H142137   1.488   5.968   7.629 -0.4146  0.6897 -0.1835
 6834TIP3    H242138   1.618   5.943   7.555 -0.5999 -0.0431 -0.2741
 6835TIP3   OH242139   3.565   4.913   1.511  0.2167 -0.1181  0.0464
 6835TIP3    H142140   3.510   4.986   1.540 -1.7621 -1.8299  0.8247
 6835TIP3    H242141   3.505   4.853   1.467  2.0776 -0.5237 -2.1804
 6836TIP3   OH242142   0.770   2.213   7.961 -0.3846  0.4421  0.2362
 6836TIP3    H142143   0.801   2.295   7.998 -0.5333 -0.0033  1.3748
 6836TIP3    H242144   0.829   2.147   7.996 -0.8974 -0.0675  0.1620
 6837TIP3   OH242145   2.512   2.430   1.059  0.3436  0.0858  1.0095
 6837TIP3    H142146   2.523   2.524   1.073  1.1083  0.1161  0.2725
 6837TIP3    H242147   2.428   2.423   1.014  0.5019  0.4534  0.6539
 6838TIP3   OH242148   5.663   6.192   7.697 -0.3029 -0.1199  0.8308
 6838TIP3    H142149   5.630   6.133   7.629 -1.1587 -0.2143  1.3102
 6838TIP3    H242150   5.752   6.161   7.713 -0.4618 -0.7816  0.5141
 6839TIP3   OH242151   2.552   0.612   8.708 -0.0771  0.0011  0.4334
 6839TIP3    H142152   2.597   0.545   8.656  0.0066 -1.2622  2.0463
 6839TIP3    H242153   2.488   0.563   8.759 -0.7309  1.3068  0.8897
 6840TIP3   OH242154   4.832   4.296   2.070  0.3934 -0.7187  0.8180
 6840TIP3    H142155   4.778   4.256   2.138 -0.6792  2.0596  1.7584
 6840TIP3    H242156   4.899   4.343   2.118  1.3001 -0.9457 -0.2013
 6841TIP3   OH242157   4.807   2.782   6.895 -0.1816 -0.1900 -0.1867
 6841TIP3    H142158   4.886   2.732   6.875  0.1818  0.7645 -1.2455
 6841TIP3    H242159   4.789   2.832   6.815 -0.7223  1.1069  0.7092
 6842TIP3   OH242160   1.804   0.325   0.185  0.1180  0.5285  0.0336
 6842TIP3    H142161   1.738   0.304   0.119 -0.1214 -2.0587  1.0012
 6842TIP3    H242162   1.767   0.295   0.268  2.7928 -1.9854  0.4857
 6843TIP3   OH242163   5.018   6.079   8.710  0.2777 -0.4086  0.0367
 6843TIP3    H142164   5.054   6.098   8.796 -0.0006 -0.6794  0.2143
 6843TIP3    H242165   5.078   6.122   8.649  0.5083 -0.2668  0.3603
 6844TIP3   OH242166   0.871   1.639   2.557 -0.6772  0.0218  0.6731
 6844TIP3    H142167   0.906   1.725   2.533  2.2753 -0.5011  2.5781
 6844TIP3    H242168   0.810   1.657   2.628  1.4787  0.5092  2.5093
 6845TIP3   OH242169   1.015   5.025   0.975 -0.3163 -0.1691  0.6837
 6845TIP3    H142170   0.965   5.007   1.054 -0.8083  2.3143  1.0092
 6845TIP3    H242171   0.975   5.105   0.939  2.5949  1.2152  0.2846
 6846TIP3   OH242172   1.124   5.674   2.546  0.2631 -0.1012 -0.0523
 6846TIP3    H142173   1.091   5.737   2.481  0.9122  0.3080  0.0020
 6846TIP3    H242174   1.130   5.592   2.498  0.7700  0.2053 -0.5393
 6847TIP3   OH242175   1.224   0.872   6.864 -0.2723 -0.6808 -0.2740
 6847TIP3    H142176   1.319   0.868   6.856  0.0004  1.7333  1.0242
 6847TIP3    H242177   1.200   0.958   6.829 -1.6802 -0.2676  1.5632
 6848TIP3   OH242178   0.273   4.918   8.593  0.4235  0.5502 -0.3788
 6848TIP3    H142179   0.338   4.887   8.656 -1.1464 -0.2816  0.9305
 6848TIP3    H242180   0.244   4.838   8.548 -2.4953  0.1944  1.8721
 6849TIP3   OH242181   2.761   0.262   1.572  0.4068  0.6295 -0.2067
 6849TIP3    H142182   2.728   0.222   1.652  0.9077  1.0886  0.2429
 6849TIP3    H242183   2.746   0.197   1.504 -1.2517  0.7537 -0.0010
 6850TIP3   OH242184   4.632   3.148   8.023 -0.3001 -0.0310 -0.4598
 6850TIP3    H142185   4.539   3.156   8.004  0.0801  0.6967 -2.2510
 6850TIP3    H242186   4.638   3.077   8.087 -2.2134  1.0560  1.0481
 6851TIP3   OH242187   1.441   6.774   0.288 -0.3577  0.5001  0.1747
 6851TIP3    H142188   1.384   6.806   0.357  1.4893 -0.6721  2.3651
 6851TIP3    H242189   1.433   6.839   0.218 -2.9543  1.2790  1.0890
 6852TIP3   OH242190   0.744   3.513   1.318  0.4243  0.0196 -0.4386
 6852TIP3    H142191   0.725   3.524   1.225 -1.2132  0.2830 -0.0997
 6852TIP3    H242192   0.832   3.474   1.320  1.3923  1.9307 -2.0310
 6853TIP3   OH242193   3.193   4.358   2.267 -0.7709  0.1223 -0.0754
 6853TIP3    H142194   3.163   4.276   2.306  1.8386 -0.4047  1.0082
 6853TIP3    H242195   3.213   4.336   2.176  1.0891 -0.8261  0.5187
 6854TIP3   OH242196   3.799   5.702   8.579  0.1958  0.2642  0.2583
 6854TIP3    H142197   3.788   5.621   8.629  0.4198  0.7793  1.1694
 6854TIP3    H242198   3.887   5.733   8.602  0.8405 -0.1712 -1.4973
 6855TIP3   OH242199   4.728   2.995   0.778 -0.0042 -0.4017  0.2154
 6855TIP3    H142200   4.722   2.974   0.685  1.6159 -0.0224  0.0040
 6855TIP3    H242201   4.641   3.029   0.800  0.4578  2.5075 -1.9096
 6856TIP3   OH242202   1.004   3.410   1.350  0.0691  0.5769 -0.1401
 6856TIP3    H142203   0.990   3.321   1.382  0.1777  0.9077  0.8695
 6856TIP3    H242204   1.097   3.412   1.325  0.0934  0.4386 -0.0596
 6857TIP3   OH242205   6.767   3.928   8.680 -0.0425 -0.2289 -0.2130
 6857TIP3    H142206   6.697   3.972   8.728  1.0938  0.9380  0.4434
 6857TIP3    H242207   6.753   3.953   8.589 -0.2193  0.3886 -0.0207
 6858TIP3   OH242208   1.535   5.574   1.718  0.2174 -0.1862 -0.2192
 6858TIP3    H142209   1.575   5.569   1.805  2.1216 -0.1503 -1.0285
 6858TIP3    H242210   1.451   5.529   1.726 -0.6134  1.6128  2.1303
 6859TIP3   OH242211   2.371   4.278   7.679 -0.3390  0.0615 -0.0588
 6859TIP3    H142212   2.388   4.223   7.603 -0.3599 -0.0814  0.0413
 6859TIP3    H242213   2.457   4.289   7.720 -0.5664 -1.1295  0.7699
 6860TIP3   OH242214   4.848   1.452   0.335 -0.4554  0.4864 -0.3464
 6860TIP3    H142215   4.812   1.364   0.339 -0.6181  0.5946  1.1999
 6860TIP3    H242216   4.878   1.462   0.244 -0.3646 -1.1663 -0.5219
 6861TIP3   OH242217   6.422   1.680   0.771  0.7656  0.5513  0.0768
 6861TIP3    H142218   6.446   1.773   0.774  1.9180  0.2582  0.5408
 6861TIP3    H242219   6.486   1.641   0.712 -0.1455  0.1525 -0.6830
 6862TIP3   OH242220   0.607   1.936   7.285  0.2604 -0.1985  0.6319
 6862TIP3    H142221   0.613   1.878   7.208  0.5761 -1.1853  1.3792
 6862TIP3    H242222   0.690   1.982   7.287 -0.0449  0.4040 -0.0492
 6863TIP3   OH242223   4.996   6.504   8.084  0.5123 -0.2152 -0.1146
 6863TIP3    H142224   5.064   6.524   8.020  0.9226 -1.6372 -0.1603
 6863TIP3    H242225   4.922   6.473   8.032  1.4871 -3.1830  0.1055
 6864TIP3   OH242226   4.586   4.863   0.159  0.4279 -0.1464  0.6024
 6864TIP3    H142227   4.528   4.796   0.195  0.7681 -0.7729  0.0153
 6864TIP3    H242228   4.561   4.944   0.205  0.0055 -0.6655  1.3133
 6865TIP3   OH242229   3.392   6.311   1.341  0.3858  0.2595  0.4536
 6865TIP3    H142230   3.315   6.334   1.289  1.4666  2.8791 -0.1244
 6865TIP3    H242231   3.465   6.314   1.279  1.1648 -0.8219  1.2774
 6866TIP3   OH242232   6.385   0.809   7.973 -0.5367  0.3089 -0.0032
 6866TIP3    H142233   6.385   0.749   7.899  0.7464 -0.8552  0.8905
 6866TIP3    H242234   6.423   0.890   7.938 -3.6670  1.2431 -1.6031
 6867TIP3   OH242235   4.309   5.393   0.585 -0.2430  0.9382 -0.0957
 6867TIP3    H142236   4.396   5.391   0.547 -0.2872 -0.9210 -0.2135
 6867TIP3    H242237   4.320   5.435   0.671  1.0598 -0.5204  0.4940
 6868TIP3   OH242238   2.456   2.704   0.116 -0.0348  0.7980 -0.3265
 6868TIP3    H142239   2.400   2.771   0.155  0.5197 -0.1836  2.3622
 6868TIP3    H242240   2.527   2.754   0.074 -0.3337  1.9332  0.4552
 6869TIP3   OH242241   0.063   1.863   0.888  0.5662  0.2493  0.6883
 6869TIP3    H142242   0.011   1.944   0.887 -2.0298 -1.2732  1.2476
 6869TIP3    H242243   0.147   1.890   0.925 -0.2897  2.6542  1.1306
 6870TIP3   OH242244   0.345   5.502   7.094 -0.1025  0.2154  0.4374
 6870TIP3    H142245   0.407   5.564   7.133  1.0128 -1.1573  0.9447
 6870TIP3    H242246   0.270   5.503   7.153  0.7027 -0.3090  1.4979
 6871TIP3   OH242247   2.795   0.741   1.294 -0.4056 -0.0961  0.2029
 6871TIP3    H142248   2.818   0.830   1.320 -0.0195 -0.4489  1.0858
 6871TIP3    H242249   2.767   0.698   1.375  0.9290 -1.2479  0.0918
 6872TIP3   OH242250   4.021   6.757   0.987  0.4342 -0.3262 -0.0378
 6872TIP3    H142251   4.077   6.705   0.930 -0.2351  0.1792 -1.1934
 6872TIP3    H242252   4.002   6.700   1.062  1.6484 -0.8549 -0.1134
 6873TIP3   OH242253   4.548   3.594   8.647  0.6808 -0.1588  0.2442
 6873TIP3    H142254   4.604   3.672   8.641  0.3575  0.0521 -0.1023
 6873TIP3    H242255   4.525   3.588   8.740  0.3263  0.4349  0.1990
 6874TIP3   OH242256   2.150   4.574   7.455 -0.0361  0.3309 -0.2368
 6874TIP3    H142257   2.241   4.600   7.471 -0.2810 -0.0721  2.2002
 6874TIP3    H242258   2.156   4.504   7.390  1.7595 -1.9811  2.2133
 6875TIP3   OH242259   2.259   4.511   7.197  0.0726 -0.7268  0.0307
 6875TIP3    H142260   2.201   4.585   7.180 -0.1301 -0.7524  0.5932
 6875TIP3    H242261   2.240   4.449   7.126  1.5310  0.4942 -1.5024
 6876TIP3   OH242262   6.295   0.147   0.379 -0.1056 -0.0816  0.6500
 6876TIP3    H142263   6.204   0.118   0.383 -0.3867  0.3497 -1.3571
 6876TIP3    H242264   6.309   0.194   0.461 -1.3875 -0.9239  1.3943
 6877TIP3   OH242265   1.351   2.810   7.326 -0.0094  0.2754 -0.1007
 6877TIP3    H142266   1.381   2.723   7.297 -0.0691  0.4601 -0.7399
 6877TIP3    H242267   1.375   2.814   7.418  2.0790  0.4630 -0.6024
 6878TIP3   OH242268   5.046   0.872   8.278  0.2073  0.0402  0.0721
 6878TIP3    H142269   4.978   0.810   8.303 -0.5411  0.6783 -0.3233
 6878TIP3    H242270   5.036   0.881   8.183  0.1387  0.9512  0.1591
 6879TIP3   OH242271   1.678   5.636   8.529  0.0072  0.1490  0.7451
 6879TIP3    H142272   1.698   5.625   8.436  1.3456 -0.0137  1.0280
 6879TIP3    H242273   1.760   5.668   8.567 -0.6770  0.7267  1.7847
 6880TIP3   OH242274   3.302   4.884   0.926 -0.5673 -0.2090  0.1768
 6880TIP3    H142275   3.246   4.858   1.000  1.2444  0.2096  1.7947
 6880TIP3    H242276   3.294   4.812   0.864 -0.8849 -1.3948  1.5232
 6881TIP3   OH242277   0.390   6.536   7.328  0.2482 -0.1641  0.1223
 6881TIP3    H142278   0.447   6.614   7.331  3.0081 -2.0159 -0.4975
 6881TIP3    H242279   0.335   6.551   7.252 -1.0194  2.2214  1.3855
 6882TIP3   OH242280   3.995   1.019   7.166  0.5142  0.4165 -0.4778
 6882TIP3    H142281   4.038   0.963   7.230  0.9881 -0.7589 -1.7870
 6882TIP3    H242282   3.902   0.994   7.170  0.5066  0.5029 -0.1036
 6883TIP3   OH242283   2.001   0.223   8.579 -0.5786  0.5251 -0.0373
 6883TIP3    H142284   1.963   0.142   8.544  2.2207 -0.1743 -1.7331
 6883TIP3    H242285   2.017   0.278   8.503 -1.9614  2.5795  1.0454
 6884TIP3   OH242286   5.548   4.662   2.628 -0.0808 -0.1350  0.4266
 6884TIP3    H142287   5.484   4.658   2.699  0.4473 -3.1891  0.8779
 6884TIP3    H242288   5.630   4.690   2.670 -0.2299  0.0361  0.6052
 6885TIP3   OH242289   2.994   5.924   0.294 -0.1628 -0.1478 -0.0838
 6885TIP3    H142290   3.044   5.881   0.363 -0.1759 -1.3666 -0.8082
 6885TIP3    H242291   3.052   5.993   0.261  0.1595 -0.0933  0.5799
 6886TIP3   OH242292   4.525   0.953   2.364  0.3855 -0.2084  0.1082
 6886TIP3    H142293   4.459   0.897   2.323  1.1462 -0.9923 -0.0980
 6886TIP3    H242294   4.530   1.030   2.308  0.5193 -0.7061 -0.5764
 6887TIP3   OH242295   5.858   4.762   1.150  0.5168  0.0498 -0.4245
 6887TIP3    H142296   5.826   4.828   1.212  3.2638  2.9850 -1.8468
 6887TIP3    H242297   5.921   4.711   1.199  0.7327  0.6096 -0.1064
 6888TIP3   OH242298   2.913   2.942   7.082 -0.2068 -0.1399  0.9914
 6888TIP3    H142299   2.949   2.855   7.062  2.0736  1.1570 -1.1565
 6888TIP3    H242300   2.826   2.942   7.041  0.9386 -0.5094 -1.6835
 6889TIP3   OH242301   3.580   6.273   1.121  0.0910  0.3163  0.3201
 6889TIP3    H142302   3.578   6.178   1.127  0.9393  0.2051 -0.7845
 6889TIP3    H242303   3.579   6.291   1.027 -0.0070  1.3932  0.5154
 6890TIP3   OH242304   3.148   2.893   8.844  0.2972 -0.2140  0.7652
 6890TIP3    H142305   3.194   2.891   8.759 -0.1311  0.7392  0.4957
 6890TIP3    H242306   3.159   2.805   8.879  1.3309 -0.3423  0.1706
 6891TIP3   OH242307   0.004   4.559   1.166  0.2944  0.0024  0.1167
 6891TIP3    H142308   0.026   4.502   1.092  1.5416  0.9879 -0.2883
 6891TIP3    H242309  -0.091   4.570   1.160  0.2429 -0.7797 -0.6998
 6892TIP3   OH242310   3.398   2.376   7.889 -0.2982  0.0800 -0.0119
 6892TIP3    H142311   3.465   2.416   7.833  0.3593 -0.5201  0.3153
 6892TIP3    H242312   3.315   2.399   7.848  0.1499 -0.0022 -0.9997
 6893TIP3   OH242313   5.596   3.442   8.441  0.6073 -0.0276  0.2703
 6893TIP3    H142314   5.578   3.350   8.461  1.8143 -0.6137 -1.1019
 6893TIP3    H242315   5.647   3.473   8.516  1.4917 -0.9490  0.0811
 6894TIP3   OH242316   1.358   1.574   8.930  0.2166  0.1208 -0.3471
 6894TIP3    H142317   1.320   1.589   9.017 -1.4486  0.2563 -1.0692
 6894TIP3    H242318   1.329   1.486   8.906 -1.5009  1.0268 -1.7994
 6895TIP3   OH242319   2.190   2.251   1.119  0.0253  0.1923  0.0287
 6895TIP3    H142320   2.228   2.195   1.051  1.0377 -0.5100  1.1469
 6895TIP3    H242321   2.155   2.190   1.184 -1.6593  0.8466 -0.2122
 6896TIP3   OH242322   6.662   5.880   1.665 -0.4240  0.2427 -0.4809
 6896TIP3    H142323   6.734   5.851   1.608 -0.0495  0.4399 -0.1079
 6896TIP3    H242324   6.602   5.925   1.606 -0.1346  0.2727 -0.7572
 6897TIP3   OH242325   4.793   6.496   1.027 -0.0643  0.3324 -0.0335
 6897TIP3    H142326   4.852   6.499   0.952  1.0535 -0.0949  0.8085
 6897TIP3    H242327   4.708   6.470   0.990  0.3274  0.6755 -1.2130
 6898TIP3   OH242328   2.794   5.487   7.614  0.1745 -0.1615  0.5017
 6898TIP3    H142329   2.736   5.555   7.579 -1.6580 -1.4370  0.8999
 6898TIP3    H242330   2.796   5.505   7.709  0.0252 -0.4004  0.5508
 6899TIP3   OH242331   3.060   3.655   7.837 -0.2375 -0.1231 -0.3412
 6899TIP3    H142332   3.024   3.668   7.924 -0.0249  0.9164 -0.4024
 6899TIP3    H242333   3.148   3.694   7.841  0.5739 -1.8088 -0.4507
 6900TIP3   OH242334   0.474   3.571   0.815  0.5988 -0.1550 -0.7922
 6900TIP3    H142335   0.494   3.639   0.879  1.4623 -0.5546 -0.6231
 6900TIP3    H242336   0.542   3.581   0.748  0.8876 -1.0161 -0.6324
 6901TIP3   OH242337   0.506   0.193   2.185  0.7562  0.2606  0.1232
 6901TIP3    H142338   0.554   0.262   2.140 -0.8647  1.7207  0.5601
 6901TIP3    H242339   0.420   0.191   2.144  1.4017 -3.1270 -1.4574
 6902TIP3   OH242340   0.626   5.428   7.413 -0.5584 -0.2733 -0.2805
 6902TIP3    H142341   0.595   5.340   7.392 -0.1697 -0.0457 -1.9393
 6902TIP3    H242342   0.610   5.437   7.507 -1.2668 -1.8395 -0.2163
 6903TIP3   OH242343   5.214   6.330   7.438  0.2775 -0.2083 -0.3326
 6903TIP3    H142344   5.225   6.319   7.533 -0.9596  0.2411 -0.1160
 6903TIP3    H242345   5.300   6.359   7.407  0.2363  1.4991  0.9622
 6904TIP3   OH242346   0.048   2.685   7.954 -0.1093  0.1211 -0.0384
 6904TIP3    H142347   0.047   2.667   7.860 -2.0166 -0.0038 -0.0397
 6904TIP3    H242348   0.044   2.598   7.994  0.6496  0.1772  0.1654
 6905TIP3   OH242349   3.286   2.771   8.352  0.5389 -0.5311 -0.0988
 6905TIP3    H142350   3.196   2.757   8.322  0.8969 -0.4224 -1.2728
 6905TIP3    H242351   3.336   2.785   8.272  1.2497  1.5286  0.6317
 6906TIP3   OH242352   3.114   1.041   1.694 -0.4609 -0.1774  0.0810
 6906TIP3    H142353   3.159   1.022   1.775  2.2005 -1.0300 -1.4825
 6906TIP3    H242354   3.182   1.073   1.635 -2.2611  0.3119 -1.8692
 6907TIP3   OH242355   2.818   4.110   0.971  0.2333 -0.1821  0.2329
 6907TIP3    H142356   2.818   4.084   0.879  1.8356  2.5820 -0.6324
 6907TIP3    H242357   2.725   4.123   0.992 -0.0335  1.5958 -1.7820
 6908TIP3   OH242358   0.817   6.379   7.919  0.1698 -0.4874 -0.0714
 6908TIP3    H142359   0.773   6.380   8.004 -1.4749  0.7967 -0.8815
 6908TIP3    H242360   0.747   6.399   7.856  1.8399  1.1787 -1.4868
 6909TIP3   OH242361   5.314   2.232   1.886  0.0743 -0.0666  0.0897
 6909TIP3    H142362   5.243   2.176   1.919  1.2063 -1.4878  0.1970
 6909TIP3    H242363   5.333   2.198   1.799 -0.1044  1.0224 -0.3820
 6910TIP3   OH242364   0.431   5.375   2.688 -0.5583 -0.1431  0.4497
 6910TIP3    H142365   0.403   5.322   2.762  4.4259 -0.3775  2.5670
 6910TIP3    H242366   0.416   5.465   2.716 -0.0735 -0.2657  1.1219
 6911TIP3   OH242367   5.895   3.753   0.586  0.8222  0.0350 -0.3268
 6911TIP3    H142368   5.871   3.803   0.664  3.4354 -1.0057  1.2594
 6911TIP3    H242369   5.839   3.676   0.590  1.6232 -0.5112  1.1602
 6912TIP3   OH242370   0.982   5.527   1.625  0.5312 -0.5958 -0.0206
 6912TIP3    H142371   1.033   5.599   1.589 -0.8962 -0.0659 -1.0953
 6912TIP3    H242372   0.919   5.570   1.683  1.0821 -1.2027  1.0467
 6913TIP3   OH242373   3.706   1.185   8.264  0.2638 -0.2131 -0.3495
 6913TIP3    H142374   3.686   1.273   8.294 -0.7648 -0.4655 -0.2571
 6913TIP3    H242375   3.792   1.165   8.302 -0.2009  0.1509  0.9303
 6914TIP3   OH242376   1.937   5.260   0.758  0.3492 -0.5174  0.5460
 6914TIP3    H142377   1.870   5.267   0.690  0.1924 -1.1354  0.6245
 6914TIP3    H242378   1.887   5.254   0.840  0.5599  2.0375  0.9270
 6915TIP3   OH242379   4.548   3.320   1.053  0.2526  0.1739 -0.3482
 6915TIP3    H142380   4.522   3.411   1.066  1.1140  0.4321 -0.3569
 6915TIP3    H242381   4.615   3.305   1.119 -0.5431 -0.7530  0.2677
 6916TIP3   OH242382   1.515   2.427   0.286 -0.8626  0.0650 -0.0494
 6916TIP3    H142383   1.525   2.478   0.367 -1.7847  0.7225 -0.3348
 6916TIP3    H242384   1.482   2.342   0.315  2.6260 -1.2326  0.6527
 6917TIP3   OH242385   0.400   3.972   1.649 -0.0086 -0.0714 -0.1803
 6917TIP3    H142386   0.393   4.067   1.659 -0.4293 -0.0485 -0.6495
 6917TIP3    H242387   0.326   3.948   1.594  0.3518 -0.6104 -0.4473
 6918TIP3   OH242388   5.312   5.633   7.602 -0.1184 -0.0605  0.7818
 6918TIP3    H142389   5.341   5.724   7.597 -0.6063  0.0491 -0.1142
 6918TIP3    H242390   5.242   5.634   7.668 -1.8719  0.7061 -0.9991
 6919TIP3   OH242391   4.441   5.291   8.052  0.4643 -0.6884 -0.2155
 6919TIP3    H142392   4.392   5.222   8.008  0.4624 -2.1425  1.8826
 6919TIP3    H242393   4.469   5.350   7.982 -1.7903 -1.3579 -1.7992
 6920TIP3   OH242394   4.220   1.781   1.807 -0.0366  0.7145  0.1813
 6920TIP3    H142395   4.137   1.811   1.769 -1.2584  0.9514  2.8248
 6920TIP3    H242396   4.230   1.832   1.887  1.6105 -0.7768  1.0038
 6921TIP3   OH242397   1.836   2.794   1.940  0.5009 -0.1640 -0.1318
 6921TIP3    H142398   1.822   2.875   1.990 -0.4659 -0.0074 -0.6238
 6921TIP3    H242399   1.778   2.803   1.864 -0.0988 -1.5997  0.1223
 6922TIP3   OH242400   5.136   1.062   0.186  0.1093 -0.6318  0.1193
 6922TIP3    H142401   5.116   1.067   0.093  0.0624 -1.0016  0.1118
 6922TIP3    H242402   5.078   1.127   0.227  0.8186  0.2377 -0.2204
 6923TIP3   OH242403   6.773   3.651   1.059 -0.0785 -0.1792  0.3040
 6923TIP3    H142404   6.758   3.668   0.966  0.9360  0.7926  0.2968
 6923TIP3    H242405   6.709   3.583   1.081  0.7736 -1.6795 -1.4991
 6924TIP3   OH242406   3.531   4.318   0.037  0.3825  0.7590 -0.3067
 6924TIP3    H142407   3.560   4.409   0.030  1.2634  0.5489  0.3923
 6924TIP3    H242408   3.502   4.309   0.128  0.8679  0.1806 -0.2045
 6925TIP3   OH242409   4.024   3.583   2.119  0.2566 -0.2817  0.4898
 6925TIP3    H142410   4.028   3.491   2.145 -0.3962 -0.5729 -0.3620
 6925TIP3    H242411   4.035   3.581   2.024 -0.2130  0.4738  0.4107
 6926TIP3   OH242412   2.505   4.931   0.417  0.3331 -0.0160  0.0883
 6926TIP3    H142413   2.479   4.934   0.509  0.3935  2.0070  0.0952
 6926TIP3    H242414   2.463   5.008   0.378  1.0448 -0.3316 -1.3835
 6927TIP3   OH242415   4.565   2.777   0.806 -0.3363  0.2815  0.1964
 6927TIP3    H142416   4.544   2.732   0.889  0.4579  0.4958  0.5193
 6927TIP3    H242417   4.639   2.834   0.828 -0.4410  0.7099 -0.5498
 6928TIP3   OH242418   6.326   2.196   7.939 -0.0329  0.1052  0.2815
 6928TIP3    H142419   6.263   2.146   7.887 -2.0056  2.2225  0.4814
 6928TIP3    H242420   6.329   2.151   8.023  1.8104 -2.2834 -0.9059
 6929TIP3   OH242421   0.124   4.054   1.925 -0.4093 -0.1230 -0.3645
 6929TIP3    H142422   0.100   4.143   1.950 -0.2029  0.0083 -0.6353
 6929TIP3    H242423   0.138   4.009   2.009  0.1129  0.2715 -0.2371
 6930TIP3   OH242424   5.557   2.572   2.876 -0.4140 -0.1188 -0.9754
 6930TIP3    H142425   5.485   2.627   2.908 -2.3189 -1.7359 -2.2575
 6930TIP3    H242426   5.525   2.483   2.885  1.5323 -0.9047 -1.4350
 6931TIP3   OH242427   3.608   6.477   1.543 -0.2452  0.5023 -0.0696
 6931TIP3    H142428   3.517   6.482   1.512 -0.0433  0.5381 -0.6588
 6931TIP3    H242429   3.618   6.555   1.598 -0.3089  0.9839 -0.7220
 6932TIP3   OH242430   2.736   4.480   7.543  0.1656 -0.1895 -0.0437
 6932TIP3    H142431   2.823   4.512   7.516  0.6744 -1.1442  0.3932
 6932TIP3    H242432   2.678   4.554   7.529  0.9827  0.3469 -0.7329
 6933TIP3   OH242433   0.945   2.331   0.598  0.4517 -0.1534  0.2382
 6933TIP3    H142434   0.942   2.347   0.504  0.7276  1.7535  0.5279
 6933TIP3    H242435   1.035   2.302   0.614  0.0046 -1.9902 -0.2523
 6934TIP3   OH242436   6.596   0.358   7.734  0.0591  0.2045  0.0813
 6934TIP3    H142437   6.612   0.337   7.642  1.1725  1.7023 -0.0924
 6934TIP3    H242438   6.502   0.341   7.746  0.1311 -1.1074 -1.0057
 6935TIP3   OH242439   3.152   2.364   0.322 -0.8967  0.2924  0.2885
 6935TIP3    H142440   3.187   2.355   0.411 -0.0461  1.8384  0.1566
 6935TIP3    H242441   3.212   2.315   0.267 -0.8236  0.2053  0.4468
 6936TIP3   OH242442   3.231   1.369   0.102  0.2703 -0.0602 -0.1792
 6936TIP3    H142443   3.176   1.297   0.070  0.3420 -0.0386 -0.3496
 6936TIP3    H242444   3.264   1.411   0.023 -1.6264  1.6207 -0.1488
 6937TIP3   OH242445   3.540   0.576   1.465  0.0766 -0.2284 -0.9243
 6937TIP3    H142446   3.608   0.604   1.404  1.1409 -1.5804 -0.4158
 6937TIP3    H242447   3.572   0.602   1.551  0.2245 -1.3075 -0.6305
 6938TIP3   OH242448   3.117   1.588   8.005 -0.3211 -0.6725 -0.2680
 6938TIP3    H142449   3.071   1.541   8.074  1.1704 -0.8006  0.6790
 6938TIP3    H242450   3.089   1.679   8.014  0.9942 -0.4059  1.5202
 6939TIP3   OH242451   4.998   2.766   0.246 -0.4687 -0.4311 -0.0287
 6939TIP3    H142452   4.976   2.858   0.238  1.7992  0.1900  0.1451
 6939TIP3    H242453   4.930   2.729   0.303  0.3333  1.8820  2.6299
 6940TIP3   OH242454   2.136   3.099   8.358 -0.1744 -0.1509  0.2587
 6940TIP3    H142455   2.041   3.106   8.367 -0.1091 -1.0957  2.2146
 6940TIP3    H242456   2.167   3.189   8.365 -0.8581  0.0615  0.6434
 6941TIP3   OH242457   6.154   2.057   1.802  0.2521  0.5955  0.6261
 6941TIP3    H142458   6.116   2.044   1.715  0.8119 -2.4226  0.7173
 6941TIP3    H242459   6.221   2.125   1.788 -1.1658  1.7884 -0.7641
 6942TIP3   OH242460   4.081   0.882   8.478  0.0427 -0.5155  0.4052
 6942TIP3    H142461   4.156   0.917   8.431  0.1775  0.6302  1.4305
 6942TIP3    H242462   4.098   0.788   8.484  0.0667 -0.7071 -1.7063
 6943TIP3   OH242463   6.659   3.273   6.784  0.2873  0.0356 -0.1751
 6943TIP3    H142464   6.613   3.292   6.702  0.8701 -0.1472 -0.5463
 6943TIP3    H242465   6.668   3.358   6.826  0.1077  0.1508 -0.3654
 6944TIP3   OH242466   0.973   1.886   6.783 -0.3083 -0.1481  0.1798
 6944TIP3    H142467   0.926   1.824   6.840  0.5050 -0.6310  0.3507
 6944TIP3    H242468   0.991   1.836   6.703  0.8284 -0.3328  0.5290
 6945TIP3   OH242469   0.674   6.283   1.528 -0.3519  0.0843  0.1396
 6945TIP3    H142470   0.687   6.356   1.589  1.7427  0.9998 -1.3109
 6945TIP3    H242471   0.604   6.314   1.470 -1.3142 -0.1859  1.1199
 6946TIP3   OH242472   4.039   3.273   0.669 -0.5185 -0.2148  0.2848
 6946TIP3    H142473   4.016   3.299   0.580  0.9227 -1.0533 -0.3633
 6946TIP3    H242474   4.109   3.333   0.695 -0.2202 -0.6237  0.4456
 6947TIP3   OH242475   1.958   6.739   1.217 -0.2590  0.1033  0.1897
 6947TIP3    H142476   1.979   6.762   1.126  0.2045 -1.9680 -0.2997
 6947TIP3    H242477   2.006   6.802   1.270  2.4032 -0.7638 -1.0036
 6948TIP3   OH242478   5.404   2.899   1.503  0.1567 -0.1357 -0.7452
 6948TIP3    H142479   5.464   2.894   1.429  0.3254  2.6373 -0.8977
 6948TIP3    H242480   5.456   2.871   1.578  0.6829 -0.7741 -1.3381
 6949TIP3   OH242481   3.265   0.298   8.682 -0.2296  0.0932  0.3625
 6949TIP3    H142482   3.172   0.296   8.662  0.2225 -0.9739 -2.0528
 6949TIP3    H242483   3.306   0.331   8.601  1.5153  0.0176  1.1739
 6950TIP3   OH242484   4.139   4.380   2.212 -0.0290  0.1032  0.6935
 6950TIP3    H142485   4.125   4.365   2.306  3.1579  0.7767  1.3754
 6950TIP3    H242486   4.230   4.357   2.197 -0.3527  0.3641 -2.2124
 6951TIP3   OH242487   6.791   3.891   7.753 -0.1857 -0.1494  0.0349
 6951TIP3    H142488   6.764   3.935   7.834  2.8963  0.2166  1.0030
 6951TIP3    H242489   6.777   3.798   7.770 -0.3017 -0.0130  0.7090
 6952TIP3   OH242490   0.437   1.493   0.932  0.3924 -0.1306  0.0106
 6952TIP3    H142491   0.523   1.486   0.975 -0.5940  0.9626  2.3078
 6952TIP3    H242492   0.385   1.424   0.972 -0.3217  0.3857 -0.0223
 6953TIP3   OH242493   2.274   3.127   8.629  0.0843 -0.3853  0.3126
 6953TIP3    H142494   2.353   3.160   8.587  0.3393 -2.0880 -0.6397
 6953TIP3    H242495   2.202   3.159   8.576  0.2483 -0.3747  0.0976
 6954TIP3   OH242496   3.078   4.147   8.323 -0.4640 -0.0593 -0.3637
 6954TIP3    H142497   3.076   4.243   8.315 -0.4584 -0.1110 -0.9979
 6954TIP3    H242498   2.990   4.124   8.352 -0.4474  0.1410 -0.1454
 6955TIP3   OH242499   3.051   1.853   1.469  0.4822  0.6221 -0.1529
 6955TIP3    H142500   3.036   1.772   1.420  2.1817 -0.2186  0.6198
 6955TIP3    H242501   3.016   1.834   1.556 -1.2722  1.6099 -0.6043
 6956TIP3   OH242502   3.051   5.382   0.301 -0.3249  0.1695 -0.0326
 6956TIP3    H142503   3.060   5.396   0.395 -0.8364  0.9358 -0.0872
 6956TIP3    H242504   3.045   5.286   0.292  0.0988  0.0662  0.6702
 6957TIP3   OH242505   3.918   3.498   1.177 -0.1305 -0.4393 -0.1404
 6957TIP3    H142506   3.863   3.577   1.178  1.2293  0.5413 -0.1180
 6957TIP3    H242507   4.006   3.530   1.199  0.7812 -1.6890 -1.7118
 6958TIP3   OH242508   4.595   2.273   8.847 -0.5246 -0.7673 -0.2265
 6958TIP3    H142509   4.629   2.362   8.862  1.1930 -1.2052 -1.2489
 6958TIP3    H242510   4.505   2.276   8.879 -0.3409  1.1976  0.2315
 6959TIP3   OH242511   1.251   5.748   7.890  0.3141  0.2975  0.3335
 6959TIP3    H142512   1.226   5.732   7.799 -0.0525  0.5275  0.3878
 6959TIP3    H242513   1.326   5.807   7.885  0.5841 -0.0595  0.1715
 6960TIP3   OH242514   1.216   1.760   0.715 -0.4605 -0.4251  0.1181
 6960TIP3    H142515   1.227   1.666   0.724  3.0659 -0.0263  1.6209
 6960TIP3    H242516   1.205   1.792   0.804 -0.8140  0.6595 -0.2947
 6961TIP3   OH242517   3.932   3.672   1.655 -1.0884 -0.0076 -0.0080
 6961TIP3    H142518   3.871   3.598   1.656 -0.3130 -0.6776 -0.7251
 6961TIP3    H242519   3.884   3.742   1.611 -1.0311 -0.8287 -1.4348
 6962TIP3   OH242520   3.847   2.891   0.862  0.2159  0.0610  0.2846
 6962TIP3    H142521   3.859   2.843   0.780  2.5517 -2.3093  1.8572
 6962TIP3    H242522   3.921   2.951   0.866 -1.3611  2.1807 -0.5016
 6963TIP3   OH242523   6.333   4.672   8.715  0.2436  0.3482  0.5414
 6963TIP3    H142524   6.407   4.704   8.768  0.9185 -0.9958  0.4332
 6963TIP3    H242525   6.374   4.624   8.643 -0.7330 -0.1815  0.3307
 6964TIP3   OH242526   4.687   4.134   0.041 -0.1984 -0.0335  0.0222
 6964TIP3    H142527   4.609   4.085   0.015  0.2093 -0.2964 -0.7068
 6964TIP3    H242528   4.724   4.166  -0.041  1.0994 -0.8683  0.2590
 6965TIP3   OH242529   2.756   4.559   1.620  0.4531 -0.3696 -0.0167
 6965TIP3    H142530   2.743   4.483   1.676 -0.6812 -1.0382 -1.1423
 6965TIP3    H242531   2.668   4.586   1.596  0.9149 -0.3509 -1.8027
 6966TIP3   OH242532   5.504   6.588   6.968  1.3578  0.6453  0.1060
 6966TIP3    H142533   5.507   6.620   6.877  1.0512 -1.4256 -0.6930
 6966TIP3    H242534   5.575   6.524   6.973 -0.5639 -1.6190  0.2937
 6967TIP3   OH242535   0.189   3.789   0.615 -0.3734  0.1125 -0.0589
 6967TIP3    H142536   0.135   3.713   0.636 -2.3119  1.3113 -0.4383
 6967TIP3    H242537   0.147   3.862   0.661  1.9202  0.8718  1.0107
 6968TIP3   OH242538   3.446   5.387   0.807 -0.2280 -0.3956 -0.3838
 6968TIP3    H142539   3.520   5.377   0.747 -0.1008  0.6080 -0.4140
 6968TIP3    H242540   3.404   5.468   0.779 -0.1693  0.0863  0.8727
 6969TIP3   OH242541   4.829   5.157   2.692 -0.0396  0.6514 -0.3255
 6969TIP3    H142542   4.889   5.083   2.678 -0.1548  0.7917 -1.7100
 6969TIP3    H242543   4.751   5.117   2.732  0.7089  0.3793  0.9304
 6970TIP3   OH242544   5.065   3.973   0.649  0.8746  0.2119  0.2072
 6970TIP3    H142545   5.111   3.987   0.732 -0.9192 -1.2061  1.5299
 6970TIP3    H242546   5.045   3.879   0.648 -0.2543  0.4254 -1.2212
 6971TIP3   OH242547   6.753   0.608   1.207 -0.7954 -0.3125 -0.1231
 6971TIP3    H142548   6.695   0.547   1.160 -1.6137 -0.3520  0.8966
 6971TIP3    H242549   6.694   0.658   1.263  0.2266 -0.9828  1.6478
 6972TIP3   OH242550   3.516   4.833   8.934 -0.0502  0.2804  0.1483
 6972TIP3    H142551   3.572   4.878   8.997  0.0543 -1.0001  1.0035
 6972TIP3    H242552   3.428   4.865   8.954 -0.1547 -0.8255  1.6438
 6973TIP3   OH242553   1.913   2.803   8.245  0.2414 -0.1048  0.4327
 6973TIP3    H142554   1.892   2.896   8.253  2.5766  0.3322  2.7851
 6973TIP3    H242555   1.934   2.791   8.152 -1.9998  1.1885 -0.3159
 6974TIP3   OH242556   4.020   3.590   7.227  0.5632  0.2272 -0.2042
 6974TIP3    H142557   4.074   3.646   7.282  0.0343  0.7006 -0.1672
 6974TIP3    H242558   3.970   3.650   7.172 -1.0263 -0.1474  0.7840
 6975TIP3   OH242559   4.036   3.482   8.209  0.7797 -0.1075  0.3190
 6975TIP3    H142560   3.965   3.493   8.146  1.3151  0.9748 -0.1319
 6975TIP3    H242561   4.064   3.391   8.199  0.4696 -0.1119 -0.5977
 6976TIP3   OH242562   5.773   4.381   8.769  0.7070  0.1339  0.1839
 6976TIP3    H142563   5.816   4.408   8.688 -1.4038 -0.2894 -1.1439
 6976TIP3    H242564   5.709   4.316   8.741  1.0770 -1.3045  2.4403
 6977TIP3   OH242565   6.666   5.579   1.713  0.2135  0.0703  0.2389
 6977TIP3    H142566   6.762   5.575   1.716  0.6093 -1.7990 -4.7919
 6977TIP3    H242567   6.646   5.673   1.706  1.6275  0.5018  1.5296
 6978TIP3   OH242568   4.400   0.072   0.502  0.1190  0.1826 -0.5116
 6978TIP3    H142569   4.345   0.132   0.452 -0.3211  1.0648  0.9551
 6978TIP3    H242570   4.474   0.052   0.445 -2.0112 -1.6058 -2.8592
 6979TIP3   OH242571   5.409   1.110   0.302 -0.3375  0.8261  0.2832
 6979TIP3    H142572   5.337   1.089   0.243  0.9552  1.6265 -1.6826
 6979TIP3    H242573   5.461   1.029   0.307 -1.0087  0.4405  1.1959
 6980TIP3   OH242574   6.572   6.010   1.917 -0.2272 -0.1328 -0.7544
 6980TIP3    H142575   6.607   6.022   1.829  0.5527 -1.9997 -0.7354
 6980TIP3    H242576   6.646   5.976   1.968  0.4678  4.1485  1.6441
 6981TIP3   OH242577   1.904   2.780   1.499  0.6990 -0.1489 -0.3038
 6981TIP3    H142578   1.944   2.866   1.484 -1.7291  0.9688 -0.9030
 6981TIP3    H242579   1.870   2.754   1.413 -1.0116 -0.3847  0.4046
 6982TIP3   OH242580   5.945   3.155   0.494 -0.0527 -0.6380  0.2694
 6982TIP3    H142581   6.007   3.226   0.514  0.2987 -1.2064  1.2468
 6982TIP3    H242582   5.859   3.196   0.502  0.1370  0.4387 -2.1099
 6983TIP3   OH242583   2.107   3.480   7.749 -0.0741 -0.6709  0.3240
 6983TIP3    H142584   2.012   3.487   7.753 -0.0164  1.2464 -0.6785
 6983TIP3    H242585   2.139   3.567   7.773  1.2974 -0.4375 -1.9892
 6984TIP3   OH242586   4.799   1.551   2.311  0.1085 -0.0033  0.4378
 6984TIP3    H142587   4.795   1.628   2.255 -2.7540 -0.6021 -0.3536
 6984TIP3    H242588   4.765   1.580   2.396 -1.8300 -0.4769 -0.1108
 6985TIP3   OH242589   4.456   0.110   0.765  0.4986  0.4493  0.2150
 6985TIP3    H142590   4.378   0.136   0.814  0.9344  1.0227  0.6161
 6985TIP3    H242591   4.429   0.117   0.673  0.3279  1.4827  0.3256
 6986TIP3   OH242592   2.384   4.945   7.637 -0.4500  0.4731 -0.7413
 6986TIP3    H142593   2.476   4.968   7.624 -0.0302 -0.0683  0.9826
 6986TIP3    H242594   2.374   4.860   7.595  0.6698 -0.9035  1.6004
 6987TIP3   OH242595   0.579   4.295   2.102 -0.2343  0.2670 -0.2160
 6987TIP3    H142596   0.670   4.317   2.119  0.0646 -0.5448 -0.7203
 6987TIP3    H242597   0.540   4.284   2.189  0.5552 -0.9687  0.0012
 6988TIP3   OH242598   5.013   0.698   7.395 -0.4079 -0.6907  0.4042
 6988TIP3    H142599   4.996   0.780   7.348  0.1539 -0.6567  0.2434
 6988TIP3    H242600   4.963   0.706   7.476  0.3869  0.2454  0.8386
 6989TIP3   OH242601   1.359   2.245   7.665 -0.5843  0.2191 -0.1815
 6989TIP3    H142602   1.311   2.167   7.636 -1.1862  0.6946 -0.4812
 6989TIP3    H242603   1.373   2.230   7.759 -1.8336  0.3139  0.0465
 6990TIP3   OH242604   0.784   4.494   8.217  0.6325  0.2110  0.2048
 6990TIP3    H142605   0.763   4.421   8.275  1.1765  0.0142  0.1692
 6990TIP3    H242606   0.717   4.559   8.234 -1.8358 -1.5160 -2.0461
 6991TIP3   OH242607   3.876   3.508   0.773  0.0237 -0.1718 -0.8613
 6991TIP3    H142608   3.958   3.533   0.816 -1.3828  0.5410  1.5722
 6991TIP3    H242609   3.900   3.433   0.719  2.2836  0.0597 -0.2994
 6992TIP3   OH242610   0.832   6.087   8.687 -0.2662 -0.3814 -0.4073
 6992TIP3    H142611   0.822   6.148   8.761  1.3277  2.0624 -2.0558
 6992TIP3    H242612   0.744   6.080   8.651 -0.3946  1.6176 -0.6101
 6993TIP3   OH242613   2.711   0.175   1.833 -0.1479  0.8685 -0.0860
 6993TIP3    H142614   2.737   0.134   1.915  0.5585  1.4331 -0.0212
 6993TIP3    H242615   2.616   0.165   1.830  0.0175 -1.0238 -0.2249
 6994TIP3   OH242616   2.801   2.813   0.505 -0.3236  0.9379  0.6048
 6994TIP3    H142617   2.849   2.737   0.471  1.0008  2.1430 -0.3387
 6994TIP3    H242618   2.710   2.796   0.481  0.1228  0.2001 -0.6670
 6995TIP3   OH242619   0.024   0.907   8.556 -0.0062  0.0180  0.5286
 6995TIP3    H142620   0.015   0.954   8.639  0.7244  0.8945  0.1364
 6995TIP3    H242621  -0.024   0.960   8.493  0.6532  0.1451  0.1193
 6996TIP3   OH242622   0.711   1.393   1.033  0.2510 -0.1532  0.0513
 6996TIP3    H142623   0.708   1.312   1.084  0.6360 -0.4331 -0.3629
 6996TIP3    H242624   0.722   1.462   1.098  0.3160 -0.4707  0.3795
 6997TIP3   OH242625   1.622   3.383   2.158  0.1156  0.7030  0.2193
 6997TIP3    H142626   1.527   3.377   2.163  0.0508  1.2065 -0.2261
 6997TIP3    H242627   1.642   3.371   2.065  0.5506 -0.1486  0.4182
 6998TIP3   OH242628   2.461   5.890   2.086 -0.0681 -0.4332  0.3966
 6998TIP3    H142629   2.458   5.906   2.180 -1.9607 -0.7646  0.4369
 6998TIP3    H242630   2.507   5.966   2.050 -0.5848  0.4046  1.4613
 6999TIP3   OH242631   4.658   6.453   0.195 -0.1056  0.2566  0.2754
 6999TIP3    H142632   4.678   6.360   0.206  0.1538  0.1924 -0.6831
 6999TIP3    H242633   4.735   6.490   0.151 -1.2324  0.3905 -1.7122
 7000TIP3   OH242634   3.080   3.890   8.230 -0.2586 -0.1337  0.2345
 7000TIP3    H142635   3.091   3.841   8.312  2.0686 -0.5356 -0.2458
 7000TIP3    H242636   3.085   3.982   8.257  2.1177 -0.2634  0.4365
 7001TIP3   OH242637   4.370   2.160   1.083 -0.2823  0.2949 -0.0618
 7001TIP3    H142638   4.359   2.248   1.046  0.4344  0.3598 -0.1254
 7001TIP3    H242639   4.288   2.115   1.062 -0.7713  1.0281  0.2073
 7002TIP3   OH242640   3.176   1.397   0.570 -0.1126 -0.5622  0.4837
 7002TIP3    H142641   3.176   1.306   0.540  0.4382 -0.5787  0.5300
 7002TIP3    H242642   3.083   1.421   0.573 -0.1947 -0.5198 -1.3731
 7003TIP3   OH242643   2.223   0.657   1.952  0.5020  0.7338  0.0655
 7003TIP3    H142644   2.132   0.687   1.950  0.7501  1.5474  0.5317
 7003TIP3    H242645   2.275   0.737   1.948  1.1878  0.3476  0.9667
 7004TIP3   OH242646   3.657   5.621   2.022  0.4245  1.0351  0.3895
 7004TIP3    H142647   3.577   5.641   1.973  0.4072  1.7461  0.7050
 7004TIP3    H242648   3.628   5.609   2.112  0.2121 -1.8898  0.0325
 7005TIP3   OH242649   3.399   2.285   1.561 -0.1994  0.4189  0.2452
 7005TIP3    H142650   3.481   2.335   1.555  1.5080 -2.1701  0.4810
 7005TIP3    H242651   3.349   2.329   1.629  0.8022  2.2970 -0.1517
 7006TIP3   OH242652   6.577   1.720   2.184 -0.0182 -0.7378  0.1997
 7006TIP3    H142653   6.651   1.732   2.126  1.0690 -0.0136  1.6667
 7006TIP3    H242654   6.616   1.690   2.267 -1.4197 -0.9411  0.8259
 7007TIP3   OH242655   5.615   0.612   1.346 -0.1424 -0.3973  0.5257
 7007TIP3    H142656   5.668   0.545   1.391 -1.6769 -1.1119  1.3627
 7007TIP3    H242657   5.594   0.573   1.262  2.1597  0.6621 -0.6362
 7008TIP3   OH242658   0.322   3.149   8.086  0.1184  0.2109  0.3027
 7008TIP3    H142659   0.285   3.092   8.152 -0.4756 -2.5141 -2.1773
 7008TIP3    H242660   0.417   3.143   8.098  0.0214  1.4439  2.1124
 7009TIP3   OH242661   4.886   2.279   1.108 -0.3825  0.1024 -0.0825
 7009TIP3    H142662   4.808   2.327   1.136  0.2921  1.3490 -0.2701
 7009TIP3    H242663   4.871   2.261   1.015 -1.2277 -1.2794  0.2850
 7010TIP3   OH242664   2.512   5.631   1.290 -0.3195 -0.2158 -0.3554
 7010TIP3    H142665   2.568   5.587   1.225  1.4319  0.1869  0.7988
 7010TIP3    H242666   2.545   5.721   1.293 -0.8754 -0.0290  0.5201
 7011TIP3   OH242667   2.373   1.081   7.488 -1.0599  0.2163 -0.0596
 7011TIP3    H142668   2.434   1.036   7.546 -1.7957  0.5943  1.0295
 7011TIP3    H242669   2.425   1.151   7.449  0.1624 -1.6026 -1.9402
 7012TIP3   OH242670   1.711   3.289   8.802  0.2275  0.1305  0.6452
 7012TIP3    H142671   1.676   3.202   8.823  0.4138 -0.1913 -0.2981
 7012TIP3    H242672   1.798   3.290   8.842  0.0609  0.0435  1.0148
 7013TIP3   OH242673   4.392   4.084   8.925  0.3361 -0.1319  0.2138
 7013TIP3    H142674   4.346   4.101   8.843  0.9157 -1.3671 -0.3950
 7013TIP3    H242675   4.421   4.170   8.955 -2.3556  0.7369  0.6589
 7014TIP3   OH242676   5.426   5.772   8.677  0.1731  0.3971  0.3789
 7014TIP3    H142677   5.479   5.774   8.757 -0.4239  0.8908  0.7753
 7014TIP3    H242678   5.481   5.727   8.613  0.7536  0.1961  1.0007
 7015TIP3   OH242679   6.773   5.421   2.034 -0.0947  0.0738 -0.8693
 7015TIP3    H142680   6.766   5.514   2.055 -0.2120 -0.2502  0.6314
 7015TIP3    H242681   6.836   5.386   2.096 -0.5016 -0.9682 -1.0103
 7016TIP3   OH242682   2.379   4.840   8.618  0.8495  1.0935  0.0745
 7016TIP3    H142683   2.431   4.916   8.592  1.3016  0.7257 -0.1105
 7016TIP3    H242684   2.401   4.826   8.710 -0.0016  1.7942  0.4017
 7017TIP3   OH242685   2.635   0.400   8.542 -0.3376 -0.1567 -0.1985
 7017TIP3    H142686   2.617   0.306   8.536  1.5659 -0.6836  1.3576
 7017TIP3    H242687   2.679   0.421   8.460  0.3122 -0.9025 -0.0529
 7018TIP3   OH242688   1.276   3.421   1.658 -0.3813  0.9541 -0.6288
 7018TIP3    H142689   1.282   3.443   1.751 -1.7541  1.5742 -0.6696
 7018TIP3    H242690   1.257   3.327   1.657  0.6886  0.7202 -0.3304
 7019TIP3   OH242691   1.924   4.476   2.347 -0.3084  0.4130  0.3711
 7019TIP3    H142692   1.874   4.397   2.366  0.6172 -0.0526  0.9344
 7019TIP3    H242693   1.888   4.543   2.405  0.1233 -0.0799  1.2209
 7020TIP3   OH242694   3.382   5.473   6.799  0.3724  0.0333 -0.3920
 7020TIP3    H142695   3.309   5.424   6.838  0.7099 -0.5326 -0.4553
 7020TIP3    H242696   3.365   5.472   6.705  0.5342 -0.2301 -0.4208
 7021TIP3   OH242697   0.445   2.952   7.671 -0.0403 -0.0476 -0.0458
 7021TIP3    H142698   0.374   3.002   7.632  0.4204  0.6232 -0.0445
 7021TIP3    H242699   0.425   2.952   7.765 -1.0544 -1.5125 -0.2348
 7022TIP3   OH242700   1.148   0.708   0.031  0.0556 -0.6870  0.6232
 7022TIP3    H142701   1.128   0.618   0.005 -0.9258 -0.3678  0.2440
 7022TIP3    H242702   1.081   0.729   0.097  0.1086 -0.1410  0.5054
 7023TIP3   OH242703   3.320   4.958   0.136  0.2011 -0.4642 -0.6039
 7023TIP3    H142704   3.232   4.927   0.154  0.1441 -0.2820 -0.5746
 7023TIP3    H242705   3.351   4.996   0.219  0.7907 -1.6959 -0.2349
 7024TIP3   OH242706   4.248   2.518   6.851 -0.3263  0.2809 -0.6152
 7024TIP3    H142707   4.264   2.425   6.867 -2.0232  0.1411  0.4269
 7024TIP3    H242708   4.230   2.524   6.757  0.8731 -0.2477 -0.9012
 7025TIP3   OH242709   0.665   1.348   7.319  0.1339  0.0096 -0.1903
 7025TIP3    H142710   0.662   1.255   7.297 -1.0284 -0.2302  0.8594
 7025TIP3    H242711   0.688   1.391   7.236 -2.2734 -0.9711 -1.4773
 7026TIP3   OH242712   3.869   0.272   8.106  0.1766  0.6242  0.4228
 7026TIP3    H142713   3.895   0.345   8.050  0.2303 -0.9202 -1.6483
 7026TIP3    H242714   3.774   0.274   8.106  0.1768  0.5741  0.2404
 7027TIP3   OH242715   5.537   2.492   8.646 -0.0163  0.4608  0.1821
 7027TIP3    H142716   5.619   2.470   8.692 -0.2465 -1.9064 -0.3994
 7027TIP3    H242717   5.547   2.584   8.622  1.7819  0.6752  1.5381
 7028TIP3   OH242718   0.543   6.635   1.450  0.2388  0.9127  0.2762
 7028TIP3    H142719   0.630   6.646   1.488  0.7038 -1.7185  0.1716
 7028TIP3    H242720   0.493   6.589   1.518 -1.4016  3.1434  0.6829
 7029TIP3   OH242721   5.216   6.446   1.859 -0.1985 -0.0413  0.6139
 7029TIP3    H142722   5.284   6.395   1.903  1.3680  0.2821 -1.2875
 7029TIP3    H242723   5.229   6.535   1.890  0.3231  0.0329  0.1968
 7030TIP3   OH242724   1.528   2.324   8.491  0.3457  0.6617  0.0811
 7030TIP3    H142725   1.505   2.417   8.483 -1.5041  0.3180  0.8899
 7030TIP3    H242726   1.454   2.277   8.451  0.7911 -0.4771  0.5482
 7031TIP3   OH242727   0.631   5.241   1.531 -0.4039  0.3944 -0.0578
 7031TIP3    H142728   0.726   5.239   1.522 -0.4029 -1.3819 -0.0487
 7031TIP3    H242729   0.615   5.255   1.624 -0.0651 -1.8161  0.3935
 7032TIP3   OH242730   6.284   2.419   1.855 -0.0412  0.0166 -0.0607
 7032TIP3    H142731   6.243   2.387   1.775  0.9081 -2.8992  0.5006
 7032TIP3    H242732   6.377   2.417   1.837  0.1998 -0.8899  1.1148
 7033TIP3   OH242733   1.062   3.208   7.568  0.1197 -0.7574 -0.0054
 7033TIP3    H142734   1.002   3.230   7.639  1.3934  0.1228  0.8573
 7033TIP3    H242735   1.082   3.115   7.580 -1.5329 -1.2421 -0.7101
 7034TIP3   OH242736   2.066   1.758   1.079 -0.5680 -0.1037  0.5647
 7034TIP3    H142737   2.137   1.821   1.094 -0.1271 -0.2448 -0.8108
 7034TIP3    H242738   2.030   1.742   1.166  0.8378  0.2578  1.2426
 7035TIP3   OH242739   5.766   6.626   1.922 -0.3283  0.4590 -0.5300
 7035TIP3    H142740   5.701   6.689   1.891 -0.1683  0.4311 -0.9365
 7035TIP3    H242741   5.806   6.592   1.842 -2.7825 -2.7708 -0.5944
 7036TIP3   OH242742   2.074   5.500   1.433 -0.0453  0.4037 -0.2294
 7036TIP3    H142743   2.113   5.586   1.415  0.9295 -0.2430 -1.3784
 7036TIP3    H242744   2.059   5.500   1.528  0.4717  1.6167 -0.1267
 7037TIP3   OH242745   3.983   2.376   1.390  0.0008  0.5157  0.3698
 7037TIP3    H142746   4.012   2.285   1.385 -1.9478 -0.0911 -1.1240
 7037TIP3    H242747   4.007   2.403   1.478  2.7290 -0.6598  0.0867
 7038TIP3   OH242748   3.860   5.873   0.994 -0.2487  0.2426  0.1186
 7038TIP3    H142749   3.935   5.828   0.958  0.4692  1.0038  0.6172
 7038TIP3    H242750   3.787   5.812   0.984  0.9468 -1.6390  2.0754
 7039TIP3   OH242751   1.622   5.018   0.691 -0.0017 -0.4908  0.8641
 7039TIP3    H142752   1.639   5.113   0.695  0.1814 -0.4719 -0.1178
 7039TIP3    H242753   1.576   5.006   0.608  1.5327 -1.4856  0.1172
 7040TIP3   OH242754   2.207   6.312   2.069 -1.2739  0.6554 -0.1500
 7040TIP3    H142755   2.153   6.292   1.993  0.3952  1.1369 -1.5090
 7040TIP3    H242756   2.245   6.398   2.050  1.6740 -0.5577 -0.2930
 7041TIP3   OH242757   2.144   1.708   0.689  0.2320 -0.5006  0.0334
 7041TIP3    H142758   2.133   1.656   0.768 -2.5544 -1.3530 -0.8039
 7041TIP3    H242759   2.072   1.770   0.691 -1.0621 -1.7399 -2.6276
 7042TIP3   OH242760   2.412   4.553   2.100  0.6225 -0.2071  0.5908
 7042TIP3    H142761   2.435   4.575   2.009 -0.5288  0.7364  0.5043
 7042TIP3    H242762   2.331   4.503   2.092 -0.2475  1.0604  1.1458
 7043TIP3   OH242763   4.716   2.198   7.954  0.1724 -0.4571 -0.0438
 7043TIP3    H142764   4.783   2.170   8.017  0.2334 -1.3861 -0.5018
 7043TIP3    H242765   4.659   2.256   8.004 -0.4009 -2.0040  1.2063
 7044TIP3   OH242766   4.203   5.396   8.923  1.2791  0.0932 -0.2241
 7044TIP3    H142767   4.212   5.342   8.845 -1.4904  0.3717 -0.8141
 7044TIP3    H242768   4.228   5.484   8.895  1.0352  0.0475 -0.5856
 7045TIP3   OH242769   5.912   0.224   7.041 -0.5011  0.4167 -0.1973
 7045TIP3    H142770   5.867   0.274   6.973 -0.3100  1.8035  0.6542
 7045TIP3    H242771   5.896   0.273   7.122  1.9063  0.5611  0.2555
 7046TIP3   OH242772   0.340   0.671   0.572  0.3661 -0.2683  0.0722
 7046TIP3    H142773   0.396   0.712   0.638  1.6448 -0.7384 -0.6800
 7046TIP3    H242774   0.398   0.658   0.497 -0.9502 -0.1228 -1.0008
 7047TIP3   OH242775   3.580   0.551   7.567  0.2531 -0.1208 -0.1198
 7047TIP3    H142776   3.672   0.575   7.563 -0.0592  0.9812 -1.6422
 7047TIP3    H242777   3.534   0.623   7.523 -1.2512 -1.0306 -0.1295
 7048TIP3   OH242778   2.548   6.655   2.244  0.0625 -0.6619  0.2828
 7048TIP3    H142779   2.569   6.563   2.262  0.5477 -0.5358  0.3532
 7048TIP3    H242780   2.578   6.702   2.322  2.4611 -0.0570 -0.9317
 7049TIP3   OH242781   2.680   6.479   0.504  0.0606  1.0682  0.0075
 7049TIP3    H142782   2.753   6.539   0.521 -0.7661  1.7600  1.2136
 7049TIP3    H242783   2.648   6.505   0.417  1.0927  0.9073 -0.4365
 7050TIP3   OH242784   5.202   2.957   0.040  0.1258 -0.0949  0.5794
 7050TIP3    H142785   5.114   2.987   0.015 -0.0568 -1.4653 -0.5400
 7050TIP3    H242786   5.212   2.986   0.130 -0.9555  1.2197  0.3205
 7051TIP3   OH242787   5.333   2.458   2.221 -0.1480 -0.3636  0.4298
 7051TIP3    H142788   5.273   2.408   2.166  1.4127 -0.8102 -0.9867
 7051TIP3    H242789   5.332   2.547   2.184  2.1004 -1.0392 -1.4847
 7052TIP3   OH242790   0.599   1.379   1.466  0.4438  0.2489  0.4785
 7052TIP3    H142791   0.507   1.355   1.456  0.5127  0.5747 -1.3729
 7052TIP3    H242792   0.604   1.420   1.552 -0.8996 -0.7724  1.0915
 7053TIP3   OH242793   4.626   3.152   8.355  0.6795 -0.7877 -0.2841
 7053TIP3    H142794   4.633   3.109   8.440  1.2269  0.7838  0.4911
 7053TIP3    H242795   4.715   3.180   8.334  0.2050  0.7741 -0.3152
 7054TIP3   OH242796   1.065   5.954   7.183 -0.1118  0.0076  0.5747
 7054TIP3    H142797   1.142   5.960   7.240  0.1182  3.8005  0.1081
 7054TIP3    H242798   1.082   5.876   7.129  2.0033 -0.8920  2.3839
 7055TIP3   OH242799   1.459   3.762   1.327 -0.0745 -0.7683  0.1810
 7055TIP3    H142800   1.390   3.704   1.295  1.5868 -1.8420 -1.6449
 7055TIP3    H242801   1.462   3.747   1.422 -1.7373 -1.3263  0.1693
 7056TIP3   OH242802   2.542   2.114   8.220  0.3326 -0.2190 -0.1416
 7056TIP3    H142803   2.564   2.200   8.185 -0.2764 -0.5029 -1.2375
 7056TIP3    H242804   2.458   2.126   8.265  1.5195  0.3470  2.0869
 7057TIP3   OH242805   6.510   6.053   0.985 -0.3746  0.1380  0.1622
 7057TIP3    H142806   6.443   6.116   0.960 -0.1092 -0.0500 -1.1165
 7057TIP3    H242807   6.593   6.099   0.974 -0.0183 -0.9659 -2.9232
 7058TIP3   OH242808   2.287   2.881   1.089  0.4322 -0.7286 -0.0333
 7058TIP3    H142809   2.231   2.818   1.043  0.5330 -1.3208  0.6251
 7058TIP3    H242810   2.331   2.828   1.156 -0.5421  0.2811  1.4750
 7059TIP3   OH242811   1.489   4.485   0.133 -0.1260 -0.3490  0.1008
 7059TIP3    H142812   1.495   4.498   0.038  0.6860  1.6585  0.3711
 7059TIP3    H242813   1.395   4.485   0.152 -0.2702  0.9263 -0.5320
 7060TIP3   OH242814   4.236   1.998   0.142  0.2957 -0.3844 -0.2182
 7060TIP3    H142815   4.305   1.987   0.076 -1.0017  3.5314 -2.5356
 7060TIP3    H242816   4.155   2.005   0.091 -0.8603  2.1515  1.7678
 7061TIP3   OH242817   0.245   5.726   1.550  0.2341 -0.1504 -0.0795
 7061TIP3    H142818   0.193   5.745   1.472  0.7530 -0.8664 -0.6090
 7061TIP3    H242819   0.311   5.664   1.521  0.4094 -0.4669  0.9442
 7062TIP3   OH242820   2.796   3.968   1.289  0.2353 -0.3976 -0.5154
 7062TIP3    H142821   2.884   3.953   1.255  0.9974 -0.5731  1.4502
 7062TIP3    H242822   2.766   4.047   1.243  1.9950  0.5301 -0.1510
 7063TIP3   OH242823   6.416   4.972   0.557 -0.4196 -0.4137 -0.0224
 7063TIP3    H142824   6.374   4.892   0.528 -0.0986 -1.3127  1.8496
 7063TIP3    H242825   6.439   5.018   0.476  0.5134 -2.7834 -1.1816
 7064TIP3   OH242826   1.593   5.013   8.874 -0.0747  0.1932  0.3698
 7064TIP3    H142827   1.657   4.960   8.922  0.0262  0.3343  0.3913
 7064TIP3    H242828   1.509   4.991   8.915 -0.0995 -0.3120  0.0621
 7065TIP3   OH242829   3.011   0.012   0.699 -0.2956 -0.4505 -0.2779
 7065TIP3    H142830   2.999   0.096   0.744 -1.3404  0.7526 -2.6329
 7065TIP3    H242831   2.922  -0.023   0.689  0.0866 -1.6208  0.1860
 7066TIP3   OH242832   6.509   0.514   1.374 -0.3748 -0.7278  0.3069
 7066TIP3    H142833   6.419   0.505   1.343 -0.4712 -1.6799  0.8258
 7066TIP3    H242834   6.546   0.426   1.366  0.4663 -0.3684  0.2208
 7067TIP3   OH242835   0.427   2.456   7.281  0.5420 -0.1638  0.4545
 7067TIP3    H142836   0.406   2.502   7.200  0.0116 -1.0722  0.0688
 7067TIP3    H242837   0.523   2.450   7.281  0.5110 -0.7530 -0.4462
 7068TIP3   OH242838   2.271   6.716   1.445 -0.0558 -0.4808 -0.2140
 7068TIP3    H142839   2.225   6.683   1.522 -0.3862 -0.3974 -0.3778
 7068TIP3    H242840   2.212   6.781   1.407 -0.4632 -1.4470 -1.2788
 7069TIP3   OH242841   5.593   4.772   0.058  0.4837  0.7445  1.0425
 7069TIP3    H142842   5.626   4.683   0.044  0.2676  0.7575  0.4098
 7069TIP3    H242843   5.501   4.760   0.083  0.4221  0.7972  0.8399
 7070TIP3   OH242844   3.225   0.656   2.006  0.7745 -0.0327  0.2023
 7070TIP3    H142845   3.299   0.671   2.064  0.9443  1.1734 -0.2873
 7070TIP3    H242846   3.224   0.561   1.992  2.0745 -0.0964  0.4128
 7071TIP3   OH242847   5.425   0.722   2.406  0.3079  0.4994  0.2962
 7071TIP3    H142848   5.413   0.646   2.349  1.4031 -0.1925  0.9477
 7071TIP3    H242849   5.513   0.710   2.444  0.7758  2.4152 -0.0687
 7072TIP3   OH242850   4.452   3.106   2.330 -0.4936  0.2819 -0.0420
 7072TIP3    H142851   4.461   3.172   2.261 -1.5633  1.2492  0.6940
 7072TIP3    H242852   4.466   3.023   2.286 -1.1212  0.8768 -1.4300
 7073TIP3   OH242853   5.097   1.144   8.372  0.2543 -1.0268  0.1541
 7073TIP3    H142854   5.116   1.205   8.301 -0.0268 -0.3916  0.6143
 7073TIP3    H242855   5.075   1.062   8.328 -0.0101 -0.6175 -0.4955
 7074TIP3   OH242856   2.201   6.066   7.450  0.8681  0.3874 -0.4803
 7074TIP3    H142857   2.246   6.135   7.401 -0.4783  1.1303 -0.7159
 7074TIP3    H242858   2.136   6.032   7.389 -2.4836  2.9095  1.3472
 7075TIP3   OH242859   4.594   4.935   2.258  0.1426  0.7305 -0.2889
 7075TIP3    H142860   4.629   5.023   2.245 -0.5380  0.9307 -0.7955
 7075TIP3    H242861   4.627   4.909   2.344 -1.6539  2.4367  0.9923
 7076TIP3   OH242862   0.284   4.409   1.870 -0.0457  0.2887 -0.2478
 7076TIP3    H142863   0.247   4.389   1.783  0.1246  1.3443 -0.5820
 7076TIP3    H242864   0.211   4.448   1.918  0.5519  2.2409 -0.8582
 7077TIP3   OH242865   1.767   4.355   1.511  0.3869 -0.2543  0.0655
 7077TIP3    H142866   1.807   4.272   1.538 -0.7767 -0.6165  0.7231
 7077TIP3    H242867   1.736   4.338   1.422 -0.5379 -0.7881  0.4765
 7078TIP3   OH242868   2.629   5.006   0.913 -0.0343  0.3685 -0.0856
 7078TIP3    H142869   2.659   4.922   0.880  0.7578  0.7897 -0.4772
 7078TIP3    H242870   2.553   5.027   0.860 -0.9947 -0.6630  0.8396
 7079TIP3   OH242871   4.576   2.758   7.389 -0.4562  0.1185  1.0334
 7079TIP3    H142872   4.589   2.745   7.295 -2.8764  0.9093  0.5038
 7079TIP3    H242873   4.590   2.671   7.427 -0.6393 -0.5006 -0.2504
 7080TIP3   OH242874   3.076   4.557   6.751  0.0177  0.3050 -0.6120
 7080TIP3    H142875   3.028   4.613   6.691 -0.9972  0.9747  0.7553
 7080TIP3    H242876   3.054   4.591   6.838  1.8695 -0.2455  0.1380
 7081TIP3   OH242877   5.372   6.435   8.071 -0.3073 -0.2230  0.0470
 7081TIP3    H142878   5.402   6.389   7.992  0.7725 -2.0078  1.4117
 7081TIP3    H242879   5.313   6.504   8.038  0.0409 -0.9493 -2.2841
 7082TIP3   OH242880   2.968   5.844   8.791  1.0437  0.0504 -0.2549
 7082TIP3    H142881   2.904   5.774   8.781  1.1215 -0.0415 -0.1179
 7082TIP3    H242882   2.953   5.877   8.880  1.2666 -0.0544 -0.1768
 7083TIP3   OH242883   6.643   4.295   2.212 -0.3918 -0.8044  0.2818
 7083TIP3    H142884   6.574   4.316   2.149  0.4982 -0.8608 -0.7493
 7083TIP3    H242885   6.669   4.379   2.249  0.2122 -0.5549 -0.6691
 7084TIP3   OH242886   3.125   3.753   0.582 -0.1424 -0.2654 -0.0403
 7084TIP3    H142887   3.103   3.776   0.672 -0.2607 -0.4867 -0.0125
 7084TIP3    H242888   3.209   3.797   0.566 -0.6065  0.6130 -0.1613
 7085TIP3   OH242889   5.883   0.945   8.150  0.3309  0.1068 -0.3319
 7085TIP3    H142890   5.846   0.857   8.152  2.5724 -0.8929  0.6363
 7085TIP3    H242891   5.817   1.000   8.192 -0.0070 -1.6097  1.5362
 7086TIP3   OH242892   4.676   4.418   8.394  0.2278  0.2629  0.3412
 7086TIP3    H142893   4.612   4.431   8.464 -0.8919  0.3785 -0.6793
 7086TIP3    H242894   4.706   4.506   8.372 -1.3858  0.5042 -1.0877
 7087TIP3   OH242895   1.036   5.187   1.220 -0.4216  0.6326  0.2450
 7087TIP3    H142896   1.021   5.113   1.279  0.8778  1.0710  1.1800
 7087TIP3    H242897   1.050   5.262   1.279 -2.4670  1.8221 -0.6704
 7088TIP3   OH242898   6.749   0.286   8.000  0.8596 -0.0596 -0.3010
 7088TIP3    H142899   6.677   0.328   8.047  1.3137  2.2218 -1.5406
 7088TIP3    H242900   6.707   0.247   7.923  0.4906 -1.7714  0.6927
 7089TIP3   OH242901   3.647   5.714   1.004 -0.5688 -0.0624  0.2746
 7089TIP3    H142902   3.599   5.643   1.047  0.8414 -2.3584 -1.6330
 7089TIP3    H242903   3.599   5.729   0.922 -0.2443  0.4148  0.1662
 7090TIP3   OH242904   1.214   5.000   8.550  0.2727  0.1586  0.4995
 7090TIP3    H142905   1.261   4.917   8.551  0.4331  0.1355 -1.9502
 7090TIP3    H242906   1.144   4.990   8.615  0.7083 -1.6201  0.7388
 7091TIP3   OH242907   5.754   4.709   2.223 -0.5831 -0.1802 -0.6207
 7091TIP3    H142908   5.686   4.739   2.284 -1.1597  0.4780 -1.5461
 7091TIP3    H242909   5.737   4.616   2.211 -1.0789 -0.1042 -0.5267
 7092TIP3   OH242910   4.352   5.330   0.240  0.0887 -0.0937  0.3423
 7092TIP3    H142911   4.257   5.331   0.251  0.1557  2.3106  1.3257
 7092TIP3    H242912   4.367   5.347   0.147 -0.4300 -0.1710  0.2458
 7093TIP3   OH242913   2.643   2.607   1.434 -0.7631  0.0047 -0.4358
 7093TIP3    H142914   2.548   2.596   1.425 -0.7997 -0.0676  0.0364
 7093TIP3    H242915   2.679   2.525   1.402 -1.0850 -2.3783  4.4245
 7094TIP3   OH242916   3.507   1.604   2.101  0.0672 -0.4459  0.2224
 7094TIP3    H142917   3.593   1.645   2.101  0.7712 -1.8327 -0.5803
 7094TIP3    H242918   3.521   1.519   2.058 -2.0261  0.0208 -1.5778
 7095TIP3   OH242919   1.721   1.954   8.726 -0.1077 -0.7413 -0.0727
 7095TIP3    H142920   1.632   1.929   8.703 -0.4658 -0.9231  1.3928
 7095TIP3    H242921   1.750   1.885   8.786 -0.8350  1.7622  3.4600
 7096TIP3   OH242922   4.624   1.899   1.318  0.9570 -0.3487 -0.5570
 7096TIP3    H142923   4.692   1.832   1.315  0.1905 -1.1375 -0.9137
 7096TIP3    H242924   4.572   1.884   1.239  0.8184  0.7235 -0.6791
 7097TIP3   OH242925   4.628   6.011   8.483  0.3284  0.0916 -0.4011
 7097TIP3    H142926   4.656   6.034   8.572  1.8349  0.8350 -1.0307
 7097TIP3    H242927   4.651   6.087   8.430 -2.5473  0.5909 -1.1255
 7098TIP3   OH242928   6.627   3.247   0.201 -0.0778 -0.7124  0.5737
 7098TIP3    H142929   6.680   3.225   0.277 -0.0048  0.1425  0.7835
 7098TIP3    H242930   6.543   3.203   0.217 -0.6914  0.8499  2.0369
 7099TIP3   OH242931   2.680   0.013   0.580 -0.2939 -0.2570  0.0459
 7099TIP3    H142932   2.670  -0.074   0.543 -2.0662 -0.1258  0.1182
 7099TIP3    H242933   2.746   0.056   0.526 -0.0691 -1.3340 -0.5447
 7100TIP3   OH242934   1.108   1.732   2.325  0.3613  0.4226  0.0571
 7100TIP3    H142935   1.038   1.774   2.374  0.5952 -1.5728  2.3287
 7100TIP3    H242936   1.188   1.772   2.358  0.4721 -0.1921  0.5461
 7101TIP3   OH242937   6.269   6.135   1.584 -0.7909 -0.2241  0.6925
 7101TIP3    H142938   6.265   6.165   1.493 -1.6768 -0.3156  0.6908
 7101TIP3    H242939   6.359   6.106   1.596 -0.2941  1.0349  0.2455
 7102TIP3   OH242940   2.068   6.279   1.839 -0.2726  0.0693  0.2936
 7102TIP3    H142941   1.979   6.246   1.851 -1.0713  1.0468 -2.2661
 7102TIP3    H242942   2.056   6.372   1.822  1.4449  0.5960  1.6814
 7103TIP3   OH242943   0.028   6.021   7.562  0.1520 -0.2207 -0.3930
 7103TIP3    H142944   0.016   6.023   7.657 -0.6051 -2.1250 -0.4020
 7103TIP3    H242945   0.102   6.079   7.545 -1.0737  1.9160  1.1048
 7104TIP3   OH242946   5.799   4.887   0.233  0.1814 -0.5162  0.0029
 7104TIP3    H142947   5.859   4.952   0.268 -0.0448  0.1565 -0.8118
 7104TIP3    H242948   5.730   4.938   0.191 -0.9602 -1.2712  0.9027
 7105TIP3   OH242949   2.762   5.660   0.370  0.1535 -0.2301 -0.0477
 7105TIP3    H142950   2.741   5.576   0.330 -0.1402  0.4637 -1.3987
 7105TIP3    H242951   2.838   5.691   0.322 -0.3133  0.7054 -0.2084
 7106TIP3   OH242952   0.568   2.851   8.033  0.2372  0.2781 -0.6299
 7106TIP3    H142953   0.525   2.878   8.115  0.7624 -2.2804  0.5804
 7106TIP3    H242954   0.498   2.812   7.981  0.3969 -0.6880 -0.1480
 7107TIP3   OH242955   1.571   2.864   0.371  0.2475  0.7975 -0.0815
 7107TIP3    H142956   1.518   2.941   0.393 -1.3967 -0.0800 -0.7579
 7107TIP3    H242957   1.571   2.861   0.276 -2.1751 -1.5485 -0.1346
 7108TIP3   OH242958   3.243   4.505   0.190 -0.7670  0.2073 -0.2420
 7108TIP3    H142959   3.230   4.555   0.109  0.1981 -0.9367 -1.1495
 7108TIP3    H242960   3.252   4.414   0.160 -0.2668 -0.2226  1.1449
 7109TIP3   OH242961   2.176   5.446   0.723  0.1007  0.6685  0.0624
 7109TIP3    H142962   2.134   5.361   0.738 -0.8421  1.1045 -0.0338
 7109TIP3    H242963   2.103   5.507   0.712  0.6622  2.0178  2.8089
 7110TIP3   OH242964   5.377   2.619   8.141 -0.0898  0.5072  0.1928
 7110TIP3    H142965   5.402   2.578   8.224 -0.6690  0.7991  0.5127
 7110TIP3    H242966   5.388   2.549   8.076  0.7059  0.3753  0.4509
 7111TIP3   OH242967   3.550   0.104   0.875  0.4028  0.2474  0.2892
 7111TIP3    H142968   3.457   0.095   0.855 -0.3151  0.7971  3.0007
 7111TIP3    H242969   3.593   0.106   0.789 -2.1831  1.2655 -1.0954
 7112TIP3   OH242970   2.149   6.058   1.729  0.3963 -0.3432 -0.1704
 7112TIP3    H142971   2.116   6.144   1.753 -0.7066 -0.4874 -1.1128
 7112TIP3    H242972   2.129   6.003   1.805 -0.5437 -0.1717 -0.2805
 7113TIP3   OH242973   4.802   1.400   0.988  0.2849  0.0043  0.0123
 7113TIP3    H142974   4.817   1.491   1.012  1.1775 -0.2375  0.4055
 7113TIP3    H242975   4.793   1.401   0.893  1.1120  0.4029 -0.0715
 7114TIP3   OH242976   6.195   4.030   8.095 -0.0430 -0.2865 -0.0240
 7114TIP3    H142977   6.100   4.025   8.085  0.0453 -1.1594 -0.4298
 7114TIP3    H242978   6.222   4.100   8.035 -0.3988 -0.1907 -0.0736
 7115TIP3   OH242979   3.482   4.155   2.143  0.0651 -0.1592  0.5399
 7115TIP3    H142980   3.462   4.158   2.050  0.6147 -2.1269  0.3127
 7115TIP3    H242981   3.576   4.137   2.147 -0.0969 -0.8441  1.4631
 7116TIP3   OH242982   5.673   0.766   2.005  0.1815  0.0067  0.0816
 7116TIP3    H142983   5.664   0.672   1.989  1.7553  0.0692 -1.6104
 7116TIP3    H242984   5.586   0.801   1.990 -0.0100 -0.9710 -1.3342
 7117TIP3   OH242985   1.392   4.733   1.277 -0.0095 -0.0664  0.4583
 7117TIP3    H142986   1.448   4.697   1.209 -0.3263  0.9480 -0.3829
 7117TIP3    H242987   1.375   4.823   1.248  0.4411  0.6451  2.2581
 7118TIP3   OH242988   6.124   3.544   6.627 -0.2558  0.0120  0.0348
 7118TIP3    H142989   6.079   3.618   6.585  0.7027 -0.4506 -1.9444
 7118TIP3    H242990   6.103   3.469   6.571 -1.0817 -1.2367  1.9225
 7119TIP3   OH242991   5.982   4.807   1.723  0.0416 -0.2271  0.0420
 7119TIP3    H142992   5.971   4.725   1.675 -0.4546 -1.4023  2.0478
 7119TIP3    H242993   6.021   4.867   1.659 -1.3293 -1.4179 -2.0298
 7120TIP3   OH242994   4.024   5.560   8.342  0.1010 -0.0288 -0.3601
 7120TIP3    H142995   4.057   5.610   8.417  1.4174 -0.7106 -0.4517
 7120TIP3    H242996   4.052   5.611   8.266 -0.3557  0.1444 -0.4136
 7121TIP3   OH242997   4.674   6.557   8.130  0.0381 -0.0216  0.3881
 7121TIP3    H142998   4.597   6.507   8.104 -0.1710 -0.3019  1.4843
 7121TIP3    H242999   4.736   6.545   8.058 -0.2023 -1.4660  0.3922
 7122TIP3   OH243000   4.160   6.146   0.065 -0.4249  0.5123  0.1003
 7122TIP3    H143001   4.097   6.164   0.135  0.5995  1.2405  0.8781
 7122TIP3    H243002   4.237   6.199   0.088  0.5692 -0.5296 -0.6857
 7123TIP3   OH243003   2.613   1.793   2.099 -0.4126  0.1531  0.2318
 7123TIP3    H143004   2.593   1.755   2.185 -2.8059  1.7074  0.4593
 7123TIP3    H243005   2.697   1.836   2.111 -1.7026  2.2761  2.5691
 7124TIP3   OH243006   1.174   1.871   0.981  0.1864  0.2891 -0.1316
 7124TIP3    H143007   1.095   1.857   1.033  1.0711 -1.1897  0.8901
 7124TIP3    H243008   1.246   1.859   1.043  1.2800 -1.2817 -1.6237
 7125TIP3   OH243009   0.233   0.537   7.185  0.4267 -0.6180 -0.3158
 7125TIP3    H143010   0.278   0.564   7.105 -2.0862  0.6635 -1.4330
 7125TIP3    H243011   0.186   0.616   7.213 -1.1100 -1.8229  0.7011
 7126TIP3   OH243012   0.534   4.212   2.444  0.6870  0.2308 -0.2520
 7126TIP3    H143013   0.489   4.270   2.505 -0.3555 -1.1609  0.3351
 7126TIP3    H243014   0.627   4.221   2.467  0.3831  0.3288  1.0185
 7127TIP3   OH243015   3.974   4.079   2.322  0.5200 -0.2244 -0.0784
 7127TIP3    H143016   3.912   4.085   2.250 -1.2608 -1.2228  1.2750
 7127TIP3    H243017   4.017   3.994   2.311  1.9914  0.6313 -1.2310
 7128TIP3   OH243018   6.593   5.799   7.272  0.3129  0.9164  0.3768
 7128TIP3    H143019   6.667   5.836   7.223  1.7499 -2.1551 -0.0162
 7128TIP3    H243020   6.631   5.772   7.356 -0.6039  0.2393  0.5916
 7129TIP3   OH243021   5.955   2.386   8.476 -0.4383 -0.6280  0.3266
 7129TIP3    H143022   5.944   2.455   8.411  3.4237  0.8647  0.9690
 7129TIP3    H243023   6.021   2.328   8.437 -0.2954 -1.4145  1.6826
 7130TIP3   OH243024   5.612   3.616   8.893 -0.4045 -0.2642  0.3788
 7130TIP3    H143025   5.618   3.693   8.949  1.3318 -0.6226  0.7623
 7130TIP3    H243026   5.596   3.544   8.952 -1.2666 -0.3077  0.1019
 7131TIP3   OH243027   0.126   3.712   8.669 -0.3856  0.2391 -0.0288
 7131TIP3    H143028   0.126   3.666   8.753 -2.0850 -1.1738 -0.7466
 7131TIP3    H243029   0.057   3.778   8.678  0.0257  0.6824 -0.0430
 7132TIP3   OH243030   4.997   4.621   7.860  0.0957  0.0431  0.6203
 7132TIP3    H143031   5.029   4.662   7.780  2.0021 -0.7218  0.9335
 7132TIP3    H243032   4.968   4.693   7.915  1.4095  0.8214  0.3262
 7133TIP3   OH243033   3.769   1.512   0.587 -0.1654  0.5512 -0.0362
 7133TIP3    H143034   3.730   1.599   0.577  0.0579  0.5958 -0.5512
 7133TIP3    H243035   3.698   1.451   0.567  0.3132  0.6344 -2.2279
 7134TIP3   OH243036   6.367   6.607   7.359  0.1457 -0.1186  0.6852
 7134TIP3    H143037   6.276   6.586   7.381 -0.2868  1.3419  0.4302
 7134TIP3    H243038   6.360   6.673   7.290  1.4329 -1.2732 -0.6202
 7135TIP3   OH243039   3.421   4.279   0.582 -0.0357 -0.3657  0.0611
 7135TIP3    H143040   3.461   4.344   0.640  1.1553 -0.2465 -0.8762
 7135TIP3    H243041   3.333   4.267   0.619 -0.4590  2.0594  0.0422
 7136TIP3   OH243042   4.332   5.649   1.750 -0.2000  0.2174  0.1018
 7136TIP3    H143043   4.385   5.665   1.672  2.2996  1.1793  1.8954
 7136TIP3    H243044   4.267   5.719   1.750 -1.2424 -0.6599 -1.8332
 7137TIP3   OH243045   4.546   0.374   8.265  0.3608 -0.0883  0.2070
 7137TIP3    H143046   4.509   0.307   8.322  0.9692 -2.5362 -2.1098
 7137TIP3    H243047   4.636   0.385   8.297  0.2640 -0.3523  0.5756
 7138TIP3   OH243048   3.712   0.049   0.456 -0.7871 -0.3262 -0.3845
 7138TIP3    H143049   3.617   0.054   0.443 -1.2818 -2.2497  1.8043
 7138TIP3    H243050   3.728   0.105   0.532 -0.8443 -2.7535  1.5505
 7139TIP3   OH243051   0.798   5.946   7.294  0.3029 -0.7836 -0.0240
 7139TIP3    H143052   0.749   5.871   7.327  0.4844 -0.8960 -0.0101
 7139TIP3    H243053   0.885   5.912   7.276 -0.3472 -1.2767 -2.6531
 7140TIP3   OH243054   4.308   0.918   8.372 -0.4299  0.4016  0.0439
 7140TIP3    H143055   4.347   0.975   8.306 -1.5213  0.6776 -0.3803
 7140TIP3    H243056   4.328   0.829   8.342 -2.1458  0.4749 -1.4836
 7141TIP3   OH243057   4.889   4.606   2.510 -0.4120 -0.0461 -0.2892
 7141TIP3    H143058   4.896   4.513   2.528  0.3639  0.1391  0.4173
 7141TIP3    H243059   4.855   4.644   2.591  1.0931  0.5136  0.1222
 7142TIP3   OH243060   2.984   2.369   1.534  0.1016  0.0239 -0.1171
 7142TIP3    H143061   2.995   2.414   1.618  1.2167  0.4218 -0.4454
 7142TIP3    H243062   3.073   2.342   1.510 -0.1318  0.2582 -1.3414
 7143TIP3   OH243063   6.077   1.131   3.063 -0.5753  0.2318 -0.3634
 7143TIP3    H143064   6.165   1.132   3.102 -0.7191 -0.4782  0.0153
 7143TIP3    H243065   6.092   1.138   2.969  0.0543 -2.1438 -0.5108
 7144TIP3   OH243066   0.093   2.302   2.142  0.0206  0.1474  0.2639
 7144TIP3    H143067   0.154   2.237   2.177  0.3901  0.2209 -0.2268
 7144TIP3    H243068   0.109   2.381   2.193  0.3760  0.1822  0.0980
 7145TIP3   OH243069   2.067   0.266   0.240 -0.0721  0.4360 -0.1753
 7145TIP3    H143070   2.108   0.282   0.155 -0.8941  4.9926  0.0430
 7145TIP3    H243071   1.975   0.290   0.227 -0.8282 -1.3069  1.4381
 7146TIP3   OH243072   4.530   3.410   7.695  0.0825 -0.4260 -0.6957
 7146TIP3    H143073   4.590   3.424   7.769  0.9494  3.1193 -1.8427
 7146TIP3    H243074   4.447   3.387   7.736  1.2774 -1.7732  1.1550
 7147TIP3   OH243075   0.140   0.132   1.434  0.4656 -0.3013  0.3686
 7147TIP3    H143076   0.096   0.048   1.446 -1.1744  0.5155  0.3547
 7147TIP3    H243077   0.171   0.157   1.521 -0.5202 -0.1601  0.6910
 7148TIP3   OH243078   4.208   5.583   0.377  0.5476  0.2944 -0.0270
 7148TIP3    H143079   4.222   5.606   0.469  1.8933  2.1290 -0.6255
 7148TIP3    H243080   4.284   5.531   0.353 -1.3212 -3.0344  0.6532
 7149TIP3   OH243081   6.583   3.667   8.514  0.4019 -0.4421 -0.2319
 7149TIP3    H143082   6.600   3.602   8.581  0.9232 -1.2678 -1.1402
 7149TIP3    H243083   6.564   3.747   8.562  2.2613 -0.6247  0.9105
 7150TIP3   OH243084   1.095   0.840   7.567  0.0472 -0.1527  0.2289
 7150TIP3    H143085   1.117   0.835   7.474 -2.0084  1.1679 -0.3935
 7150TIP3    H243086   1.046   0.760   7.585 -1.4714  0.6091 -0.4204
 7151TIP3   OH243087   0.107   1.301   1.267 -0.4144  0.2393 -0.7572
 7151TIP3    H143088   0.054   1.222   1.260  1.4101 -1.5511  2.5751
 7151TIP3    H243089   0.049   1.366   1.306 -0.9804 -0.7380  0.0768
 7152TIP3   OH243090   6.132   0.709   2.316 -0.2713  0.1918 -0.1965
 7152TIP3    H143091   6.045   0.700   2.279  0.4308 -2.0130 -1.5118
 7152TIP3    H243092   6.132   0.651   2.393  0.2805 -0.5649 -0.7517
 7153TIP3   OH243093   6.424   5.798   1.796 -0.0749 -0.5989  0.2474
 7153TIP3    H143094   6.465   5.880   1.825 -0.3443  0.7273 -2.7861
 7153TIP3    H243095   6.462   5.781   1.710 -0.3904 -3.4688  0.5837
 7154TIP3   OH243096   3.912   5.525   7.275 -0.2344 -0.0840 -0.2874
 7154TIP3    H143097   3.893   5.616   7.299  0.6290  0.5423 -1.7847
 7154TIP3    H243098   3.834   5.476   7.300 -0.2849  0.8531  1.5782
 7155TIP3   OH243099   2.874   6.106   7.621 -0.0557  0.2716  0.0515
 7155TIP3    H143100   2.956   6.112   7.671  0.1750 -0.6750 -0.2103
 7155TIP3    H243101   2.888   6.165   7.547  1.5047 -1.9200 -1.5210
 7156TIP3   OH243102   5.238   2.283   0.826 -0.3898  0.2047  0.0342
 7156TIP3    H143103   5.309   2.343   0.849 -0.3897 -0.0037  0.5930
 7156TIP3    H243104   5.167   2.340   0.796  0.3959  0.3558 -1.6210
 7157TIP3   OH243105   5.422   3.285   7.339 -0.6631  0.1713  0.5529
 7157TIP3    H143106   5.331   3.309   7.321 -1.0575 -1.0219  0.8450
 7157TIP3    H243107   5.472   3.332   7.273 -1.6201 -0.1162 -0.4187
 7158TIP3   OH243108   3.333   3.202   8.204  0.2026  0.3077 -0.3492
 7158TIP3    H143109   3.356   3.294   8.195  1.6550 -0.1011 -1.1604
 7158TIP3    H243110   3.304   3.193   8.295  1.4833  1.2760  0.1863
 7159TIP3   OH243111   5.941   2.281   0.337 -0.0025  0.1403 -0.4951
 7159TIP3    H143112   5.924   2.280   0.432  0.5072 -0.0141 -0.4001
 7159TIP3    H243113   6.027   2.323   0.329  0.4221 -0.7663 -0.8069
 7160TIP3   OH243114   4.445   4.321   2.213 -0.0128  0.0663 -0.2797
 7160TIP3    H143115   4.453   4.409   2.249 -1.3436  0.5454 -1.0846
 7160TIP3    H243116   4.430   4.334   2.120  0.8999 -1.0674 -0.5988
 7161TIP3   OH243117   1.810   4.005   8.697  0.3090 -0.0791  0.2408
 7161TIP3    H143118   1.832   4.007   8.604 -3.3079  1.7395 -0.7853
 7161TIP3    H243119   1.882   3.958   8.739  2.0882 -0.9500 -3.4472
 7162TIP3   OH243120   4.119   6.351   0.537 -0.0248 -0.2726  0.0065
 7162TIP3    H143121   4.033   6.373   0.574 -0.6896 -1.8016 -0.5269
 7162TIP3    H243122   4.128   6.410   0.462 -0.6837 -0.2001 -0.0233
 7163TIP3   OH243123   3.251   2.376   1.761 -0.2545 -0.1560 -0.3696
 7163TIP3    H143124   3.317   2.391   1.828 -0.5938 -1.1629  0.2210
 7163TIP3    H243125   3.180   2.437   1.782 -0.4111 -0.5534  0.2770
 7164TIP3   OH243126   4.475   0.691   1.321 -0.1343  0.0182  0.3859
 7164TIP3    H143127   4.389   0.655   1.345 -0.9110  0.3488 -1.6912
 7164TIP3    H243128   4.457   0.780   1.291  0.7667 -0.2758 -1.1141
 7165TIP3   OH243129   3.221   4.490   8.270 -0.0694  0.0601  0.5070
 7165TIP3    H143130   3.286   4.428   8.303 -0.5410 -0.7385 -0.0554
 7165TIP3    H243131   3.143   4.438   8.253 -0.8199  0.9795  1.0008
 7166TIP3   OH243132   1.242   4.131   7.521 -0.3291  0.4135  0.3011
 7166TIP3    H143133   1.146   4.138   7.519 -0.6699 -2.5969 -2.1610
 7166TIP3    H243134   1.259   4.057   7.579  0.2142 -0.6724 -1.1575
 7167TIP3   OH243135   5.544   6.195   0.645 -0.6807 -0.2773 -0.2082
 7167TIP3    H143136   5.492   6.115   0.640 -0.5451 -0.3818  0.0511
 7167TIP3    H243137   5.635   6.164   0.645 -0.6337 -0.1797  0.8212
 7168TIP3   OH243138   1.841   3.491   8.438  0.2313 -0.1873  0.6698
 7168TIP3    H143139   1.900   3.482   8.363 -0.3949  0.1971  0.1180
 7168TIP3    H243140   1.802   3.577   8.428 -2.8079 -1.5722 -0.7956
 7169TIP3   OH243141   6.123   5.091   1.725 -0.3182 -0.0655 -0.0367
 7169TIP3    H143142   6.074   5.050   1.654 -2.3842  1.9979  0.0614
 7169TIP3    H243143   6.127   5.024   1.793  0.3428 -1.5508 -1.4765
 7170TIP3   OH243144   1.790   0.221   1.413 -0.1982 -0.0908 -0.9662
 7170TIP3    H143145   1.878   0.258   1.426 -0.1491  0.0880 -1.7605
 7170TIP3    H243146   1.732   0.281   1.461  0.3144 -1.4840  1.5270
 7171TIP3   OH243147   6.414   6.532   0.432 -1.0411 -0.0927 -0.3886
 7171TIP3    H143148   6.441   6.447   0.466 -1.5403  0.3724  1.2677
 7171TIP3    H243149   6.402   6.518   0.338 -0.7171 -1.7348 -0.2103
 7172TIP3   OH243150   0.526   5.665   7.957 -0.2196  0.1847  0.0634
 7172TIP3    H143151   0.562   5.749   7.929  1.5427 -0.3753  0.4997
 7172TIP3    H243152   0.468   5.638   7.886 -3.2770  3.0931  1.1485
 7173TIP3   OH243153   0.825   0.348   2.331  0.2976  0.0644 -0.0100
 7173TIP3    H143154   0.877   0.269   2.347 -0.0594 -0.2500 -0.3757
 7173TIP3    H243155   0.804   0.343   2.237  2.3729  1.8560 -0.6517
 7174TIP3   OH243156   6.732   0.732   2.077 -1.5716  0.4342  0.4088
 7174TIP3    H143157   6.754   0.675   2.151 -1.4303 -1.1583 -0.8021
 7174TIP3    H243158   6.652   0.693   2.040 -0.8350  0.3298 -1.1407
 7175TIP3   OH243159   6.593   1.031   8.026  0.4250  0.1867  0.5144
 7175TIP3    H143160   6.650   1.072   8.090 -0.0051  0.1565  0.9230
 7175TIP3    H243161   6.637   0.949   8.003  0.8379  0.4436  0.3725
 7176TIP3   OH243162   0.884   0.026   2.200 -0.0812 -0.3219  0.2536
 7176TIP3    H143163   0.948  -0.044   2.184  0.7359  0.5858 -0.6306
 7176TIP3    H243164   0.895   0.047   2.293  0.7891 -0.3172  0.1621
 7177LIG     O143165   5.444   6.620   1.645  0.0266 -0.0136  0.4123
 7177LIG     O243166   5.068   6.515   1.403  0.2679  0.9542 -0.1198
 7177LIG     N143167   5.186   6.337   1.502 -0.4184 -0.6121  0.6128
 7177LIG     N243168   5.499   6.318   1.660  0.3560  0.5018  0.2987
 7177LIG     N343169   5.240   6.565   1.550 -0.1762  0.4327  0.9784
 7177LIG     N443170   5.348   6.173   1.582 -0.3470  0.3376  0.1868
 7177LIG     C143171   5.393   6.396   1.609  0.1026 -0.5071 -0.0354
 7177LIG     C243172   5.305   6.304   1.566  0.1512 -1.0044  0.2762
 7177LIG     C343173   5.370   6.534   1.607  0.2545 -0.3781 -0.5380
 7177LIG     C443174   5.156   6.475   1.482 -0.1795  0.1171  0.2209
 7177LIG     C543175   5.461   6.187   1.646 -0.0074  0.5153  0.7604
 7177LIG     C643176   5.099   6.245   1.434 -0.4265  0.2258  0.2284
 7177LIG     C743177   5.618   6.369   1.731  0.4356  0.2354 -0.1318
 7177LIG     C843178   5.205   6.707   1.526  0.8950  0.3946 -0.1293
 7177LIG     H143179   5.520   6.103   1.683  0.4704  0.8142  0.6941
 7177LIG     H243180   5.091   6.281   1.329 -1.3336  5.6814  1.8480
 7177LIG     H343181   4.998   6.256   1.478 -1.0261 -1.4200 -0.6212
 7177LIG     H443182   5.131   6.138   1.439  0.9798  0.6034 -0.0348
 7177LIG     H543183   5.597   6.466   1.781 -0.9629 -0.3890  0.5664
 7177LIG     H643184   5.702   6.389   1.661 -0.5356  0.6953 -1.1973
 7177LIG     H743185   5.650   6.299   1.812  1.0253 -0.1037 -0.6474
 7177LIG     H843186   5.094   6.707   1.523  0.8118 -2.6959 -1.0144
 7177LIG     H943187   5.234   6.743   1.425 -2.2878 -0.8081 -1.6104
 7177LIG    H1043188   5.244   6.788   1.590  1.0749 -0.4424  0.8544
   6.80190   6.80190   8.93510
